FOO
135168
    1MOL0     O    1   8.554   6.187   4.678  0.7224  0.0035 -0.4070
    1MOL0     C    2   8.565   6.306   4.672 -0.2216 -0.8503 -0.2371
    1MOL0     O    3   8.470   6.394   4.632 -0.1459 -0.6137  0.1545
    1MOL0     C    4   8.343   6.347   4.617 -0.1136  0.2424  0.7141
    1MOL0     C    5   8.305   6.235   4.537  0.2133  0.4411 -0.6450
    1MOL0     C    6   8.173   6.197   4.520 -0.0537 -0.6973 -0.2704
    1MOL0     C    7   8.071   6.273   4.583 -0.0725  0.3512 -0.2631
    1MOL0     O    8   7.932   6.263   4.567  0.5016 -0.7225 -0.1622
    1MOL0     C    9   7.885   6.153   4.487  1.3907 -0.4659  0.2349
    1MOL0     C   10   7.907   6.014   4.555  0.8576  0.4595  0.5939
    1MOL0     C   11   7.880   5.886   4.473 -0.0701  1.0093  0.2897
    1MOL0     C   12   7.885   5.756   4.561 -0.4379 -0.2910  0.9371
    1MOL0     C   13   8.030   5.701   4.579  0.9040  0.2690  1.0777
    1MOL0     C   14   8.022   5.599   4.694  0.2185  0.9669  0.0593
    1MOL0     C   15   8.166   5.561   4.738 -0.2023 -1.2582 -0.1312
    1MOL0     C   16   8.166   5.468   4.859 -0.7039 -0.5304 -0.7611
    1MOL0     N   17   8.098   5.339   4.845  0.4026 -0.8426 -0.5199
    1MOL0     C   18   8.140   5.244   4.765  0.1933  0.3697 -0.2756
    1MOL0     C   19   8.040   5.154   4.786  0.0207  1.1559 -0.2946
    1MOL0     C   20   8.030   5.025   4.705  0.5582  0.0926  0.6386
    1MOL0     C   21   7.980   5.049   4.561  0.3995  0.2051  0.5094
    1MOL0     C   22   7.986   4.914   4.488 -0.3810  0.4313 -0.6050
    1MOL0     C   23   7.937   4.938   4.346  0.2380  1.9746 -0.0720
    1MOL0     O   24   7.959   4.818   4.262  0.5541 -0.0524  0.2532
    1MOL0     C   25   7.854   4.741   4.244  0.6603 -0.0495  0.1418
    1MOL0     C   26   7.752   4.777   4.157 -0.2730 -0.0769  0.1112
    1MOL0     C   27   7.652   4.691   4.118  0.6831  0.5073 -1.1407
    1MOL0     C   28   7.647   4.558   4.177 -0.5081 -0.0709 -0.2866
    1MOL0     C   29   7.542   4.463   4.134  0.6760 -0.0716  0.8981
    1MOL0     O   30   7.504   4.473   4.010 -0.1529 -0.1191  0.2859
    1MOL0     C   31   7.440   4.372   3.939 -0.3990 -0.5903 -0.3350
    1MOL0     C   32   7.362   4.265   3.990 -0.2514 -0.0815 -0.0978
    1MOL0     C   33   7.314   4.160   3.905  0.0443  0.4700  0.0472
    1MOL0     C   34   7.367   4.147   3.778 -0.8050 -0.3366  0.4051
    1MOL0     O   35   7.325   4.046   3.690  0.0344 -0.5463 -0.1932
    1MOL0     C   36   7.298   3.916   3.744 -0.2791 -0.1742  0.5431
    1MOL0     C   37   7.255   3.832   3.626  0.0319  0.1142 -1.0748
    1MOL0     C   38   7.115   3.884   3.570 -0.8023  0.6707  0.3062
    1MOL0     C   39   7.061   3.781   3.471  0.1951 -0.5507 -0.7083
    1MOL0     C   40   6.923   3.821   3.420  0.1898 -0.7320 -0.6840
    1MOL0     C   41   6.883   3.723   3.308 -0.7052  0.6836 -0.5091
    1MOL0     C   42   6.974   3.741   3.184  0.1394 -1.1489  0.2743
    1MOL0     C   43   6.902   3.684   3.051 -0.2693  0.7785  0.4278
    1MOL0    Cl   44   7.031   3.649   2.933 -0.4178  0.6383 -0.3572
    1MOL0     C   45   7.443   4.252   3.728  0.5215 -0.4952 -0.6718
    1MOL0     C   46   7.462   4.373   3.802  0.2607  0.2896  1.2556
    1MOL0     O   47   7.500   4.384   4.222  0.0894 -0.5026 -0.4103
    1MOL0     C   48   7.740   4.535   4.280  0.2999  0.0993  0.1722
    1MOL0     C   49   7.846   4.621   4.311 -1.0550  0.2739 -0.1380
    1MOL0     N   50   7.949   5.198   4.879 -0.2830  1.1122  0.1503
    1MOL0     N   51   7.981   5.313   4.917 -0.3297  0.3546  0.0958
    1MOL0     C   52   8.120   6.375   4.662  0.3375 -0.5558 -0.6367
    1MOL0     C   53   8.247   6.419   4.679  0.4211 -0.8996  0.0642
    1MOL0     C   54   8.696   6.370   4.691  0.9896  0.1722  0.0135
    1MOL0     C   55   8.718   6.510   4.719  0.4000  0.2652  0.3841
    1MOL0     C   56   8.851   6.550   4.753  0.0363 -0.1761  0.2790
    1MOL0     C   57   8.959   6.458   4.753  0.1196  0.1441  0.0398
    1MOL0     O   58   9.088   6.485   4.781  0.1247 -0.3102  0.2478
    1MOL0     C   59   9.132   6.616   4.823  0.9122 -0.1757 -0.2041
    1MOL0     C   60   9.268   6.585   4.878  0.2687 -0.7154 -0.4950
    1MOL0     C   61   9.340   6.713   4.924 -0.9711  0.4227  0.4003
    1MOL0     C   62   9.474   6.680   5.004  0.0646  0.3596  0.5594
    1MOL0     C   63   9.563   6.610   4.906 -0.3465  1.0247 -0.1000
    1MOL0     C   64   9.634   6.540   4.835  0.7199 -0.7448 -0.1077
    1MOL0     C   65   8.932   6.327   4.730  0.2288  0.6549 -0.1647
    1MOL0     C   66   8.804   6.274   4.689  0.2698 -0.0454  0.0530
    1MOL0     H   67   8.382   6.185   4.480 -0.4285  0.7280 -1.7973
    1MOL0     H   68   8.141   6.132   4.439  3.6378 -0.5054 -2.0639
    1MOL0     H   69   7.919   6.160   4.384  3.9742 -0.8424  0.9973
    1MOL0     H   70   7.775   6.152   4.494  1.3193  2.1107  0.4074
    1MOL0     H   71   7.846   6.007   4.646 -0.5099  1.7505 -0.1825
    1MOL0     H   72   8.013   6.016   4.584  0.9960  0.1358  0.1144
    1MOL0     H   73   7.955   5.879   4.393 -2.2698 -1.5948 -1.7516
    1MOL0     H   74   7.783   5.893   4.424  1.4091 -4.1020 -4.4271
    1MOL0     H   75   7.837   5.755   4.659 -0.0898 -1.0624  1.1099
    1MOL0     H   76   7.823   5.678   4.516  0.7755 -0.4823 -0.4715
    1MOL0     H   77   8.093   5.787   4.604 -2.2788  2.8427  0.9567
    1MOL0     H   78   8.074   5.662   4.487 -0.0773  2.5389 -0.4533
    1MOL0     H   79   7.964   5.510   4.668  0.5127  0.0880  2.2129
    1MOL0     H   80   7.973   5.645   4.780 -1.1342  1.4489 -0.9437
    1MOL0     H   81   8.221   5.520   4.653 -1.1965 -0.4418 -1.1946
    1MOL0     H   82   8.221   5.649   4.773  1.2448 -3.1781  2.8226
    1MOL0     H   83   8.124   5.518   4.947  0.7363 -4.5169  2.4626
    1MOL0     H   84   8.271   5.456   4.888 -1.0037  1.1217  1.2601
    1MOL0     H   85   8.230   5.234   4.706 -0.6455 -0.4433 -1.4652
    1MOL0     H   86   7.962   4.957   4.757  0.5212 -0.0303  0.4316
    1MOL0     H   87   8.123   4.968   4.700  0.4251 -0.0124 -1.1432
    1MOL0     H   88   8.041   5.122   4.507 -1.9069  2.4886  0.8286
    1MOL0     H   89   7.878   5.087   4.560  0.0291 -0.7787 -0.9154
    1MOL0     H   90   8.090   4.884   4.471  0.4212  2.2082  0.8515
    1MOL0     H   91   7.929   4.835   4.539  0.1334  1.0272  0.9482
    1MOL0     H   92   7.994   5.018   4.300  1.1473 -0.1441 -2.9063
    1MOL0     H   93   7.831   4.965   4.348 -0.7484 -1.4408  0.8175
    1MOL0     H   94   7.747   4.877   4.116  3.5687 -0.3782 -1.4539
    1MOL0     H   95   7.567   4.719   4.057 -0.5559  1.6253  0.9919
    1MOL0     H   96   7.323   4.263   4.091  0.4280  0.4825  0.1855
    1MOL0     H   97   7.245   4.091   3.953  1.7357 -0.0404  1.9049
    1MOL0     H   98   7.216   3.918   3.816  1.0535  2.2208  2.1337
    1MOL0     H   99   7.383   3.871   3.798 -0.2854 -0.9060 -0.0421
    1MOL0     H  100   7.236   3.729   3.656  1.4558  0.8070  2.6845
    1MOL0     H  101   7.333   3.834   3.549  1.2976  0.7816  0.1820
    1MOL0     H  102   7.139   3.973   3.511 -0.4466 -0.7134 -1.7758
    1MOL0     H  103   7.047   3.902   3.654  0.1476 -2.9974  2.0686
    1MOL0     H  104   7.133   3.765   3.390  1.9217 -1.5163  0.9445
    1MOL0     H  105   7.059   3.688   3.529  2.3347 -0.0281  0.2849
    1MOL0     H  106   6.926   3.925   3.386  1.5151 -1.2946 -2.4260
    1MOL0     H  107   6.863   3.811   3.511  0.7476  1.7911  0.0223
    1MOL0     H  108   6.778   3.750   3.293 -0.3688  2.7541  0.4128
    1MOL0     H  109   6.897   3.623   3.350  4.1261  0.4983 -1.8603
    1MOL0     H  110   7.007   3.845   3.173 -1.2610 -0.2577  3.3562
    1MOL0     H  111   7.069   3.687   3.192  1.7484  1.3877 -0.5296
    1MOL0     H  112   6.839   3.766   3.013  1.7072  2.0775 -0.2138
    1MOL0     H  113   6.842   3.595   3.072 -2.6945  2.5348  1.3562
    1MOL0     H  114   7.466   4.255   3.622  1.0634 -0.6246 -0.5597
    1MOL0     H  115   7.517   4.450   3.751  2.4184 -2.0012 -0.1175
    1MOL0     H  116   7.746   4.439   4.330 -1.1706 -0.1398 -0.0691
    1MOL0     H  117   7.928   4.589   4.376  0.8240 -0.5813 -2.7619
    1MOL0     H  118   8.051   6.440   4.715 -1.3053 -0.2218 -2.9907
    1MOL0     H  119   8.266   6.499   4.750 -1.1767 -0.8939  0.5243
    1MOL0     H  120   8.640   6.585   4.716 -1.2028 -1.2903  1.0312
    1MOL0     H  121   8.871   6.656   4.769 -0.0110  0.8820 -4.8014
    1MOL0     H  122   9.060   6.661   4.891 -1.0923 -1.6843 -1.2013
    1MOL0     H  123   9.123   6.684   4.738 -2.1489  0.2786  0.3631
    1MOL0     H  124   9.263   6.513   4.960  1.9529  1.5193  1.7574
    1MOL0     H  125   9.336   6.535   4.808  2.4949  0.5966  0.6308
    1MOL0     H  126   9.272   6.767   4.992 -2.9751 -0.8291 -0.4932
    1MOL0     H  127   9.353   6.779   4.838 -3.2557 -0.4482 -0.7052
    1MOL0     H  128   9.521   6.776   5.024  0.3214  0.0374  1.5678
    1MOL0     H  129   9.451   6.626   5.097 -4.1541 -1.9073 -1.5068
    1MOL0     H  130   9.697   6.466   4.788 -2.4649 -0.9761 -4.6461
    1MOL0     H  131   9.017   6.260   4.739  0.0937  0.5499  0.3634
    1MOL0     H  132   8.796   6.168   4.668  0.2934 -0.1153  0.3902
    2MOL0     O  133   9.822   7.813  10.189  0.0504 -0.6217 -0.7469
    2MOL0     C  134   9.880   7.902  10.133 -0.8556  0.2803  0.7412
    2MOL0     O  135   9.824   8.010  10.068 -0.3355  1.0733  1.1126
    2MOL0     C  136   9.701   8.048  10.115 -0.2104  0.6005  0.0669
    2MOL0     C  137   9.580   7.981  10.080 -0.8094 -1.0964 -0.2573
    2MOL0     C  138   9.460   8.009  10.145  1.4033 -0.2262 -0.1734
    2MOL0     C  139   9.460   8.112  10.240 -1.0148 -1.0893  0.1531
    2MOL0     O  140   9.338   8.156  10.282  0.2948 -0.7698 -0.0729
    2MOL0     C  141   9.252   8.219  10.183 -0.4445  0.3883 -0.4637
    2MOL0     C  142   9.132   8.288  10.249  0.7477 -0.0635  0.0869
    2MOL0     C  143   9.024   8.191  10.292  0.2163  0.0379 -0.1572
    2MOL0     C  144   8.900   8.258  10.345 -0.7725  0.8745  0.5949
    2MOL0     C  145   8.797   8.187  10.419  0.5157  0.0171  0.7087
    2MOL0     C  146   8.697   8.284  10.486 -0.1155 -0.4506 -0.0657
    2MOL0     C  147   8.629   8.384  10.396 -0.7793 -0.3317  0.1585
    2MOL0     C  148   8.492   8.415  10.432  0.7739 -0.4933 -0.1744
    2MOL0     N  149   8.432   8.490  10.324 -0.1920 -0.3540  0.5483
    2MOL0     C  150   8.313   8.456  10.277 -0.6367 -0.5852  0.4087
    2MOL0     C  151   8.301   8.535  10.170  0.1485 -0.1617  0.0096
    2MOL0     C  152   8.175   8.546  10.091 -0.5317  0.2791  0.5183
    2MOL0     C  153   8.182   8.661   9.986  0.0402 -0.2495  0.4022
    2MOL0     C  154   8.074   8.648   9.872 -1.3390  0.2769  0.2303
    2MOL0     C  155   7.937   8.634   9.937  0.5851  1.0092 -0.5059
    2MOL0     O  156   7.850   8.650   9.828  0.1942 -1.0179  0.1097
    2MOL0     C  157   7.720   8.609   9.834 -0.4025 -0.4505 -0.3482
    2MOL0     C  158   7.648   8.575   9.943  0.5449  0.0899 -0.8018
    2MOL0     C  159   7.511   8.544   9.955  0.2711  0.2577  0.2063
    2MOL0     C  160   7.430   8.538   9.835 -0.6468  0.1665 -0.0256
    2MOL0     C  161   7.292   8.491   9.823  0.0182 -0.7302  0.4278
    2MOL0     O  162   7.243   8.435   9.937  0.3047 -0.2530  0.1541
    2MOL0     C  163   7.119   8.375   9.929  0.0072  0.0790  0.0509
    2MOL0     C  164   7.125   8.241   9.977 -0.3359  0.7455  0.3809
    2MOL0     C  165   7.002   8.169   9.990 -0.4570 -0.9111 -0.4862
    2MOL0     C  166   6.881   8.229   9.955 -0.0946  0.9772 -0.1165
    2MOL0     O  167   6.772   8.147   9.978  0.0662 -0.1683  0.0681
    2MOL0     C  168   6.639   8.201   9.990 -0.3276  0.2510  0.4600
    2MOL0     C  169   6.588   8.162  10.130 -1.2860  0.2660  0.2530
    2MOL0     C  170   6.440   8.132  10.126 -0.2985  0.0958 -0.0095
    2MOL0     C  171   6.392   8.089  10.262  1.3374  0.2423  0.4746
    2MOL0     C  172   6.233   8.073  10.255 -0.0735 -0.3344  0.4689
    2MOL0     C  173   6.197   7.948  10.171 -0.2352  0.7274 -0.0667
    2MOL0     C  174   6.057   7.905  10.210 -0.3326 -0.0649  0.2292
    2MOL0     C  175   6.033   7.821  10.345 -0.0018 -0.0543  0.3743
    2MOL0    Cl  176   5.865   7.779  10.370  0.4550  0.3239 -0.0476
    2MOL0     C  177   6.879   8.359   9.896 -0.1098  0.3044 -0.7965
    2MOL0     C  178   6.997   8.432   9.892  0.7323 -0.1282  0.1303
    2MOL0     O  179   7.239   8.490   9.712  0.5475  0.2325 -0.1082
    2MOL0     C  180   7.510   8.575   9.713  0.7313  0.4296 -0.0766
    2MOL0     C  181   7.647   8.612   9.715 -0.2783 -0.5131  0.0020
    2MOL0     N  182   8.414   8.605  10.157 -0.2961  0.1574  0.4360
    2MOL0     N  183   8.495   8.584  10.251 -0.1240  0.1766 -0.4168
    2MOL0     C  184   9.577   8.184  10.272 -0.2911  0.3886 -1.0365
    2MOL0     C  185   9.694   8.163  10.203 -0.3893  0.3684 -0.1312
    2MOL0     C  186  10.026   7.881  10.097 -0.2583  0.3656 -0.0757
    2MOL0     C  187  10.095   7.761  10.132  0.1909 -0.5633 -0.1292
    2MOL0     C  188  10.233   7.750  10.099  0.0130  0.0264  0.7487
    2MOL0     C  189  10.315   7.856  10.079  0.0286 -0.1507 -0.6550
    2MOL0     O  190  10.449   7.833  10.061 -0.5641 -0.0271 -0.4744
    2MOL0     C  191  10.540   7.947  10.056  0.0935 -0.3832  0.3368
    2MOL0     C  192  10.560   7.974   9.907 -0.3328  0.1728  0.3226
    2MOL0     C  193  10.662   8.097   9.883  0.6165  0.7164 -1.2212
    2MOL0     C  194  10.803   8.061   9.936  0.7063 -0.2200 -0.5364
    2MOL0     C  195  10.907   8.153   9.880  0.0044  0.4935 -0.0885
    2MOL0     C  196  10.988   8.240   9.856 -0.5270  0.0643 -1.0499
    2MOL0     C  197  10.243   7.981  10.061  0.3058  0.8839  0.2269
    2MOL0     C  198  10.107   7.988  10.052 -0.0755  0.1995  0.6853
    2MOL0     H  199   9.566   7.907  10.001 -2.6070 -0.0129 -1.0427
    2MOL0     H  200   9.370   7.964  10.105 -0.0989  1.2992  1.2797
    2MOL0     H  201   9.217   8.143  10.112  0.4217 -1.9731  1.4814
    2MOL0     H  202   9.315   8.289  10.127 -2.1375  1.7979 -0.6772
    2MOL0     H  203   9.098   8.368  10.182  0.7894 -0.5853 -0.5729
    2MOL0     H  204   9.164   8.347  10.335 -1.2628 -0.8683  1.4446
    2MOL0     H  205   9.075   8.122  10.361  0.4670 -1.2931 -1.6108
    2MOL0     H  206   9.000   8.130  10.205  0.5712  1.3180 -1.1716
    2MOL0     H  207   8.927   8.345  10.405  1.2786 -0.1007  1.2064
    2MOL0     H  208   8.849   8.303  10.260 -1.3312 -0.0735  0.4145
    2MOL0     H  209   8.840   8.134  10.504 -0.2015  1.1212  1.7900
    2MOL0     H  210   8.753   8.124  10.340 -1.6211 -1.9372  3.2576
    2MOL0     H  211   8.750   8.335  10.566 -0.0984  0.5362 -0.6812
    2MOL0     H  212   8.629   8.217  10.540  0.3140  0.3891  1.5829
    2MOL0     H  213   8.684   8.478  10.395  0.7973 -1.2335 -0.4885
    2MOL0     H  214   8.630   8.344  10.294  1.5088 -0.0582  0.0243
    2MOL0     H  215   8.479   8.474  10.523 -1.1501 -0.0741 -0.6786
    2MOL0     H  216   8.442   8.318  10.434  2.8017 -1.6058 -0.8137
    2MOL0     H  217   8.238   8.383  10.303 -1.0069 -1.5273 -2.8390
    2MOL0     H  218   8.088   8.581  10.146 -1.8511  2.8803 -2.8753
    2MOL0     H  219   8.164   8.454  10.033 -0.0992  0.8889 -0.5482
    2MOL0     H  220   8.283   8.662   9.945  0.3976 -1.2272  1.2173
    2MOL0     H  221   8.169   8.757  10.037 -1.5963 -0.9530  1.3815
    2MOL0     H  222   8.070   8.729   9.798 -0.4117  1.4153  1.3783
    2MOL0     H  223   8.113   8.563   9.816 -1.1227 -0.2181  1.1140
    2MOL0     H  224   7.921   8.714  10.010 -1.5954 -0.2057  0.4635
    2MOL0     H  225   7.928   8.534   9.982  1.6419  1.3364  0.4651
    2MOL0     H  226   7.698   8.569  10.040  2.3837 -1.8505 -1.7812
    2MOL0     H  227   7.467   8.531  10.053 -2.0383  0.8034 -0.7004
    2MOL0     H  228   7.210   8.182  10.007 -0.9212  0.5965  1.8444
    2MOL0     H  229   7.001   8.070  10.033  1.3495 -0.4525  0.7204
    2MOL0     H  230   6.572   8.160   9.914 -0.4459 -1.9863  1.6893
    2MOL0     H  231   6.633   8.310   9.984 -2.6378  0.1134 -1.1071
    2MOL0     H  232   6.614   8.252  10.187 -1.6249 -1.0254  2.5782
    2MOL0     H  233   6.640   8.076  10.173  2.2170  1.4088 -1.3258
    2MOL0     H  234   6.437   8.051  10.052  1.3404  1.1817 -1.3553
    2MOL0     H  235   6.389   8.217  10.081  2.1793  1.7198  0.0628
    2MOL0     H  236   6.444   7.994  10.274 -0.5914 -1.6366 -3.8449
    2MOL0     H  237   6.421   8.162  10.338 -0.3031  1.6266 -0.1681
    2MOL0     H  238   6.186   8.160  10.209  0.5313  0.8674  2.0313
    2MOL0     H  239   6.194   8.075  10.357  4.0927  0.1428  2.2328
    2MOL0     H  240   6.269   7.869  10.193  1.3179  1.7166 -1.3277
    2MOL0     H  241   6.215   7.970  10.066 -1.7690 -0.0011 -0.5024
    2MOL0     H  242   5.996   7.993  10.232  0.8228  0.1422  3.0108
    2MOL0     H  243   6.021   7.849  10.123 -0.3541  0.3999 -0.0666
    2MOL0     H  244   6.077   7.880  10.426  3.0547 -1.7605  0.0919
    2MOL0     H  245   6.102   7.736  10.350  0.2581  0.2168  2.1068
    2MOL0     H  246   6.785   8.402   9.865 -1.0454  0.0398  1.4441
    2MOL0     H  247   7.006   8.537   9.868  1.1094 -0.3247 -0.6203
    2MOL0     H  248   7.473   8.558   9.612  0.8845 -0.3850 -0.0105
    2MOL0     H  249   7.709   8.642   9.630 -0.5691 -1.4143 -0.5408
    2MOL0     H  250   9.568   8.266  10.343  0.0146  1.4205 -2.1664
    2MOL0     H  251   9.790   8.213  10.210 -0.0726 -0.1405 -0.7192
    2MOL0     H  252  10.028   7.679  10.153  1.6475 -2.6240 -2.8506
    2MOL0     H  253  10.277   7.652  10.111 -1.3161 -1.1879 -2.7873
    2MOL0     H  254  10.632   7.925  10.111 -0.5359 -2.5301  0.6620
    2MOL0     H  255  10.496   8.038  10.097 -1.6999 -1.9772  2.2197
    2MOL0     H  256  10.601   7.891   9.849 -2.4883  1.3737 -3.2361
    2MOL0     H  257  10.462   7.992   9.863 -0.7490 -1.7342  0.3873
    2MOL0     H  258  10.621   8.194   9.914 -0.8413  0.5626 -2.5544
    2MOL0     H  259  10.663   8.119   9.776  2.7831  0.2037 -1.3576
    2MOL0     H  260  10.811   8.078  10.043 -3.3067 -1.0064  0.0226
    2MOL0     H  261  10.835   7.964   9.897 -1.0045 -0.9601 -0.1807
    2MOL0     H  262  11.067   8.311   9.844 -1.3111  1.3003  0.7179
    2MOL0     H  263  10.294   8.077  10.058  0.5989  0.7170 -0.2231
    2MOL0     H  264  10.061   8.086  10.041  1.6275  1.0847  1.1221
    3MOL0     O  265   9.872   3.776   3.205 -0.0700  0.5024 -0.2625
    3MOL0     C  266   9.943   3.855   3.264 -0.2552  0.7224 -0.2154
    3MOL0     O  267   9.907   3.939   3.373 -0.2693  0.2821  0.1932
    3MOL0     C  268   9.771   3.922   3.408 -0.0945 -1.1175  0.5672
    3MOL0     C  269   9.742   3.847   3.518 -0.1218  0.5975  0.2582
    3MOL0     C  270   9.608   3.838   3.557 -0.0253 -0.3930  0.0631
    3MOL0     C  271   9.503   3.920   3.498 -0.0785  0.3403 -0.5179
    3MOL0     O  272   9.368   3.922   3.533 -0.2522 -0.0643 -0.6136
    3MOL0     C  273   9.347   3.953   3.671  0.5926  0.1663 -0.0523
    3MOL0     C  274   9.204   3.967   3.725  0.8645 -0.2028 -1.2373
    3MOL0     C  275   9.114   3.852   3.692 -0.4633 -0.0025  0.1844
    3MOL0     C  276   8.983   3.873   3.762 -0.1849 -0.0867  0.1204
    3MOL0     C  277   8.876   3.775   3.719  0.5295  0.0149  0.7017
    3MOL0     C  278   8.759   3.746   3.816 -1.1938 -0.6658  0.5501
    3MOL0     C  279   8.689   3.619   3.765  0.2767  0.7376  0.0444
    3MOL0     C  280   8.588   3.569   3.862  0.4307  0.6889  0.0435
    3MOL0     N  281   8.510   3.459   3.816 -0.4817  0.2806  0.9141
    3MOL0     C  282   8.381   3.438   3.837  0.0085  0.1196  0.0390
    3MOL0     C  283   8.349   3.320   3.786  0.4158 -0.0734  0.7566
    3MOL0     C  284   8.215   3.261   3.817 -0.1668  0.4799 -1.2863
    3MOL0     C  285   8.103   3.347   3.751  0.1201 -0.2119 -0.4301
    3MOL0     C  286   7.960   3.313   3.786  0.5663  0.1829 -1.2329
    3MOL0     C  287   7.870   3.433   3.787 -0.0036  1.0362  0.2348
    3MOL0     O  288   7.735   3.383   3.803 -0.2650 -0.5287 -0.4071
    3MOL0     C  289   7.644   3.459   3.868 -0.0250  0.0884 -0.7522
    3MOL0     C  290   7.665   3.575   3.936 -0.9575  0.0566 -0.0938
    3MOL0     C  291   7.557   3.651   3.995 -0.2570 -0.2931  1.5823
    3MOL0     C  292   7.423   3.606   3.980  0.2970 -0.6692 -0.0086
    3MOL0     C  293   7.321   3.683   4.054 -0.3019 -0.0225 -0.7059
    3MOL0     O  294   7.359   3.807   4.089 -0.1404 -0.5174 -0.4052
    3MOL0     C  295   7.273   3.892   4.161 -0.6496  0.5689  0.7714
    3MOL0     C  296   7.135   3.894   4.174 -0.9985  0.0095  0.0010
    3MOL0     C  297   7.073   3.995   4.245 -0.1354 -0.5468  1.3446
    3MOL0     C  298   7.137   4.103   4.290 -0.0727 -0.1629  0.1782
    3MOL0     O  299   7.066   4.209   4.330  0.3252 -0.0725 -0.6327
    3MOL0     C  300   7.134   4.337   4.364 -0.9523 -0.3812  0.8927
    3MOL0     C  301   7.029   4.439   4.381  1.1978  0.4542 -0.3223
    3MOL0     C  302   6.975   4.482   4.249  0.5578  0.3067 -0.5693
    3MOL0     C  303   6.853   4.585   4.266  0.1847  0.6977  0.4201
    3MOL0     C  304   6.768   4.578   4.134  0.7669  0.1512  0.3278
    3MOL0     C  305   6.840   4.617   4.011 -0.8593 -0.3620 -0.0500
    3MOL0     C  306   6.892   4.759   4.023 -0.4730 -0.3033 -0.1694
    3MOL0     C  307   6.940   4.821   3.895  0.0334 -0.1879 -0.0686
    3MOL0    Cl  308   7.009   4.987   3.928  0.2427 -0.1517 -0.2699
    3MOL0     C  309   7.278   4.108   4.289 -0.4068  0.2520  0.0060
    3MOL0     C  310   7.341   4.001   4.218  0.3306  0.4080  0.0961
    3MOL0     O  311   7.216   3.630   4.084 -0.0004  0.2309 -0.1674
    3MOL0     C  312   7.399   3.490   3.912  0.8344  0.3386  0.8923
    3MOL0     C  313   7.514   3.413   3.867  0.9801 -0.1697  0.4571
    3MOL0     N  314   8.464   3.267   3.731 -0.3746  0.2563  0.7074
    3MOL0     N  315   8.563   3.351   3.755 -1.0604 -0.0926 -0.9208
    3MOL0     C  316   9.554   4.018   3.406 -0.3090  0.0843  0.3210
    3MOL0     C  317   9.680   4.004   3.345 -0.0236 -0.0408 -0.4565
    3MOL0     C  318  10.076   3.873   3.222 -0.7492  0.4749  0.2775
    3MOL0     C  319  10.153   3.758   3.190 -0.4593  0.3530 -0.3156
    3MOL0     C  320  10.281   3.786   3.149 -0.1377  0.4761  0.3721
    3MOL0     C  321  10.332   3.916   3.133 -0.3315  0.1241  0.0091
    3MOL0     O  322  10.456   3.946   3.082  0.6864  0.1753 -0.0025
    3MOL0     C  323  10.457   3.938   2.943 -0.2544  0.1644  0.5312
    3MOL0     C  324  10.602   3.894   2.892 -0.2541 -0.2448  0.0291
    3MOL0     C  325  10.645   3.767   2.941  1.0382  0.5165  0.1561
    3MOL0     C  326  10.753   3.697   2.853 -0.0602  0.3307  1.5048
    3MOL0     C  327  10.874   3.778   2.853 -0.1720  0.2686  0.0134
    3MOL0     C  328  10.976   3.845   2.854  1.2255 -0.0756  0.4340
    3MOL0     C  329  10.259   4.028   3.162  0.4943  0.6770 -0.4950
    3MOL0     C  330  10.136   3.999   3.212  0.3232 -0.9251 -0.0009
    3MOL0     H  331   9.819   3.777   3.550  0.7348  1.1375 -0.5805
    3MOL0     H  332   9.596   3.765   3.636  0.2504 -0.4917  0.0161
    3MOL0     H  333   9.405   4.042   3.696 -0.2189  1.4562 -2.4455
    3MOL0     H  334   9.388   3.864   3.720  0.3233 -0.3395 -0.7279
    3MOL0     H  335   9.162   4.050   3.669  0.0832  0.6149  0.4840
    3MOL0     H  336   9.217   3.986   3.832  4.0333  2.1634 -1.8983
    3MOL0     H  337   9.156   3.755   3.720 -0.4308 -0.2934 -0.8353
    3MOL0     H  338   9.094   3.847   3.585 -0.0001 -0.8202  0.1315
    3MOL0     H  339   9.005   3.869   3.869  0.1423  1.5955  0.1312
    3MOL0     H  340   8.951   3.974   3.738 -0.3422 -0.2578 -0.4071
    3MOL0     H  341   8.930   3.685   3.689  2.4479  1.6097 -0.8421
    3MOL0     H  342   8.814   3.799   3.632  2.0809 -1.0683 -0.7487
    3MOL0     H  343   8.684   3.825   3.818 -0.3242  0.1628  2.1642
    3MOL0     H  344   8.790   3.732   3.920 -2.3799 -1.6770  0.7961
    3MOL0     H  345   8.646   3.639   3.666  1.3973  1.3292 -0.3414
    3MOL0     H  346   8.756   3.534   3.752  0.2864  0.5365  1.3297
    3MOL0     H  347   8.519   3.649   3.892 -1.3017 -0.4782 -0.7031
    3MOL0     H  348   8.640   3.538   3.953 -1.4679  1.7183  1.5805
    3MOL0     H  349   8.327   3.510   3.898  0.9931  2.0513 -1.2696
    3MOL0     H  350   8.209   3.274   3.925 -0.6398  2.2230 -1.5054
    3MOL0     H  351   8.212   3.153   3.796  2.0065 -0.2808  1.5747
    3MOL0     H  352   8.102   3.346   3.642 -0.9854  1.8659 -0.4847
    3MOL0     H  353   8.121   3.448   3.788 -0.8777 -1.3284  3.6730
    3MOL0     H  354   7.917   3.241   3.715 -1.6560  0.9839 -0.7852
    3MOL0     H  355   7.960   3.260   3.882  3.3419  1.4536 -0.4474
    3MOL0     H  356   7.882   3.500   3.701 -1.1120  2.7281  1.3259
    3MOL0     H  357   7.894   3.503   3.868  0.9407  3.2383 -1.8386
    3MOL0     H  358   7.759   3.627   3.948  0.6886 -2.6937 -0.1702
    3MOL0     H  359   7.577   3.740   4.053 -2.1893  1.0318  0.3618
    3MOL0     H  360   7.073   3.808   4.149 -1.7365  0.1857  1.1666
    3MOL0     H  361   6.965   3.985   4.245 -0.3931  1.2044 -1.2777
    3MOL0     H  362   7.214   4.356   4.292  0.1774  0.1471  2.2516
    3MOL0     H  363   7.187   4.335   4.459 -2.5818  0.4445  1.8614
    3MOL0     H  364   7.060   4.526   4.441  3.0217 -1.3335  1.4888
    3MOL0     H  365   6.942   4.396   4.432 -0.6236  2.2389 -1.7502
    3MOL0     H  366   6.930   4.399   4.193 -0.3941  0.7109 -0.4043
    3MOL0     H  367   7.064   4.522   4.200 -0.1450  3.1128  0.2989
    3MOL0     H  368   6.792   4.567   4.354  1.3693 -0.3523  1.0712
    3MOL0     H  369   6.894   4.685   4.278  1.0261  0.6783 -1.7505
    3MOL0     H  370   6.677   4.638   4.140 -1.3888 -2.9598  1.1432
    3MOL0     H  371   6.736   4.477   4.107  3.3045 -0.2904 -1.3491
    3MOL0     H  372   6.773   4.624   3.925  1.8218  1.1577 -2.1965
    3MOL0     H  373   6.928   4.552   3.999  1.1075  2.3976 -1.6056
    3MOL0     H  374   6.817   4.827   4.065  1.0794  1.1219  0.3620
    3MOL0     H  375   6.978   4.747   4.090 -1.4500 -1.2024  0.9838
    3MOL0     H  376   6.854   4.828   3.827  1.3811 -0.8517 -1.9118
    3MOL0     H  377   7.026   4.765   3.859  2.2158  2.7045  0.2642
    3MOL0     H  378   7.340   4.187   4.331  0.0902  0.3507 -0.8931
    3MOL0     H  379   7.449   4.007   4.211  0.3274 -0.7840 -1.8191
    3MOL0     H  380   7.299   3.456   3.889  1.1080  0.6718 -0.9184
    3MOL0     H  381   7.488   3.326   3.807  0.5126  1.1948 -1.4161
    3MOL0     H  382   9.497   4.095   3.356  1.9459 -0.3485 -3.2748
    3MOL0     H  383   9.717   4.074   3.271  0.4400 -1.1236 -1.2777
    3MOL0     H  384  10.104   3.661   3.194 -0.5627  0.3423 -1.5422
    3MOL0     H  385  10.347   3.704   3.119  0.3476  1.1693 -0.5048
    3MOL0     H  386  10.446   4.040   2.905  0.5403  0.0724  0.0150
    3MOL0     H  387  10.376   3.876   2.905  2.5640 -2.2666 -2.0716
    3MOL0     H  388  10.599   3.883   2.783 -1.2304 -0.6693  0.0910
    3MOL0     H  389  10.678   3.970   2.913  0.8698 -0.6391 -2.2887
    3MOL0     H  390  10.558   3.701   2.930  2.1848 -1.0748  0.3290
    3MOL0     H  391  10.667   3.757   3.047  0.6605  0.4377  0.2308
    3MOL0     H  392  10.772   3.594   2.886 -0.2306 -0.0719  0.4084
    3MOL0     H  393  10.723   3.693   2.748  3.4247 -0.2074  0.3998
    3MOL0     H  394  11.063   3.905   2.875  0.4417  0.4684  2.4112
    3MOL0     H  395  10.291   4.130   3.147  0.1097  0.8099 -0.4060
    3MOL0     H  396  10.078   4.087   3.237  3.2795  0.4511  2.7471
    4MOL0     O  397   0.544   3.696   4.796  0.5444  0.5311  0.6958
    4MOL0     C  398   0.473   3.768   4.723 -0.1543 -0.0249 -0.4701
    4MOL0     O  399   0.525   3.857   4.636 -0.2265 -0.3622  0.0501
    4MOL0     C  400   0.656   3.853   4.604 -1.2436  1.3746 -0.2786
    4MOL0     C  401   0.695   3.804   4.485  0.6612 -1.2637  0.0916
    4MOL0     C  402   0.838   3.806   4.454  0.2232  0.2924 -0.5831
    4MOL0     C  403   0.934   3.859   4.542 -0.8629 -0.2021 -0.3766
    4MOL0     O  404   1.062   3.858   4.495  0.0733  1.1412 -0.2629
    4MOL0     C  405   1.166   3.944   4.543  0.3783  0.6341 -0.4197
    4MOL0     C  406   1.284   3.936   4.452  0.0801  0.1937  0.3267
    4MOL0     C  407   1.401   4.022   4.500 -0.9068  0.5065 -0.3302
    4MOL0     C  408   1.528   3.991   4.417 -0.0578 -0.3518 -0.2522
    4MOL0     C  409   1.652   4.067   4.451  0.6423  0.4448  0.3333
    4MOL0     C  410   1.775   4.032   4.366  1.4922  0.7378 -0.0122
    4MOL0     C  411   1.902   4.114   4.385  0.6793  0.2569 -1.0823
    4MOL0     C  412   1.964   4.121   4.525 -0.2147  0.0241  0.5284
    4MOL0     N  413   2.093   4.189   4.521  0.6569  0.6967  0.2920
    4MOL0     C  414   2.197   4.173   4.432 -0.0346 -0.1769  0.1016
    4MOL0     C  415   2.278   4.277   4.468  0.0336  0.1160  0.7172
    4MOL0     C  416   2.399   4.303   4.392 -0.4260  0.3845  0.7160
    4MOL0     C  417   2.386   4.434   4.315 -0.3574 -0.1171  0.0376
    4MOL0     C  418   2.362   4.405   4.169 -0.6496  0.8765 -0.3008
    4MOL0     C  419   2.306   4.526   4.099 -1.0472 -0.2417 -0.6760
    4MOL0     O  420   2.178   4.554   4.153 -0.4536 -0.4900  0.1174
    4MOL0     C  421   2.069   4.490   4.116  0.7316  0.4063  0.9398
    4MOL0     C  422   1.949   4.523   4.184 -0.0215  1.5851 -0.9305
    4MOL0     C  423   1.833   4.442   4.169  0.8460  0.4088  0.6945
    4MOL0     C  424   1.820   4.334   4.074 -0.0759 -0.6517  0.0082
    4MOL0     C  425   1.697   4.262   4.053  0.5853  0.3172 -0.3579
    4MOL0     O  426   1.596   4.289   4.134 -0.0376  0.4145 -1.1133
    4MOL0     C  427   1.467   4.249   4.123 -0.4929 -1.0799 -0.2801
    4MOL0     C  428   1.389   4.271   4.236  0.0194 -0.2780 -0.2544
    4MOL0     C  429   1.252   4.229   4.244  0.2991 -0.5779  0.3656
    4MOL0     C  430   1.191   4.171   4.137 -0.4294 -0.0513  1.5005
    4MOL0     O  431   1.058   4.147   4.147  0.3292 -0.3806 -0.1215
    4MOL0     C  432   0.995   4.036   4.092  0.6144 -0.2004 -0.8290
    4MOL0     C  433   0.853   4.034   4.144  0.9119 -0.0053 -0.6424
    4MOL0     C  434   0.766   4.119   4.061 -0.1862  0.9516  0.4439
    4MOL0     C  435   0.621   4.114   4.112  0.6244  0.0639 -0.1240
    4MOL0     C  436   0.543   4.237   4.054  0.0160  0.7029 -0.0837
    4MOL0     C  437   0.390   4.237   4.076 -0.2558 -0.0608  0.4511
    4MOL0     C  438   0.330   4.371   4.018  0.1411  0.2147 -0.5891
    4MOL0     C  439   0.286   4.363   3.878 -0.4398 -0.6558 -0.2470
    4MOL0    Cl  440   0.141   4.268   3.839 -0.2264  0.1314 -0.1179
    4MOL0     C  441   1.269   4.145   4.023 -0.6384  0.3390 -0.2773
    4MOL0     C  442   1.404   4.188   4.018  0.5113  0.5884  0.3972
    4MOL0     O  443   1.690   4.188   3.955 -0.3422 -0.1381 -1.2721
    4MOL0     C  444   1.938   4.313   3.999 -0.1605 -0.0305 -0.3567
    4MOL0     C  445   2.053   4.398   4.014  0.0387  0.9866 -0.0272
    4MOL0     N  446   2.227   4.355   4.573  0.3050 -0.0660  0.1558
    4MOL0     N  447   2.113   4.297   4.603  0.4886 -0.1633 -0.8624
    4MOL0     C  448   0.895   3.901   4.667  0.3256 -0.1592 -0.8710
    4MOL0     C  449   0.755   3.899   4.690  0.5633 -0.3517 -0.5449
    4MOL0     C  450   0.327   3.760   4.736 -0.6603  0.1406  0.2459
    4MOL0     C  451   0.271   3.650   4.792  0.6466  0.4391  0.1628
    4MOL0     C  452   0.134   3.622   4.797 -0.4834  0.3748 -0.5365
    4MOL0     C  453   0.043   3.721   4.741 -0.4648  0.2972 -0.3658
    4MOL0     O  454  -0.089   3.695   4.739 -0.4903 -0.5540  0.1007
    4MOL0     C  455  -0.131   3.639   4.611  0.0304  0.6050 -0.1887
    4MOL0     C  456  -0.272   3.686   4.603 -0.4938 -0.5313  0.0779
    4MOL0     C  457  -0.364   3.644   4.721 -0.3554  0.3702 -0.1360
    4MOL0     C  458  -0.396   3.493   4.722  1.0201 -0.2899  0.8718
    4MOL0     C  459  -0.438   3.447   4.854  0.7617 -0.1082  0.2086
    4MOL0     C  460  -0.469   3.416   4.961  1.0357  0.1032 -0.7694
    4MOL0     C  461   0.095   3.846   4.700 -0.5925 -0.0157  0.2442
    4MOL0     C  462   0.236   3.861   4.709 -0.2667 -0.0299  0.1335
    4MOL0     H  463   0.615   3.775   4.418 -0.1399  1.8216 -0.4606
    4MOL0     H  464   0.871   3.776   4.355 -0.3480  1.7516 -1.2392
    4MOL0     H  465   1.201   3.920   4.644  1.5394 -0.0461 -0.9737
    4MOL0     H  466   1.138   4.050   4.546 -1.4853  0.2605  4.1472
    4MOL0     H  467   1.256   3.975   4.354 -0.8550  1.6305  1.1412
    4MOL0     H  468   1.302   3.828   4.444 -0.5992  0.1409 -0.6808
    4MOL0     H  469   1.420   4.025   4.608 -1.9510  2.1343 -0.1524
    4MOL0     H  470   1.385   4.128   4.480  2.1106  1.1228 -0.0326
    4MOL0     H  471   1.570   3.890   4.427  1.2433  0.1268 -0.6625
    4MOL0     H  472   1.510   3.996   4.309 -0.7548 -0.8155 -0.1690
    4MOL0     H  473   1.677   4.040   4.554  2.7491  0.2496 -0.1880
    4MOL0     H  474   1.643   4.176   4.451 -1.3568  0.4344  3.6383
    4MOL0     H  475   1.758   4.060   4.262 -2.9812  2.6675  1.0010
    4MOL0     H  476   1.798   3.927   4.386 -0.0039  0.3370 -0.2668
    4MOL0     H  477   1.981   4.078   4.319  0.3332 -0.4970 -1.1012
    4MOL0     H  478   1.886   4.215   4.346  0.3063 -0.0643 -1.7875
    4MOL0     H  479   1.992   4.020   4.556 -1.2970 -0.9640 -1.5054
    4MOL0     H  480   1.886   4.160   4.591 -1.7322 -2.0175  0.0521
    4MOL0     H  481   2.199   4.103   4.349 -2.7482  0.7092 -0.8129
    4MOL0     H  482   2.428   4.214   4.335 -0.1551  0.0387  1.3823
    4MOL0     H  483   2.477   4.320   4.466 -0.1155  1.6181  0.1325
    4MOL0     H  484   2.467   4.501   4.344  0.4251 -1.3165  0.6899
    4MOL0     H  485   2.299   4.484   4.358  0.4386 -0.2046  1.8038
    4MOL0     H  486   2.457   4.376   4.123 -0.1119 -1.8411  2.2669
    4MOL0     H  487   2.287   4.326   4.165 -2.0507  2.2056 -1.5602
    4MOL0     H  488   2.296   4.510   3.991 -0.7365 -0.7155 -0.6363
    4MOL0     H  489   2.370   4.610   4.126  0.5900 -2.0379  1.4254
    4MOL0     H  490   1.955   4.586   4.272  1.7626  2.0639 -1.3508
    4MOL0     H  491   1.746   4.461   4.231  1.3543  1.3956  1.1416
    4MOL0     H  492   1.438   4.308   4.325 -1.4185  1.7965 -0.2555
    4MOL0     H  493   1.183   4.250   4.326 -3.2386 -3.5407 -1.5277
    4MOL0     H  494   1.051   3.944   4.112  0.2055 -0.1547  0.6469
    4MOL0     H  495   0.994   4.042   3.983  1.0924  3.3653 -0.7535
    4MOL0     H  496   0.843   4.051   4.252 -3.2817 -3.7053 -0.1522
    4MOL0     H  497   0.815   3.933   4.126 -2.0369  1.1282 -1.2198
    4MOL0     H  498   0.769   4.089   3.956 -0.4008  0.1769  0.6451
    4MOL0     H  499   0.810   4.219   4.063 -0.8163  1.2661 -0.6544
    4MOL0     H  500   0.575   4.023   4.071 -0.2169  1.1558 -1.7142
    4MOL0     H  501   0.616   4.119   4.221  0.6188  2.5186 -0.1854
    4MOL0     H  502   0.567   4.239   3.947 -4.1177  1.5891 -1.1817
    4MOL0     H  503   0.588   4.319   4.111  1.3966 -0.7953  1.0817
    4MOL0     H  504   0.367   4.218   4.181  2.3422  2.1632  1.5429
    4MOL0     H  505   0.356   4.158   4.009 -1.0855 -0.9205  1.8339
    4MOL0     H  506   0.247   4.413   4.076 -0.5976 -1.0571 -0.6962
    4MOL0     H  507   0.419   4.435   4.029  1.3702 -1.5489  0.2902
    4MOL0     H  508   0.370   4.330   3.816 -1.5949 -0.8708 -1.7521
    4MOL0     H  509   0.267   4.462   3.835 -0.5453 -1.0565 -1.1535
    4MOL0     H  510   1.213   4.103   3.940 -1.7939  1.3133 -0.0207
    4MOL0     H  511   1.452   4.170   3.923 -0.1524 -1.0731  0.3461
    4MOL0     H  512   1.930   4.235   3.925 -0.2544 -0.0608 -0.3147
    4MOL0     H  513   2.137   4.370   3.952  0.6871 -3.4355  2.3834
    4MOL0     H  514   0.951   3.959   4.741 -1.7041 -0.1062  0.6999
    4MOL0     H  515   0.728   3.939   4.787 -0.5336  1.2477 -1.4802
    4MOL0     H  516   0.332   3.564   4.819 -2.4379 -1.1196  2.7710
    4MOL0     H  517   0.098   3.529   4.840 -5.4846  2.2484  0.0924
    4MOL0     H  518  -0.123   3.530   4.606  0.4372  0.6552 -0.8231
    4MOL0     H  519  -0.072   3.681   4.528  0.0438 -0.5257 -0.7768
    4MOL0     H  520  -0.279   3.794   4.586  1.0737 -0.4392 -0.1582
    4MOL0     H  521  -0.319   3.635   4.519 -0.1192 -1.7700  0.6034
    4MOL0     H  522  -0.456   3.703   4.720 -1.8881 -1.8479  0.9157
    4MOL0     H  523  -0.329   3.678   4.819 -0.0294  0.7194 -0.3710
    4MOL0     H  524  -0.470   3.463   4.646  1.6583  0.5489 -0.1122
    4MOL0     H  525  -0.307   3.434   4.697  0.9557 -1.1088  2.4887
    4MOL0     H  526  -0.513   3.386   5.053 -0.0345  0.1622 -1.2446
    4MOL0     H  527   0.038   3.935   4.676  0.1095  0.1945 -0.6884
    4MOL0     H  528   0.264   3.963   4.682 -1.9969  0.0754 -1.4837
    5MOL0     O  529   1.171   1.573  11.132  0.0040  0.6521 -0.5052
    5MOL0     C  530   1.220   1.557  11.018 -1.2304  0.0327  0.3805
    5MOL0     O  531   1.152   1.555  10.900  0.7768  0.2713  0.3031
    5MOL0     C  532   1.013   1.570  10.895  0.5576  0.2286  0.7171
    5MOL0     C  533   0.952   1.670  10.814  0.2409 -0.1087 -0.1383
    5MOL0     C  534   0.812   1.665  10.803  0.4150  0.0143  0.4351
    5MOL0     C  535   0.732   1.565  10.856  0.2295 -0.6268 -0.1886
    5MOL0     O  536   0.603   1.540  10.821  0.4963  0.2776  0.5670
    5MOL0     C  537   0.509   1.641  10.856 -0.1744  0.0864  0.5651
    5MOL0     C  538   0.376   1.568  10.869  0.6608  0.2651  0.0727
    5MOL0     C  539   0.258   1.670  10.857 -0.3521 -0.3316  0.1919
    5MOL0     C  540   0.133   1.593  10.864  0.2694 -0.3812  0.1226
    5MOL0     C  541   0.016   1.687  10.862 -0.6738 -0.2864 -0.1982
    5MOL0     C  542  -0.119   1.613  10.830  0.4934 -0.4206 -0.0179
    5MOL0     C  543  -0.187   1.548  10.949  0.1876 -0.4650  0.5308
    5MOL0     C  544  -0.106   1.430  11.008 -0.1435  0.1494  0.7486
    5MOL0     N  545  -0.191   1.343  11.100 -0.6545 -0.4323 -0.4033
    5MOL0     C  546  -0.272   1.249  11.046  0.2588  0.7893  0.6483
    5MOL0     C  547  -0.285   1.148  11.136 -0.3627  0.1411 -0.6465
    5MOL0     C  548  -0.364   1.034  11.112  0.7946 -0.0342  0.4597
    5MOL0     C  549  -0.305   0.927  11.010  0.1879 -0.7812 -0.1722
    5MOL0     C  550  -0.378   0.797  11.012  0.0751  0.2091  0.8297
    5MOL0     C  551  -0.525   0.800  10.973  0.3401  0.3869 -0.4863
    5MOL0     O  552  -0.557   0.874  10.854 -0.0076  0.5887  0.9439
    5MOL0     C  553  -0.681   0.889  10.801  0.4740  0.4665 -0.7450
    5MOL0     C  554  -0.684   0.949  10.680 -0.8575 -0.0230  0.4777
    5MOL0     C  555  -0.802   0.957  10.604  0.5378 -0.3374  0.9165
    5MOL0     C  556  -0.918   0.894  10.650 -0.3655  0.4498  0.6951
    5MOL0     C  557  -1.051   0.898  10.587 -0.3030  0.7910 -0.0720
    5MOL0     O  558  -1.162   0.898  10.663  0.2329 -0.2274 -0.6980
    5MOL0     C  559  -1.279   0.951  10.619  0.2845  0.0965 -0.2255
    5MOL0     C  560  -1.311   1.048  10.525  0.9827  0.9336  0.1503
    5MOL0     C  561  -1.433   1.093  10.500  0.4713  0.2842  0.4676
    5MOL0     C  562  -1.543   1.038  10.573  0.7441 -0.3663 -0.0256
    5MOL0     O  563  -1.668   1.105  10.554  0.4057  0.2237  0.4735
    5MOL0     C  564  -1.781   1.031  10.596  0.3963 -0.5013 -0.1571
    5MOL0     C  565  -1.908   1.093  10.537  0.1511 -1.6633  0.8573
    5MOL0     C  566  -2.022   0.993  10.539  0.9919  0.3155  0.1612
    5MOL0     C  567  -2.143   1.045  10.465 -0.1577  0.4643  0.4180
    5MOL0     C  568  -2.263   0.954  10.465 -0.0729  1.1564  0.0548
    5MOL0     C  569  -2.348   0.978  10.333 -0.6685  0.4564 -0.5210
    5MOL0     C  570  -2.499   0.957  10.352 -0.1732  1.2594  0.1580
    5MOL0     C  571  -2.563   1.005  10.224 -0.9731 -0.1343  1.0081
    5MOL0    Cl  572  -2.744   1.026  10.231 -0.0730 -0.0367  0.0637
    5MOL0     C  573  -1.521   0.945  10.670 -0.3739 -0.7739 -0.1732
    5MOL0     C  574  -1.392   0.898  10.688 -0.0454  0.5686  0.0727
    5MOL0     O  575  -1.039   0.931  10.466 -0.4937 -0.4179  0.2491
    5MOL0     C  576  -0.917   0.834  10.770 -0.2117  0.4301 -0.4769
    5MOL0     C  577  -0.802   0.833  10.849 -0.1039  0.2408 -0.4635
    5MOL0     N  578  -0.207   1.180  11.246  0.2800 -0.6080  0.4328
    5MOL0     N  579  -0.163   1.302  11.230 -1.3010 -0.1746 -0.2590
    5MOL0     C  580   0.791   1.487  10.951  0.0035  0.0112 -0.6375
    5MOL0     C  581   0.932   1.490  10.976  0.5569  0.0461 -0.2947
    5MOL0     C  582   1.366   1.545  11.010 -0.5750  0.7098  0.5560
    5MOL0     C  583   1.430   1.582  10.891 -0.3030 -0.5346  0.7794
    5MOL0     C  584   1.566   1.570  10.864  0.4486 -0.2409  0.3933
    5MOL0     C  585   1.644   1.534  10.976  0.0231  0.3564  1.1756
    5MOL0     O  586   1.774   1.522  10.974 -0.0974 -0.4605 -0.1026
    5MOL0     C  587   1.863   1.603  10.892  0.1842 -0.2033 -0.7892
    5MOL0     C  588   1.916   1.537  10.767 -0.4835  0.1861 -1.0822
    5MOL0     C  589   1.984   1.402  10.786 -0.8558  1.4599  0.1656
    5MOL0     C  590   2.106   1.409  10.888 -0.1319 -0.8007  1.0582
    5MOL0     C  591   2.187   1.286  10.877  0.0674  0.5134  0.4627
    5MOL0     C  592   2.260   1.187  10.851 -0.5364 -0.3138  0.7870
    5MOL0     C  593   1.590   1.501  11.095  0.5995  0.3186 -0.5002
    5MOL0     C  594   1.449   1.516  11.119 -0.2508  0.4621  0.2526
    5MOL0     H  595   1.009   1.749  10.767 -1.8556  2.3296  1.1490
    5MOL0     H  596   0.750   1.736  10.748 -2.0802 -1.4033  1.2196
    5MOL0     H  597   0.503   1.712  10.773  2.0555 -0.6252 -0.2806
    5MOL0     H  598   0.535   1.691  10.950  0.1968  0.6208  0.1830
    5MOL0     H  599   0.365   1.504  10.957  0.1908 -3.2957 -2.3499
    5MOL0     H  600   0.371   1.492  10.790  0.0174  1.0241 -0.6404
    5MOL0     H  601   0.267   1.725  10.763 -2.7287  0.9088  0.5975
    5MOL0     H  602   0.266   1.737  10.943  0.6616 -0.7109  0.4009
    5MOL0     H  603   0.119   1.521  10.783 -0.8971 -1.3165  1.1286
    5MOL0     H  604   0.139   1.537  10.958 -1.6428 -0.6891  0.1017
    5MOL0     H  605   0.027   1.760  10.781 -3.0187 -1.1616 -1.3853
    5MOL0     H  606  -0.006   1.736  10.957 -0.8627 -0.8782  0.0653
    5MOL0     H  607  -0.123   1.545  10.744  2.3900  0.5058 -0.8937
    5MOL0     H  608  -0.186   1.696  10.807 -0.1997 -1.6073 -2.7800
    5MOL0     H  609  -0.200   1.625  11.025 -7.0491 -1.3813  0.8894
    5MOL0     H  610  -0.283   1.517  10.907  0.4848  1.2416 -1.6021
    5MOL0     H  611  -0.037   1.474  11.081  0.6499 -1.2934  0.9026
    5MOL0     H  612  -0.045   1.371  10.939 -0.1187  0.1910  0.7349
    5MOL0     H  613  -0.326   1.252  10.952  1.3220  1.0569  0.0443
    5MOL0     H  614  -0.460   1.069  11.072  0.4976 -1.2413  0.0825
    5MOL0     H  615  -0.386   0.990  11.209 -2.0836  2.4356  1.0925
    5MOL0     H  616  -0.200   0.910  11.035  0.0739  0.6624  1.4748
    5MOL0     H  617  -0.305   0.984  10.917 -0.7586 -0.0957  0.2311
    5MOL0     H  618  -0.334   0.735  10.933 -3.6705 -0.6974 -0.7853
    5MOL0     H  619  -0.365   0.739  11.104  1.9567 -0.1483  0.3911
    5MOL0     H  620  -0.584   0.844  11.054 -1.1469  1.7543 -2.2331
    5MOL0     H  621  -0.556   0.696  10.962  1.0456 -0.1057  1.5934
    5MOL0     H  622  -0.600   1.004  10.641 -0.9424  0.8092  1.4171
    5MOL0     H  623  -0.804   1.019  10.514 -0.2965  0.3769  1.4095
    5MOL0     H  624  -1.231   1.089  10.464 -0.0328  0.4561 -1.5754
    5MOL0     H  625  -1.442   1.176  10.431 -1.0452 -1.3919 -1.4852
    5MOL0     H  626  -1.776   1.039  10.705  0.7860 -0.7017 -0.1609
    5MOL0     H  627  -1.769   0.926  10.571  1.1278 -1.0993  2.4562
    5MOL0     H  628  -1.902   1.119  10.431  1.0363  1.8611  1.6570
    5MOL0     H  629  -1.927   1.188  10.588 -0.3268 -1.2954  0.0315
    5MOL0     H  630  -2.056   0.963  10.639 -2.0128  1.5322 -0.4016
    5MOL0     H  631  -1.981   0.904  10.489 -2.5953 -3.1454  2.7115
    5MOL0     H  632  -2.177   1.139  10.510  1.4492  0.3540  1.9611
    5MOL0     H  633  -2.116   1.075  10.363  0.1550  2.2948  0.9894
    5MOL0     H  634  -2.320   0.968  10.558 -0.0431 -1.2497  0.4953
    5MOL0     H  635  -2.236   0.848  10.471 -0.9266  0.8658 -0.8388
    5MOL0     H  636  -2.317   0.915  10.249 -1.9265  0.4998 -1.0496
    5MOL0     H  637  -2.330   1.084  10.314 -1.1822  0.7032  0.2878
    5MOL0     H  638  -2.526   0.853  10.372  1.2182  0.6172 -1.1554
    5MOL0     H  639  -2.527   1.014  10.441 -1.5929  0.9861 -0.0916
    5MOL0     H  640  -2.537   0.940  10.140  2.2306 -0.3980  2.0482
    5MOL0     H  641  -2.512   1.100  10.203  2.6795 -1.9754  0.7857
    5MOL0     H  642  -1.602   0.896  10.723 -1.0842  0.3033 -0.2218
    5MOL0     H  643  -1.375   0.827  10.769  0.5574 -1.2926 -1.6164
    5MOL0     H  644  -1.015   0.801  10.802 -0.5411 -0.4554 -2.2625
    5MOL0     H  645  -0.800   0.784  10.946 -1.3024  1.3776  0.1817
    5MOL0     H  646   0.734   1.411  11.004  2.3282 -0.6482  1.0582
    5MOL0     H  647   0.967   1.415  11.046  2.9556 -0.2522 -1.7016
    5MOL0     H  648   1.360   1.633  10.825 -3.6456 -0.9300  3.7321
    5MOL0     H  649   1.606   1.598  10.767  0.1310  1.8277  0.8107
    5MOL0     H  650   1.952   1.628  10.951 -2.2247  3.0422  1.7979
    5MOL0     H  651   1.825   1.703  10.870  0.2476 -0.2425 -1.0855
    5MOL0     H  652   1.829   1.519  10.704  0.8853  0.2576 -3.0897
    5MOL0     H  653   1.985   1.599  10.708  0.3994 -0.3431 -0.6280
    5MOL0     H  654   2.016   1.361  10.690 -1.4160  0.9138  0.2012
    5MOL0     H  655   1.911   1.330  10.826  0.4141  1.4781  2.7409
    5MOL0     H  656   2.160   1.503  10.873 -1.0539 -0.5813 -1.2454
    5MOL0     H  657   2.066   1.425  10.988  2.3525  3.2891  1.6406
    5MOL0     H  658   2.328   1.113  10.815  0.2500  0.8727 -0.2644
    5MOL0     H  659   1.645   1.453  11.175  2.1923  2.4224 -0.2756
    5MOL0     H  660   1.409   1.502  11.219 -1.5785 -0.2539 -0.3648
    6MOL0     O  661   5.112   5.195   3.223 -0.1268  1.0665 -0.7294
    6MOL0     C  662   5.098   5.104   3.309 -0.9516  0.7990 -0.8540
    6MOL0     O  663   4.991   5.033   3.343 -0.2858 -0.6586  0.1096
    6MOL0     C  664   4.870   5.037   3.282 -0.2202 -0.4462 -0.4681
    6MOL0     C  665   4.832   5.076   3.154  1.0321 -0.1494  0.4121
    6MOL0     C  666   4.700   5.090   3.117 -0.3606 -0.0875  0.1764
    6MOL0     C  667   4.599   5.041   3.196 -0.2152  1.0144  0.1550
    6MOL0     O  668   4.457   5.056   3.192 -0.0821 -1.0335  0.4252
    6MOL0     C  669   4.399   5.134   3.086  0.1079  0.2110 -0.5437
    6MOL0     C  670   4.267   5.188   3.131  0.5367  0.4471  0.3598
    6MOL0     C  671   4.153   5.081   3.133  0.1518  1.2415  0.1626
    6MOL0     C  672   4.029   5.122   3.215  0.8399 -1.3632 -0.9427
    6MOL0     C  673   3.914   5.022   3.232 -0.1500  0.6529  0.0243
    6MOL0     C  674   3.872   4.965   3.097  1.6254  0.5615  0.0972
    6MOL0     C  675   3.750   4.867   3.107 -0.0067  0.3405 -0.1456
    6MOL0     C  676   3.760   4.760   3.217 -0.0503 -0.3271 -0.3441
    6MOL0     N  677   3.635   4.682   3.235 -1.0627 -0.7562 -0.2875
    6MOL0     C  678   3.527   4.718   3.309  0.0966  1.0367 -0.0246
    6MOL0     C  679   3.450   4.600   3.302 -0.1253 -0.6425  0.1377
    6MOL0     C  680   3.305   4.590   3.358 -0.5118 -0.1295  0.3106
    6MOL0     C  681   3.200   4.572   3.249 -0.3731  0.0532 -0.2992
    6MOL0     C  682   3.071   4.547   3.318 -0.1821  0.9523 -0.2589
    6MOL0     C  683   2.953   4.563   3.231  0.0609  1.5919  0.5749
    6MOL0     O  684   2.834   4.503   3.296  0.7192 -0.0188 -0.0276
    6MOL0     C  685   2.712   4.506   3.233 -0.0038  0.0204 -0.0940
    6MOL0     C  686   2.689   4.542   3.101 -0.5827  0.5675  0.4084
    6MOL0     C  687   2.554   4.543   3.060  0.4226 -0.7189 -1.1719
    6MOL0     C  688   2.449   4.500   3.143 -0.0397  0.0586  0.0181
    6MOL0     C  689   2.304   4.507   3.114  0.3490 -0.0357  0.2948
    6MOL0     O  690   2.259   4.530   2.989 -0.5421  0.7990 -0.6313
    6MOL0     C  691   2.129   4.547   2.968  0.1330 -0.0166  0.6569
    6MOL0     C  692   2.045   4.437   2.992 -0.2496  0.7540 -0.5505
    6MOL0     C  693   1.914   4.444   2.954  0.2941  0.0347 -0.0783
    6MOL0     C  694   1.866   4.567   2.915 -0.2583  0.3235  0.4513
    6MOL0     O  695   1.734   4.589   2.902 -0.4845  0.2491 -0.1710
    6MOL0     C  696   1.638   4.516   2.973 -0.2153  0.0785  0.0343
    6MOL0     C  697   1.505   4.579   2.940 -1.0756 -0.0999 -0.0511
    6MOL0     C  698   1.386   4.491   2.991  0.3190  0.8883  0.0361
    6MOL0     C  699   1.260   4.561   2.943 -0.3553  0.1528 -0.5211
    6MOL0     C  700   1.137   4.490   2.995  0.0786 -0.1980  0.2222
    6MOL0     C  701   1.019   4.580   2.951 -0.2479 -0.0223  0.1151
    6MOL0     C  702   0.876   4.514   2.974 -0.1841 -0.4995  0.4816
    6MOL0     C  703   0.773   4.565   2.886 -0.7103 -1.9250 -0.1413
    6MOL0    Cl  704   0.751   4.740   2.925  0.2742 -0.3627 -0.5181
    6MOL0     C  705   1.948   4.673   2.899  0.3206  0.5608  0.5153
    6MOL0     C  706   2.076   4.662   2.920 -0.0320 -0.4827  1.1573
    6MOL0     O  707   2.226   4.503   3.211  0.2867  0.1015  0.3262
    6MOL0     C  708   2.481   4.447   3.266  0.3020  0.5063 -0.5871
    6MOL0     C  709   2.612   4.447   3.312 -0.2825 -0.2748  0.6461
    6MOL0     N  710   3.511   4.512   3.209 -0.4306  0.3137 -0.7171
    6MOL0     N  711   3.629   4.562   3.175  0.4640 -0.0216  0.8661
    6MOL0     C  712   4.644   4.973   3.316 -0.1751 -0.0350  0.4897
    6MOL0     C  713   4.770   4.985   3.366 -0.3060  0.1352  0.8460
    6MOL0     C  714   5.211   5.069   3.402 -0.1453 -0.4127  0.8488
    6MOL0     C  715   5.318   5.162   3.417  0.0047 -0.4497  0.1202
    6MOL0     C  716   5.433   5.136   3.487 -0.0329  0.5515 -0.7766
    6MOL0     C  717   5.437   5.015   3.562  0.8005  0.6372  0.6189
    6MOL0     O  718   5.545   4.994   3.643 -0.0212 -0.0584  0.8641
    6MOL0     C  719   5.560   4.871   3.722  0.1488  0.3961  0.3593
    6MOL0     C  720   5.703   4.846   3.771  0.4251 -0.1770 -0.5904
    6MOL0     C  721   5.804   4.831   3.654  0.7926 -0.3450  0.4339
    6MOL0     C  722   5.944   4.784   3.705  1.1952 -0.1882 -0.4185
    6MOL0     C  723   6.044   4.797   3.600 -0.4475  0.8893  0.8588
    6MOL0     C  724   6.127   4.816   3.519  1.0289  1.2143 -0.0333
    6MOL0     C  725   5.323   4.931   3.562  0.4913 -0.0641  0.4161
    6MOL0     C  726   5.213   4.949   3.478  0.1298  0.0084  0.7912
    6MOL0     H  727   4.902   5.128   3.089  0.3198 -2.2710 -2.2600
    6MOL0     H  728   4.679   5.138   3.022  3.0761  3.2101  0.8455
    6MOL0     H  729   4.385   5.077   2.994 -3.0616  1.5544 -0.9961
    6MOL0     H  730   4.466   5.219   3.064 -2.4749  2.7710  0.8125
    6MOL0     H  731   4.240   5.253   3.047 -0.6319 -1.5970 -0.9259
    6MOL0     H  732   4.281   5.237   3.228  0.7497 -2.9470  2.2110
    6MOL0     H  733   4.193   4.989   3.176  2.5704 -0.0674 -4.2315
    6MOL0     H  734   4.128   5.046   3.032 -0.5883  1.8609  0.1206
    6MOL0     H  735   4.067   5.140   3.316 -2.0019  0.9881 -0.1636
    6MOL0     H  736   3.995   5.219   3.178 -1.4070 -0.1808  3.4808
    6MOL0     H  737   3.825   5.062   3.282  1.7776  1.2478  3.2371
    6MOL0     H  738   3.955   4.937   3.286  2.8238  0.3755 -2.3707
    6MOL0     H  739   3.953   4.905   3.053 -1.1344 -0.6976 -3.7612
    6MOL0     H  740   3.834   5.048   3.037 -0.6812 -1.0601 -0.8188
    6MOL0     H  741   3.670   4.936   3.136  1.1638  1.2407  1.1060
    6MOL0     H  742   3.726   4.816   3.013 -0.5460 -2.7863  1.5636
    6MOL0     H  743   3.782   4.813   3.310  1.7636 -2.6348  0.6504
    6MOL0     H  744   3.844   4.691   3.208 -0.4728 -1.3741  2.5325
    6MOL0     H  745   3.497   4.807   3.362 -0.9964  0.1600  0.8597
    6MOL0     H  746   3.279   4.676   3.420 -1.5101 -0.0299 -0.2232
    6MOL0     H  747   3.307   4.504   3.426  0.3116  0.8986  1.6336
    6MOL0     H  748   3.241   4.490   3.189 -1.3755 -2.3549  2.1307
    6MOL0     H  749   3.187   4.664   3.191  1.1169 -0.4110 -1.4646
    6MOL0     H  750   3.065   4.442   3.346  0.6540  0.1881 -2.6308
    6MOL0     H  751   3.056   4.618   3.400  1.7591  2.1284 -0.8516
    6MOL0     H  752   2.972   4.503   3.141 -2.2805 -0.5404  1.3914
    6MOL0     H  753   2.946   4.668   3.201 -3.1254  2.0160  2.3751
    6MOL0     H  754   2.775   4.593   3.058  0.4562 -1.5108 -0.1065
    6MOL0     H  755   2.526   4.580   2.962  0.9233 -0.9480 -1.4042
    6MOL0     H  756   2.091   4.346   3.029  0.9623  1.3887 -0.4402
    6MOL0     H  757   1.852   4.355   2.962 -0.0039  0.3769  1.8781
    6MOL0     H  758   1.652   4.510   3.081 -1.5158  6.1498  0.8993
    6MOL0     H  759   1.634   4.411   2.941  2.6433  0.0924 -0.5892
    6MOL0     H  760   1.490   4.606   2.835 -2.2630  1.3715  0.4437
    6MOL0     H  761   1.499   4.676   2.992 -0.9970  0.1885 -0.5744
    6MOL0     H  762   1.386   4.491   3.101  1.4901 -0.0043  0.0559
    6MOL0     H  763   1.384   4.390   2.949 -1.3974  0.5947  0.7233
    6MOL0     H  764   1.250   4.665   2.978 -0.6675  0.2472 -0.8857
    6MOL0     H  765   1.255   4.570   2.834 -2.7103  3.1971 -0.3176
    6MOL0     H  766   1.135   4.478   3.104 -1.5659  1.5901  0.4483
    6MOL0     H  767   1.124   4.396   2.940 -3.1777 -0.8207  1.8224
    6MOL0     H  768   1.027   4.591   2.842 -1.7488 -0.8132 -0.1110
    6MOL0     H  769   1.012   4.682   2.989 -2.6201  0.2553 -0.8648
    6MOL0     H  770   0.887   4.405   2.962 -2.3020 -1.0495  2.6764
    6MOL0     H  771   0.828   4.535   3.070 -0.2187 -0.7389  0.5174
    6MOL0     H  772   0.680   4.512   2.908 -2.9630  2.3405  1.9270
    6MOL0     H  773   0.793   4.562   2.778  0.9293  1.6995 -0.0802
    6MOL0     H  774   1.902   4.767   2.870  0.2889  0.4615  0.2426
    6MOL0     H  775   2.135   4.747   2.887 -0.6776 -1.5980 -3.4134
    6MOL0     H  776   2.407   4.415   3.339 -0.5479  5.8110  1.3172
    6MOL0     H  777   2.639   4.416   3.413  0.1058 -1.0951  0.2989
    6MOL0     H  778   4.570   4.923   3.378  0.2502 -0.4701  0.6514
    6MOL0     H  779   4.804   4.943   3.460  1.8560  1.0197  0.5022
    6MOL0     H  780   5.321   5.245   3.348  0.3117 -0.5517  0.0110
    6MOL0     H  781   5.520   5.201   3.491  0.8317 -0.6068 -0.2297
    6MOL0     H  782   5.538   4.784   3.660  2.9878  0.0251 -0.2836
    6MOL0     H  783   5.494   4.869   3.809 -0.2405 -2.0934  0.0795
    6MOL0     H  784   5.734   4.929   3.835 -0.9318 -1.5799  2.0653
    6MOL0     H  785   5.689   4.754   3.829 -2.4367  0.1563 -0.6077
    6MOL0     H  786   5.825   4.925   3.603 -0.3304 -0.8141 -0.9423
    6MOL0     H  787   5.760   4.762   3.581 -0.6933  1.9497 -0.9474
    6MOL0     H  788   5.980   4.853   3.783  0.5352  2.7632 -2.5461
    6MOL0     H  789   5.945   4.680   3.737  1.8965  0.4465  1.8587
    6MOL0     H  790   6.204   4.844   3.450 -1.8803  3.7877 -2.5403
    6MOL0     H  791   5.326   4.842   3.623  1.2877 -0.2695  0.0914
    6MOL0     H  792   5.127   4.883   3.465 -0.8771  1.7502 -2.6908
    7MOL0     O  793   0.008   2.559  10.140  0.3787 -0.8869 -0.4880
    7MOL0     C  794   0.005   2.532  10.019 -0.0233  0.2741 -0.8880
    7MOL0     O  795  -0.090   2.570   9.934  0.0936 -0.4466  0.6364
    7MOL0     C  796  -0.176   2.671   9.981  0.0815 -0.6298  0.1095
    7MOL0     C  797  -0.293   2.645  10.052  1.5349  0.3685  0.3063
    7MOL0     C  798  -0.380   2.748  10.093  0.3516 -0.3391 -0.1926
    7MOL0     C  799  -0.345   2.886  10.083 -0.2675 -0.1466  0.2538
    7MOL0     O  800  -0.440   2.980  10.122  1.0225  0.2570 -0.6944
    7MOL0     C  801  -0.421   3.116  10.070 -0.6074 -0.1693  0.2135
    7MOL0     C  802  -0.538   3.212  10.088  0.4940  0.7672  0.2965
    7MOL0     C  803  -0.609   3.175  10.220 -0.2652 -0.7444  0.5345
    7MOL0     C  804  -0.742   3.254  10.250 -0.3699  0.1541 -0.1671
    7MOL0     C  805  -0.807   3.200  10.377  0.8423  0.0827  0.1080
    7MOL0     C  806  -0.932   3.283  10.425  1.2722 -0.6735 -0.2589
    7MOL0     C  807  -0.899   3.422  10.496  0.4741  0.3910  0.8956
    7MOL0     C  808  -1.012   3.484  10.581 -0.0093  0.2171  1.1280
    7MOL0     N  809  -1.109   3.544  10.488 -0.6012  0.7093  0.3216
    7MOL0     C  810  -1.136   3.673  10.467 -1.0270  0.1918  0.1571
    7MOL0     C  811  -1.248   3.672  10.399 -0.5866  0.1148 -0.2831
    7MOL0     C  812  -1.313   3.796  10.335  0.2349 -0.4435 -0.2804
    7MOL0     C  813  -1.458   3.780  10.298  0.9446  0.5385  1.5106
    7MOL0     C  814  -1.547   3.785  10.423  0.1496 -1.0670 -1.3675
    7MOL0     C  815  -1.689   3.766  10.378 -0.7271 -0.8584 -0.9216
    7MOL0     O  816  -1.717   3.619  10.385  0.1397  0.1855 -0.4115
    7MOL0     C  817  -1.846   3.576  10.377 -0.2058 -0.3857  0.1492
    7MOL0     C  818  -1.877   3.476  10.292  0.7573  0.3932 -0.7239
    7MOL0     C  819  -2.005   3.450  10.252  0.1472  0.5287 -0.4043
    7MOL0     C  820  -2.123   3.511  10.300 -0.5556 -0.0831 -0.2768
    7MOL0     C  821  -2.264   3.477  10.271 -0.2951 -0.5723 -0.0869
    7MOL0     O  822  -2.355   3.521  10.358  0.3850 -0.0166  0.4528
    7MOL0     C  823  -2.486   3.475  10.340 -0.1219  0.2953  0.2950
    7MOL0     C  824  -2.558   3.483  10.224  2.0230 -1.6986  0.4323
    7MOL0     C  825  -2.695   3.452  10.227  0.6514 -0.1405 -0.6056
    7MOL0     C  826  -2.760   3.421  10.346 -0.4268  1.2525 -0.1039
    7MOL0     O  827  -2.888   3.388  10.328 -0.1660 -0.1755  0.4643
    7MOL0     C  828  -2.958   3.326  10.440  0.9155  0.8931  0.4780
    7MOL0     C  829  -3.105   3.306  10.401  0.1860  0.0352  0.4223
    7MOL0     C  830  -3.197   3.430  10.372 -0.1389 -0.2980  0.1686
    7MOL0     C  831  -3.191   3.526  10.493  0.2842 -0.8269 -0.1285
    7MOL0     C  832  -3.309   3.621  10.473 -0.0675 -0.5597 -0.5165
    7MOL0     C  833  -3.443   3.557  10.497  0.4648 -1.1674 -0.0689
    7MOL0     C  834  -3.540   3.666  10.551 -0.7278  1.7629 -0.2131
    7MOL0     C  835  -3.578   3.783  10.464  0.2727  0.5063  0.6026
    7MOL0    Cl  836  -3.650   3.726  10.308 -0.2712 -0.3097  0.1097
    7MOL0     C  837  -2.687   3.417  10.463  0.5393  0.7420 -0.6387
    7MOL0     C  838  -2.553   3.464  10.465  0.8716  1.1541 -0.0023
    7MOL0     O  839  -2.285   3.403  10.177 -0.6407 -0.0665  0.1676
    7MOL0     C  840  -2.088   3.612  10.395  0.0386  0.1784  0.2674
    7MOL0     C  841  -1.957   3.653  10.419 -0.0003  0.5069 -0.7101
    7MOL0     N  842  -1.293   3.541  10.385  0.5519 -0.6844 -0.3374
    7MOL0     N  843  -1.208   3.468  10.441 -0.3059  0.8243 -0.3494
    7MOL0     C  844  -0.217   2.906  10.029  0.2673  0.7545  0.8931
    7MOL0     C  845  -0.130   2.805   9.989  0.3656  0.3580  0.0488
    7MOL0     C  846   0.130   2.464   9.983 -0.0702 -0.6134  0.5403
    7MOL0     C  847   0.225   2.430  10.082  0.7271 -0.1486 -0.1879
    7MOL0     C  848   0.356   2.388  10.053  0.6006  0.4719 -0.1782
    7MOL0     C  849   0.387   2.372   9.915 -0.0921  0.2969  0.0355
    7MOL0     O  850   0.515   2.345   9.889 -0.2510  0.2821  0.2407
    7MOL0     C  851   0.544   2.218   9.841  0.9578 -0.0716 -0.1661
    7MOL0     C  852   0.658   2.227   9.733 -0.1100 -0.1209 -0.5844
    7MOL0     C  853   0.786   2.235   9.807  0.0554 -0.5075  0.7382
    7MOL0     C  854   0.890   2.207   9.695 -0.2268 -0.2085  0.3839
    7MOL0     C  855   1.031   2.234   9.748 -0.8094 -0.3435 -0.1449
    7MOL0     C  856   1.149   2.263   9.788 -0.3464  0.2315  0.9599
    7MOL0     C  857   0.299   2.385   9.814  0.9595  0.5328 -0.7034
    7MOL0     C  858   0.166   2.444   9.840  0.4239  0.3392  0.4692
    7MOL0     H  859  -0.322   2.541  10.061 -0.8749  0.6505 -2.5101
    7MOL0     H  860  -0.486   2.738  10.115  0.0136 -0.1720 -1.6269
    7MOL0     H  861  -0.398   3.104   9.963  2.9654 -0.7073  0.9305
    7MOL0     H  862  -0.338   3.171  10.115  1.4568 -3.4387  0.6829
    7MOL0     H  863  -0.609   3.186  10.009  2.5977 -2.7771 -0.6496
    7MOL0     H  864  -0.493   3.312  10.086 -0.7844  1.4283  2.0093
    7MOL0     H  865  -0.539   3.190  10.302 -1.3450  2.5396  0.9755
    7MOL0     H  866  -0.647   3.073  10.210 -3.6121  0.3261  1.1174
    7MOL0     H  867  -0.708   3.355  10.273  3.8327 -1.0681 -0.1565
    7MOL0     H  868  -0.812   3.247  10.166 -1.1490 -2.4528  0.6089
    7MOL0     H  869  -0.734   3.188  10.458 -0.3833 -1.5467  1.0329
    7MOL0     H  870  -0.838   3.097  10.358  0.8762 -0.1970  1.4225
    7MOL0     H  871  -0.994   3.227  10.496 -1.6303  1.2234 -1.1231
    7MOL0     H  872  -1.009   3.302  10.349 -0.2059 -0.3755  1.2484
    7MOL0     H  873  -0.817   3.412  10.568  1.9124 -1.5537 -0.8884
    7MOL0     H  874  -0.866   3.497  10.423  0.0868 -1.6531 -1.5004
    7MOL0     H  875  -0.971   3.565  10.643  3.1446  0.0268 -0.4775
    7MOL0     H  876  -1.065   3.412  10.643  0.7513  1.1320  2.9124
    7MOL0     H  877  -1.089   3.766  10.497 -1.9794  0.6358  0.3239
    7MOL0     H  878  -1.250   3.821  10.250  0.2974 -0.7297 -0.3198
    7MOL0     H  879  -1.317   3.883  10.401 -2.2486 -0.9743  0.3737
    7MOL0     H  880  -1.482   3.685  10.249 -0.8907  1.1410  1.1649
    7MOL0     H  881  -1.487   3.869  10.241  2.8454  0.9437  1.1000
    7MOL0     H  882  -1.520   3.705  10.493  1.4197  1.7519  1.5845
    7MOL0     H  883  -1.543   3.879  10.479 -1.7883 -0.7394 -1.6972
    7MOL0     H  884  -1.705   3.809  10.279  2.2887  0.9558 -0.7403
    7MOL0     H  885  -1.762   3.817  10.441  0.0577  1.2982 -1.6862
    7MOL0     H  886  -1.802   3.411  10.247  0.4700 -2.0528  2.0839
    7MOL0     H  887  -2.019   3.363  10.189 -1.3262 -2.2236  3.3556
    7MOL0     H  888  -2.523   3.519  10.128 -0.0079 -0.4147  0.1047
    7MOL0     H  889  -2.748   3.455  10.132 -0.8581 -1.2675  0.1480
    7MOL0     H  890  -2.954   3.386  10.531  1.6448  1.3186  0.1688
    7MOL0     H  891  -2.909   3.229  10.453 -1.1135 -0.4907 -1.2919
    7MOL0     H  892  -3.158   3.235  10.465  2.3596 -0.0944  2.2059
    7MOL0     H  893  -3.105   3.256  10.304 -0.1428  0.0892  0.3935
    7MOL0     H  894  -3.295   3.387  10.351 -1.1056  2.4601 -1.5290
    7MOL0     H  895  -3.167   3.490  10.285 -2.0310 -0.4633 -0.6551
    7MOL0     H  896  -3.196   3.474  10.589 -3.2896 -0.9665 -0.2787
    7MOL0     H  897  -3.098   3.582  10.483  0.7756 -1.9837 -2.9680
    7MOL0     H  898  -3.318   3.670  10.376  0.6178 -0.2796 -0.4397
    7MOL0     H  899  -3.302   3.708  10.538  0.2297 -1.0146  0.0670
    7MOL0     H  900  -3.437   3.485  10.579  1.4668  0.6077  1.5110
    7MOL0     H  901  -3.487   3.507  10.410  0.5348  1.3371 -1.6563
    7MOL0     H  902  -3.637   3.621  10.576 -1.6543  1.5972 -3.6046
    7MOL0     H  903  -3.498   3.698  10.647  2.0175 -2.3224  0.1868
    7MOL0     H  904  -3.484   3.831  10.437  1.5851 -2.3234 -0.2343
    7MOL0     H  905  -3.654   3.850  10.506 -1.5898 -1.7708  1.1218
    7MOL0     H  906  -2.732   3.387  10.557 -0.0852 -0.4789 -1.2892
    7MOL0     H  907  -2.503   3.475  10.561 -0.0135 -1.3630  0.8291
    7MOL0     H  908  -2.173   3.659  10.444 -0.4889 -0.2706 -0.2013
    7MOL0     H  909  -1.940   3.738  10.485  2.8655 -0.9878  0.6466
    7MOL0     H  910  -0.183   3.008  10.019 -0.1671  0.6984 -2.5783
    7MOL0     H  911  -0.030   2.821   9.951  1.3312  1.1918  2.7865
    7MOL0     H  912   0.201   2.449  10.187  3.2858  1.5413  0.1884
    7MOL0     H  913   0.434   2.377  10.127  0.5036  0.3568 -0.0923
    7MOL0     H  914   0.457   2.166   9.801  1.0425 -0.2122 -0.1691
    7MOL0     H  915   0.570   2.149   9.922 -3.0504 -2.2180 -0.5051
    7MOL0     H  916   0.651   2.136   9.673  0.7104 -3.0240  3.2988
    7MOL0     H  917   0.639   2.313   9.669  2.3345  0.7422 -0.2854
    7MOL0     H  918   0.794   2.158   9.884 -2.2617  0.0244  1.5837
    7MOL0     H  919   0.811   2.332   9.852  3.1257 -0.4134 -0.8479
    7MOL0     H  920   0.892   2.101   9.667  1.6219 -1.0875  3.3457
    7MOL0     H  921   0.875   2.266   9.604 -0.7948 -1.4543 -0.3505
    7MOL0     H  922   1.243   2.277   9.837  0.2851  1.6167 -0.5590
    7MOL0     H  923   0.337   2.360   9.715  0.0532  1.5863 -1.3569
    7MOL0     H  924   0.094   2.452   9.759 -0.8132 -2.1957  1.1961
    8MOL0     O  925   3.671   1.540   0.546 -0.5836  0.1126  0.6716
    8MOL0     C  926   3.698   1.521   0.659 -0.2592 -0.2761  0.3103
    8MOL0     O  927   3.608   1.513   0.761  0.3248  0.8951 -0.1516
    8MOL0     C  928   3.480   1.553   0.734 -0.1474 -0.2909 -0.5237
    8MOL0     C  929   3.376   1.467   0.684  0.0890  0.5184 -0.5004
    8MOL0     C  930   3.252   1.521   0.655  0.1460  0.3379  0.4525
    8MOL0     C  931   3.225   1.655   0.682 -0.5421 -0.1735 -0.1036
    8MOL0     O  932   3.103   1.719   0.667 -0.3943 -0.4911 -0.7613
    8MOL0     C  933   2.983   1.653   0.632 -0.4863 -0.2944 -0.1948
    8MOL0     C  934   2.913   1.577   0.740 -0.1692 -0.1957 -0.2348
    8MOL0     C  935   2.759   1.560   0.727  0.2614  0.3215 -0.1497
    8MOL0     C  936   2.712   1.466   0.839 -0.0312 -0.5147  0.5526
    8MOL0     C  937   2.562   1.484   0.857  0.2203  0.4681 -0.3902
    8MOL0     C  938   2.469   1.453   0.739  0.0124  0.6686 -0.1570
    8MOL0     C  939   2.326   1.492   0.771 -0.7712 -0.7083  0.6381
    8MOL0     C  940   2.230   1.458   0.652 -0.1558  0.1505 -0.1731
    8MOL0     N  941   2.092   1.437   0.694  0.6363 -0.1213  0.4094
    8MOL0     C  942   2.036   1.326   0.741  0.3083 -0.1897 -0.3179
    8MOL0     C  943   1.915   1.367   0.773  0.9585 -0.2892  0.1818
    8MOL0     C  944   1.811   1.278   0.824  0.2986  0.4272  0.3687
    8MOL0     C  945   1.794   1.303   0.975  0.4775 -0.0164 -0.0732
    8MOL0     C  946   1.699   1.192   1.024 -0.8099 -0.3826 -0.1913
    8MOL0     C  947   1.681   1.217   1.175  0.7578 -0.7075  0.2010
    8MOL0     O  948   1.621   1.105   1.246  0.0388 -0.0389 -0.4151
    8MOL0     C  949   1.494   1.086   1.229  0.0265 -0.5551 -0.8509
    8MOL0     C  950   1.411   1.170   1.157  1.0045 -0.0257  0.7557
    8MOL0     C  951   1.271   1.148   1.155  0.2168  0.4746  0.9486
    8MOL0     C  952   1.215   1.048   1.226  0.1317 -0.4238 -0.3882
    8MOL0     C  953   1.072   1.026   1.218  0.5739  0.5028 -0.7092
    8MOL0     O  954   0.990   1.061   1.107 -0.3210  0.5437  0.4719
    8MOL0     C  955   0.869   0.994   1.096  0.2720 -0.5765  1.0566
    8MOL0     C  956   0.864   0.867   1.032  0.3138  0.8871  0.4043
    8MOL0     C  957   0.748   0.789   1.012  0.1241 -0.3584  0.7347
    8MOL0     C  958   0.626   0.842   1.065  0.3488 -0.3894  0.7083
    8MOL0     O  959   0.512   0.761   1.074 -0.5841  0.7993 -0.0878
    8MOL0     C  960   0.391   0.825   1.053  0.1834 -0.5877  0.4703
    8MOL0     C  961   0.277   0.712   1.047 -0.7225  0.7247  0.1080
    8MOL0     C  962   0.143   0.783   1.015  0.0981 -0.4629  0.2001
    8MOL0     C  963   0.033   0.682   1.007 -0.0595  0.9256  0.8911
    8MOL0     C  964  -0.108   0.731   0.962 -0.2594 -0.5488 -0.5445
    8MOL0     C  965  -0.220   0.648   1.029 -0.5867  0.3866 -0.7449
    8MOL0     C  966  -0.351   0.718   1.028  0.6238 -0.2796  0.5242
    8MOL0     C  967  -0.467   0.642   1.096  0.3840  0.4066  0.2088
    8MOL0    Cl  968  -0.613   0.742   1.106 -0.1321  0.5197 -0.0752
    8MOL0     C  969   0.630   0.973   1.118 -0.7493 -0.0403 -0.8040
    8MOL0     C  970   0.749   1.049   1.131 -0.3684 -0.0420 -0.1807
    8MOL0     O  971   1.027   0.957   1.313  0.2702  0.3028  0.3605
    8MOL0     C  972   1.298   0.966   1.310  0.4813 -0.3870 -0.4787
    8MOL0     C  973   1.439   0.982   1.310  1.4999 -0.9807 -0.0139
    8MOL0     N  974   1.899   1.497   0.734  0.1579 -0.3203  0.3365
    8MOL0     N  975   2.004   1.536   0.682 -0.1610 -0.2825  1.0879
    8MOL0     C  976   3.330   1.738   0.717  0.2563 -0.2386  0.6839
    8MOL0     C  977   3.458   1.690   0.751 -1.2301  0.0895 -0.2931
    8MOL0     C  978   3.836   1.467   0.676  0.2743 -0.1499  0.0654
    8MOL0     C  979   3.923   1.438   0.566  0.5262  0.0255  0.1734
    8MOL0     C  980   4.051   1.389   0.574 -0.5922  0.3882 -0.4196
    8MOL0     C  981   4.092   1.361   0.701  0.6498  0.3449  0.4174
    8MOL0     O  982   4.217   1.311   0.709  0.3570  0.8593 -0.3813
    8MOL0     C  983   4.231   1.172   0.663  1.0649  0.6293 -0.1600
    8MOL0     C  984   4.371   1.147   0.628 -0.9063  0.1162 -0.0622
    8MOL0     C  985   4.392   0.993   0.609  0.3033 -0.2307  0.0192
    8MOL0     C  986   4.540   0.958   0.654  0.4662  1.0532  0.4728
    8MOL0     C  987   4.579   0.822   0.598  0.5908  0.1878  0.1303
    8MOL0     C  988   4.593   0.712   0.548  0.0903  0.0008  0.1815
    8MOL0     C  989   4.014   1.390   0.817  0.5015  0.6046 -0.0787
    8MOL0     C  990   3.890   1.448   0.802 -1.1574 -0.4735 -0.3422
    8MOL0     H  991   3.397   1.362   0.667 -0.2038 -0.0197  1.9971
    8MOL0     H  992   3.172   1.470   0.602 -0.0136  4.3656 -3.8574
    8MOL0     H  993   3.004   1.581   0.553  1.8931 -2.8900  2.5342
    8MOL0     H  994   2.917   1.731   0.593 -0.6900 -0.8464 -0.9498
    8MOL0     H  995   2.928   1.625   0.837 -1.8230  1.5143 -0.7525
    8MOL0     H  996   2.963   1.480   0.742  1.7749  0.7513  2.3832
    8MOL0     H  997   2.730   1.518   0.631 -0.3212  0.0493  0.1403
    8MOL0     H  998   2.714   1.659   0.737 -1.4591 -0.5626  1.8853
    8MOL0     H  999   2.737   1.367   0.801  1.0488 -0.1873  0.3726
    8MOL0     H 1000   2.771   1.486   0.928  2.0376  2.5996 -1.3148
    8MOL0     H 1001   2.536   1.585   0.888 -4.3114 -0.1427 -1.4671
    8MOL0     H 1002   2.525   1.426   0.942  2.2470 -1.4965 -0.7447
    8MOL0     H 1003   2.465   1.345   0.722  1.5671  0.4948  0.4212
    8MOL0     H 1004   2.500   1.493   0.642  2.4760 -0.7444 -0.0381
    8MOL0     H 1005   2.295   1.451   0.868 -0.3845 -0.4173  0.8878
    8MOL0     H 1006   2.327   1.601   0.781  2.5298 -0.4477 -1.2627
    8MOL0     H 1007   2.270   1.364   0.614 -1.2540 -1.7881  3.0393
    8MOL0     H 1008   2.248   1.532   0.574  2.0032  1.0510  1.0804
    8MOL0     H 1009   2.069   1.226   0.767 -1.1403 -1.0060 -1.4552
    8MOL0     H 1010   1.823   1.170   0.805 -1.9509  0.1887  0.0367
    8MOL0     H 1011   1.720   1.307   0.772 -0.8315 -1.3743  1.2410
    8MOL0     H 1012   1.745   1.400   0.989 -0.4256 -0.6767  1.6948
    8MOL0     H 1013   1.892   1.295   1.023 -0.0336 -0.5968  0.8954
    8MOL0     H 1014   1.602   1.198   0.973 -1.2008  0.2919  0.6181
    8MOL0     H 1015   1.741   1.092   1.008 -0.6622 -0.3091 -0.2708
    8MOL0     H 1016   1.616   1.303   1.193 -0.7091 -2.0235  1.4650
    8MOL0     H 1017   1.782   1.231   1.216  1.4950  1.2516 -2.0473
    8MOL0     H 1018   1.440   1.253   1.093 -3.2464  1.2293  0.1147
    8MOL0     H 1019   1.201   1.197   1.088  1.0819  0.1394 -0.2397
    8MOL0     H 1020   0.960   0.843   0.988  0.4917  1.5685  0.4022
    8MOL0     H 1021   0.752   0.697   0.954 -0.6127  0.1189 -0.1043
    8MOL0     H 1022   0.383   0.886   0.963 -2.0865  0.8451  1.5353
    8MOL0     H 1023   0.362   0.891   1.136 -2.5690 -0.5431 -0.4350
    8MOL0     H 1024   0.278   0.660   1.143  0.7491  0.6997  0.1131
    8MOL0     H 1025   0.292   0.637   0.969 -2.1634  0.2816  0.2328
    8MOL0     H 1026   0.148   0.842   0.923 -0.6013  0.8927  1.0141
    8MOL0     H 1027   0.112   0.849   1.096 -1.5470 -0.6300 -0.2614
    8MOL0     H 1028   0.072   0.610   0.934  1.9657  0.7908  2.0338
    8MOL0     H 1029   0.032   0.628   1.102  4.1224 -1.0489  0.0375
    8MOL0     H 1030  -0.126   0.715   0.856 -1.1192 -0.2346 -0.4530
    8MOL0     H 1031  -0.121   0.838   0.984  0.1106 -0.5297 -0.4145
    8MOL0     H 1032  -0.193   0.623   1.132  0.5160  1.7330 -0.6840
    8MOL0     H 1033  -0.236   0.555   0.973 -0.2416  0.9917 -1.8709
    8MOL0     H 1034  -0.342   0.819   1.069  1.8346  0.0728 -0.5151
    8MOL0     H 1035  -0.384   0.727   0.924  0.3626  3.6308  0.8052
    8MOL0     H 1036  -0.433   0.609   1.194 -0.3560  1.8631  0.9892
    8MOL0     H 1037  -0.504   0.564   1.029 -1.9134  2.3881 -0.9814
    8MOL0     H 1038   0.549   1.029   1.164 -0.4988  0.3819 -0.8718
    8MOL0     H 1039   0.743   1.139   1.192  2.9073  0.1545  0.0215
    8MOL0     H 1040   1.251   0.883   1.362  0.9434  0.7690  1.9245
    8MOL0     H 1041   1.495   0.914   1.375 -1.9221 -0.2978  4.0930
    8MOL0     H 1042   3.307   1.843   0.730 -3.4370 -0.8341 -0.0884
    8MOL0     H 1043   3.532   1.762   0.786 -0.9306  0.0317 -0.7965
    8MOL0     H 1044   3.887   1.462   0.466  0.0727 -0.6376  0.1749
    8MOL0     H 1045   4.113   1.361   0.489  0.9609 -0.3334  0.8900
    8MOL0     H 1046   4.170   1.161   0.573  1.0887 -2.5357  0.0889
    8MOL0     H 1047   4.193   1.103   0.739  2.4475  1.4484  1.3331
    8MOL0     H 1048   4.396   1.190   0.531  0.8291 -2.3847 -0.8289
    8MOL0     H 1049   4.433   1.181   0.712 -0.8734  1.8693 -0.7665
    8MOL0     H 1050   4.365   0.971   0.506 -2.5016 -0.9390  0.8096
    8MOL0     H 1051   4.320   0.934   0.666 -0.3377 -0.8344 -1.3692
    8MOL0     H 1052   4.610   1.026   0.604  3.4030 -1.4449  0.8749
    8MOL0     H 1053   4.556   0.971   0.761 -0.3008 -0.0870  0.7464
    8MOL0     H 1054   4.606   0.610   0.516 -1.8015 -0.0100 -0.6728
    8MOL0     H 1055   4.050   1.360   0.915 -1.1760 -2.6261 -0.3248
    8MOL0     H 1056   3.833   1.464   0.893  2.3279  2.0471  1.6385
    9MOL0     O 1057  11.204   7.475   8.449  0.1447  0.3479 -0.6950
    9MOL0     C 1058  11.214   7.589   8.406 -0.0104  0.0642 -0.2774
    9MOL0     O 1059  11.115   7.691   8.413 -0.0258  0.3277 -0.5369
    9MOL0     C 1060  10.986   7.671   8.395  0.5120  0.0786  0.3839
    9MOL0     C 1061  10.899   7.782   8.413 -0.0975  0.6789  0.1749
    9MOL0     C 1062  10.764   7.767   8.396 -0.4464 -0.4944  0.8015
    9MOL0     C 1063  10.712   7.648   8.341 -0.0104 -0.3613 -0.5542
    9MOL0     O 1064  10.579   7.644   8.289 -0.3506  0.6605  0.2842
    9MOL0     C 1065  10.485   7.711   8.369 -1.1235 -0.4017  1.0328
    9MOL0     C 1066  10.345   7.687   8.303 -0.9266  0.0027  0.6482
    9MOL0     C 1067  10.239   7.767   8.373  0.1790 -0.6137  0.4776
    9MOL0     C 1068  10.106   7.759   8.299  0.3221  0.5735  0.0897
    9MOL0     C 1069   9.997   7.856   8.353 -0.6527  0.6397  0.1410
    9MOL0     C 1070   9.927   7.802   8.485 -0.1674  0.5646  0.2412
    9MOL0     C 1071   9.800   7.883   8.520  0.2962 -0.0936 -0.5957
    9MOL0     C 1072   9.700   7.790   8.598  0.1865 -0.1330 -0.2681
    9MOL0     N 1073   9.574   7.855   8.619 -0.2243  0.0060  0.0950
    9MOL0     C 1074   9.478   7.868   8.528 -0.5174 -0.4973  0.0507
    9MOL0     C 1075   9.382   7.946   8.582 -0.4425 -0.8656  0.1286
    9MOL0     C 1076   9.262   7.995   8.508  0.8158 -0.5644  0.1484
    9MOL0     C 1077   9.146   7.885   8.512 -0.4788 -0.1149  0.2815
    9MOL0     C 1078   9.004   7.953   8.488  0.1329 -0.1170 -0.4634
    9MOL0     C 1079   8.889   7.851   8.479  0.5936 -0.3934  0.0641
    9MOL0     O 1080   8.866   7.798   8.614 -0.0975  0.3790 -0.1186
    9MOL0     C 1081   8.748   7.732   8.649  0.2468  0.2392 -1.6029
    9MOL0     C 1082   8.753   7.630   8.740 -0.2804  0.1013  0.9927
    9MOL0     C 1083   8.641   7.561   8.780 -1.2143  0.3589  1.4917
    9MOL0     C 1084   8.521   7.583   8.721  0.3333  0.2593  0.2590
    9MOL0     C 1085   8.405   7.502   8.754  0.0619 -0.6957 -0.7243
    9MOL0     O 1086   8.283   7.541   8.711 -0.8200  1.3578 -0.5350
    9MOL0     C 1087   8.168   7.463   8.694  0.3472  0.3864 -0.1355
    9MOL0     C 1088   8.048   7.531   8.701 -0.3009 -0.3223 -0.6422
    9MOL0     C 1089   7.932   7.464   8.670  0.5245  0.7780 -0.0434
    9MOL0     C 1090   7.935   7.326   8.636 -0.4208  0.1591  0.3754
    9MOL0     O 1091   7.813   7.268   8.621  0.2089  0.0388  0.1344
    9MOL0     C 1092   7.774   7.222   8.495 -0.6884 -0.1290 -0.0233
    9MOL0     C 1093   7.712   7.343   8.425 -0.5651  0.7702  0.9290
    9MOL0     C 1094   7.630   7.289   8.305 -0.3073 -0.6663  0.8429
    9MOL0     C 1095   7.557   7.406   8.233  0.5804  0.1859 -0.2702
    9MOL0     C 1096   7.429   7.428   8.302  0.6588 -0.8866  0.8272
    9MOL0     C 1097   7.329   7.320   8.276  0.1045  0.0960 -0.9358
    9MOL0     C 1098   7.202   7.351   8.362 -0.7079 -0.2304 -0.0568
    9MOL0     C 1099   7.132   7.491   8.335 -0.1601 -0.1974 -0.2249
    9MOL0    Cl 1100   7.080   7.506   8.164 -0.2892  0.1524  0.5654
    9MOL0     C 1101   8.059   7.260   8.638 -0.5474  0.5220  0.1361
    9MOL0     C 1102   8.178   7.325   8.662 -0.8045 -0.5377  0.3995
    9MOL0     O 1103   8.425   7.393   8.805  0.6124 -0.0916  0.2945
    9MOL0     C 1104   8.511   7.693   8.634 -0.6623  0.4123 -0.0037
    9MOL0     C 1105   8.621   7.770   8.598 -0.6614 -0.1532  0.0508
    9MOL0     N 1106   9.424   7.971   8.709  0.6024  0.3554 -0.0200
    9MOL0     N 1107   9.538   7.919   8.731  0.5953 -0.0125 -0.2848
    9MOL0     C 1108  10.797   7.541   8.326  0.0863  0.1373 -0.9855
    9MOL0     C 1109  10.935   7.545   8.358  0.2217  0.7912  1.0158
    9MOL0     C 1110  11.347   7.620   8.349  0.4773  0.6090  1.0851
    9MOL0     C 1111  11.427   7.525   8.283  0.6185 -0.0821 -0.1367
    9MOL0     C 1112  11.546   7.560   8.230 -0.1993  0.1305  0.4273
    9MOL0     C 1113  11.594   7.690   8.253  0.5992  0.5600  0.7627
    9MOL0     O 1114  11.710   7.731   8.198  0.4328 -0.1490 -0.2294
    9MOL0     C 1115  11.820   7.663   8.261 -0.6882 -0.0806 -0.0697
    9MOL0     C 1116  11.956   7.700   8.203 -0.3054 -0.1475  0.1530
    9MOL0     C 1117  11.991   7.848   8.229 -0.4866  0.5414  0.6790
    9MOL0     C 1118  12.112   7.900   8.145 -0.1431 -0.3102  0.3977
    9MOL0     C 1119  12.242   7.832   8.188  0.4448  0.3141  0.4869
    9MOL0     C 1120  12.330   7.749   8.221 -0.3820  0.2948  0.7094
    9MOL0     C 1121  11.528   7.781   8.340 -0.1181 -0.3250 -0.1347
    9MOL0     C 1122  11.400   7.745   8.374  0.3480 -0.2060 -1.2343
    9MOL0     H 1123  10.953   7.871   8.443  0.9785 -0.3312  1.3820
    9MOL0     H 1124  10.701   7.852   8.419  0.6872  0.1768  1.5101
    9MOL0     H 1125  10.504   7.819   8.363  2.4806 -0.9165  1.0778
    9MOL0     H 1126  10.492   7.677   8.473 -0.2745  1.3411  1.5890
    9MOL0     H 1127  10.331   7.579   8.306  1.5360 -0.3847  0.3055
    9MOL0     H 1128  10.346   7.727   8.201 -2.5644  1.6578  1.2285
    9MOL0     H 1129  10.261   7.874   8.368  0.8526 -0.7167  1.2331
    9MOL0     H 1130  10.232   7.744   8.479  0.8990 -2.3117  0.1897
    9MOL0     H 1131  10.108   7.771   8.190 -0.6858  0.9631  0.1066
    9MOL0     H 1132  10.071   7.657   8.320  0.6558  0.5121  0.3589
    9MOL0     H 1133   9.910   7.872   8.289 -1.9012  0.8801  1.8218
    9MOL0     H 1134  10.034   7.957   8.375 -0.4806  1.1588 -2.2602
    9MOL0     H 1135   9.995   7.805   8.570 -0.5970  1.7598  0.5721
    9MOL0     H 1136   9.898   7.698   8.471  0.4965  0.7252 -3.4266
    9MOL0     H 1137   9.828   7.961   8.591  3.0814 -1.4085 -0.0734
    9MOL0     H 1138   9.748   7.917   8.430 -1.4100 -0.4413  0.2239
    9MOL0     H 1139   9.736   7.751   8.694 -0.8326  0.2329  0.2725
    9MOL0     H 1140   9.684   7.701   8.536  0.5367 -0.6799  0.4137
    9MOL0     H 1141   9.468   7.828   8.427  0.0046  0.2969 -0.3251
    9MOL0     H 1142   9.269   8.015   8.401  0.6883 -0.1594  0.2147
    9MOL0     H 1143   9.227   8.083   8.564  2.8386  1.1208 -1.0982
    9MOL0     H 1144   9.157   7.828   8.605  2.6054  0.3076  0.2862
    9MOL0     H 1145   9.169   7.805   8.441  0.5496  0.3434  0.0715
    9MOL0     H 1146   8.974   8.022   8.567 -0.4853 -0.7705 -0.1126
    9MOL0     H 1147   9.009   7.995   8.387 -1.0021  2.6030  0.5342
    9MOL0     H 1148   8.910   7.777   8.401 -1.8724 -0.2194 -0.8550
    9MOL0     H 1149   8.815   7.918   8.435 -0.9972 -1.1852  1.4132
    9MOL0     H 1150   8.853   7.612   8.779  0.0496 -1.4713 -0.4462
    9MOL0     H 1151   8.655   7.474   8.843 -0.0927 -0.1260  0.6055
    9MOL0     H 1152   8.041   7.634   8.736  1.4625 -1.0732  2.2483
    9MOL0     H 1153   7.834   7.510   8.664  0.5653  0.7532 -0.9381
    9MOL0     H 1154   7.705   7.138   8.504  1.0508 -1.8539 -1.6080
    9MOL0     H 1155   7.860   7.179   8.443 -0.4415 -0.9601  1.0379
    9MOL0     H 1156   7.785   7.422   8.406 -0.3144  1.0595  2.9432
    9MOL0     H 1157   7.634   7.383   8.491 -3.8180 -1.1388 -1.4466
    9MOL0     H 1158   7.571   7.201   8.332  1.0018 -2.3107 -1.2124
    9MOL0     H 1159   7.704   7.261   8.229 -0.1564  2.0010 -0.0992
    9MOL0     H 1160   7.608   7.503   8.234 -0.3748  0.7097  1.7695
    9MOL0     H 1161   7.552   7.379   8.127  0.0444 -1.9578  0.2478
    9MOL0     H 1162   7.387   7.514   8.250 -0.2267 -2.5793 -1.4362
    9MOL0     H 1163   7.442   7.440   8.410  2.9652  0.4801  0.4832
    9MOL0     H 1164   7.366   7.224   8.313  2.2388  1.0663 -0.4288
    9MOL0     H 1165   7.311   7.320   8.168  1.7928 -0.9053 -1.2434
    9MOL0     H 1166   7.124   7.276   8.344 -0.7270 -0.4392  0.8507
    9MOL0     H 1167   7.228   7.353   8.468 -2.5841  2.8172  0.4528
    9MOL0     H 1168   7.207   7.566   8.362  0.3943 -0.4773 -0.9634
    9MOL0     H 1169   7.044   7.500   8.399 -1.8178  1.9175 -2.6491
    9MOL0     H 1170   8.045   7.154   8.623 -1.7937  0.0978  3.3869
    9MOL0     H 1171   8.271   7.270   8.659  3.1186  5.2389  0.8729
    9MOL0     H 1172   8.418   7.716   8.582 -2.3199  1.9515  3.3430
    9MOL0     H 1173   8.594   7.852   8.532 -2.2920  1.0061  2.0119
    9MOL0     H 1174  10.759   7.442   8.302 -0.6503 -0.2378  1.3738
    9MOL0     H 1175  10.986   7.451   8.336 -1.2013  0.0814  0.5543
    9MOL0     H 1176  11.379   7.429   8.267 -0.8466  0.5594  0.2458
    9MOL0     H 1177  11.609   7.491   8.175 -0.2333  0.8137 -0.4977
    9MOL0     H 1178  11.807   7.555   8.247 -0.2484  0.1991 -3.3067
    9MOL0     H 1179  11.817   7.684   8.369 -0.2876  0.8487 -0.2309
    9MOL0     H 1180  12.030   7.632   8.247 -0.8267 -1.4258 -0.8506
    9MOL0     H 1181  11.941   7.684   8.096 -1.7823 -0.5256  0.3937
    9MOL0     H 1182  12.003   7.857   8.338 -0.0521  2.2218  0.5135
    9MOL0     H 1183  11.911   7.918   8.202 -1.2481  0.1019  1.6876
    9MOL0     H 1184  12.091   7.878   8.040  2.5595 -1.5436  0.0292
    9MOL0     H 1185  12.121   8.006   8.171 -0.8037  0.4983 -2.3487
    9MOL0     H 1186  12.413   7.690   8.255  0.4534  1.0400  0.0140
    9MOL0     H 1187  11.577   7.876   8.361  2.2796 -1.1499 -1.5902
    9MOL0     H 1188  11.358   7.828   8.428  1.5952 -1.4971  1.9505
   10MOL0     O 1189   5.936   1.879   5.225 -0.2642 -0.8252 -0.1677
   10MOL0     C 1190   6.011   1.906   5.315  0.3767 -0.6420 -0.4343
   10MOL0     O 1191   6.019   2.023   5.380 -0.4125  0.2762  0.2701
   10MOL0     C 1192   5.940   2.128   5.337 -0.5251 -0.6088 -0.1081
   10MOL0     C 1193   5.803   2.126   5.342 -0.2272 -0.5458  0.7081
   10MOL0     C 1194   5.727   2.244   5.309 -0.5478 -0.4715  0.5896
   10MOL0     C 1195   5.779   2.360   5.251 -0.2598 -0.5296 -0.7564
   10MOL0     O 1196   5.699   2.465   5.212 -0.7004 -0.0503 -0.2882
   10MOL0     C 1197   5.692   2.492   5.074 -0.0208 -0.2072  0.1185
   10MOL0     C 1198   5.567   2.428   4.998  0.3006 -0.4617 -0.2613
   10MOL0     C 1199   5.431   2.487   5.057  0.7962 -0.2503 -0.1952
   10MOL0     C 1200   5.418   2.645   5.057  0.1732 -0.9054 -0.3685
   10MOL0     C 1201   5.279   2.711   5.091  0.1339 -0.7109  0.9510
   10MOL0     C 1202   5.184   2.638   5.188  0.0851  0.0917 -0.6538
   10MOL0     C 1203   5.051   2.708   5.191  0.9870  0.8973 -0.0688
   10MOL0     C 1204   4.969   2.711   5.055 -0.0679 -0.8601 -0.9542
   10MOL0     N 1205   4.957   2.571   4.999  0.2267 -0.1174  0.5601
   10MOL0     C 1206   4.902   2.465   5.074 -0.6199  1.0080 -0.6622
   10MOL0     C 1207   4.924   2.360   4.989 -0.1133 -0.1352  0.3071
   10MOL0     C 1208   4.889   2.225   5.034 -0.6249  0.0859 -0.0532
   10MOL0     C 1209   4.998   2.124   4.997 -0.3825  0.1311  0.2954
   10MOL0     C 1210   4.999   1.994   5.074  0.3638  0.2321 -0.1380
   10MOL0     C 1211   4.869   1.903   5.046 -0.5736 -1.0658 -0.1332
   10MOL0     O 1212   4.866   1.812   5.154 -0.2949  0.7402  0.4684
   10MOL0     C 1213   4.746   1.729   5.183  0.3853 -0.4893  0.0566
   10MOL0     C 1214   4.711   1.683   5.310 -1.3113 -0.7853 -0.7860
   10MOL0     C 1215   4.612   1.601   5.339  0.5332  0.7546 -0.1791
   10MOL0     C 1216   4.515   1.559   5.240  0.2949  0.0552 -0.4720
   10MOL0     C 1217   4.390   1.490   5.290 -0.7432  0.7153  0.4067
   10MOL0     O 1218   4.307   1.455   5.187 -0.9035  0.2804  0.4674
   10MOL0     C 1219   4.189   1.395   5.212 -0.6050  0.0128 -0.6628
   10MOL0     C 1220   4.160   1.285   5.125  0.1370 -0.4824 -0.3563
   10MOL0     C 1221   4.036   1.202   5.134 -0.7994 -0.4266  0.7539
   10MOL0     C 1222   3.946   1.239   5.243  0.1100  1.0366 -0.0502
   10MOL0     O 1223   3.828   1.166   5.247  0.0294 -0.3498 -0.7642
   10MOL0     C 1224   3.713   1.224   5.300 -0.5845  0.4678  0.5106
   10MOL0     C 1225   3.593   1.133   5.286 -0.3554 -0.2594  0.2502
   10MOL0     C 1226   3.467   1.207   5.314 -0.3111  0.6330 -0.0492
   10MOL0     C 1227   3.355   1.109   5.356 -0.0202 -0.0325 -0.4233
   10MOL0     C 1228   3.219   1.194   5.387  0.3658  0.3541 -0.9794
   10MOL0     C 1229   3.146   1.124   5.505  0.5579  0.3580 -0.4618
   10MOL0     C 1230   3.019   1.190   5.541 -0.1939  0.3123  0.2725
   10MOL0     C 1231   2.953   1.106   5.650 -0.1010 -0.7497  0.0079
   10MOL0    Cl 1232   2.790   1.174   5.673 -0.2329 -0.5293  0.2899
   10MOL0     C 1233   3.978   1.346   5.333 -0.9759  0.2975 -0.1311
   10MOL0     C 1234   4.093   1.419   5.315 -0.2932 -0.5880 -0.1158
   10MOL0     O 1235   4.381   1.470   5.414  0.6186  0.0905  0.8706
   10MOL0     C 1236   4.550   1.598   5.112 -1.1098 -0.0939  0.5519
   10MOL0     C 1237   4.661   1.682   5.085  0.9880 -0.6880 -0.6352
   10MOL0     N 1238   4.985   2.401   4.873 -0.2019 -0.3274 -0.1790
   10MOL0     N 1239   4.996   2.530   4.873 -0.3643 -0.6680 -0.2142
   10MOL0     C 1240   5.917   2.364   5.252  0.9899 -0.1187 -0.7417
   10MOL0     C 1241   6.001   2.251   5.291  0.7550 -0.3116 -0.4504
   10MOL0     C 1242   6.114   1.808   5.348  0.8501  0.7697 -0.7088
   10MOL0     C 1243   6.122   1.687   5.279 -0.3246  0.7123  0.2784
   10MOL0     C 1244   6.213   1.585   5.323  0.1555  0.8442 -0.6892
   10MOL0     C 1245   6.300   1.610   5.433 -0.3703 -0.9420  0.2711
   10MOL0     O 1246   6.375   1.502   5.466 -0.6478 -0.7638  0.6054
   10MOL0     C 1247   6.484   1.526   5.564  0.0508  0.3539 -0.2555
   10MOL0     C 1248   6.562   1.394   5.577 -0.2724 -0.4269  1.3251
   10MOL0     C 1249   6.631   1.367   5.446 -0.2269 -0.6767  0.5339
   10MOL0     C 1250   6.667   1.224   5.442  0.1922  0.5521 -0.3547
   10MOL0     C 1251   6.762   1.192   5.343 -0.6644 -0.5165  0.1278
   10MOL0     C 1252   6.847   1.160   5.255 -0.4814  0.4181 -0.2745
   10MOL0     C 1253   6.301   1.734   5.495 -0.3971  0.1557 -0.5016
   10MOL0     C 1254   6.209   1.831   5.453  0.1462 -1.2443 -0.4411
   10MOL0     H 1255   5.750   2.037   5.375 -0.9304  0.2647  1.8554
   10MOL0     H 1256   5.620   2.231   5.325 -0.3259 -2.7003  0.4608
   10MOL0     H 1257   5.782   2.452   5.026  0.0270 -0.4057  0.3694
   10MOL0     H 1258   5.704   2.600   5.064  0.2251 -0.1797  0.6750
   10MOL0     H 1259   5.582   2.322   5.021  1.2605  0.0693  1.7178
   10MOL0     H 1260   5.572   2.457   4.892 -0.4127  2.3106  0.3999
   10MOL0     H 1261   5.427   2.454   5.161  3.4178 -0.4597 -0.0928
   10MOL0     H 1262   5.349   2.442   5.000  1.5692 -1.6592 -0.2348
   10MOL0     H 1263   5.485   2.684   5.135 -3.3649  1.2624  1.8518
   10MOL0     H 1264   5.458   2.672   4.959  2.3723  0.8143  0.9044
   10MOL0     H 1265   5.232   2.724   4.993 -0.0919 -1.3376  0.9720
   10MOL0     H 1266   5.302   2.813   5.124 -0.1382 -0.2827 -0.1581
   10MOL0     H 1267   5.230   2.650   5.286  0.0657 -2.0364 -0.3379
   10MOL0     H 1268   5.172   2.531   5.167  0.0113  0.0671 -0.4866
   10MOL0     H 1269   4.981   2.657   5.259 -0.4085  0.6677 -1.6099
   10MOL0     H 1270   5.063   2.814   5.215 -3.1025  2.6695 -4.4078
   10MOL0     H 1271   5.003   2.773   4.971 -3.1490 -0.7120 -2.2539
   10MOL0     H 1272   4.874   2.758   5.083 -0.5900 -2.9054  0.9756
   10MOL0     H 1273   4.864   2.466   5.175 -0.7295  0.1603 -0.6910
   10MOL0     H 1274   4.794   2.190   4.993 -0.3842 -0.9490  0.2286
   10MOL0     H 1275   4.893   2.232   5.143 -0.7000 -0.8014  0.0141
   10MOL0     H 1276   5.098   2.167   5.010  0.4730 -1.0074 -1.8437
   10MOL0     H 1277   4.993   2.101   4.890  1.4426  0.5340  0.0821
   10MOL0     H 1278   5.095   1.944   5.059  0.0156 -0.8130  0.9693
   10MOL0     H 1279   4.986   2.009   5.181  0.1535  0.2917 -0.1724
   10MOL0     H 1280   4.879   1.851   4.950  2.3006 -1.3035  0.2277
   10MOL0     H 1281   4.775   1.958   5.055  0.0860 -0.0996  1.2423
   10MOL0     H 1282   4.770   1.728   5.389 -1.6878  0.4164 -1.1587
   10MOL0     H 1283   4.590   1.579   5.443 -0.3234  1.2223 -0.2441
   10MOL0     H 1284   4.226   1.254   5.045 -1.0114  0.3614 -1.6584
   10MOL0     H 1285   4.004   1.119   5.071 -1.2231  1.0337 -1.0494
   10MOL0     H 1286   3.709   1.325   5.258  0.2582 -0.6245 -2.4684
   10MOL0     H 1287   3.741   1.232   5.405  0.8994 -3.3463  0.5588
   10MOL0     H 1288   3.608   1.052   5.358  0.3566 -0.8173 -0.4984
   10MOL0     H 1289   3.588   1.084   5.188  1.1947 -0.1374  0.0917
   10MOL0     H 1290   3.425   1.247   5.222 -2.1088 -0.9866  0.0179
   10MOL0     H 1291   3.492   1.288   5.383  1.7715 -0.3940  0.4732
   10MOL0     H 1292   3.323   1.031   5.285 -2.9621  2.7156 -2.3684
   10MOL0     H 1293   3.395   1.051   5.440  0.7831  2.6396  1.1284
   10MOL0     H 1294   3.160   1.203   5.295 -1.4294  2.2577  0.2566
   10MOL0     H 1295   3.247   1.293   5.425  1.6217 -0.8315  1.3929
   10MOL0     H 1296   3.212   1.109   5.592  0.5867  1.3162 -0.3154
   10MOL0     H 1297   3.121   1.025   5.465 -1.2561  0.0847  1.1801
   10MOL0     H 1298   3.036   1.296   5.563 -1.1482  0.1897  1.6938
   10MOL0     H 1299   2.953   1.175   5.455 -0.4778  0.3296  0.4858
   10MOL0     H 1300   3.015   1.133   5.736  2.1026 -3.4861 -0.5817
   10MOL0     H 1301   2.965   1.000   5.627  3.1096 -0.2167 -1.3683
   10MOL0     H 1302   3.911   1.383   5.409 -1.5422 -1.2755  0.1726
   10MOL0     H 1303   4.097   1.511   5.373  1.6603 -1.2262  0.8381
   10MOL0     H 1304   4.482   1.584   5.028 -0.0708  3.7391 -1.1839
   10MOL0     H 1305   4.689   1.708   4.983  0.2076 -0.6062 -0.8353
   10MOL0     H 1306   5.970   2.452   5.216  0.3496  0.9549  0.8409
   10MOL0     H 1307   6.108   2.262   5.279  0.5791  0.2064 -1.7435
   10MOL0     H 1308   6.051   1.665   5.200  0.2412 -0.8844  0.1811
   10MOL0     H 1309   6.238   1.494   5.269  3.2108  1.7614 -0.9738
   10MOL0     H 1310   6.446   1.561   5.660  0.2618  2.4954 -0.9031
   10MOL0     H 1311   6.551   1.603   5.525  1.4487 -1.5224 -1.7616
   10MOL0     H 1312   6.644   1.399   5.649 -0.1775  0.9961  1.1523
   10MOL0     H 1313   6.490   1.318   5.606 -0.1842 -0.1935  2.1731
   10MOL0     H 1314   6.724   1.424   5.441 -0.5914  0.1970  2.8256
   10MOL0     H 1315   6.563   1.391   5.363  0.0995 -2.0151 -0.1594
   10MOL0     H 1316   6.706   1.186   5.537  1.6425  3.4987  0.3492
   10MOL0     H 1317   6.574   1.169   5.422 -1.0535  2.4569 -0.0195
   10MOL0     H 1318   6.928   1.118   5.198 -3.0830 -3.6730 -1.3495
   10MOL0     H 1319   6.361   1.770   5.577  1.3069 -4.7315  0.7252
   10MOL0     H 1320   6.205   1.924   5.509  1.4472 -0.9659 -0.7862
   11MOL0     O 1321   4.668   2.741   2.963  0.0033  0.2754  0.0206
   11MOL0     C 1322   4.700   2.622   2.965  0.0009  0.2013 -0.3196
   11MOL0     O 1323   4.612   2.517   2.971 -0.3174 -0.0566 -0.2503
   11MOL0     C 1324   4.484   2.563   2.941  0.3270  0.5323  0.3488
   11MOL0     C 1325   4.393   2.601   3.041  0.0731 -0.1830 -0.0782
   11MOL0     C 1326   4.266   2.638   3.007  0.1343 -0.2105  0.4310
   11MOL0     C 1327   4.231   2.636   2.865  0.3025  0.3620  0.0017
   11MOL0     O 1328   4.110   2.674   2.809 -0.4911 -0.2170  0.3180
   11MOL0     C 1329   4.006   2.702   2.904 -0.0395 -0.5175  0.6169
   11MOL0     C 1330   3.885   2.775   2.830 -1.1858 -0.6523 -0.0763
   11MOL0     C 1331   3.842   2.709   2.702 -0.0218  0.0714  0.1829
   11MOL0     C 1332   3.750   2.803   2.619 -0.3454  0.5889  0.4491
   11MOL0     C 1333   3.697   2.726   2.494  0.9507 -0.1312 -0.6067
   11MOL0     C 1334   3.627   2.816   2.385 -0.3171  0.3342  0.2552
   11MOL0     C 1335   3.530   2.731   2.293 -0.6996  1.0996 -0.2056
   11MOL0     C 1336   3.387   2.741   2.348  0.0375  0.2039  0.3625
   11MOL0     N 1337   3.279   2.700   2.251 -0.9101  0.3659  0.2311
   11MOL0     C 1338   3.267   2.575   2.196  0.6284  0.0681 -0.7671
   11MOL0     C 1339   3.145   2.584   2.120  0.7552  0.4618 -0.4286
   11MOL0     C 1340   3.077   2.459   2.093 -0.2697  0.6522 -0.2920
   11MOL0     C 1341   2.930   2.478   2.054 -1.0306 -0.4686 -0.5854
   11MOL0     C 1342   2.835   2.479   2.181  0.5239  0.6413  0.2054
   11MOL0     C 1343   2.812   2.339   2.252  0.3659  0.5944  0.0132
   11MOL0     O 1344   2.726   2.368   2.363  0.5051  0.4525  0.0360
   11MOL0     C 1345   2.588   2.378   2.344  0.2860 -0.1625 -0.2368
   11MOL0     C 1346   2.526   2.321   2.234  0.6979 -0.3536  0.2069
   11MOL0     C 1347   2.386   2.331   2.217 -0.1871 -0.2892  0.3369
   11MOL0     C 1348   2.305   2.373   2.328 -0.0007 -0.3883 -0.8992
   11MOL0     C 1349   2.153   2.385   2.318 -0.5587 -0.4657  1.1657
   11MOL0     O 1350   2.094   2.394   2.196  0.1168  0.8701 -0.4630
   11MOL0     C 1351   1.961   2.383   2.204 -0.8486 -0.2483 -0.5149
   11MOL0     C 1352   1.886   2.500   2.190  0.1237 -0.9906 -0.1272
   11MOL0     C 1353   1.747   2.492   2.184 -0.5906  0.5016 -0.2394
   11MOL0     C 1354   1.676   2.375   2.206  0.3626 -0.0391 -0.3106
   11MOL0     O 1355   1.537   2.373   2.209  0.2622  0.0885 -0.2324
   11MOL0     C 1356   1.465   2.260   2.151 -0.6003  0.3191 -0.7002
   11MOL0     C 1357   1.329   2.320   2.118  0.0062  0.3433  0.0951
   11MOL0     C 1358   1.219   2.275   2.219 -0.8627  0.3715 -0.1148
   11MOL0     C 1359   1.099   2.364   2.213  1.0384 -0.1039 -0.1766
   11MOL0     C 1360   1.002   2.335   2.326 -0.7694  0.1577 -0.0571
   11MOL0     C 1361   0.890   2.437   2.350 -0.3259 -0.1243  0.2224
   11MOL0     C 1362   0.778   2.372   2.426  0.2415 -0.4814  0.3657
   11MOL0     C 1363   0.649   2.450   2.405  0.0171  0.4253 -0.3939
   11MOL0    Cl 1364   0.667   2.629   2.425  0.4815  0.2954 -0.1153
   11MOL0     C 1365   1.750   2.262   2.219  0.0399 -0.4960 -0.7468
   11MOL0     C 1366   1.889   2.259   2.219  0.7627  0.1009 -0.2739
   11MOL0     O 1367   2.093   2.395   2.422  0.1524  0.1069  0.1188
   11MOL0     C 1368   2.373   2.419   2.443 -0.5521 -0.6086  0.2882
   11MOL0     C 1369   2.512   2.430   2.447 -1.5186 -0.2565 -0.8458
   11MOL0     N 1370   3.084   2.703   2.152  0.2661  0.5623  0.3363
   11MOL0     N 1371   3.169   2.778   2.220 -0.2646  0.1117  0.1897
   11MOL0     C 1372   4.324   2.592   2.772 -0.7510  0.2954 -0.3241
   11MOL0     C 1373   4.450   2.559   2.803 -0.2359 -0.7476 -0.7327
   11MOL0     C 1374   4.846   2.592   2.985  0.3134  0.0070  0.3789
   11MOL0     C 1375   4.938   2.691   3.022 -0.4310  0.2153  1.0870
   11MOL0     C 1376   5.067   2.665   3.031  0.2368 -0.4207 -0.9727
   11MOL0     C 1377   5.123   2.541   2.996  0.5763  0.3188 -0.8858
   11MOL0     O 1378   5.257   2.529   3.008  0.2111 -0.3101  0.5965
   11MOL0     C 1379   5.335   2.413   2.978  0.1168 -0.2609  0.1495
   11MOL0     C 1380   5.478   2.467   2.946  0.7977 -0.3055  0.8704
   11MOL0     C 1381   5.593   2.367   2.916 -0.3047  0.5465  0.2557
   11MOL0     C 1382   5.734   2.428   2.912  0.7761 -0.0121 -0.5615
   11MOL0     C 1383   5.839   2.332   2.955  0.5513 -0.0948  0.0066
   11MOL0     C 1384   5.927   2.251   2.992  0.5852  0.0746  0.4532
   11MOL0     C 1385   5.031   2.437   2.958 -0.1792  0.7892 -0.3377
   11MOL0     C 1386   4.894   2.462   2.953  0.1362  0.3801 -0.8652
   11MOL0     H 1387   4.418   2.599   3.146  2.2278  0.8041 -0.5027
   11MOL0     H 1388   4.209   2.687   3.085  2.1231  3.8052 -0.3420
   11MOL0     H 1389   4.034   2.763   2.990 -0.8132  0.3403  0.2876
   11MOL0     H 1390   3.979   2.610   2.956  2.9669 -1.3431  0.9265
   11MOL0     H 1391   3.927   2.868   2.791 -0.1631 -1.5574 -1.2331
   11MOL0     H 1392   3.804   2.791   2.902 -1.3592  0.7688 -0.5541
   11MOL0     H 1393   3.792   2.614   2.725  2.8572 -1.6695 -0.1057
   11MOL0     H 1394   3.923   2.682   2.633 -1.3127  1.3084 -1.9335
   11MOL0     H 1395   3.655   2.820   2.670 -0.3125  1.9232  0.0921
   11MOL0     H 1396   3.810   2.892   2.599  1.7413 -0.9886 -0.8319
   11MOL0     H 1397   3.631   2.646   2.527 -0.0524  1.4910  1.5535
   11MOL0     H 1398   3.781   2.683   2.438  0.9295 -1.3911  0.2958
   11MOL0     H 1399   3.699   2.875   2.328 -1.8545  1.3939 -0.6846
   11MOL0     H 1400   3.560   2.890   2.429  0.2822 -0.6825  3.1173
   11MOL0     H 1401   3.525   2.770   2.191  1.9924 -1.0466 -1.2885
   11MOL0     H 1402   3.555   2.624   2.298  3.1192  1.7631 -1.4163
   11MOL0     H 1403   3.368   2.844   2.379 -2.6476 -0.5709  1.6597
   11MOL0     H 1404   3.369   2.682   2.438 -0.4056 -1.1259 -0.5609
   11MOL0     H 1405   3.340   2.495   2.201  1.3017  0.7250  0.5035
   11MOL0     H 1406   3.069   2.404   2.187 -3.1638 -0.0639 -0.8672
   11MOL0     H 1407   3.125   2.392   2.020  2.9118  0.7180  1.5469
   11MOL0     H 1408   2.902   2.392   1.992  0.1152 -0.0175 -1.7655
   11MOL0     H 1409   2.920   2.570   1.996  2.1693 -0.5325 -1.4245
   11MOL0     H 1410   2.880   2.536   2.262 -0.2463  1.9095 -0.2364
   11MOL0     H 1411   2.736   2.515   2.154 -0.0035 -0.9464 -0.0964
   11MOL0     H 1412   2.899   2.304   2.310 -0.9889  0.2405  1.9540
   11MOL0     H 1413   2.778   2.257   2.187 -1.7519  0.2285  1.4816
   11MOL0     H 1414   2.582   2.283   2.149 -0.2254  0.2119 -0.6815
   11MOL0     H 1415   2.345   2.295   2.124 -1.7336  2.9185 -0.3584
   11MOL0     H 1416   1.937   2.596   2.180 -0.5205 -0.4271  1.6248
   11MOL0     H 1417   1.689   2.583   2.172 -0.4648  0.9657  2.1777
   11MOL0     H 1418   1.464   2.180   2.225 -1.4223  0.4390 -0.5760
   11MOL0     H 1419   1.519   2.224   2.063  3.1090  0.0366  1.4674
   11MOL0     H 1420   1.293   2.283   2.021  2.1375  0.0496 -0.6186
   11MOL0     H 1421   1.331   2.429   2.120 -0.5539  0.3520  0.5657
   11MOL0     H 1422   1.256   2.292   2.320 -0.7177 -1.0550  0.0895
   11MOL0     H 1423   1.201   2.169   2.202  1.9053 -0.4297  1.3018
   11MOL0     H 1424   1.123   2.470   2.207 -0.1046  0.0870 -2.3687
   11MOL0     H 1425   1.038   2.350   2.124 -0.3788  1.3049  0.5259
   11MOL0     H 1426   1.061   2.327   2.418 -3.2666  0.1405  1.6543
   11MOL0     H 1427   0.955   2.237   2.314 -0.0449 -0.3457  1.0130
   11MOL0     H 1428   0.853   2.480   2.256 -1.0047  1.5801  1.2178
   11MOL0     H 1429   0.924   2.523   2.407  0.4768 -0.2366 -0.0772
   11MOL0     H 1430   0.767   2.268   2.394  0.7927 -0.9567  1.6509
   11MOL0     H 1431   0.821   2.368   2.527  3.4922 -1.1931 -0.9010
   11MOL0     H 1432   0.567   2.402   2.460  1.0241 -2.7231 -1.4179
   11MOL0     H 1433   0.613   2.436   2.303 -4.6289 -3.8429  1.3755
   11MOL0     H 1434   1.694   2.170   2.229  1.0986 -1.1465 -0.5641
   11MOL0     H 1435   1.939   2.163   2.230 -0.6723 -0.6161  0.2401
   11MOL0     H 1436   2.318   2.435   2.536  0.5606  1.1514  0.6842
   11MOL0     H 1437   2.572   2.472   2.528 -1.7593 -0.3295 -0.6298
   11MOL0     H 1438   4.283   2.606   2.672 -4.8076 -1.2046  0.9144
   11MOL0     H 1439   4.535   2.531   2.743 -0.4366 -2.3359 -0.3124
   11MOL0     H 1440   4.903   2.793   3.036 -1.1705  0.2288 -0.6395
   11MOL0     H 1441   5.138   2.744   3.055 -0.0806 -0.1153 -1.0329
   11MOL0     H 1442   5.291   2.374   2.885 -3.6513  0.1266  1.6159
   11MOL0     H 1443   5.335   2.345   3.063 -1.8816 -0.3677  0.0918
   11MOL0     H 1444   5.470   2.539   2.864  3.5992 -1.9957 -1.0690
   11MOL0     H 1445   5.506   2.525   3.035  0.4536  2.4825 -0.7113
   11MOL0     H 1446   5.571   2.322   2.818 -3.1863  1.0004  0.6157
   11MOL0     H 1447   5.578   2.291   2.993 -2.5271 -0.4300 -1.0217
   11MOL0     H 1448   5.761   2.462   2.811 -0.5000  0.4407 -0.7583
   11MOL0     H 1449   5.729   2.514   2.979 -2.7214  0.4393 -1.2326
   11MOL0     H 1450   5.991   2.177   3.035 -1.4622 -1.4005  1.0967
   11MOL0     H 1451   5.057   2.336   2.930 -2.7466  1.2901 -5.7962
   11MOL0     H 1452   4.832   2.377   2.925  0.6663 -0.1462 -0.4687
   12MOL0     O 1453   7.161   5.096   8.572  0.0843 -0.6662 -0.3647
   12MOL0     C 1454   7.189   5.041   8.676  0.4816  0.4105  0.1821
   12MOL0     O 1455   7.102   5.021   8.778 -0.5705  0.4930  0.1776
   12MOL0     C 1456   6.970   5.037   8.747  0.4568  0.0433 -0.8573
   12MOL0     C 1457   6.903   4.949   8.666 -0.4581 -0.0259 -0.5926
   12MOL0     C 1458   6.771   4.971   8.633 -0.3742  0.7963  0.7886
   12MOL0     C 1459   6.695   5.082   8.679 -0.0016  0.1761  0.1717
   12MOL0     O 1460   6.568   5.107   8.639  0.0289  0.1465  0.7700
   12MOL0     C 1461   6.520   5.035   8.523  0.4051  1.3497  0.0606
   12MOL0     C 1462   6.364   5.054   8.512 -0.3570  1.0555 -0.3979
   12MOL0     C 1463   6.320   4.958   8.396  0.2546  0.1862 -0.6224
   12MOL0     C 1464   6.164   4.961   8.372 -0.3328 -0.0684 -0.2384
   12MOL0     C 1465   6.131   4.867   8.253 -0.4526  0.4656 -0.2686
   12MOL0     C 1466   5.985   4.849   8.234 -0.7984 -0.3464 -0.8146
   12MOL0     C 1467   5.948   4.725   8.158 -0.0838 -0.3902  0.0063
   12MOL0     C 1468   5.815   4.743   8.076 -0.2441 -0.6678  0.0159
   12MOL0     N 1469   5.691   4.760   8.151  0.4054  0.6156 -0.1732
   12MOL0     C 1470   5.659   4.698   8.271  0.9636  0.1425 -0.7608
   12MOL0     C 1471   5.544   4.758   8.311  0.2167  0.1565  0.0026
   12MOL0     C 1472   5.465   4.722   8.434  0.8810  0.1615 -0.3260
   12MOL0     C 1473   5.328   4.650   8.397 -0.5041 -0.0556 -0.2147
   12MOL0     C 1474   5.355   4.497   8.371 -1.2749 -0.0048 -0.8657
   12MOL0     C 1475   5.237   4.429   8.292  0.4586  0.1265 -0.1653
   12MOL0     O 1476   5.274   4.294   8.248 -0.0506  0.0956 -0.2560
   12MOL0     C 1477   5.180   4.204   8.217 -0.4770  0.1378 -0.1921
   12MOL0     C 1478   5.055   4.202   8.277  0.0813  0.3251  0.0321
   12MOL0     C 1479   4.970   4.085   8.249  0.0753 -0.3458 -0.0494
   12MOL0     C 1480   5.004   3.989   8.144  0.1586  0.5665  0.8373
   12MOL0     C 1481   4.917   3.875   8.109  0.2816 -0.6647  1.1661
   12MOL0     O 1482   4.956   3.802   8.002 -0.2900 -0.3419 -0.2265
   12MOL0     C 1483   4.879   3.699   7.958 -0.2864  0.4463  0.4029
   12MOL0     C 1484   4.812   3.603   8.031 -1.1150  0.4786 -1.0926
   12MOL0     C 1485   4.753   3.493   7.972 -0.1910 -0.0078  0.3166
   12MOL0     C 1486   4.746   3.479   7.828 -0.2735  0.0476  0.0886
   12MOL0     O 1487   4.682   3.378   7.761 -0.1365  0.2884 -0.9126
   12MOL0     C 1488   4.665   3.252   7.821  0.1980  0.4925 -0.3154
   12MOL0     C 1489   4.561   3.176   7.728  0.2503  0.0204  0.0107
   12MOL0     C 1490   4.427   3.255   7.722 -0.2203  0.1632  0.4712
   12MOL0     C 1491   4.338   3.203   7.612  0.1784  0.0957  0.4688
   12MOL0     C 1492   4.291   3.064   7.632  0.5358 -0.0444 -0.4102
   12MOL0     C 1493   4.173   3.020   7.551  0.2861 -0.8070 -0.1983
   12MOL0     C 1494   4.046   3.060   7.638 -0.3964 -0.2857 -0.9998
   12MOL0     C 1495   3.915   3.015   7.592  0.2061 -0.0439  0.3679
   12MOL0    Cl 1496   3.883   3.089   7.436  0.2330  0.0887  0.1717
   12MOL0     C 1497   4.804   3.578   7.756  0.3475 -0.1672 -0.1485
   12MOL0     C 1498   4.868   3.680   7.824  0.4253 -0.0995 -0.2387
   12MOL0     O 1499   4.810   3.858   8.174 -0.4946  0.5134 -0.1743
   12MOL0     C 1500   5.134   4.011   8.080 -0.2505  0.2137  0.3833
   12MOL0     C 1501   5.222   4.110   8.122  0.7997  0.3112  1.3311
   12MOL0     N 1502   5.511   4.861   8.220 -0.3139  0.0015 -0.0402
   12MOL0     N 1503   5.592   4.849   8.119  0.2817  0.7846 -0.0098
   12MOL0     C 1504   6.769   5.171   8.766  0.1786  0.0709  0.5637
   12MOL0     C 1505   6.899   5.148   8.795 -0.5260  0.3081 -0.5402
   12MOL0     C 1506   7.323   4.985   8.694  0.1433  0.2376 -0.6816
   12MOL0     C 1507   7.431   5.042   8.628  0.4756  0.2879 -0.3514
   12MOL0     C 1508   7.554   4.980   8.648 -0.8578 -0.1396  0.0480
   12MOL0     C 1509   7.581   4.864   8.715 -0.2446  0.1807  0.9184
   12MOL0     O 1510   7.710   4.806   8.717  0.9225  0.7074 -0.0355
   12MOL0     C 1511   7.707   4.664   8.702 -0.0440  0.3939  0.2281
   12MOL0     C 1512   7.847   4.612   8.660  0.2295  0.0651  0.5188
   12MOL0     C 1513   7.953   4.635   8.768 -0.0908 -0.0215  1.0255
   12MOL0     C 1514   8.094   4.610   8.706 -1.0116 -0.0301  0.1601
   12MOL0     C 1515   8.203   4.670   8.776  0.1967 -0.1589 -0.7453
   12MOL0     C 1516   8.297   4.717   8.841  0.6679 -0.1378  0.1443
   12MOL0     C 1517   7.475   4.804   8.787  0.1000  0.1383  0.3259
   12MOL0     C 1518   7.350   4.872   8.783  0.9712  0.2580  1.1566
   12MOL0     H 1519   6.945   4.854   8.634  0.4325 -0.2195  0.9924
   12MOL0     H 1520   6.725   4.908   8.557 -0.7089  1.2342  0.6243
   12MOL0     H 1521   6.527   4.927   8.538  2.6019  1.4694  0.2120
   12MOL0     H 1522   6.562   5.067   8.428  0.9193 -0.5029 -0.3823
   12MOL0     H 1523   6.337   5.154   8.477  0.9373  1.1704 -1.1117
   12MOL0     H 1524   6.303   5.030   8.600 -1.9777  0.9797 -1.5091
   12MOL0     H 1525   6.362   4.858   8.409 -0.7719 -0.6565 -3.3336
   12MOL0     H 1526   6.373   4.996   8.308  2.6605  1.6097  1.2972
   12MOL0     H 1527   6.117   4.930   8.466 -0.9838 -1.6980 -1.0760
   12MOL0     H 1528   6.129   5.064   8.359  0.2346  0.2114  0.3812
   12MOL0     H 1529   6.182   4.772   8.269  1.3659  1.5583  0.7485
   12MOL0     H 1530   6.162   4.911   8.157 -2.9621  2.6188 -0.2100
   12MOL0     H 1531   5.949   4.930   8.171  0.3330 -0.3316 -1.4536
   12MOL0     H 1532   5.929   4.862   8.328 -1.2943  1.7577 -1.3470
   12MOL0     H 1533   6.028   4.703   8.087 -1.2767 -2.4829 -0.7652
   12MOL0     H 1534   5.945   4.634   8.217 -2.0841 -1.5663 -1.7795
   12MOL0     H 1535   5.797   4.652   8.019  0.3260 -0.0562 -1.1799
   12MOL0     H 1536   5.820   4.829   8.008 -2.1993  1.2947  2.1242
   12MOL0     H 1537   5.704   4.617   8.328  1.1081  3.0090  3.7300
   12MOL0     H 1538   5.448   4.814   8.491 -1.6222 -1.4089  1.6871
   12MOL0     H 1539   5.521   4.662   8.506 -0.6774 -1.5138 -0.4423
   12MOL0     H 1540   5.307   4.690   8.297  2.2207  2.0567 -0.0723
   12MOL0     H 1541   5.247   4.669   8.467 -0.9338 -0.3148 -0.6314
   12MOL0     H 1542   5.445   4.483   8.310 -1.1729 -2.2901 -0.2885
   12MOL0     H 1543   5.371   4.449   8.468  1.4976  3.4487  0.5805
   12MOL0     H 1544   5.217   4.487   8.202  1.4658 -0.4622 -0.7880
   12MOL0     H 1545   5.152   4.419   8.360  1.6066  0.0338  1.3185
   12MOL0     H 1546   5.013   4.276   8.344  1.5354  1.3099 -0.1066
   12MOL0     H 1547   4.870   4.099   8.288 -0.1178 -1.4287 -0.1330
   12MOL0     H 1548   4.802   3.615   8.139 -1.8961  0.4348 -1.1511
   12MOL0     H 1549   4.710   3.418   8.038 -0.0961 -0.0213  0.3632
   12MOL0     H 1550   4.635   3.260   7.926  0.7618  3.7375 -0.2834
   12MOL0     H 1551   4.761   3.200   7.818  1.5737  2.7218  1.4955
   12MOL0     H 1552   4.537   3.075   7.762 -2.9536  0.6530 -0.1157
   12MOL0     H 1553   4.602   3.162   7.627 -6.0275  0.1685 -3.0560
   12MOL0     H 1554   4.442   3.363   7.711 -0.7004  0.2528  0.6795
   12MOL0     H 1555   4.371   3.238   7.814  0.1932 -2.3695  0.3245
   12MOL0     H 1556   4.247   3.262   7.599  0.2253 -0.0307 -0.5284
   12MOL0     H 1557   4.390   3.217   7.517  0.9142  2.7275  1.1815
   12MOL0     H 1558   4.265   3.047   7.737  1.9339  1.8052  0.2848
   12MOL0     H 1559   4.372   2.994   7.606 -2.4710 -3.2093 -2.0314
   12MOL0     H 1560   4.182   2.911   7.548  0.7996 -0.7551 -0.8278
   12MOL0     H 1561   4.173   3.065   7.452 -1.8141  0.0293  0.1315
   12MOL0     H 1562   4.064   3.018   7.737  0.3839 -0.0001 -1.0121
   12MOL0     H 1563   4.056   3.169   7.644  2.2091 -0.4264 -1.4880
   12MOL0     H 1564   3.837   3.047   7.662  1.3721  1.6299  0.9532
   12MOL0     H 1565   3.913   2.906   7.587  2.3930 -0.2554  2.3618
   12MOL0     H 1566   4.796   3.574   7.648 -0.7054  1.3374 -0.1586
   12MOL0     H 1567   4.915   3.757   7.764  0.4463 -1.3303 -1.8962
   12MOL0     H 1568   5.185   3.945   8.011 -0.6891 -0.1525  0.4100
   12MOL0     H 1569   5.323   4.107   8.082  0.4674  4.1305 -0.2554
   12MOL0     H 1570   6.712   5.254   8.806  0.6727  0.0605  1.3077
   12MOL0     H 1571   6.956   5.206   8.867 -0.4237 -2.7122  2.0797
   12MOL0     H 1572   7.426   5.121   8.554 -0.0916 -0.0007 -0.6280
   12MOL0     H 1573   7.642   5.015   8.595 -0.8523 -2.0354 -1.2769
   12MOL0     H 1574   7.633   4.642   8.624 -1.5054  3.5519  0.5405
   12MOL0     H 1575   7.672   4.618   8.795 -0.0911 -0.5939 -0.2655
   12MOL0     H 1576   7.831   4.508   8.629  0.2923 -0.3234  1.7339
   12MOL0     H 1577   7.869   4.673   8.572  0.3207  0.7624  1.0229
   12MOL0     H 1578   7.931   4.562   8.847 -2.3521 -0.1166  0.3720
   12MOL0     H 1579   7.952   4.740   8.798  1.1293  1.3289 -2.9835
   12MOL0     H 1580   8.107   4.501   8.709  0.0250  0.0115 -1.5620
   12MOL0     H 1581   8.096   4.640   8.601  1.0749 -3.4478 -0.9462
   12MOL0     H 1582   8.371   4.763   8.902  0.5376 -0.6833  0.7225
   12MOL0     H 1583   7.483   4.707   8.835  1.6598 -0.2424 -0.6213
   12MOL0     H 1584   7.260   4.827   8.825  2.4053 -1.3491  2.6268
   13MOL0     O 1585   1.644   9.859   7.102  0.6349 -0.2167  0.1689
   13MOL0     C 1586   1.670   9.972   7.143  0.1848 -0.0672 -0.1509
   13MOL0     O 1587   1.581  10.046   7.213  0.1642 -0.5387 -0.1847
   13MOL0     C 1588   1.463   9.984   7.251 -1.5569 -0.6151 -0.5455
   13MOL0     C 1589   1.444   9.959   7.390  0.1608 -0.1700 -0.2354
   13MOL0     C 1590   1.319   9.904   7.440  0.1461 -0.8899  0.3703
   13MOL0     C 1591   1.225   9.849   7.349  0.7466  0.5142  1.1225
   13MOL0     O 1592   1.106   9.800   7.405 -0.1105  0.4278 -0.0914
   13MOL0     C 1593   0.980   9.806   7.331 -0.1403 -0.4571  0.1804
   13MOL0     C 1594   0.851   9.794   7.416 -0.6193 -0.7566 -0.5833
   13MOL0     C 1595   0.723   9.762   7.334 -0.3743 -0.6974  0.3549
   13MOL0     C 1596   0.595   9.740   7.415 -0.4596 -0.3860 -0.1392
   13MOL0     C 1597   0.457   9.759   7.345 -0.0315  0.0483  0.1569
   13MOL0     C 1598   0.330   9.741   7.432 -0.7923 -0.2754 -0.0920
   13MOL0     C 1599   0.209   9.731   7.339  0.5960  0.3855 -0.2789
   13MOL0     C 1600   0.081   9.723   7.420  0.2657 -0.2673 -0.5466
   13MOL0     N 1601   0.072   9.844   7.501  0.3020  0.5040 -0.3606
   13MOL0     C 1602   0.022   9.962   7.438 -0.9526 -0.1351 -0.1810
   13MOL0     C 1603  -0.002  10.042   7.545  0.3102 -0.7410 -0.0306
   13MOL0     C 1604  -0.074  10.184   7.543 -0.1255  0.6405  0.2253
   13MOL0     C 1605  -0.225  10.160   7.552  0.0454 -0.4501  0.5057
   13MOL0     C 1606  -0.278  10.081   7.673  0.0944 -0.8495 -0.4205
   13MOL0     C 1607  -0.418  10.117   7.715  1.0364 -1.0167  0.3615
   13MOL0     O 1608  -0.462  10.032   7.830 -0.1592 -0.2860 -0.1252
   13MOL0     C 1609  -0.599  10.053   7.856 -0.4392  0.4692  0.4538
   13MOL0     C 1610  -0.688   9.952   7.874 -0.5491 -0.4439  0.3996
   13MOL0     C 1611  -0.823   9.968   7.884  0.2574 -0.4375  0.9742
   13MOL0     C 1612  -0.880  10.099   7.905  0.6617  1.0810 -0.4521
   13MOL0     C 1613  -1.020  10.104   7.942 -0.9734 -0.3518 -0.1866
   13MOL0     O 1614  -1.050  10.225   7.999 -0.0461  0.2001  0.0700
   13MOL0     C 1615  -1.177  10.259   8.049 -0.0599  0.9774 -0.9049
   13MOL0     C 1616  -1.215  10.393   8.031  0.6402  0.9250 -0.1977
   13MOL0     C 1617  -1.346  10.431   8.064  0.6348 -0.4977 -0.1618
   13MOL0     C 1618  -1.439  10.335   8.113  0.1851  0.1744 -0.5580
   13MOL0     O 1619  -1.563  10.388   8.139  0.0807 -0.3028  0.0988
   13MOL0     C 1620  -1.664  10.298   8.189 -0.6464  0.9606 -0.5202
   13MOL0     C 1621  -1.812  10.346   8.170 -0.6490 -0.4641 -0.0236
   13MOL0     C 1622  -1.897  10.319   8.297 -0.1988 -0.5274  0.1407
   13MOL0     C 1623  -1.882  10.434   8.398  0.9331  0.0151 -0.6199
   13MOL0     C 1624  -2.006  10.425   8.496  0.0683  0.2455  0.2104
   13MOL0     C 1625  -2.001  10.517   8.608  0.5836  0.0436  0.0089
   13MOL0     C 1626  -2.126  10.499   8.689  0.3537  0.2645  0.7956
   13MOL0     C 1627  -2.143  10.625   8.789 -0.9063 -0.5831  0.0886
   13MOL0    Cl 1628  -2.274  10.590   8.897 -0.2182  0.1588  0.2494
   13MOL0     C 1629  -1.394  10.203   8.123  0.2911 -0.1274  0.1545
   13MOL0     C 1630  -1.264  10.164   8.092  0.6623  0.2242  0.0502
   13MOL0     O 1631  -1.097  10.019   7.928  0.7010 -0.3338 -0.5445
   13MOL0     C 1632  -0.788  10.199   7.928 -0.0406 -0.9317  0.0545
   13MOL0     C 1633  -0.648  10.180   7.897  0.1859  0.2437 -0.6672
   13MOL0     N 1634   0.025   9.968   7.662  0.5252  0.0511 -0.4001
   13MOL0     N 1635   0.077   9.854   7.634  0.2445 -0.9390 -0.7421
   13MOL0     C 1636   1.243   9.871   7.206 -0.6260 -0.2358  0.5348
   13MOL0     C 1637   1.357   9.941   7.161 -0.4571  0.4228  0.5342
   13MOL0     C 1638   1.798  10.043   7.103 -0.0802 -0.0776  0.9565
   13MOL0     C 1639   1.890   9.980   7.023 -0.1646  0.4819 -1.4644
   13MOL0     C 1640   1.999  10.055   6.971  0.4206 -0.1244  0.4133
   13MOL0     C 1641   2.024  10.190   6.998 -0.3126  0.4046 -0.4464
   13MOL0     O 1642   2.145  10.253   6.965 -0.2183  0.1486 -0.8992
   13MOL0     C 1643   2.187  10.384   7.020 -0.5301 -0.1953  0.6594
   13MOL0     C 1644   2.130  10.499   6.931 -0.9239  0.8568  0.5132
   13MOL0     C 1645   2.220  10.522   6.804  0.3559 -0.5963  0.2169
   13MOL0     C 1646   2.176  10.619   6.706  0.1345  1.1705 -0.5629
   13MOL0     C 1647   2.040  10.579   6.655 -0.1197  0.6729 -0.2593
   13MOL0     C 1648   1.947  10.514   6.610  0.5762 -0.2912 -0.2661
   13MOL0     C 1649   1.927  10.252   7.082 -0.6503  0.2830  0.1064
   13MOL0     C 1650   1.820  10.178   7.132  0.4766  0.2642 -0.0753
   13MOL0     H 1651   1.512  10.006   7.460 -1.4513 -1.3152  2.2367
   13MOL0     H 1652   1.297   9.902   7.547  0.0948 -2.3693  0.3525
   13MOL0     H 1653   0.987   9.727   7.256 -1.2349 -1.6517  1.2822
   13MOL0     H 1654   0.982   9.902   7.279  1.8078  0.0772  1.1443
   13MOL0     H 1655   0.830   9.892   7.461  1.1823 -0.1809 -0.9203
   13MOL0     H 1656   0.862   9.724   7.499  0.0981 -1.2459 -1.0826
   13MOL0     H 1657   0.753   9.663   7.297  2.1015  0.3419 -0.6444
   13MOL0     H 1658   0.710   9.840   7.259 -1.3941  0.1961  1.4339
   13MOL0     H 1659   0.602   9.640   7.459 -1.3583 -0.2080  0.4328
   13MOL0     H 1660   0.598   9.809   7.500 -1.4250  0.6859 -0.9561
   13MOL0     H 1661   0.446   9.696   7.257  1.9331  0.3620 -0.3603
   13MOL0     H 1662   0.453   9.860   7.304 -0.3444  0.1008  0.3147
   13MOL0     H 1663   0.323   9.822   7.505  2.5333 -0.2758  0.4009
   13MOL0     H 1664   0.343   9.645   7.482 -1.8847 -1.0823 -1.2953
   13MOL0     H 1665   0.201   9.824   7.281  2.1103  0.4236 -0.4731
   13MOL0     H 1666   0.206   9.654   7.262  2.6761  1.4720 -1.5605
   13MOL0     H 1667   0.087   9.632   7.480 -1.7462  0.6505  1.1642
   13MOL0     H 1668  -0.005   9.710   7.354 -0.2189 -5.5983  0.6923
   13MOL0     H 1669  -0.001   9.987   7.335  1.4136 -0.3475 -0.8183
   13MOL0     H 1670  -0.042  10.238   7.454  2.0622  1.9829  1.7477
   13MOL0     H 1671  -0.033  10.241   7.626 -1.7056 -1.3495  2.5243
   13MOL0     H 1672  -0.256  10.118   7.456 -1.7713 -0.6102  1.1136
   13MOL0     H 1673  -0.259  10.262   7.569  0.6412 -0.6585  3.5567
   13MOL0     H 1674  -0.270   9.973   7.662  1.2915 -1.1419  2.3365
   13MOL0     H 1675  -0.225  10.103   7.767  0.0212  3.0614 -1.1270
   13MOL0     H 1676  -0.489  10.105   7.633 -2.4516 -0.4817  3.0879
   13MOL0     H 1677  -0.418  10.224   7.739  0.4810 -0.4935 -1.7685
   13MOL0     H 1678  -0.654   9.850   7.862 -1.1463 -0.6228  0.1682
   13MOL0     H 1679  -0.885   9.879   7.876 -0.6670  0.2255  0.5321
   13MOL0     H 1680  -1.164  10.481   7.992 -1.6335  3.4721  2.0735
   13MOL0     H 1681  -1.368  10.537   8.062  2.9007 -0.0019 -1.6365
   13MOL0     H 1682  -1.653  10.296   8.298 -0.7148 -1.4152 -0.5059
   13MOL0     H 1683  -1.660  10.193   8.158 -1.8688  0.5392  0.6323
   13MOL0     H 1684  -1.843  10.287   8.084  1.1258  0.4435 -1.3515
   13MOL0     H 1685  -1.809  10.449   8.135  1.8390 -0.1857  0.8268
   13MOL0     H 1686  -1.860  10.227   8.344 -0.7394 -0.1814  1.2801
   13MOL0     H 1687  -2.001  10.320   8.263  0.7899  0.5160 -3.2705
   13MOL0     H 1688  -1.791  10.414   8.456  0.5506  1.6769  0.6336
   13MOL0     H 1689  -1.885  10.531   8.348 -1.5657 -0.5591 -1.7383
   13MOL0     H 1690  -2.003  10.323   8.536 -0.8630  0.2387  0.2814
   13MOL0     H 1691  -2.099  10.444   8.442  0.4709  1.6568 -0.0376
   13MOL0     H 1692  -2.004  10.622   8.579  1.8530 -0.0432 -0.5151
   13MOL0     H 1693  -1.917  10.490   8.672 -0.7869  1.2868  2.4507
   13MOL0     H 1694  -2.213  10.487   8.624  0.8721 -1.5238  0.3796
   13MOL0     H 1695  -2.130  10.404   8.743  1.1319 -0.5797 -0.6067
   13MOL0     H 1696  -2.158  10.713   8.727 -2.0806 -1.7880 -1.4123
   13MOL0     H 1697  -2.052  10.638   8.849 -1.7346 -0.1823  1.2709
   13MOL0     H 1698  -1.455  10.126   8.168 -0.6916  1.5848  1.8958
   13MOL0     H 1699  -1.242  10.059   8.110 -3.5406 -0.6081  1.2329
   13MOL0     H 1700  -0.811  10.293   7.977 -0.8443 -1.2789  0.3716
   13MOL0     H 1701  -0.570  10.255   7.902 -0.5319  0.9516  3.5464
   13MOL0     H 1702   1.171   9.852   7.127  0.5600  2.0168 -1.1928
   13MOL0     H 1703   1.363   9.963   7.055  0.6870  1.0631  0.7209
   13MOL0     H 1704   1.879   9.878   6.988 -0.3750 -0.1973  0.4659
   13MOL0     H 1705   2.064  10.000   6.904  0.3518  0.0293  0.2190
   13MOL0     H 1706   2.296  10.385   7.009 -0.5341  1.9413  0.4434
   13MOL0     H 1707   2.151  10.397   7.122  0.0459  0.1960  0.8173
   13MOL0     H 1708   2.030  10.469   6.897 -0.9656  0.8112  0.6781
   13MOL0     H 1709   2.122  10.594   6.985  0.9536  1.2835  0.1141
   13MOL0     H 1710   2.231  10.423   6.759 -3.4611 -0.6821 -0.8762
   13MOL0     H 1711   2.312  10.567   6.842  0.6853 -1.1443  0.0736
   13MOL0     H 1712   2.158  10.710   6.764  3.0526  1.0147  0.7632
   13MOL0     H 1713   2.252  10.641   6.630  0.5032 -0.3899 -0.6642
   13MOL0     H 1714   1.858  10.473   6.567  1.1276 -1.1992 -0.5835
   13MOL0     H 1715   1.936  10.359   7.099 -0.8587  0.7208 -2.1467
   13MOL0     H 1716   1.743  10.233   7.186 -2.3123 -1.1337 -2.3897
   14MOL0     O 1717   4.544   0.127   0.186 -0.5659  0.2333 -0.6114
   14MOL0     C 1718   4.575   0.016   0.221  0.0533 -0.2469 -0.3420
   14MOL0     O 1719   4.501  -0.068   0.304 -0.2255 -0.7928 -0.0755
   14MOL0     C 1720   4.380  -0.025   0.365 -0.2184  0.2231  1.0004
   14MOL0     C 1721   4.314   0.101   0.357  0.2313 -0.7272 -0.2181
   14MOL0     C 1722   4.206   0.126   0.442 -0.0956  0.7057  0.3683
   14MOL0     C 1723   4.155   0.028   0.529  0.6563 -0.5788 -0.6313
   14MOL0     O 1724   4.056   0.056   0.620 -0.1557 -0.0770  0.3450
   14MOL0     C 1725   3.929   0.101   0.566  0.3567 -0.5327 -0.4565
   14MOL0     C 1726   3.828   0.156   0.667 -0.8793  0.1402  0.0619
   14MOL0     C 1727   3.895   0.275   0.734 -0.1620  0.1955 -0.9528
   14MOL0     C 1728   3.802   0.360   0.820 -0.2425  0.1675 -0.0827
   14MOL0     C 1729   3.698   0.447   0.733 -0.0708  0.0842  0.1552
   14MOL0     C 1730   3.587   0.502   0.814 -0.6895  0.0203 -0.0167
   14MOL0     C 1731   3.472   0.530   0.725  0.6068  0.2420  0.1794
   14MOL0     C 1732   3.356   0.628   0.757 -0.4245  0.2739 -0.1100
   14MOL0     N 1733   3.411   0.763   0.774  0.3665  0.2664  0.3802
   14MOL0     C 1734   3.409   0.834   0.885 -0.0255 -0.1997  0.2161
   14MOL0     C 1735   3.495   0.935   0.871 -0.5586 -0.8874 -0.3398
   14MOL0     C 1736   3.538   1.040   0.975 -0.0869  0.0690 -0.4923
   14MOL0     C 1737   3.421   1.137   1.009  0.2643  0.1868 -0.0590
   14MOL0     C 1738   3.320   1.168   0.902 -0.6866  0.1879  0.7838
   14MOL0     C 1739   3.220   1.268   0.960 -0.0523  0.1059 -0.9375
   14MOL0     O 1740   3.150   1.218   1.075 -0.4588  0.1456 -0.2227
   14MOL0     C 1741   3.018   1.182   1.065  0.5293  0.3190  0.3597
   14MOL0     C 1742   2.969   1.140   0.939  0.1729 -0.2499 -0.1879
   14MOL0     C 1743   2.830   1.116   0.918  0.2560 -0.1862 -0.2273
   14MOL0     C 1744   2.739   1.136   1.027 -0.9241  0.2406 -0.7356
   14MOL0     C 1745   2.599   1.115   0.999 -0.2330  0.2297  0.5585
   14MOL0     O 1746   2.520   1.125   1.099  0.0989  0.7414  1.0280
   14MOL0     C 1747   2.393   1.078   1.089  0.3891 -0.5759  0.4407
   14MOL0     C 1748   2.298   1.166   1.042  0.4008 -0.8198  0.0982
   14MOL0     C 1749   2.154   1.135   1.037 -0.7133 -0.4149 -0.3035
   14MOL0     C 1750   2.119   1.020   1.093  0.6568 -0.0234 -1.7815
   14MOL0     O 1751   1.982   1.004   1.089 -0.1984 -0.3312 -0.8854
   14MOL0     C 1752   1.907   0.919   1.183  0.0067 -0.2226  0.9786
   14MOL0     C 1753   1.934   0.972   1.328  0.5566  1.2813  0.4500
   14MOL0     C 1754   1.836   0.888   1.417  0.9542  0.1011  0.1278
   14MOL0     C 1755   1.836   0.937   1.567  0.3218 -0.2891 -0.5886
   14MOL0     C 1756   1.976   0.963   1.641 -0.3794 -0.5870  0.4710
   14MOL0     C 1757   2.083   0.858   1.620 -0.0806  0.2330 -0.3896
   14MOL0     C 1758   2.205   0.895   1.692 -0.5143  0.1887  0.9578
   14MOL0     C 1759   2.331   0.816   1.652  0.0652  1.1455  0.1576
   14MOL0    Cl 1760   2.374   0.823   1.477  0.1652 -0.4482  0.2368
   14MOL0     C 1761   2.214   0.931   1.145  0.0062  0.7737 -0.1653
   14MOL0     C 1762   2.350   0.963   1.139 -0.0038 -0.4535 -0.3754
   14MOL0     O 1763   2.559   1.086   0.885 -0.4515  0.5579 -0.2450
   14MOL0     C 1764   2.795   1.190   1.149  0.3004  0.5035 -0.4600
   14MOL0     C 1765   2.928   1.207   1.164  0.0945 -0.2396  0.1127
   14MOL0     N 1766   3.548   0.928   0.744  0.5400 -0.4196 -0.2094
   14MOL0     N 1767   3.502   0.824   0.687  0.5556  0.2313 -0.0618
   14MOL0     C 1768   4.224  -0.098   0.528 -0.5557  0.1704  0.3552
   14MOL0     C 1769   4.341  -0.123   0.460  0.0569 -0.4501  0.3182
   14MOL0     C 1770   4.708  -0.027   0.160  1.3168  0.1770 -0.2246
   14MOL0     C 1771   4.792  -0.120   0.225  0.6778 -0.6201 -0.6958
   14MOL0     C 1772   4.924  -0.143   0.181  1.1048  1.2150 -0.5699
   14MOL0     C 1773   4.967  -0.091   0.055  0.0064  0.2720  0.1661
   14MOL0     O 1774   5.093  -0.111  -0.011  0.4127  0.6519  0.4460
   14MOL0     C 1775   5.153  -0.234   0.041 -1.1130  0.1015 -0.0877
   14MOL0     C 1776   5.299  -0.235  -0.015  0.0317 -0.1427  0.3987
   14MOL0     C 1777   5.305  -0.298  -0.152  0.3886  0.3310 -0.5334
   14MOL0     C 1778   5.449  -0.330  -0.195  1.4076 -0.3759 -0.1570
   14MOL0     C 1779   5.522  -0.203  -0.206 -0.6024  0.1995 -1.0628
   14MOL0     C 1780   5.593  -0.102  -0.200  0.0573  0.2159  0.2398
   14MOL0     C 1781   4.881  -0.002  -0.010 -0.6478  0.6607  0.9295
   14MOL0     C 1782   4.758   0.032   0.039  0.5204  0.1709 -0.1994
   14MOL0     H 1783   4.343   0.181   0.290 -2.1245 -0.1004 -0.5732
   14MOL0     H 1784   4.166   0.227   0.438  1.1695  1.2128 -0.2356
   14MOL0     H 1785   3.875   0.015   0.527  0.2629 -0.0540 -1.4236
   14MOL0     H 1786   3.938   0.175   0.485 -3.4154  0.5012 -0.0972
   14MOL0     H 1787   3.812   0.075   0.739 -0.4374 -0.7491 -0.8366
   14MOL0     H 1788   3.737   0.198   0.622 -0.3718  1.7955  0.4881
   14MOL0     H 1789   3.933   0.334   0.650 -0.0244  0.0140 -1.0185
   14MOL0     H 1790   3.977   0.237   0.794 -1.7819  1.2286  2.1231
   14MOL0     H 1791   3.747   0.294   0.886 -0.5302  0.3221 -0.1654
   14MOL0     H 1792   3.869   0.427   0.875 -1.8479  0.8378  1.1242
   14MOL0     H 1793   3.648   0.383   0.659 -0.3278 -0.6821  0.9817
   14MOL0     H 1794   3.748   0.536   0.693 -0.0764  0.0967  0.1766
   14MOL0     H 1795   3.615   0.595   0.864 -1.2525  0.9623 -1.3769
   14MOL0     H 1796   3.571   0.430   0.895  0.1846  2.3815  2.3801
   14MOL0     H 1797   3.507   0.567   0.628 -2.1842 -0.9737 -1.3957
   14MOL0     H 1798   3.424   0.433   0.710  0.5942  0.5363 -2.1646
   14MOL0     H 1799   3.299   0.610   0.849 -1.2343 -1.0465 -0.8358
   14MOL0     H 1800   3.287   0.628   0.673  2.0770 -1.8682 -2.3655
   14MOL0     H 1801   3.347   0.823   0.974 -0.1983 -2.7406 -0.1358
   14MOL0     H 1802   3.628   1.095   0.946 -0.6117  1.4761  0.3956
   14MOL0     H 1803   3.553   0.982   1.066 -1.3283 -1.6818 -1.3336
   14MOL0     H 1804   3.465   1.233   1.037  0.2229  0.4334 -0.8202
   14MOL0     H 1805   3.370   1.105   1.101  2.1571 -0.8697  0.6668
   14MOL0     H 1806   3.371   1.207   0.814 -0.9266  2.8278  1.7282
   14MOL0     H 1807   3.268   1.076   0.875 -1.6835  0.8839  0.2815
   14MOL0     H 1808   3.156   1.317   0.886  0.1445  1.6597 -0.1345
   14MOL0     H 1809   3.291   1.345   0.989 -1.1538  1.2039 -1.0509
   14MOL0     H 1810   3.031   1.126   0.851  0.3905  1.3341 -0.3105
   14MOL0     H 1811   2.796   1.081   0.822 -2.7112  1.4456  0.1007
   14MOL0     H 1812   2.339   1.257   0.999  0.9702 -0.6512  0.9813
   14MOL0     H 1813   2.083   1.209   1.002 -0.5879 -0.1973 -0.1081
   14MOL0     H 1814   1.935   0.814   1.172 -0.1021  0.0682 -4.2897
   14MOL0     H 1815   1.806   0.940   1.147  0.9739 -1.0654 -2.5875
   14MOL0     H 1816   1.898   1.075   1.324 -0.3183  0.9575 -2.1828
   14MOL0     H 1817   2.040   0.967   1.356  1.1849  2.3878 -1.5333
   14MOL0     H 1818   1.861   0.782   1.425 -1.1999 -0.3249  2.0681
   14MOL0     H 1819   1.738   0.889   1.369  1.3976 -1.9050 -0.8875
   14MOL0     H 1820   1.770   1.024   1.580 -2.6778 -2.5296  0.1857
   14MOL0     H 1821   1.793   0.853   1.623  0.6367  1.5049  2.6373
   14MOL0     H 1822   1.965   0.971   1.750 -0.0703 -1.2610  0.5540
   14MOL0     H 1823   2.020   1.058   1.609 -1.5902 -0.3231 -0.5112
   14MOL0     H 1824   2.099   0.828   1.516  1.3243  0.4972 -0.2718
   14MOL0     H 1825   2.047   0.767   1.670 -0.7717  1.8574  2.3086
   14MOL0     H 1826   2.221   1.000   1.666 -0.1549 -0.5868 -2.3748
   14MOL0     H 1827   2.182   0.888   1.799 -0.5722  0.5820  0.9721
   14MOL0     H 1828   2.313   0.714   1.688  2.7625  0.8921  1.0545
   14MOL0     H 1829   2.416   0.851   1.711 -0.4630 -1.6305  2.8291
   14MOL0     H 1830   2.176   0.842   1.195  1.7733  0.9712  1.6428
   14MOL0     H 1831   2.424   0.898   1.185 -1.0690  0.3196  2.6731
   14MOL0     H 1832   2.723   1.199   1.229 -0.1407 -2.6737 -0.3890
   14MOL0     H 1833   2.955   1.243   1.263  0.6730  0.0215 -0.1296
   14MOL0     H 1834   4.200  -0.180   0.596  0.7963 -1.5907 -1.1978
   14MOL0     H 1835   4.398  -0.212   0.485 -0.7283 -0.5905  1.7565
   14MOL0     H 1836   4.762  -0.163   0.320 -0.0094 -0.4570 -0.8318
   14MOL0     H 1837   4.982  -0.211   0.241 -0.5542  1.9198  2.0184
   14MOL0     H 1838   5.110  -0.327   0.003  0.4529 -0.0584 -1.5899
   14MOL0     H 1839   5.160  -0.234   0.150 -2.2103  0.9202 -0.0004
   14MOL0     H 1840   5.335  -0.132  -0.016  0.6448 -0.2829 -2.5981
   14MOL0     H 1841   5.358  -0.303   0.048  0.0228  1.6806  2.4964
   14MOL0     H 1842   5.266  -0.219  -0.218  1.2506  1.5860  0.4033
   14MOL0     H 1843   5.242  -0.387  -0.148  1.2831 -0.3436 -0.9912
   14MOL0     H 1844   5.507  -0.400  -0.133  2.4479  1.6903  1.3301
   14MOL0     H 1845   5.442  -0.371  -0.296 -0.0274  0.9497 -0.6365
   14MOL0     H 1846   5.656  -0.016  -0.192 -0.0496  1.0177 -4.5596
   14MOL0     H 1847   4.907   0.034  -0.109  0.8506  1.1160  1.4760
   14MOL0     H 1848   4.694   0.109  -0.003 -1.0888 -1.3310 -0.6017
   15MOL0     O 1849   9.523   8.254   1.927 -0.0984  0.1014 -0.8928
   15MOL0     C 1850   9.634   8.199   1.956  0.0643 -0.0850  0.0053
   15MOL0     O 1851   9.652   8.067   1.966  0.3376  0.6567  0.0556
   15MOL0     C 1852   9.542   7.991   1.932 -0.5961 -0.2821  0.1279
   15MOL0     C 1853   9.495   7.971   1.802 -0.5465  0.0697  0.5181
   15MOL0     C 1854   9.389   7.890   1.770  0.2357 -1.2729  0.3526
   15MOL0     C 1855   9.317   7.830   1.880  0.6961 -0.2769  0.7703
   15MOL0     O 1856   9.212   7.737   1.870  0.1570 -0.1597 -0.6366
   15MOL0     C 1857   9.138   7.726   1.746 -0.9229  0.2197 -0.1575
   15MOL0     C 1858   8.999   7.663   1.765  0.6393 -0.7830  0.5099
   15MOL0     C 1859   8.901   7.778   1.808  0.4193  0.1043 -1.0925
   15MOL0     C 1860   8.918   7.812   1.964  0.6310  1.0615  0.5890
   15MOL0     C 1861   8.807   7.915   2.004  0.2456  0.1228  0.2011
   15MOL0     C 1862   8.673   7.843   2.044 -1.3033 -0.0723 -0.2153
   15MOL0     C 1863   8.592   7.923   2.136 -0.0833 -0.1260 -0.3056
   15MOL0     C 1864   8.651   7.922   2.281 -0.6296 -0.4358 -1.8501
   15MOL0     N 1865   8.560   7.987   2.368  0.4761 -0.6383  0.7073
   15MOL0     C 1866   8.464   7.924   2.453 -0.3434 -0.4745  0.2138
   15MOL0     C 1867   8.425   8.029   2.532  0.2114  0.8140 -0.4426
   15MOL0     C 1868   8.329   8.012   2.641  0.5555 -0.0654  0.1464
   15MOL0     C 1869   8.249   8.142   2.671  0.2866 -0.0369  0.4927
   15MOL0     C 1870   8.135   8.124   2.772  0.0140 -0.5023 -0.3164
   15MOL0     C 1871   8.053   8.250   2.785 -0.4681  2.2916 -0.6955
   15MOL0     O 1872   7.923   8.205   2.804  0.1059  0.1083 -1.0231
   15MOL0     C 1873   7.831   8.298   2.852 -0.9568 -0.4935  0.2295
   15MOL0     C 1874   7.781   8.390   2.760  0.3170  0.0571 -0.0748
   15MOL0     C 1875   7.682   8.476   2.805  0.2162  0.3789  0.3807
   15MOL0     C 1876   7.631   8.475   2.940 -0.7001 -0.4276 -0.6791
   15MOL0     C 1877   7.528   8.571   2.981 -0.2198 -0.5661  0.2367
   15MOL0     O 1878   7.490   8.674   2.898 -0.0890 -0.1900  0.6276
   15MOL0     C 1879   7.384   8.746   2.922  0.1399  0.4199 -0.5334
   15MOL0     C 1880   7.375   8.886   2.907 -0.1360  0.0345 -0.1952
   15MOL0     C 1881   7.261   8.959   2.935 -0.3456  0.1081  0.9426
   15MOL0     C 1882   7.140   8.892   2.971 -0.4029  0.1365 -0.1891
   15MOL0     O 1883   7.022   8.951   2.988 -0.6187  0.4437  0.2464
   15MOL0     C 1884   7.026   9.097   2.984  0.4269 -0.9269  0.6515
   15MOL0     C 1885   6.893   9.151   3.029 -0.1742 -0.0272 -0.8373
   15MOL0     C 1886   6.764   9.073   2.991 -0.2827  0.2794 -0.9973
   15MOL0     C 1887   6.645   9.155   3.034  0.1298 -0.3124  0.2189
   15MOL0     C 1888   6.517   9.102   2.985  0.8180 -0.3687 -0.6351
   15MOL0     C 1889   6.405   9.202   3.033  0.3768 -0.5029 -0.3633
   15MOL0     C 1890   6.259   9.152   3.015 -0.6855 -0.2393 -0.3300
   15MOL0     C 1891   6.229   9.075   2.888 -0.0018 -0.3485 -0.2104
   15MOL0    Cl 1892   6.053   9.057   2.881 -0.4295  0.0902  0.6202
   15MOL0     C 1893   7.141   8.749   2.986  0.5530 -0.2561  0.2644
   15MOL0     C 1894   7.262   8.684   2.959 -0.5326  0.6338 -0.2377
   15MOL0     O 1895   7.483   8.566   3.097  0.3745 -0.4889 -0.0250
   15MOL0     C 1896   7.693   8.385   3.026 -0.7890  0.8722  0.2491
   15MOL0     C 1897   7.795   8.302   2.983  0.3471  0.2499 -0.2165
   15MOL0     N 1898   8.501   8.142   2.492 -0.8114  0.4324  0.2174
   15MOL0     N 1899   8.582   8.111   2.398 -0.4671  0.2516 -0.8763
   15MOL0     C 1900   9.373   7.847   2.006  0.6012 -0.9611 -0.0618
   15MOL0     C 1901   9.479   7.933   2.035 -0.0668  1.4440  0.1732
   15MOL0     C 1902   9.741   8.281   1.999 -0.0513 -0.0384 -0.4033
   15MOL0     C 1903   9.869   8.232   2.015 -0.0825  0.9029  1.3509
   15MOL0     C 1904   9.974   8.315   2.050  0.6051 -1.2449  0.8806
   15MOL0     C 1905   9.952   8.456   2.082 -0.3912 -0.0909  0.2958
   15MOL0     O 1906  10.046   8.541   2.113  0.0815 -0.1291  0.1800
   15MOL0     C 1907  10.171   8.514   2.046  0.2949 -0.2172  0.3766
   15MOL0     C 1908  10.271   8.437   2.126 -0.1618 -0.2462  0.8617
   15MOL0     C 1909  10.288   8.495   2.266  0.9195  0.5579 -0.1510
   15MOL0     C 1910  10.390   8.405   2.350 -0.5839 -0.3276  1.2381
   15MOL0     C 1911  10.407   8.461   2.484 -0.3512 -0.2281  0.3016
   15MOL0     C 1912  10.425   8.518   2.590 -0.3175 -0.3075 -0.7088
   15MOL0     C 1913   9.823   8.508   2.070 -0.5390  0.3754 -0.1986
   15MOL0     C 1914   9.722   8.422   2.029  0.9668 -0.1169  0.2662
   15MOL0     H 1915   9.549   8.013   1.717 -0.7770  2.2981  1.4013
   15MOL0     H 1916   9.344   7.874   1.673  0.7657 -1.3742  0.1175
   15MOL0     H 1917   9.180   7.658   1.671 -2.2225 -1.3139  0.4470
   15MOL0     H 1918   9.122   7.821   1.694 -3.6137 -1.2591 -2.2771
   15MOL0     H 1919   9.003   7.584   1.840 -0.9770 -1.1575  0.2483
   15MOL0     H 1920   8.960   7.615   1.675  0.2337  0.7318 -0.1565
   15MOL0     H 1921   8.799   7.739   1.806  0.9795 -1.8764  2.0124
   15MOL0     H 1922   8.907   7.862   1.739 -0.5315  0.5324 -0.6673
   15MOL0     H 1923   8.931   7.732   2.037  2.9581  0.2796 -0.5908
   15MOL0     H 1924   9.009   7.872   1.958  1.2055  0.0402 -3.2175
   15MOL0     H 1925   8.788   7.987   1.924  1.2120  0.0477 -0.1107
   15MOL0     H 1926   8.850   7.965   2.091 -0.7928 -0.5343  1.1190
   15MOL0     H 1927   8.688   7.748   2.096 -1.6730 -0.0387 -0.0463
   15MOL0     H 1928   8.607   7.827   1.959  1.4927  0.0322 -2.5859
   15MOL0     H 1929   8.585   8.027   2.104 -2.8708 -0.4975 -1.2646
   15MOL0     H 1930   8.495   7.873   2.125 -1.3821  1.9285  1.1521
   15MOL0     H 1931   8.748   7.973   2.285 -0.3436 -1.0286 -0.0834
   15MOL0     H 1932   8.668   7.820   2.317  0.5882  0.6765  1.0196
   15MOL0     H 1933   8.443   7.819   2.473 -2.4489 -0.2383 -0.5470
   15MOL0     H 1934   8.385   7.978   2.729  2.0350 -1.6754 -1.3176
   15MOL0     H 1935   8.260   7.932   2.614  0.2514  0.5175 -0.8567
   15MOL0     H 1936   8.205   8.183   2.580 -2.5299  1.3916  2.3270
   15MOL0     H 1937   8.319   8.215   2.714  0.3419 -0.8624  1.8811
   15MOL0     H 1938   8.071   8.037   2.750 -0.8024  0.1430 -0.5611
   15MOL0     H 1939   8.181   8.107   2.870  2.3987 -1.2715 -1.5135
   15MOL0     H 1940   8.049   8.305   2.691  3.7350  2.2305 -1.0727
   15MOL0     H 1941   8.089   8.326   2.855  0.5073  1.4592 -0.2835
   15MOL0     H 1942   7.817   8.384   2.658  1.2299  0.3722  0.2194
   15MOL0     H 1943   7.639   8.553   2.741 -2.0979 -0.4255  0.8637
   15MOL0     H 1944   7.457   8.947   2.870 -0.8091 -0.8123 -3.3815
   15MOL0     H 1945   7.262   9.066   2.917  0.1359  0.2172  1.5685
   15MOL0     H 1946   7.024   9.128   2.879  1.1513  0.6967  1.0760
   15MOL0     H 1947   7.110   9.149   3.033  0.0214 -0.6661  1.0814
   15MOL0     H 1948   6.869   9.245   2.979 -3.6940 -2.6104 -4.5724
   15MOL0     H 1949   6.911   9.154   3.137  0.5743 -1.5049 -0.8933
   15MOL0     H 1950   6.750   8.977   3.043  0.6987  0.1647 -0.9256
   15MOL0     H 1951   6.760   9.062   2.882 -4.1168  0.3009 -0.9691
   15MOL0     H 1952   6.643   9.151   3.143 -0.0814  2.2118  0.3641
   15MOL0     H 1953   6.642   9.263   3.015 -0.8566  0.1636  2.6409
   15MOL0     H 1954   6.494   9.001   3.018 -2.3263  0.8759  1.4865
   15MOL0     H 1955   6.514   9.111   2.876 -2.3002  0.7713 -0.5593
   15MOL0     H 1956   6.406   9.300   2.984 -1.5805  1.1279  2.6110
   15MOL0     H 1957   6.425   9.213   3.139  1.2696 -0.5203 -0.5247
   15MOL0     H 1958   6.242   9.082   3.098 -0.4882 -1.0814 -0.9767
   15MOL0     H 1959   6.181   9.228   3.027  0.8146  1.3261 -0.1533
   15MOL0     H 1960   6.291   8.986   2.882  1.8379  0.7025  1.9927
   15MOL0     H 1961   6.257   9.137   2.802 -2.1644  1.1935  0.0998
   15MOL0     H 1962   7.052   8.700   3.023 -0.7488  2.3851  0.8941
   15MOL0     H 1963   7.262   8.576   2.966 -3.5004  0.5030 -0.7509
   15MOL0     H 1964   7.647   8.360   3.121 -2.5822 -4.1645 -1.6083
   15MOL0     H 1965   7.834   8.236   3.060  0.2260  0.0768 -0.3040
   15MOL0     H 1966   9.315   7.790   2.078  1.1145  2.8069  3.7200
   15MOL0     H 1967   9.514   7.932   2.138 -2.8115 -1.4915  1.2483
   15MOL0     H 1968   9.885   8.133   1.974 -2.0770  1.1928 -0.3230
   15MOL0     H 1969  10.073   8.270   2.042  1.4053  0.6329 -0.4953
   15MOL0     H 1970  10.221   8.610   2.034  2.8194 -1.5600 -0.8145
   15MOL0     H 1971  10.163   8.481   1.941 -0.5372  1.4804 -0.1140
   15MOL0     H 1972  10.243   8.332   2.131  1.8838 -0.9839 -1.1135
   15MOL0     H 1973  10.371   8.443   2.081 -0.8594 -2.1896 -1.1266
   15MOL0     H 1974  10.194   8.496   2.322  1.8304  2.9681  1.5033
   15MOL0     H 1975  10.330   8.594   2.245  0.3427  0.6225 -1.0848
   15MOL0     H 1976  10.354   8.302   2.341 -0.3104 -0.2757 -1.1005
   15MOL0     H 1977  10.489   8.411   2.304 -2.1766 -1.1214 -2.6709
   15MOL0     H 1978  10.436   8.571   2.682 -1.5421  0.5568 -1.0408
   15MOL0     H 1979   9.800   8.612   2.090  2.6522  0.7929  1.8633
   15MOL0     H 1980   9.622   8.464   2.023  0.2816 -1.6846  0.2526
   16MOL0     O 1981   1.648   9.338   0.461 -0.0808 -0.1264 -0.1274
   16MOL0     C 1982   1.628   9.273   0.564  0.1190  0.3079 -0.2673
   16MOL0     O 1983   1.498   9.248   0.611 -0.4375  0.2705 -0.3951
   16MOL0     C 1984   1.378   9.289   0.563 -0.4759  0.1675 -0.3731
   16MOL0     C 1985   1.277   9.200   0.594 -0.1767  0.0380 -0.3935
   16MOL0     C 1986   1.147   9.236   0.571 -0.2253 -0.2278  1.0988
   16MOL0     C 1987   1.108   9.358   0.517 -0.3380 -0.3414 -0.0180
   16MOL0     O 1988   0.981   9.388   0.522  0.4602  0.2823  0.5844
   16MOL0     C 1989   0.923   9.428   0.395  0.4588  0.2813  0.5672
   16MOL0     C 1990   0.810   9.523   0.420 -0.2928  1.4121 -0.1033
   16MOL0     C 1991   0.846   9.646   0.502 -0.3290 -0.2385  0.4126
   16MOL0     C 1992   0.717   9.718   0.551  0.1126  1.1565 -0.6169
   16MOL0     C 1993   0.657   9.650   0.671  0.0876  0.4771  0.1155
   16MOL0     C 1994   0.567   9.749   0.749  0.2745  0.3249 -0.2753
   16MOL0     C 1995   0.483   9.657   0.842 -0.5807  0.3567  0.4397
   16MOL0     C 1996   0.387   9.741   0.928 -1.2661 -0.1255  0.0549
   16MOL0     N 1997   0.287   9.826   0.852  0.8236 -0.0151  1.2999
   16MOL0     C 1998   0.198   9.765   0.775  0.8445 -0.0620 -0.0134
   16MOL0     C 1999   0.156   9.858   0.684  0.0953  0.0686 -0.3922
   16MOL0     C 2000   0.056   9.824   0.575 -0.3474  0.1277  0.7313
   16MOL0     C 2001  -0.090   9.856   0.630 -0.1977 -0.0316  0.2432
   16MOL0     C 2002  -0.196   9.790   0.539  0.4587 -0.0308  0.6831
   16MOL0     C 2003  -0.345   9.830   0.563  0.7782 -0.5898 -0.7261
   16MOL0     O 2004  -0.418   9.753   0.467 -0.7568 -0.5844 -0.1898
   16MOL0     C 2005  -0.556   9.743   0.492  0.0082 -0.2313  0.5420
   16MOL0     C 2006  -0.633   9.831   0.570  0.4939 -0.1554  0.1808
   16MOL0     C 2007  -0.768   9.797   0.596 -0.0162  0.1186 -0.5409
   16MOL0     C 2008  -0.828   9.696   0.525  0.7771 -0.3723  0.3245
   16MOL0     C 2009  -0.976   9.668   0.550 -0.0887  0.3348 -0.1139
   16MOL0     O 2010  -1.028   9.540   0.522  0.6048 -0.5853 -0.4913
   16MOL0     C 2011  -1.158   9.502   0.542 -0.3170 -0.4898 -0.0686
   16MOL0     C 2012  -1.268   9.564   0.598 -0.1743 -0.6165  0.9673
   16MOL0     C 2013  -1.389   9.505   0.611  0.1164  0.5287 -0.0354
   16MOL0     C 2014  -1.411   9.364   0.590 -0.1041  0.0581 -0.2474
   16MOL0     O 2015  -1.524   9.296   0.608  0.3658  0.1011  0.0016
   16MOL0     C 2016  -1.644   9.369   0.620  0.2451 -0.0359  0.1942
   16MOL0     C 2017  -1.750   9.278   0.683 -0.6436  0.2144 -0.4431
   16MOL0     C 2018  -1.847   9.353   0.778  0.0068  0.3761 -0.0076
   16MOL0     C 2019  -1.954   9.250   0.834 -0.1872  0.3679  0.8324
   16MOL0     C 2020  -2.052   9.306   0.947 -0.5118 -0.6215  0.1243
   16MOL0     C 2021  -2.170   9.210   0.970  0.1064  0.2974  0.1068
   16MOL0     C 2022  -2.259   9.270   1.077  0.5158 -0.0234 -0.7490
   16MOL0     C 2023  -2.390   9.192   1.085  0.0585 -0.0918 -0.8921
   16MOL0    Cl 2024  -2.511   9.251   1.197  0.6486 -0.0318 -0.0645
   16MOL0     C 2025  -1.301   9.298   0.531  0.2068 -0.5527  0.0711
   16MOL0     C 2026  -1.177   9.366   0.508  0.2936  0.6530  0.7547
   16MOL0     O 2027  -1.046   9.764   0.583 -0.5918 -0.3412 -0.0342
   16MOL0     C 2028  -0.754   9.623   0.433  0.5294  0.3118  0.0809
   16MOL0     C 2029  -0.618   9.640   0.427  0.2963 -0.2226 -0.8048
   16MOL0     N 2030   0.218   9.979   0.713  0.2447  0.8811 -0.6845
   16MOL0     N 2031   0.302   9.955   0.811  0.5789  0.2792 -0.7246
   16MOL0     C 2032   1.210   9.444   0.480 -0.1239 -0.2038 -1.1903
   16MOL0     C 2033   1.344   9.410   0.508 -0.3206  1.1174  0.3682
   16MOL0     C 2034   1.745   9.215   0.646 -0.7731 -0.0716  0.3140
   16MOL0     C 2035   1.880   9.245   0.612 -0.2925 -0.3046 -0.0453
   16MOL0     C 2036   1.989   9.182   0.684 -0.0581 -0.0656 -0.6355
   16MOL0     C 2037   1.964   9.097   0.789  0.3017 -0.2506  0.0841
   16MOL0     O 2038   2.062   9.041   0.865 -0.1948 -0.3269  0.8520
   16MOL0     C 2039   2.196   9.058   0.825  0.2350  0.9514  0.3307
   16MOL0     C 2040   2.287   8.979   0.926  0.2570 -0.2218 -0.0258
   16MOL0     C 2041   2.275   8.830   0.897 -0.1398 -0.2226  0.7278
   16MOL0     C 2042   2.391   8.766   0.961  0.2832  0.9775  0.9035
   16MOL0     C 2043   2.365   8.620   0.954  0.1352 -0.5133  0.0103
   16MOL0     C 2044   2.345   8.499   0.936  0.5405 -0.5988 -0.2183
   16MOL0     C 2045   1.834   9.076   0.824 -0.4200 -0.1054 -1.0042
   16MOL0     C 2046   1.722   9.133   0.755 -0.5387  0.2720  0.1014
   16MOL0     H 2047   1.299   9.107   0.645  0.2890  0.9008  1.0510
   16MOL0     H 2048   1.071   9.164   0.600  0.1787 -1.3730 -0.5401
   16MOL0     H 2049   0.868   9.347   0.347 -0.0815  0.3528  1.0467
   16MOL0     H 2050   0.991   9.477   0.324 -1.2632 -0.3011 -1.5759
   16MOL0     H 2051   0.733   9.460   0.465 -0.5213  1.0714 -0.9488
   16MOL0     H 2052   0.784   9.556   0.319  1.5880  0.3097 -1.0133
   16MOL0     H 2053   0.914   9.707   0.442  0.3672 -1.7258 -0.3689
   16MOL0     H 2054   0.913   9.624   0.586  1.7687 -0.9783 -1.3635
   16MOL0     H 2055   0.745   9.822   0.570 -0.1615  0.7265  2.8896
   16MOL0     H 2056   0.637   9.720   0.477 -2.7724 -0.5052  2.1651
   16MOL0     H 2057   0.728   9.614   0.746 -1.6222 -0.3956  1.3622
   16MOL0     H 2058   0.604   9.559   0.643  0.4856  0.2833 -0.0164
   16MOL0     H 2059   0.499   9.806   0.683  0.8437 -1.2452 -2.3217
   16MOL0     H 2060   0.622   9.821   0.811 -0.3464  0.9896 -0.4724
   16MOL0     H 2061   0.417   9.591   0.785 -0.4685  0.1707  0.5263
   16MOL0     H 2062   0.549   9.595   0.902  1.2022  1.6449 -0.1169
   16MOL0     H 2063   0.431   9.812   0.997  1.6292  2.8526 -4.3603
   16MOL0     H 2064   0.328   9.662   0.976 -0.7319  0.5652  1.9120
   16MOL0     H 2065   0.160   9.664   0.783 -0.9896  0.6794  1.5134
   16MOL0     H 2066   0.062   9.720   0.542 -1.3783  0.3723 -0.2709
   16MOL0     H 2067   0.074   9.888   0.489 -0.3374  0.0419  0.6700
   16MOL0     H 2068  -0.122   9.960   0.630 -2.8556 -0.7297 -1.8051
   16MOL0     H 2069  -0.097   9.825   0.734  1.2708 -2.5892 -0.3216
   16MOL0     H 2070  -0.160   9.819   0.440 -0.3376  1.5218  0.8166
   16MOL0     H 2071  -0.196   9.681   0.545 -0.6583 -0.0924 -0.0471
   16MOL0     H 2072  -0.363   9.934   0.537  2.0134 -0.4468 -1.0380
   16MOL0     H 2073  -0.376   9.807   0.666 -1.5913 -1.2151 -1.5020
   16MOL0     H 2074  -0.581   9.913   0.619  1.1258  1.2937 -2.7395
   16MOL0     H 2075  -0.825   9.848   0.673 -0.0005 -3.3747  2.0183
   16MOL0     H 2076  -1.259   9.667   0.631  0.0499 -0.4651  0.4361
   16MOL0     H 2077  -1.470   9.563   0.654  0.8804  1.3880  0.2860
   16MOL0     H 2078  -1.670   9.388   0.515  0.4449 -1.0426 -0.0556
   16MOL0     H 2079  -1.630   9.457   0.682 -0.5133  1.0809 -1.1611
   16MOL0     H 2080  -1.700   9.200   0.741 -2.3225 -1.1879 -0.7918
   16MOL0     H 2081  -1.812   9.227   0.609 -0.6582 -0.1668 -0.1728
   16MOL0     H 2082  -1.900   9.423   0.713  0.1871  0.6611  0.1477
   16MOL0     H 2083  -1.806   9.419   0.855 -0.8655  1.8495 -0.7671
   16MOL0     H 2084  -2.021   9.221   0.752  0.6452 -0.5791  0.4721
   16MOL0     H 2085  -1.899   9.160   0.862  0.8132  0.9075  0.6910
   16MOL0     H 2086  -2.088   9.407   0.925  2.7473  1.4681  3.2745
   16MOL0     H 2087  -2.004   9.308   1.045 -2.1335 -0.3781  0.9487
   16MOL0     H 2088  -2.135   9.115   1.012  3.0968  3.1295  4.9173
   16MOL0     H 2089  -2.221   9.188   0.875 -0.4690  0.4523  0.3782
   16MOL0     H 2090  -2.213   9.264   1.176  0.6559 -3.7273 -0.8822
   16MOL0     H 2091  -2.280   9.368   1.035  2.0802 -0.2473 -2.1937
   16MOL0     H 2092  -2.360   9.089   1.108  1.6054  1.0993  3.4756
   16MOL0     H 2093  -2.433   9.191   0.984  2.4319 -2.8968 -2.0071
   16MOL0     H 2094  -1.321   9.206   0.476  2.4699 -0.7783 -0.4910
   16MOL0     H 2095  -1.105   9.299   0.462  0.4637  0.9048  0.6510
   16MOL0     H 2096  -0.797   9.549   0.366  2.6314  0.9814 -2.1169
   16MOL0     H 2097  -0.555   9.573   0.369  2.3458 -0.1677  1.1875
   16MOL0     H 2098   1.182   9.537   0.431 -0.1961  1.2003  1.3257
   16MOL0     H 2099   1.429   9.474   0.488  3.0670 -2.9659  0.3507
   16MOL0     H 2100   1.900   9.317   0.534  1.6799 -2.7489 -1.9711
   16MOL0     H 2101   2.091   9.208   0.659  0.7129 -3.4194 -1.4941
   16MOL0     H 2102   2.231   9.161   0.813  2.8483 -0.0619 -1.8649
   16MOL0     H 2103   2.204   9.016   0.724  1.3465  1.5274  0.1656
   16MOL0     H 2104   2.386   9.022   0.912 -0.4840  0.7691 -2.9041
   16MOL0     H 2105   2.268   9.003   1.030  1.7922 -1.4721  0.5907
   16MOL0     H 2106   2.265   8.799   0.793 -2.0359 -0.9346  1.0883
   16MOL0     H 2107   2.181   8.805   0.946 -0.1330  0.1529  0.9330
   16MOL0     H 2108   2.484   8.797   0.912 -1.9719  2.5296 -2.8386
   16MOL0     H 2109   2.393   8.782   1.069 -0.2150  2.0804  0.7558
   16MOL0     H 2110   2.323   8.395   0.921 -0.6991  0.0252 -3.9405
   16MOL0     H 2111   1.824   9.016   0.914  3.2905 -1.6569 -1.4829
   16MOL0     H 2112   1.623   9.105   0.790 -1.3630  3.4780  0.6155
   17MOL0     O 2113   6.447   5.620   7.072  0.0453 -0.0144 -0.0034
   17MOL0     C 2114   6.523   5.706   7.049  0.7122 -0.6453 -0.0740
   17MOL0     O 2115   6.487   5.841   7.070 -0.3555 -0.5712  0.1183
   17MOL0     C 2116   6.356   5.873   7.096  0.3867 -1.0016 -0.4396
   17MOL0     C 2117   6.303   5.880   7.227  0.8359  0.1485 -0.1528
   17MOL0     C 2118   6.159   5.907   7.247  0.0282 -0.2552 -0.4951
   17MOL0     C 2119   6.082   5.952   7.141  0.2983 -0.7076  0.6923
   17MOL0     O 2120   5.953   5.992   7.145 -0.0092  0.2507 -0.5137
   17MOL0     C 2121   5.909   6.059   7.261 -0.3271  0.4867 -1.0889
   17MOL0     C 2122   5.864   5.959   7.365  0.4991 -0.4672 -0.5135
   17MOL0     C 2123   5.756   6.024   7.455  0.4395  0.7598  0.0646
   17MOL0     C 2124   5.718   5.941   7.570 -0.1892  0.1417  0.7176
   17MOL0     C 2125   5.598   6.009   7.627 -0.1427  0.2440 -0.6779
   17MOL0     C 2126   5.563   5.932   7.754  0.2676  0.4047 -0.1242
   17MOL0     C 2127   5.663   5.953   7.862 -0.1462  0.1361 -1.0803
   17MOL0     C 2128   5.621   5.936   8.017 -0.0920  0.0199  1.0731
   17MOL0     N 2129   5.742   5.895   8.080  0.0601  0.4753 -0.1378
   17MOL0     C 2130   5.855   5.967   8.090  0.4910 -0.3441 -0.3767
   17MOL0     C 2131   5.935   5.883   8.159 -0.4817 -0.2595  1.0504
   17MOL0     C 2132   6.075   5.898   8.206  0.2976 -0.6946  0.2114
   17MOL0     C 2133   6.155   5.794   8.141 -0.8128 -0.4609  0.7947
   17MOL0     C 2134   6.300   5.808   8.207 -0.3867  0.3692  0.8093
   17MOL0     C 2135   6.320   5.735   8.340 -0.2201 -1.6710  0.3089
   17MOL0     O 2136   6.350   5.594   8.306 -0.5602 -1.1190  0.4289
   17MOL0     C 2137   6.347   5.533   8.425 -0.0105  0.3391 -0.4835
   17MOL0     C 2138   6.232   5.487   8.489 -0.0510  0.0163 -0.3312
   17MOL0     C 2139   6.236   5.418   8.616 -0.1484 -0.2644 -0.0195
   17MOL0     C 2140   6.363   5.386   8.665 -0.6792 -0.3547 -0.1210
   17MOL0     C 2141   6.362   5.292   8.777 -1.0053 -0.1224  0.6065
   17MOL0     O 2142   6.262   5.205   8.789 -0.7714 -0.6071 -0.1036
   17MOL0     C 2143   6.245   5.110   8.890  0.0916  0.5312 -0.9623
   17MOL0     C 2144   6.115   5.069   8.935  0.2712 -0.0041 -0.1970
   17MOL0     C 2145   6.101   4.965   9.025 -1.3652  0.3605 -0.2693
   17MOL0     C 2146   6.221   4.896   9.071 -0.5127  0.7520  0.7350
   17MOL0     O 2147   6.211   4.809   9.178 -0.1310  0.4358  0.3012
   17MOL0     C 2148   6.307   4.703   9.190  0.9846  1.0984 -0.7084
   17MOL0     C 2149   6.288   4.640   9.327  0.3497 -0.1858 -0.2059
   17MOL0     C 2150   6.393   4.537   9.374 -0.3243  0.0704  0.2464
   17MOL0     C 2151   6.359   4.493   9.527  0.7116  0.4779  0.0186
   17MOL0     C 2152   6.453   4.386   9.585 -0.1851 -0.6529  0.9554
   17MOL0     C 2153   6.429   4.350   9.735 -0.9205  0.1012 -0.0028
   17MOL0     C 2154   6.501   4.455   9.820 -0.4042  0.2809  0.1797
   17MOL0     C 2155   6.494   4.428   9.971  0.1446  0.0015 -0.3280
   17MOL0    Cl 2156   6.330   4.438  10.026 -0.0281 -0.5904 -0.2387
   17MOL0     C 2157   6.345   4.946   9.041 -0.1438  0.5653  0.0107
   17MOL0     C 2158   6.364   5.052   8.949 -0.7418 -0.2689 -0.0599
   17MOL0     O 2159   6.453   5.317   8.861  0.9372 -0.6367 -0.2821
   17MOL0     C 2160   6.481   5.421   8.599 -0.1666 -0.1906 -0.2472
   17MOL0     C 2161   6.475   5.498   8.481  0.3274  0.5857  0.6740
   17MOL0     N 2162   5.868   5.763   8.183 -0.0559  0.2124 -0.0064
   17MOL0     N 2163   5.752   5.772   8.134 -0.8047  0.3451 -0.5864
   17MOL0     C 2164   6.140   5.945   7.010  0.8144 -0.3014 -0.7122
   17MOL0     C 2165   6.276   5.908   6.991  0.3705  0.4036 -0.7434
   17MOL0     C 2166   6.652   5.674   7.003 -0.3765 -0.0081 -0.1189
   17MOL0     C 2167   6.687   5.540   6.985 -1.3177  0.3679 -0.7774
   17MOL0     C 2168   6.819   5.499   6.945  0.1970  0.0653  0.0370
   17MOL0     C 2169   6.914   5.599   6.934 -0.2489  0.1960  0.1042
   17MOL0     O 2170   7.040   5.557   6.893  0.3383  0.7544  0.3651
   17MOL0     C 2171   7.136   5.529   6.993  0.5413  0.7947  0.8717
   17MOL0     C 2172   7.142   5.378   7.022 -1.0629 -0.9285 -1.0686
   17MOL0     C 2173   7.259   5.353   7.112 -0.3047  1.6590  1.2453
   17MOL0     C 2174   7.385   5.361   7.015 -0.7125 -0.0236 -0.7412
   17MOL0     C 2175   7.495   5.298   7.089 -0.1109 -0.4017 -0.3597
   17MOL0     C 2176   7.582   5.243   7.135 -0.6731 -0.3396  0.6249
   17MOL0     C 2177   6.883   5.730   6.938 -0.2576  0.6095  0.5115
   17MOL0     C 2178   6.748   5.765   6.967  0.5223 -0.8049  0.2270
   17MOL0     H 2179   6.361   5.853   7.315  3.0220  1.7140 -1.0253
   17MOL0     H 2180   6.122   5.898   7.348  3.1586 -0.6971  0.7267
   17MOL0     H 2181   5.822   6.111   7.220 -1.4694 -1.1880 -0.9066
   17MOL0     H 2182   5.987   6.124   7.302  2.8298 -4.1896  1.2056
   17MOL0     H 2183   5.945   5.930   7.432  2.1381  1.6752 -1.4346
   17MOL0     H 2184   5.819   5.872   7.316  0.0413 -0.3328 -0.3348
   17MOL0     H 2185   5.669   6.049   7.393  0.1110  0.5144  0.4202
   17MOL0     H 2186   5.803   6.113   7.497 -2.0579  1.0820  2.4282
   17MOL0     H 2187   5.695   5.841   7.533 -1.6413  1.4747 -2.3051
   17MOL0     H 2188   5.810   5.944   7.629  1.6297 -0.9878 -1.8391
   17MOL0     H 2189   5.514   5.993   7.559 -1.8722 -1.9434  1.7745
   17MOL0     H 2190   5.622   6.114   7.643  0.6555 -0.1786  1.2442
   17MOL0     H 2191   5.551   5.827   7.726 -0.8040  0.6423 -0.5929
   17MOL0     H 2192   5.467   5.972   7.788  1.2784  1.9276  1.0676
   17MOL0     H 2193   5.736   5.875   7.837 -3.8262 -3.4493 -1.8239
   17MOL0     H 2194   5.705   6.053   7.854  1.0774 -0.0726  1.6635
   17MOL0     H 2195   5.544   5.859   8.026 -1.2208  0.8848 -0.6132
   17MOL0     H 2196   5.592   6.034   8.057 -0.4613 -0.5592  2.2528
   17MOL0     H 2197   5.885   6.066   8.059 -0.4783  0.1303  0.1608
   17MOL0     H 2198   6.075   5.881   8.314  1.6368 -0.2968  0.2992
   17MOL0     H 2199   6.118   5.995   8.179 -2.4953 -0.0088 -2.2470
   17MOL0     H 2200   6.164   5.808   8.033 -0.0263  2.1420  1.1197
   17MOL0     H 2201   6.120   5.693   8.163  2.3268 -1.7076  0.4946
   17MOL0     H 2202   6.372   5.765   8.137  0.9491 -0.7048  2.7206
   17MOL0     H 2203   6.340   5.907   8.230  1.0442 -0.1799  0.8258
   17MOL0     H 2204   6.235   5.758   8.404 -1.3102 -2.0809 -0.9454
   17MOL0     H 2205   6.410   5.768   8.394  0.1803  0.3022 -1.4326
   17MOL0     H 2206   6.134   5.492   8.444 -0.1943  0.3965  0.0079
   17MOL0     H 2207   6.155   5.367   8.668 -0.4201  2.1340  2.1113
   17MOL0     H 2208   6.034   5.129   8.893 -0.5209 -2.4496 -2.4722
   17MOL0     H 2209   6.004   4.926   9.054 -2.1377  1.1723 -1.6759
   17MOL0     H 2210   6.410   4.742   9.193  2.3917 -2.2082 -1.4853
   17MOL0     H 2211   6.304   4.627   9.112  1.9140  1.0414 -0.7097
   17MOL0     H 2212   6.193   4.587   9.316 -1.1570  1.1162  4.1922
   17MOL0     H 2213   6.287   4.724   9.397  0.5287 -1.8564  1.9162
   17MOL0     H 2214   6.497   4.567   9.363 -0.6375  0.2668 -2.7712
   17MOL0     H 2215   6.386   4.446   9.314  0.2072 -2.8063  4.0797
   17MOL0     H 2216   6.374   4.579   9.593  2.7331 -0.1378  0.4415
   17MOL0     H 2217   6.253   4.466   9.537  1.2752 -1.4408  1.5651
   17MOL0     H 2218   6.554   4.421   9.563  0.5905 -2.2876  1.7407
   17MOL0     H 2219   6.441   4.289   9.535 -0.6915  0.6887 -1.7186
   17MOL0     H 2220   6.478   4.257   9.762 -0.9800  0.2519  0.6463
   17MOL0     H 2221   6.322   4.356   9.759 -1.2157  1.5802 -1.5206
   17MOL0     H 2222   6.607   4.468   9.797 -0.4942  0.5812 -0.0777
   17MOL0     H 2223   6.456   4.552   9.797  0.0528  0.3661 -0.3644
   17MOL0     H 2224   6.566   4.496  10.019 -0.0228 -0.2405  0.2683
   17MOL0     H 2225   6.532   4.327   9.988 -1.1816 -0.3934  0.3423
   17MOL0     H 2226   6.436   4.896   9.074 -0.9227 -0.4107  0.7669
   17MOL0     H 2227   6.468   5.078   8.937 -0.2067 -0.3302  3.5304
   17MOL0     H 2228   6.581   5.398   8.633 -1.0308 -1.1365  1.8280
   17MOL0     H 2229   6.567   5.528   8.432 -0.1966  3.2244  1.1479
   17MOL0     H 2230   6.080   5.976   6.924  0.2062  1.8864  0.4282
   17MOL0     H 2231   6.305   5.905   6.886 -2.5947  1.2947 -1.6960
   17MOL0     H 2232   6.615   5.463   7.011  0.3867 -1.4702 -1.2565
   17MOL0     H 2233   6.855   5.399   6.922 -0.3105  0.3271 -2.1082
   17MOL0     H 2234   7.103   5.587   7.079  0.4591  0.4842  1.0502
   17MOL0     H 2235   7.237   5.552   6.958  0.5142 -0.0770  0.1763
   17MOL0     H 2236   7.046   5.351   7.066 -1.5102  0.3339 -1.2292
   17MOL0     H 2237   7.148   5.319   6.930  0.0194 -1.6922 -0.5342
   17MOL0     H 2238   7.247   5.256   7.162 -2.3088  0.7396 -0.8502
   17MOL0     H 2239   7.261   5.427   7.193 -1.0221  3.6540 -0.4626
   17MOL0     H 2240   7.369   5.337   6.910  1.2184 -2.6922 -0.5325
   17MOL0     H 2241   7.425   5.463   7.015  2.4977 -0.9725  3.6215
   17MOL0     H 2242   7.680   5.219   7.172  0.1458 -0.4321 -1.5047
   17MOL0     H 2243   6.945   5.816   6.915  0.2319  1.0418  3.1585
   17MOL0     H 2244   6.716   5.869   6.965  2.9630 -0.0087 -1.0484
   18MOL0     O 2245   9.377   1.305  10.138 -0.2477 -0.2804  0.0004
   18MOL0     C 2246   9.361   1.424  10.157  0.3169 -0.0732 -0.4107
   18MOL0     O 2247   9.456   1.518  10.195 -0.0288  0.1277 -0.1254
   18MOL0     C 2248   9.585   1.469  10.226  1.5283  1.0374 -0.0714
   18MOL0     C 2249   9.648   1.530  10.335  0.3652  0.1429  0.2068
   18MOL0     C 2250   9.772   1.499  10.378  0.1286  0.3064 -0.2761
   18MOL0     C 2251   9.854   1.411  10.300  0.4772  0.6946 -1.0389
   18MOL0     O 2252   9.990   1.381  10.325  1.0492 -0.5256 -0.4454
   18MOL0     C 2253  10.053   1.464  10.416 -0.2160 -0.3900 -0.7215
   18MOL0     C 2254  10.200   1.460  10.400  0.2442 -0.1954 -0.7634
   18MOL0     C 2255  10.268   1.563  10.488  0.3292  0.2688 -0.3778
   18MOL0     C 2256  10.413   1.593  10.440 -0.1390  0.3759 -0.0743
   18MOL0     C 2257  10.485   1.664  10.557  0.0793  0.6074  0.2983
   18MOL0     C 2258  10.632   1.681  10.533 -0.7155 -0.3973 -0.2976
   18MOL0     C 2259  10.698   1.763  10.643 -0.3339  0.0659  0.8810
   18MOL0     C 2260  10.814   1.686  10.711  0.4887  0.0921  0.5183
   18MOL0     N 2261  10.786   1.547  10.745  0.4375  0.7710 -0.3948
   18MOL0     C 2262  10.673   1.515  10.818 -0.1897  0.3904  0.0733
   18MOL0     C 2263  10.658   1.385  10.801 -0.3741  0.1513  0.1824
   18MOL0     C 2264  10.543   1.307  10.867  0.8093 -0.4007  1.1348
   18MOL0     C 2265  10.409   1.320  10.793  0.3899  0.0548 -0.5244
   18MOL0     C 2266  10.300   1.220  10.845  0.7709 -0.5776 -1.2734
   18MOL0     C 2267  10.150   1.257  10.820 -0.7380  0.0628  1.1084
   18MOL0     O 2268  10.122   1.392  10.853  0.0978  0.0476 -0.5065
   18MOL0     C 2269   9.991   1.432  10.816  0.5969 -0.0461 -0.3166
   18MOL0     C 2270   9.889   1.343  10.781  0.7569  0.4024 -0.1618
   18MOL0     C 2271   9.760   1.387  10.738 -0.4556  0.4750 -0.4786
   18MOL0     C 2272   9.729   1.526  10.745  0.3009 -0.2520 -1.1377
   18MOL0     C 2273   9.591   1.572  10.705  0.9897 -0.7216  0.2942
   18MOL0     O 2274   9.491   1.477  10.687 -0.4918  0.3942  0.1411
   18MOL0     C 2275   9.368   1.517  10.647  0.5495  0.5393  0.0354
   18MOL0     C 2276   9.325   1.493  10.516  0.1096  0.9141  0.1879
   18MOL0     C 2277   9.202   1.538  10.475  0.0931 -0.2254 -0.6322
   18MOL0     C 2278   9.111   1.572  10.576  0.2892  0.3780  0.2192
   18MOL0     O 2279   8.978   1.599  10.553 -0.3219  0.3654 -0.2428
   18MOL0     C 2280   8.918   1.519  10.458  0.3668  0.5151  0.4211
   18MOL0     C 2281   8.796   1.449  10.520  0.0947 -0.0892 -0.2292
   18MOL0     C 2282   8.735   1.364  10.413 -0.0740 -0.0667 -0.2678
   18MOL0     C 2283   8.599   1.321  10.456  0.3490  0.0720 -0.2862
   18MOL0     C 2284   8.592   1.254  10.594  0.2351 -0.3084 -0.8542
   18MOL0     C 2285   8.468   1.175  10.610  0.6240  0.0253  0.4450
   18MOL0     C 2286   8.457   1.111  10.748 -0.5963 -0.5079 -0.2876
   18MOL0     C 2287   8.424   1.221  10.853 -0.5565 -0.4563 -0.0478
   18MOL0    Cl 2288   8.367   1.139  10.998 -0.3286  0.0837  0.0582
   18MOL0     C 2289   9.151   1.585  10.704 -0.2345 -0.9081 -0.8280
   18MOL0     C 2290   9.279   1.553  10.746  0.5029 -0.0307 -0.1994
   18MOL0     O 2291   9.578   1.696  10.698 -0.2180  0.0701  0.0789
   18MOL0     C 2292   9.836   1.618  10.786  0.1995  0.9660  0.5877
   18MOL0     C 2293   9.965   1.570  10.813  0.0167  0.2499 -0.1809
   18MOL0     N 2294  10.758   1.332  10.722  0.1727  0.2458  0.4416
   18MOL0     N 2295  10.829   1.425  10.686  0.6382  0.2745 -0.3664
   18MOL0     C 2296   9.790   1.347  10.189 -0.6757 -0.5218 -0.7373
   18MOL0     C 2297   9.657   1.373  10.150 -0.1297 -0.6388 -0.5340
   18MOL0     C 2298   9.228   1.484  10.116  0.0919  0.4444  0.4535
   18MOL0     C 2299   9.128   1.397  10.068  0.8627 -0.4015 -0.3050
   18MOL0     C 2300   9.001   1.447  10.045  0.1656 -0.2599 -0.0835
   18MOL0     C 2301   8.972   1.586  10.058 -0.4497  0.1978  0.2526
   18MOL0     O 2302   8.839   1.632  10.060 -0.4544 -0.0152  0.5652
   18MOL0     C 2303   8.767   1.587   9.945 -0.6903 -0.4515 -0.2419
   18MOL0     C 2304   8.726   1.696   9.843 -0.0874  0.3582 -0.5335
   18MOL0     C 2305   8.576   1.708   9.853  0.0321 -0.3463  0.4446
   18MOL0     C 2306   8.518   1.771   9.989  0.0583  0.6008 -0.0235
   18MOL0     C 2307   8.375   1.796   9.975  0.8100  0.1188  0.8340
   18MOL0     C 2308   8.256   1.806   9.961  0.1769 -0.8207  0.3902
   18MOL0     C 2309   9.078   1.671  10.096  0.2213  0.1847 -1.0837
   18MOL0     C 2310   9.201   1.620  10.127 -0.0441 -0.3947  0.9881
   18MOL0     H 2311   9.592   1.601  10.395  0.6096  0.0885  0.5051
   18MOL0     H 2312   9.810   1.550  10.466 -4.1384  0.4307  1.7173
   18MOL0     H 2313  10.023   1.454  10.521  0.0205 -0.5245 -0.6655
   18MOL0     H 2314  10.032   1.567  10.387 -0.2960 -1.1273 -3.5525
   18MOL0     H 2315  10.222   1.479  10.294  2.5646  0.6323 -0.2086
   18MOL0     H 2316  10.247   1.367  10.432  1.2697 -0.3613 -2.6321
   18MOL0     H 2317  10.264   1.542  10.596  0.5940  0.7552 -0.2678
   18MOL0     H 2318  10.208   1.652  10.471  1.0662  0.3825 -2.7890
   18MOL0     H 2319  10.467   1.499  10.426  1.9637  1.5123 -0.0503
   18MOL0     H 2320  10.417   1.655  10.350  2.3879  0.5539  0.1049
   18MOL0     H 2321  10.480   1.608  10.651  0.9861  0.0325  0.0177
   18MOL0     H 2322  10.438   1.762  10.563 -0.5150  0.7989 -4.0891
   18MOL0     H 2323  10.649   1.722  10.433  0.8998  0.3395  0.2522
   18MOL0     H 2324  10.679   1.582  10.523  1.5744  0.6533 -0.5051
   18MOL0     H 2325  10.742   1.853  10.600  1.9854 -1.2286  0.3862
   18MOL0     H 2326  10.622   1.793  10.716 -1.1279  1.1100 -0.3393
   18MOL0     H 2327  10.838   1.739  10.803 -1.2116  2.4079 -0.2722
   18MOL0     H 2328  10.901   1.700  10.645 -0.4110  0.7018 -0.5874
   18MOL0     H 2329  10.620   1.592  10.873 -1.4556  1.0517 -1.9860
   18MOL0     H 2330  10.531   1.340  10.971  1.8894  0.4388  1.0215
   18MOL0     H 2331  10.581   1.205  10.862  0.3690 -0.5002 -0.8296
   18MOL0     H 2332  10.418   1.300  10.686 -0.7388 -0.2778 -0.5705
   18MOL0     H 2333  10.365   1.420  10.796 -1.9442 -0.8979  2.9066
   18MOL0     H 2334  10.320   1.123  10.800  1.9097 -0.8346 -0.2409
   18MOL0     H 2335  10.304   1.200  10.952  1.5202 -2.9283 -1.6987
   18MOL0     H 2336  10.088   1.185  10.873 -1.9087 -0.3285 -0.7039
   18MOL0     H 2337  10.132   1.227  10.716  1.4849 -1.4371  1.0874
   18MOL0     H 2338   9.891   1.235  10.786 -1.2740  0.3569  0.5664
   18MOL0     H 2339   9.686   1.316  10.702 -0.9314  0.1178  1.1452
   18MOL0     H 2340   9.386   1.442  10.442 -0.7285 -2.3114  1.5440
   18MOL0     H 2341   9.179   1.530  10.369  4.1317  2.6661 -1.9989
   18MOL0     H 2342   8.979   1.438  10.420 -2.1379 -1.0623 -0.5000
   18MOL0     H 2343   8.888   1.586  10.377  0.6293  2.0796  1.5694
   18MOL0     H 2344   8.730   1.527  10.557  2.0225  1.4169  0.2143
   18MOL0     H 2345   8.830   1.384  10.601  0.0771 -0.2724 -0.3677
   18MOL0     H 2346   8.795   1.277  10.386  1.2243  0.5242  0.5988
   18MOL0     H 2347   8.728   1.426  10.323  0.0175  2.6555  1.4710
   18MOL0     H 2348   8.536   1.411  10.462  0.9050  0.4337  0.2491
   18MOL0     H 2349   8.556   1.246  10.389 -0.1587  0.1160 -0.0133
   18MOL0     H 2350   8.609   1.332  10.669 -2.1688 -1.1781  0.6916
   18MOL0     H 2351   8.667   1.174  10.602 -2.6534 -3.0440  1.6526
   18MOL0     H 2352   8.488   1.093  10.541  1.6482  1.6995 -1.3488
   18MOL0     H 2353   8.379   1.233  10.587  0.3346 -1.2879 -2.0258
   18MOL0     H 2354   8.368   1.051  10.731 -0.8586  0.4865 -2.8955
   18MOL0     H 2355   8.526   1.038  10.791 -2.8804 -2.6035 -0.0006
   18MOL0     H 2356   8.345   1.282  10.808 -0.5474 -0.8459 -0.6109
   18MOL0     H 2357   8.512   1.281  10.876 -1.4636  0.8405  0.1150
   18MOL0     H 2358   9.081   1.624  10.777  1.6060 -1.6164  1.4484
   18MOL0     H 2359   9.312   1.561  10.849  0.6685  0.1366 -0.2640
   18MOL0     H 2360   9.830   1.725  10.801  2.8862  1.1100  1.1169
   18MOL0     H 2361  10.048   1.631  10.849  1.2660 -2.0298  1.0048
   18MOL0     H 2362   9.857   1.283  10.133 -0.7944 -0.2315 -1.2246
   18MOL0     H 2363   9.640   1.328  10.053  1.8265  3.0403 -2.8385
   18MOL0     H 2364   9.140   1.290  10.053 -0.6069 -0.6656  0.2210
   18MOL0     H 2365   8.914   1.382  10.042 -0.8476  1.0858 -0.7271
   18MOL0     H 2366   8.688   1.521   9.982  0.2766 -0.7740  1.3265
   18MOL0     H 2367   8.826   1.520   9.881 -3.2136  0.9833 -4.4602
   18MOL0     H 2368   8.779   1.790   9.860  4.2840 -2.2007  1.4785
   18MOL0     H 2369   8.746   1.658   9.742  0.7985  1.2920 -0.7229
   18MOL0     H 2370   8.524   1.612   9.838 -0.8296 -0.0795  1.5659
   18MOL0     H 2371   8.550   1.764   9.763  0.6692  2.4331  1.8900
   18MOL0     H 2372   8.535   1.694  10.065  1.2781 -2.7591 -3.4008
   18MOL0     H 2373   8.571   1.862  10.016 -0.3447  1.9139 -3.2547
   18MOL0     H 2374   8.151   1.830   9.957  0.3470  0.0459 -3.5106
   18MOL0     H 2375   9.056   1.776  10.116 -0.9334 -0.3079  0.3703
   18MOL0     H 2376   9.282   1.686  10.156  0.5633 -1.2268  1.2267
   19MOL0     O 2377   6.433   8.002   8.352  0.0961 -0.1817 -0.1868
   19MOL0     C 2378   6.428   7.929   8.456 -0.2377  0.2413 -0.4236
   19MOL0     O 2379   6.324   7.857   8.498  0.2343 -0.4251  0.5658
   19MOL0     C 2380   6.206   7.856   8.423 -1.4623 -0.2775 -0.1185
   19MOL0     C 2381   6.200   7.847   8.290  0.1729  0.3742  0.7721
   19MOL0     C 2382   6.079   7.861   8.222 -0.0687  0.4257  1.0443
   19MOL0     C 2383   5.966   7.900   8.291 -0.2330  0.0070  0.8129
   19MOL0     O 2384   5.852   7.916   8.212 -0.2351  0.5977  0.6752
   19MOL0     C 2385   5.726   7.937   8.281 -0.8495 -0.0630 -1.0513
   19MOL0     C 2386   5.624   7.977   8.175  0.2682 -0.1699  0.2783
   19MOL0     C 2387   5.490   7.978   8.246 -0.8784  0.7546  0.5506
   19MOL0     C 2388   5.371   7.994   8.162 -0.2553  0.9491  0.3829
   19MOL0     C 2389   5.246   7.993   8.240  0.6369  0.7668  0.3224
   19MOL0     C 2390   5.122   8.012   8.156 -0.1866  0.0154 -0.0883
   19MOL0     C 2391   5.030   7.887   8.186  0.2240 -0.2113  0.4644
   19MOL0     C 2392   4.911   7.879   8.089  0.1304  0.7800 -0.6035
   19MOL0     N 2393   4.796   7.977   8.111 -0.1509 -0.1119  0.5871
   19MOL0     C 2394   4.770   8.085   8.036  0.0159 -0.5564 -0.1010
   19MOL0     C 2395   4.644   8.129   8.075  0.4949 -0.0024  0.0197
   19MOL0     C 2396   4.574   8.250   8.019 -0.1416 -0.5303 -0.3132
   19MOL0     C 2397   4.460   8.320   8.111  0.7666 -0.0674 -0.4598
   19MOL0     C 2398   4.373   8.413   8.020  0.8437 -0.4333  0.1686
   19MOL0     C 2399   4.229   8.434   8.067  0.0653 -0.6809  0.1598
   19MOL0     O 2400   4.233   8.532   8.173 -0.2453 -0.1944  0.1351
   19MOL0     C 2401   4.123   8.587   8.233  0.0952  0.5575  0.7978
   19MOL0     C 2402   4.139   8.637   8.362 -0.0868  1.1302 -0.1470
   19MOL0     C 2403   4.031   8.696   8.428 -1.0026 -0.1045 -0.3845
   19MOL0     C 2404   3.910   8.709   8.363  0.4726 -0.8977 -0.0859
   19MOL0     C 2405   3.799   8.777   8.425  0.6647 -1.5514 -0.1614
   19MOL0     O 2406   3.697   8.817   8.347 -0.1169 -0.1504  0.2706
   19MOL0     C 2407   3.571   8.845   8.398  0.1356  0.0064  1.3511
   19MOL0     C 2408   3.517   8.795   8.519  0.8162 -0.2609  0.4691
   19MOL0     C 2409   3.388   8.840   8.553  0.0962 -0.7906  0.6406
   19MOL0     C 2410   3.308   8.919   8.463 -0.4426  0.0777 -0.8435
   19MOL0     O 2411   3.181   8.956   8.511  0.3604  0.2241 -0.6066
   19MOL0     C 2412   3.108   9.057   8.429  0.1331 -0.0659  0.2808
   19MOL0     C 2413   2.957   9.061   8.452 -0.1004  0.1229 -0.4629
   19MOL0     C 2414   2.887   8.919   8.452  0.0642  0.1866 -0.0651
   19MOL0     C 2415   2.745   8.923   8.419 -0.4381  1.0183 -0.1551
   19MOL0     C 2416   2.662   9.026   8.498  0.7061  0.0220 -0.1946
   19MOL0     C 2417   2.507   8.989   8.490 -0.6870 -0.1032  0.0882
   19MOL0     C 2418   2.443   9.030   8.615  0.8270 -0.0793 -0.3389
   19MOL0     C 2419   2.287   9.000   8.608 -0.1300  0.2300 -0.3276
   19MOL0    Cl 2420   2.214   9.128   8.515  0.3972  0.3307  0.1759
   19MOL0     C 2421   3.365   8.962   8.343 -0.4141  0.5242  0.7778
   19MOL0     C 2422   3.491   8.917   8.303  0.1144  0.5073 -0.6744
   19MOL0     O 2423   3.809   8.804   8.541 -0.4198  0.1677 -0.3136
   19MOL0     C 2424   3.886   8.653   8.241 -0.4363  0.6133  0.1315
   19MOL0     C 2425   3.988   8.592   8.168 -0.2113  0.9870 -0.6316
   19MOL0     N 2426   4.614   8.054   8.192 -0.8428 -0.2042 -0.4380
   19MOL0     N 2427   4.702   7.963   8.208  0.3740  0.3354  0.0962
   19MOL0     C 2428   5.972   7.935   8.424  0.0114  0.3930  0.0680
   19MOL0     C 2429   6.090   7.897   8.488  0.1468  0.3710  0.1707
   19MOL0     C 2430   6.554   7.919   8.528  0.2095  1.3162 -0.1711
   19MOL0     C 2431   6.643   8.033   8.517  0.6312  1.0545 -0.7827
   19MOL0     C 2432   6.773   8.022   8.574  0.5855 -0.1499  0.3788
   19MOL0     C 2433   6.817   7.905   8.634 -0.0902 -0.3319  0.4357
   19MOL0     O 2434   6.939   7.895   8.694  0.2310 -0.8031 -0.2001
   19MOL0     C 2435   7.035   7.801   8.638 -0.0524  0.0454  0.4757
   19MOL0     C 2436   7.169   7.863   8.632  0.0367 -0.9749 -0.3635
   19MOL0     C 2437   7.280   7.767   8.623 -0.1317  0.5065 -0.8841
   19MOL0     C 2438   7.302   7.687   8.753  0.3618 -0.4071  0.1162
   19MOL0     C 2439   7.425   7.608   8.766 -0.1667  0.2629  0.6271
   19MOL0     C 2440   7.513   7.536   8.778  1.0117  0.1916  0.0142
   19MOL0     C 2441   6.731   7.791   8.638  0.5438 -0.7070 -0.7964
   19MOL0     C 2442   6.606   7.796   8.581  0.1740  0.0714 -0.1428
   19MOL0     H 2443   6.290   7.810   8.241  0.0595  0.2553  0.6510
   19MOL0     H 2444   6.063   7.840   8.117  0.9049 -1.1793  1.1870
   19MOL0     H 2445   5.732   8.014   8.359  2.9306 -1.3161  0.1092
   19MOL0     H 2446   5.694   7.845   8.330 -1.3709 -0.3413 -1.9026
   19MOL0     H 2447   5.618   7.911   8.088  1.4728 -0.2012  0.2054
   19MOL0     H 2448   5.653   8.075   8.137  4.9784 -1.6720 -0.6823
   19MOL0     H 2449   5.488   8.059   8.319 -3.5964  0.1584  1.2727
   19MOL0     H 2450   5.472   7.880   8.293 -0.5769 -0.0113 -0.8589
   19MOL0     H 2451   5.387   8.088   8.108 -0.1617  1.9531  2.0774
   19MOL0     H 2452   5.365   7.921   8.081 -0.7603 -0.3723  1.5686
   19MOL0     H 2453   5.252   8.080   8.306 -1.1869  0.0299  1.5483
   19MOL0     H 2454   5.249   7.907   8.308 -0.4866 -1.6052 -2.4170
   19MOL0     H 2455   5.137   8.017   8.048 -2.1074  3.0250 -0.3221
   19MOL0     H 2456   5.072   8.103   8.188  1.4628  0.9689 -0.1051
   19MOL0     H 2457   5.095   7.799   8.175  0.3526  0.0066 -0.6136
   19MOL0     H 2458   4.990   7.909   8.285  2.5144  1.3480  1.1434
   19MOL0     H 2459   4.870   7.779   8.105  0.5116  1.0274  2.4996
   19MOL0     H 2460   4.961   7.888   7.992  4.0880  1.0303  1.2554
   19MOL0     H 2461   4.833   8.131   7.960  2.4637 -2.6546  0.5229
   19MOL0     H 2462   4.525   8.221   7.925 -1.2191  0.8068 -0.1819
   19MOL0     H 2463   4.645   8.330   7.995 -0.3577 -0.0423  0.6242
   19MOL0     H 2464   4.500   8.383   8.191 -0.2820  0.8249 -0.6077
   19MOL0     H 2465   4.401   8.240   8.157  0.0424  0.1798 -0.9457
   19MOL0     H 2466   4.424   8.507   7.995 -1.0480  0.2772 -1.2083
   19MOL0     H 2467   4.370   8.361   7.924 -2.7264  0.6282 -0.4322
   19MOL0     H 2468   4.180   8.346   8.110 -2.5604  1.2442  1.3972
   19MOL0     H 2469   4.164   8.471   7.988 -2.3297 -2.0588  1.3691
   19MOL0     H 2470   4.239   8.630   8.403  0.2328  0.9717 -0.9336
   19MOL0     H 2471   4.042   8.738   8.527  1.9008 -0.4714 -0.4704
   19MOL0     H 2472   3.588   8.741   8.580  0.4329 -4.8202 -2.6258
   19MOL0     H 2473   3.351   8.811   8.651  2.8513 -3.9872  0.9416
   19MOL0     H 2474   3.116   9.034   8.322  0.0448  1.6781 -0.1296
   19MOL0     H 2475   3.151   9.157   8.439 -0.0882  0.1669 -0.9031
   19MOL0     H 2476   2.922   9.107   8.359  0.4569  1.3344 -0.0857
   19MOL0     H 2477   2.948   9.120   8.544  2.5434 -0.4614  0.2505
   19MOL0     H 2478   2.892   8.868   8.549 -2.1396  0.8940  0.4521
   19MOL0     H 2479   2.937   8.857   8.377  0.2636 -0.0069  0.2237
   19MOL0     H 2480   2.724   8.926   8.312  0.6020  0.3357 -0.3921
   19MOL0     H 2481   2.713   8.822   8.445 -0.6939  1.9993  4.1643
   19MOL0     H 2482   2.683   9.125   8.455  0.0736  1.4873  2.5882
   19MOL0     H 2483   2.688   9.025   8.605  0.1777 -1.6919 -0.0619
   19MOL0     H 2484   2.509   8.880   8.496 -1.0647 -0.0789  0.7167
   19MOL0     H 2485   2.467   9.017   8.392  0.3792  1.2416  0.0105
   19MOL0     H 2486   2.491   8.983   8.701 -1.9341  0.8296  1.8570
   19MOL0     H 2487   2.465   9.137   8.619 -2.5317  0.6828  0.7130
   19MOL0     H 2488   2.240   9.016   8.706  1.8734  1.4692  0.5018
   19MOL0     H 2489   2.274   8.899   8.570  2.0224  0.2600 -1.3003
   19MOL0     H 2490   3.318   9.024   8.267  2.1862  1.1992 -0.4173
   19MOL0     H 2491   3.530   8.950   8.208  1.7827  1.5872  0.3314
   19MOL0     H 2492   3.788   8.661   8.195  0.5099  3.0615 -1.6574
   19MOL0     H 2493   3.971   8.534   8.078  0.0596 -1.0099  0.5382
   19MOL0     H 2494   5.898   7.990   8.481 -0.2968  0.2023 -0.1459
   19MOL0     H 2495   6.092   7.925   8.593 -2.1933  0.6839  0.1961
   19MOL0     H 2496   6.611   8.125   8.471 -0.3136  1.3396  0.3913
   19MOL0     H 2497   6.843   8.105   8.571 -0.8885  1.2316  2.0449
   19MOL0     H 2498   7.007   7.764   8.539 -2.8243 -1.3805  1.6803
   19MOL0     H 2499   7.046   7.722   8.713 -1.1034 -0.4649  0.1107
   19MOL0     H 2500   7.177   7.941   8.555 -1.3048  0.7620  1.1442
   19MOL0     H 2501   7.177   7.917   8.727 -1.6948  0.8456 -1.1621
   19MOL0     H 2502   7.369   7.810   8.576 -1.3786  0.4651 -3.4468
   19MOL0     H 2503   7.248   7.696   8.546  2.5565 -1.6190 -0.1818
   19MOL0     H 2504   7.297   7.756   8.838  1.7568 -0.5397  0.3289
   19MOL0     H 2505   7.224   7.610   8.750  0.8101 -0.8610 -0.2083
   19MOL0     H 2506   7.581   7.454   8.789 -0.5781 -0.9615  1.9911
   19MOL0     H 2507   6.770   7.700   8.681 -1.9887 -2.1745 -1.4158
   19MOL0     H 2508   6.550   7.705   8.563 -0.1954  0.4980 -1.1920
   20MOL0     O 2509   6.761   3.571   9.920 -0.0784 -0.0410  0.1352
   20MOL0     C 2510   6.813   3.522   9.823  0.1407  0.5304 -0.1435
   20MOL0     O 2511   6.764   3.509   9.690 -0.0411 -0.2182  0.1060
   20MOL0     C 2512   6.631   3.533   9.668  0.4690  1.2843  0.1772
   20MOL0     C 2513   6.570   3.654   9.705 -0.2118 -0.8851  0.7340
   20MOL0     C 2514   6.436   3.682   9.681  0.5146 -1.3261  0.5396
   20MOL0     C 2515   6.361   3.586   9.620  0.4644  0.1637  0.1877
   20MOL0     O 2516   6.226   3.597   9.590  0.0952 -0.4206 -0.0458
   20MOL0     C 2517   6.144   3.597   9.705 -0.1250  0.3311  0.0263
   20MOL0     C 2518   5.998   3.590   9.666 -0.3635  0.3893 -0.1865
   20MOL0     C 2519   5.932   3.734   9.647  1.0574 -0.0819 -0.5892
   20MOL0     C 2520   5.782   3.713   9.634 -0.1462 -0.9641  0.1765
   20MOL0     C 2521   5.711   3.839   9.593 -0.3252 -0.6412  0.3658
   20MOL0     C 2522   5.558   3.843   9.585  0.4570  0.4933 -0.5576
   20MOL0     C 2523   5.513   3.959   9.507  0.0575  0.8920 -0.0440
   20MOL0     C 2524   5.354   3.942   9.485 -0.2731  0.2177 -0.0138
   20MOL0     N 2525   5.302   4.057   9.404  0.6360  0.1325 -0.1641
   20MOL0     C 2526   5.309   4.190   9.440  0.4535  1.0883  0.2380
   20MOL0     C 2527   5.289   4.259   9.319 -0.2288  0.6130  0.3453
   20MOL0     C 2528   5.300   4.410   9.304 -0.5418 -0.4814  1.0396
   20MOL0     C 2529   5.430   4.441   9.221 -0.5218  0.0567 -0.4992
   20MOL0     C 2530   5.549   4.427   9.316 -1.0827  0.2287 -0.1784
   20MOL0     C 2531   5.682   4.465   9.239 -0.3970 -0.4455  0.7459
   20MOL0     O 2532   5.809   4.422   9.304  0.4964  0.7078 -0.2924
   20MOL0     C 2533   5.928   4.418   9.234  0.1274  0.9804 -0.0488
   20MOL0     C 2534   5.947   4.465   9.098 -0.0368  0.3145  0.3686
   20MOL0     C 2535   6.074   4.450   9.031 -0.7320  1.0937  0.4558
   20MOL0     C 2536   6.172   4.371   9.095  0.3848  0.4061 -0.3295
   20MOL0     C 2537   6.299   4.349   9.030  0.4244  0.4754  0.5701
   20MOL0     O 2538   6.358   4.227   9.076  0.4169 -0.3666 -0.1369
   20MOL0     C 2539   6.486   4.201   9.040  0.6073 -0.4978  0.0368
   20MOL0     C 2540   6.528   4.073   9.029  0.0739  0.0033  1.1208
   20MOL0     C 2541   6.663   4.045   9.008 -0.2069  0.0187 -0.6511
   20MOL0     C 2542   6.759   4.144   8.994  0.6044 -0.1211 -0.5328
   20MOL0     O 2543   6.899   4.121   8.971  0.5852 -0.1580 -0.4646
   20MOL0     C 2544   6.941   3.991   8.939  0.2851 -0.0431 -0.1972
   20MOL0     C 2545   7.084   3.992   8.867 -0.5178 -0.2261  0.9161
   20MOL0     C 2546   7.197   4.015   8.966  0.2174 -0.1739  1.0902
   20MOL0     C 2547   7.200   4.154   9.034 -0.5281 -0.5774 -0.1418
   20MOL0     C 2548   7.190   4.143   9.187 -0.0330  0.5850  0.4386
   20MOL0     C 2549   7.162   4.278   9.248  0.4589 -0.0823 -1.2353
   20MOL0     C 2550   7.101   4.265   9.394 -0.1841  0.2295  0.0883
   20MOL0     C 2551   6.956   4.224   9.405 -0.3048 -0.4157  0.6989
   20MOL0    Cl 2552   6.833   4.321   9.315 -0.0073  0.2377  0.0487
   20MOL0     C 2553   6.716   4.273   8.994 -0.1016  0.7155  0.0555
   20MOL0     C 2554   6.584   4.301   9.017  0.4407 -0.0110  0.2086
   20MOL0     O 2555   6.321   4.411   8.927  0.0019  0.4563 -0.2458
   20MOL0     C 2556   6.158   4.330   9.229 -0.1937 -0.3766 -0.8560
   20MOL0     C 2557   6.040   4.356   9.297  0.1067  0.1953 -0.3037
   20MOL0     N 2558   5.272   4.167   9.221 -0.1063  0.7098 -0.2851
   20MOL0     N 2559   5.290   4.050   9.271 -0.4830  0.5680 -0.2504
   20MOL0     C 2560   6.417   3.462   9.583 -0.5264  0.1944  0.2256
   20MOL0     C 2561   6.554   3.438   9.598 -0.3675 -0.1732  0.0227
   20MOL0     C 2562   6.938   3.437   9.852 -0.0405  0.2446  0.2886
   20MOL0     C 2563   7.031   3.412   9.748  0.3531 -0.3222 -0.1142
   20MOL0     C 2564   7.146   3.335   9.775 -0.1264 -0.1572  1.0727
   20MOL0     C 2565   7.165   3.273   9.902  0.6430  0.4907  0.2163
   20MOL0     O 2566   7.264   3.177   9.930  0.2263  0.0355 -0.0775
   20MOL0     C 2567   7.395   3.212   9.890  0.2311 -0.3139 -0.0719
   20MOL0     C 2568   7.477   3.276  10.006  0.7366 -0.5411  0.4419
   20MOL0     C 2569   7.608   3.345   9.950  0.6536  1.2397 -0.4338
   20MOL0     C 2570   7.688   3.395  10.068 -0.0349 -0.2725  0.3475
   20MOL0     C 2571   7.808   3.468  10.039 -0.1485 -0.3082 -0.2233
   20MOL0     C 2572   7.906   3.534  10.007  0.6480  0.5182  0.1153
   20MOL0     C 2573   7.063   3.283   9.997  0.2255  0.6691 -0.3897
   20MOL0     C 2574   6.956   3.374   9.978 -0.4826 -0.0192 -0.8025
   20MOL0     H 2575   6.636   3.720   9.761  0.7700  0.0266 -1.3820
   20MOL0     H 2576   6.379   3.772   9.702 -4.2175 -3.7202 -0.6335
   20MOL0     H 2577   6.164   3.682   9.770 -2.2899 -0.3242  1.6791
   20MOL0     H 2578   6.161   3.507   9.766  0.8790  1.5551  1.6172
   20MOL0     H 2579   5.954   3.539   9.752  1.4187 -2.1382 -0.6449
   20MOL0     H 2580   5.979   3.528   9.577 -2.2834  0.7948 -0.1036
   20MOL0     H 2581   5.962   3.786   9.556 -3.7130 -2.2742 -3.8182
   20MOL0     H 2582   5.932   3.805   9.731 -3.0685  3.5038 -3.2179
   20MOL0     H 2583   5.752   3.633   9.566  1.4651 -0.5561 -1.0687
   20MOL0     H 2584   5.762   3.697   9.740  2.6493  0.7644  1.0390
   20MOL0     H 2585   5.746   3.839   9.489  0.6397  0.8106  0.6583
   20MOL0     H 2586   5.739   3.927   9.651  2.8316 -0.8299 -0.6668
   20MOL0     H 2587   5.520   3.860   9.687  1.1000 -1.1301 -0.0163
   20MOL0     H 2588   5.513   3.749   9.552 -0.6867 -0.5078  3.2875
   20MOL0     H 2589   5.542   4.048   9.565  0.8649  0.0135  0.9291
   20MOL0     H 2590   5.566   3.959   9.411  0.4838  0.1223  0.1880
   20MOL0     H 2591   5.295   3.933   9.577  1.7465  0.7637  1.4236
   20MOL0     H 2592   5.342   3.846   9.435  0.0645 -0.3458  0.9499
   20MOL0     H 2593   5.343   4.215   9.541  2.5760 -0.3407 -0.0406
   20MOL0     H 2594   5.290   4.468   9.395  0.1279 -1.2168  1.6059
   20MOL0     H 2595   5.221   4.449   9.239  0.6715  3.2722  1.6232
   20MOL0     H 2596   5.425   4.546   9.191 -1.5445 -0.0169 -0.6252
   20MOL0     H 2597   5.430   4.376   9.133  0.1150 -0.2602 -0.2714
   20MOL0     H 2598   5.522   4.490   9.401  0.6931 -0.6552  1.1108
   20MOL0     H 2599   5.545   4.325   9.354  0.1229  0.2506  0.0613
   20MOL0     H 2600   5.691   4.573   9.226  0.1647 -0.6600 -0.8514
   20MOL0     H 2601   5.675   4.419   9.140  1.0724  0.6803  0.0785
   20MOL0     H 2602   5.860   4.514   9.056  0.7925  2.0157  0.5569
   20MOL0     H 2603   6.087   4.497   8.933 -0.3467 -0.2192 -0.1434
   20MOL0     H 2604   6.470   3.983   9.049  1.2508 -0.8447  0.8631
   20MOL0     H 2605   6.694   3.941   9.012 -1.7596 -0.4323  1.3870
   20MOL0     H 2606   6.873   3.954   8.861  1.0605 -0.9151 -0.4822
   20MOL0     H 2607   6.942   3.919   9.021 -3.3485 -0.6779 -0.5786
   20MOL0     H 2608   7.073   4.077   8.799 -1.8267 -1.8599 -1.0465
   20MOL0     H 2609   7.106   3.904   8.805 -0.1608 -0.1292  0.9078
   20MOL0     H 2610   7.293   3.999   8.916  0.3268 -1.8200  1.7868
   20MOL0     H 2611   7.173   3.940   9.041 -0.1594  1.4778  2.6997
   20MOL0     H 2612   7.295   4.200   9.005 -0.1847 -2.4668 -2.2884
   20MOL0     H 2613   7.127   4.217   8.982 -2.6645 -1.7885  1.2468
   20MOL0     H 2614   7.281   4.096   9.223  0.0750  0.9761  0.6870
   20MOL0     H 2615   7.107   4.078   9.217 -0.4903  1.2606  0.6600
   20MOL0     H 2616   7.098   4.334   9.179  0.2328  1.8453  0.4216
   20MOL0     H 2617   7.254   4.335   9.267 -0.0309 -0.1273  1.6818
   20MOL0     H 2618   7.171   4.211   9.458  1.6872  2.5465  0.1317
   20MOL0     H 2619   7.104   4.368   9.431  1.8335 -0.1627  1.1400
   20MOL0     H 2620   6.919   4.206   9.506 -1.9742 -0.6687  0.0827
   20MOL0     H 2621   6.944   4.132   9.347  1.8116 -1.3246  1.6030
   20MOL0     H 2622   6.793   4.349   8.987  1.0660 -0.5512 -1.8187
   20MOL0     H 2623   6.576   4.408   9.005  1.9753  0.2757  1.4951
   20MOL0     H 2624   6.240   4.291   9.289  0.3678  1.4387 -0.3623
   20MOL0     H 2625   6.020   4.327   9.400 -2.2201 -2.3913 -1.3475
   20MOL0     H 2626   6.359   3.386   9.532 -0.8967  0.7511 -0.1989
   20MOL0     H 2627   6.603   3.350   9.558 -1.1258 -0.1250 -1.0548
   20MOL0     H 2628   7.017   3.464   9.654  0.6711  0.9788  0.5324
   20MOL0     H 2629   7.221   3.313   9.700 -0.9458 -0.8150  0.4325
   20MOL0     H 2630   7.395   3.272   9.798  1.3810 -0.1988 -0.0165
   20MOL0     H 2631   7.439   3.121   9.847  1.3085 -0.2919  0.9443
   20MOL0     H 2632   7.418   3.353  10.056 -1.0158 -2.2905  1.1921
   20MOL0     H 2633   7.486   3.197  10.081 -0.5436  1.0571  2.3835
   20MOL0     H 2634   7.579   3.415   9.871  0.2174  0.1121 -1.3091
   20MOL0     H 2635   7.661   3.263   9.900  1.4257  2.3431 -1.4825
   20MOL0     H 2636   7.622   3.453  10.133 -0.9368  2.0604 -2.4460
   20MOL0     H 2637   7.723   3.305  10.119 -1.0557  0.2174  1.9928
   20MOL0     H 2638   7.996   3.586   9.984 -0.4768  1.6674 -2.0752
   20MOL0     H 2639   7.076   3.225  10.087 -0.3982  2.1565  0.7030
   20MOL0     H 2640   6.878   3.394  10.050  1.6644 -3.8126  3.0125
   21MOL0     O 2641  11.214   8.225   7.734 -0.0627 -0.4601  0.9158
   21MOL0     C 2642  11.231   8.351   7.731  0.6785 -0.4744 -0.9746
   21MOL0     O 2643  11.129   8.448   7.714 -0.1128  0.6407 -0.3379
   21MOL0     C 2644  11.002   8.395   7.702  0.6873  0.1925 -1.1840
   21MOL0     C 2645  10.948   8.387   7.572 -0.2271 -0.3206  1.0946
   21MOL0     C 2646  10.809   8.358   7.548  0.0285 -0.6154 -0.1019
   21MOL0     C 2647  10.725   8.314   7.656 -0.2804 -0.6675 -0.7591
   21MOL0     O 2648  10.599   8.265   7.625 -0.0858  0.6468 -0.4351
   21MOL0     C 2649  10.534   8.175   7.719  0.7577  0.2044 -0.2590
   21MOL0     C 2650  10.594   8.031   7.693  0.0286 -0.0775  0.3258
   21MOL0     C 2651  10.535   7.977   7.575 -0.2505  0.8701 -0.2590
   21MOL0     C 2652  10.550   7.827   7.591  0.3163 -0.3063  0.2802
   21MOL0     C 2653  10.476   7.755   7.469 -0.2718 -0.4788  1.3630
   21MOL0     C 2654  10.497   7.604   7.477  0.2955  0.3873  0.2383
   21MOL0     C 2655  10.462   7.539   7.345  0.6735  0.4332 -0.4729
   21MOL0     C 2656  10.515   7.399   7.351 -0.7638 -0.7885  0.4509
   21MOL0     N 2657  10.417   7.314   7.425  0.4742  0.1861 -0.7005
   21MOL0     C 2658  10.336   7.209   7.372 -0.0956 -0.8607 -0.4386
   21MOL0     C 2659  10.297   7.148   7.485  0.2063 -0.0807  1.3534
   21MOL0     C 2660  10.208   7.026   7.469  0.4224 -0.2739  0.3162
   21MOL0     C 2661  10.166   6.988   7.613  0.2230 -0.2536  0.5739
   21MOL0     C 2662  10.072   7.096   7.680 -0.4110  0.8963 -0.0867
   21MOL0     C 2663  10.059   7.047   7.829 -0.0234 -0.4857  0.0480
   21MOL0     O 2664   9.995   6.911   7.842 -0.0833 -0.8651 -0.1720
   21MOL0     C 2665   9.855   6.897   7.836 -0.9479 -0.4447  0.0393
   21MOL0     C 2666   9.817   6.763   7.856 -1.2621  0.5736  0.3073
   21MOL0     C 2667   9.684   6.724   7.828 -0.0448 -0.1992 -0.4041
   21MOL0     C 2668   9.586   6.826   7.801 -0.7317  0.5709  0.7222
   21MOL0     C 2669   9.437   6.798   7.782 -0.7789  0.3919 -0.5417
   21MOL0     O 2670   9.392   6.676   7.828 -0.0494 -0.2799 -0.7059
   21MOL0     C 2671   9.258   6.640   7.818 -0.5950  0.2750  0.8226
   21MOL0     C 2672   9.227   6.530   7.730  0.0711  0.3488 -0.5382
   21MOL0     C 2673   9.097   6.491   7.728  0.0433 -0.1320  1.0262
   21MOL0     C 2674   8.990   6.561   7.791  1.1879 -0.7009 -0.0832
   21MOL0     O 2675   8.860   6.512   7.780  0.3288 -0.1575  0.2992
   21MOL0     C 2676   8.786   6.502   7.901 -0.5792 -0.4289  0.2623
   21MOL0     C 2677   8.662   6.403   7.894  0.0250 -0.0295  0.7418
   21MOL0     C 2678   8.558   6.467   7.788 -0.0426 -0.1258  0.8649
   21MOL0     C 2679   8.428   6.399   7.817  0.3320  0.5969  0.4578
   21MOL0     C 2680   8.348   6.449   7.935 -1.5050 -0.0729 -0.2726
   21MOL0     C 2681   8.221   6.377   7.946  0.3468  0.0058 -0.4418
   21MOL0     C 2682   8.230   6.229   7.976 -0.4086 -0.3996  0.2525
   21MOL0     C 2683   8.111   6.161   8.055 -0.3788  0.1779  0.3785
   21MOL0    Cl 2684   7.964   6.203   7.960 -0.0651 -0.2308  0.2618
   21MOL0     C 2685   9.025   6.661   7.878  0.3278  0.7538 -0.2904
   21MOL0     C 2686   9.155   6.708   7.889 -0.3278 -0.3558  0.2035
   21MOL0     O 2687   9.361   6.883   7.731  0.1654  0.3177  0.1654
   21MOL0     C 2688   9.632   6.958   7.799  0.8745 -0.1172  0.2863
   21MOL0     C 2689   9.761   6.991   7.800 -0.5243 -0.0146 -0.7013
   21MOL0     N 2690  10.350   7.207   7.598  0.5308 -0.1015 -0.2700
   21MOL0     N 2691  10.419   7.301   7.562  0.2616  0.3741  0.5484
   21MOL0     C 2692  10.783   8.324   7.786 -0.1420  0.2458 -0.1518
   21MOL0     C 2693  10.918   8.359   7.810  0.4651  0.4366 -0.6482
   21MOL0     C 2694  11.364   8.398   7.763 -1.1063  0.3264  0.1698
   21MOL0     C 2695  11.404   8.528   7.728  0.2462 -0.3881  0.0765
   21MOL0     C 2696  11.538   8.567   7.748  0.0672  0.4665  0.7689
   21MOL0     C 2697  11.628   8.482   7.819  0.1748 -0.5551 -0.1047
   21MOL0     O 2698  11.755   8.515   7.865 -0.0538 -0.7446  1.0066
   21MOL0     C 2699  11.789   8.657   7.862  1.2494  0.3180  0.4804
   21MOL0     C 2700  11.943   8.670   7.908  0.4449  0.6907  0.1926
   21MOL0     C 2701  11.964   8.815   7.922 -0.5283  0.2616 -0.3908
   21MOL0     C 2702  12.053   8.851   7.799 -0.1471  0.0127 -0.7962
   21MOL0     C 2703  12.070   8.998   7.785 -1.1554  0.1307  0.0431
   21MOL0     C 2704  12.076   9.121   7.772  0.2443  0.0153  0.4512
   21MOL0     C 2705  11.586   8.355   7.858 -0.7131  0.2764 -0.8737
   21MOL0     C 2706  11.461   8.314   7.826 -0.0889  0.4072  0.1249
   21MOL0     H 2707  11.013   8.404   7.487  1.0319 -1.3552  1.8043
   21MOL0     H 2708  10.779   8.365   7.444  0.9799  0.1997 -0.3441
   21MOL0     H 2709  10.426   8.176   7.700  0.4424  1.3337  1.3902
   21MOL0     H 2710  10.547   8.218   7.819  4.4477  1.5143 -1.1624
   21MOL0     H 2711  10.573   7.972   7.782  1.2419 -0.3520  0.4517
   21MOL0     H 2712  10.703   8.024   7.691 -0.0583 -1.4255 -0.5338
   21MOL0     H 2713  10.578   8.021   7.484  1.1414 -0.6443 -0.3767
   21MOL0     H 2714  10.427   7.991   7.586  0.0913  2.3786  1.6727
   21MOL0     H 2715  10.655   7.804   7.570  0.4333  1.8091 -1.9245
   21MOL0     H 2716  10.504   7.779   7.678 -0.5942 -1.4241 -0.7751
   21MOL0     H 2717  10.516   7.801   7.378  0.8220 -1.6319  1.2412
   21MOL0     H 2718  10.368   7.772   7.482 -0.2532 -0.3478  1.3506
   21MOL0     H 2719  10.426   7.564   7.550 -2.8022  4.5446 -0.1492
   21MOL0     H 2720  10.601   7.584   7.505  0.5845 -0.2369 -1.1741
   21MOL0     H 2721  10.355   7.545   7.324  0.0835 -1.1562  1.6730
   21MOL0     H 2722  10.504   7.608   7.271  0.5246  1.4572  0.3730
   21MOL0     H 2723  10.610   7.387   7.404  0.1548  3.1160 -0.0479
   21MOL0     H 2724  10.516   7.347   7.255  4.3429 -0.1688 -0.0660
   21MOL0     H 2725  10.310   7.177   7.271  1.0414  2.0026 -1.7677
   21MOL0     H 2726  10.254   6.939   7.421 -0.0471 -0.6004  0.4476
   21MOL0     H 2727  10.127   7.053   7.401  2.6040 -0.0897 -2.3933
   21MOL0     H 2728  10.253   6.972   7.678  1.9980 -0.8516 -1.8211
   21MOL0     H 2729  10.123   6.889   7.598  2.1756 -0.9920 -0.5415
   21MOL0     H 2730  10.107   7.200   7.672  0.3810  0.7332  1.0238
   21MOL0     H 2731   9.976   7.089   7.628 -1.2027  0.0068  1.4459
   21MOL0     H 2732  10.007   7.122   7.888 -1.3549 -1.1497 -0.2387
   21MOL0     H 2733  10.157   7.038   7.877  1.8710  2.3912 -2.8470
   21MOL0     H 2734   9.908   6.706   7.874  0.0234  2.5253  0.3185
   21MOL0     H 2735   9.653   6.620   7.826 -2.7320  0.5312 -2.2103
   21MOL0     H 2736   9.311   6.491   7.675 -1.2905 -0.5729 -2.0687
   21MOL0     H 2737   9.071   6.418   7.652 -1.9397  0.6492  0.9209
   21MOL0     H 2738   8.749   6.598   7.938  0.5133  0.1687 -0.1709
   21MOL0     H 2739   8.840   6.469   7.990 -0.9413  1.7278  1.3432
   21MOL0     H 2740   8.624   6.399   7.997  1.0503  0.8424  1.1718
   21MOL0     H 2741   8.691   6.302   7.862 -0.7628  0.3350 -1.2937
   21MOL0     H 2742   8.590   6.459   7.684 -0.2384  0.5609  0.7510
   21MOL0     H 2743   8.544   6.573   7.810 -1.8156 -0.8571  3.8566
   21MOL0     H 2744   8.361   6.423   7.734 -1.0278  0.2766  1.4280
   21MOL0     H 2745   8.436   6.290   7.816 -3.0542  0.2133 -1.7529
   21MOL0     H 2746   8.336   6.557   7.938  1.6895  0.5421 -3.0467
   21MOL0     H 2747   8.399   6.441   8.031  0.8932  5.4877 -0.7138
   21MOL0     H 2748   8.163   6.393   7.855  2.7994 -0.2680 -2.1596
   21MOL0     H 2749   8.174   6.424   8.033 -1.5099  0.3800 -1.5935
   21MOL0     H 2750   8.238   6.181   7.878 -2.0680 -0.4649  0.1301
   21MOL0     H 2751   8.322   6.212   8.033 -1.4272 -3.1990  1.2356
   21MOL0     H 2752   8.097   6.211   8.151 -1.3609  0.9024 -0.1223
   21MOL0     H 2753   8.116   6.052   8.069 -1.0050 -0.4408 -3.2532
   21MOL0     H 2754   8.942   6.712   7.926  0.7519 -0.2023  1.5321
   21MOL0     H 2755   9.184   6.798   7.942  0.4369 -1.6242  2.0628
   21MOL0     H 2756   9.562   7.040   7.785 -0.4074 -1.1164  0.5508
   21MOL0     H 2757   9.794   7.093   7.787 -0.4960 -0.1917 -2.1994
   21MOL0     H 2758  10.734   8.288   7.877  2.1506 -3.2534 -0.1004
   21MOL0     H 2759  10.946   8.342   7.914  0.6547 -1.6355 -1.0010
   21MOL0     H 2760  11.332   8.597   7.684 -2.2649 -2.6739  0.3301
   21MOL0     H 2761  11.566   8.669   7.725  4.6504 -0.7210  0.0440
   21MOL0     H 2762  11.731   8.725   7.926  2.3563  0.3715  1.4323
   21MOL0     H 2763  11.780   8.701   7.761 -0.9793  0.2932  0.6099
   21MOL0     H 2764  11.956   8.632   8.010  1.3379  3.4504  1.1971
   21MOL0     H 2765  12.006   8.617   7.836 -0.7458 -0.7590  0.1702
   21MOL0     H 2766  11.996   8.846   8.022 -0.6600  0.8088 -0.5150
   21MOL0     H 2767  11.871   8.868   7.904 -1.2089 -1.2964 -1.6709
   21MOL0     H 2768  12.154   8.811   7.814  1.4953  3.2362 -2.2303
   21MOL0     H 2769  12.013   8.805   7.708 -3.5714  1.2203 -0.0425
   21MOL0     H 2770  12.092   9.225   7.754 -0.1897 -0.1312 -0.9375
   21MOL0     H 2771  11.655   8.289   7.911 -1.1111  1.4954  1.2874
   21MOL0     H 2772  11.432   8.214   7.857  2.4309 -1.2195 -2.2394
   22MOL0     O 2773   1.276  10.809   2.743 -0.2282  0.0442 -0.1978
   22MOL0     C 2774   1.244  10.798   2.865 -0.8593  0.9940 -0.6201
   22MOL0     O 2775   1.314  10.740   2.965  0.0573 -0.3161 -0.3223
   22MOL0     C 2776   1.444  10.698   2.966  0.5253  0.5023  0.0336
   22MOL0     C 2777   1.500  10.645   3.085 -0.6818  0.1269 -1.4056
   22MOL0     C 2778   1.642  10.606   3.096 -0.0571 -0.8324 -0.1279
   22MOL0     C 2779   1.730  10.628   2.985  0.0668 -0.0719 -0.5211
   22MOL0     O 2780   1.857  10.582   3.005  0.6386  0.4605  0.2478
   22MOL0     C 2781   1.946  10.566   2.903 -0.7539 -0.4849 -0.3237
   22MOL0     C 2782   1.906  10.464   2.798 -0.4632 -0.1883 -0.5743
   22MOL0     C 2783   2.014  10.461   2.698  0.4184  0.3476  0.3558
   22MOL0     C 2784   1.991  10.364   2.581 -0.3231 -0.2780  0.0659
   22MOL0     C 2785   2.088  10.393   2.462  0.2603  0.6943  0.9641
   22MOL0     C 2786   2.035  10.306   2.344 -1.0611 -0.1738 -0.5058
   22MOL0     C 2787   2.132  10.326   2.230  1.8217  0.5541 -0.1948
   22MOL0     C 2788   2.086  10.282   2.089 -0.0060 -0.3717  0.3929
   22MOL0     N 2789   2.034  10.391   2.003  0.5501  0.2507  0.0012
   22MOL0     C 2790   1.907  10.449   2.023  1.3254 -0.3387 -0.4565
   22MOL0     C 2791   1.898  10.525   1.916 -0.8700 -0.3818  1.1952
   22MOL0     C 2792   1.783  10.629   1.877 -0.1904  0.4057 -0.6294
   22MOL0     C 2793   1.760  10.716   2.003  0.1532 -0.4373 -0.1948
   22MOL0     C 2794   1.639  10.812   1.969  0.1443  0.4091 -1.0416
   22MOL0     C 2795   1.631  10.920   2.070 -0.4879  0.2497 -0.1338
   22MOL0     O 2796   1.603  10.865   2.205  0.0172  0.2461  0.2357
   22MOL0     C 2797   1.468  10.849   2.228  0.3497 -0.5586  0.4609
   22MOL0     C 2798   1.433  10.788   2.346  0.6667 -0.2188 -0.4398
   22MOL0     C 2799   1.305  10.760   2.372  0.0038 -0.0091 -0.0182
   22MOL0     C 2800   1.200  10.825   2.298  0.4426  0.9789  0.0341
   22MOL0     C 2801   1.056  10.797   2.351 -0.4261  0.1413 -0.2198
   22MOL0     O 2802   0.965  10.887   2.306 -0.8574  0.1746  0.0617
   22MOL0     C 2803   0.836  10.861   2.340  1.1308  0.1594  0.2950
   22MOL0     C 2804   0.745  10.888   2.244 -0.3708  0.8950  0.0233
   22MOL0     C 2805   0.610  10.882   2.255 -0.3032  0.1834  0.3309
   22MOL0     C 2806   0.552  10.857   2.378 -0.0639  0.0742 -0.9477
   22MOL0     O 2807   0.417  10.867   2.406 -0.1749  0.3165 -0.1652
   22MOL0     C 2808   0.357  10.787   2.507  0.1208  0.1142  0.4224
   22MOL0     C 2809   0.210  10.778   2.477  0.6556  0.5072 -0.5541
   22MOL0     C 2810   0.137  10.700   2.581  0.2555  0.0314  0.9707
   22MOL0     C 2811  -0.013  10.695   2.527  0.2819  0.9092 -0.5058
   22MOL0     C 2812  -0.099  10.642   2.645 -0.8191 -0.4112  0.1863
   22MOL0     C 2813  -0.243  10.667   2.612  0.3473 -0.3919 -0.5647
   22MOL0     C 2814  -0.329  10.597   2.727 -0.2773 -0.9014 -0.2394
   22MOL0     C 2815  -0.450  10.688   2.759 -0.1262 -0.0465 -0.2268
   22MOL0    Cl 2816  -0.400  10.811   2.865  0.1626 -0.2307 -0.0786
   22MOL0     C 2817   0.642  10.832   2.478  0.2656  0.5521 -0.5010
   22MOL0     C 2818   0.782  10.834   2.467 -0.4451 -0.4279 -0.7976
   22MOL0     O 2819   1.029  10.687   2.400 -0.7333  1.2453  0.3378
   22MOL0     C 2820   1.233  10.881   2.174  2.0194  0.5872 -0.2073
   22MOL0     C 2821   1.365  10.890   2.139  0.5743 -0.3899 -0.5829
   22MOL0     N 2822   2.015  10.519   1.834  0.3605 -0.5285 -0.9787
   22MOL0     N 2823   2.083  10.417   1.880  0.7440 -0.2724  0.1022
   22MOL0     C 2824   1.673  10.680   2.872 -0.1482  0.2495  0.2925
   22MOL0     C 2825   1.537  10.713   2.864  0.2822 -0.1704 -0.7495
   22MOL0     C 2826   1.116  10.832   2.919  0.2395 -0.8448 -0.1599
   22MOL0     C 2827   1.001  10.867   2.837 -0.9726 -1.0938 -0.1343
   22MOL0     C 2828   0.872  10.885   2.884  0.1511 -0.2645  0.4705
   22MOL0     C 2829   0.847  10.874   3.027  1.0853 -0.0781  0.8588
   22MOL0     O 2830   0.724  10.884   3.079  0.8096 -0.2325 -0.2154
   22MOL0     C 2831   0.701  11.017   3.134  0.2637  0.8356 -0.2788
   22MOL0     C 2832   0.727  11.022   3.288  0.5038 -0.5248 -0.3616
   22MOL0     C 2833   0.713  11.161   3.340 -0.1379 -0.1997  1.2094
   22MOL0     C 2834   0.823  11.264   3.291  0.0018 -0.6176  0.4174
   22MOL0     C 2835   0.800  11.396   3.350 -0.1563 -0.9777 -0.3097
   22MOL0     C 2836   0.779  11.508   3.403 -0.5340 -0.1425 -0.1131
   22MOL0     C 2837   0.950  10.836   3.103 -0.7359 -0.1795  0.3044
   22MOL0     C 2838   1.085  10.830   3.053 -0.1457  0.0074 -0.8378
   22MOL0     H 2839   1.418  10.641   3.156 -1.8420  0.8732 -2.6798
   22MOL0     H 2840   1.667  10.542   3.180 -1.0937  0.5449  1.3119
   22MOL0     H 2841   2.045  10.538   2.942 -1.2671  2.5137  3.8962
   22MOL0     H 2842   1.973  10.664   2.864 -1.4922 -0.2649 -0.2908
   22MOL0     H 2843   1.810  10.493   2.754 -0.3738  0.8369 -0.1209
   22MOL0     H 2844   1.900  10.377   2.864  1.6782  0.3195  0.3813
   22MOL0     H 2845   2.113  10.445   2.743  1.4883 -1.7434 -2.4125
   22MOL0     H 2846   2.026  10.555   2.643 -0.3533 -1.1949 -2.7121
   22MOL0     H 2847   1.997  10.261   2.618 -1.3953 -0.1149  0.7437
   22MOL0     H 2848   1.886  10.366   2.551 -1.0281 -0.3361  2.2969
   22MOL0     H 2849   2.186  10.350   2.486  0.6443  1.6920  1.2416
   22MOL0     H 2850   2.084  10.499   2.435 -1.2869 -0.0214 -1.9953
   22MOL0     H 2851   1.931  10.331   2.321 -0.5473  2.0322 -0.6931
   22MOL0     H 2852   2.043  10.200   2.367  2.4887  0.4493  1.8566
   22MOL0     H 2853   2.167  10.427   2.205  1.2444  0.8733  0.2668
   22MOL0     H 2854   2.214  10.259   2.257 -0.1190 -0.2099  5.0003
   22MOL0     H 2855   2.015  10.200   2.087  0.6672 -0.9847  0.8947
   22MOL0     H 2856   2.176  10.240   2.043 -0.7693 -1.5234 -0.0725
   22MOL0     H 2857   1.835  10.444   2.103  3.4046 -3.0945  1.4100
   22MOL0     H 2858   1.694  10.575   1.842  0.5725 -1.6762  0.4544
   22MOL0     H 2859   1.812  10.692   1.793 -0.7143 -0.9445 -1.8697
   22MOL0     H 2860   1.848  10.769   2.041  0.3906 -1.8893  1.4120
   22MOL0     H 2861   1.736  10.651   2.088  2.9652 -3.7242 -1.6474
   22MOL0     H 2862   1.667  10.853   1.872  2.7732 -0.4267 -0.6942
   22MOL0     H 2863   1.548  10.753   1.955 -1.8503  2.5532  1.6030
   22MOL0     H 2864   1.570  11.008   2.048 -0.2318  0.8934  1.5117
   22MOL0     H 2865   1.732  10.963   2.075 -0.3663 -0.0082 -0.3200
   22MOL0     H 2866   1.511  10.758   2.415 -0.5331 -3.4063 -0.2789
   22MOL0     H 2867   1.285  10.702   2.462  1.5208 -1.4767 -0.5623
   22MOL0     H 2868   0.777  10.907   2.142  2.9009  1.9656  1.1335
   22MOL0     H 2869   0.549  10.905   2.168 -1.5439  0.8865  1.3449
   22MOL0     H 2870   0.380  10.831   2.605  1.4029 -2.1463  1.2101
   22MOL0     H 2871   0.395  10.685   2.501 -0.2385  0.0526 -2.6315
   22MOL0     H 2872   0.204  10.726   2.381 -0.3507  0.7024 -0.6107
   22MOL0     H 2873   0.164  10.877   2.476 -1.8209 -0.4601  2.8551
   22MOL0     H 2874   0.139  10.755   2.675 -1.1455 -2.3595  2.4891
   22MOL0     H 2875   0.180  10.600   2.589  1.5556  0.5842  1.0292
   22MOL0     H 2876  -0.044  10.798   2.505  3.5207  2.3253  0.7793
   22MOL0     H 2877  -0.025  10.627   2.443  0.9798  0.7221 -0.4606
   22MOL0     H 2878  -0.077  10.705   2.732  0.6631 -1.0426  0.3121
   22MOL0     H 2879  -0.063  10.539   2.658  2.5723  0.2405 -2.4116
   22MOL0     H 2880  -0.271  10.622   2.516 -0.1756  0.3825 -0.7871
   22MOL0     H 2881  -0.281  10.769   2.615  1.3643 -0.0178  2.8265
   22MOL0     H 2882  -0.379  10.507   2.690  0.2552 -0.8027 -1.2347
   22MOL0     H 2883  -0.268  10.577   2.815 -0.0233 -0.5702 -0.3400
   22MOL0     H 2884  -0.535  10.626   2.791  0.4838 -0.1735  1.2246
   22MOL0     H 2885  -0.481  10.742   2.669 -2.7831  1.4201  1.4297
   22MOL0     H 2886   0.599  10.813   2.575  1.5409 -0.0015 -0.0301
   22MOL0     H 2887   0.844  10.806   2.552 -2.4332  1.3539  1.3416
   22MOL0     H 2888   1.165  10.926   2.102  1.2229  0.0616  0.1956
   22MOL0     H 2889   1.376  10.933   2.040 -2.7116  1.2232 -0.3631
   22MOL0     H 2890   1.737  10.698   2.787 -0.9707 -1.3522 -0.6912
   22MOL0     H 2891   1.504  10.767   2.776 -2.2818  0.6098  0.6102
   22MOL0     H 2892   1.018  10.878   2.731 -2.0306  0.0931 -0.2025
   22MOL0     H 2893   0.788  10.904   2.818 -0.0784  0.1847  0.8838
   22MOL0     H 2894   0.597  11.040   3.108 -0.5257 -3.3135 -1.5484
   22MOL0     H 2895   0.744  11.100   3.077  1.6307 -0.3358 -1.0322
   22MOL0     H 2896   0.660  10.949   3.334 -2.1054  0.1141 -2.8030
   22MOL0     H 2897   0.826  10.980   3.307 -0.6221 -2.3238  2.0824
   22MOL0     H 2898   0.728  11.165   3.448  1.1045  0.8792  1.0193
   22MOL0     H 2899   0.612  11.197   3.320  0.6327  2.2331  1.3209
   22MOL0     H 2900   0.925  11.233   3.316  2.1753  5.0045 -0.0647
   22MOL0     H 2901   0.819  11.281   3.183  2.3879  0.5914  0.4546
   22MOL0     H 2902   0.740  11.604   3.431  0.0138  0.2422 -0.6388
   22MOL0     H 2903   0.935  10.824   3.210 -0.3045 -0.5485  0.3269
   22MOL0     H 2904   1.148  10.803   3.137  1.2811  0.3539 -1.7707
   23MOL0     O 2905   6.990   8.071   5.425  0.0874 -0.1876  0.1637
   23MOL0     C 2906   7.088   8.083   5.491 -0.5038 -1.0688  0.1472
   23MOL0     O 2907   7.090   8.137   5.613 -0.1698 -0.5570  0.0968
   23MOL0     C 2908   6.974   8.190   5.669  0.0954  0.5069  0.0816
   23MOL0     C 2909   6.947   8.330   5.684 -0.0355  0.3149  0.0574
   23MOL0     C 2910   6.831   8.376   5.761 -0.1181  0.1635 -0.3269
   23MOL0     C 2911   6.739   8.287   5.811 -0.1225 -0.2167 -0.3158
   23MOL0     O 2912   6.625   8.321   5.882 -0.8438  0.1597 -0.3510
   23MOL0     C 2913   6.553   8.443   5.857  0.2107  0.6531  0.5632
   23MOL0     C 2914   6.401   8.425   5.857  0.4066  0.2261  0.0993
   23MOL0     C 2915   6.342   8.557   5.826 -0.3636 -0.3667  0.1234
   23MOL0     C 2916   6.188   8.555   5.855  0.2626 -0.0686 -0.0153
   23MOL0     C 2917   6.115   8.440   5.781  0.6054 -0.2235 -1.0559
   23MOL0     C 2918   6.107   8.450   5.633  0.3533  0.4546  0.6590
   23MOL0     C 2919   6.010   8.347   5.562 -0.2520  0.5772 -0.5828
   23MOL0     C 2920   5.856   8.375   5.564  0.8190 -0.6556 -0.0180
   23MOL0     N 2921   5.808   8.347   5.703  0.5625 -0.5696  0.3167
   23MOL0     C 2922   5.842   8.245   5.784  0.5380  0.5392 -0.5503
   23MOL0     C 2923   5.739   8.237   5.873  0.0610 -0.1699  0.5171
   23MOL0     C 2924   5.740   8.144   5.993  0.2856  0.0733  0.3447
   23MOL0     C 2925   5.601   8.092   6.006  1.7295  0.4618  0.4721
   23MOL0     C 2926   5.515   8.208   6.073 -0.0309  0.5536  0.3297
   23MOL0     C 2927   5.374   8.234   6.010 -0.8633 -0.3374  0.5876
   23MOL0     O 2928   5.307   8.118   5.954  0.7560 -0.2172 -0.5136
   23MOL0     C 2929   5.183   8.130   5.900  0.3664 -0.3665 -0.1319
   23MOL0     C 2930   5.132   8.019   5.829 -0.1921 -0.4392  0.9566
   23MOL0     C 2931   5.013   8.032   5.758 -0.3571 -0.0031 -0.0458
   23MOL0     C 2932   4.940   8.150   5.764 -0.2023  0.1069 -0.5583
   23MOL0     C 2933   4.812   8.170   5.697  0.1956  0.3034 -0.3650
   23MOL0     O 2934   4.718   8.241   5.775  1.0266  0.0120  0.4334
   23MOL0     C 2935   4.611   8.302   5.705 -0.4657 -0.0815  0.1440
   23MOL0     C 2936   4.611   8.348   5.577  0.6063  0.4493  0.7743
   23MOL0     C 2937   4.499   8.407   5.509  0.1213  0.0488  0.5103
   23MOL0     C 2938   4.384   8.426   5.578 -0.6731  0.2113  0.7189
   23MOL0     O 2939   4.278   8.476   5.503 -0.3534  0.2123 -0.3768
   23MOL0     C 2940   4.155   8.490   5.570  0.4364  0.0359  0.1131
   23MOL0     C 2941   4.040   8.513   5.476  1.2515  0.4379  0.8257
   23MOL0     C 2942   4.039   8.401   5.373  0.2561 -0.0162 -0.5967
   23MOL0     C 2943   3.922   8.432   5.275  0.2167 -0.0397  0.6021
   23MOL0     C 2944   3.882   8.313   5.196  0.1035  0.2189  0.6615
   23MOL0     C 2945   3.795   8.215   5.261 -0.1511  0.2329 -0.4265
   23MOL0     C 2946   3.650   8.267   5.270  0.3812  0.1898  0.2925
   23MOL0     C 2947   3.549   8.152   5.306  0.7715  0.6632  0.0545
   23MOL0    Cl 2948   3.516   8.158   5.486 -0.3489  0.1725  0.3768
   23MOL0     C 2949   4.380   8.382   5.711 -0.2599 -0.1006  0.7569
   23MOL0     C 2950   4.489   8.320   5.777 -0.6873 -0.2530 -0.2461
   23MOL0     O 2951   4.796   8.123   5.585  0.1088 -0.2538  0.3546
   23MOL0     C 2952   4.990   8.268   5.828  0.4226  0.5904 -0.4080
   23MOL0     C 2953   5.113   8.257   5.890  0.3676  0.6337 -0.3126
   23MOL0     N 2954   5.651   8.345   5.844 -0.9214  0.6836 -0.2248
   23MOL0     N 2955   5.686   8.388   5.743 -0.7276  0.7145 -0.1508
   23MOL0     C 2956   6.767   8.150   5.791  0.7918  0.7113  0.6439
   23MOL0     C 2957   6.877   8.102   5.720 -0.9443  0.1820  1.2413
   23MOL0     C 2958   7.227   8.058   5.434 -0.5372  0.3326 -0.4123
   23MOL0     C 2959   7.252   8.052   5.298  0.5988  0.7539  0.1855
   23MOL0     C 2960   7.378   8.038   5.249 -0.4924  0.5930 -0.5131
   23MOL0     C 2961   7.491   8.037   5.334 -0.2306 -0.6808 -0.7035
   23MOL0     O 2962   7.625   8.037   5.294  0.4850  0.4459  0.2034
   23MOL0     C 2963   7.651   7.949   5.182 -0.0095  0.0309 -0.1636
   23MOL0     C 2964   7.626   7.799   5.213 -0.8136 -1.3036 -0.2978
   23MOL0     C 2965   7.707   7.697   5.126  0.0938 -0.5044  0.1930
   23MOL0     C 2966   7.709   7.544   5.172 -0.2362 -0.5184 -0.4666
   23MOL0     C 2967   7.577   7.482   5.155 -0.6191  0.5020  0.2594
   23MOL0     C 2968   7.470   7.427   5.138  1.0496  0.2522  0.2456
   23MOL0     C 2969   7.468   8.046   5.470 -0.4137 -0.6663 -0.1052
   23MOL0     C 2970   7.338   8.050   5.523 -0.8722 -0.6919  0.1805
   23MOL0     H 2971   7.001   8.419   5.650  2.2467 -1.3893 -1.0389
   23MOL0     H 2972   6.816   8.483   5.772  0.4578  0.1310  0.9782
   23MOL0     H 2973   6.574   8.496   5.764 -0.6580  3.6922  1.9612
   23MOL0     H 2974   6.583   8.522   5.927  1.5932  0.1720  0.5489
   23MOL0     H 2975   6.357   8.386   5.949 -1.5213  1.2940 -0.3121
   23MOL0     H 2976   6.384   8.351   5.777  3.5872 -1.0817  0.5228
   23MOL0     H 2977   6.355   8.563   5.718 -2.3332 -0.5730 -0.1736
   23MOL0     H 2978   6.388   8.640   5.879  0.5977 -0.5966 -0.3376
   23MOL0     H 2979   6.181   8.539   5.963  0.4898  3.5358  0.6689
   23MOL0     H 2980   6.143   8.648   5.819  0.7468 -0.0738 -0.6438
   23MOL0     H 2981   6.012   8.453   5.814  0.9705  2.7208 -0.8783
   23MOL0     H 2982   6.151   8.344   5.819  1.5048 -0.1827 -1.7623
   23MOL0     H 2983   6.206   8.438   5.587 -1.1316  1.1278 -3.1043
   23MOL0     H 2984   6.082   8.553   5.605 -2.4454  0.0089  1.2912
   23MOL0     H 2985   6.044   8.345   5.458  1.5723  2.2868 -0.0830
   23MOL0     H 2986   6.025   8.245   5.598 -2.1475  0.2647 -0.5824
   23MOL0     H 2987   5.793   8.318   5.496  0.0969  1.0650 -0.8532
   23MOL0     H 2988   5.839   8.482   5.552  2.4431 -0.1331  1.6597
   23MOL0     H 2989   5.932   8.185   5.787  0.3063  0.0604  4.4082
   23MOL0     H 2990   5.766   8.203   6.082  0.4058 -0.7877  0.8937
   23MOL0     H 2991   5.821   8.072   5.980 -1.3431 -1.5358 -1.5601
   23MOL0     H 2992   5.610   8.006   6.073  1.0179 -0.9828 -1.1923
   23MOL0     H 2993   5.561   8.071   5.906  1.8328  1.5058  0.2076
   23MOL0     H 2994   5.507   8.192   6.181 -1.5261 -4.0524 -0.2193
   23MOL0     H 2995   5.570   8.302   6.071 -0.1400  0.8268  3.8330
   23MOL0     H 2996   5.373   8.323   5.946  0.2067  0.6153  1.8359
   23MOL0     H 2997   5.316   8.270   6.096 -2.4757 -1.1101 -0.1347
   23MOL0     H 2998   5.187   7.926   5.825  0.9316  0.2145 -2.0304
   23MOL0     H 2999   4.977   7.937   5.721  0.8387 -0.1562 -0.8865
   23MOL0     H 3000   4.701   8.349   5.517 -1.6670  0.4843 -2.9106
   23MOL0     H 3001   4.507   8.447   5.408  1.2952 -0.8769  0.2180
   23MOL0     H 3002   4.165   8.575   5.638 -1.6273 -1.1852  2.0794
   23MOL0     H 3003   4.141   8.401   5.632  1.4554  0.7152  1.3482
   23MOL0     H 3004   4.041   8.608   5.423 -0.6442  0.1926  0.2902
   23MOL0     H 3005   3.945   8.515   5.530  0.7886 -0.2835  0.0571
   23MOL0     H 3006   4.025   8.304   5.420 -3.1678  0.9153  0.5538
   23MOL0     H 3007   4.131   8.400   5.313  0.1471  1.5568 -0.8554
   23MOL0     H 3008   3.833   8.447   5.337  0.6672  1.1893  0.9777
   23MOL0     H 3009   3.942   8.523   5.217 -1.9934 -0.4556 -0.9518
   23MOL0     H 3010   3.964   8.266   5.141 -0.5360  0.1981 -0.2985
   23MOL0     H 3011   3.817   8.354   5.118  0.3604 -0.5574  0.0254
   23MOL0     H 3012   3.822   8.179   5.361 -0.0416 -1.2263 -0.9622
   23MOL0     H 3013   3.789   8.123   5.203  1.0458  0.3189 -0.7154
   23MOL0     H 3014   3.647   8.352   5.338  1.1335  0.3208  0.1707
   23MOL0     H 3015   3.615   8.300   5.172  3.6863 -2.9580 -2.2537
   23MOL0     H 3016   3.580   8.052   5.273 -0.9139 -0.3331  1.3135
   23MOL0     H 3017   3.453   8.175   5.259  0.1619 -0.6437  0.6277
   23MOL0     H 3018   4.295   8.404   5.775 -0.0704 -2.2509  1.8433
   23MOL0     H 3019   4.490   8.298   5.883  2.2335  3.1665  0.6282
   23MOL0     H 3020   4.953   8.370   5.828 -2.6533 -0.3638  2.4442
   23MOL0     H 3021   5.157   8.352   5.917  1.6481 -0.8942  3.6787
   23MOL0     H 3022   6.704   8.073   5.834 -0.0358  0.1060 -1.5488
   23MOL0     H 3023   6.899   7.996   5.711 -1.0121  0.2913 -0.5997
   23MOL0     H 3024   7.170   8.049   5.227  0.9521 -1.1270 -0.2077
   23MOL0     H 3025   7.399   8.032   5.143  1.1801  0.7341 -0.2266
   23MOL0     H 3026   7.760   7.942   5.177  0.1132  1.9427 -1.1906
   23MOL0     H 3027   7.614   7.975   5.082  1.9004 -4.7465 -2.4054
   23MOL0     H 3028   7.659   7.787   5.317  0.8000  0.2073 -0.5777
   23MOL0     H 3029   7.518   7.786   5.204 -1.0369  0.4415 -0.5024
   23MOL0     H 3030   7.808   7.737   5.126 -0.4220  0.8628 -0.3731
   23MOL0     H 3031   7.663   7.700   5.026  0.0519 -4.1417 -0.0369
   23MOL0     H 3032   7.782   7.488   5.113 -0.4608  0.6179 -1.8802
   23MOL0     H 3033   7.743   7.537   5.276  1.2699  0.3011 -0.8626
   23MOL0     H 3034   7.374   7.382   5.124  1.3285  0.1437 -1.5138
   23MOL0     H 3035   7.558   8.040   5.532  1.0332 -0.0868 -2.0548
   23MOL0     H 3036   7.332   8.044   5.631  0.2394 -0.5558  0.2696
   24MOL0     O 3037   3.013   9.265   3.657  0.2249  0.8654  0.2183
   24MOL0     C 3038   3.136   9.236   3.639  0.3200 -0.1954  0.4604
   24MOL0     O 3039   3.194   9.203   3.517 -0.2413  0.0268  0.3764
   24MOL0     C 3040   3.114   9.165   3.404  0.1378  0.4493 -1.7949
   24MOL0     C 3041   3.161   9.207   3.282  0.3191 -0.4393  0.1757
   24MOL0     C 3042   3.086   9.185   3.162 -0.2125 -0.4122 -0.4413
   24MOL0     C 3043   2.959   9.140   3.169  0.3243  0.1449  1.5525
   24MOL0     O 3044   2.862   9.149   3.075  0.6281  0.0122 -0.0830
   24MOL0     C 3045   2.816   9.019   3.027  0.7778 -0.1428 -0.5184
   24MOL0     C 3046   2.662   9.029   2.998  0.1833  0.3044 -0.0178
   24MOL0     C 3047   2.626   8.927   2.889 -0.1984 -0.2490 -0.3969
   24MOL0     C 3048   2.478   8.927   2.864 -0.9699 -0.3352 -0.4597
   24MOL0     C 3049   2.435   8.833   2.750  0.1583  0.8756 -1.3839
   24MOL0     C 3050   2.310   8.865   2.670 -0.4839 -0.0924 -0.7210
   24MOL0     C 3051   2.191   8.877   2.764  0.0942  0.1417  0.4769
   24MOL0     C 3052   2.055   8.868   2.699  0.6163 -0.0594 -0.2923
   24MOL0     N 3053   1.941   8.858   2.794 -0.7943 -0.1768 -0.8840
   24MOL0     C 3054   1.932   8.938   2.910  0.4094 -0.5991  0.3635
   24MOL0     C 3055   1.812   8.910   2.958 -0.3563 -0.0400 -0.0575
   24MOL0     C 3056   1.752   8.991   3.073 -0.3030  0.1575 -0.1937
   24MOL0     C 3057   1.606   8.972   3.092  0.1814  0.4293  0.2896
   24MOL0     C 3058   1.567   9.096   3.174 -0.0052  0.5866 -1.0076
   24MOL0     C 3059   1.412   9.091   3.207  0.1850  0.0162  0.1272
   24MOL0     O 3060   1.340   9.081   3.086 -0.2248  0.6271  0.0377
   24MOL0     C 3061   1.215   9.044   3.082  0.8374  0.1206 -0.9445
   24MOL0     C 3062   1.131   9.026   3.193 -0.0157 -0.1958  0.1893
   24MOL0     C 3063   1.004   8.980   3.176  0.4328  0.3355 -0.2305
   24MOL0     C 3064   0.949   8.946   3.048 -0.1415  0.5751 -0.3906
   24MOL0     C 3065   0.817   8.880   3.036  0.1300 -0.4429  0.4977
   24MOL0     O 3066   0.770   8.859   2.910  0.8701  0.5109  0.1829
   24MOL0     C 3067   0.662   8.772   2.876  0.3311 -0.6636 -0.7349
   24MOL0     C 3068   0.605   8.781   2.746  0.4983  0.9302 -1.0343
   24MOL0     C 3069   0.500   8.686   2.702  0.0663 -0.1731 -0.7556
   24MOL0     C 3070   0.465   8.578   2.782 -1.0459  0.0174 -1.6735
   24MOL0     O 3071   0.384   8.476   2.735 -0.7414  0.0549  0.3102
   24MOL0     C 3072   0.254   8.507   2.682  0.4670  0.1766  0.7261
   24MOL0     C 3073   0.149   8.504   2.805 -0.1324 -0.1866  0.8403
   24MOL0     C 3074   0.013   8.479   2.757  0.5924 -0.0691 -0.0065
   24MOL0     C 3075  -0.063   8.585   2.684  0.5238  0.3496  1.1721
   24MOL0     C 3076  -0.195   8.545   2.630 -0.0948 -0.8008 -0.2269
   24MOL0     C 3077  -0.313   8.522   2.737 -0.0082 -0.3964 -1.0077
   24MOL0     C 3078  -0.424   8.460   2.666 -0.0777  0.2181 -0.5307
   24MOL0     C 3079  -0.559   8.479   2.742  0.1867 -0.5520  0.1431
   24MOL0    Cl 3080  -0.600   8.658   2.763  0.4019  0.0180 -0.2875
   24MOL0     C 3081   0.518   8.579   2.919  0.7288 -0.1556  0.2431
   24MOL0     C 3082   0.608   8.667   2.959 -0.6383 -0.7985  0.4754
   24MOL0     O 3083   0.764   8.845   3.142 -0.3533 -0.5639 -0.2202
   24MOL0     C 3084   1.031   8.963   2.938  0.2409  0.1363  0.6311
   24MOL0     C 3085   1.162   9.004   2.956  0.1889  0.8021  0.5520
   24MOL0     N 3086   1.749   8.819   2.874 -0.5170 -0.9102 -0.1093
   24MOL0     N 3087   1.825   8.785   2.783  0.3649 -0.1834  0.4311
   24MOL0     C 3088   2.909   9.102   3.295  0.0476 -0.1976 -0.5741
   24MOL0     C 3089   2.990   9.109   3.412 -0.1563  0.3310  1.0852
   24MOL0     C 3090   3.227   9.250   3.750  0.6491 -1.1822 -0.3417
   24MOL0     C 3091   3.355   9.197   3.746  0.5824  0.5784 -0.6552
   24MOL0     C 3092   3.432   9.188   3.862  0.6270  0.2908 -0.7057
   24MOL0     C 3093   3.387   9.245   3.983 -0.0719 -0.2302 -0.3044
   24MOL0     O 3094   3.475   9.229   4.091 -0.2945  0.2908 -0.5892
   24MOL0     C 3095   3.518   9.338   4.175 -0.4752  0.2777 -0.6005
   24MOL0     C 3096   3.435   9.361   4.302  0.5417 -0.3837  0.0744
   24MOL0     C 3097   3.383   9.513   4.304 -0.7838  0.5766  0.5501
   24MOL0     C 3098   3.484   9.624   4.338 -0.4076 -0.3971 -0.6964
   24MOL0     C 3099   3.541   9.618   4.483  1.3705  0.3506  0.9742
   24MOL0     C 3100   3.571   9.603   4.597 -0.2943  0.5886  0.2081
   24MOL0     C 3101   3.267   9.315   3.993  0.1263  0.6526  0.5398
   24MOL0     C 3102   3.187   9.316   3.870 -0.3429  0.6649 -0.9912
   24MOL0     H 3103   3.260   9.249   3.275 -0.3878  0.9971 -2.7137
   24MOL0     H 3104   3.137   9.216   3.071  0.4967 -0.2437  0.0007
   24MOL0     H 3105   2.839   8.929   3.084 -0.1154 -1.9403 -2.8158
   24MOL0     H 3106   2.873   9.009   2.934  2.3227 -2.9021  0.5911
   24MOL0     H 3107   2.641   9.135   2.982 -0.1334  0.5013  1.5039
   24MOL0     H 3108   2.615   9.003   3.093  1.4279 -1.4223  0.1905
   24MOL0     H 3109   2.671   8.834   2.925  2.5528  0.2232 -2.2950
   24MOL0     H 3110   2.684   8.953   2.800 -1.8486  2.8381 -0.7032
   24MOL0     H 3111   2.425   8.896   2.954 -0.1873  0.8495  0.4231
   24MOL0     H 3112   2.439   9.024   2.832 -0.4000 -0.9012 -3.1404
   24MOL0     H 3113   2.430   8.733   2.794  2.5652  1.3440  0.1408
   24MOL0     H 3114   2.519   8.839   2.681 -0.0175 -3.0132 -2.1707
   24MOL0     H 3115   2.292   8.788   2.594  0.8054  1.9786 -3.2626
   24MOL0     H 3116   2.325   8.958   2.615 -1.3470  1.0933  0.9598
   24MOL0     H 3117   2.190   8.798   2.840  1.4111  0.1100  0.4886
   24MOL0     H 3118   2.199   8.970   2.820 -2.0732  0.2222  0.7159
   24MOL0     H 3119   2.050   8.778   2.637 -3.3708  0.4542 -0.9646
   24MOL0     H 3120   2.035   8.944   2.623  3.0525 -0.9874 -1.9977
   24MOL0     H 3121   2.006   9.012   2.939  3.2040 -2.9242 -0.3209
   24MOL0     H 3122   1.782   9.096   3.063  0.0132  0.1826  0.8819
   24MOL0     H 3123   1.805   8.963   3.165 -1.9448  1.2413  1.1287
   24MOL0     H 3124   1.571   8.879   3.139  1.7046 -0.5918 -0.5321
   24MOL0     H 3125   1.555   8.975   2.995 -1.3132  0.8702  1.0499
   24MOL0     H 3126   1.617   9.098   3.271 -0.2679 -2.0357 -0.7240
   24MOL0     H 3127   1.584   9.186   3.114  0.7804  1.7944  0.9275
   24MOL0     H 3128   1.366   9.172   3.264  0.1969  0.7655 -0.8908
   24MOL0     H 3129   1.397   9.005   3.273  2.2183 -0.1773  0.4019
   24MOL0     H 3130   1.167   9.071   3.285  0.7296  3.2194 -1.6137
   24MOL0     H 3131   0.940   8.965   3.262 -0.8435  0.2934 -1.1592
   24MOL0     H 3132   0.635   8.870   2.692  4.3839  0.6335  0.2784
   24MOL0     H 3133   0.459   8.685   2.602 -0.2581 -0.0823 -0.6225
   24MOL0     H 3134   0.217   8.429   2.616 -0.1341  0.0160  1.2478
   24MOL0     H 3135   0.246   8.595   2.618  2.2049 -1.0323 -1.2835
   24MOL0     H 3136   0.148   8.605   2.848  1.4485  0.6562 -0.9471
   24MOL0     H 3137   0.192   8.437   2.880 -0.0811  0.4444  1.3887
   24MOL0     H 3138  -0.048   8.458   2.845 -0.4944  2.0372 -0.1965
   24MOL0     H 3139   0.020   8.392   2.692  2.2935  1.2906 -1.7782
   24MOL0     H 3140  -0.072   8.663   2.761  1.2064  2.7255 -1.0078
   24MOL0     H 3141  -0.011   8.616   2.593 -1.1571  0.9336  0.3798
   24MOL0     H 3142  -0.174   8.460   2.564  0.4340  0.4874 -1.7689
   24MOL0     H 3143  -0.236   8.630   2.575  1.7975  1.2898  1.4482
   24MOL0     H 3144  -0.343   8.621   2.773 -0.0568 -0.2126 -1.5455
   24MOL0     H 3145  -0.266   8.457   2.811 -3.9080 -2.3052  0.0235
   24MOL0     H 3146  -0.431   8.506   2.567 -1.2145  1.2462 -0.0048
   24MOL0     H 3147  -0.401   8.353   2.663 -0.7502  0.0538 -0.1344
   24MOL0     H 3148  -0.559   8.444   2.846 -0.0753  0.4011  0.4748
   24MOL0     H 3149  -0.638   8.427   2.688 -1.6348 -1.2274  3.1753
   24MOL0     H 3150   0.468   8.504   2.979 -2.5270 -0.0914 -2.0811
   24MOL0     H 3151   0.626   8.658   3.065  0.2612 -2.8708  0.1844
   24MOL0     H 3152   1.008   8.962   2.831 -0.3087  4.0698  0.5693
   24MOL0     H 3153   1.219   9.012   2.864  0.8578  1.7886  1.0396
   24MOL0     H 3154   2.808   9.064   3.291 -0.0083 -0.0164 -0.9062
   24MOL0     H 3155   2.953   9.077   3.509  0.4979 -2.2167  0.5752
   24MOL0     H 3156   3.393   9.154   3.655  0.2600  0.8369 -0.9145
   24MOL0     H 3157   3.525   9.132   3.862  0.3649 -0.2303  1.2808
   24MOL0     H 3158   3.527   9.431   4.120 -1.3212  0.4787 -0.4068
   24MOL0     H 3159   3.619   9.318   4.213  0.1934  2.2544 -1.2432
   24MOL0     H 3160   3.352   9.289   4.304  1.6835 -1.7151  0.5525
   24MOL0     H 3161   3.499   9.360   4.391 -0.9971  1.5003  1.3025
   24MOL0     H 3162   3.305   9.516   4.381 -0.3705  0.3952  0.9801
   24MOL0     H 3163   3.345   9.538   4.205 -0.8231 -1.4799  0.0164
   24MOL0     H 3164   3.561   9.625   4.261  0.4719 -2.2858  0.0824
   24MOL0     H 3165   3.431   9.718   4.322  0.0508  0.2194  1.1735
   24MOL0     H 3166   3.592   9.581   4.700  1.7871  1.2179 -0.0305
   24MOL0     H 3167   3.230   9.352   4.088 -1.0240  1.2118 -0.0981
   24MOL0     H 3168   3.093   9.368   3.882 -0.4575  1.1803 -3.6565
   25MOL0     O 3169   6.516  11.242  10.728  0.0131  0.0742  0.3260
   25MOL0     C 3170   6.549  11.243  10.847  0.0623 -0.8391 -0.4155
   25MOL0     O 3171   6.466  11.277  10.954  0.0474  0.7203 -0.2090
   25MOL0     C 3172   6.334  11.314  10.930  0.1489  0.8214  0.0558
   25MOL0     C 3173   6.269  11.337  11.041 -0.1587 -0.4990 -0.2389
   25MOL0     C 3174   6.139  11.385  11.052  1.0638  0.1119  0.5803
   25MOL0     C 3175   6.061  11.398  10.937 -0.2657  1.1398  0.5068
   25MOL0     O 3176   5.935  11.439  10.947 -0.1519  0.1844 -0.3032
   25MOL0     C 3177   5.882  11.527  10.851 -0.2977 -0.4009 -0.2911
   25MOL0     C 3178   5.729  11.545  10.875  0.7394  0.1009  0.5659
   25MOL0     C 3179   5.666  11.645  10.776 -0.8562 -0.0832  0.1849
   25MOL0     C 3180   5.534  11.707  10.825  0.9934 -0.1678 -0.5952
   25MOL0     C 3181   5.480  11.815  10.722  0.5917  0.0992 -0.4144
   25MOL0     C 3182   5.333  11.838  10.731  0.5379  0.3744  0.1773
   25MOL0     C 3183   5.273  11.885  10.604 -0.5588 -0.2599 -0.2785
   25MOL0     C 3184   5.281  12.040  10.589 -0.1147  0.4836  0.2748
   25MOL0     N 3185   5.208  12.085  10.466  0.3796  0.4198 -0.5079
   25MOL0     C 3186   5.265  12.075  10.341  0.6781  0.7429 -0.0233
   25MOL0     C 3187   5.164  12.114  10.256 -0.4647 -0.4061  0.4306
   25MOL0     C 3188   5.173  12.107  10.110  0.0251 -0.1250 -0.7768
   25MOL0     C 3189   5.058  12.008  10.062  0.6823 -0.2579  0.2499
   25MOL0     C 3190   4.925  12.091  10.034 -0.6330 -0.1891  0.2978
   25MOL0     C 3191   4.931  12.153   9.885  0.3553 -0.1115 -1.3155
   25MOL0     O 3192   4.815  12.233   9.874  0.5658 -0.4077 -0.7991
   25MOL0     C 3193   4.679  12.196   9.892 -0.0599 -0.5338  0.7426
   25MOL0     C 3194   4.629  12.073   9.877 -0.4193 -0.1580  0.0690
   25MOL0     C 3195   4.497  12.045   9.886  0.2951  0.1228  0.2988
   25MOL0     C 3196   4.408  12.142   9.924  1.0971 -0.4158 -0.6910
   25MOL0     C 3197   4.266  12.113   9.936 -0.5808 -0.7081  0.9330
   25MOL0     O 3198   4.174  12.216   9.948  0.2794 -0.5579  0.8785
   25MOL0     C 3199   4.041  12.198   9.982  0.6309  0.4883 -0.5161
   25MOL0     C 3200   3.963  12.096   9.943  0.8172 -0.0120 -0.0261
   25MOL0     C 3201   3.824  12.098   9.963 -0.6329 -0.0399  0.2077
   25MOL0     C 3202   3.767  12.206  10.027 -0.5232 -0.6467 -1.7209
   25MOL0     O 3203   3.633  12.188  10.047  0.0207  0.2084  0.6477
   25MOL0     C 3204   3.554  12.251   9.949 -0.1692 -1.1949 -0.4222
   25MOL0     C 3205   3.525  12.163   9.826  0.0796  1.5380 -0.0985
   25MOL0     C 3206   3.425  12.041   9.855  0.6370  0.7608  1.2366
   25MOL0     C 3207   3.426  11.940   9.731  0.7436  0.4706 -0.6987
   25MOL0     C 3208   3.342  11.816   9.770  0.4243 -0.4746 -1.0852
   25MOL0     C 3209   3.201  11.860   9.815 -0.1893  0.4313 -0.6479
   25MOL0     C 3210   3.106  11.736   9.810 -0.1870  0.3292 -0.3761
   25MOL0     C 3211   2.967  11.781   9.855  0.6733 -0.4102 -0.0807
   25MOL0    Cl 3212   2.860  11.790   9.714 -0.1671 -0.3298 -0.0244
   25MOL0     C 3213   3.844  12.306  10.078  0.1460  0.8407 -0.3220
   25MOL0     C 3214   3.975  12.301  10.053 -0.7600 -0.4186 -0.6577
   25MOL0     O 3215   4.236  11.993   9.925  0.7627 -0.7776  0.6524
   25MOL0     C 3216   4.458  12.269   9.958  0.7180  1.1012 -0.9827
   25MOL0     C 3217   4.590  12.299   9.934 -0.4990 -0.4123  0.1850
   25MOL0     N 3218   5.063  12.168  10.336  0.4106  0.5536 -0.1839
   25MOL0     N 3219   5.084  12.137  10.458 -0.0592  0.3930  0.6135
   25MOL0     C 3220   6.129  11.390  10.807 -0.2630 -0.1342  0.6395
   25MOL0     C 3221   6.259  11.339  10.808 -0.2765  0.2203  0.4511
   25MOL0     C 3222   6.692  11.201  10.889  0.1530  0.2085  0.2381
   25MOL0     C 3223   6.794  11.198  10.795  0.9835  0.2511 -0.4850
   25MOL0     C 3224   6.919  11.147  10.817 -0.3414 -0.2018 -1.1535
   25MOL0     C 3225   6.954  11.123  10.952 -0.2949  0.1786  0.6821
   25MOL0     O 3226   7.087  11.109  10.994 -0.8392 -0.0197 -0.2799
   25MOL0     C 3227   7.187  11.054  10.895  0.0316 -1.0901  0.1926
   25MOL0     C 3228   7.317  11.031  10.968  0.2186  0.3873  0.6524
   25MOL0     C 3229   7.441  11.035  10.884 -1.1198 -0.7338  0.2738
   25MOL0     C 3230   7.454  10.931  10.776 -0.4462  0.2070  0.8868
   25MOL0     C 3231   7.550  10.979  10.671  0.4304 -0.2922 -0.7707
   25MOL0     C 3232   7.633  11.008  10.595 -0.2597 -0.0776  0.0568
   25MOL0     C 3233   6.855  11.141  11.049  0.7802 -0.7578  0.6200
   25MOL0     C 3234   6.725  11.168  11.022 -0.2107 -0.4871 -0.1027
   25MOL0     H 3235   6.323  11.317  11.133 -0.9972 -1.8049  0.0003
   25MOL0     H 3236   6.087  11.399  11.147  1.3873  3.1069  0.4069
   25MOL0     H 3237   5.883  11.491  10.748 -2.2860  0.7244 -0.7638
   25MOL0     H 3238   5.925  11.626  10.867 -3.3295  1.0203 -0.2327
   25MOL0     H 3239   5.710  11.602  10.967  0.5625  0.6548  0.1953
   25MOL0     H 3240   5.671  11.453  10.869  0.8207  0.1416 -1.3907
   25MOL0     H 3241   5.664  11.594  10.679  0.0953  1.6388 -0.7912
   25MOL0     H 3242   5.738  11.726  10.759 -0.3293 -0.4458  0.6331
   25MOL0     H 3243   5.465  11.623  10.837 -0.1849  1.0095  1.4239
   25MOL0     H 3244   5.550  11.749  10.924  0.0793  0.4908 -0.7055
   25MOL0     H 3245   5.502  11.786  10.619  1.6180  0.1934 -0.2398
   25MOL0     H 3246   5.524  11.914  10.739 -1.2563  0.8103  0.5687
   25MOL0     H 3247   5.315  11.912  10.809 -0.1170 -1.1261  1.5002
   25MOL0     H 3248   5.277  11.747  10.754  2.6509 -0.7054  1.4308
   25MOL0     H 3249   5.313  11.840  10.513 -1.7605 -1.4675 -0.2513
   25MOL0     H 3250   5.167  11.856  10.603 -0.3390 -1.3938  2.0734
   25MOL0     H 3251   5.386  12.067  10.581  0.0885  0.3970  2.2205
   25MOL0     H 3252   5.242  12.102  10.670 -0.1550  1.7953 -0.7128
   25MOL0     H 3253   5.362  12.033  10.318 -0.1707 -0.1317 -2.3093
   25MOL0     H 3254   5.270  12.068  10.080  0.2203  2.3007 -3.8769
   25MOL0     H 3255   5.157  12.210  10.078 -1.6140 -0.0017  0.2901
   25MOL0     H 3256   5.027  11.938  10.141  0.1699 -0.0552  0.2358
   25MOL0     H 3257   5.089  11.955   9.972  2.4973  1.1403 -0.0000
   25MOL0     H 3258   4.841  12.022  10.048 -1.5425  1.0101  0.8814
   25MOL0     H 3259   4.910  12.171  10.108 -4.8047 -0.9097  0.4769
   25MOL0     H 3260   4.941  12.083   9.801 -0.0289  2.9325 -4.0651
   25MOL0     H 3261   5.024  12.208   9.872  1.6230 -1.6133  0.7463
   25MOL0     H 3262   4.694  11.991   9.848  1.0622  1.7482 -2.3077
   25MOL0     H 3263   4.462  11.948   9.852  0.1477  0.9691 -2.2258
   25MOL0     H 3264   4.006  12.015   9.886 -0.1867 -1.4993  1.2596
   25MOL0     H 3265   3.768  12.013   9.926  0.8052 -0.0890 -2.0363
   25MOL0     H 3266   3.608  12.342   9.921  0.5556 -2.0209 -1.7896
   25MOL0     H 3267   3.463  12.287   9.998  0.2192 -1.6967  0.6895
   25MOL0     H 3268   3.617  12.124   9.782 -0.0088 -0.0835  1.0645
   25MOL0     H 3269   3.470  12.209   9.743 -1.8765 -3.2128 -1.8162
   25MOL0     H 3270   3.321  12.074   9.862 -0.0473 -1.0792  0.3297
   25MOL0     H 3271   3.462  11.992   9.946  0.1896 -0.4425  0.7896
   25MOL0     H 3272   3.381  11.976   9.638 -1.9705  2.0605  1.1052
   25MOL0     H 3273   3.528  11.907   9.710  0.4039 -0.7934 -0.4545
   25MOL0     H 3274   3.399  11.761   9.845 -0.6444 -1.1433 -0.7348
   25MOL0     H 3275   3.342  11.749   9.683  0.7891 -2.3116  0.2900
   25MOL0     H 3276   3.179  11.939   9.743  3.2517  0.8351 -1.4323
   25MOL0     H 3277   3.207  11.900   9.917  2.0535 -1.9825  0.3094
   25MOL0     H 3278   3.105  11.711   9.704  0.2250  0.3625 -0.3880
   25MOL0     H 3279   3.149  11.654   9.868  1.5955  0.4805 -1.4290
   25MOL0     H 3280   2.970  11.870   9.919 -0.1932  0.3806 -1.1060
   25MOL0     H 3281   2.935  11.700   9.922 -1.5052  1.7703  1.7027
   25MOL0     H 3282   3.803  12.392  10.131  0.2302  1.3604 -1.0734
   25MOL0     H 3283   4.033  12.382  10.095 -0.6463 -0.3322 -0.9823
   25MOL0     H 3284   4.388  12.349   9.984 -1.8091 -0.1978 -3.2698
   25MOL0     H 3285   4.630  12.399   9.947  1.9882 -1.3871  0.4781
   25MOL0     H 3286   6.075  11.394  10.713 -1.4930 -0.5602  1.2990
   25MOL0     H 3287   6.299  11.320  10.710 -1.0477  2.4565 -0.3715
   25MOL0     H 3288   6.777  11.223  10.690 -0.3554 -0.4785 -0.4575
   25MOL0     H 3289   7.007  11.149  10.754  0.0225  2.3343 -0.6829
   25MOL0     H 3290   7.217  11.117  10.810  2.1629 -3.1547 -0.7434
   25MOL0     H 3291   7.163  10.957  10.850  0.2447 -1.6553  1.2785
   25MOL0     H 3292   7.337  11.103  11.047 -0.2641  1.2579  0.0046
   25MOL0     H 3293   7.301  10.937  11.022 -2.7936  2.7124  4.2958
   25MOL0     H 3294   7.535  11.009  10.933  0.5098  1.8891 -1.2038
   25MOL0     H 3295   7.454  11.135  10.841  3.4223 -1.0733  0.3684
   25MOL0     H 3296   7.495  10.838  10.816 -1.5101 -1.7393 -2.2197
   25MOL0     H 3297   7.362  10.910  10.721 -0.6757  0.4175  1.1855
   25MOL0     H 3298   7.715  11.039  10.534 -0.9638  2.0354  0.1323
   25MOL0     H 3299   6.892  11.148  11.151  1.0056 -0.0719  0.4961
   25MOL0     H 3300   6.647  11.184  11.096 -3.8814 -1.9251 -3.3363
   26MOL0     O 3301  11.101   8.173   2.481 -0.2984 -0.3960 -0.5330
   26MOL0     C 3302  11.102   8.086   2.392  0.1252  0.2195 -0.9097
   26MOL0     O 3303  11.208   8.010   2.353 -0.2218 -0.1420  0.3726
   26MOL0     C 3304  11.329   8.021   2.418  0.6874 -0.1118  0.4967
   26MOL0     C 3305  11.401   7.907   2.448 -1.6421  0.7015  0.3088
   26MOL0     C 3306  11.526   7.911   2.504  0.3691  0.1147  0.4506
   26MOL0     C 3307  11.590   8.029   2.532  0.7135 -0.2725  0.4848
   26MOL0     O 3308  11.723   8.018   2.566  0.1301  0.4598 -0.5524
   26MOL0     C 3309  11.797   8.140   2.575  0.0176  0.4156 -0.0275
   26MOL0     C 3310  11.920   8.136   2.668  0.4976  0.1527 -0.1068
   26MOL0     C 3311  12.008   8.024   2.625  0.3172  0.0551 -0.7886
   26MOL0     C 3312  12.128   8.015   2.715  0.6095 -0.5787 -0.1852
   26MOL0     C 3313  12.210   7.890   2.672 -0.3365 -0.9915  0.2811
   26MOL0     C 3314  12.334   7.879   2.758 -1.3184 -0.3279 -0.1626
   26MOL0     C 3315  12.445   7.812   2.680  0.2809 -0.4136 -0.9076
   26MOL0     C 3316  12.563   7.835   2.766 -0.0930 -0.4780  0.3782
   26MOL0     N 3317  12.577   7.758   2.884 -0.5658  0.0039  0.0779
   26MOL0     C 3318  12.547   7.628   2.896  0.7362 -0.3990 -0.0207
   26MOL0     C 3319  12.579   7.595   3.027 -0.1424 -0.5513 -0.3834
   26MOL0     C 3320  12.557   7.465   3.093 -0.4977 -0.4989  0.7820
   26MOL0     C 3321  12.437   7.385   3.054  0.4343 -0.1316 -0.7218
   26MOL0     C 3322  12.448   7.233   3.072 -0.1195  0.6332 -0.6653
   26MOL0     C 3323  12.335   7.153   3.009  0.4924  0.5086 -1.0718
   26MOL0     O 3324  12.349   7.157   2.863 -0.2764 -0.3644 -0.4200
   26MOL0     C 3325  12.229   7.173   2.797  0.8262  0.9482  0.1047
   26MOL0     C 3326  12.114   7.088   2.818  0.2493 -0.3349  1.0960
   26MOL0     C 3327  11.994   7.118   2.761  0.0889 -0.5605 -0.8658
   26MOL0     C 3328  11.979   7.228   2.677 -0.2652  0.6267 -0.1354
   26MOL0     C 3329  11.848   7.250   2.608 -0.0340  0.0349  0.4004
   26MOL0     O 3330  11.843   7.335   2.514  0.1428 -0.0064  0.4622
   26MOL0     C 3331  11.729   7.372   2.455  0.4714  0.4481 -0.3001
   26MOL0     C 3332  11.613   7.297   2.434 -0.1408 -0.8540 -1.1219
   26MOL0     C 3333  11.503   7.361   2.379 -0.2385  0.7715  1.6193
   26MOL0     C 3334  11.498   7.502   2.360  0.4476  0.3609 -0.0843
   26MOL0     O 3335  11.388   7.573   2.311 -0.2710 -0.1068  0.0960
   26MOL0     C 3336  11.264   7.509   2.283 -0.6069 -0.0337 -0.1580
   26MOL0     C 3337  11.171   7.622   2.240 -0.2494  0.2440 -0.0162
   26MOL0     C 3338  11.046   7.574   2.167 -0.6293 -0.6522 -0.5838
   26MOL0     C 3339  10.945   7.502   2.251  0.9666 -0.6431  0.2614
   26MOL0     C 3340  10.807   7.473   2.175  0.2692 -0.7608  0.1427
   26MOL0     C 3341  10.745   7.336   2.208 -0.0464  0.4241 -0.5311
   26MOL0     C 3342  10.607   7.315   2.139 -0.2936  0.3635 -0.2115
   26MOL0     C 3343  10.523   7.194   2.175 -0.7793 -0.9102 -0.9123
   26MOL0    Cl 3344  10.593   7.042   2.104  0.1099  0.0702  0.4412
   26MOL0     C 3345  11.621   7.569   2.369  0.0592  0.0609 -0.6627
   26MOL0     C 3346  11.735   7.506   2.422  0.0413  0.9953 -0.8029
   26MOL0     O 3347  11.751   7.196   2.661 -0.2046  0.2739  0.0741
   26MOL0     C 3348  12.088   7.310   2.655  0.5736  0.0400  0.6574
   26MOL0     C 3349  12.212   7.276   2.710 -0.0398 -0.4794  0.2007
   26MOL0     N 3350  12.617   7.707   3.095  0.1302 -0.3068 -0.0455
   26MOL0     N 3351  12.621   7.805   3.007 -0.3753  0.8159  0.9945
   26MOL0     C 3352  11.523   8.151   2.505 -0.6256  0.4020 -0.6072
   26MOL0     C 3353  11.393   8.148   2.444  0.3664 -0.4050 -0.4907
   26MOL0     C 3354  10.976   8.062   2.327 -0.4437 -0.2838  0.1558
   26MOL0     C 3355  10.872   8.155   2.345  0.1316  0.0157  0.2726
   26MOL0     C 3356  10.762   8.141   2.271 -0.6890 -0.0498  0.4013
   26MOL0     C 3357  10.737   8.026   2.196 -0.1055  0.2315 -0.2960
   26MOL0     O 3358  10.625   7.989   2.129 -0.4514  0.2955 -0.2689
   26MOL0     C 3359  10.502   8.069   2.138 -0.9375 -0.2088  0.4780
   26MOL0     C 3360  10.502   8.178   2.032  0.2040  0.4388  0.4279
   26MOL0     C 3361  10.510   8.135   1.887 -0.5312  0.6091  0.5421
   26MOL0     C 3362  10.383   8.131   1.816 -0.3257  0.1219 -0.6317
   26MOL0     C 3363  10.289   8.034   1.879 -0.4517 -0.7356  1.3778
   26MOL0     C 3364  10.200   7.972   1.926 -0.7622 -0.7879  0.2452
   26MOL0     C 3365  10.842   7.932   2.175 -0.5120 -0.0106  0.2579
   26MOL0     C 3366  10.963   7.949   2.244 -0.3482  0.0370 -0.7075
   26MOL0     H 3367  11.352   7.813   2.427  0.4413  0.2523 -3.2275
   26MOL0     H 3368  11.578   7.818   2.527  1.0492 -0.0864 -1.6554
   26MOL0     H 3369  11.738   8.211   2.634 -2.0943  0.0742 -1.6285
   26MOL0     H 3370  11.825   8.187   2.480 -0.7362 -2.9631 -2.0763
   26MOL0     H 3371  11.894   8.111   2.772  2.2753  1.2985  0.6709
   26MOL0     H 3372  11.972   8.232   2.661  1.7601 -0.5173 -0.1831
   26MOL0     H 3373  12.031   8.045   2.521  0.7239  2.0097 -0.3507
   26MOL0     H 3374  11.953   7.929   2.626 -1.7697  1.1991 -1.6153
   26MOL0     H 3375  12.200   8.098   2.715  2.8115 -2.3987 -0.4473
   26MOL0     H 3376  12.097   8.004   2.819 -2.4752 -0.6971 -1.0314
   26MOL0     H 3377  12.237   7.913   2.568  0.3356  1.1534  0.8921
   26MOL0     H 3378  12.156   7.794   2.667  2.6516 -2.8770  1.6741
   26MOL0     H 3379  12.320   7.826   2.853 -0.3047 -0.8866 -0.3184
   26MOL0     H 3380  12.360   7.982   2.783  1.6198 -0.9991 -0.0851
   26MOL0     H 3381  12.440   7.706   2.653  2.3383 -0.5665 -0.8302
   26MOL0     H 3382  12.461   7.875   2.592  1.1161  0.2818 -0.2667
   26MOL0     H 3383  12.583   7.939   2.792  0.7716 -0.8934  1.4856
   26MOL0     H 3384  12.652   7.817   2.704  1.9426  0.0929  2.9338
   26MOL0     H 3385  12.497   7.566   2.823  1.1855 -0.6628 -0.1042
   26MOL0     H 3386  12.576   7.488   3.198  2.4811  2.2339 -0.1995
   26MOL0     H 3387  12.643   7.398   3.076 -1.0913 -1.6046  1.9134
   26MOL0     H 3388  12.415   7.395   2.947  1.7637 -0.2297 -1.0196
   26MOL0     H 3389  12.354   7.431   3.108  0.2459  0.0259 -1.1391
   26MOL0     H 3390  12.541   7.185   3.039 -0.0280 -0.3684  0.9284
   26MOL0     H 3391  12.449   7.213   3.179 -0.6100  0.4235 -0.6976
   26MOL0     H 3392  12.240   7.199   3.038  0.3029 -0.0288 -0.8271
   26MOL0     H 3393  12.344   7.057   3.061 -0.1177  0.9346 -0.1599
   26MOL0     H 3394  12.124   7.008   2.891 -0.5837 -0.6573  0.8638
   26MOL0     H 3395  11.907   7.054   2.777 -1.2823  1.3021 -0.5246
   26MOL0     H 3396  11.612   7.192   2.461  1.8884 -0.7172 -0.3592
   26MOL0     H 3397  11.408   7.310   2.366 -1.2192  2.4446  1.9701
   26MOL0     H 3398  11.213   7.461   2.367 -1.7019 -2.9658 -2.3228
   26MOL0     H 3399  11.284   7.439   2.202 -0.7144  2.2618 -2.2797
   26MOL0     H 3400  11.227   7.683   2.169  0.0007  0.6322  0.5033
   26MOL0     H 3401  11.145   7.688   2.324  1.6062  3.1804 -1.5723
   26MOL0     H 3402  11.088   7.518   2.083 -1.8286  0.5314 -2.0363
   26MOL0     H 3403  11.012   7.670   2.126 -2.2839  0.0010  2.0328
   26MOL0     H 3404  10.979   7.406   2.291  1.7332  0.3993  2.2284
   26MOL0     H 3405  10.919   7.555   2.343 -2.8636 -0.6894 -0.6020
   26MOL0     H 3406  10.837   7.465   2.070  0.3469 -0.5527  0.1482
   26MOL0     H 3407  10.726   7.547   2.182 -0.6148 -1.5423 -1.3382
   26MOL0     H 3408  10.733   7.341   2.316  0.4152 -2.5201 -0.2611
   26MOL0     H 3409  10.815   7.253   2.192  0.7371  1.0090 -0.1811
   26MOL0     H 3410  10.551   7.403   2.173 -0.1402  0.1927  0.5094
   26MOL0     H 3411  10.623   7.310   2.031 -2.0135  1.4720 -0.5574
   26MOL0     H 3412  10.427   7.199   2.123 -0.9193 -0.2843 -0.6067
   26MOL0     H 3413  10.497   7.198   2.281  2.0549  2.2908 -0.1522
   26MOL0     H 3414  11.633   7.674   2.343  1.3640 -0.1326 -0.9182
   26MOL0     H 3415  11.831   7.556   2.429 -0.1311  1.7304 -2.9386
   26MOL0     H 3416  12.066   7.388   2.583 -0.2143 -1.8552 -1.2633
   26MOL0     H 3417  12.297   7.339   2.688 -0.9354  1.4742  1.9705
   26MOL0     H 3418  11.563   8.251   2.522  1.8096 -0.3958 -1.2362
   26MOL0     H 3419  11.349   8.239   2.405  3.5065  0.8671 -1.3191
   26MOL0     H 3420  10.875   8.244   2.407 -2.1210 -1.6537  3.0403
   26MOL0     H 3421  10.693   8.224   2.282 -1.6001 -0.2176 -2.9851
   26MOL0     H 3422  10.487   8.112   2.237  0.4350 -1.4912  1.2857
   26MOL0     H 3423  10.432   7.988   2.114  2.5587 -3.6264  0.8600
   26MOL0     H 3424  10.410   8.238   2.036  0.8037  1.7170 -2.4379
   26MOL0     H 3425  10.588   8.243   2.048  0.8588  0.3974 -2.4178
   26MOL0     H 3426  10.554   8.035   1.896 -1.3618  0.2942  1.1627
   26MOL0     H 3427  10.571   8.200   1.824 -3.0830  0.4064 -2.3196
   26MOL0     H 3428  10.329   8.226   1.815  1.1493  0.9891 -1.0058
   26MOL0     H 3429  10.393   8.098   1.712  0.5795 -3.0305  0.3314
   26MOL0     H 3430  10.112   7.927   1.967 -1.6038 -0.4203 -1.0836
   26MOL0     H 3431  10.827   7.841   2.117 -0.5237 -1.4351  2.3785
   26MOL0     H 3432  11.046   7.880   2.230 -0.4121 -0.1182 -0.3201
   27MOL0     O 3433   1.533   0.356   6.336  0.9504  0.2885  0.1175
   27MOL0     C 3434   1.534   0.234   6.296 -0.6507  0.1751 -0.8072
   27MOL0     O 3435   1.433   0.165   6.266  0.3739  0.3602 -0.1179
   27MOL0     C 3436   1.310   0.223   6.286 -0.6640  0.2534 -0.2614
   27MOL0     C 3437   1.211   0.201   6.192 -0.8836  0.2920  0.6039
   27MOL0     C 3438   1.075   0.238   6.208  1.0467  0.6296 -0.2594
   27MOL0     C 3439   1.026   0.297   6.324  0.0517 -0.3820 -0.4602
   27MOL0     O 3440   0.889   0.317   6.326  0.0501 -0.3191  0.5529
   27MOL0     C 3441   0.824   0.398   6.426  0.2272 -0.6635 -0.3150
   27MOL0     C 3442   0.673   0.374   6.440  0.2918  0.4571 -0.8925
   27MOL0     C 3443   0.604   0.378   6.297 -0.5969  0.0692 -0.0321
   27MOL0     C 3444   0.453   0.379   6.336 -0.9088  0.2330  0.2298
   27MOL0     C 3445   0.365   0.312   6.224 -0.0358 -0.6639 -0.1714
   27MOL0     C 3446   0.223   0.309   6.281 -0.3132 -1.1488  0.4534
   27MOL0     C 3447   0.144   0.244   6.172  0.3817  0.9387  1.1312
   27MOL0     C 3448   0.007   0.192   6.210  0.7378 -0.5035  0.4117
   27MOL0     N 3449  -0.078   0.309   6.246 -0.0385  0.5598 -0.2127
   27MOL0     C 3450  -0.112   0.402   6.149 -0.7421 -0.6430  0.0495
   27MOL0     C 3451  -0.151   0.512   6.220  0.2982  0.4804  0.0444
   27MOL0     C 3452  -0.197   0.640   6.151  0.2191 -0.1026  0.8430
   27MOL0     C 3453  -0.094   0.703   6.055  0.0392  0.4932 -0.1093
   27MOL0     C 3454   0.028   0.748   6.133 -0.6602 -0.1595 -0.2461
   27MOL0     C 3455   0.142   0.798   6.041  0.4060  0.9032 -0.2720
   27MOL0     O 3456   0.239   0.687   6.044  0.5024 -0.1005  0.2866
   27MOL0     C 3457   0.358   0.725   6.008 -1.3281 -0.1375 -0.0941
   27MOL0     C 3458   0.401   0.783   5.888  0.3677  0.5932  0.1834
   27MOL0     C 3459   0.535   0.789   5.853  0.4975 -0.7274  0.1464
   27MOL0     C 3460   0.639   0.740   5.936  0.6982  0.1704 -0.7235
   27MOL0     C 3461   0.778   0.755   5.896  0.9404  0.8309 -0.2527
   27MOL0     O 3462   0.797   0.775   5.763 -0.4904  0.2647  0.0979
   27MOL0     C 3463   0.922   0.789   5.708  0.1837  1.2876  0.6872
   27MOL0     C 3464   0.951   0.720   5.589 -0.1463  0.3697 -0.5662
   27MOL0     C 3465   1.057   0.755   5.499  0.7875 -0.6055 -0.5381
   27MOL0     C 3466   1.129   0.870   5.536  0.1995  0.2231 -0.8905
   27MOL0     O 3467   1.225   0.910   5.449  0.2390  0.2277 -0.3797
   27MOL0     C 3468   1.269   1.046   5.443 -1.0794 -0.6379  0.4890
   27MOL0     C 3469   1.366   1.067   5.324 -0.4081 -0.3363 -0.2238
   27MOL0     C 3470   1.492   0.984   5.340  0.6814 -1.4183 -0.0813
   27MOL0     C 3471   1.590   1.006   5.219 -0.3954  0.0377 -0.0054
   27MOL0     C 3472   1.726   0.933   5.256  0.3639  0.0336 -0.1683
   27MOL0     C 3473   1.814   0.939   5.121 -0.6764  0.0017 -0.6181
   27MOL0     C 3474   1.940   0.856   5.128  0.2000  0.0236  0.3550
   27MOL0     C 3475   2.028   0.851   5.001 -0.5336  0.4970 -0.2434
   27MOL0    Cl 3476   2.152   0.981   5.001  0.0278  0.7416  0.0385
   27MOL0     C 3477   1.104   0.941   5.660 -0.5740 -0.8335 -0.3165
   27MOL0     C 3478   1.009   0.896   5.743  1.0874  0.1883 -0.4343
   27MOL0     O 3479   0.866   0.743   5.980 -0.0068 -0.0295 -0.1577
   27MOL0     C 3480   0.599   0.688   6.052  0.9146  0.6442 -1.1410
   27MOL0     C 3481   0.462   0.685   6.094 -0.2569 -0.5505 -0.1313
   27MOL0     N 3482  -0.131   0.487   6.357  0.1630 -0.1343  0.3184
   27MOL0     N 3483  -0.091   0.370   6.364  0.0953 -0.4740  0.2056
   27MOL0     C 3484   1.126   0.314   6.427  0.0046  0.1132 -0.4669
   27MOL0     C 3485   1.261   0.276   6.408  0.0967  0.1695 -0.2299
   27MOL0     C 3486   1.665   0.165   6.275  0.9725  0.6692  0.2333
   27MOL0     C 3487   1.789   0.237   6.287  0.0376 -0.1404  0.5040
   27MOL0     C 3488   1.902   0.191   6.242  0.2849 -0.1313 -0.0823
   27MOL0     C 3489   1.922   0.053   6.197 -0.1012 -0.3342 -0.2474
   27MOL0     O 3490   2.029   0.001   6.137 -0.7257  0.4369  0.5922
   27MOL0     C 3491   2.145   0.069   6.119  0.0239  0.0575  0.2413
   27MOL0     C 3492   2.247  -0.021   6.200  0.0581  0.2859 -0.8240
   27MOL0     C 3493   2.377   0.058   6.212  0.0834  0.6565 -0.8590
   27MOL0     C 3494   2.491  -0.041   6.223  0.2129 -1.0311  0.1914
   27MOL0     C 3495   2.527  -0.104   6.098  0.3134 -0.0032  0.8376
   27MOL0     C 3496   2.556  -0.155   5.990 -0.1574  0.0002  0.5860
   27MOL0     C 3497   1.799  -0.020   6.182 -0.7999 -0.6896 -0.0936
   27MOL0     C 3498   1.674   0.034   6.216 -0.1149  0.2973  0.3954
   27MOL0     H 3499   1.242   0.153   6.101 -0.3601  0.6136  0.6097
   27MOL0     H 3500   1.001   0.216   6.132 -1.3648  0.1055  2.0901
   27MOL0     H 3501   0.839   0.497   6.383 -0.1313  0.0691  1.1745
   27MOL0     H 3502   0.866   0.390   6.527 -0.2560 -1.6494 -0.1805
   27MOL0     H 3503   0.636   0.445   6.514 -0.1974 -1.9602  1.3619
   27MOL0     H 3504   0.651   0.281   6.494 -1.9450  1.6795  0.4678
   27MOL0     H 3505   0.623   0.282   6.247 -0.7055 -0.8369  1.5914
   27MOL0     H 3506   0.626   0.468   6.240  0.0515 -0.5945 -0.8591
   27MOL0     H 3507   0.444   0.301   6.412  1.0776  0.0971  0.3858
   27MOL0     H 3508   0.424   0.478   6.370 -1.5260  0.1608 -0.0770
   27MOL0     H 3509   0.405   0.210   6.225 -0.8391 -0.9818  0.2534
   27MOL0     H 3510   0.380   0.370   6.132  0.3695 -0.7045 -0.1308
   27MOL0     H 3511   0.188   0.412   6.295  0.0621 -0.5028 -2.6893
   27MOL0     H 3512   0.214   0.257   6.377 -1.4249 -0.6153  0.6528
   27MOL0     H 3513   0.127   0.322   6.096 -2.5974 -0.2984  0.3557
   27MOL0     H 3514   0.198   0.160   6.128 -1.1452  0.0429  0.8981
   27MOL0     H 3515   0.009   0.121   6.294  1.3407 -0.6154  0.3079
   27MOL0     H 3516  -0.023   0.132   6.124 -2.7118  0.2271  0.9611
   27MOL0     H 3517  -0.117   0.395   6.041 -2.2041  0.9866 -0.0189
   27MOL0     H 3518  -0.225   0.710   6.230  0.2350  0.9894 -0.0748
   27MOL0     H 3519  -0.282   0.621   6.085  0.1633  0.5397  0.7155
   27MOL0     H 3520  -0.148   0.785   6.007 -0.6376 -0.0622 -0.3242
   27MOL0     H 3521  -0.081   0.631   5.974 -1.8604 -1.6184  1.3476
   27MOL0     H 3522  -0.003   0.832   6.196  0.3714  2.7491 -3.3289
   27MOL0     H 3523   0.075   0.671   6.194  2.8649  2.7610  1.0960
   27MOL0     H 3524   0.186   0.882   6.096 -0.8146  1.0083  0.5920
   27MOL0     H 3525   0.101   0.827   5.944 -1.3616 -1.3816 -0.3087
   27MOL0     H 3526   0.331   0.808   5.808 -1.0452  0.0853  1.2049
   27MOL0     H 3527   0.566   0.829   5.757 -0.3892  1.4492  0.6870
   27MOL0     H 3528   0.881   0.642   5.559  1.3247 -0.7257 -1.3098
   27MOL0     H 3529   1.074   0.711   5.402 -0.2467  2.0806 -2.0511
   27MOL0     H 3530   1.324   1.075   5.533 -1.2507  1.0362  0.0933
   27MOL0     H 3531   1.183   1.113   5.439 -1.3080 -0.7915  2.3102
   27MOL0     H 3532   1.389   1.171   5.299  1.4173 -0.6735 -0.1062
   27MOL0     H 3533   1.321   1.017   5.237  3.5038 -3.2515 -0.8425
   27MOL0     H 3534   1.466   0.879   5.358  0.3179 -0.9018  3.0796
   27MOL0     H 3535   1.544   1.017   5.430  0.2589 -3.5967  1.0461
   27MOL0     H 3536   1.549   0.966   5.126 -4.9209  1.0799  1.3085
   27MOL0     H 3537   1.611   1.110   5.193 -0.4052 -0.8295 -4.0437
   27MOL0     H 3538   1.707   0.832   5.292  0.7242  0.5306  1.4929
   27MOL0     H 3539   1.772   0.987   5.339 -1.9942  1.1069  0.5197
   27MOL0     H 3540   1.850   1.042   5.112 -0.6707  0.3693  2.5512
   27MOL0     H 3541   1.756   0.915   5.031 -0.8213  2.3780 -1.2251
   27MOL0     H 3542   1.990   0.908   5.211 -1.9903  1.8619  0.6412
   27MOL0     H 3543   1.921   0.753   5.159 -0.0666 -0.4410 -1.2963
   27MOL0     H 3544   1.957   0.848   4.918 -2.8650 -1.8931  1.6371
   27MOL0     H 3545   2.089   0.760   5.007 -0.0662  0.8560  0.5822
   27MOL0     H 3546   1.165   1.026   5.690  1.0985 -2.7371  2.0413
   27MOL0     H 3547   0.976   0.961   5.823 -1.2388 -2.0479  0.5440
   27MOL0     H 3548   0.679   0.652   6.115  0.3264  1.5683  0.1662
   27MOL0     H 3549   0.430   0.659   6.195  0.9878  0.5728  0.5968
   27MOL0     H 3550   1.088   0.354   6.521  0.3683  0.4236 -0.4505
   27MOL0     H 3551   1.331   0.270   6.491 -1.2724 -2.4002  0.8609
   27MOL0     H 3552   1.806   0.340   6.319  0.0552 -0.3800  1.2917
   27MOL0     H 3553   1.991   0.253   6.250  0.8537 -1.0882  1.5736
   27MOL0     H 3554   2.148   0.170   6.162  0.0325  0.0121  0.3476
   27MOL0     H 3555   2.182   0.063   6.016  1.3593  2.3130  0.5258
   27MOL0     H 3556   2.208  -0.047   6.299 -1.0666 -0.1391 -1.3571
   27MOL0     H 3557   2.270  -0.116   6.153  5.3217 -0.1395  1.8604
   27MOL0     H 3558   2.375   0.118   6.303 -1.1090 -0.1597 -0.3218
   27MOL0     H 3559   2.403   0.117   6.123  2.3153 -0.7961 -1.2507
   27MOL0     H 3560   2.576   0.021   6.256 -0.9041  0.2808  0.7048
   27MOL0     H 3561   2.493  -0.113   6.306  4.2569 -0.4637  0.8186
   27MOL0     H 3562   2.567  -0.185   5.888  1.5093  3.4285 -0.3963
   27MOL0     H 3563   1.806  -0.116   6.131  0.0584 -0.7161  0.0653
   27MOL0     H 3564   1.584  -0.023   6.194  0.7008 -1.8919  2.3561
   28MOL0     O 3565   7.079   2.456   5.931 -0.0872  0.0547  0.0420
   28MOL0     C 3566   7.177   2.523   5.968 -0.6632 -0.3559  0.0197
   28MOL0     O 3567   7.178   2.641   6.047 -0.3949 -0.4129 -0.0655
   28MOL0     C 3568   7.066   2.657   6.117 -0.5652 -0.0481  0.1230
   28MOL0     C 3569   6.997   2.778   6.110 -0.1249 -0.4332 -0.6852
   28MOL0     C 3570   6.870   2.803   6.174 -0.7892  0.1021 -0.4120
   28MOL0     C 3571   6.806   2.700   6.247 -0.6738 -0.2848 -0.4922
   28MOL0     O 3572   6.679   2.708   6.304  0.2691  0.3620  1.1932
   28MOL0     C 3573   6.571   2.721   6.205 -0.3781  0.3267  0.5380
   28MOL0     C 3574   6.451   2.717   6.307 -0.2205  0.6270  0.5464
   28MOL0     C 3575   6.448   2.834   6.404 -0.5926 -0.0926 -0.3451
   28MOL0     C 3576   6.327   2.839   6.487 -0.4574 -0.2605  0.0731
   28MOL0     C 3577   6.335   2.954   6.592  0.1025 -0.1137  0.1929
   28MOL0     C 3578   6.228   2.950   6.700 -0.0913 -0.7748 -0.1878
   28MOL0     C 3579   6.078   2.922   6.654 -0.7178 -0.5292 -0.5534
   28MOL0     C 3580   5.976   2.949   6.766 -0.0862 -0.5882  0.2312
   28MOL0     N 3581   5.843   2.914   6.722 -0.0873  0.3667  0.4690
   28MOL0     C 3582   5.802   2.784   6.697  0.5329 -0.0713  0.1763
   28MOL0     C 3583   5.674   2.784   6.689 -1.2480 -0.1097 -0.4380
   28MOL0     C 3584   5.586   2.682   6.635  0.2074 -0.1711  0.0808
   28MOL0     C 3585   5.503   2.610   6.742 -0.5405 -0.6764 -1.4746
   28MOL0     C 3586   5.406   2.688   6.818 -0.3185 -0.1103  0.0756
   28MOL0     C 3587   5.292   2.747   6.738 -0.2254  0.8483 -0.2574
   28MOL0     O 3588   5.214   2.642   6.669 -0.2255 -0.9529  0.1583
   28MOL0     C 3589   5.145   2.560   6.747  0.9041 -0.0950 -0.1310
   28MOL0     C 3590   5.021   2.604   6.790 -0.5867 -0.5833 -0.1532
   28MOL0     C 3591   4.938   2.517   6.868  0.0211 -0.6812  0.7132
   28MOL0     C 3592   4.976   2.384   6.894  0.4993 -0.5539 -0.2995
   28MOL0     C 3593   4.897   2.296   6.985 -0.5356 -0.7112  0.1154
   28MOL0     O 3594   4.785   2.355   7.029  0.4931  0.5358 -0.1999
   28MOL0     C 3595   4.712   2.280   7.119 -0.7010 -0.2254  0.4895
   28MOL0     C 3596   4.620   2.178   7.079  0.8740  0.1602 -1.4258
   28MOL0     C 3597   4.562   2.090   7.173 -0.8642 -0.3040  0.2594
   28MOL0     C 3598   4.578   2.119   7.309  0.9424 -0.8937 -0.6187
   28MOL0     O 3599   4.518   2.057   7.417  0.1879 -0.3406 -0.5850
   28MOL0     C 3600   4.393   1.993   7.392 -0.6131  0.1261  0.2256
   28MOL0     C 3601   4.283   2.105   7.364 -0.3282 -0.3311  0.3156
   28MOL0     C 3602   4.136   2.053   7.321 -0.4631  0.8787 -0.8141
   28MOL0     C 3603   4.075   2.158   7.223 -0.5027 -0.6219 -0.3696
   28MOL0     C 3604   3.937   2.125   7.170  0.1556  1.1524  0.0503
   28MOL0     C 3605   3.823   2.150   7.267 -0.2494 -0.0534  0.3581
   28MOL0     C 3606   3.684   2.095   7.224 -0.0461  0.0734  0.2741
   28MOL0     C 3607   3.570   2.131   7.312  0.7324  0.1570 -0.7402
   28MOL0    Cl 3608   3.528   2.310   7.273 -0.3040  0.1210  0.0606
   28MOL0     C 3609   4.652   2.230   7.347  0.5234  0.4231 -0.1012
   28MOL0     C 3610   4.735   2.304   7.258  0.1268  0.2898  0.5830
   28MOL0     O 3611   4.931   2.180   6.997 -0.1925 -0.2454  0.9526
   28MOL0     C 3612   5.095   2.345   6.844 -0.5105 -0.4449 -0.1309
   28MOL0     C 3613   5.185   2.431   6.781  0.3530 -0.1290  0.0523
   28MOL0     N 3614   5.630   2.916   6.706  0.7237  0.2485 -0.9198
   28MOL0     N 3615   5.734   2.990   6.727  0.1980  0.1583  0.1091
   28MOL0     C 3616   6.881   2.576   6.252  0.7767  0.1891  0.1151
   28MOL0     C 3617   7.000   2.547   6.187  0.6043 -0.0777  0.1544
   28MOL0     C 3618   7.313   2.475   5.935  0.1706  0.2270 -0.7870
   28MOL0     C 3619   7.329   2.383   5.838  0.1496  0.4128 -0.2326
   28MOL0     C 3620   7.456   2.341   5.808 -0.4329 -0.3833 -0.5569
   28MOL0     C 3621   7.566   2.377   5.889  0.1606 -0.6483  0.0148
   28MOL0     O 3622   7.685   2.322   5.856 -0.3320  0.1016 -0.4401
   28MOL0     C 3623   7.805   2.391   5.888 -0.0609 -0.0616  0.6756
   28MOL0     C 3624   7.916   2.287   5.871 -0.0529  0.0648 -0.0529
   28MOL0     C 3625   7.922   2.220   5.729  0.8400 -0.0015  0.7508
   28MOL0     C 3626   7.841   2.097   5.706 -0.6338  0.4732 -0.9447
   28MOL0     C 3627   7.894   1.981   5.783  0.4849 -0.7815 -0.6077
   28MOL0     C 3628   7.926   1.883   5.846  0.1082 -0.4459 -0.1990
   28MOL0     C 3629   7.544   2.459   5.998  0.2737  0.0107  0.1920
   28MOL0     C 3630   7.426   2.520   6.009 -0.2937  0.0074  0.3066
   28MOL0     H 3631   7.039   2.868   6.068 -0.5892 -1.0457 -2.5662
   28MOL0     H 3632   6.834   2.905   6.166  2.7791  1.6259  0.9680
   28MOL0     H 3633   6.563   2.634   6.139 -1.4494 -0.3581  1.5116
   28MOL0     H 3634   6.580   2.813   6.146  0.3830  0.2786  0.5762
   28MOL0     H 3635   6.451   2.623   6.362  0.6964 -0.7294 -1.6225
   28MOL0     H 3636   6.362   2.719   6.243  1.7374 -0.2077 -2.4423
   28MOL0     H 3637   6.458   2.920   6.337 -3.8219  0.8895  0.2419
   28MOL0     H 3638   6.534   2.829   6.471 -0.9903 -1.4071  0.1002
   28MOL0     H 3639   6.241   2.847   6.420 -0.1608  2.7584 -0.1134
   28MOL0     H 3640   6.310   2.745   6.540 -1.5640 -0.3894 -0.5051
   28MOL0     H 3641   6.346   3.054   6.551  2.1613  0.5581  2.1679
   28MOL0     H 3642   6.435   2.944   6.636  0.0480 -1.2323  0.0918
   28MOL0     H 3643   6.225   3.054   6.733 -0.6323 -1.0219  0.5909
   28MOL0     H 3644   6.258   2.892   6.787  0.8103 -0.2640 -0.1529
   28MOL0     H 3645   6.048   2.979   6.566 -0.3476 -3.0581 -2.4079
   28MOL0     H 3646   6.061   2.819   6.623 -2.2228  0.4722 -3.4023
   28MOL0     H 3647   5.971   3.053   6.799 -1.3802 -0.2318 -0.9883
   28MOL0     H 3648   5.999   2.879   6.847  2.0277 -1.7122 -1.2128
   28MOL0     H 3649   5.860   2.693   6.691 -0.9712 -1.0066 -0.6337
   28MOL0     H 3650   5.646   2.601   6.593 -0.3049 -2.2281  3.0199
   28MOL0     H 3651   5.517   2.714   6.556  1.8263 -0.4336 -1.4985
   28MOL0     H 3652   5.568   2.571   6.821 -1.1787  1.0111 -0.0534
   28MOL0     H 3653   5.456   2.525   6.691  0.2027 -0.6830 -2.1670
   28MOL0     H 3654   5.363   2.616   6.889 -1.0735  1.5562  1.3610
   28MOL0     H 3655   5.451   2.756   6.890  0.3932 -1.3336  0.8171
   28MOL0     H 3656   5.330   2.804   6.653  0.1337 -0.7595 -1.2267
   28MOL0     H 3657   5.239   2.801   6.818 -1.3233 -1.0259  0.3474
   28MOL0     H 3658   4.988   2.706   6.770  1.6245  0.0665 -0.8012
   28MOL0     H 3659   4.839   2.549   6.899 -0.9503 -3.3895  0.6036
   28MOL0     H 3660   4.579   2.172   6.979 -2.2625 -0.7651 -0.1906
   28MOL0     H 3661   4.510   2.004   7.132  1.5350 -1.8419  0.2260
   28MOL0     H 3662   4.373   1.926   7.475  2.6748  0.6009  1.5737
   28MOL0     H 3663   4.399   1.926   7.305 -0.0650 -2.5739  2.2221
   28MOL0     H 3664   4.320   2.173   7.288  1.9170 -0.0433  1.5893
   28MOL0     H 3665   4.261   2.170   7.450 -5.3777  0.6123 -1.3158
   28MOL0     H 3666   4.079   2.042   7.413  1.3317  0.5916  0.3064
   28MOL0     H 3667   4.144   1.955   7.273 -0.1086  1.8499 -2.8288
   28MOL0     H 3668   4.075   2.254   7.276  0.7242 -0.7632 -0.0672
   28MOL0     H 3669   4.152   2.168   7.146  0.4311  0.2327  0.6233
   28MOL0     H 3670   3.932   2.026   7.125 -0.2313  0.0653  2.3176
   28MOL0     H 3671   3.924   2.189   7.082  1.5774 -3.3070 -3.8380
   28MOL0     H 3672   3.819   2.257   7.287  4.4276  0.1214  1.5578
   28MOL0     H 3673   3.858   2.107   7.361  2.9707 -2.8146 -1.8692
   28MOL0     H 3674   3.660   2.140   7.127  1.7037  2.6160  0.9255
   28MOL0     H 3675   3.683   1.986   7.231  0.2868 -0.0677 -1.4438
   28MOL0     H 3676   3.595   2.111   7.416 -0.2899 -1.8335 -0.8264
   28MOL0     H 3677   3.479   2.072   7.295  0.4964 -1.2323  3.9698
   28MOL0     H 3678   4.655   2.244   7.455 -3.0214 -0.8315  0.3084
   28MOL0     H 3679   4.795   2.388   7.291  2.3230  0.1041 -2.4905
   28MOL0     H 3680   5.126   2.243   6.861  2.1519  0.2266 -0.4506
   28MOL0     H 3681   5.273   2.375   6.750  0.2277 -0.0399 -0.4773
   28MOL0     H 3682   6.833   2.493   6.304 -0.6258  1.6850  1.3291
   28MOL0     H 3683   7.030   2.444   6.172 -1.6517 -0.6711 -0.6118
   28MOL0     H 3684   7.243   2.337   5.791  0.8772 -2.3447  0.9520
   28MOL0     H 3685   7.473   2.271   5.727 -2.2149 -0.3436 -0.9922
   28MOL0     H 3686   7.812   2.428   5.990  3.8529  1.1126  0.1407
   28MOL0     H 3687   7.813   2.477   5.821 -1.7781 -0.7029 -0.4175
   28MOL0     H 3688   8.015   2.328   5.891 -0.2260 -0.0438  1.0817
   28MOL0     H 3689   7.905   2.216   5.953  1.5703 -0.1110  0.0383
   28MOL0     H 3690   8.027   2.209   5.701  1.3725  2.3950  1.5741
   28MOL0     H 3691   7.892   2.294   5.655 -2.0425  0.6723  2.4470
   28MOL0     H 3692   7.736   2.100   5.736 -0.4544 -1.4877  0.0963
   28MOL0     H 3693   7.850   2.080   5.599  6.0002  1.0803 -0.9124
   28MOL0     H 3694   7.951   1.793   5.899  1.7508 -0.6511 -1.2670
   28MOL0     H 3695   7.625   2.469   6.069  1.6677 -2.0645 -0.9744
   28MOL0     H 3696   7.417   2.597   6.086 -0.7914  1.4216 -1.1128
   29MOL0     O 3697   8.350   5.072   4.020  0.0413 -0.0886  0.7698
   29MOL0     C 3698   8.433   4.986   4.055 -0.0535 -0.2703  0.6559
   29MOL0     O 3699   8.422   4.846   4.034  0.9926 -0.3771 -0.7132
   29MOL0     C 3700   8.310   4.798   3.969 -0.0486 -0.0886  0.3568
   29MOL0     C 3701   8.331   4.701   3.872 -1.0410  0.5401  0.3425
   29MOL0     C 3702   8.228   4.648   3.798  0.3810 -0.2354 -0.7453
   29MOL0     C 3703   8.097   4.696   3.806 -0.4192  0.5366  0.1591
   29MOL0     O 3704   8.006   4.643   3.721  1.4608 -0.6756  0.1437
   29MOL0     C 3705   7.863   4.676   3.738 -0.5097 -0.5472  0.7742
   29MOL0     C 3706   7.831   4.822   3.697  0.1270 -0.3850  0.0504
   29MOL0     C 3707   7.682   4.850   3.714 -0.5340  0.0561 -0.2997
   29MOL0     C 3708   7.584   4.768   3.641 -0.1855  0.3283  0.1603
   29MOL0     C 3709   7.600   4.789   3.489 -0.2940  0.0483 -0.6351
   29MOL0     C 3710   7.514   4.697   3.418 -1.2052 -0.4281 -0.0880
   29MOL0     C 3711   7.367   4.716   3.465 -0.0901  0.0395 -0.2536
   29MOL0     C 3712   7.254   4.650   3.381  0.1981 -0.3697 -0.1759
   29MOL0     N 3713   7.120   4.659   3.451 -0.2567 -0.0709 -0.7397
   29MOL0     C 3714   7.084   4.563   3.539  0.5235  0.0802  0.2960
   29MOL0     C 3715   6.955   4.599   3.584 -0.9654 -0.1581 -0.1623
   29MOL0     C 3716   6.869   4.520   3.685  0.4834 -0.7760 -0.2755
   29MOL0     C 3717   6.842   4.381   3.626 -0.2688  0.4945  0.1562
   29MOL0     C 3718   6.745   4.288   3.705 -0.5971 -0.8263 -0.4137
   29MOL0     C 3719   6.760   4.142   3.680  0.7003 -0.0197  0.9684
   29MOL0     O 3720   6.702   4.102   3.556 -0.2971  0.0944  0.0760
   29MOL0     C 3721   6.570   4.108   3.550  0.3920  0.4957 -0.2045
   29MOL0     C 3722   6.520   4.113   3.422 -0.1936  0.7322 -0.4300
   29MOL0     C 3723   6.382   4.119   3.394 -0.2318 -0.0108 -0.0021
   29MOL0     C 3724   6.290   4.150   3.492 -0.2746 -0.2072  0.3181
   29MOL0     C 3725   6.147   4.197   3.470  0.0360  0.0691  0.5063
   29MOL0     O 3726   6.077   4.240   3.580 -0.0908 -0.3985  0.3271
   29MOL0     C 3727   5.961   4.316   3.583  0.1506  0.0356  0.3022
   29MOL0     C 3728   5.891   4.333   3.708 -0.4032 -0.4018 -0.7083
   29MOL0     C 3729   5.758   4.391   3.712 -0.0065  0.7401 -1.4224
   29MOL0     C 3730   5.699   4.442   3.591  0.9922 -0.2396 -0.3514
   29MOL0     O 3731   5.577   4.509   3.586 -0.2874 -0.1541  0.3525
   29MOL0     C 3732   5.488   4.514   3.702  0.3587 -0.2956  0.2454
   29MOL0     C 3733   5.345   4.531   3.656 -0.0007  0.3474 -0.3647
   29MOL0     C 3734   5.245   4.548   3.768 -0.2792 -0.2061  0.2175
   29MOL0     C 3735   5.092   4.530   3.728  0.2778 -0.3402 -0.3897
   29MOL0     C 3736   4.995   4.546   3.841  1.0653 -0.3406  0.2090
   29MOL0     C 3737   4.861   4.620   3.790 -0.6861 -0.1296 -0.2715
   29MOL0     C 3738   4.781   4.540   3.682  0.0783 -0.8555  0.3238
   29MOL0     C 3739   4.632   4.581   3.657 -0.0436  0.0778 -1.2719
   29MOL0    Cl 3740   4.601   4.753   3.641  0.2481  0.9016  0.0550
   29MOL0     C 3741   5.780   4.447   3.476  0.2539 -0.3402  0.6415
   29MOL0     C 3742   5.911   4.392   3.474 -0.5587  0.8739  0.2965
   29MOL0     O 3743   6.109   4.206   3.350  1.0957  0.4558 -0.2266
   29MOL0     C 3744   6.342   4.143   3.626  0.2644 -0.3184 -0.2005
   29MOL0     C 3745   6.474   4.122   3.656 -0.3175  0.4693  0.6671
   29MOL0     N 3746   6.924   4.725   3.528 -0.1508  0.6429 -0.3029
   29MOL0     N 3747   7.024   4.761   3.456  0.4048 -0.0105 -0.0831
   29MOL0     C 3748   8.078   4.792   3.905  0.6491  0.0809 -0.6700
   29MOL0     C 3749   8.174   4.829   3.994  0.7874  0.5849 -0.0255
   29MOL0     C 3750   8.567   5.035   4.103  1.2249 -0.3764 -0.4422
   29MOL0     C 3751   8.587   5.180   4.117  0.1484  0.4349 -0.6493
   29MOL0     C 3752   8.702   5.229   4.184  0.1000 -0.2604 -0.4546
   29MOL0     C 3753   8.794   5.145   4.243  0.2541  0.6104 -0.5712
   29MOL0     O 3754   8.919   5.186   4.298 -0.3066  0.2200  0.7506
   29MOL0     C 3755   8.939   5.312   4.363  0.0980 -0.8482 -0.3253
   29MOL0     C 3756   9.046   5.395   4.299 -0.3414  0.3190 -0.8144
   29MOL0     C 3757   9.168   5.321   4.264 -0.6720  0.6261 -0.2797
   29MOL0     C 3758   9.256   5.376   4.152  0.8137 -0.5152 -0.3422
   29MOL0     C 3759   9.308   5.507   4.218 -0.6126  0.9478  0.3283
   29MOL0     C 3760   9.346   5.614   4.272 -0.8107  1.1024  0.4862
   29MOL0     C 3761   8.777   5.006   4.222  1.0001 -0.0450 -1.3994
   29MOL0     C 3762   8.665   4.950   4.152 -0.4728 -0.3214 -0.9642
   29MOL0     H 3763   8.435   4.684   3.848 -1.1947 -2.2289  1.2276
   29MOL0     H 3764   8.245   4.560   3.738 -3.9260 -1.9568  0.2078
   29MOL0     H 3765   7.834   4.664   3.843 -1.0422  0.7150  0.7916
   29MOL0     H 3766   7.806   4.606   3.676  1.0656  0.2913 -1.7504
   29MOL0     H 3767   7.862   4.842   3.593 -0.9807  0.3130 -0.1628
   29MOL0     H 3768   7.891   4.894   3.754 -1.2509  0.4843  0.4360
   29MOL0     H 3769   7.661   4.955   3.693 -1.9379  0.0931  1.1301
   29MOL0     H 3770   7.662   4.830   3.820  3.1747  0.9431  0.7205
   29MOL0     H 3771   7.573   4.663   3.668 -0.7721  0.7903  1.8389
   29MOL0     H 3772   7.488   4.816   3.661  0.3837  2.3891 -1.6710
   29MOL0     H 3773   7.697   4.765   3.445 -0.1144  0.4243 -0.4502
   29MOL0     H 3774   7.567   4.892   3.469  1.0300  0.6536  0.1709
   29MOL0     H 3775   7.556   4.596   3.420  2.6399  1.0167  0.1734
   29MOL0     H 3776   7.526   4.724   3.313  0.0377  0.1523  0.1888
   29MOL0     H 3777   7.358   4.672   3.565  1.2622 -2.4501 -1.1421
   29MOL0     H 3778   7.343   4.823   3.472 -1.3990 -0.2959  0.8358
   29MOL0     H 3779   7.273   4.545   3.357 -2.1906 -0.9318  0.1476
   29MOL0     H 3780   7.249   4.709   3.289  0.3703  0.5680  0.3950
   29MOL0     H 3781   7.140   4.472   3.554  0.7807  0.4228  1.5506
   29MOL0     H 3782   6.776   4.571   3.712  1.1061  0.8264 -0.9949
   29MOL0     H 3783   6.925   4.511   3.779  1.4194  1.5721 -0.5209
   29MOL0     H 3784   6.938   4.329   3.630 -0.6529 -0.3194 -0.7696
   29MOL0     H 3785   6.806   4.398   3.524 -0.0716  0.9187  0.1566
   29MOL0     H 3786   6.762   4.302   3.813 -1.6187 -0.5806 -0.2712
   29MOL0     H 3787   6.640   4.316   3.694 -1.2555 -2.3100  1.4131
   29MOL0     H 3788   6.710   4.091   3.762  3.4759 -1.7215  1.7533
   29MOL0     H 3789   6.868   4.123   3.683  0.6041 -0.4169  2.8151
   29MOL0     H 3790   6.601   4.108   3.350  2.7866  1.7563  2.5894
   29MOL0     H 3791   6.356   4.110   3.289 -0.4814 -0.8662  0.1258
   29MOL0     H 3792   5.933   4.286   3.796  2.9798  3.4175  0.0530
   29MOL0     H 3793   5.708   4.388   3.808  0.4784  1.2049 -1.1514
   29MOL0     H 3794   5.503   4.605   3.761 -1.2967  0.3577 -0.2816
   29MOL0     H 3795   5.502   4.425   3.763  1.8873 -0.3003 -0.0730
   29MOL0     H 3796   5.319   4.439   3.602 -2.5045  0.3314  0.7146
   29MOL0     H 3797   5.340   4.611   3.581 -0.6942 -0.4126 -1.1488
   29MOL0     H 3798   5.256   4.644   3.820  2.5674 -1.0596  1.3734
   29MOL0     H 3799   5.261   4.463   3.834 -1.2340  0.5355  1.4434
   29MOL0     H 3800   5.063   4.614   3.665  1.0415  1.1689  1.1889
   29MOL0     H 3801   5.081   4.442   3.663  1.6656 -0.7687 -0.0862
   29MOL0     H 3802   5.031   4.613   3.919  0.6277  0.4229 -0.2270
   29MOL0     H 3803   4.977   4.448   3.886  4.0864 -1.8884 -1.5922
   29MOL0     H 3804   4.886   4.718   3.749  0.3323  0.0018  0.6170
   29MOL0     H 3805   4.795   4.646   3.873 -0.3407  1.8566 -0.5672
   29MOL0     H 3806   4.830   4.545   3.584  1.3720 -0.0746  0.9911
   29MOL0     H 3807   4.780   4.434   3.709 -2.3826 -0.8578  0.4416
   29MOL0     H 3808   4.584   4.552   3.751 -1.0655 -2.8336 -2.5625
   29MOL0     H 3809   4.581   4.520   3.582 -1.9068 -2.3356  1.7031
   29MOL0     H 3810   5.748   4.497   3.385 -0.4197  1.0829  1.6221
   29MOL0     H 3811   5.975   4.394   3.386 -1.0422  0.4287 -0.0753
   29MOL0     H 3812   6.283   4.171   3.713 -1.0244  0.5308 -1.3084
   29MOL0     H 3813   6.506   4.125   3.760  1.7091 -1.3323  0.1676
   29MOL0     H 3814   7.976   4.827   3.915  1.0307  0.7712  1.2142
   29MOL0     H 3815   8.153   4.907   4.067  0.7769  1.0806 -0.5465
   29MOL0     H 3816   8.515   5.252   4.080 -0.3281  0.5260  0.4363
   29MOL0     H 3817   8.710   5.337   4.182  4.0517 -0.3650  0.8340
   29MOL0     H 3818   8.971   5.299   4.466  0.5260 -0.7501 -0.4430
   29MOL0     H 3819   8.843   5.362   4.344  0.9718  0.3158 -1.9434
   29MOL0     H 3820   9.005   5.439   4.208  0.2115  0.2864 -1.0892
   29MOL0     H 3821   9.071   5.475   4.370 -1.0423  0.2201 -0.4544
   29MOL0     H 3822   9.137   5.219   4.238 -0.8678  0.1431  1.6311
   29MOL0     H 3823   9.234   5.308   4.351 -3.1146  0.8074  1.7407
   29MOL0     H 3824   9.336   5.307   4.124 -1.3798 -2.9423 -0.9932
   29MOL0     H 3825   9.192   5.400   4.066  0.3605  3.2560  0.8387
   29MOL0     H 3826   9.380   5.711   4.298 -1.7013  2.1985 -2.0744
   29MOL0     H 3827   8.851   4.945   4.273 -0.1529 -0.3580 -0.0305
   29MOL0     H 3828   8.665   4.842   4.136  0.1557 -0.1773 -2.0159
   30MOL0     O 3829   0.477   2.296   4.980 -0.2057  0.2452 -0.2377
   30MOL0     C 3830   0.410   2.246   4.894  0.5159  0.1603  0.1666
   30MOL0     O 3831   0.463   2.182   4.781  1.2152  0.0382 -0.1674
   30MOL0     C 3832   0.592   2.183   4.764 -0.3832 -0.2052 -0.2765
   30MOL0     C 3833   0.663   2.060   4.749  0.4123 -0.8249 -0.3591
   30MOL0     C 3834   0.797   2.050   4.741 -0.1319 -0.1395 -0.4936
   30MOL0     C 3835   0.881   2.163   4.738 -1.1901  0.1656 -0.7595
   30MOL0     O 3836   1.010   2.135   4.720 -0.2453 -0.5697  0.3953
   30MOL0     C 3837   1.117   2.239   4.715  0.3388 -0.5654 -0.2483
   30MOL0     C 3838   1.263   2.183   4.697 -0.0479 -0.4245 -0.2262
   30MOL0     C 3839   1.311   2.125   4.830  0.3370 -0.2630  0.2153
   30MOL0     C 3840   1.459   2.084   4.822 -0.0592 -0.3031  0.0333
   30MOL0     C 3841   1.514   2.100   4.967  0.1902  0.8827 -0.6038
   30MOL0     C 3842   1.471   1.989   5.057 -0.2544  0.9118 -0.5480
   30MOL0     C 3843   1.522   2.002   5.201  0.1496 -0.1623  0.6562
   30MOL0     C 3844   1.441   1.918   5.301 -0.9962 -0.0235  0.7648
   30MOL0     N 3845   1.303   1.972   5.313 -0.3351 -0.3148 -0.3398
   30MOL0     C 3846   1.189   1.938   5.241  0.4814 -0.7807  0.0250
   30MOL0     C 3847   1.099   2.037   5.275  0.9063 -0.3394  0.6494
   30MOL0     C 3848   0.953   2.043   5.222 -0.3849 -0.1826  0.4328
   30MOL0     C 3849   0.860   2.158   5.275 -0.4895  0.7082  0.2480
   30MOL0     C 3850   0.741   2.194   5.181  0.3834 -0.7768  0.3410
   30MOL0     C 3851   0.628   2.087   5.185 -0.7345  0.6190 -0.0563
   30MOL0     O 3852   0.573   2.078   5.313 -0.3875 -0.0931 -0.4652
   30MOL0     C 3853   0.494   2.184   5.341  0.9618  0.3489 -0.0433
   30MOL0     C 3854   0.532   2.280   5.450 -0.4425  1.1742 -0.0573
   30MOL0     C 3855   0.444   2.389   5.473  0.3933  0.2181  0.2403
   30MOL0     C 3856   0.319   2.401   5.413 -0.6944  0.7923  0.3968
   30MOL0     C 3857   0.231   2.522   5.419 -0.3506  0.3165  0.6742
   30MOL0     O 3858   0.264   2.604   5.528  0.5759 -0.5356 -0.3905
   30MOL0     C 3859   0.214   2.727   5.548  0.2479 -0.2306  0.5676
   30MOL0     C 3860   0.089   2.771   5.495  0.1104 -0.3325  0.2017
   30MOL0     C 3861   0.042   2.903   5.525  0.0543  0.5817  0.2628
   30MOL0     C 3862   0.115   2.981   5.616  0.0176 -0.1277 -0.0588
   30MOL0     O 3863   0.079   3.099   5.666  0.2882 -0.0768 -0.3664
   30MOL0     C 3864   0.015   3.203   5.582  0.3927  0.4918  0.4950
   30MOL0     C 3865  -0.134   3.229   5.605 -0.1588  0.4601  0.2919
   30MOL0     C 3866  -0.194   3.320   5.499 -0.2757 -0.2499 -0.6907
   30MOL0     C 3867  -0.151   3.462   5.516  0.5006 -0.1492 -0.2593
   30MOL0     C 3868  -0.216   3.532   5.395  0.8742  0.6587  0.2917
   30MOL0     C 3869  -0.131   3.520   5.267  0.0056 -0.2096  1.0150
   30MOL0     C 3870  -0.209   3.591   5.153 -0.6207 -0.0256 -0.1529
   30MOL0     C 3871  -0.129   3.691   5.075  0.9955 -0.1235 -0.6276
   30MOL0    Cl 3872  -0.086   3.819   5.178  0.0844 -0.2762  0.1842
   30MOL0     C 3873   0.237   2.930   5.673 -0.2802 -0.4638  0.2764
   30MOL0     C 3874   0.283   2.808   5.634  0.6468  0.1723 -0.5977
   30MOL0     O 3875   0.158   2.548   5.324  0.2722  0.2917  0.2234
   30MOL0     C 3876   0.285   2.303   5.324 -0.0264 -0.3518  0.4021
   30MOL0     C 3877   0.368   2.194   5.281 -0.5593 -0.3657 -0.8660
   30MOL0     N 3878   1.158   2.122   5.368 -0.0566 -0.6551 -1.0778
   30MOL0     N 3879   1.279   2.082   5.388 -0.4455  1.1173 -0.1027
   30MOL0     C 3880   0.811   2.292   4.749  0.7142 -0.8397 -0.3450
   30MOL0     C 3881   0.673   2.297   4.760 -0.3337  0.0571 -0.1765
   30MOL0     C 3882   0.261   2.265   4.921  0.2918  0.3021  0.2937
   30MOL0     C 3883   0.206   2.361   5.005 -0.4546  0.0615 -0.2495
   30MOL0     C 3884   0.065   2.355   5.027  0.5361  0.4471 -0.0518
   30MOL0     C 3885  -0.016   2.273   4.953 -0.2744  0.7148  0.0152
   30MOL0     O 3886  -0.153   2.294   4.978  0.2071 -0.0253  1.3145
   30MOL0     C 3887  -0.236   2.278   4.861 -0.5856 -0.5141  0.1715
   30MOL0     C 3888  -0.370   2.358   4.879  0.0653  0.6841  0.5530
   30MOL0     C 3889  -0.363   2.509   4.893 -0.5045  0.0782  0.0707
   30MOL0     C 3890  -0.481   2.569   4.970  1.0511 -0.6338  0.4251
   30MOL0     C 3891  -0.483   2.518   5.104 -0.4627 -0.6268 -0.5358
   30MOL0     C 3892  -0.465   2.478   5.220 -0.0729  0.3769  0.6029
   30MOL0     C 3893   0.047   2.177   4.861  0.3309 -0.1711 -0.3625
   30MOL0     C 3894   0.182   2.181   4.846  0.0056  0.2277 -1.2566
   30MOL0     H 3895   0.603   1.970   4.748 -2.2025  0.7799 -1.5870
   30MOL0     H 3896   0.856   1.959   4.726  2.4442  1.7088 -2.6252
   30MOL0     H 3897   1.119   2.298   4.807 -0.1665 -0.2818 -0.4112
   30MOL0     H 3898   1.100   2.302   4.627 -0.0458 -3.2592 -2.2505
   30MOL0     H 3899   1.323   2.267   4.662 -0.0403  0.9856  2.8377
   30MOL0     H 3900   1.252   2.105   4.621 -0.4980 -1.1232  0.5322
   30MOL0     H 3901   1.248   2.041   4.857  1.2570 -0.7470  0.9336
   30MOL0     H 3902   1.302   2.203   4.907 -4.2513 -1.1523  0.8597
   30MOL0     H 3903   1.469   1.978   4.797  0.6570 -0.8999  2.5541
   30MOL0     H 3904   1.521   2.140   4.751  1.0421 -0.9084  0.4947
   30MOL0     H 3905   1.475   2.190   5.015  0.0480  0.2456  0.5311
   30MOL0     H 3906   1.623   2.100   4.977  0.1021  0.3329  0.6134
   30MOL0     H 3907   1.498   1.893   5.013 -1.5907 -0.3872  1.2867
   30MOL0     H 3908   1.362   1.988   5.062 -0.2787 -1.3644 -0.5144
   30MOL0     H 3909   1.629   1.979   5.193  0.2826  0.5153  0.4099
   30MOL0     H 3910   1.518   2.105   5.236 -0.5350  0.2949 -0.7150
   30MOL0     H 3911   1.490   1.923   5.399  0.4977  1.4395  0.0039
   30MOL0     H 3912   1.436   1.813   5.270 -3.3907  0.4519 -0.7583
   30MOL0     H 3913   1.183   1.859   5.166 -1.1407 -3.1162  2.4158
   30MOL0     H 3914   0.910   1.944   5.239 -2.0511  0.5264  0.5986
   30MOL0     H 3915   0.969   2.059   5.115  0.8873  0.4058  0.6882
   30MOL0     H 3916   0.930   2.238   5.302  0.1915 -0.4450  2.0351
   30MOL0     H 3917   0.821   2.127   5.372  1.0941  0.5662  0.8675
   30MOL0     H 3918   0.695   2.291   5.205 -2.9646 -1.8598 -1.0870
   30MOL0     H 3919   0.776   2.202   5.078  0.9932 -0.7988  0.5424
   30MOL0     H 3920   0.666   1.991   5.149  1.8441  1.2479  0.7751
   30MOL0     H 3921   0.562   2.108   5.100  1.4551  0.4182 -1.8992
   30MOL0     H 3922   0.615   2.270   5.520 -1.4407 -1.2413  0.9078
   30MOL0     H 3923   0.476   2.477   5.528 -3.2950  2.8660 -1.3583
   30MOL0     H 3924   0.028   2.716   5.425  0.0956  1.6500 -1.4620
   30MOL0     H 3925  -0.054   2.927   5.483  0.2009 -0.9596 -1.0540
   30MOL0     H 3926   0.042   3.195   5.477 -0.4281  5.5670 -0.3630
   30MOL0     H 3927   0.058   3.303   5.600 -0.8910  1.7768 -2.8270
   30MOL0     H 3928  -0.150   3.256   5.709  1.9659  0.8430  0.5520
   30MOL0     H 3929  -0.185   3.132   5.596  1.5838 -0.5116  0.4829
   30MOL0     H 3930  -0.303   3.305   5.502 -0.2641 -0.1909  0.6695
   30MOL0     H 3931  -0.155   3.283   5.403  2.2077  0.0935  0.1188
   30MOL0     H 3932  -0.180   3.493   5.617 -1.6195 -3.1901  0.2130
   30MOL0     H 3933  -0.042   3.472   5.515  0.5915 -0.7263 -2.6999
   30MOL0     H 3934  -0.218   3.637   5.424 -2.4124  1.7294 -2.9935
   30MOL0     H 3935  -0.317   3.499   5.368  1.5907 -0.6365 -0.9032
   30MOL0     H 3936  -0.128   3.418   5.228 -2.9021 -0.6247  1.6491
   30MOL0     H 3937  -0.028   3.555   5.284  0.2503 -2.2031  4.6574
   30MOL0     H 3938  -0.235   3.514   5.079 -0.1752 -1.8066  1.4705
   30MOL0     H 3939  -0.305   3.636   5.182  0.2150  2.0141 -0.3920
   30MOL0     H 3940  -0.176   3.735   4.986 -1.4881 -1.8023 -0.2636
   30MOL0     H 3941  -0.030   3.653   5.048  1.6193  0.0895  1.2177
   30MOL0     H 3942   0.289   2.987   5.750 -0.9495 -0.9572  1.1165
   30MOL0     H 3943   0.382   2.790   5.675  0.5388  0.4881 -0.1886
   30MOL0     H 3944   0.198   2.314   5.260  0.5557  3.9720  0.0637
   30MOL0     H 3945   0.343   2.117   5.208 -2.9545  0.3252 -0.8870
   30MOL0     H 3946   0.874   2.381   4.742  1.3070 -0.6143  4.5359
   30MOL0     H 3947   0.629   2.396   4.770  1.9783  0.9700  2.1617
   30MOL0     H 3948   0.257   2.430   5.071 -4.7435  2.2331  1.1505
   30MOL0     H 3949   0.023   2.425   5.099 -0.3308 -1.0209  0.9196
   30MOL0     H 3950  -0.269   2.174   4.855 -2.2152  0.0500 -1.8418
   30MOL0     H 3951  -0.186   2.306   4.768 -1.3597 -1.3908 -0.5246
   30MOL0     H 3952  -0.433   2.329   4.794 -0.7986 -0.2577  1.4885
   30MOL0     H 3953  -0.427   2.319   4.964 -1.5000  1.0759 -0.2728
   30MOL0     H 3954  -0.369   2.550   4.792  0.1002 -0.8152 -0.3390
   30MOL0     H 3955  -0.265   2.535   4.932 -0.4608  1.3162 -0.8194
   30MOL0     H 3956  -0.470   2.678   4.964  1.2603 -0.7172 -1.1583
   30MOL0     H 3957  -0.572   2.558   4.910 -1.5760  1.4637  3.6831
   30MOL0     H 3958  -0.467   2.445   5.322 -3.2744  3.7113  1.8414
   30MOL0     H 3959  -0.006   2.111   4.794  1.1621 -1.1043 -0.1100
   30MOL0     H 3960   0.236   2.106   4.788  2.0199 -0.5870  1.4705
   31MOL0     O 3961   3.218   8.247   4.920 -0.0142  0.0187  0.3051
   31MOL0     C 3962   3.134   8.157   4.920  0.2630 -0.4053 -0.7983
   31MOL0     O 3963   3.157   8.023   4.942 -0.4884 -0.5200  0.2462
   31MOL0     C 3964   3.289   7.976   4.972  0.2653  0.7884  0.5495
   31MOL0     C 3965   3.302   7.887   5.078 -0.4766  0.9613 -0.0523
   31MOL0     C 3966   3.430   7.839   5.109 -0.4201 -1.8316 -0.1597
   31MOL0     C 3967   3.542   7.890   5.039  0.3915 -0.0520 -0.7204
   31MOL0     O 3968   3.681   7.861   5.067  0.5422  0.6001 -0.3324
   31MOL0     C 3969   3.707   7.773   5.174  0.4269 -0.0324 -0.8216
   31MOL0     C 3970   3.862   7.742   5.165 -0.4462  0.1212  0.3095
   31MOL0     C 3971   3.917   7.641   5.259  0.2570 -0.6764 -0.2043
   31MOL0     C 3972   3.917   7.701   5.403 -0.0644  0.8209 -0.1131
   31MOL0     C 3973   4.015   7.645   5.498  0.7864  0.5565  0.0910
   31MOL0     C 3974   3.981   7.499   5.536 -0.3464 -0.4936 -0.1506
   31MOL0     C 3975   4.072   7.445   5.641  0.3405  0.4648  0.2235
   31MOL0     C 3976   4.028   7.300   5.682  0.6173 -0.0686 -1.2320
   31MOL0     N 3977   4.141   7.217   5.724  0.0227  0.7875 -0.1399
   31MOL0     C 3978   4.202   7.220   5.847  0.8175 -0.9097  0.2380
   31MOL0     C 3979   4.293   7.122   5.840 -0.4814  0.2212  0.9827
   31MOL0     C 3980   4.393   7.097   5.945 -0.8705 -0.2543 -0.7414
   31MOL0     C 3981   4.340   6.975   6.027 -0.4109  0.3743 -0.2701
   31MOL0     C 3982   4.451   6.952   6.129 -0.0275 -0.6566 -0.4807
   31MOL0     C 3983   4.401   6.837   6.226  0.0733  0.8516 -0.0798
   31MOL0     O 3984   4.278   6.863   6.286 -0.6244 -0.1833  0.7129
   31MOL0     C 3985   4.269   6.955   6.388 -0.7627  0.3101 -0.1803
   31MOL0     C 3986   4.134   6.992   6.428 -0.4052 -0.1291 -0.5048
   31MOL0     C 3987   4.109   7.090   6.529  0.3939  1.2805  0.5275
   31MOL0     C 3988   4.217   7.150   6.595 -0.6384  0.1861 -0.0718
   31MOL0     C 3989   4.191   7.237   6.710 -0.2265 -0.2455 -0.4366
   31MOL0     O 3990   4.290   7.250   6.795  0.2069  0.3683  0.1445
   31MOL0     C 3991   4.276   7.308   6.920  0.5837 -0.1861  0.0726
   31MOL0     C 3992   4.182   7.251   7.012 -0.2373 -0.2343  0.4387
   31MOL0     C 3993   4.183   7.304   7.142  0.7054 -0.0339 -0.3856
   31MOL0     C 3994   4.268   7.408   7.189  0.7939  0.3044  0.5477
   31MOL0     O 3995   4.263   7.469   7.309  0.7467  0.2877  0.0908
   31MOL0     C 3996   4.251   7.392   7.431  0.9386 -0.3696 -0.3750
   31MOL0     C 3997   4.394   7.368   7.494 -1.2991  0.1831  0.6279
   31MOL0     C 3998   4.425   7.219   7.486  0.4900 -0.4288  0.4244
   31MOL0     C 3999   4.534   7.176   7.579 -0.6796  0.3919  0.4481
   31MOL0     C 4000   4.613   7.066   7.505  0.2078  0.6038 -1.0928
   31MOL0     C 4001   4.726   7.006   7.590 -0.1981 -0.2310 -0.3362
   31MOL0     C 4002   4.791   6.891   7.520  0.0453  0.0356  0.4318
   31MOL0     C 4003   4.891   6.802   7.606 -0.1358 -0.4263  0.2319
   31MOL0    Cl 4004   4.951   6.664   7.515  0.1379 -0.0560  0.0441
   31MOL0     C 4005   4.352   7.465   7.091 -0.1161  0.4850  0.0487
   31MOL0     C 4006   4.354   7.418   6.965 -0.2398 -0.7677 -0.0531
   31MOL0     O 4007   4.084   7.294   6.724 -0.2894  0.4393  0.5024
   31MOL0     C 4008   4.342   7.113   6.545 -0.8099 -0.4762 -0.5148
   31MOL0     C 4009   4.368   7.018   6.454  0.0572  0.3469  0.5171
   31MOL0     N 4010   4.297   7.065   5.715 -0.1744 -0.2059 -0.0403
   31MOL0     N 4011   4.199   7.120   5.649 -0.2236  0.0610  0.6562
   31MOL0     C 4012   3.534   7.986   4.941  0.2762  0.2015  0.1514
   31MOL0     C 4013   3.406   8.022   4.915 -0.0504  0.5698 -0.6207
   31MOL0     C 4014   2.988   8.193   4.890 -0.4492 -0.1701 -0.9037
   31MOL0     C 4015   2.924   8.318   4.916 -1.0685 -0.3486 -0.4923
   31MOL0     C 4016   2.795   8.345   4.897 -0.3558 -0.3410 -0.9328
   31MOL0     C 4017   2.707   8.248   4.846  0.3732 -0.3388  0.7307
   31MOL0     O 4018   2.575   8.266   4.837  0.4389 -0.0968 -0.0734
   31MOL0     C 4019   2.528   8.346   4.949  0.8755 -0.0695  0.0292
   31MOL0     C 4020   2.376   8.349   4.966  0.5902  1.3406 -0.4778
   31MOL0     C 4021   2.311   8.210   4.952  0.2815 -0.1765 -0.3250
   31MOL0     C 4022   2.185   8.196   5.033 -0.3310 -0.0437 -0.0100
   31MOL0     C 4023   2.116   8.070   4.991 -0.0707  0.2409 -0.6381
   31MOL0     C 4024   2.036   7.985   4.972 -0.2068  0.7575  0.0246
   31MOL0     C 4025   2.759   8.118   4.808 -0.2203 -0.3004  1.1411
   31MOL0     C 4026   2.896   8.098   4.837 -0.7697  0.1893  0.0445
   31MOL0     H 4027   3.212   7.854   5.129  0.3535  1.4068  1.7917
   31MOL0     H 4028   3.441   7.763   5.186  3.4621 -1.7247 -0.4322
   31MOL0     H 4029   3.647   7.682   5.162 -0.3126  0.2909  0.3405
   31MOL0     H 4030   3.685   7.830   5.264  2.0603  1.5588 -1.3664
   31MOL0     H 4031   3.926   7.831   5.164 -0.4763  0.1917  1.9540
   31MOL0     H 4032   3.868   7.690   5.069 -0.6974 -3.8551  2.2824
   31MOL0     H 4033   4.022   7.620   5.235  1.0733 -1.3933  3.3614
   31MOL0     H 4034   3.865   7.546   5.246  0.5791 -0.7501 -1.0156
   31MOL0     H 4035   3.943   7.808   5.397 -1.2546  1.0798 -1.0637
   31MOL0     H 4036   3.816   7.688   5.442 -0.0392 -0.3366 -0.4003
   31MOL0     H 4037   4.021   7.703   5.591  1.6626 -0.2242  0.5390
   31MOL0     H 4038   4.105   7.673   5.443 -0.7683  5.1281 -0.5162
   31MOL0     H 4039   4.005   7.445   5.444  2.4551  1.1095 -0.4677
   31MOL0     H 4040   3.878   7.496   5.574 -0.0629 -0.6676  0.6183
   31MOL0     H 4041   4.173   7.430   5.601  0.6695 -0.4637  1.3806
   31MOL0     H 4042   4.078   7.514   5.726  0.0039  4.0154 -2.3653
   31MOL0     H 4043   3.983   7.255   5.593 -3.1743  0.4504  0.2469
   31MOL0     H 4044   3.946   7.306   5.754  1.1500 -1.2838 -0.4949
   31MOL0     H 4045   4.184   7.291   5.928  2.5728  0.4484 -0.4985
   31MOL0     H 4046   4.400   7.190   6.003 -1.9104  0.8660 -2.3267
   31MOL0     H 4047   4.490   7.092   5.895  0.2706  0.1654  1.3072
   31MOL0     H 4048   4.341   6.880   5.973  1.7167 -1.0227  2.0052
   31MOL0     H 4049   4.239   6.978   6.069  0.1897 -1.8068  1.5952
   31MOL0     H 4050   4.546   6.920   6.086 -0.2391 -0.6983 -0.9177
   31MOL0     H 4051   4.472   7.044   6.185 -2.9735 -0.3709  0.2950
   31MOL0     H 4052   4.478   6.828   6.302  1.3645  4.0768 -0.8577
   31MOL0     H 4053   4.391   6.744   6.168  0.5963  1.5059 -1.2408
   31MOL0     H 4054   4.061   6.921   6.392  0.6177 -0.1545 -2.6564
   31MOL0     H 4055   4.006   7.108   6.558  0.1482  0.3594  0.2686
   31MOL0     H 4056   4.107   7.182   6.976 -2.0242  1.2081  1.2326
   31MOL0     H 4057   4.110   7.285   7.220  0.6087 -3.3616 -1.1161
   31MOL0     H 4058   4.192   7.300   7.429 -3.0114  1.9738 -0.8179
   31MOL0     H 4059   4.193   7.457   7.497 -2.2540 -2.1967 -1.1718
   31MOL0     H 4060   4.388   7.390   7.601 -0.6192 -0.6022  0.8330
   31MOL0     H 4061   4.475   7.421   7.444  0.1788 -1.4625  1.1809
   31MOL0     H 4062   4.437   7.193   7.380 -4.6002  2.8385 -1.3197
   31MOL0     H 4063   4.335   7.168   7.522 -0.5896  1.9078  1.2323
   31MOL0     H 4064   4.612   7.252   7.583  0.1551 -0.4261  0.0292
   31MOL0     H 4065   4.496   7.154   7.680 -0.4667  0.2893  0.5056
   31MOL0     H 4066   4.662   7.104   7.416  1.0516  1.6979 -0.1860
   31MOL0     H 4067   4.542   6.990   7.471 -3.5738  2.2034  2.2817
   31MOL0     H 4068   4.674   6.967   7.678 -3.3486  1.8218 -1.1328
   31MOL0     H 4069   4.809   7.073   7.615  0.1417  0.3823 -2.8517
   31MOL0     H 4070   4.717   6.810   7.517  0.7610 -0.8971  3.8763
   31MOL0     H 4071   4.836   6.918   7.424  0.0589 -1.7415 -0.0936
   31MOL0     H 4072   4.845   6.759   7.696 -1.0000  0.6914  0.3409
   31MOL0     H 4073   4.968   6.871   7.641 -0.1673 -0.3639  0.1765
   31MOL0     H 4074   4.420   7.541   7.126  0.3413  0.9561 -1.7419
   31MOL0     H 4075   4.423   7.466   6.898 -2.1531  1.8879 -0.2751
   31MOL0     H 4076   4.428   7.170   6.577 -1.7477 -0.1034  1.4854
   31MOL0     H 4077   4.470   7.000   6.420  0.0315  1.6300 -0.3002
   31MOL0     H 4078   3.616   8.023   4.881 -0.6886 -1.4861 -2.3706
   31MOL0     H 4079   3.407   8.105   4.845 -0.0435  1.1146  0.0155
   31MOL0     H 4080   2.982   8.402   4.951 -2.6504  0.4924  0.2173
   31MOL0     H 4081   2.763   8.449   4.905  1.4454  0.2010 -0.3223
   31MOL0     H 4082   2.560   8.450   4.938  1.4198 -0.1835  0.5077
   31MOL0     H 4083   2.562   8.317   5.049  2.1301  1.3405  0.0435
   31MOL0     H 4084   2.343   8.398   5.059 -2.6090 -0.6132 -0.4206
   31MOL0     H 4085   2.327   8.420   4.898  0.9402  1.8197 -0.2387
   31MOL0     H 4086   2.379   8.137   4.997 -0.1558  0.0176  0.6670
   31MOL0     H 4087   2.294   8.187   4.846 -2.9154 -0.2040  0.0957
   31MOL0     H 4088   2.207   8.194   5.141 -0.6372 -1.4244  0.0341
   31MOL0     H 4089   2.112   8.276   5.014 -1.6732 -1.4168 -0.7570
   31MOL0     H 4090   1.959   7.915   4.948 -0.5258  1.1644 -0.1519
   31MOL0     H 4091   2.703   8.038   4.761  1.5477 -1.7583  1.4018
   31MOL0     H 4092   2.938   8.003   4.805 -1.5678  0.0061 -0.5084
   32MOL0     O 4093   2.132   6.806  11.047  0.0294  0.4800  0.3483
   32MOL0     C 4094   2.187   6.700  11.012  0.2187 -0.3172  0.3989
   32MOL0     O 4095   2.123   6.578  11.025 -1.1113  0.7823 -0.7807
   32MOL0     C 4096   1.989   6.565  11.039 -0.5844  0.8234 -0.4850
   32MOL0     C 4097   1.943   6.457  11.115 -0.4226 -0.6282  0.6064
   32MOL0     C 4098   1.812   6.441  11.134  0.1470  0.1280  0.2921
   32MOL0     C 4099   1.712   6.522  11.066 -0.3834 -0.4676 -0.0863
   32MOL0     O 4100   1.579   6.510  11.089  1.1702 -0.4002  0.9683
   32MOL0     C 4101   1.511   6.391  11.139  0.8215 -0.4001 -0.1061
   32MOL0     C 4102   1.496   6.271  11.033  1.0598  0.0035 -0.3410
   32MOL0     C 4103   1.383   6.303  10.928  0.1482  0.1786 -0.4868
   32MOL0     C 4104   1.247   6.265  10.995 -1.2901  0.4489 -0.4859
   32MOL0     C 4105   1.131   6.274  10.901 -0.0174  0.2448 -1.0139
   32MOL0     C 4106   1.012   6.186  10.958 -0.7320 -0.3738  0.4851
   32MOL0     C 4107   0.887   6.182  10.858  0.4505  0.3974 -0.4999
   32MOL0     C 4108   0.761   6.143  10.940  0.1543 -0.0831 -0.3056
   32MOL0     N 4109   0.634   6.173  10.869  0.3564  0.1865 -0.7551
   32MOL0     C 4110   0.545   6.079  10.826  0.6273  0.0609 -0.4443
   32MOL0     C 4111   0.450   6.151  10.764  0.6116 -0.5177 -0.1611
   32MOL0     C 4112   0.335   6.089  10.700  0.9368 -0.5373 -0.3518
   32MOL0     C 4113   0.216   6.092  10.793 -0.2856 -0.4107 -1.1015
   32MOL0     C 4114   0.088   6.120  10.724  0.0570  0.3624  0.3435
   32MOL0     C 4115   0.053   6.016  10.611 -0.0853 -1.1671  0.6279
   32MOL0     O 4116  -0.049   6.076  10.519 -0.3599 -0.0368 -0.5971
   32MOL0     C 4117  -0.181   6.071  10.563 -0.5825  0.2592  0.3914
   32MOL0     C 4118  -0.228   6.024  10.691  0.1533 -0.0345 -0.7043
   32MOL0     C 4119  -0.363   6.028  10.730 -1.1510  0.5548 -0.2097
   32MOL0     C 4120  -0.458   6.076  10.639 -0.0678 -0.3247  0.4091
   32MOL0     C 4121  -0.603   6.072  10.687  0.1101 -0.5356 -0.2343
   32MOL0     O 4122  -0.683   6.143  10.607  0.2122  0.2224  0.2159
   32MOL0     C 4123  -0.813   6.164  10.648 -0.3528  0.5029 -0.2074
   32MOL0     C 4124  -0.914   6.096  10.582 -0.2763 -0.3346  0.4164
   32MOL0     C 4125  -1.050   6.118  10.617  0.0041  0.1953  0.0842
   32MOL0     C 4126  -1.077   6.198  10.731  0.3124  0.5882  0.1455
   32MOL0     O 4127  -1.209   6.209  10.773 -0.8482  0.0283 -0.3907
   32MOL0     C 4128  -1.249   6.281  10.886  0.5602  0.9371  0.0787
   32MOL0     C 4129  -1.403   6.292  10.884 -0.6426  0.4558 -0.8729
   32MOL0     C 4130  -1.445   6.417  10.806 -2.0185  0.7924  0.3244
   32MOL0     C 4131  -1.588   6.446  10.828 -0.7025  0.1511  0.4767
   32MOL0     C 4132  -1.628   6.499  10.972 -0.0235 -0.4702  0.1049
   32MOL0     C 4133  -1.761   6.576  10.977 -0.2356 -0.3608 -0.2421
   32MOL0     C 4134  -1.880   6.490  10.937  0.0402 -0.3854  0.2044
   32MOL0     C 4135  -2.021   6.552  10.962  0.4365  0.4129  0.1402
   32MOL0    Cl 4136  -2.153   6.433  10.988 -0.3162  0.3738  0.3081
   32MOL0     C 4137  -0.977   6.268  10.791 -0.5627  0.7994 -0.0886
   32MOL0     C 4138  -0.844   6.251  10.753  0.5978  0.2709 -0.0116
   32MOL0     O 4139  -0.643   6.011  10.785  0.9266  0.6519 -0.6440
   32MOL0     C 4140  -0.417   6.114  10.508 -0.3597 -0.6496  0.0997
   32MOL0     C 4141  -0.282   6.113  10.473 -0.8121  0.0343  0.2608
   32MOL0     N 4142   0.461   6.293  10.797  0.1038 -0.2493  0.6354
   32MOL0     N 4143   0.571   6.294  10.856  0.3320  0.2122 -0.1499
   32MOL0     C 4144   1.761   6.626  10.984 -0.7677  0.6931  0.5939
   32MOL0     C 4145   1.896   6.649  10.975 -0.0005 -0.2493  0.9098
   32MOL0     C 4146   2.306   6.719  10.940  0.4160  0.7341  0.0920
   32MOL0     C 4147   2.378   6.604  10.898 -0.3729  0.7737  0.1153
   32MOL0     C 4148   2.493   6.625  10.826  0.2941  0.6413  1.0198
   32MOL0     C 4149   2.545   6.747  10.804 -0.0151 -0.0566  0.3774
   32MOL0     O 4150   2.675   6.760  10.745 -0.0488 -0.6224  0.3931
   32MOL0     C 4151   2.786   6.702  10.810 -0.0566 -0.5082 -0.9027
   32MOL0     C 4152   2.855   6.803  10.904  0.4343  0.2308  0.4330
   32MOL0     C 4153   2.945   6.884  10.806 -0.2562 -0.1009 -1.2606
   32MOL0     C 4154   3.006   6.996  10.886 -0.2050 -1.2082  0.4463
   32MOL0     C 4155   3.124   6.938  10.961 -0.7215  0.0771 -0.7468
   32MOL0     C 4156   3.216   6.878  11.018  0.5249  0.7169  0.2937
   32MOL0     C 4157   2.471   6.859  10.836  0.1843 -0.7550  0.1956
   32MOL0     C 4158   2.351   6.848  10.901 -0.4351 -0.3499 -0.7277
   32MOL0     H 4159   2.025   6.400  11.158  0.3782  0.3258  0.3939
   32MOL0     H 4160   1.779   6.353  11.189 -0.4331 -0.2931 -0.7012
   32MOL0     H 4161   1.416   6.405  11.191 -0.2940 -0.8994 -1.9334
   32MOL0     H 4162   1.577   6.365  11.223 -0.7574 -0.4030  1.1840
   32MOL0     H 4163   1.464   6.178  11.081 -1.9911  1.3838  0.5335
   32MOL0     H 4164   1.590   6.245  10.984  0.0149 -0.3171 -2.2799
   32MOL0     H 4165   1.397   6.237  10.842 -1.6190 -1.9497  0.7458
   32MOL0     H 4166   1.366   6.408  10.906 -1.9433  0.0868  0.4625
   32MOL0     H 4167   1.254   6.166  11.042  0.9953  0.0292 -1.6111
   32MOL0     H 4168   1.220   6.331  11.079 -1.7261 -2.1544  1.5648
   32MOL0     H 4169   1.165   6.242  10.802  2.9126 -1.6149  0.4476
   32MOL0     H 4170   1.090   6.375  10.891  0.3363  0.8429  2.4777
   32MOL0     H 4171   0.980   6.237  11.050 -1.2106  1.8498 -0.8438
   32MOL0     H 4172   1.041   6.083  10.981  1.5466 -0.3437 -1.8590
   32MOL0     H 4173   0.885   6.283  10.816 -0.7659  0.1258 -1.1396
   32MOL0     H 4174   0.893   6.111  10.774  1.8656  2.1244 -1.9611
   32MOL0     H 4175   0.765   6.198  11.034 -0.2953 -0.4246 -0.0850
   32MOL0     H 4176   0.767   6.036  10.963  2.0800  0.1392  0.4042
   32MOL0     H 4177   0.540   5.971  10.832 -2.0031  0.1615  0.7167
   32MOL0     H 4178   0.334   5.983  10.673  1.5566 -0.9864  1.2473
   32MOL0     H 4179   0.301   6.143  10.612 -3.8846  1.5126  2.3405
   32MOL0     H 4180   0.231   6.156  10.880 -1.7148  1.7838 -2.3632
   32MOL0     H 4181   0.209   5.993  10.837  1.4426  0.3324  1.0510
   32MOL0     H 4182   0.012   6.118  10.803 -0.3783  1.6688 -0.0098
   32MOL0     H 4183   0.097   6.218  10.675  0.6529 -1.3026 -3.2012
   32MOL0     H 4184   0.023   5.922  10.659  0.0198  0.3387  3.8422
   32MOL0     H 4185   0.136   6.004  10.540  2.0070 -0.0682  2.7674
   32MOL0     H 4186  -0.158   5.973  10.755  1.4393  1.7837 -0.5883
   32MOL0     H 4187  -0.389   5.990  10.828  0.0397 -0.7964 -0.3939
   32MOL0     H 4188  -0.878   6.032  10.502 -1.3205  0.3683 -0.6543
   32MOL0     H 4189  -1.131   6.067  10.565 -0.7212 -1.5269  2.6996
   32MOL0     H 4190  -1.204   6.380  10.898  1.1736  0.7447 -0.5923
   32MOL0     H 4191  -1.227   6.232  10.981 -0.0928 -0.3370 -0.4146
   32MOL0     H 4192  -1.428   6.308  10.989 -1.0871  0.1117 -0.9245
   32MOL0     H 4193  -1.459   6.205  10.847 -2.4859  0.2010  2.2342
   32MOL0     H 4194  -1.418   6.405  10.700 -0.9532  1.8879  0.4437
   32MOL0     H 4195  -1.382   6.504  10.828  0.6107 -0.6144 -1.0394
   32MOL0     H 4196  -1.619   6.528  10.763  1.1937  1.4502  1.1230
   32MOL0     H 4197  -1.649   6.365  10.788  0.2959 -1.6671  2.4158
   32MOL0     H 4198  -1.541   6.559  10.997 -0.7167  0.8190 -0.4459
   32MOL0     H 4199  -1.633   6.416  11.043  2.8671 -0.6754  0.1736
   32MOL0     H 4200  -1.760   6.663  10.911  0.7400  0.0146  0.2541
   32MOL0     H 4201  -1.774   6.602  11.082  2.0160 -0.3620  0.0998
   32MOL0     H 4202  -1.870   6.463  10.831 -2.6308  1.0199 -0.5238
   32MOL0     H 4203  -1.879   6.401  10.999 -1.0921 -0.5130  0.0637
   32MOL0     H 4204  -2.037   6.616  10.875 -0.3413  0.3694  0.2460
   32MOL0     H 4205  -2.021   6.619  11.049  0.6203  0.9190 -0.2397
   32MOL0     H 4206  -0.999   6.328  10.878 -1.6894  0.7621 -0.3337
   32MOL0     H 4207  -0.757   6.287  10.808  0.1182  0.7052  0.4712
   32MOL0     H 4208  -0.487   6.165  10.443 -2.2733 -2.1158  0.8966
   32MOL0     H 4209  -0.249   6.136  10.372 -1.4551 -2.2358 -0.5209
   32MOL0     H 4210   1.683   6.679  10.932 -1.1365 -0.1756  0.2495
   32MOL0     H 4211   1.923   6.740  10.923 -2.6741 -0.2499 -0.6604
   32MOL0     H 4212   2.337   6.510  10.934 -2.3048  1.5247  0.0167
   32MOL0     H 4213   2.545   6.536  10.791  0.5384  0.7704  1.0529
   32MOL0     H 4214   2.864   6.656  10.749  1.8693  1.7769 -0.3111
   32MOL0     H 4215   2.748   6.620  10.870 -4.2956  1.8870  0.1044
   32MOL0     H 4216   2.773   6.853  10.956 -0.3357 -1.4830  0.9421
   32MOL0     H 4217   2.912   6.746  10.977  0.3088 -0.0832  0.2881
   32MOL0     H 4218   2.874   6.925  10.733 -3.4666 -0.9619  1.1435
   32MOL0     H 4219   3.020   6.831  10.746 -0.9068 -0.1715 -2.0338
   32MOL0     H 4220   3.032   7.078  10.819 -2.1299 -0.9641 -0.0647
   32MOL0     H 4221   2.943   7.033  10.968 -0.2154  0.0236 -0.0935
   32MOL0     H 4222   3.302   6.836  11.066 -0.5386 -2.4288 -0.3085
   32MOL0     H 4223   2.515   6.955  10.810 -1.7055 -0.2805 -1.5075
   32MOL0     H 4224   2.304   6.942  10.927 -0.7997 -0.7798  0.2222
   33MOL0     O 4225  11.021   2.532   3.092  0.4187  0.1485 -0.4257
   33MOL0     C 4226  10.933   2.508   3.005 -0.0003 -0.2966 -0.2451
   33MOL0     O 4227  10.796   2.500   3.029 -0.2756  0.2179 -0.2918
   33MOL0     C 4228  10.753   2.485   3.159  0.2533 -0.8305  0.3547
   33MOL0     C 4229  10.814   2.401   3.257  0.4766 -0.3507  0.2192
   33MOL0     C 4230  10.758   2.392   3.390  0.5462  0.2788  0.6184
   33MOL0     C 4231  10.649   2.469   3.429  0.0161  0.0611  0.5767
   33MOL0     O 4232  10.618   2.475   3.563  0.6394 -0.0949 -0.4729
   33MOL0     C 4233  10.500   2.553   3.601 -0.2047  0.1730  0.3664
   33MOL0     C 4234  10.460   2.508   3.743 -0.9413 -0.3788 -0.8526
   33MOL0     C 4235  10.567   2.560   3.840 -0.5965  0.6146 -0.1810
   33MOL0     C 4236  10.526   2.514   3.983 -0.1983 -0.2213  0.0782
   33MOL0     C 4237  10.595   2.617   4.064 -0.1036  0.3826 -0.3992
   33MOL0     C 4238  10.604   2.578   4.210  0.2611 -0.1445  0.1775
   33MOL0     C 4239  10.724   2.658   4.266  0.3339  0.5487 -0.1401
   33MOL0     C 4240  10.770   2.594   4.400 -0.1418  0.0448 -0.6584
   33MOL0     N 4241  10.662   2.608   4.509 -0.7308  0.4306 -0.3931
   33MOL0     C 4242  10.550   2.530   4.531  0.6868  0.1014 -0.2481
   33MOL0     C 4243  10.518   2.568   4.657  0.6205  0.3852 -0.6144
   33MOL0     C 4244  10.421   2.490   4.739 -0.3820 -0.0682 -0.1106
   33MOL0     C 4245  10.314   2.562   4.824  0.0256  0.1715 -0.5294
   33MOL0     C 4246  10.325   2.548   4.977 -0.2993  0.6148  0.0857
   33MOL0     C 4247  10.287   2.406   5.029  0.3996 -0.3113 -0.6462
   33MOL0     O 4248  10.152   2.365   4.985 -0.5934  0.2499 -0.0091
   33MOL0     C 4249  10.042   2.426   5.033  0.2421  1.2860 -0.3843
   33MOL0     C 4250   9.931   2.372   4.969  0.4909 -0.0246  0.2524
   33MOL0     C 4251   9.805   2.406   5.018 -0.3857 -0.5685 -0.8844
   33MOL0     C 4252   9.798   2.489   5.127  0.1108  0.2631 -0.4551
   33MOL0     C 4253   9.661   2.514   5.181  0.2493  0.1102  0.0357
   33MOL0     O 4254   9.555   2.488   5.094  0.3882  0.2419 -0.4483
   33MOL0     C 4255   9.424   2.494   5.155  0.0659 -1.2475  1.1812
   33MOL0     C 4256   9.395   2.435   5.279  1.4181 -0.0980 -0.2187
   33MOL0     C 4257   9.264   2.441   5.320 -0.0445  0.5795  0.2105
   33MOL0     C 4258   9.161   2.501   5.244 -0.3091 -0.1334  0.1893
   33MOL0     O 4259   9.028   2.491   5.264 -0.0788 -0.4861  0.2463
   33MOL0     C 4260   8.986   2.450   5.395  0.7302  0.3442 -1.1173
   33MOL0     C 4261   8.837   2.491   5.411  0.3154 -0.0438 -0.1140
   33MOL0     C 4262   8.786   2.517   5.555 -0.0351 -0.0920  0.3227
   33MOL0     C 4263   8.630   2.492   5.565 -0.1019  0.4402  0.0864
   33MOL0     C 4264   8.570   2.505   5.709  0.5975  0.4575  0.0372
   33MOL0     C 4265   8.420   2.479   5.713 -0.3834  0.7843  0.4085
   33MOL0     C 4266   8.355   2.505   5.849  0.0544 -0.2735 -0.8829
   33MOL0     C 4267   8.356   2.382   5.938  0.0885 -0.5933 -0.0439
   33MOL0    Cl 4268   8.257   2.428   6.087 -0.4950  0.0267 -0.1411
   33MOL0     C 4269   9.196   2.554   5.125  0.3734 -0.4085  0.1110
   33MOL0     C 4270   9.327   2.558   5.078  0.0994 -0.0618 -0.0382
   33MOL0     O 4271   9.653   2.569   5.294 -0.4799 -1.0500  0.1134
   33MOL0     C 4272   9.909   2.534   5.200 -0.0323 -0.6219 -0.4086
   33MOL0     C 4273  10.033   2.509   5.145 -0.6057  0.2003 -0.7098
   33MOL0     N 4274  10.600   2.674   4.692  0.2902 -0.8093 -0.1098
   33MOL0     N 4275  10.680   2.693   4.611  0.2282  0.3622 -0.6846
   33MOL0     C 4276  10.585   2.548   3.329  0.0131 -0.6573 -0.0110
   33MOL0     C 4277  10.629   2.547   3.195 -0.2779  0.7810  0.4329
   33MOL0     C 4278  10.973   2.466   2.871 -0.5903 -0.9355  0.6581
   33MOL0     C 4279  10.873   2.427   2.782  0.8169 -0.6381 -0.2219
   33MOL0     C 4280  10.898   2.385   2.650  0.5730 -0.2543 -0.3960
   33MOL0     C 4281  11.031   2.395   2.599 -0.5545  0.0870 -0.3711
   33MOL0     O 4282  11.058   2.342   2.471  0.2628  0.4492 -0.3997
   33MOL0     C 4283  11.127   2.437   2.383  0.1463 -0.1020 -0.1074
   33MOL0     C 4284  11.091   2.403   2.237  0.4070  0.3451 -0.9681
   33MOL0     C 4285  11.159   2.278   2.183 -0.9955 -0.4884 -0.4186
   33MOL0     C 4286  11.121   2.250   2.037 -0.1071  0.6677  1.0923
   33MOL0     C 4287  11.184   2.126   1.985  0.7963  0.4346  0.4243
   33MOL0     C 4288  11.232   2.016   1.955  0.6631 -0.1834  0.3237
   33MOL0     C 4289  11.127   2.446   2.683 -0.7483  0.2440  0.4697
   33MOL0     C 4290  11.105   2.480   2.817  0.1673 -0.0343  0.1626
   33MOL0     H 4291  10.908   2.349   3.241  1.6642  2.6132 -4.2052
   33MOL0     H 4292  10.807   2.323   3.458  0.9372 -1.3175 -1.1992
   33MOL0     H 4293  10.410   2.535   3.543  0.4054 -0.4694 -0.3989
   33MOL0     H 4294  10.521   2.660   3.588  0.5993  0.1143  1.0743
   33MOL0     H 4295  10.445   2.400   3.756 -1.4064  0.0068  2.9389
   33MOL0     H 4296  10.363   2.555   3.762  0.6373  2.0961  1.6933
   33MOL0     H 4297  10.564   2.667   3.819  1.8100  0.0736 -4.4644
   33MOL0     H 4298  10.668   2.522   3.823 -0.9239 -1.3856  1.8312
   33MOL0     H 4299  10.420   2.492   3.997 -0.0026 -2.0189 -0.8873
   33MOL0     H 4300  10.563   2.411   3.987 -0.7020 -0.5032 -1.5383
   33MOL0     H 4301  10.539   2.710   4.054  0.5676  0.9088  0.6446
   33MOL0     H 4302  10.689   2.647   4.016  0.0248 -0.0220 -0.4115
   33MOL0     H 4303  10.630   2.472   4.224  1.4557 -0.3432 -2.8492
   33MOL0     H 4304  10.512   2.609   4.260 -0.5840 -0.5708 -1.0528
   33MOL0     H 4305  10.812   2.652   4.200 -0.9153  0.1121 -1.8361
   33MOL0     H 4306  10.689   2.761   4.279  2.0235  1.4521 -2.0671
   33MOL0     H 4307  10.863   2.645   4.428 -0.9444  1.1303  0.1318
   33MOL0     H 4308  10.775   2.485   4.390 -2.4900 -0.3983  1.8148
   33MOL0     H 4309  10.512   2.442   4.480  0.4806  0.0025  0.0717
   33MOL0     H 4310  10.480   2.424   4.804  1.3687 -0.9784 -2.4976
   33MOL0     H 4311  10.369   2.423   4.671 -1.1001 -1.9656  2.1659
   33MOL0     H 4312  10.213   2.528   4.797 -0.6258  1.8844 -0.4229
   33MOL0     H 4313  10.309   2.670   4.807  0.9183  0.0916 -1.3928
   33MOL0     H 4314  10.429   2.565   5.008  0.9157 -2.0461 -2.1436
   33MOL0     H 4315  10.256   2.621   5.021 -0.2107  1.7557 -1.5880
   33MOL0     H 4316  10.295   2.413   5.137 -0.0937  2.1995 -0.7160
   33MOL0     H 4317  10.360   2.334   4.989  2.1272  0.6802  0.5805
   33MOL0     H 4318   9.943   2.305   4.884 -0.9781  2.0607 -1.7353
   33MOL0     H 4319   9.718   2.352   4.983 -0.1074 -1.8466  0.2868
   33MOL0     H 4320   9.463   2.388   5.349 -2.5237  0.0797  4.2110
   33MOL0     H 4321   9.229   2.404   5.416  0.8678  2.3937  1.2944
   33MOL0     H 4322   9.037   2.499   5.479  0.4610  2.7519 -2.2704
   33MOL0     H 4323   9.002   2.343   5.406  0.8324  0.4957  0.5015
   33MOL0     H 4324   8.772   2.424   5.354  0.8076  0.3022 -1.1046
   33MOL0     H 4325   8.834   2.591   5.366 -1.3039 -0.1161 -0.2326
   33MOL0     H 4326   8.807   2.615   5.599  0.9674 -0.3230  0.3818
   33MOL0     H 4327   8.828   2.450   5.630 -2.2583  0.7510  2.4399
   33MOL0     H 4328   8.565   2.538   5.490  0.8857  0.0038 -1.0737
   33MOL0     H 4329   8.620   2.384   5.549 -2.8991  0.4840  0.9999
   33MOL0     H 4330   8.579   2.601   5.760  0.0904 -0.1109  1.2306
   33MOL0     H 4331   8.624   2.438   5.777  1.3393  0.8526 -0.1569
   33MOL0     H 4332   8.394   2.377   5.683 -2.9488  2.0552 -2.1551
   33MOL0     H 4333   8.376   2.544   5.637  0.3465  1.1419  0.2814
   33MOL0     H 4334   8.407   2.588   5.898  0.4451 -2.3688  2.5643
   33MOL0     H 4335   8.250   2.530   5.830  0.3074  2.7958  1.0073
   33MOL0     H 4336   8.458   2.374   5.977  0.1115  0.2319  0.0815
   33MOL0     H 4337   8.318   2.297   5.881 -2.3159  1.2709 -1.4033
   33MOL0     H 4338   9.112   2.581   5.062  1.5370  0.3336 -1.1695
   33MOL0     H 4339   9.343   2.606   4.982  0.2016  2.0228  0.9711
   33MOL0     H 4340   9.912   2.594   5.290  2.1958 -2.5029  0.8481
   33MOL0     H 4341  10.121   2.556   5.188 -1.0737  1.9072 -1.4890
   33MOL0     H 4342  10.502   2.609   3.362  0.3399  0.6983 -1.5326
   33MOL0     H 4343  10.584   2.607   3.116  0.8672 -0.4149 -1.1717
   33MOL0     H 4344  10.769   2.416   2.810  0.3609 -0.7432 -1.8487
   33MOL0     H 4345  10.829   2.322   2.595 -0.4199 -0.3705  0.9249
   33MOL0     H 4346  11.234   2.432   2.403 -0.1544 -1.0150  1.4743
   33MOL0     H 4347  11.099   2.538   2.412 -0.7756  0.1129 -1.6342
   33MOL0     H 4348  10.982   2.391   2.234  0.6359 -2.6146 -1.0192
   33MOL0     H 4349  11.117   2.487   2.173 -3.7926  4.4330  2.0304
   33MOL0     H 4350  11.123   2.204   2.255 -3.9534  1.7419  0.5954
   33MOL0     H 4351  11.267   2.292   2.192 -0.7369 -1.4645 -1.7354
   33MOL0     H 4352  11.014   2.235   2.017  0.0085  2.5307 -1.2761
   33MOL0     H 4353  11.136   2.336   1.971  2.0272 -0.8369 -0.5281
   33MOL0     H 4354  11.283   1.922   1.952 -0.8313 -1.0451 -3.1352
   33MOL0     H 4355  11.231   2.443   2.653 -0.9380 -0.4727 -0.1612
   33MOL0     H 4356  11.183   2.519   2.883 -0.8054 -1.0287  1.9983
   34MOL0     O 4357  10.804   1.625  10.199 -0.2095 -0.0599 -0.6062
   34MOL0     C 4358  10.841   1.618  10.081 -0.1600  0.6785 -0.7876
   34MOL0     O 4359  10.776   1.666   9.975 -0.1205  0.3964  0.2059
   34MOL0     C 4360  10.638   1.657   9.972 -0.3762 -0.1966 -0.0386
   34MOL0     C 4361  10.578   1.727   9.874  0.0225  0.6342 -1.1893
   34MOL0     C 4362  10.437   1.731   9.858  0.6548  0.9149  1.1655
   34MOL0     C 4363  10.355   1.656   9.943  0.0857 -0.1882 -0.1164
   34MOL0     O 4364  10.218   1.650   9.936 -0.2056 -0.4733  0.1232
   34MOL0     C 4365  10.143   1.760   9.984 -0.1686  0.8609 -1.0350
   34MOL0     C 4366  10.046   1.709  10.087  0.7877  0.0288 -0.2943
   34MOL0     C 4367   9.912   1.777  10.102 -0.2776  0.3502  0.5089
   34MOL0     C 4368   9.812   1.763   9.977 -0.2496 -0.8517  0.9023
   34MOL0     C 4369   9.661   1.795  10.011  0.2112 -0.5509  0.3999
   34MOL0     C 4370   9.575   1.824   9.889 -1.0037  0.5108 -0.2137
   34MOL0     C 4371   9.440   1.891   9.918  0.2235  0.2382  1.0362
   34MOL0     C 4372   9.372   1.909   9.776  0.5351  0.1494 -0.8485
   34MOL0     N 4373   9.253   1.994   9.790 -1.3072 -0.9215 -0.2089
   34MOL0     C 4374   9.134   1.951   9.836 -0.8129  0.2379  0.3161
   34MOL0     C 4375   9.052   2.056   9.839 -0.8627  0.5517 -0.2715
   34MOL0     C 4376   8.912   2.070   9.883  0.4428  0.3072 -0.2116
   34MOL0     C 4377   8.809   2.042   9.771 -0.0718  0.7260 -0.2341
   34MOL0     C 4378   8.770   2.174   9.699 -0.4486 -0.1875 -0.1732
   34MOL0     C 4379   8.674   2.148   9.584  1.3550  0.2520 -0.4323
   34MOL0     O 4380   8.554   2.082   9.624  0.4762  0.1894 -1.2533
   34MOL0     C 4381   8.441   2.150   9.659  0.0537  0.3998  0.1554
   34MOL0     C 4382   8.319   2.078   9.649 -0.3338  0.2918  0.0719
   34MOL0     C 4383   8.206   2.138   9.673  0.1054  0.4744 -0.1803
   34MOL0     C 4384   8.195   2.276   9.704  0.6525  0.3703  0.0713
   34MOL0     C 4385   8.074   2.343   9.735  0.6962 -0.3675 -1.1832
   34MOL0     O 4386   7.965   2.268   9.776 -0.2944  0.2231  0.6084
   34MOL0     C 4387   7.846   2.334   9.786  1.1412  0.5107  1.0246
   34MOL0     C 4388   7.806   2.387   9.911 -0.2849 -0.0144  0.3688
   34MOL0     C 4389   7.679   2.445   9.920 -1.3289 -0.9889  0.0223
   34MOL0     C 4390   7.591   2.450   9.810 -0.2107 -0.5416  0.6253
   34MOL0     O 4391   7.471   2.495   9.840  0.2127 -0.2344  0.5484
   34MOL0     C 4392   7.363   2.459   9.751 -0.2835  0.3424 -1.1068
   34MOL0     C 4393   7.231   2.497   9.799  0.4669 -0.1394 -0.0399
   34MOL0     C 4394   7.116   2.486   9.708  0.2406  0.9166  0.3339
   34MOL0     C 4395   6.987   2.468   9.795  0.8191  0.3674 -0.7763
   34MOL0     C 4396   6.859   2.490   9.723 -0.6045 -0.1327 -0.3693
   34MOL0     C 4397   6.740   2.455   9.809 -0.5753 -0.1865  0.3758
   34MOL0     C 4398   6.615   2.447   9.720  0.1127  0.7003  0.3856
   34MOL0     C 4399   6.547   2.583   9.695  0.2546 -0.0598  0.6085
   34MOL0    Cl 4400   6.471   2.649   9.846  0.6343 -0.3355  0.0297
   34MOL0     C 4401   7.631   2.402   9.680 -0.4406 -0.9405  0.0947
   34MOL0     C 4402   7.758   2.346   9.672 -0.7282 -1.1880 -0.5788
   34MOL0     O 4403   8.080   2.462   9.740  0.0414 -0.0580  0.0016
   34MOL0     C 4404   8.313   2.346   9.724 -0.5277 -0.3331 -0.1513
   34MOL0     C 4405   8.437   2.283   9.706  0.4531 -0.3935  0.1014
   34MOL0     N 4406   9.127   2.169   9.802 -0.6519  0.6133  0.1932
   34MOL0     N 4407   9.247   2.127   9.772  0.1041 -0.4304 -0.4906
   34MOL0     C 4408  10.418   1.577  10.042 -0.5899  0.1853 -0.0896
   34MOL0     C 4409  10.557   1.577  10.052  1.1821  0.9787  0.1402
   34MOL0     C 4410  10.980   1.566  10.054  0.1183  0.7950  1.5490
   34MOL0     C 4411  11.078   1.558  10.152 -0.3485 -0.2342  0.7617
   34MOL0     C 4412  11.206   1.488  10.136 -0.0142 -0.3577 -0.4489
   34MOL0     C 4413  11.232   1.433  10.011 -0.5199  0.1789  0.3492
   34MOL0     O 4414  11.347   1.369   9.976  0.2366  0.6217 -0.6204
   34MOL0     C 4415  11.434   1.317  10.079  0.2990 -0.0368  0.1819
   34MOL0     C 4416  11.359   1.200  10.137  0.2863 -0.1177 -0.2555
   34MOL0     C 4417  11.345   1.094  10.039  0.5103  0.3582  0.5390
   34MOL0     C 4418  11.232   0.995  10.071  0.5745 -0.4938 -0.1232
   34MOL0     C 4419  11.214   0.899   9.962  0.2616 -0.4433  0.2169
   34MOL0     C 4420  11.176   0.826   9.868 -0.7923 -0.0829  0.7053
   34MOL0     C 4421  11.150   1.463   9.901  0.2813  0.0522 -0.6201
   34MOL0     C 4422  11.030   1.526   9.928  0.4158  0.4333  0.4229
   34MOL0     H 4423  10.637   1.776   9.797 -1.1583  2.7737 -0.8132
   34MOL0     H 4424  10.385   1.780   9.776 -1.1891 -0.2126  1.6048
   34MOL0     H 4425  10.098   1.809   9.897 -1.1153  1.0211 -0.4647
   34MOL0     H 4426  10.202   1.840  10.029 -0.9833  0.0818  1.5614
   34MOL0     H 4427  10.100   1.713  10.182  0.3137 -0.0035 -0.0205
   34MOL0     H 4428  10.011   1.609  10.058  0.2330 -0.1556  0.9504
   34MOL0     H 4429   9.941   1.883  10.109 -0.0428  0.7836 -4.0084
   34MOL0     H 4430   9.853   1.738  10.185  0.0843  0.3181  0.7526
   34MOL0     H 4431   9.843   1.830   9.896 -1.9070  0.0076  0.9399
   34MOL0     H 4432   9.827   1.661   9.940 -1.9579 -0.7618 -0.1279
   34MOL0     H 4433   9.647   1.882  10.076 -2.9055 -0.8441  0.2936
   34MOL0     H 4434   9.615   1.710  10.063 -1.2208  1.1445  2.0528
   34MOL0     H 4435   9.562   1.730   9.835 -0.2942  1.4493 -2.0870
   34MOL0     H 4436   9.641   1.888   9.830  3.2429 -1.8548  1.4715
   34MOL0     H 4437   9.387   1.829   9.990 -1.6122  1.1565  0.5263
   34MOL0     H 4438   9.462   1.990   9.959  2.5051  0.0761  0.3572
   34MOL0     H 4439   9.351   1.807   9.740 -0.2266  0.4549 -1.2995
   34MOL0     H 4440   9.444   1.956   9.708 -0.4269  2.9140 -0.0925
   34MOL0     H 4441   9.111   1.852   9.875  1.1395 -0.2289  0.4294
   34MOL0     H 4442   8.895   2.171   9.923 -1.4001  0.1098 -0.4219
   34MOL0     H 4443   8.881   1.993   9.954  0.1282  0.6246  0.0034
   34MOL0     H 4444   8.723   1.986   9.811  0.4496  0.1414  0.0805
   34MOL0     H 4445   8.859   1.984   9.693  1.5521  1.4868  0.2126
   34MOL0     H 4446   8.719   2.234   9.775  1.3034 -1.6488  2.3199
   34MOL0     H 4447   8.857   2.229   9.663 -0.7339  1.2766  1.2675
   34MOL0     H 4448   8.734   2.084   9.518  1.1490 -1.0591  0.6028
   34MOL0     H 4449   8.654   2.238   9.524 -3.9442 -0.5801 -0.3339
   34MOL0     H 4450   8.328   1.975   9.614 -1.7374  0.2780 -0.3287
   34MOL0     H 4451   8.113   2.083   9.670  1.8695 -2.9109  1.7852
   34MOL0     H 4452   7.866   2.396  10.001 -0.3015  0.7130  0.3152
   34MOL0     H 4453   7.631   2.478  10.012  2.1998 -1.7121  2.2945
   34MOL0     H 4454   7.362   2.351   9.737  1.7542  0.0859  0.2751
   34MOL0     H 4455   7.369   2.498   9.649 -0.0698 -3.5529 -2.7280
   34MOL0     H 4456   7.237   2.603   9.824  0.2864 -0.1607  0.0961
   34MOL0     H 4457   7.213   2.445   9.894  0.8706  1.2650  0.8405
   34MOL0     H 4458   7.118   2.404   9.635  3.2061  1.5313 -0.4062
   34MOL0     H 4459   7.116   2.575   9.645  1.1463 -0.3985 -1.6037
   34MOL0     H 4460   6.980   2.369   9.841 -1.2305  0.6318 -0.4356
   34MOL0     H 4461   6.982   2.543   9.875 -1.4842 -1.6116  1.0990
   34MOL0     H 4462   6.858   2.427   9.634  1.5464  1.2153 -1.4517
   34MOL0     H 4463   6.842   2.590   9.683 -1.0720 -0.9123 -2.2213
   34MOL0     H 4464   6.719   2.538   9.878  1.5102  1.0580 -0.4019
   34MOL0     H 4465   6.760   2.358   9.857 -0.6529  0.3243  1.4815
   34MOL0     H 4466   6.644   2.395   9.629 -0.4108  0.0345  0.5858
   34MOL0     H 4467   6.533   2.390   9.765 -3.0902  1.4874 -3.8119
   34MOL0     H 4468   6.472   2.581   9.616  1.3045 -0.0101 -0.4177
   34MOL0     H 4469   6.625   2.652   9.661  0.3705  1.0266  2.8748
   34MOL0     H 4470   7.556   2.403   9.601  0.2930  2.8341 -0.7194
   34MOL0     H 4471   7.797   2.308   9.578 -3.6768  0.4409 -2.6511
   34MOL0     H 4472   8.311   2.448   9.761  1.0083  0.5914 -2.4375
   34MOL0     H 4473   8.528   2.341   9.719  0.7005 -0.8394  0.3978
   34MOL0     H 4474  10.358   1.510  10.103 -0.6131 -0.4235 -0.7591
   34MOL0     H 4475  10.588   1.510  10.131  1.0160  0.2142 -0.4376
   34MOL0     H 4476  11.065   1.582  10.257 -3.8640 -3.2886  1.2560
   34MOL0     H 4477  11.279   1.500  10.215 -0.1729  1.3603 -0.5157
   34MOL0     H 4478  11.453   1.400  10.148 -0.5313  1.4119 -1.2296
   34MOL0     H 4479  11.534   1.286  10.046 -0.9187 -1.3299 -2.6161
   34MOL0     H 4480  11.431   1.163  10.210  0.1780 -1.8155 -0.9481
   34MOL0     H 4481  11.269   1.232  10.189 -0.6391  0.1827 -1.9591
   34MOL0     H 4482  11.435   1.034  10.020 -0.5902 -0.7578 -1.5910
   34MOL0     H 4483  11.330   1.141   9.941 -1.4005  1.8064  1.4609
   34MOL0     H 4484  11.248   0.936  10.163  3.9143 -0.4049 -0.5358
   34MOL0     H 4485  11.141   1.056  10.062  1.7864  1.0282 -3.5781
   34MOL0     H 4486  11.137   0.772   9.785 -1.9021 -0.0935  1.2229
   34MOL0     H 4487  11.169   1.421   9.802 -2.8549  2.2786 -2.3350
   34MOL0     H 4488  10.951   1.529   9.854 -0.3508  0.9157  1.2456
   35MOL0     O 4489   2.404   5.802   3.283 -0.5616  0.2464 -0.3921
   35MOL0     C 4490   2.489   5.776   3.196 -0.5425  0.6117  0.6460
   35MOL0     O 4491   2.470   5.722   3.062  0.8153  0.5149  1.4572
   35MOL0     C 4492   2.346   5.688   3.025  0.6508  0.1629  1.1885
   35MOL0     C 4493   2.315   5.554   3.033 -0.7094 -0.4995 -0.2471
   35MOL0     C 4494   2.185   5.511   3.009  0.6129 -0.2339  0.5274
   35MOL0     C 4495   2.086   5.601   2.967  0.1081 -0.0568 -0.1473
   35MOL0     O 4496   1.957   5.577   2.950 -0.1440  0.5102  0.2890
   35MOL0     C 4497   1.894   5.451   2.992 -1.0858  0.1831  0.4973
   35MOL0     C 4498   1.752   5.450   2.936  0.5782 -0.7008  0.3804
   35MOL0     C 4499   1.659   5.571   2.963  0.3099 -0.9278  0.1031
   35MOL0     C 4500   1.521   5.556   2.891  0.9485 -0.2922  0.4953
   35MOL0     C 4501   1.411   5.652   2.941 -0.2807  0.2150  0.3707
   35MOL0     C 4502   1.402   5.642   3.094  0.6885 -0.2471 -0.6200
   35MOL0     C 4503   1.280   5.704   3.161 -0.6279 -0.4255  0.7693
   35MOL0     C 4504   1.290   5.709   3.312 -0.0847  0.0788  0.6754
   35MOL0     N 4505   1.172   5.789   3.363  0.3379 -0.1724  0.0833
   35MOL0     C 4506   1.174   5.922   3.400  0.3170 -0.2010 -0.2746
   35MOL0     C 4507   1.046   5.956   3.389 -0.7135  0.0122 -0.1875
   35MOL0     C 4508   0.993   6.093   3.399  0.0202 -0.1907  1.3902
   35MOL0     C 4509   0.974   6.143   3.545 -0.9724  0.6332 -0.3994
   35MOL0     C 4510   0.906   6.045   3.643  0.7691  0.6141 -0.5296
   35MOL0     C 4511   0.767   6.023   3.613  0.2424  0.9332 -0.6920
   35MOL0     O 4512   0.684   6.038   3.735  0.2801  0.7375 -0.3064
   35MOL0     C 4513   0.554   6.005   3.734  0.0092 -0.7417  0.2272
   35MOL0     C 4514   0.503   5.991   3.859 -0.2759  0.3270 -0.6517
   35MOL0     C 4515   0.371   5.948   3.882 -0.7606 -0.4565  0.3501
   35MOL0     C 4516   0.286   5.929   3.773 -0.0872 -0.0932 -0.3786
   35MOL0     C 4517   0.134   5.887   3.794 -0.2913  0.6062  0.9489
   35MOL0     O 4518   0.061   5.863   3.683  0.3213 -0.3716  0.8256
   35MOL0     C 4519  -0.074   5.859   3.698  0.3021 -0.4578  0.1904
   35MOL0     C 4520  -0.136   5.745   3.734  0.3044  0.4496  0.1652
   35MOL0     C 4521  -0.277   5.740   3.763 -0.2534 -0.5952  0.3331
   35MOL0     C 4522  -0.352   5.852   3.756 -0.4267 -0.1848 -0.0259
   35MOL0     O 4523  -0.479   5.847   3.791  0.9922  0.2233 -0.2874
   35MOL0     C 4524  -0.577   5.941   3.755 -0.4268 -0.9279 -0.1351
   35MOL0     C 4525  -0.707   5.905   3.826 -0.1855 -0.4974 -0.0255
   35MOL0     C 4526  -0.819   6.000   3.783  0.8268 -0.0472 -0.4405
   35MOL0     C 4527  -0.799   6.143   3.828  0.0129 -0.4057  0.2065
   35MOL0     C 4528  -0.927   6.228   3.839 -0.5329  0.2261  0.4711
   35MOL0     C 4529  -1.032   6.162   3.932  0.1678  0.8057 -0.0413
   35MOL0     C 4530  -1.140   6.277   3.971  0.7419 -0.4989 -0.6342
   35MOL0     C 4531  -1.256   6.281   3.877  0.9629  0.0886 -0.4849
   35MOL0    Cl 4532  -1.378   6.406   3.901 -0.1796  0.0961  0.1403
   35MOL0     C 4533  -0.286   5.964   3.703 -0.1220 -0.5968  0.0943
   35MOL0     C 4534  -0.154   5.973   3.673 -0.5135  1.3475  0.7592
   35MOL0     O 4535   0.094   5.918   3.904 -0.3812 -0.2492  0.2419
   35MOL0     C 4536   0.346   5.941   3.642  0.0427  0.3116 -0.3573
   35MOL0     C 4537   0.480   5.967   3.623 -1.3814  0.0661  0.0744
   35MOL0     N 4538   0.963   5.843   3.354 -0.9621  0.0152  0.1549
   35MOL0     N 4539   1.043   5.744   3.335 -0.0797 -0.3623  0.1463
   35MOL0     C 4540   2.124   5.731   2.947 -0.2067 -0.7219 -0.3026
   35MOL0     C 4541   2.253   5.774   2.974  0.7733  0.3599 -0.1562
   35MOL0     C 4542   2.635   5.783   3.234  0.4278  0.1110  0.4381
   35MOL0     C 4543   2.729   5.708   3.161  0.7206 -0.2005 -0.7660
   35MOL0     C 4544   2.865   5.710   3.203  0.3085  0.9996  0.1692
   35MOL0     C 4545   2.913   5.783   3.307  0.3662 -1.3674 -0.1550
   35MOL0     O 4546   3.044   5.788   3.348  0.0573 -0.0686  0.4409
   35MOL0     C 4547   3.139   5.705   3.273 -0.3756 -0.0207 -1.0550
   35MOL0     C 4548   3.174   5.773   3.139  0.7715  0.7482 -0.3495
   35MOL0     C 4549   3.244   5.912   3.145  0.0012  0.9998 -0.0084
   35MOL0     C 4550   3.245   5.979   3.005  0.4623  0.1710 -0.3382
   35MOL0     C 4551   3.331   5.917   2.904  0.1440 -0.1232 -0.0782
   35MOL0     C 4552   3.399   5.867   2.816 -0.1924  0.1817 -0.9208
   35MOL0     C 4553   2.813   5.854   3.380  1.1698  0.0609  0.5686
   35MOL0     C 4554   2.673   5.869   3.343 -0.1111  0.1443 -0.4502
   35MOL0     H 4555   2.381   5.480   3.075 -0.5918 -0.9847 -1.2590
   35MOL0     H 4556   2.163   5.405   3.018 -1.4838  0.2867  2.4084
   35MOL0     H 4557   1.895   5.451   3.101  2.1379  4.7228  0.7665
   35MOL0     H 4558   1.964   5.371   2.968 -2.7575 -0.9299 -0.9103
   35MOL0     H 4559   1.698   5.365   2.980  0.4911 -0.4744  0.7164
   35MOL0     H 4560   1.754   5.444   2.827 -0.5331  1.9736  0.1436
   35MOL0     H 4561   1.706   5.664   2.928  1.3690 -1.1116  0.9814
   35MOL0     H 4562   1.659   5.586   3.071  2.5169 -1.9604  0.3220
   35MOL0     H 4563   1.531   5.571   2.783 -1.2068 -1.1144  0.1335
   35MOL0     H 4564   1.499   5.450   2.908 -0.5692  0.1740  1.7018
   35MOL0     H 4565   1.317   5.629   2.891  1.0551  1.4126 -3.0004
   35MOL0     H 4566   1.434   5.751   2.901 -2.9807  1.5932  1.9518
   35MOL0     H 4567   1.482   5.703   3.136 -0.9287  2.0881 -0.6980
   35MOL0     H 4568   1.420   5.543   3.136 -0.5415  0.6200  2.1899
   35MOL0     H 4569   1.263   5.802   3.115 -0.1204 -1.2134 -1.2211
   35MOL0     H 4570   1.194   5.638   3.146 -2.6649  2.1119  0.5311
   35MOL0     H 4571   1.386   5.757   3.336  1.2956 -1.5976 -1.1220
   35MOL0     H 4572   1.285   5.612   3.363  0.2218  0.7992  2.1160
   35MOL0     H 4573   1.254   5.988   3.431 -0.1211 -0.0687  0.6148
   35MOL0     H 4574   0.901   6.106   3.341  1.5562  1.9117 -0.7671
   35MOL0     H 4575   1.058   6.163   3.345 -0.5113 -0.1897  0.7343
   35MOL0     H 4576   0.918   6.237   3.551  0.4573  1.3967  2.7033
   35MOL0     H 4577   1.075   6.158   3.583 -0.9438 -0.7598  0.1268
   35MOL0     H 4578   0.953   5.947   3.649 -3.5453 -1.6738  0.7463
   35MOL0     H 4579   0.910   6.076   3.748 -1.3212 -1.4925  0.2602
   35MOL0     H 4580   0.748   5.928   3.562  2.6090  0.5118 -0.8858
   35MOL0     H 4581   0.733   6.097   3.541 -1.2545  1.3872  0.4392
   35MOL0     H 4582   0.561   6.013   3.948 -1.1124 -2.0113  0.5633
   35MOL0     H 4583   0.330   5.929   3.981  1.3708 -3.9360  0.7104
   35MOL0     H 4584  -0.085   5.651   3.752 -1.6306 -0.5881  0.4006
   35MOL0     H 4585  -0.321   5.641   3.776 -2.6185 -0.1684 -2.9454
   35MOL0     H 4586  -0.596   5.949   3.647 -0.0455  3.1759 -0.0455
   35MOL0     H 4587  -0.547   6.042   3.784  0.8228 -0.7879 -1.8003
   35MOL0     H 4588  -0.692   5.910   3.935 -3.2170  1.6898  0.4369
   35MOL0     H 4589  -0.728   5.798   3.814  3.2101 -1.4880  1.5234
   35MOL0     H 4590  -0.907   5.955   3.831  1.1506 -4.5503 -3.4583
   35MOL0     H 4591  -0.837   5.999   3.675  1.0831  1.3693 -0.5092
   35MOL0     H 4592  -0.742   6.144   3.921 -1.5052 -0.3376  1.1637
   35MOL0     H 4593  -0.731   6.182   3.751  0.1263 -1.5768 -0.3001
   35MOL0     H 4594  -0.957   6.249   3.736 -1.7120 -1.5633  0.4038
   35MOL0     H 4595  -0.898   6.324   3.884  0.5205  0.1910 -0.0988
   35MOL0     H 4596  -0.988   6.126   4.025 -1.0987 -3.2109 -0.7865
   35MOL0     H 4597  -1.078   6.075   3.884 -0.0509  1.1049 -0.3815
   35MOL0     H 4598  -1.181   6.260   4.071  1.9732  1.2441  0.2034
   35MOL0     H 4599  -1.094   6.376   3.978  0.4198 -0.4822  2.8141
   35MOL0     H 4600  -1.312   6.189   3.897  0.1187  0.5359 -0.7174
   35MOL0     H 4601  -1.219   6.271   3.775  0.6809  1.6754 -0.7700
   35MOL0     H 4602  -0.342   6.057   3.701  0.5600 -0.0764  2.4219
   35MOL0     H 4603  -0.099   6.066   3.662 -1.5261  1.8656 -0.1272
   35MOL0     H 4604   0.291   5.927   3.550 -0.6098 -1.1156  0.2158
   35MOL0     H 4605   0.525   5.971   3.524  2.3300  0.4843  1.5783
   35MOL0     H 4606   2.046   5.804   2.928 -0.6694 -1.1375 -0.0321
   35MOL0     H 4607   2.268   5.882   2.968 -2.6821  1.0125  0.9540
   35MOL0     H 4608   2.702   5.649   3.074  1.3524 -1.7663  0.0654
   35MOL0     H 4609   2.930   5.651   3.139 -1.8229  0.8730 -2.0303
   35MOL0     H 4610   3.106   5.602   3.257 -0.0314 -0.1390 -1.0028
   35MOL0     H 4611   3.225   5.697   3.340 -1.7756  1.9386  1.1114
   35MOL0     H 4612   3.228   5.692   3.089  0.8282  0.7133 -0.2319
   35MOL0     H 4613   3.084   5.793   3.081  1.2562  0.2325 -1.2974
   35MOL0     H 4614   3.349   5.908   3.176  0.3964  1.4643 -1.2451
   35MOL0     H 4615   3.188   5.991   3.197  1.6918  1.5968  0.9967
   35MOL0     H 4616   3.143   5.983   2.965  0.9730 -1.2812 -1.9039
   35MOL0     H 4617   3.281   6.081   3.016  1.9669 -0.2972 -0.7215
   35MOL0     H 4618   3.468   5.829   2.743  0.8161  0.6348 -0.2272
   35MOL0     H 4619   2.835   5.910   3.470  0.8580  1.1991 -0.0450
   35MOL0     H 4620   2.604   5.928   3.402 -1.1802 -0.4769 -1.0376
   36MOL0     O 4621   9.660   3.319   0.340  0.1501 -0.2153 -0.1438
   36MOL0     C 4622   9.707   3.424   0.296 -0.6873 -0.3998  0.1109
   36MOL0     O 4623   9.676   3.542   0.341  0.5245 -0.4368 -0.7346
   36MOL0     C 4624   9.563   3.579   0.399  0.3778  0.6589  0.3257
   36MOL0     C 4625   9.435   3.516   0.377  0.3975 -0.8406  0.5230
   36MOL0     C 4626   9.319   3.569   0.438 -1.0780 -0.3291 -0.4027
   36MOL0     C 4627   9.328   3.675   0.526 -0.3800  0.8900  0.8781
   36MOL0     O 4628   9.212   3.712   0.598 -0.5362  0.4096  0.0948
   36MOL0     C 4629   9.213   3.665   0.734 -0.9484  0.1656  0.8764
   36MOL0     C 4630   9.075   3.653   0.797  0.0063 -0.0085 -0.3809
   36MOL0     C 4631   8.965   3.578   0.719 -0.5268  0.0583  0.1264
   36MOL0     C 4632   8.839   3.599   0.799 -0.5833 -0.3515  0.3912
   36MOL0     C 4633   8.776   3.722   0.723  1.2379  0.4158 -0.2839
   36MOL0     C 4634   8.661   3.795   0.793  0.0666 -0.2289 -1.0117
   36MOL0     C 4635   8.558   3.710   0.871 -0.7710 -0.6880  1.0880
   36MOL0     C 4636   8.470   3.631   0.779  0.7067  0.2690 -0.1437
   36MOL0     N 4637   8.381   3.545   0.861 -0.4644 -0.6882  0.3068
   36MOL0     C 4638   8.286   3.606   0.931  0.5314  0.5220 -0.2832
   36MOL0     C 4639   8.242   3.520   1.015 -0.6442  0.4246 -0.5362
   36MOL0     C 4640   8.118   3.534   1.097 -0.9830 -0.6321 -1.0815
   36MOL0     C 4641   8.012   3.447   1.039  0.7235  0.8635 -0.3957
   36MOL0     C 4642   7.899   3.429   1.148  0.0013 -0.0469  0.0184
   36MOL0     C 4643   7.782   3.359   1.077 -0.3093  0.1024 -0.3701
   36MOL0     O 4644   7.678   3.347   1.178 -0.6460 -1.1797 -0.2038
   36MOL0     C 4645   7.555   3.294   1.143 -0.4271  0.0000  0.3199
   36MOL0     C 4646   7.464   3.301   1.245 -0.8047  0.3685 -0.0280
   36MOL0     C 4647   7.335   3.251   1.237  0.0047 -0.4802  0.3485
   36MOL0     C 4648   7.293   3.203   1.105 -0.8947 -1.0250 -0.3174
   36MOL0     C 4649   7.157   3.155   1.083 -0.3207 -0.1212  0.5183
   36MOL0     O 4650   7.074   3.203   1.174  0.0826 -0.1705  0.3140
   36MOL0     C 4651   6.942   3.176   1.153  0.2455 -0.4187  0.1734
   36MOL0     C 4652   6.883   3.052   1.139 -0.0243 -0.3515 -0.2175
   36MOL0     C 4653   6.740   3.036   1.131  0.5763  0.0487 -0.3125
   36MOL0     C 4654   6.659   3.148   1.113  0.8774 -0.7545 -0.5552
   36MOL0     O 4655   6.527   3.131   1.108 -0.6636 -0.4600 -0.4090
   36MOL0     C 4656   6.441   3.238   1.054 -0.5954  0.5516 -0.2555
   36MOL0     C 4657   6.297   3.213   1.101 -0.0562  0.8152 -0.2973
   36MOL0     C 4658   6.210   3.099   1.026  0.1064  0.1601  0.0988
   36MOL0     C 4659   6.071   3.072   1.091  0.4507  0.3810 -0.3531
   36MOL0     C 4660   5.986   2.972   1.015  0.1514  0.0133 -0.5808
   36MOL0     C 4661   5.847   2.958   1.076 -0.7967  0.3677 -0.0278
   36MOL0     C 4662   5.773   2.833   1.013  0.5105 -0.0779 -0.3492
   36MOL0     C 4663   5.631   2.795   1.071 -0.9973 -0.4064 -0.1175
   36MOL0    Cl 4664   5.530   2.938   1.112  0.1886 -0.3573  0.3715
   36MOL0     C 4665   6.716   3.275   1.128 -0.5331 -0.2173 -0.3752
   36MOL0     C 4666   6.864   3.292   1.151  0.9142 -0.1995 -0.4057
   36MOL0     O 4667   7.128   3.103   0.973  0.5248  0.9622  0.5054
   36MOL0     C 4668   7.385   3.202   0.997 -0.2369  0.1008 -0.7496
   36MOL0     C 4669   7.517   3.234   1.020  0.4679 -0.5487  0.0303
   36MOL0     N 4670   8.299   3.399   0.984 -0.6157 -0.0232 -0.0010
   36MOL0     N 4671   8.393   3.415   0.895 -0.4564 -0.7032  0.4169
   36MOL0     C 4672   9.456   3.736   0.542  1.1216 -0.0554 -0.6006
   36MOL0     C 4673   9.569   3.691   0.480  0.3206  0.7890  0.3008
   36MOL0     C 4674   9.811   3.411   0.186  0.1739  0.0301 -0.2725
   36MOL0     C 4675   9.846   3.514   0.091 -0.4448 -0.2863  0.5545
   36MOL0     C 4676   9.949   3.503  -0.003 -0.0573 -1.2706 -0.0367
   36MOL0     C 4677  10.025   3.381  -0.001 -0.7997 -0.3943  0.2376
   36MOL0     O 4678  10.115   3.370  -0.106  0.6704  0.5871 -0.6562
   36MOL0     C 4679  10.237   3.294  -0.087 -0.9944 -0.3300  0.5021
   36MOL0     C 4680  10.243   3.174  -0.178 -0.5292 -0.1302 -0.6601
   36MOL0     C 4681  10.155   3.179  -0.311 -0.1827  0.0797  0.1624
   36MOL0     C 4682  10.223   3.261  -0.423  0.3709  0.1837 -0.1790
   36MOL0     C 4683  10.362   3.229  -0.443 -0.1486 -0.2922 -0.0344
   36MOL0     C 4684  10.480   3.191  -0.447  0.7762  0.3549 -0.0249
   36MOL0     C 4685   9.989   3.285   0.087  0.7849  0.2040 -1.1287
   36MOL0     C 4686   9.883   3.292   0.175  0.1754  0.3970 -0.2870
   36MOL0     H 4687   9.431   3.434   0.306  1.8322  0.6017 -1.3660
   36MOL0     H 4688   9.226   3.517   0.416 -0.1766 -1.0125 -3.1371
   36MOL0     H 4689   9.282   3.726   0.793  3.3066 -2.6919 -0.6811
   36MOL0     H 4690   9.259   3.565   0.733  0.9746  1.0130  0.5688
   36MOL0     H 4691   9.041   3.756   0.810  0.9112  0.2127  0.2942
   36MOL0     H 4692   9.078   3.602   0.894 -1.3705  0.8553  0.1419
   36MOL0     H 4693   8.979   3.470   0.719 -1.9084 -0.1476  0.7931
   36MOL0     H 4694   8.960   3.615   0.617  1.8075 -0.9495 -0.4081
   36MOL0     H 4695   8.787   3.504   0.782  4.2865 -3.2856  0.0356
   36MOL0     H 4696   8.846   3.620   0.906 -0.5028  2.3754 -0.0776
   36MOL0     H 4697   8.752   3.688   0.621  1.6715 -2.4921  0.5049
   36MOL0     H 4698   8.861   3.790   0.717  3.1163 -1.6594  1.0843
   36MOL0     H 4699   8.610   3.849   0.713  1.4592  0.6588 -1.3259
   36MOL0     H 4700   8.710   3.866   0.860 -0.0050 -1.7371  0.7274
   36MOL0     H 4701   8.610   3.648   0.944  1.5755 -0.2404 -0.1046
   36MOL0     H 4702   8.492   3.786   0.914  0.8570  1.9998 -0.8878
   36MOL0     H 4703   8.521   3.561   0.712 -0.8738 -0.8507 -0.2349
   36MOL0     H 4704   8.412   3.698   0.715  0.0332  1.6718  1.8555
   36MOL0     H 4705   8.256   3.709   0.913 -2.9615  0.1901  2.4902
   36MOL0     H 4706   8.082   3.637   1.096 -3.1446 -1.3160 -0.1903
   36MOL0     H 4707   8.140   3.521   1.204 -1.8757  1.1692 -0.6515
   36MOL0     H 4708   8.053   3.351   1.008 -0.0810  1.0356 -2.0761
   36MOL0     H 4709   7.960   3.501   0.959 -0.1972 -0.4720 -0.7246
   36MOL0     H 4710   7.932   3.373   1.236  2.9595 -0.9211 -1.5078
   36MOL0     H 4711   7.870   3.528   1.183 -0.9167 -0.4653  0.4580
   36MOL0     H 4712   7.808   3.261   1.036  1.8494  0.3466  0.2968
   36MOL0     H 4713   7.751   3.423   0.993  3.7507  0.8883 -1.4605
   36MOL0     H 4714   7.490   3.352   1.337 -0.1350  2.1142 -1.1165
   36MOL0     H 4715   7.273   3.254   1.326  2.0290  1.4848  1.8043
   36MOL0     H 4716   6.953   2.971   1.153 -0.4384 -0.8396 -0.9553
   36MOL0     H 4717   6.678   2.948   1.118 -2.0035  1.2200  2.8853
   36MOL0     H 4718   6.453   3.239   0.945  0.1663 -1.0338 -0.2089
   36MOL0     H 4719   6.469   3.339   1.088 -2.5442  1.7893 -2.0713
   36MOL0     H 4720   6.249   3.310   1.086 -0.4116  0.5152 -1.1396
   36MOL0     H 4721   6.298   3.180   1.206  3.9861 -2.2354 -1.0244
   36MOL0     H 4722   6.263   3.004   1.037  0.5876  0.5033  0.8471
   36MOL0     H 4723   6.211   3.128   0.920  0.0845 -0.0131  0.0515
   36MOL0     H 4724   6.099   3.032   1.190 -2.3479 -0.1523  0.3173
   36MOL0     H 4725   6.014   3.166   1.094  1.0540  1.0252 -4.2762
   36MOL0     H 4726   6.034   2.874   1.017  1.0752  0.4512  1.2201
   36MOL0     H 4727   5.985   3.004   0.911  0.1870 -1.4019 -1.0304
   36MOL0     H 4728   5.775   3.040   1.069 -0.6569  0.5299  0.4546
   36MOL0     H 4729   5.871   2.940   1.181  2.3651 -2.4157 -1.0409
   36MOL0     H 4730   5.738   2.868   0.915 -1.2967  0.3795  0.4189
   36MOL0     H 4731   5.841   2.748   1.003  0.1581 -0.1941 -2.1428
   36MOL0     H 4732   5.652   2.731   1.158 -1.4076  1.5418  1.5040
   36MOL0     H 4733   5.583   2.743   0.988 -1.5478  1.7691 -1.2471
   36MOL0     H 4734   6.663   3.370   1.122 -1.3100 -0.6517 -0.5254
   36MOL0     H 4735   6.906   3.392   1.145  0.2654  0.0668 -0.6883
   36MOL0     H 4736   7.367   3.172   0.894  0.6625  0.2521 -0.9570
   36MOL0     H 4737   7.575   3.217   0.930 -0.3768 -0.3198 -0.5673
   36MOL0     H 4738   9.475   3.831   0.591 -0.8338  1.0993 -1.9407
   36MOL0     H 4739   9.660   3.750   0.474 -0.0268  1.1624 -1.9938
   36MOL0     H 4740   9.799   3.611   0.106 -0.7428 -0.1526 -1.0789
   36MOL0     H 4741   9.980   3.584  -0.068 -0.1562  1.5048  3.0901
   36MOL0     H 4742  10.244   3.262   0.017  0.5408 -0.3928  0.4082
   36MOL0     H 4743  10.321   3.362  -0.106 -0.5457 -0.3710  2.1657
   36MOL0     H 4744  10.348   3.158  -0.204 -0.0853  0.3204  0.7793
   36MOL0     H 4745  10.207   3.087  -0.123 -1.1366  0.8675  0.5637
   36MOL0     H 4746  10.057   3.217  -0.282  0.6280  0.1646  3.0825
   36MOL0     H 4747  10.128   3.083  -0.355  0.5741  0.5781 -1.4527
   36MOL0     H 4748  10.172   3.240  -0.518  3.2545  1.9659 -2.3075
   36MOL0     H 4749  10.205   3.366  -0.400  0.1406 -0.0932  0.9360
   36MOL0     H 4750  10.582   3.159  -0.455  1.1127  1.3301  0.1465
   36MOL0     H 4751  10.037   3.188   0.078  2.4516  0.8704 -0.0429
   36MOL0     H 4752   9.853   3.216   0.246  1.7254  1.5381  1.6914
   37MOL0     O 4753   7.089   6.503   2.713 -0.0264 -1.2187 -0.2751
   37MOL0     C 4754   7.200   6.504   2.765 -0.1893 -0.7789  0.1810
   37MOL0     O 4755   7.230   6.549   2.894 -0.5308 -0.6272  0.1811
   37MOL0     C 4756   7.133   6.571   2.980 -0.0498  0.0821  0.9277
   37MOL0     C 4757   7.116   6.695   3.046  0.5187 -0.2797 -1.1051
   37MOL0     C 4758   6.995   6.706   3.123 -0.3062  0.0213 -0.6206
   37MOL0     C 4759   6.914   6.602   3.153  0.4405 -0.1943  0.5638
   37MOL0     O 4760   6.812   6.641   3.240 -0.1028  0.8506 -0.1406
   37MOL0     C 4761   6.688   6.570   3.220  0.5018  0.1745  0.0693
   37MOL0     C 4762   6.592   6.651   3.306  0.0560  0.2529 -0.2766
   37MOL0     C 4763   6.450   6.591   3.312  0.1735 -0.5067  0.1765
   37MOL0     C 4764   6.354   6.653   3.423 -0.7967  0.2688 -0.3325
   37MOL0     C 4765   6.206   6.612   3.415 -0.0028 -0.0071  0.8345
   37MOL0     C 4766   6.128   6.687   3.523 -0.2156 -0.3770 -0.2336
   37MOL0     C 4767   5.980   6.658   3.506 -0.7027  0.6814 -0.3397
   37MOL0     C 4768   5.911   6.734   3.614 -0.1535 -0.0139  0.1626
   37MOL0     N 4769   5.766   6.706   3.608  0.1248  0.3807 -0.9140
   37MOL0     C 4770   5.670   6.795   3.575  0.4758  0.5174  0.1473
   37MOL0     C 4771   5.562   6.727   3.597 -0.0641  0.6233 -0.3480
   37MOL0     C 4772   5.433   6.794   3.601 -0.4852  0.1770  0.3235
   37MOL0     C 4773   5.341   6.745   3.729  0.2000  0.0148  0.3769
   37MOL0     C 4774   5.199   6.823   3.721  1.0780  0.4184  0.2318
   37MOL0     C 4775   5.115   6.804   3.591 -0.5639 -0.2578  0.2181
   37MOL0     O 4776   4.994   6.737   3.621 -0.2442 -0.4360 -0.5386
   37MOL0     C 4777   4.878   6.799   3.598  0.0172  0.3911 -0.0732
   37MOL0     C 4778   4.838   6.923   3.662 -0.5487  1.0121 -0.1194
   37MOL0     C 4779   4.710   6.984   3.639 -0.0733 -0.0514  0.4508
   37MOL0     C 4780   4.632   6.934   3.538  0.4664 -0.8207 -0.6842
   37MOL0     C 4781   4.503   6.981   3.508 -0.1167 -1.0462 -0.2917
   37MOL0     O 4782   4.410   6.904   3.441  0.2183 -0.0831 -0.2499
   37MOL0     C 4783   4.286   6.963   3.414  0.9774 -0.3735  0.4154
   37MOL0     C 4784   4.272   7.030   3.288 -0.2569 -1.0482  0.4162
   37MOL0     C 4785   4.145   7.079   3.261  0.3959 -0.6925 -0.0805
   37MOL0     C 4786   4.035   7.082   3.350  0.7869 -0.2319 -0.1118
   37MOL0     O 4787   3.918   7.134   3.301  0.5311  0.6143 -0.0866
   37MOL0     C 4788   3.796   7.096   3.370 -0.0143  0.5934  0.0933
   37MOL0     C 4789   3.673   7.153   3.286 -0.3068 -0.2397  0.2112
   37MOL0     C 4790   3.540   7.104   3.331  0.7949  0.3165 -0.6015
   37MOL0     C 4791   3.430   7.157   3.233 -0.1655  0.6479 -0.0699
   37MOL0     C 4792   3.290   7.134   3.293  0.5294  0.1389  0.2555
   37MOL0     C 4793   3.268   6.983   3.310  0.4818  1.5239 -0.1989
   37MOL0     C 4794   3.127   6.931   3.344 -0.2028 -0.0214 -0.3203
   37MOL0     C 4795   3.112   6.781   3.382 -0.8847  0.3900  0.2316
   37MOL0    Cl 4796   2.946   6.733   3.373 -0.4983 -0.4052 -0.8243
   37MOL0     C 4797   4.060   7.024   3.479  0.2843  0.0205 -0.1467
   37MOL0     C 4798   4.183   6.970   3.509 -0.1949  0.4022 -0.6868
   37MOL0     O 4799   4.478   7.089   3.554 -0.2259  0.2597  0.0232
   37MOL0     C 4800   4.661   6.808   3.483  0.4998  0.0587 -1.0830
   37MOL0     C 4801   4.782   6.742   3.515 -0.0166  0.1112 -1.0286
   37MOL0     N 4802   5.593   6.594   3.633 -0.2369  0.7646 -0.1282
   37MOL0     N 4803   5.720   6.584   3.637 -0.2704  0.9365 -0.2905
   37MOL0     C 4804   6.926   6.479   3.086 -0.1833 -0.2048 -0.7111
   37MOL0     C 4805   7.035   6.469   3.002  0.0568  0.3061 -0.4270
   37MOL0     C 4806   7.317   6.468   2.684  0.5974  0.6021 -0.7292
   37MOL0     C 4807   7.424   6.403   2.749  1.2277  0.6323 -0.4765
   37MOL0     C 4808   7.528   6.356   2.682  0.7035  0.5271 -0.9700
   37MOL0     C 4809   7.541   6.374   2.550 -0.2857  0.5769  0.2731
   37MOL0     O 4810   7.639   6.312   2.475  0.5705  0.3990 -0.6781
   37MOL0     C 4811   7.762   6.262   2.532  0.5010 -0.0245 -0.0841
   37MOL0     C 4812   7.843   6.369   2.607  0.8237 -0.0695  0.1655
   37MOL0     C 4813   7.854   6.502   2.526 -0.4924 -0.6903 -0.3139
   37MOL0     C 4814   7.933   6.488   2.390  0.1537 -0.0462  0.8469
   37MOL0     C 4815   8.070   6.439   2.409 -1.0395 -0.1904 -0.2268
   37MOL0     C 4816   8.186   6.400   2.412 -0.4120 -0.5456  0.0586
   37MOL0     C 4817   7.444   6.441   2.483 -0.9447 -0.6532 -1.0273
   37MOL0     C 4818   7.329   6.491   2.545 -0.4710 -0.2160  0.8930
   37MOL0     H 4819   7.175   6.786   3.042  1.2796 -0.3550  3.3550
   37MOL0     H 4820   6.984   6.802   3.173 -2.4147  1.5113 -3.5977
   37MOL0     H 4821   6.696   6.470   3.264  0.8658  0.3453  0.3935
   37MOL0     H 4822   6.657   6.578   3.115  0.7715  0.2458 -0.0065
   37MOL0     H 4823   6.583   6.757   3.278 -0.8710  0.0898 -0.6375
   37MOL0     H 4824   6.632   6.634   3.406 -0.9234 -2.4215 -0.2527
   37MOL0     H 4825   6.459   6.483   3.331 -1.8613 -1.2408 -2.4010
   37MOL0     H 4826   6.404   6.608   3.214  2.4666  3.3505 -0.4166
   37MOL0     H 4827   6.395   6.610   3.515  1.6853 -0.0029 -1.4819
   37MOL0     H 4828   6.367   6.761   3.421  3.8294  0.0348  1.9171
   37MOL0     H 4829   6.202   6.506   3.440  0.8727  0.3242  2.5275
   37MOL0     H 4830   6.166   6.631   3.315  0.1388 -2.4255  0.2525
   37MOL0     H 4831   6.129   6.794   3.503 -0.9170 -0.0877  1.1823
   37MOL0     H 4832   6.178   6.666   3.618  3.3234  0.6561 -1.6990
   37MOL0     H 4833   5.936   6.686   3.410  2.0743  2.5847 -1.1928
   37MOL0     H 4834   5.970   6.550   3.519  1.4533  0.1325 -2.5167
   37MOL0     H 4835   5.931   6.841   3.608 -3.6213  0.6649 -2.7916
   37MOL0     H 4836   5.948   6.694   3.708  0.1087 -0.2721 -0.0472
   37MOL0     H 4837   5.680   6.902   3.555  0.2617  0.8840  1.8366
   37MOL0     H 4838   5.388   6.778   3.502  0.0130  0.2323  0.0857
   37MOL0     H 4839   5.449   6.902   3.608  1.4110 -0.1855  2.7884
   37MOL0     H 4840   5.390   6.764   3.825 -0.1935 -0.0270  0.5876
   37MOL0     H 4841   5.314   6.640   3.719  2.9881 -0.7286 -0.2009
   37MOL0     H 4842   5.154   6.794   3.816 -0.0246  1.4394  0.0423
   37MOL0     H 4843   5.218   6.930   3.736 -0.6412  0.5746  1.5683
   37MOL0     H 4844   5.171   6.752   3.513  0.8313  1.4949  0.0101
   37MOL0     H 4845   5.097   6.901   3.545  1.6888 -0.6289 -1.6302
   37MOL0     H 4846   4.911   6.969   3.728 -0.1442  1.2902 -0.7559
   37MOL0     H 4847   4.691   7.078   3.690  2.2495  0.5200  0.3689
   37MOL0     H 4848   4.359   7.033   3.223 -0.1790 -1.8544  0.4688
   37MOL0     H 4849   4.131   7.123   3.163  0.0928  1.7084  0.9641
   37MOL0     H 4850   3.791   7.142   3.469 -3.1872  0.9160 -0.1178
   37MOL0     H 4851   3.793   6.987   3.374 -1.2583  0.5660 -1.0420
   37MOL0     H 4852   3.686   7.121   3.182 -0.0127 -2.9317  0.9973
   37MOL0     H 4853   3.674   7.263   3.282  1.0826 -0.2470 -0.1908
   37MOL0     H 4854   3.526   7.151   3.428 -0.3615  0.9539 -1.0548
   37MOL0     H 4855   3.528   6.996   3.327  3.6958 -0.0659 -2.5637
   37MOL0     H 4856   3.435   7.266   3.232 -1.5108  0.7257 -0.0766
   37MOL0     H 4857   3.446   7.111   3.135 -4.7915 -3.0371  0.5807
   37MOL0     H 4858   3.217   7.176   3.223 -1.7061 -1.5163  1.4672
   37MOL0     H 4859   3.267   7.184   3.387 -0.2344 -0.6131  0.4809
   37MOL0     H 4860   3.332   6.938   3.386 -1.7585 -0.7461  0.4642
   37MOL0     H 4861   3.288   6.932   3.215 -1.4793  2.0772 -0.9573
   37MOL0     H 4862   3.079   7.001   3.413 -0.4103 -0.5799  0.1022
   37MOL0     H 4863   3.056   6.937   3.261 -0.5642  1.1754  0.0567
   37MOL0     H 4864   3.165   6.764   3.476  0.9821  1.7872 -0.5072
   37MOL0     H 4865   3.178   6.726   3.314  0.4277  0.5525  1.3270
   37MOL0     H 4866   3.987   7.015   3.559  0.5193  1.3279  0.2512
   37MOL0     H 4867   4.202   6.930   3.608 -3.0088  1.9280  0.6084
   37MOL0     H 4868   4.589   6.753   3.424 -1.3247  0.8269  0.3123
   37MOL0     H 4869   4.800   6.645   3.469  0.8848 -0.0961 -0.2770
   37MOL0     H 4870   6.854   6.403   3.116 -3.1681  2.3013 -0.9998
   37MOL0     H 4871   7.032   6.377   2.944  0.1545  0.5819 -0.8700
   37MOL0     H 4872   7.415   6.378   2.854  1.2133 -2.5001 -1.1205
   37MOL0     H 4873   7.594   6.288   2.735 -0.5374 -0.9866 -1.2794
   37MOL0     H 4874   7.829   6.230   2.452 -0.0169 -0.4050 -0.3736
   37MOL0     H 4875   7.736   6.176   2.593  1.8495 -0.6818 -0.4159
   37MOL0     H 4876   7.799   6.386   2.706 -1.4868 -1.3175 -0.5694
   37MOL0     H 4877   7.945   6.331   2.618  0.4328 -1.1805  0.0346
   37MOL0     H 4878   7.916   6.564   2.592 -1.5090  1.0109 -0.8752
   37MOL0     H 4879   7.760   6.552   2.503 -0.0047  1.1778  1.4568
   37MOL0     H 4880   7.871   6.425   2.326 -0.3411 -0.4224  1.6997
   37MOL0     H 4881   7.928   6.589   2.347 -0.3165  0.6910  2.5728
   37MOL0     H 4882   8.288   6.370   2.428 -0.3541  0.0044  0.7549
   37MOL0     H 4883   7.455   6.465   2.378  0.8221  0.3836 -0.6407
   37MOL0     H 4884   7.246   6.532   2.489 -3.4164 -1.6005  3.9281
   38MOL0     O 4885   5.951   7.633   6.803  0.4290 -0.0997  0.4584
   38MOL0     C 4886   5.969   7.527   6.861 -0.2566 -0.2484  0.0207
   38MOL0     O 4887   5.882   7.477   6.956 -0.1199  0.0259 -0.6012
   38MOL0     C 4888   5.761   7.531   6.978  0.1863  0.0818 -0.5075
   38MOL0     C 4889   5.710   7.568   7.108 -0.1037  0.6579 -0.2168
   38MOL0     C 4890   5.588   7.641   7.130  0.7079 -0.6115  0.5688
   38MOL0     C 4891   5.503   7.657   7.018  0.4621  0.2411 -0.3153
   38MOL0     O 4892   5.387   7.720   7.056 -0.0883 -0.4928  0.7205
   38MOL0     C 4893   5.296   7.723   6.948  0.0314 -0.4379  0.9480
   38MOL0     C 4894   5.159   7.792   6.992 -1.0999  0.4975 -0.2036
   38MOL0     C 4895   5.050   7.822   6.889  0.5562 -0.7491 -0.7936
   38MOL0     C 4896   4.945   7.911   6.945  0.0292 -0.3085 -0.0925
   38MOL0     C 4897   4.846   7.951   6.833 -0.9137 -1.2440 -0.6708
   38MOL0     C 4898   4.731   7.856   6.809 -0.5836  0.7197  0.6743
   38MOL0     C 4899   4.644   7.905   6.687 -0.1999  0.5103  0.0901
   38MOL0     C 4900   4.539   8.022   6.727  0.1895  0.2801  0.3831
   38MOL0     N 4901   4.418   8.041   6.638 -0.5372 -0.2442 -0.0162
   38MOL0     C 4902   4.312   8.125   6.666 -0.0691 -0.0681 -0.0036
   38MOL0     C 4903   4.247   8.143   6.546  0.3847  0.3626  0.2273
   38MOL0     C 4904   4.113   8.214   6.522  0.2642 -0.2324  0.0289
   38MOL0     C 4905   3.997   8.151   6.599  0.5476  0.8135  0.2836
   38MOL0     C 4906   3.880   8.252   6.606 -0.0830 -0.8925 -0.2670
   38MOL0     C 4907   3.750   8.202   6.680 -0.5846 -0.1610  0.4733
   38MOL0     O 4908   3.800   8.144   6.796 -1.0560 -0.2876 -0.3686
   38MOL0     C 4909   3.704   8.128   6.894  0.6268 -0.2358 -0.8325
   38MOL0     C 4910   3.747   8.086   7.017  0.8421  0.1185 -0.7262
   38MOL0     C 4911   3.655   8.044   7.119 -0.7210 -0.2622  0.1717
   38MOL0     C 4912   3.517   8.056   7.100 -0.2171 -0.3238 -0.4615
   38MOL0     C 4913   3.416   8.005   7.201  0.0522  0.0598 -0.4215
   38MOL0     O 4914   3.295   7.958   7.146  0.1530 -0.6235 -0.4678
   38MOL0     C 4915   3.198   7.914   7.230 -0.3254  0.6143 -1.0117
   38MOL0     C 4916   3.069   7.950   7.189 -0.1165  0.4961 -0.2426
   38MOL0     C 4917   2.962   7.900   7.264 -0.0590 -0.4405  0.0022
   38MOL0     C 4918   2.982   7.825   7.376  0.4357  0.3314 -0.5079
   38MOL0     O 4919   2.876   7.758   7.430 -0.0888  0.0548 -0.0081
   38MOL0     C 4920   2.777   7.837   7.502 -0.0055  0.4850 -0.0358
   38MOL0     C 4921   2.687   7.732   7.573 -0.0768 -0.4035 -0.0276
   38MOL0     C 4922   2.766   7.655   7.679  0.0528 -0.0175 -0.1658
   38MOL0     C 4923   2.841   7.738   7.790  0.5303 -1.7158 -0.7059
   38MOL0     C 4924   2.917   7.642   7.894 -0.0872  0.1423  0.1959
   38MOL0     C 4925   3.052   7.594   7.850 -0.5627 -0.2822  0.5076
   38MOL0     C 4926   3.155   7.705   7.880 -0.1236 -0.8320  0.2342
   38MOL0     C 4927   3.293   7.661   7.821  0.3781 -0.5646  0.4160
   38MOL0    Cl 4928   3.366   7.511   7.899 -0.2338 -0.1177 -0.1593
   38MOL0     C 4929   3.111   7.797   7.426  0.7130  0.1464  0.2053
   38MOL0     C 4930   3.220   7.836   7.350  0.6784  0.2002 -0.2227
   38MOL0     O 4931   3.450   7.997   7.320 -0.2884 -0.4467 -0.0855
   38MOL0     C 4932   3.477   8.119   6.981  0.8429  0.4399 -0.6349
   38MOL0     C 4933   3.561   8.150   6.883  0.0459  0.2713 -0.3313
   38MOL0     N 4934   4.306   8.069   6.450  0.2682  0.3781 -0.5052
   38MOL0     N 4935   4.421   8.027   6.502  0.0310 -0.1727  0.1048
   38MOL0     C 4936   5.548   7.615   6.891 -0.0902  1.2696  0.7232
   38MOL0     C 4937   5.674   7.554   6.874  0.2840  0.6134  0.2121
   38MOL0     C 4938   6.073   7.437   6.814  0.1740  0.0962  0.5167
   38MOL0     C 4939   6.188   7.484   6.757  1.1113 -0.1664  0.7216
   38MOL0     C 4940   6.289   7.399   6.726 -0.2028 -0.4050  0.0622
   38MOL0     C 4941   6.269   7.266   6.731 -0.6023  0.4943  0.0841
   38MOL0     O 4942   6.367   7.194   6.675 -0.3148 -0.3615  0.3033
   38MOL0     C 4943   6.387   7.051   6.702  0.3066  0.4752  0.0176
   38MOL0     C 4944   6.520   6.987   6.664  0.1636 -0.0421 -0.2749
   38MOL0     C 4945   6.639   7.034   6.752  0.7400 -1.1047  0.7360
   38MOL0     C 4946   6.779   7.005   6.690 -0.3228  0.1438 -0.2787
   38MOL0     C 4947   6.830   7.112   6.602  0.3156  0.5413  0.4900
   38MOL0     C 4948   6.883   7.187   6.523 -0.7667 -0.3025 -0.5434
   38MOL0     C 4949   6.156   7.216   6.785  0.9127 -0.4031 -0.5774
   38MOL0     C 4950   6.054   7.294   6.830  0.7439 -0.0663  0.5598
   38MOL0     H 4951   5.774   7.551   7.194 -0.2487  0.9500 -0.0454
   38MOL0     H 4952   5.562   7.687   7.225 -1.2089  3.5839 -1.7050
   38MOL0     H 4953   5.260   7.624   6.919 -3.5593  0.5461  1.5810
   38MOL0     H 4954   5.324   7.792   6.868 -2.3342  0.2640  0.6394
   38MOL0     H 4955   5.185   7.888   7.040 -1.9817  0.0185  1.2929
   38MOL0     H 4956   5.117   7.735   7.076  1.4148  0.4036  1.0912
   38MOL0     H 4957   4.997   7.729   6.866 -0.4084 -0.3131 -0.3862
   38MOL0     H 4958   5.087   7.870   6.798 -1.6512 -0.4681 -1.6147
   38MOL0     H 4959   4.888   7.860   7.024  0.1629  0.8104  0.7478
   38MOL0     H 4960   4.988   7.996   6.999  0.7214 -0.7136 -0.0017
   38MOL0     H 4961   4.901   7.962   6.739 -0.1427  0.5862 -0.0637
   38MOL0     H 4962   4.797   8.048   6.850  0.4844 -0.4580 -0.9655
   38MOL0     H 4963   4.665   7.847   6.896 -0.5268 -2.2136  0.5302
   38MOL0     H 4964   4.769   7.755   6.788 -0.8545  0.4192  1.5663
   38MOL0     H 4965   4.705   7.926   6.599  2.1869  1.8753  1.9424
   38MOL0     H 4966   4.576   7.826   6.653  0.4514  0.0519 -0.1652
   38MOL0     H 4967   4.599   8.113   6.735  4.5952 -2.2500 -0.2830
   38MOL0     H 4968   4.486   7.985   6.816 -0.3828 -0.5527 -0.2881
   38MOL0     H 4969   4.294   8.168   6.764  0.1564 -1.0922  0.5047
   38MOL0     H 4970   4.082   8.218   6.417 -2.3165  2.4401  0.7744
   38MOL0     H 4971   4.136   8.316   6.551  0.5755 -0.7275  1.6188
   38MOL0     H 4972   4.030   8.112   6.695  0.2438 -2.5297 -0.8601
   38MOL0     H 4973   3.962   8.056   6.559  2.1973 -0.0743  0.8399
   38MOL0     H 4974   3.895   8.344   6.664 -3.7914 -0.8444  0.8512
   38MOL0     H 4975   3.843   8.287   6.509 -2.0454 -1.3231  0.2949
   38MOL0     H 4976   3.695   8.128   6.622  0.6237 -1.2185  0.6373
   38MOL0     H 4977   3.687   8.287   6.706 -0.7515 -0.0963 -0.1446
   38MOL0     H 4978   3.854   8.070   7.027  0.7690  0.2221  0.3637
   38MOL0     H 4979   3.704   7.986   7.197  1.9849 -1.3003 -2.1042
   38MOL0     H 4980   3.045   8.020   7.109 -1.1850  1.8001  1.1582
   38MOL0     H 4981   2.867   7.924   7.218  0.6234  1.0705 -0.6738
   38MOL0     H 4982   2.730   7.891   7.420  4.2638  1.8290 -1.8536
   38MOL0     H 4983   2.815   7.904   7.580 -0.0142  0.1918  0.2246
   38MOL0     H 4984   2.645   7.664   7.499 -1.2852  0.9653 -0.6402
   38MOL0     H 4985   2.598   7.774   7.621 -0.7208 -2.4395  0.6783
   38MOL0     H 4986   2.852   7.609   7.628  0.2428 -0.2460  0.3540
   38MOL0     H 4987   2.706   7.567   7.704 -0.2744 -0.6809 -2.9560
   38MOL0     H 4988   2.914   7.812   7.756  0.0831  0.9028  3.4266
   38MOL0     H 4989   2.775   7.809   7.839  1.5535 -0.7680 -0.6613
   38MOL0     H 4990   2.862   7.550   7.914  1.9101 -2.0021 -3.3466
   38MOL0     H 4991   2.924   7.699   7.987 -1.0282 -0.6544  0.7719
   38MOL0     H 4992   3.048   7.573   7.743  0.6624 -0.2068  0.4270
   38MOL0     H 4993   3.070   7.505   7.911 -1.4534 -2.8250 -2.6472
   38MOL0     H 4994   3.133   7.798   7.826  1.7553 -1.9824 -2.8030
   38MOL0     H 4995   3.165   7.728   7.986 -1.1512 -3.1623  0.9122
   38MOL0     H 4996   3.357   7.750   7.821  0.4133 -0.3616 -4.4484
   38MOL0     H 4997   3.270   7.646   7.715 -0.6926  2.7830  0.0490
   38MOL0     H 4998   3.132   7.727   7.507 -0.3859 -0.7530 -0.2665
   38MOL0     H 4999   3.315   7.800   7.387 -1.4977 -2.7608  3.1154
   38MOL0     H 5000   3.369   8.121   6.969  0.3601  2.6329  2.7104
   38MOL0     H 5001   3.509   8.178   6.792  0.0639  2.2080  0.2047
   38MOL0     H 5002   5.483   7.619   6.805 -1.9506 -2.1661  1.7837
   38MOL0     H 5003   5.699   7.516   6.776 -5.6468 -2.5963 -0.5177
   38MOL0     H 5004   6.203   7.590   6.741 -0.0676  0.0640  1.0951
   38MOL0     H 5005   6.383   7.439   6.690  1.7907 -3.1252  1.8684
   38MOL0     H 5006   6.306   7.002   6.648 -1.0840 -0.8284  3.0643
   38MOL0     H 5007   6.365   7.029   6.807 -1.3524 -2.0159 -0.7802
   38MOL0     H 5008   6.509   6.878   6.664 -0.6541  0.0002 -1.9878
   38MOL0     H 5009   6.544   7.025   6.564  0.0477  2.0090  0.4350
   38MOL0     H 5010   6.636   6.994   6.854 -0.8143  2.1678  2.1002
   38MOL0     H 5011   6.632   7.143   6.761  3.7512 -1.0057  3.8056
   38MOL0     H 5012   6.846   6.991   6.776 -1.1579 -1.6278  0.1368
   38MOL0     H 5013   6.782   6.908   6.639 -0.3051  0.1573 -0.3038
   38MOL0     H 5014   6.938   7.253   6.458  0.4701 -0.8972 -0.1385
   38MOL0     H 5015   6.145   7.108   6.792  0.2595 -0.2482  1.4364
   38MOL0     H 5016   5.963   7.256   6.876  0.1171 -3.0376 -2.6346
   39MOL0     O 5017   4.151   8.239   9.746 -0.7813  0.4173 -0.7381
   39MOL0     C 5018   4.246   8.209   9.679 -0.7163 -0.3998  0.1230
   39MOL0     O 5019   4.256   8.113   9.574  0.4214 -1.0159  0.2177
   39MOL0     C 5020   4.134   8.051   9.558 -0.0873 -0.3592 -0.1216
   39MOL0     C 5021   4.049   8.088   9.459 -0.0859  0.0223  0.6177
   39MOL0     C 5022   3.919   8.036   9.457 -0.6458  0.1655 -0.5859
   39MOL0     C 5023   3.879   7.925   9.543  0.4881  0.3758  0.8178
   39MOL0     O 5024   3.761   7.860   9.513  0.3998 -0.3830 -0.7839
   39MOL0     C 5025   3.731   7.742   9.590 -0.1990  0.3226  0.0958
   39MOL0     C 5026   3.590   7.702   9.580 -0.7573 -0.1757 -0.2768
   39MOL0     C 5027   3.548   7.700   9.430 -0.0935  0.9635  0.9071
   39MOL0     C 5028   3.428   7.607   9.418 -0.3771  0.5135  0.5324
   39MOL0     C 5029   3.355   7.617   9.283 -0.4661 -0.1492 -0.0142
   39MOL0     C 5030   3.236   7.534   9.281  0.1143  0.6545 -0.1477
   39MOL0     C 5031   3.198   7.513   9.132  0.7282  0.4508 -0.3336
   39MOL0     C 5032   3.267   7.394   9.076  0.4194  0.3102  0.4081
   39MOL0     N 5033   3.199   7.376   8.944 -0.4721 -0.3386  0.5640
   39MOL0     C 5034   3.128   7.269   8.900  0.1529  0.1731 -0.0856
   39MOL0     C 5035   3.088   7.301   8.780  0.9222 -0.2879 -0.8000
   39MOL0     C 5036   3.000   7.224   8.694  0.6845  0.2359  0.1161
   39MOL0     C 5037   2.863   7.293   8.691 -0.2707  0.5950  0.1187
   39MOL0     C 5038   2.797   7.326   8.819 -0.0612 -0.4313 -0.0081
   39MOL0     C 5039   2.785   7.211   8.927 -0.2512  0.4283  1.0506
   39MOL0     O 5040   2.696   7.264   9.031 -0.1828 -0.5842  0.9209
   39MOL0     C 5041   2.603   7.191   9.099 -0.8005  0.1980 -0.4402
   39MOL0     C 5042   2.500   7.253   9.173 -0.8188 -0.2869  0.4787
   39MOL0     C 5043   2.413   7.180   9.247  0.1785 -0.2971  0.0285
   39MOL0     C 5044   2.406   7.040   9.226  0.2468 -0.1298 -1.2006
   39MOL0     C 5045   2.303   6.960   9.292 -0.1536  0.7122  0.9854
   39MOL0     O 5046   2.213   7.020   9.369  0.1287 -0.1741  0.4192
   39MOL0     C 5047   2.140   6.946   9.452 -0.2422 -0.0288  0.3413
   39MOL0     C 5048   2.207   6.877   9.548  0.2419  0.1465 -0.4496
   39MOL0     C 5049   2.141   6.792   9.639 -0.9148 -0.2036  1.3019
   39MOL0     C 5050   2.003   6.766   9.624  0.2139  0.1491  0.5321
   39MOL0     O 5051   1.940   6.673   9.699  0.2507 -0.1271  0.0823
   39MOL0     C 5052   2.007   6.576   9.786 -0.5569  0.3217 -0.2655
   39MOL0     C 5053   1.921   6.453   9.803 -0.0269 -0.0299  0.1157
   39MOL0     C 5054   1.810   6.466   9.895  0.6235 -0.4942 -0.6588
   39MOL0     C 5055   1.721   6.341   9.894  0.2623  0.6225  0.6531
   39MOL0     C 5056   1.593   6.352   9.975  0.2563 -0.2632  0.0945
   39MOL0     C 5057   1.532   6.213  10.005 -0.7176  0.0454  0.3623
   39MOL0     C 5058   1.396   6.221  10.082  0.3809  0.3357  0.6236
   39MOL0     C 5059   1.365   6.100  10.169 -0.6319  0.4267 -0.7810
   39MOL0    Cl 5060   1.496   6.057  10.282 -0.3330 -0.4819 -0.2643
   39MOL0     C 5061   1.933   6.836   9.526 -0.8827  0.3249 -0.3042
   39MOL0     C 5062   1.997   6.938   9.456 -0.2402  0.0490  0.7059
   39MOL0     O 5063   2.308   6.839   9.268 -0.4862  0.2890 -0.2186
   39MOL0     C 5064   2.510   6.971   9.158  0.2154 -0.2143  0.3717
   39MOL0     C 5065   2.609   7.050   9.092 -0.0940  0.0080  0.2477
   39MOL0     N 5066   3.153   7.422   8.745 -0.1305 -0.2236  0.4253
   39MOL0     N 5067   3.214   7.470   8.844  0.4606  0.4358  0.0078
   39MOL0     C 5068   3.973   7.891   9.641 -0.6582 -0.1665 -1.1667
   39MOL0     C 5069   4.094   7.958   9.654 -0.5055  0.1704 -0.4135
   39MOL0     C 5070   4.376   8.268   9.725 -0.3294  0.1907 -0.3511
   39MOL0     C 5071   4.384   8.377   9.810  0.3912 -0.2607 -0.1730
   39MOL0     C 5072   4.505   8.424   9.848  0.8298 -0.3107 -0.0343
   39MOL0     C 5073   4.620   8.378   9.802 -0.2143  0.8847 -0.3667
   39MOL0     O 5074   4.739   8.443   9.847 -0.3744 -0.6125  0.3547
   39MOL0     C 5075   4.860   8.396   9.783  0.3707 -0.4291  0.2692
   39MOL0     C 5076   4.987   8.462   9.839  0.9084  0.5021  0.6153
   39MOL0     C 5077   4.953   8.607   9.854  0.5688 -0.3665 -0.0414
   39MOL0     C 5078   5.086   8.683   9.887 -0.0620 -0.1047  0.9285
   39MOL0     C 5079   5.177   8.688   9.775 -0.1518  0.0995  0.2805
   39MOL0     C 5080   5.264   8.684   9.687  0.3282 -0.5711  0.4189
   39MOL0     C 5081   4.617   8.271   9.715  0.2584 -0.3545  0.1389
   39MOL0     C 5082   4.490   8.216   9.670  0.0783  0.0460  0.0101
   39MOL0     H 5083   4.074   8.152   9.375  0.8916 -1.3551 -0.1680
   39MOL0     H 5084   3.853   8.055   9.373  1.6855 -0.9012 -2.7582
   39MOL0     H 5085   3.759   7.741   9.696  0.9702  2.3286 -0.1319
   39MOL0     H 5086   3.791   7.664   9.542 -1.2555 -0.4709  0.0403
   39MOL0     H 5087   3.530   7.771   9.640  3.3606  1.6572  2.1549
   39MOL0     H 5088   3.587   7.601   9.622 -3.9650 -0.1687 -0.2649
   39MOL0     H 5089   3.631   7.659   9.370 -1.1364 -0.4340  0.3699
   39MOL0     H 5090   3.526   7.797   9.384  2.9388  1.2555 -0.2075
   39MOL0     H 5091   3.469   7.507   9.434  1.4307  1.1947  0.3829
   39MOL0     H 5092   3.357   7.631   9.498  1.1263  2.7586  1.2901
   39MOL0     H 5093   3.431   7.591   9.209  1.0376 -2.5137  2.1770
   39MOL0     H 5094   3.326   7.721   9.267 -0.1521  0.1175  1.0948
   39MOL0     H 5095   3.153   7.573   9.341  1.2668 -0.7692  2.5672
   39MOL0     H 5096   3.254   7.433   9.320  1.0191  1.0260  0.4268
   39MOL0     H 5097   3.091   7.492   9.120  1.2617 -1.3519 -2.6931
   39MOL0     H 5098   3.220   7.602   9.073  0.2698  1.0756  0.4174
   39MOL0     H 5099   3.253   7.315   9.151  1.4045  1.9583  2.4129
   39MOL0     H 5100   3.375   7.404   9.061  0.4138 -0.5077 -0.2571
   39MOL0     H 5101   3.109   7.173   8.947 -2.5508  0.1666 -1.0170
   39MOL0     H 5102   2.983   7.124   8.736  1.4431 -0.3502 -0.9152
   39MOL0     H 5103   3.048   7.223   8.595  2.2777  1.1508  0.8427
   39MOL0     H 5104   2.803   7.224   8.630  0.7011 -1.5516  1.4878
   39MOL0     H 5105   2.879   7.393   8.649 -1.5105  2.1775  3.1482
   39MOL0     H 5106   2.836   7.420   8.860  1.2193 -1.8301  2.1440
   39MOL0     H 5107   2.694   7.354   8.794  0.2397 -0.3395 -1.2124
   39MOL0     H 5108   2.874   7.203   8.991 -0.1951 -1.7495  0.7628
   39MOL0     H 5109   2.753   7.118   8.880 -1.7938 -0.9877  4.5010
   39MOL0     H 5110   2.487   7.360   9.187 -0.3876 -0.1892  0.1488
   39MOL0     H 5111   2.342   7.230   9.311  1.0186  1.4527 -0.3592
   39MOL0     H 5112   2.314   6.896   9.549  0.0325  1.3861  0.0997
   39MOL0     H 5113   2.184   6.754   9.731  1.3317  0.9517  0.7884
   39MOL0     H 5114   2.043   6.619   9.880  1.2343 -1.3142 -0.1239
   39MOL0     H 5115   2.092   6.551   9.722  1.1127 -2.6541  2.7631
   39MOL0     H 5116   1.985   6.370   9.834  0.6065  0.5993  0.5228
   39MOL0     H 5117   1.871   6.428   9.709 -1.6834 -0.7971  1.1402
   39MOL0     H 5118   1.750   6.555   9.873  1.2016  0.6857  2.1204
   39MOL0     H 5119   1.848   6.480   9.997 -1.5666 -3.6057  0.7419
   39MOL0     H 5120   1.709   6.311   9.790  3.4352 -0.4129  0.4601
   39MOL0     H 5121   1.779   6.258   9.937  3.2406  3.1461  1.9055
   39MOL0     H 5122   1.532   6.422   9.917  0.4780 -0.2923 -0.1701
   39MOL0     H 5123   1.613   6.397  10.073  0.5505  0.3317 -0.2362
   39MOL0     H 5124   1.608   6.156  10.059  0.2213  0.2423 -0.7065
   39MOL0     H 5125   1.517   6.168   9.906 -1.5205 -0.4489  0.7027
   39MOL0     H 5126   1.392   6.304  10.153 -0.0525  0.4973  0.4078
   39MOL0     H 5127   1.311   6.238  10.016  1.3419  2.0406 -0.2391
   39MOL0     H 5128   1.354   6.014  10.102  0.0799 -2.3767  2.4031
   39MOL0     H 5129   1.264   6.104  10.211 -0.7191 -0.8320 -0.8199
   39MOL0     H 5130   1.825   6.827   9.516 -0.9591  0.2256  0.5703
   39MOL0     H 5131   1.933   6.985   9.382  0.1996 -1.0860 -0.4389
   39MOL0     H 5132   2.518   6.863   9.153  1.9201 -0.2294  2.3906
   39MOL0     H 5133   2.697   7.004   9.049 -0.2637 -1.0078  0.9170
   39MOL0     H 5134   3.961   7.810   9.713 -1.4329  1.3795  0.5319
   39MOL0     H 5135   4.156   7.931   9.739 -0.8263 -3.3181 -1.1115
   39MOL0     H 5136   4.291   8.415   9.849  0.2804 -1.5794  0.9352
   39MOL0     H 5137   4.509   8.497   9.928 -1.6927 -0.4205  0.2489
   39MOL0     H 5138   4.845   8.418   9.677 -0.8225 -1.8360  0.1196
   39MOL0     H 5139   4.871   8.289   9.800 -1.6060 -0.6802  0.2481
   39MOL0     H 5140   5.010   8.422   9.938 -1.2280 -1.4294  0.4135
   39MOL0     H 5141   5.070   8.445   9.771 -0.7066 -1.9456 -0.9275
   39MOL0     H 5142   4.890   8.623   9.941 -0.8414  2.7224 -1.4667
   39MOL0     H 5143   4.908   8.662   9.771  1.0153  2.7516  1.6582
   39MOL0     H 5144   5.069   8.791   9.900 -1.1306  0.2260 -2.2067
   39MOL0     H 5145   5.131   8.650   9.981  0.5523  0.3009  0.7863
   39MOL0     H 5146   5.337   8.662   9.611  1.1372 -0.8760  1.2626
   39MOL0     H 5147   4.709   8.223   9.685  1.3979  2.0026 -0.3498
   39MOL0     H 5148   4.484   8.129   9.605 -1.9329 -0.4417  0.7875
   40MOL0     O 5149   5.568   7.514   7.713  0.6559  0.4914  0.5948
   40MOL0     C 5150   5.608   7.575   7.815  0.4478  0.0302 -0.6442
   40MOL0     O 5151   5.539   7.668   7.878 -0.0548 -0.1289 -0.1717
   40MOL0     C 5152   5.414   7.707   7.831 -0.2056 -0.1649 -0.3690
   40MOL0     C 5153   5.308   7.651   7.904  0.3578  0.3291 -0.2850
   40MOL0     C 5154   5.175   7.688   7.884 -0.0069  0.3692  1.0180
   40MOL0     C 5155   5.148   7.774   7.781 -0.8418  0.2947  0.6629
   40MOL0     O 5156   5.019   7.805   7.772  0.1027 -1.1317  1.2576
   40MOL0     C 5157   4.961   7.829   7.643  0.6362  0.7104  0.7889
   40MOL0     C 5158   4.808   7.816   7.631  0.2720  0.7977  0.2805
   40MOL0     C 5159   4.726   7.927   7.696 -0.1734 -0.1155  1.0465
   40MOL0     C 5160   4.580   7.932   7.650 -0.4915  0.0992 -0.2013
   40MOL0     C 5161   4.547   7.996   7.511  0.7566 -0.0197  0.4533
   40MOL0     C 5162   4.444   7.904   7.440  0.1588  0.3556  0.6920
   40MOL0     C 5163   4.520   7.783   7.368 -0.1701 -0.7116 -0.2301
   40MOL0     C 5164   4.552   7.814   7.229  0.0658  0.5384  1.1694
   40MOL0     N 5165   4.444   7.817   7.128  0.5561  0.1216  0.3024
   40MOL0     C 5166   4.302   7.827   7.152 -0.2331  0.9504 -0.4154
   40MOL0     C 5167   4.240   7.798   7.043 -0.7685  0.5219  0.0330
   40MOL0     C 5168   4.090   7.814   7.028 -0.0008  0.8089  0.2270
   40MOL0     C 5169   4.032   7.678   7.075  1.3800  0.6952  0.5999
   40MOL0     C 5170   3.878   7.679   7.096  0.7143  0.2542  0.6909
   40MOL0     C 5171   3.831   7.544   7.153 -0.0469  0.3280  0.3900
   40MOL0     O 5172   3.704   7.571   7.197 -0.0496  0.5392  0.1858
   40MOL0     C 5173   3.595   7.554   7.115 -0.1808  0.0314 -0.3724
   40MOL0     C 5174   3.579   7.439   7.031  0.1731  0.6955  0.3186
   40MOL0     C 5175   3.461   7.429   6.959  0.6144 -0.3579 -0.1022
   40MOL0     C 5176   3.370   7.531   6.956  0.4045  0.1402  0.0976
   40MOL0     C 5177   3.254   7.530   6.872  0.5842 -0.2712  0.0035
   40MOL0     O 5178   3.235   7.417   6.804 -0.8759  0.2266 -0.0537
   40MOL0     C 5179   3.132   7.404   6.720  0.5533  0.2383  0.3739
   40MOL0     C 5180   3.168   7.382   6.586  1.1786 -0.9112 -0.9272
   40MOL0     C 5181   3.061   7.365   6.499  0.6825  0.6992 -0.9635
   40MOL0     C 5182   2.928   7.369   6.534  0.0826 -0.0728 -0.6486
   40MOL0     O 5183   2.838   7.362   6.432 -0.0150  0.7327 -0.3128
   40MOL0     C 5184   2.755   7.247   6.433  1.0905  0.4174 -0.6335
   40MOL0     C 5185   2.616   7.302   6.471  0.3983  0.8971  0.2542
   40MOL0     C 5186   2.506   7.197   6.480 -0.5299 -0.2090  0.1913
   40MOL0     C 5187   2.364   7.261   6.508 -0.3359  0.3778 -0.2182
   40MOL0     C 5188   2.235   7.190   6.482  0.3365 -0.0646 -0.2711
   40MOL0     C 5189   2.119   7.284   6.504 -0.9029  0.5134  0.3623
   40MOL0     C 5190   1.990   7.222   6.444  0.5120  0.4880 -1.0880
   40MOL0     C 5191   1.872   7.310   6.451  1.3521  1.1585  0.0230
   40MOL0    Cl 5192   1.883   7.432   6.330 -0.2298 -0.1308  0.3497
   40MOL0     C 5193   2.894   7.397   6.667  0.2290  0.3935 -0.3633
   40MOL0     C 5194   2.995   7.412   6.757  0.0588  0.1028  0.7555
   40MOL0     O 5195   3.183   7.630   6.862  0.0993  0.0840 -0.0566
   40MOL0     C 5196   3.392   7.650   7.025 -0.1207 -0.5570 -1.1447
   40MOL0     C 5197   3.504   7.658   7.106 -0.5010 -0.3436 -0.2587
   40MOL0     N 5198   4.335   7.753   6.957  0.2898  1.0100  0.3049
   40MOL0     N 5199   4.452   7.764   7.005  0.0991 -0.2376  0.3244
   40MOL0     C 5200   5.253   7.820   7.696  0.2613  0.0522 -0.1293
   40MOL0     C 5201   5.384   7.789   7.721 -0.9595 -0.1930 -0.3152
   40MOL0     C 5202   5.739   7.533   7.866 -0.0561 -0.5762 -0.8371
   40MOL0     C 5203   5.792   7.607   7.971  0.7517  0.5140 -0.9465
   40MOL0     C 5204   5.921   7.578   8.011  1.1325 -0.2143  0.9440
   40MOL0     C 5205   5.995   7.460   7.968 -0.5089  0.5023 -0.3487
   40MOL0     O 5206   6.118   7.420   8.017  0.1830 -0.1615  0.6363
   40MOL0     C 5207   6.191   7.523   8.083  0.0684  0.4943  0.2030
   40MOL0     C 5208   6.320   7.457   8.112 -0.7112  0.4064  0.2464
   40MOL0     C 5209   6.422   7.537   8.195  0.2516 -0.5125  0.9529
   40MOL0     C 5210   6.559   7.464   8.197 -1.1284 -0.4538  0.2147
   40MOL0     C 5211   6.656   7.538   8.283  0.3249 -0.3636 -0.1223
   40MOL0     C 5212   6.753   7.592   8.335  0.2691  0.0206  0.2184
   40MOL0     C 5213   5.934   7.385   7.857 -0.1334 -0.6536 -1.1470
   40MOL0     C 5214   5.806   7.425   7.814  0.8207 -0.6339  0.2531
   40MOL0     H 5215   5.325   7.592   7.993  1.1309  2.1775  0.8423
   40MOL0     H 5216   5.095   7.661   7.951 -0.4775  3.3991  1.8073
   40MOL0     H 5217   5.003   7.760   7.569  0.9076 -1.4024  2.7784
   40MOL0     H 5218   4.986   7.932   7.618 -0.0119  0.4627 -0.9916
   40MOL0     H 5219   4.783   7.715   7.665  0.8558  0.2799 -0.7659
   40MOL0     H 5220   4.779   7.814   7.525 -0.7743  0.7565  0.5588
   40MOL0     H 5221   4.768   8.025   7.671  2.2537 -0.6092  2.7045
   40MOL0     H 5222   4.728   7.913   7.805  0.0267  1.5896  1.2985
   40MOL0     H 5223   4.539   7.831   7.664  0.9376 -0.4125  0.5532
   40MOL0     H 5224   4.532   8.008   7.712 -1.9966  1.2338 -2.5979
   40MOL0     H 5225   4.629   8.000   7.438  1.8655  0.3303  1.6790
   40MOL0     H 5226   4.506   8.096   7.527  1.3213  0.1863  0.6252
   40MOL0     H 5227   4.380   7.970   7.380  0.1572 -1.6651 -1.6891
   40MOL0     H 5228   4.374   7.868   7.516 -0.8142 -1.3048 -0.9221
   40MOL0     H 5229   4.611   7.754   7.422  0.5877 -0.8154 -1.5274
   40MOL0     H 5230   4.455   7.696   7.379  0.9608 -2.0051 -2.8598
   40MOL0     H 5231   4.636   7.749   7.201 -0.2523  0.9467 -0.8466
   40MOL0     H 5232   4.598   7.913   7.234 -0.2158  0.7201  0.2646
   40MOL0     H 5233   4.243   7.860   7.237 -1.5625 -1.2350 -0.3981
   40MOL0     H 5234   4.074   7.829   6.921 -1.2616 -0.2083  0.2556
   40MOL0     H 5235   4.050   7.893   7.093  1.1536 -0.9626  3.3260
   40MOL0     H 5236   4.085   7.651   7.166  3.4543  1.4398 -0.3419
   40MOL0     H 5237   4.048   7.600   7.000 -0.4431 -3.0248  3.7187
   40MOL0     H 5238   3.838   7.768   7.145 -2.3354  0.3435 -1.6222
   40MOL0     H 5239   3.853   7.689   6.990  0.9104 -1.1958  0.4887
   40MOL0     H 5240   3.900   7.519   7.235  1.1249 -1.4489 -1.0667
   40MOL0     H 5241   3.846   7.464   7.080 -2.4093 -1.6014  1.8609
   40MOL0     H 5242   3.651   7.359   7.016  0.3087  0.8350  0.2167
   40MOL0     H 5243   3.449   7.344   6.893 -3.3846 -0.5697  0.6548
   40MOL0     H 5244   3.273   7.370   6.559  1.9431  0.7516  1.0573
   40MOL0     H 5245   3.083   7.332   6.398  2.0330 -1.4824 -0.0251
   40MOL0     H 5246   2.778   7.178   6.515  1.3329  1.2725  0.0283
   40MOL0     H 5247   2.762   7.197   6.336  1.4490  2.3190 -1.6256
   40MOL0     H 5248   2.597   7.377   6.394  0.9935 -1.7352 -2.6624
   40MOL0     H 5249   2.622   7.355   6.567  2.4871 -1.2286  1.3911
   40MOL0     H 5250   2.516   7.125   6.562  2.1587 -0.6920 -0.4662
   40MOL0     H 5251   2.503   7.130   6.394  0.9166  0.8431 -0.7152
   40MOL0     H 5252   2.367   7.276   6.616 -0.2396 -0.0021 -0.1675
   40MOL0     H 5253   2.345   7.355   6.455 -0.5953 -0.4223 -1.5990
   40MOL0     H 5254   2.219   7.104   6.548 -0.0389 -0.2387 -0.5810
   40MOL0     H 5255   2.226   7.164   6.376 -1.2777 -2.2793  0.3322
   40MOL0     H 5256   2.140   7.378   6.453  1.7156 -0.8270 -1.2887
   40MOL0     H 5257   2.110   7.309   6.610 -0.9565  1.2679  0.1848
   40MOL0     H 5258   2.007   7.185   6.342  1.3040 -1.2314 -0.3674
   40MOL0     H 5259   1.968   7.136   6.509 -0.8101  0.4506 -1.5634
   40MOL0     H 5260   1.856   7.363   6.545 -1.6772  1.7149 -0.6969
   40MOL0     H 5261   1.780   7.250   6.445  1.4887  0.8833  0.5872
   40MOL0     H 5262   2.795   7.417   6.707  0.2658 -0.8907  0.3879
   40MOL0     H 5263   2.971   7.432   6.861  1.2117  1.1595  0.8422
   40MOL0     H 5264   3.317   7.728   7.016  2.4848  2.3106  0.2919
   40MOL0     H 5265   3.532   7.747   7.161 -0.5986 -0.4250 -0.0747
   40MOL0     H 5266   5.229   7.894   7.621  1.4147  1.5899  0.9591
   40MOL0     H 5267   5.464   7.826   7.658 -1.1826  0.0967 -0.4335
   40MOL0     H 5268   5.752   7.694   8.020  0.9194 -0.0243  0.1701
   40MOL0     H 5269   5.964   7.651   8.080 -1.0601  3.0916 -0.9222
   40MOL0     H 5270   6.148   7.557   8.178  1.7024 -1.0443  1.5570
   40MOL0     H 5271   6.213   7.615   8.028  1.7492  1.6007  2.5327
   40MOL0     H 5272   6.300   7.365   8.168  0.5956 -1.0611 -1.5843
   40MOL0     H 5273   6.363   7.422   8.018 -2.8040 -0.8668 -0.3172
   40MOL0     H 5274   6.386   7.547   8.297  0.0748  0.4032  0.8051
   40MOL0     H 5275   6.427   7.631   8.140 -2.4504  0.6545  2.5187
   40MOL0     H 5276   6.545   7.360   8.229 -0.3575 -0.7109 -0.2644
   40MOL0     H 5277   6.606   7.465   8.098  0.8603 -0.2808  1.1236
   40MOL0     H 5278   6.838   7.640   8.378 -0.3244  2.1401 -0.7993
   40MOL0     H 5279   5.965   7.296   7.804  0.1293 -0.2557 -1.6648
   40MOL0     H 5280   5.760   7.362   7.738 -0.4522 -0.4608  0.8410
   41MOL0     O 5281   9.542   6.051   2.430 -0.1206  0.3079  0.5424
   41MOL0     C 5282   9.500   5.970   2.343 -0.2123  0.2334 -0.3558
   41MOL0     O 5283   9.373   5.947   2.307  0.0436 -0.4188 -0.0016
   41MOL0     C 5284   9.262   5.998   2.371  0.3295  0.2140 -0.4579
   41MOL0     C 5285   9.137   5.972   2.311  0.6121  0.9447 -0.7883
   41MOL0     C 5286   9.018   6.025   2.362 -0.5635  0.1035  0.4824
   41MOL0     C 5287   9.011   6.090   2.482  0.8257  0.5074  0.6941
   41MOL0     O 5288   8.892   6.148   2.525 -0.4368  0.0343 -0.5276
   41MOL0     C 5289   8.772   6.141   2.449  0.1192 -1.2122  0.4555
   41MOL0     C 5290   8.664   6.214   2.525 -0.3044 -0.2847 -0.2619
   41MOL0     C 5291   8.617   6.131   2.649 -0.1149  0.7991  0.1253
   41MOL0     C 5292   8.504   6.213   2.715  0.6190 -0.0294 -0.7868
   41MOL0     C 5293   8.446   6.126   2.827  0.2202  0.6902  0.5476
   41MOL0     C 5294   8.345   6.196   2.915 -0.3024 -0.7763  0.7090
   41MOL0     C 5295   8.280   6.114   3.019  0.3996  0.8118  0.1557
   41MOL0     C 5296   8.174   6.187   3.099 -0.5933 -0.4149  0.3289
   41MOL0     N 5297   8.037   6.200   3.035  0.1337 -0.4471  0.1353
   41MOL0     C 5298   7.952   6.098   3.063  1.3997 -0.3987  1.1046
   41MOL0     C 5299   7.831   6.145   3.019 -0.5932 -0.1774  0.0102
   41MOL0     C 5300   7.701   6.076   2.998  0.8519 -0.3118  0.1607
   41MOL0     C 5301   7.591   6.082   3.103  0.1483 -0.8508 -1.0480
   41MOL0     C 5302   7.538   6.228   3.096  0.6496 -0.2625 -0.0143
   41MOL0     C 5303   7.440   6.248   3.208 -0.2911  0.2300  0.8103
   41MOL0     O 5304   7.315   6.181   3.173 -0.9646  0.0386  0.1132
   41MOL0     C 5305   7.211   6.201   3.256 -0.0320 -0.5680  0.0088
   41MOL0     C 5306   7.081   6.190   3.208 -0.4589 -0.6326  0.2273
   41MOL0     C 5307   6.972   6.214   3.289 -0.9490 -0.0663  0.5399
   41MOL0     C 5308   6.990   6.253   3.419  0.6872 -0.4713 -0.3926
   41MOL0     C 5309   6.876   6.285   3.511  0.0413  0.4815 -0.5058
   41MOL0     O 5310   6.742   6.285   3.461 -0.3189  0.4363  0.1515
   41MOL0     C 5311   6.632   6.297   3.543 -0.0346 -0.5901 -0.7677
   41MOL0     C 5312   6.513   6.229   3.499  0.4792 -0.1735 -0.2037
   41MOL0     C 5313   6.385   6.257   3.545  0.2463  0.8369 -0.5385
   41MOL0     C 5314   6.377   6.340   3.661 -0.2924  0.5428  0.2524
   41MOL0     O 5315   6.266   6.387   3.719  0.5677 -0.5923  0.3300
   41MOL0     C 5316   6.151   6.306   3.689  0.0169  0.6213 -0.3269
   41MOL0     C 5317   6.049   6.339   3.799 -0.3734 -0.1171 -0.8893
   41MOL0     C 5318   5.924   6.255   3.809  0.2095 -0.2899 -0.1897
   41MOL0     C 5319   5.844   6.252   3.678 -0.1997 -0.0949 -0.4451
   41MOL0     C 5320   5.757   6.119   3.685  0.3327 -1.0596 -0.1500
   41MOL0     C 5321   5.633   6.135   3.779 -0.1782 -0.1433  0.6614
   41MOL0     C 5322   5.540   6.024   3.771  1.0430 -0.3169  0.5171
   41MOL0     C 5323   5.574   5.907   3.858  0.6865 -0.5472 -0.4815
   41MOL0    Cl 5324   5.438   5.786   3.866 -0.1547 -0.3518  0.1499
   41MOL0     C 5325   6.497   6.399   3.713  0.8515  1.0922 -0.0152
   41MOL0     C 5326   6.620   6.381   3.657  0.3573  1.0369 -1.2074
   41MOL0     O 5327   6.904   6.321   3.627 -0.0259  0.2150  0.9573
   41MOL0     C 5328   7.119   6.260   3.473  0.2675 -0.6722 -0.2182
   41MOL0     C 5329   7.226   6.222   3.398 -0.5891  0.4063  0.0764
   41MOL0     N 5330   7.849   6.281   2.979  0.3735 -0.7269 -0.1679
   41MOL0     N 5331   7.974   6.314   2.987  0.8583  0.6536 -0.3712
   41MOL0     C 5332   9.125   6.100   2.556  0.0396 -0.5678 -0.7668
   41MOL0     C 5333   9.253   6.045   2.504 -0.0585  0.5060 -0.3862
   41MOL0     C 5334   9.611   5.918   2.254 -0.0479  0.2083  0.4576
   41MOL0     C 5335   9.594   5.861   2.125  0.4669  0.5612 -0.8126
   41MOL0     C 5336   9.704   5.807   2.061 -0.2323  0.7381 -0.0370
   41MOL0     C 5337   9.834   5.803   2.118  0.0797  0.7469 -1.2825
   41MOL0     O 5338   9.950   5.749   2.057 -0.1811  0.0028 -0.3189
   41MOL0     C 5339   9.991   5.819   1.936 -0.8974  0.4263 -0.0767
   41MOL0     C 5340  10.136   5.755   1.894 -0.5385 -0.1866  0.4153
   41MOL0     C 5341  10.186   5.806   1.757  0.1080 -0.6162 -0.0694
   41MOL0     C 5342  10.310   5.729   1.728 -0.0480 -0.4324 -0.5090
   41MOL0     C 5343  10.377   5.783   1.610  0.3307  0.3546  0.1874
   41MOL0     C 5344  10.444   5.823   1.521 -0.6147 -0.0510  0.2220
   41MOL0     C 5345   9.847   5.863   2.244 -0.2346  0.1406  0.3377
   41MOL0     C 5346   9.743   5.912   2.307 -0.0244 -0.8324 -0.6437
   41MOL0     H 5347   9.124   5.917   2.218 -1.6654  1.3592 -0.7682
   41MOL0     H 5348   8.928   6.010   2.304 -0.7655  2.6094  0.0804
   41MOL0     H 5349   8.731   6.041   2.431 -2.1478 -0.7088  2.3962
   41MOL0     H 5350   8.788   6.202   2.359  2.2128 -0.1447  1.4922
   41MOL0     H 5351   8.574   6.225   2.463 -0.6684 -4.0617 -0.6287
   41MOL0     H 5352   8.706   6.307   2.563 -2.9644  0.5703  0.8441
   41MOL0     H 5353   8.701   6.116   2.717  0.8166  0.1428 -1.1293
   41MOL0     H 5354   8.591   6.028   2.623  3.7616 -0.9160  2.2337
   41MOL0     H 5355   8.542   6.294   2.778 -0.1017 -1.5334  1.7576
   41MOL0     H 5356   8.425   6.241   2.645 -0.4005 -0.9170 -0.0218
   41MOL0     H 5357   8.529   6.076   2.878  1.0241 -0.9867 -2.2225
   41MOL0     H 5358   8.393   6.050   2.769 -0.3780  0.5834  1.2182
   41MOL0     H 5359   8.262   6.234   2.855 -0.4940 -1.7065  0.3789
   41MOL0     H 5360   8.394   6.284   2.959 -1.9849 -0.2660  1.6320
   41MOL0     H 5361   8.240   6.019   2.980  1.4290  0.9163 -1.2630
   41MOL0     H 5362   8.365   6.081   3.079  2.1531  0.5219 -2.3404
   41MOL0     H 5363   8.218   6.285   3.117 -1.4992 -0.0233  0.4407
   41MOL0     H 5364   8.163   6.134   3.195 -2.6588  2.2658  1.6814
   41MOL0     H 5365   7.972   6.001   3.109 -1.0470  0.5746  4.5825
   41MOL0     H 5366   7.724   5.970   2.982 -2.8427 -1.3884  0.9623
   41MOL0     H 5367   7.657   6.114   2.905 -3.7390 -1.6234  1.5568
   41MOL0     H 5368   7.623   6.046   3.201 -1.7007 -0.6550 -0.3400
   41MOL0     H 5369   7.505   6.021   3.078  0.1860 -1.1666 -0.4237
   41MOL0     H 5370   7.618   6.303   3.100  2.9846 -2.4830 -1.7352
   41MOL0     H 5371   7.482   6.244   3.004 -0.7772 -1.1427  0.6547
   41MOL0     H 5372   7.425   6.353   3.233  0.9513  0.3244  1.2376
   41MOL0     H 5373   7.502   6.205   3.287  3.6015  2.5704 -0.6944
   41MOL0     H 5374   7.078   6.176   3.101 -1.0424 -1.7280  0.3798
   41MOL0     H 5375   6.876   6.190   3.244 -1.1113  0.7965  0.4089
   41MOL0     H 5376   6.525   6.172   3.407  1.9408  1.0951 -0.8263
   41MOL0     H 5377   6.301   6.215   3.491  2.2729 -0.7480 -2.6709
   41MOL0     H 5378   6.154   6.196   3.685  2.0391  0.3792  3.3739
   41MOL0     H 5379   6.105   6.350   3.600  0.6858  1.1906 -0.3995
   41MOL0     H 5380   6.012   6.441   3.788 -2.0357 -0.7859 -1.9855
   41MOL0     H 5381   6.106   6.329   3.892  1.7883 -0.2587 -2.1717
   41MOL0     H 5382   5.862   6.300   3.886  0.3914 -2.5496  1.3897
   41MOL0     H 5383   5.951   6.153   3.837  0.3172  0.0945  1.1434
   41MOL0     H 5384   5.793   6.347   3.663 -0.8293 -0.5475 -1.3262
   41MOL0     H 5385   5.907   6.241   3.589 -0.4504 -2.6971 -0.4000
   41MOL0     H 5386   5.817   6.031   3.707 -0.2135 -2.3992 -3.4412
   41MOL0     H 5387   5.730   6.106   3.580  0.0123 -1.0584 -0.0692
   41MOL0     H 5388   5.578   6.225   3.751 -1.5700 -0.7174  1.4291
   41MOL0     H 5389   5.676   6.152   3.878  1.2336 -0.3591  0.1051
   41MOL0     H 5390   5.445   6.065   3.808  0.3763  0.2049 -1.6400
   41MOL0     H 5391   5.522   5.984   3.671 -3.1149 -1.3061  1.4423
   41MOL0     H 5392   5.583   5.951   3.958 -2.6664  0.0351 -0.3141
   41MOL0     H 5393   5.668   5.855   3.835 -0.0717 -2.8881  1.2495
   41MOL0     H 5394   6.497   6.461   3.802  2.8740  3.1432 -1.3432
   41MOL0     H 5395   6.703   6.445   3.687 -1.3591  2.6810  0.3245
   41MOL0     H 5396   7.134   6.286   3.577  0.3932 -1.5617 -0.0116
   41MOL0     H 5397   7.320   6.222   3.452 -0.6343 -1.0463  0.1906
   41MOL0     H 5398   9.126   6.160   2.647  1.6975  1.2471 -1.8772
   41MOL0     H 5399   9.337   6.059   2.573 -2.1305  4.5563  1.7147
   41MOL0     H 5400   9.493   5.858   2.086 -0.4288  2.6862  1.1248
   41MOL0     H 5401   9.701   5.756   1.965  3.7891 -1.4630  0.8204
   41MOL0     H 5402  10.000   5.928   1.949  3.8410  0.2837 -0.3571
   41MOL0     H 5403   9.916   5.800   1.858 -1.1897 -1.4702  0.6206
   41MOL0     H 5404  10.208   5.792   1.967 -0.0963 -0.3580  0.0738
   41MOL0     H 5405  10.127   5.646   1.899 -2.6509  0.0027  1.8049
   41MOL0     H 5406  10.207   5.913   1.770 -1.4835 -0.6637  5.0273
   41MOL0     H 5407  10.113   5.792   1.676 -1.1974 -0.1590  1.0020
   41MOL0     H 5408  10.380   5.733   1.811 -0.1039  0.8400 -0.5044
   41MOL0     H 5409  10.291   5.623   1.711 -0.2865 -0.2567 -1.4028
   41MOL0     H 5410  10.513   5.869   1.453  1.4052 -0.9150  1.5972
   41MOL0     H 5411   9.946   5.857   2.288 -0.1696  0.0402  0.1777
   41MOL0     H 5412   9.761   5.942   2.409 -0.5507  0.9343 -1.0364
   42MOL0     O 5413  10.682   4.110   7.729 -0.8699  0.1435 -0.3187
   42MOL0     C 5414  10.762   4.159   7.813 -0.8782  0.2527 -0.1133
   42MOL0     O 5415  10.741   4.257   7.897  0.8741 -0.2870  0.1335
   42MOL0     C 5416  10.612   4.318   7.889 -0.7387 -0.5965 -0.7880
   42MOL0     C 5417  10.561   4.375   7.776  0.0158 -0.0424  0.3635
   42MOL0     C 5418  10.432   4.437   7.777  0.7705 -0.8569  1.0717
   42MOL0     C 5419  10.353   4.461   7.891 -0.1631  0.0908  0.9112
   42MOL0     O 5420  10.233   4.520   7.899 -0.1648  0.1739  0.0277
   42MOL0     C 5421  10.178   4.560   7.775  0.2406 -0.2535  0.4237
   42MOL0     C 5422  10.039   4.626   7.802 -0.4409 -0.6708  0.0613
   42MOL0     C 5423   9.951   4.618   7.677 -0.0646  0.0731 -0.0802
   42MOL0     C 5424   9.822   4.702   7.712 -0.0102 -0.3142  0.0909
   42MOL0     C 5425   9.709   4.684   7.616  0.1813 -0.5646 -0.3303
   42MOL0     C 5426   9.587   4.777   7.646  0.8658  0.0489  1.1058
   42MOL0     C 5427   9.512   4.738   7.776  0.4453  0.6348  0.0102
   42MOL0     C 5428   9.378   4.818   7.791 -0.6351  0.1817 -0.4759
   42MOL0     N 5429   9.282   4.764   7.884  0.0031 -0.7205 -0.0518
   42MOL0     C 5430   9.225   4.836   7.990  0.6567 -0.3972  0.5226
   42MOL0     C 5431   9.140   4.750   8.041  0.4396 -0.3127 -1.5442
   42MOL0     C 5432   9.048   4.769   8.162 -0.8217  0.1508 -0.9175
   42MOL0     C 5433   8.977   4.640   8.204 -0.5681 -0.6143  0.0314
   42MOL0     C 5434   8.882   4.668   8.326 -0.8759  0.1571 -0.2472
   42MOL0     C 5435   8.785   4.779   8.301  0.4546  0.5080  0.3953
   42MOL0     O 5436   8.706   4.788   8.416 -0.2502  0.3640 -0.3738
   42MOL0     C 5437   8.572   4.779   8.393  0.0263 -0.2795  0.0462
   42MOL0     C 5438   8.486   4.676   8.454  0.4841 -0.1811  0.5569
   42MOL0     C 5439   8.354   4.680   8.426  0.3340  0.3395 -0.5927
   42MOL0     C 5440   8.289   4.781   8.356 -0.6599 -0.9628 -0.1518
   42MOL0     C 5441   8.148   4.776   8.340 -0.8554  0.0435 -0.0343
   42MOL0     O 5442   8.068   4.881   8.349 -0.1273  0.2323  0.0791
   42MOL0     C 5443   7.940   4.866   8.300 -0.0138  0.0289  0.2370
   42MOL0     C 5444   7.842   4.938   8.366  0.6471  0.6077 -0.1866
   42MOL0     C 5445   7.715   4.946   8.304 -0.0458  0.5786  0.9510
   42MOL0     C 5446   7.678   4.878   8.190 -0.0988 -0.5886  0.4347
   42MOL0     O 5447   7.545   4.884   8.143 -0.7075  0.6817  0.0201
   42MOL0     C 5448   7.500   4.791   8.044  0.4054  0.2250  1.0193
   42MOL0     C 5449   7.348   4.798   8.020  0.2077  0.9221  0.3679
   42MOL0     C 5450   7.304   4.680   7.925  0.5100 -0.2730  0.8093
   42MOL0     C 5451   7.150   4.663   7.921 -0.2335 -0.3583  0.6451
   42MOL0     C 5452   7.089   4.726   7.789 -0.5433  0.4616  0.2067
   42MOL0     C 5453   6.952   4.773   7.793 -1.2043 -0.0407  0.1544
   42MOL0     C 5454   6.903   4.833   7.662  0.8808 -0.4405  0.6743
   42MOL0     C 5455   6.778   4.750   7.622 -1.0430 -0.5691  0.0783
   42MOL0    Cl 5456   6.655   4.784   7.751 -0.3266 -0.5724 -0.2117
   42MOL0     C 5457   7.784   4.814   8.123  0.3621  0.2029  0.5204
   42MOL0     C 5458   7.906   4.803   8.174 -0.8807 -0.2495 -0.4340
   42MOL0     O 5459   8.108   4.659   8.343 -0.1401  0.7337 -0.4170
   42MOL0     C 5460   8.367   4.878   8.304 -0.2471 -1.4361  0.7776
   42MOL0     C 5461   8.507   4.876   8.312 -0.8210  0.4996  0.8082
   42MOL0     N 5462   9.141   4.632   7.973  0.5544 -0.4044 -0.6436
   42MOL0     N 5463   9.214   4.644   7.866  0.4146  0.4944 -0.2712
   42MOL0     C 5464  10.407   4.403   8.009 -1.6022  0.1335 -0.3570
   42MOL0     C 5465  10.536   4.340   8.008 -0.0992 -0.2236 -0.8462
   42MOL0     C 5466  10.894   4.087   7.814  0.0884  0.1118  0.1662
   42MOL0     C 5467  10.926   4.008   7.703 -0.7060 -0.7289 -1.1804
   42MOL0     C 5468  11.055   3.955   7.698  0.4934  0.4474 -1.2173
   42MOL0     C 5469  11.153   3.982   7.793 -0.2785  0.0757  0.2254
   42MOL0     O 5470  11.275   3.922   7.776  0.3646 -0.2595  0.4393
   42MOL0     C 5471  11.392   3.970   7.837 -1.0866 -0.1476  0.1785
   42MOL0     C 5472  11.499   3.855   7.847  0.3287 -0.5208  0.6867
   42MOL0     C 5473  11.506   3.767   7.718 -0.5112  0.0677 -0.3429
   42MOL0     C 5474  11.599   3.643   7.738 -0.3702  0.2800 -0.4065
   42MOL0     C 5475  11.743   3.663   7.742 -0.4391 -0.2812  0.3821
   42MOL0     C 5476  11.864   3.674   7.741 -0.4546  0.3019  0.0632
   42MOL0     C 5477  11.124   4.074   7.899  0.1370  0.7095  0.8169
   42MOL0     C 5478  10.982   4.107   7.915  0.2475  0.0735 -0.3010
   42MOL0     H 5479  10.607   4.372   7.678 -0.8743  0.4403 -0.0849
   42MOL0     H 5480  10.394   4.469   7.680  1.2462 -2.0963  0.4511
   42MOL0     H 5481  10.166   4.467   7.718 -0.8005 -0.2378  0.6044
   42MOL0     H 5482  10.237   4.617   7.702 -2.4784 -0.8230 -2.4300
   42MOL0     H 5483  10.066   4.731   7.817  0.6227 -1.1511  1.8424
   42MOL0     H 5484   9.989   4.589   7.892 -1.4866  0.1231 -0.1805
   42MOL0     H 5485   9.919   4.516   7.656  0.6281 -0.6915  2.2851
   42MOL0     H 5486  10.007   4.673   7.600 -0.1896  0.9995  0.4704
   42MOL0     H 5487   9.775   4.660   7.801 -2.8959  4.4864  1.1524
   42MOL0     H 5488   9.852   4.805   7.734  1.0715  0.2418 -3.3631
   42MOL0     H 5489   9.670   4.583   7.627  2.7433 -1.9385 -2.7217
   42MOL0     H 5490   9.742   4.707   7.515 -1.7682 -3.1279 -1.6532
   42MOL0     H 5491   9.532   4.778   7.551  1.5071  1.6508  0.7042
   42MOL0     H 5492   9.630   4.873   7.677  1.9250 -0.5363  1.4912
   42MOL0     H 5493   9.489   4.631   7.764  2.7090  0.1848 -0.9513
   42MOL0     H 5494   9.572   4.740   7.868 -0.0102  0.6502  0.3115
   42MOL0     H 5495   9.336   4.824   7.690 -0.8199 -0.5707 -0.4524
   42MOL0     H 5496   9.399   4.922   7.818  1.9330  0.0639 -1.6396
   42MOL0     H 5497   9.235   4.940   8.020  1.6062 -0.1526 -0.5904
   42MOL0     H 5498   8.973   4.842   8.131 -2.7368 -1.4660 -0.3494
   42MOL0     H 5499   9.114   4.801   8.243  2.4020 -4.6714 -1.2190
   42MOL0     H 5500   9.048   4.567   8.244 -0.3931  0.1025  1.0731
   42MOL0     H 5501   8.925   4.609   8.113 -1.4644  3.6828 -1.1668
   42MOL0     H 5502   8.826   4.575   8.344 -2.3299  1.2694  1.3213
   42MOL0     H 5503   8.935   4.691   8.419 -3.6408 -0.8003  1.7124
   42MOL0     H 5504   8.724   4.763   8.211 -0.9576  0.1883  1.3630
   42MOL0     H 5505   8.831   4.877   8.286  0.3519  0.2116 -2.2791
   42MOL0     H 5506   8.524   4.596   8.515  0.1982 -0.4606  0.3751
   42MOL0     H 5507   8.310   4.590   8.465 -0.0146 -0.5809 -2.9204
   42MOL0     H 5508   7.866   4.998   8.454  0.5622  2.0746 -1.1199
   42MOL0     H 5509   7.632   5.001   8.349 -0.5046  1.5712 -0.9874
   42MOL0     H 5510   7.519   4.686   8.070  0.6330  0.4468  1.7895
   42MOL0     H 5511   7.547   4.810   7.947 -3.4778  0.8074 -0.9418
   42MOL0     H 5512   7.310   4.887   7.968  1.1341 -0.1536 -2.3834
   42MOL0     H 5513   7.290   4.804   8.112 -1.2364  2.4775 -0.5791
   42MOL0     H 5514   7.355   4.588   7.956  0.8664 -1.1978 -2.1551
   42MOL0     H 5515   7.336   4.692   7.821  2.9875  0.5948  1.6165
   42MOL0     H 5516   7.135   4.554   7.924  0.9408 -0.6413 -1.5713
   42MOL0     H 5517   7.112   4.712   8.010  0.9792  3.4408 -0.7200
   42MOL0     H 5518   7.096   4.653   7.708  1.7522 -0.5563  1.2471
   42MOL0     H 5519   7.159   4.803   7.757 -1.3941  0.2014 -2.5997
   42MOL0     H 5520   6.934   4.846   7.873  1.7986  0.8253  0.1746
   42MOL0     H 5521   6.887   4.689   7.818  0.3684 -1.6211 -0.7831
   42MOL0     H 5522   6.872   4.933   7.695 -0.9739 -0.6632 -0.2887
   42MOL0     H 5523   6.988   4.837   7.593  3.1474 -1.9508  3.1701
   42MOL0     H 5524   6.801   4.645   7.607 -0.3727 -0.2698 -1.0606
   42MOL0     H 5525   6.729   4.784   7.530  1.4227  2.9072 -0.1543
   42MOL0     H 5526   7.770   4.767   8.026 -0.8631 -0.2887  0.9135
   42MOL0     H 5527   7.983   4.748   8.121 -1.1976 -0.3819 -0.7636
   42MOL0     H 5528   8.326   4.969   8.260  2.6289 -1.0899 -1.5135
   42MOL0     H 5529   8.565   4.950   8.259  3.3134 -2.4277  0.7968
   42MOL0     H 5530  10.345   4.407   8.098 -1.8592  0.6032 -0.5562
   42MOL0     H 5531  10.594   4.298   8.090  1.6877  0.3996 -1.7312
   42MOL0     H 5532  10.860   4.002   7.617 -0.0570  4.6267 -2.3975
   42MOL0     H 5533  11.079   3.889   7.615 -0.7583 -0.7050 -0.7115
   42MOL0     H 5534  11.373   4.000   7.940  0.9029 -0.4147  0.6707
   42MOL0     H 5535  11.439   4.047   7.775 -0.9187 -0.1965  0.2428
   42MOL0     H 5536  11.597   3.894   7.876 -0.1716  1.0335  0.3975
   42MOL0     H 5537  11.472   3.790   7.932 -0.2734  2.3836  2.9070
   42MOL0     H 5538  11.542   3.826   7.634  0.2010  2.3534  1.4511
   42MOL0     H 5539  11.402   3.741   7.698 -1.8505  4.1813  0.3408
   42MOL0     H 5540  11.565   3.594   7.829  0.2184 -0.3284 -0.5038
   42MOL0     H 5541  11.573   3.580   7.652 -0.4114  2.6933 -2.2660
   42MOL0     H 5542  11.969   3.651   7.739 -1.1975 -3.9870 -0.7414
   42MOL0     H 5543  11.196   4.117   7.968 -0.8103 -1.0882  3.0355
   42MOL0     H 5544  10.938   4.160   7.999 -4.0770 -0.7143 -1.8408
   43MOL0     O 5545  10.011  11.143   2.131  0.6017 -0.5207  0.6954
   43MOL0     C 5546   9.989  11.258   2.147 -0.3157 -0.1755  0.2155
   43MOL0     O 5547  10.073  11.362   2.105  0.5665  0.2698  0.7167
   43MOL0     C 5548  10.189  11.324   2.053 -0.0420  0.3121  0.1648
   43MOL0     C 5549  10.221  11.278   1.924 -1.1309  0.6306 -0.5320
   43MOL0     C 5550  10.358  11.237   1.891  0.5858 -0.9213  0.3006
   43MOL0     C 5551  10.466  11.246   1.977 -0.1959  0.3394 -1.1749
   43MOL0     O 5552  10.592  11.197   1.954 -0.2108  0.1404 -0.1595
   43MOL0     C 5553  10.650  11.257   1.832  0.1257 -0.4365 -0.6020
   43MOL0     C 5554  10.797  11.234   1.844  0.1240  0.1232  0.3698
   43MOL0     C 5555  10.866  11.256   1.706  0.6364  0.0337  0.1269
   43MOL0     C 5556  11.016  11.247   1.709  0.4154 -0.2837 -0.5840
   43MOL0     C 5557  11.071  11.257   1.571 -0.2838 -0.3673  0.0005
   43MOL0     C 5558  11.208  11.192   1.553  0.0363 -0.1322 -1.1784
   43MOL0     C 5559  11.277  11.231   1.421  0.4954  0.6468 -0.4450
   43MOL0     C 5560  11.414  11.165   1.405  0.7077 -0.1436  0.2670
   43MOL0     N 5561  11.453  11.152   1.265  0.1269 -0.2963 -0.6483
   43MOL0     C 5562  11.531  11.248   1.204 -0.3663 -0.6191 -0.8806
   43MOL0     C 5563  11.580  11.180   1.097  0.0898 -1.5128  0.2989
   43MOL0     C 5564  11.697  11.223   1.008 -0.5062  0.2816 -0.1040
   43MOL0     C 5565  11.823  11.138   1.038  0.6775  0.0042 -0.9914
   43MOL0     C 5566  11.931  11.186   0.951  0.6010 -0.2923  0.3172
   43MOL0     C 5567  12.057  11.102   0.977 -0.0553 -0.2669  0.0590
   43MOL0     O 5568  12.152  11.126   0.878 -0.1604 -1.0887  0.1939
   43MOL0     C 5569  12.284  11.157   0.914  0.6586  0.0573 -0.1905
   43MOL0     C 5570  12.346  11.091   1.017 -0.6392  0.7567 -0.2031
   43MOL0     C 5571  12.475  11.126   1.057  0.2083  0.7445 -0.1589
   43MOL0     C 5572  12.542  11.234   0.999  0.2804  0.3219 -0.4596
   43MOL0     C 5573  12.661  11.293   1.060  0.0925  0.3355 -1.3257
   43MOL0     O 5574  12.723  11.223   1.150 -0.1186 -0.2902 -0.0658
   43MOL0     C 5575  12.857  11.233   1.168  0.0819 -0.0746 -0.7663
   43MOL0     C 5576  12.946  11.288   1.082 -0.2575  0.0797 -0.5824
   43MOL0     C 5577  13.084  11.295   1.103 -0.2626 -0.1935 -0.7457
   43MOL0     C 5578  13.136  11.246   1.225  0.2074  0.0512 -1.0425
   43MOL0     O 5579  13.262  11.252   1.269  0.3065 -0.2998  0.6467
   43MOL0     C 5580  13.337  11.371   1.260  0.6239 -0.2335 -0.0602
   43MOL0     C 5581  13.441  11.389   1.364  0.7508  0.0864 -0.6373
   43MOL0     C 5582  13.401  11.360   1.512  0.2004  0.5176 -1.5828
   43MOL0     C 5583  13.527  11.358   1.605 -0.5891  0.1238  0.6983
   43MOL0     C 5584  13.497  11.339   1.751  0.5434 -0.0742 -0.5599
   43MOL0     C 5585  13.616  11.356   1.847 -0.3467  0.6295  0.0063
   43MOL0     C 5586  13.684  11.223   1.881  0.3426 -0.3822 -0.1942
   43MOL0     C 5587  13.801  11.240   1.976 -0.1064  0.4101  0.3326
   43MOL0    Cl 5588  13.738  11.304   2.124 -0.0187 -0.2367  0.1575
   43MOL0     C 5589  13.042  11.186   1.314 -0.8824  0.0888 -0.2884
   43MOL0     C 5590  12.915  11.169   1.281 -0.4932 -0.7857  0.5853
   43MOL0     O 5591  12.691  11.401   1.016  0.7432  0.0016 -0.1206
   43MOL0     C 5592  12.472  11.304   0.899 -0.3782 -0.3992  0.9888
   43MOL0     C 5593  12.341  11.267   0.856 -0.0353  0.3879 -0.5003
   43MOL0     N 5594  11.512  11.054   1.087  0.0263 -0.2604 -0.7420
   43MOL0     N 5595  11.437  11.042   1.193  0.3492 -0.2131 -0.3057
   43MOL0     C 5596  10.433  11.297   2.106  0.2482  0.3737 -0.6817
   43MOL0     C 5597  10.302  11.347   2.140  0.5953  0.2754  0.2642
   43MOL0     C 5598   9.871  11.309   2.219 -0.4469  1.1345 -0.2060
   43MOL0     C 5599   9.803  11.427   2.189  0.6862 -0.1369 -0.0505
   43MOL0     C 5600   9.692  11.468   2.265 -0.0850 -0.0510  1.1541
   43MOL0     C 5601   9.635  11.383   2.364  0.0811  0.3686  0.2709
   43MOL0     O 5602   9.532  11.421   2.445 -0.0548  1.0744 -0.2121
   43MOL0     C 5603   9.480  11.547   2.408  0.2616  0.7208 -0.2074
   43MOL0     C 5604   9.373  11.582   2.512  0.0100 -0.5621  0.3828
   43MOL0     C 5605   9.265  11.476   2.511 -0.5261 -0.8495  0.2655
   43MOL0     C 5606   9.114  11.535   2.514 -0.6151  0.1502  0.2181
   43MOL0     C 5607   9.045  11.436   2.588  0.6464 -0.3682  0.4673
   43MOL0     C 5608   8.988  11.352   2.640  0.1187  0.9397  0.4741
   43MOL0     C 5609   9.703  11.258   2.390  0.7596 -0.7076 -0.0312
   43MOL0     C 5610   9.819  11.225   2.320 -0.3302  0.3027  0.1230
   43MOL0     H 5611  10.138  11.261   1.855 -3.2244 -1.7833  2.3064
   43MOL0     H 5612  10.372  11.177   1.802  0.4049 -1.5781  0.7107
   43MOL0     H 5613  10.640  11.366   1.829  1.7867 -0.2404 -0.2445
   43MOL0     H 5614  10.615  11.218   1.736  3.7375  2.7460 -3.5593
   43MOL0     H 5615  10.814  11.135   1.885  2.0290  0.4245  0.4092
   43MOL0     H 5616  10.847  11.299   1.916  0.2907 -0.3578  0.6901
   43MOL0     H 5617  10.836  11.347   1.652  0.8958  0.1559  0.1873
   43MOL0     H 5618  10.836  11.166   1.652 -0.0715 -0.4260  1.2502
   43MOL0     H 5619  11.056  11.328   1.771 -0.9729 -1.0166  1.3610
   43MOL0     H 5620  11.053  11.152   1.750  4.2486  1.5405  0.6424
   43MOL0     H 5621  11.068  11.359   1.531  0.9393 -0.8151 -1.3327
   43MOL0     H 5622  11.005  11.207   1.500  2.3985 -1.2678 -2.0048
   43MOL0     H 5623  11.200  11.083   1.561  0.0318 -0.2297 -2.3452
   43MOL0     H 5624  11.280  11.227   1.628  0.7799  1.1524 -2.4373
   43MOL0     H 5625  11.213  11.213   1.334 -0.8036 -2.7023  1.0347
   43MOL0     H 5626  11.294  11.337   1.439  1.9377  0.3394  0.1316
   43MOL0     H 5627  11.413  11.060   1.438  0.9420  0.1614  1.2660
   43MOL0     H 5628  11.491  11.227   1.451 -0.0471  1.7738 -0.9586
   43MOL0     H 5629  11.568  11.342   1.243  1.4438 -0.9661 -1.6806
   43MOL0     H 5630  11.733  11.326   1.019  1.8384 -0.4860 -0.0542
   43MOL0     H 5631  11.680  11.199   0.903  2.7238  1.2546 -0.9561
   43MOL0     H 5632  11.805  11.030   1.041  2.5166 -0.3217 -0.5745
   43MOL0     H 5633  11.852  11.162   1.141 -0.8288 -1.0362 -0.2772
   43MOL0     H 5634  11.896  11.167   0.849 -2.4654 -1.8864  1.5204
   43MOL0     H 5635  11.946  11.293   0.965 -0.5804 -0.1342  0.4646
   43MOL0     H 5636  12.033  10.997   0.959  1.0989 -0.4100 -0.6804
   43MOL0     H 5637  12.094  11.114   1.079 -1.4182  0.3295  0.5094
   43MOL0     H 5638  12.300  11.012   1.075  2.9632  0.6228  2.8012
   43MOL0     H 5639  12.507  11.069   1.144  1.3448  0.4133 -0.7773
   43MOL0     H 5640  12.922  11.316   0.980  3.0419 -0.7120 -1.6939
   43MOL0     H 5641  13.161  11.318   1.030 -0.6545 -2.8408 -2.1288
   43MOL0     H 5642  13.274  11.460   1.263  2.1421  0.9053 -0.6950
   43MOL0     H 5643  13.400  11.366   1.171  1.4492  2.6442  0.2520
   43MOL0     H 5644  13.468  11.495   1.368 -3.1351  1.1874  1.2833
   43MOL0     H 5645  13.531  11.335   1.332  1.5534  0.3498  1.0594
   43MOL0     H 5646  13.360  11.260   1.528 -0.7425  1.0024 -0.8670
   43MOL0     H 5647  13.318  11.425   1.539 -0.2496 -0.8319  0.5316
   43MOL0     H 5648  13.593  11.275   1.578 -2.5861 -1.6557  0.9339
   43MOL0     H 5649  13.586  11.449   1.591  2.6829 -1.9563 -0.1561
   43MOL0     H 5650  13.451  11.241   1.766  1.4045 -0.3815  0.1833
   43MOL0     H 5651  13.427  11.420   1.775 -0.5384 -1.0800 -0.2664
   43MOL0     H 5652  13.590  11.396   1.946 -0.8964 -1.4299  0.7453
   43MOL0     H 5653  13.684  11.425   1.797  3.0811  0.0491  3.3692
   43MOL0     H 5654  13.612  11.150   1.919  1.5687 -2.6461 -1.9642
   43MOL0     H 5655  13.714  11.186   1.783 -1.8064  0.1957 -1.1096
   43MOL0     H 5656  13.882  11.307   1.948  2.7119 -2.7520  0.2072
   43MOL0     H 5657  13.856  11.146   1.979  0.6746  0.7084 -2.3815
   43MOL0     H 5658  13.090  11.141   1.400  1.9274 -2.7056 -3.0538
   43MOL0     H 5659  12.840  11.111   1.335 -3.7798 -0.5650 -3.3007
   43MOL0     H 5660  12.517  11.389   0.850  0.2977 -0.5061  1.4136
   43MOL0     H 5661  12.287  11.329   0.786 -3.9781 -0.7179  1.3105
   43MOL0     H 5662  10.502  11.305   2.189 -0.0029  2.4468 -0.6152
   43MOL0     H 5663  10.287  11.393   2.237  1.1368  1.4445 -0.1939
   43MOL0     H 5664   9.839  11.494   2.112  0.9073  2.3482  2.0766
   43MOL0     H 5665   9.654  11.566   2.237 -1.3844 -1.1886 -1.4150
   43MOL0     H 5666   9.434  11.544   2.309  1.6011  0.8698 -0.8577
   43MOL0     H 5667   9.562  11.617   2.427  0.1030  0.5735  1.1169
   43MOL0     H 5668   9.416  11.608   2.609  1.4698  1.4047 -0.7193
   43MOL0     H 5669   9.320  11.671   2.476 -1.0280 -2.2368 -2.6237
   43MOL0     H 5670   9.281  11.403   2.591 -1.2299 -3.8936 -2.1522
   43MOL0     H 5671   9.268  11.413   2.422 -0.3958  0.0854 -0.4007
   43MOL0     H 5672   9.117  11.637   2.554  1.6945  2.4198 -4.7755
   43MOL0     H 5673   9.062  11.551   2.419 -5.1782 -0.3353  2.3879
   43MOL0     H 5674   8.938  11.269   2.688 -0.6372  1.3247  0.3635
   43MOL0     H 5675   9.655  11.206   2.472 -2.5974  1.5925 -0.3720
   43MOL0     H 5676   9.851  11.123   2.339 -0.7956 -0.8590 -4.2506
   44MOL0     O 5677   1.159  10.945   1.813 -0.2740 -0.0779  0.0410
   44MOL0     C 5678   1.213  10.840   1.769 -0.0046  0.2529 -0.6293
   44MOL0     O 5679   1.164  10.717   1.769 -0.8635 -0.3498  0.3581
   44MOL0     C 5680   1.042  10.685   1.822  0.4478  0.8908  0.2670
   44MOL0     C 5681   0.926  10.663   1.739 -0.7089  0.9435 -0.4481
   44MOL0     C 5682   0.803  10.636   1.808 -0.2822 -0.7069  0.9762
   44MOL0     C 5683   0.786  10.638   1.949  0.3527  0.1012  0.7533
   44MOL0     O 5684   0.666  10.646   2.019 -0.3890  0.0149 -0.0362
   44MOL0     C 5685   0.552  10.591   1.956 -0.0348  0.2322  0.1904
   44MOL0     C 5686   0.440  10.544   2.049 -0.3999  0.1265 -0.2274
   44MOL0     C 5687   0.308  10.519   1.977 -0.1964  0.3608 -0.1039
   44MOL0     C 5688   0.220  10.431   2.062 -0.0322  0.1281  0.2750
   44MOL0     C 5689   0.087  10.417   1.989 -0.1039 -0.3348 -0.2689
   44MOL0     C 5690  -0.001  10.329   2.074  0.4287 -0.3216  0.3267
   44MOL0     C 5691  -0.144  10.343   2.015  0.4998 -1.0245 -0.9321
   44MOL0     C 5692  -0.209  10.473   2.028 -0.5180 -0.3642 -0.1101
   44MOL0     N 5693  -0.353  10.474   2.053 -0.0004 -0.5607  0.4124
   44MOL0     C 5694  -0.448  10.548   1.989 -0.1259 -0.7825  1.5804
   44MOL0     C 5695  -0.573  10.522   2.030 -0.4694  0.0927  0.5578
   44MOL0     C 5696  -0.705  10.570   1.983 -0.3748 -0.8520 -0.7604
   44MOL0     C 5697  -0.782  10.446   1.939  0.6591 -0.0213  0.2475
   44MOL0     C 5698  -0.911  10.493   1.855 -0.3498  0.1294  0.1542
   44MOL0     C 5699  -1.011  10.568   1.940 -0.2098 -0.3966  0.4950
   44MOL0     O 5700  -1.128  10.575   1.852 -0.7855 -0.9347 -0.0121
   44MOL0     C 5701  -1.239  10.639   1.890 -0.0466 -0.6223 -0.1277
   44MOL0     C 5702  -1.349  10.630   1.800 -0.0049  0.7371 -0.8594
   44MOL0     C 5703  -1.469  10.700   1.834 -0.5313  0.2834 -0.5856
   44MOL0     C 5704  -1.484  10.769   1.963  0.0464 -0.6313 -0.1174
   44MOL0     C 5705  -1.613  10.830   2.012  0.0407 -0.4141 -0.9832
   44MOL0     O 5706  -1.614  10.900   2.128  0.1913 -0.1586 -0.3750
   44MOL0     C 5707  -1.720  10.983   2.154 -0.9613  0.9768 -0.3248
   44MOL0     C 5708  -1.815  10.955   2.248  0.5374 -0.3346  0.1976
   44MOL0     C 5709  -1.927  11.028   2.274  0.1231 -0.3527 -0.1374
   44MOL0     C 5710  -1.948  11.152   2.207 -0.1244 -0.1471  0.1298
   44MOL0     O 5711  -2.058  11.240   2.212 -0.1177  0.0822  0.8488
   44MOL0     C 5712  -2.180  11.202   2.274 -0.0091 -0.0354 -0.6312
   44MOL0     C 5713  -2.254  11.102   2.182  0.0658  0.7357  0.5390
   44MOL0     C 5714  -2.299  11.157   2.044  0.6016  1.5533 -0.1572
   44MOL0     C 5715  -2.370  11.041   1.954  0.0379 -0.8864  0.7362
   44MOL0     C 5716  -2.275  10.928   1.910  0.9148 -0.5900  0.7062
   44MOL0     C 5717  -2.161  10.988   1.827 -0.4064 -0.7609 -0.1110
   44MOL0     C 5718  -2.049  10.887   1.805  0.4747 -0.0923 -0.2336
   44MOL0     C 5719  -1.985  10.902   1.665  0.4410 -0.3581  0.3956
   44MOL0    Cl 5720  -1.837  11.002   1.681 -0.0427 -0.1848 -0.0084
   44MOL0     C 5721  -1.848  11.182   2.112  0.5595 -0.3635  0.6787
   44MOL0     C 5722  -1.738  11.102   2.086 -0.0931  0.5445  1.2190
   44MOL0     O 5723  -1.714  10.813   1.936  0.6632 -0.3001  0.2100
   44MOL0     C 5724  -1.375  10.782   2.045  0.0530  0.8195 -0.2209
   44MOL0     C 5725  -1.254  10.726   2.008 -0.9323  0.7018  0.9708
   44MOL0     N 5726  -0.553  10.411   2.122 -0.6027 -0.4057  0.3843
   44MOL0     N 5727  -0.422  10.396   2.141  1.1243 -0.0308  0.0626
   44MOL0     C 5728   0.907  10.652   2.017 -0.4534 -0.3158 -0.2916
   44MOL0     C 5729   1.031  10.678   1.956  0.1685  0.0343 -0.4005
   44MOL0     C 5730   1.338  10.858   1.701 -0.2923 -0.1931 -0.5966
   44MOL0     C 5731   1.424  10.755   1.683  0.3683  0.6132 -0.2731
   44MOL0     C 5732   1.551  10.769   1.629  0.1669  0.2450  0.6966
   44MOL0     C 5733   1.591  10.895   1.588  0.8757 -0.3683  0.3009
   44MOL0     O 5734   1.715  10.934   1.537 -0.4453 -0.5209 -0.0022
   44MOL0     C 5735   1.805  10.835   1.491  0.3607 -0.5981 -0.3773
   44MOL0     C 5736   1.945  10.893   1.510  0.2926  0.1593  0.5949
   44MOL0     C 5737   2.002  10.883   1.655 -0.1760 -0.4051 -0.0373
   44MOL0     C 5738   1.946  10.991   1.758 -0.0674 -0.0080  0.5328
   44MOL0     C 5739   2.032  10.999   1.876  0.3121 -0.0974 -0.5495
   44MOL0     C 5740   2.109  11.010   1.972 -0.1890 -0.4380  0.0300
   44MOL0     C 5741   1.506  11.007   1.607 -0.2367 -0.2026  0.2320
   44MOL0     C 5742   1.381  10.985   1.662  0.0769  0.3006  0.5540
   44MOL0     H 5743   0.915  10.689   1.635 -0.2241  1.2238 -0.4307
   44MOL0     H 5744   0.713  10.620   1.749  0.5925 -1.8786 -0.0977
   44MOL0     H 5745   0.580  10.511   1.887  1.1882  1.1610 -0.4202
   44MOL0     H 5746   0.513  10.669   1.890 -1.4918 -0.0545  0.6849
   44MOL0     H 5747   0.411  10.630   2.109 -1.2228 -1.1756  1.3328
   44MOL0     H 5748   0.469  10.454   2.103 -2.3010 -0.5077 -0.1554
   44MOL0     H 5749   0.329  10.450   1.894  1.4589  0.1817  0.4299
   44MOL0     H 5750   0.265  10.614   1.944 -0.3162 -1.1981 -5.5570
   44MOL0     H 5751   0.281  10.342   2.082  1.1664  0.4142 -1.8431
   44MOL0     H 5752   0.187  10.474   2.157  0.0154  1.5559 -0.3423
   44MOL0     H 5753   0.097  10.368   1.891  0.4225 -1.4015  0.3062
   44MOL0     H 5754   0.047  10.519   1.982  2.7491  0.8538 -0.6347
   44MOL0     H 5755  -0.009  10.362   2.178 -0.1941 -0.8769  0.4674
   44MOL0     H 5756   0.040  10.228   2.070  3.3882  0.7734  0.8349
   44MOL0     H 5757  -0.138  10.333   1.906 -0.7353  1.5419 -1.3247
   44MOL0     H 5758  -0.206  10.262   2.055  0.6145 -0.9869 -0.6789
   44MOL0     H 5759  -0.195  10.531   1.937 -0.2485  0.2575  0.3262
   44MOL0     H 5760  -0.159  10.532   2.105 -0.1898  0.3193 -0.8378
   44MOL0     H 5761  -0.422  10.625   1.917  2.4678 -4.4800 -1.9332
   44MOL0     H 5762  -0.692  10.651   1.911  0.0142  2.7625  2.9611
   44MOL0     H 5763  -0.761  10.629   2.057 -1.5378  2.2166 -3.8271
   44MOL0     H 5764  -0.824  10.392   2.025 -4.2985  1.5857 -0.8324
   44MOL0     H 5765  -0.715  10.387   1.877 -0.8168 -0.4172 -1.0145
   44MOL0     H 5766  -0.872  10.553   1.772  0.1059 -0.9564 -0.4291
   44MOL0     H 5767  -0.962  10.410   1.807  1.7286  0.4735 -2.9512
   44MOL0     H 5768  -0.970  10.665   1.967  1.4696 -0.2643 -2.0908
   44MOL0     H 5769  -1.038  10.498   2.019 -1.6990 -1.2381 -0.6966
   44MOL0     H 5770  -1.332  10.570   1.711  2.4721  1.2316 -0.8064
   44MOL0     H 5771  -1.561  10.699   1.776 -0.6703  0.0271 -0.3684
   44MOL0     H 5772  -1.794  10.855   2.285 -1.0483 -0.6679  0.2469
   44MOL0     H 5773  -2.006  10.997   2.342 -0.9581  0.0608 -1.1689
   44MOL0     H 5774  -2.238  11.295   2.284 -0.7546 -0.6622  1.5883
   44MOL0     H 5775  -2.162  11.169   2.377 -2.7316  0.5915  0.1348
   44MOL0     H 5776  -2.345  11.079   2.238 -1.1356  0.6223 -1.3734
   44MOL0     H 5777  -2.187  11.016   2.168 -0.6632  0.3971 -1.2181
   44MOL0     H 5778  -2.219  11.197   1.981  0.2164 -1.5806 -2.9073
   44MOL0     H 5779  -2.372  11.237   2.059  0.1983  0.8484  2.0326
   44MOL0     H 5780  -2.451  10.992   2.009 -0.0079 -3.1956 -1.2169
   44MOL0     H 5781  -2.412  11.095   1.869 -1.4302 -1.2716  1.1680
   44MOL0     H 5782  -2.338  10.867   1.845  1.0428 -0.3913  0.3970
   44MOL0     H 5783  -2.241  10.864   1.991 -1.1981 -2.8243 -0.0636
   44MOL0     H 5784  -2.112  11.070   1.880 -2.5268  0.5916 -0.1408
   44MOL0     H 5785  -2.201  11.010   1.728  0.0133  0.5732 -0.0053
   44MOL0     H 5786  -1.973  10.897   1.883  1.9704  1.6145 -1.7928
   44MOL0     H 5787  -2.088  10.785   1.804 -4.5775  1.5651  1.2483
   44MOL0     H 5788  -2.061  10.946   1.600 -2.1608 -0.4315  3.1754
   44MOL0     H 5789  -1.965  10.801   1.628 -0.6509 -0.4189 -0.0489
   44MOL0     H 5790  -1.860  11.271   2.052 -0.2968 -0.8023  0.1760
   44MOL0     H 5791  -1.672  11.134   2.007 -0.9199 -0.2755  0.1669
   44MOL0     H 5792  -1.378  10.848   2.132 -4.2368  1.0611 -0.3222
   44MOL0     H 5793  -1.166  10.746   2.068  3.3084 -2.0253 -3.5462
   44MOL0     H 5794   0.897  10.648   2.125 -0.1989  1.2766 -0.1764
   44MOL0     H 5795   1.123  10.699   2.010  0.4296 -2.0169  0.0016
   44MOL0     H 5796   1.392  10.655   1.712 -0.6908  1.3776  1.3079
   44MOL0     H 5797   1.621  10.685   1.627  0.8862  0.8266  0.8444
   44MOL0     H 5798   1.780  10.812   1.387 -2.1736  0.0228  0.0356
   44MOL0     H 5799   1.788  10.744   1.548 -1.2259 -0.3950 -0.4793
   44MOL0     H 5800   2.008  10.835   1.442  0.8813 -0.0722  1.3308
   44MOL0     H 5801   1.949  10.995   1.470  2.1084 -0.5015 -1.0868
   44MOL0     H 5802   2.108  10.909   1.646 -0.9443  3.1672 -0.4777
   44MOL0     H 5803   1.999  10.786   1.705  0.3092  0.2191  1.2274
   44MOL0     H 5804   1.957  11.089   1.710  0.6903  0.1934  1.0942
   44MOL0     H 5805   1.843  10.963   1.781  0.1720 -3.4290 -1.7387
   44MOL0     H 5806   2.172  11.023   2.058 -1.0468  0.6104  0.5195
   44MOL0     H 5807   1.521  11.112   1.584 -4.2271  0.5908  0.5461
   44MOL0     H 5808   1.329  11.075   1.692  1.4863  1.6879 -0.9216
   45MOL0     O 5809   0.946  10.467   8.264  0.2716  0.1932 -0.3374
   45MOL0     C 5810   0.939  10.381   8.344 -0.5113 -0.1035  0.6514
   45MOL0     O 5811   1.039  10.297   8.374  0.1098 -0.6562  0.1697
   45MOL0     C 5812   1.158  10.303   8.302 -0.2317  0.2365  1.0595
   45MOL0     C 5813   1.224  10.188   8.269  0.5354 -0.7909 -0.1519
   45MOL0     C 5814   1.339  10.188   8.194 -0.1234 -0.7359 -0.1801
   45MOL0     C 5815   1.392  10.307   8.136  0.5885 -0.0224  0.6658
   45MOL0     O 5816   1.504  10.316   8.052  0.9086  0.0285 -0.2440
   45MOL0     C 5817   1.529  10.213   7.960  0.2824  0.6422  0.4357
   45MOL0     C 5818   1.655  10.247   7.893  0.5465  0.0898 -0.3843
   45MOL0     C 5819   1.773  10.226   7.993  0.1222 -0.3841  1.0483
   45MOL0     C 5820   1.905  10.232   7.913  0.8176  0.5741  0.0743
   45MOL0     C 5821   2.020  10.206   8.016  0.7397  0.4930  0.9298
   45MOL0     C 5822   2.032  10.064   8.066 -0.7270  0.4277 -0.6114
   45MOL0     C 5823   2.121  10.053   8.192  0.8566 -0.0393  0.0945
   45MOL0     C 5824   2.269  10.079   8.141 -0.0840 -0.6555  0.5796
   45MOL0     N 5825   2.309   9.969   8.046  0.2293 -0.3373  0.0966
   45MOL0     C 5826   2.353   9.841   8.078  0.3924  0.1904 -0.3741
   45MOL0     C 5827   2.380   9.780   7.962  0.0224  0.0410  0.1274
   45MOL0     C 5828   2.412   9.641   7.933  0.6446  0.5350  0.5077
   45MOL0     C 5829   2.555   9.611   7.953  0.3113  0.4055 -0.2769
   45MOL0     C 5830   2.631   9.671   7.828  0.3239 -0.0104 -0.3774
   45MOL0     C 5831   2.782   9.635   7.838 -0.3044  0.2155  0.3420
   45MOL0     O 5832   2.855   9.632   7.711  0.5871  0.3722  0.5042
   45MOL0     C 5833   2.989   9.613   7.698 -0.3647  1.1980 -0.0011
   45MOL0     C 5834   3.077   9.621   7.801  0.3567  0.2573 -0.9345
   45MOL0     C 5835   3.216   9.612   7.781  0.1144  0.2724 -0.2487
   45MOL0     C 5836   3.264   9.590   7.654 -0.5287  0.2005  0.5082
   45MOL0     C 5837   3.410   9.583   7.618  0.1862  0.0513  0.2194
   45MOL0     O 5838   3.487   9.553   7.729  0.4179  0.2828  0.1824
   45MOL0     C 5839   3.624   9.551   7.707  0.5255 -0.1581 -0.4876
   45MOL0     C 5840   3.699   9.640   7.783  0.3619 -0.8070  0.6050
   45MOL0     C 5841   3.839   9.632   7.782 -0.3396  1.3906  0.2961
   45MOL0     C 5842   3.909   9.553   7.689  0.1674  0.1165  1.4362
   45MOL0     O 5843   4.050   9.575   7.678  0.2865  0.6511  0.3058
   45MOL0     C 5844   4.121   9.516   7.566 -1.2014 -0.1541  0.8887
   45MOL0     C 5845   4.276   9.517   7.579  0.8710  0.0547 -0.8589
   45MOL0     C 5846   4.332   9.652   7.609 -0.2209 -0.4169  0.0784
   45MOL0     C 5847   4.481   9.668   7.613  0.2490 -0.6165 -1.1176
   45MOL0     C 5848   4.534   9.807   7.620 -0.5429 -0.8771  0.4711
   45MOL0     C 5849   4.680   9.808   7.567  0.6944  0.4562  0.5558
   45MOL0     C 5850   4.742   9.951   7.549  0.4473 -0.8190 -0.2537
   45MOL0     C 5851   4.864   9.952   7.457 -0.0092 -0.0647  0.0654
   45MOL0    Cl 5852   4.925  10.125   7.452 -0.1032 -0.0579  0.6244
   45MOL0     C 5853   3.827   9.470   7.602  0.1035 -0.7448 -0.2657
   45MOL0     C 5854   3.689   9.469   7.616  0.3776  0.0939 -0.0141
   45MOL0     O 5855   3.448   9.603   7.507  0.1223  0.0572 -0.4548
   45MOL0     C 5856   3.173   9.590   7.547 -0.4018  0.9184 -0.0400
   45MOL0     C 5857   3.036   9.605   7.568 -0.0114  0.0136  0.2508
   45MOL0     N 5858   2.346   9.874   7.866 -0.8567  0.4443  1.1893
   45MOL0     N 5859   2.303   9.980   7.912  0.7281  0.0584 -0.5669
   45MOL0     C 5860   1.332  10.424   8.174  0.0791 -0.1444 -0.2710
   45MOL0     C 5861   1.217  10.425   8.260 -0.9942 -0.2187  0.3889
   45MOL0     C 5862   0.812  10.364   8.410  0.0508 -0.2180  0.1819
   45MOL0     C 5863   0.796  10.274   8.521  0.0303  1.2169 -0.1457
   45MOL0     C 5864   0.674  10.232   8.561  0.8446 -0.3687 -0.6404
   45MOL0     C 5865   0.561  10.309   8.519 -0.0803  0.2577 -1.7282
   45MOL0     O 5866   0.438  10.274   8.556  0.0897 -0.5099 -0.7586
   45MOL0     C 5867   0.412  10.144   8.619 -0.3671 -0.0754  0.6740
   45MOL0     C 5868   0.259  10.130   8.659  0.7370 -0.2897 -0.2089
   45MOL0     C 5869   0.156  10.150   8.535 -1.0176  0.0419  0.1064
   45MOL0     C 5870   0.012  10.161   8.568  0.6322 -0.2828 -1.1920
   45MOL0     C 5871  -0.057  10.031   8.597 -0.2513 -0.1537 -0.3841
   45MOL0     C 5872  -0.094   9.919   8.598  0.3404  0.2784 -0.2882
   45MOL0     C 5873   0.584  10.413   8.428  0.2159  0.0171 -0.0840
   45MOL0     C 5874   0.707  10.448   8.375 -0.6659  0.2034 -0.2395
   45MOL0     H 5875   1.193  10.097   8.320 -0.2290 -0.0828  0.6788
   45MOL0     H 5876   1.393  10.096   8.176  1.7536  0.8968 -4.1642
   45MOL0     H 5877   1.445  10.217   7.890 -0.6751  1.4039  1.5859
   45MOL0     H 5878   1.516  10.113   8.002 -1.2320  0.3750 -0.5895
   45MOL0     H 5879   1.646  10.351   7.860 -1.4420  0.6837  1.7678
   45MOL0     H 5880   1.672  10.181   7.807 -0.8234  1.9307 -2.1788
   45MOL0     H 5881   1.763  10.123   8.029 -2.9677 -0.4516  0.3313
   45MOL0     H 5882   1.761  10.299   8.073 -2.1156 -3.2263  3.5635
   45MOL0     H 5883   1.927  10.164   7.830  2.9722  1.2287  0.0334
   45MOL0     H 5884   1.911  10.333   7.873 -0.3876  1.1980  1.3992
   45MOL0     H 5885   1.996  10.274   8.099  1.7684  1.4580  0.4687
   45MOL0     H 5886   2.109  10.238   7.961 -0.3623  0.4829 -0.9265
   45MOL0     H 5887   2.057   9.997   7.984 -2.7603 -0.0585 -0.8844
   45MOL0     H 5888   1.929  10.036   8.089 -0.6715  1.2582  0.7261
   45MOL0     H 5889   2.103  10.129   8.269 -0.6073  0.2151 -0.4751
   45MOL0     H 5890   2.104   9.958   8.242 -1.0518  0.3345  0.2115
   45MOL0     H 5891   2.341  10.102   8.220  0.4672  0.1380 -0.1294
   45MOL0     H 5892   2.261  10.175   8.089  0.0067 -0.2747  1.2547
   45MOL0     H 5893   2.347   9.796   8.177  1.0981 -2.5641 -1.4889
   45MOL0     H 5894   2.374   9.613   7.835 -0.8856  0.0746  1.1992
   45MOL0     H 5895   2.356   9.579   8.004 -1.7439  1.4192 -0.4862
   45MOL0     H 5896   2.582   9.505   7.952  2.6029  0.9249 -1.1169
   45MOL0     H 5897   2.590   9.666   8.040 -0.6253  3.5187 -1.7021
   45MOL0     H 5898   2.588   9.633   7.735 -0.0104  2.7049 -1.3957
   45MOL0     H 5899   2.613   9.778   7.818 -0.7416  0.2678  3.1458
   45MOL0     H 5900   2.796   9.538   7.885 -3.3949  0.1850  1.4177
   45MOL0     H 5901   2.820   9.714   7.904 -1.8034  0.6879  0.6836
   45MOL0     H 5902   3.042   9.657   7.897  2.5930  2.5718 -0.8785
   45MOL0     H 5903   3.278   9.609   7.870  1.5343 -1.5667 -1.2408
   45MOL0     H 5904   3.656   9.711   7.853 -1.4177 -2.3905  1.2284
   45MOL0     H 5905   3.897   9.700   7.842 -2.3698  1.3351  2.4422
   45MOL0     H 5906   4.096   9.564   7.471  3.4649 -1.2623 -1.2068
   45MOL0     H 5907   4.099   9.410   7.555  3.2812 -1.1173 -0.9973
   45MOL0     H 5908   4.317   9.479   7.485 -0.0623 -2.0223 -0.4843
   45MOL0     H 5909   4.304   9.449   7.660  1.5360 -1.2004 -2.0989
   45MOL0     H 5910   4.295   9.695   7.703 -0.5641 -0.1491 -0.1792
   45MOL0     H 5911   4.290   9.719   7.533  0.0669  0.9441  1.0600
   45MOL0     H 5912   4.524   9.624   7.704  3.2105  0.5474 -1.8172
   45MOL0     H 5913   4.519   9.614   7.526 -0.8120 -1.0344 -1.3405
   45MOL0     H 5914   4.526   9.843   7.723  1.8810  0.6820  0.1888
   45MOL0     H 5915   4.475   9.876   7.560 -1.2607 -1.8091  0.0655
   45MOL0     H 5916   4.685   9.766   7.467  2.7441 -2.3831  1.7220
   45MOL0     H 5917   4.740   9.746   7.633  2.1476  0.2178 -0.9381
   45MOL0     H 5918   4.665  10.017   7.507  0.4114 -2.0458 -2.2233
   45MOL0     H 5919   4.773   9.987   7.648 -0.2335 -0.6760 -0.0854
   45MOL0     H 5920   4.857   9.914   7.354  0.4766  0.9145 -0.3443
   45MOL0     H 5921   4.940   9.892   7.507  0.4198 -0.8381 -1.4419
   45MOL0     H 5922   3.866   9.408   7.522  0.4017 -1.4560  0.4099
   45MOL0     H 5923   3.629   9.407   7.549  2.7490 -2.1147 -0.2446
   45MOL0     H 5924   3.209   9.591   7.445 -0.0558  1.4599  0.0874
   45MOL0     H 5925   2.973   9.600   7.479 -0.0892  2.1208  0.1284
   45MOL0     H 5926   1.375  10.519   8.143  2.2151  0.1814  3.1360
   45MOL0     H 5927   1.181  10.526   8.282  0.6014  0.1652  1.4116
   45MOL0     H 5928   0.881  10.226   8.567 -1.6078 -0.8639  0.8731
   45MOL0     H 5929   0.657  10.151   8.632 -1.8181  1.2632  0.7326
   45MOL0     H 5930   0.478  10.122   8.704  0.1944  0.4510  0.3775
   45MOL0     H 5931   0.435  10.057   8.556 -0.1041  1.5419 -1.5835
   45MOL0     H 5932   0.240  10.034   8.708 -1.0695  0.1237 -0.0490
   45MOL0     H 5933   0.243  10.203   8.739  0.1744 -0.6450  0.0074
   45MOL0     H 5934   0.171  10.076   8.457  0.5303  1.3775 -0.9367
   45MOL0     H 5935   0.187  10.243   8.486 -0.4079 -0.4967 -0.5435
   45MOL0     H 5936   0.008  10.233   8.650  0.5005 -0.4827 -1.0236
   45MOL0     H 5937  -0.028  10.212   8.480 -1.1108 -1.3529 -1.0591
   45MOL0     H 5938  -0.137   9.821   8.597  0.9519  0.0047 -1.0199
   45MOL0     H 5939   0.495  10.466   8.393 -0.8655 -1.0092  1.0108
   45MOL0     H 5940   0.712  10.528   8.302  0.0891 -1.3292 -1.9562
   46MOL0     O 5941   2.068   9.497   8.879  0.4624  0.2983 -0.3203
   46MOL0     C 5942   2.189   9.526   8.862 -0.5532  0.4411  0.4856
   46MOL0     O 5943   2.289   9.457   8.918  0.0766  0.0045  0.6781
   46MOL0     C 5944   2.248   9.343   8.974 -0.4600  0.5278 -0.6816
   46MOL0     C 5945   2.327   9.234   8.927  0.4340  0.2125 -0.3094
   46MOL0     C 5946   2.299   9.101   8.975  0.9531 -1.0848  1.3377
   46MOL0     C 5947   2.216   9.088   9.084 -0.1970 -0.0710  0.3850
   46MOL0     O 5948   2.205   8.968   9.142  0.0289  0.0412 -0.0657
   46MOL0     C 5949   2.272   8.958   9.266 -0.0676 -0.3613  0.5495
   46MOL0     C 5950   2.210   8.838   9.338 -0.0241  0.3105 -0.2567
   46MOL0     C 5951   2.062   8.867   9.347  0.4087 -1.0245 -0.0766
   46MOL0     C 5952   1.986   8.766   9.442 -0.2213 -0.5053 -1.1388
   46MOL0     C 5953   1.851   8.828   9.460 -0.5009  0.3547  0.1722
   46MOL0     C 5954   1.777   8.751   9.570 -0.1416  0.0333 -0.4707
   46MOL0     C 5955   1.640   8.808   9.586  0.6238 -0.2193  0.5508
   46MOL0     C 5956   1.537   8.698   9.638 -0.0518 -0.1141  0.8631
   46MOL0     N 5957   1.406   8.741   9.663 -0.6658 -1.3210  0.2120
   46MOL0     C 5958   1.301   8.746   9.582 -1.1173 -0.2744 -0.8125
   46MOL0     C 5959   1.194   8.784   9.667 -0.4151 -0.5746 -0.1537
   46MOL0     C 5960   1.055   8.813   9.607 -1.0216 -0.2171 -0.6408
   46MOL0     C 5961   0.938   8.770   9.701  0.2186 -0.9315 -0.0247
   46MOL0     C 5962   0.801   8.811   9.634 -0.2645  0.3827 -0.2142
   46MOL0     C 5963   0.674   8.741   9.685 -0.0058  0.6868  0.5151
   46MOL0     O 5964   0.561   8.803   9.620  0.1812 -0.1964  0.0228
   46MOL0     C 5965   0.432   8.748   9.634  0.4005 -0.5020 -0.6048
   46MOL0     C 5966   0.411   8.642   9.727  0.5597  0.2464 -0.5275
   46MOL0     C 5967   0.285   8.580   9.735  0.2064  0.9510  0.5263
   46MOL0     C 5968   0.182   8.624   9.649  0.1133 -0.5625 -1.1525
   46MOL0     C 5969   0.045   8.570   9.666 -0.3172 -0.4668  0.6539
   46MOL0     O 5970  -0.048   8.623   9.587  0.6934  1.0456  0.1337
   46MOL0     C 5971  -0.177   8.575   9.577 -0.0092 -0.0423 -0.8894
   46MOL0     C 5972  -0.278   8.679   9.557  0.0903  0.2643 -0.8354
   46MOL0     C 5973  -0.412   8.646   9.536 -0.0784  0.4053  0.9235
   46MOL0     C 5974  -0.444   8.506   9.533  0.9841  0.0486  0.4492
   46MOL0     O 5975  -0.570   8.450   9.531 -0.2169 -0.5057  0.1998
   46MOL0     C 5976  -0.678   8.535   9.485 -0.7033 -0.4375  0.7163
   46MOL0     C 5977  -0.810   8.453   9.500 -0.5938 -0.1073 -0.6047
   46MOL0     C 5978  -0.927   8.550   9.507 -0.2650  0.3893 -0.1377
   46MOL0     C 5979  -1.063   8.481   9.496 -0.1603 -0.3142 -0.6087
   46MOL0     C 5980  -1.175   8.580   9.426 -0.3962 -0.3265 -1.6208
   46MOL0     C 5981  -1.207   8.552   9.284  0.1122 -0.1708 -0.7367
   46MOL0     C 5982  -1.082   8.574   9.194  0.1081 -0.5539  0.2723
   46MOL0     C 5983  -1.014   8.454   9.137  0.5383 -0.0461 -0.0824
   46MOL0    Cl 5984  -1.130   8.360   9.035  0.1304  0.1675  0.1281
   46MOL0     C 5985  -0.347   8.408   9.540 -0.6702  0.4379 -0.7466
   46MOL0     C 5986  -0.212   8.439   9.568  0.5370  0.5752 -0.1056
   46MOL0     O 5987   0.024   8.485   9.755 -0.0072 -0.1040  0.6504
   46MOL0     C 5988   0.192   8.742   9.576  0.7572  1.4062 -0.4351
   46MOL0     C 5989   0.318   8.805   9.568  0.0319 -0.3056 -0.5119
   46MOL0     N 5990   1.242   8.782   9.794  0.2864  0.0752 -0.3703
   46MOL0     N 5991   1.372   8.768   9.793  0.7858 -0.2940  0.3032
   46MOL0     C 5992   2.142   9.196   9.134  0.8381  0.6709  1.4389
   46MOL0     C 5993   2.164   9.324   9.083 -0.8662  1.3982 -0.8291
   46MOL0     C 5994   2.204   9.660   8.784 -0.6378  0.1667 -0.2864
   46MOL0     C 5995   2.323   9.705   8.736 -0.0036 -0.3493  0.8383
   46MOL0     C 5996   2.332   9.823   8.660  0.0726  0.4766  0.2569
   46MOL0     C 5997   2.215   9.893   8.624  1.0778 -0.0990 -0.1876
   46MOL0     O 5998   2.223  10.006   8.543  0.4353 -0.1775  0.1787
   46MOL0     C 5999   2.202  10.113   8.634 -0.3909 -0.6936 -0.1297
   46MOL0     C 6000   2.223  10.253   8.565 -0.9286  0.2305  0.3612
   46MOL0     C 6001   2.364  10.281   8.508 -0.3730 -0.7443  0.5943
   46MOL0     C 6002   2.382  10.426   8.457  0.0797 -0.4714  0.1397
   46MOL0     C 6003   2.299  10.449   8.334 -0.0863 -0.3295 -0.9503
   46MOL0     C 6004   2.222  10.454   8.244  0.4347  0.1831 -0.7095
   46MOL0     C 6005   2.098   9.853   8.684 -0.4393 -0.4166 -0.5371
   46MOL0     C 6006   2.093   9.742   8.766 -0.4511 -0.1564  0.7278
   46MOL0     H 6007   2.400   9.256   8.850 -0.2728  2.4057 -0.4254
   46MOL0     H 6008   2.350   9.012   8.938  1.1912 -1.1840  1.8840
   46MOL0     H 6009   2.254   9.045   9.330  0.6423 -0.8045  1.3909
   46MOL0     H 6010   2.380   8.940   9.261 -0.4956 -3.5320  0.7896
   46MOL0     H 6011   2.256   8.827   9.437  0.8713 -0.4265 -0.7322
   46MOL0     H 6012   2.233   8.748   9.280  1.1223 -0.0063  0.6487
   46MOL0     H 6013   2.020   8.854   9.247 -2.1794  3.6625  0.1212
   46MOL0     H 6014   2.040   8.971   9.370  1.0516 -0.2066 -2.7884
   46MOL0     H 6015   1.974   8.666   9.400 -1.2451 -0.5221 -0.8250
   46MOL0     H 6016   2.042   8.754   9.535 -0.7425  0.9768 -0.6056
   46MOL0     H 6017   1.792   8.822   9.369  0.7609  0.2175 -0.6554
   46MOL0     H 6018   1.857   8.937   9.469  3.4814  0.1721  2.4777
   46MOL0     H 6019   1.828   8.754   9.667  0.5893  1.3805 -0.8624
   46MOL0     H 6020   1.768   8.648   9.536 -1.3403 -0.6425  1.7092
   46MOL0     H 6021   1.657   8.898   9.647  1.1300  0.2396 -0.2395
   46MOL0     H 6022   1.610   8.844   9.487  2.6196  3.4469  1.0651
   46MOL0     H 6023   1.584   8.667   9.732  1.0164 -1.1685  0.0202
   46MOL0     H 6024   1.538   8.610   9.572 -0.7034  0.3924  0.1603
   46MOL0     H 6025   1.299   8.740   9.474  3.9311  0.1012 -1.1581
   46MOL0     H 6026   1.052   8.786   9.501  0.0073  3.1214 -1.6278
   46MOL0     H 6027   1.054   8.922   9.611  2.9862  0.0622  4.5826
   46MOL0     H 6028   0.927   8.836   9.788 -1.2586 -0.5035 -0.5048
   46MOL0     H 6029   0.944   8.666   9.734 -0.1849 -0.5524  1.3197
   46MOL0     H 6030   0.793   8.920   9.636  0.8760  0.4713  0.4914
   46MOL0     H 6031   0.814   8.790   9.528  1.6828  2.1840 -0.4055
   46MOL0     H 6032   0.678   8.763   9.792 -0.2835  2.5221  0.1900
   46MOL0     H 6033   0.669   8.640   9.643 -1.4061  1.6981 -1.9209
   46MOL0     H 6034   0.491   8.590   9.778 -1.8024 -2.0635  1.1518
   46MOL0     H 6035   0.269   8.498   9.804 -0.1523  0.2157 -0.3958
   46MOL0     H 6036  -0.254   8.785   9.563 -1.4962  0.7514 -2.0634
   46MOL0     H 6037  -0.481   8.723   9.504  1.0700  0.7034 -1.0126
   46MOL0     H 6038  -0.668   8.562   9.380 -1.1095 -2.3798  0.1448
   46MOL0     H 6039  -0.686   8.626   9.546 -1.7065 -1.8822  2.8733
   46MOL0     H 6040  -0.817   8.392   9.590 -0.2473 -2.5638 -2.1377
   46MOL0     H 6041  -0.817   8.384   9.415  1.6369 -0.0992 -0.8737
   46MOL0     H 6042  -0.922   8.629   9.431 -2.0000 -1.3958 -2.2373
   46MOL0     H 6043  -0.931   8.596   9.607 -1.9040 -3.1161  1.5862
   46MOL0     H 6044  -1.059   8.398   9.424  0.1517 -0.5191 -0.3574
   46MOL0     H 6045  -1.090   8.453   9.598  1.9879  1.6376  0.5685
   46MOL0     H 6046  -1.146   8.684   9.439  2.2855 -0.6968 -3.8368
   46MOL0     H 6047  -1.263   8.563   9.489  0.8350 -1.2965 -0.0872
   46MOL0     H 6048  -1.291   8.610   9.245 -0.2868 -0.5151 -0.4082
   46MOL0     H 6049  -1.238   8.448   9.271 -1.1001 -0.0199  0.6730
   46MOL0     H 6050  -1.111   8.635   9.107  0.6817 -1.4247 -0.5439
   46MOL0     H 6051  -1.008   8.641   9.239 -1.3989  4.1950 -3.4428
   46MOL0     H 6052  -0.992   8.389   9.222  0.9439 -0.3901 -0.4478
   46MOL0     H 6053  -0.926   8.479   9.078  0.7367 -1.6735 -0.5328
   46MOL0     H 6054  -0.367   8.302   9.524  3.7030 -0.5767 -0.9866
   46MOL0     H 6055  -0.130   8.369   9.580 -1.1228 -1.3007  0.6964
   46MOL0     H 6056   0.116   8.786   9.512  0.3918 -0.7100 -1.5828
   46MOL0     H 6057   0.325   8.894   9.507 -2.5922 -0.9629 -1.9472
   46MOL0     H 6058   2.082   9.169   9.221 -0.0131  1.3369  1.0781
   46MOL0     H 6059   2.109   9.410   9.119 -1.6013  1.3265 -1.7342
   46MOL0     H 6060   2.420   9.658   8.743  0.8385  0.3244 -3.5734
   46MOL0     H 6061   2.427   9.857   8.619  0.0756 -3.1485 -3.3029
   46MOL0     H 6062   2.279  10.122   8.711 -1.3350 -0.2923  0.7929
   46MOL0     H 6063   2.105  10.112   8.684  0.5227 -0.2237  1.7342
   46MOL0     H 6064   2.155  10.245   8.480  2.4534  0.1270 -2.5836
   46MOL0     H 6065   2.181  10.336   8.623  1.0325  1.1356  0.5673
   46MOL0     H 6066   2.389  10.207   8.431  0.3640  0.3257 -0.2316
   46MOL0     H 6067   2.440  10.273   8.585  0.4992 -1.3971 -0.3106
   46MOL0     H 6068   2.340  10.489   8.535  3.0507  1.0381  0.6764
   46MOL0     H 6069   2.485  10.458   8.435  0.3560 -0.8549  0.8539
   46MOL0     H 6070   2.166  10.489   8.159  0.3395  1.6737 -0.0624
   46MOL0     H 6071   2.011   9.916   8.665 -0.2175  0.8589  2.1161
   46MOL0     H 6072   1.994   9.718   8.803  0.0468 -2.0097  0.9795
   47MOL0     O 6073   1.125  10.528   6.414  0.8131 -0.3342  0.8559
   47MOL0     C 6074   1.175  10.577   6.315  0.0008  0.1545  0.7869
   47MOL0     O 6075   1.105  10.627   6.208  0.1450 -0.1797 -0.2665
   47MOL0     C 6076   0.966  10.636   6.228  0.0431  0.4545  0.2224
   47MOL0     C 6077   0.904  10.755   6.275 -0.1139 -0.0955 -1.0195
   47MOL0     C 6078   0.761  10.763   6.294  0.5521  0.2880 -0.5534
   47MOL0     C 6079   0.678  10.655   6.259  0.7624  0.4261  0.4165
   47MOL0     O 6080   0.540  10.662   6.266  1.1391  0.0780  0.2523
   47MOL0     C 6081   0.474  10.727   6.379 -0.0770 -0.5777  0.5334
   47MOL0     C 6082   0.320  10.725   6.368 -1.1025  0.0519 -0.0485
   47MOL0     C 6083   0.239  10.809   6.466  0.8108  0.7475 -0.1897
   47MOL0     C 6084   0.096  10.774   6.419 -1.4224  0.0016  0.5504
   47MOL0     C 6085  -0.006  10.874   6.477 -0.5064  0.6079 -0.0682
   47MOL0     C 6086  -0.026  10.996   6.396 -1.2528 -0.5878 -0.2921
   47MOL0     C 6087  -0.096  11.119   6.465 -1.4273 -0.1841  0.1567
   47MOL0     C 6088  -0.245  11.101   6.486 -0.3852 -0.7954  0.4616
   47MOL0     N 6089  -0.298  11.227   6.521 -0.4995 -0.9069 -0.9130
   47MOL0     C 6090  -0.262  11.357   6.490  0.1032  0.5597 -0.0137
   47MOL0     C 6091  -0.347  11.442   6.553 -0.2992 -0.0614 -1.5949
   47MOL0     C 6092  -0.372  11.594   6.552 -0.5614 -0.0874 -0.0140
   47MOL0     C 6093  -0.421  11.649   6.419  0.2519 -0.1080  0.3223
   47MOL0     C 6094  -0.576  11.613   6.404  0.5213  0.7727  0.0158
   47MOL0     C 6095  -0.613  11.618   6.260 -0.3276  0.1558 -0.5995
   47MOL0     O 6096  -0.605  11.747   6.207  0.7632 -0.1349  0.3421
   47MOL0     C 6097  -0.706  11.841   6.203  0.4212 -0.6502  0.0484
   47MOL0     C 6098  -0.703  11.915   6.087 -0.5182  0.3614  0.7872
   47MOL0     C 6099  -0.808  11.995   6.052  0.3320  0.3464  0.1572
   47MOL0     C 6100  -0.908  12.023   6.146 -0.9693  0.3819  1.0204
   47MOL0     C 6101  -1.013  12.133   6.116 -0.2008  0.1394 -0.1482
   47MOL0     O 6102  -1.021  12.196   5.991  0.0668  0.6780 -0.5439
   47MOL0     C 6103  -1.112  12.297   5.984  0.1681  0.6992  0.5744
   47MOL0     C 6104  -1.247  12.263   5.948  0.2378  0.7913  0.3372
   47MOL0     C 6105  -1.352  12.363   5.946 -0.0960  1.0849  0.2367
   47MOL0     C 6106  -1.325  12.492   5.982 -0.8446  0.7434  0.8795
   47MOL0     O 6107  -1.424  12.588   5.989 -0.2421 -0.5113  0.0807
   47MOL0     C 6108  -1.386  12.722   5.954 -0.0590  0.2457 -0.4480
   47MOL0     C 6109  -1.373  12.748   5.804 -0.2860  0.8163  0.1853
   47MOL0     C 6110  -1.487  12.711   5.711 -0.8949 -0.8583 -0.2547
   47MOL0     C 6111  -1.480  12.791   5.585 -0.2109 -0.2530 -1.3352
   47MOL0     C 6112  -1.611  12.784   5.502  1.0691  0.0973  0.1167
   47MOL0     C 6113  -1.622  12.635   5.433 -1.3141 -0.7167 -0.1311
   47MOL0     C 6114  -1.771  12.605   5.416  1.0846 -0.4624  0.6060
   47MOL0     C 6115  -1.812  12.492   5.322  0.4193  0.8504 -0.0443
   47MOL0    Cl 6116  -1.705  12.348   5.363 -0.0740  0.8602 -0.1204
   47MOL0     C 6117  -1.194  12.521   6.036  1.1512  0.5398  0.0316
   47MOL0     C 6118  -1.087  12.427   6.032 -0.7460  0.6635  0.3121
   47MOL0     O 6119  -1.094  12.153   6.207 -0.1005 -0.3919  0.1197
   47MOL0     C 6120  -0.912  11.945   6.263 -0.2015 -1.0280  0.5669
   47MOL0     C 6121  -0.815  11.842   6.287  0.1647 -0.8471 -0.9161
   47MOL0     N 6122  -0.444  11.360   6.612  0.1198 -0.2843 -0.3645
   47MOL0     N 6123  -0.416  11.234   6.598 -1.5990  0.4815 -0.2748
   47MOL0     C 6124   0.740  10.542   6.214 -0.3670  0.4410  0.8127
   47MOL0     C 6125   0.878  10.529   6.199 -0.0920  0.2783  0.2940
   47MOL0     C 6126   1.323  10.564   6.301  0.2875  0.0962  0.7187
   47MOL0     C 6127   1.404  10.633   6.209 -0.4929  0.6433  0.4566
   47MOL0     C 6128   1.544  10.610   6.213  0.5510 -0.2688  0.6312
   47MOL0     C 6129   1.604  10.526   6.305 -0.6922  0.6653  0.1853
   47MOL0     O 6130   1.734  10.514   6.325  0.7727 -0.3027  0.0236
   47MOL0     C 6131   1.804  10.440   6.219  0.0190  0.1010 -0.0481
   47MOL0     C 6132   1.922  10.523   6.164 -0.6953  0.2982  0.4138
   47MOL0     C 6133   1.865  10.651   6.088  0.3692  0.1141  0.0747
   47MOL0     C 6134   1.982  10.729   6.028  0.0732  0.2707 -0.6941
   47MOL0     C 6135   1.955  10.871   6.003  0.4726 -0.1727 -0.6814
   47MOL0     C 6136   1.950  10.991   6.002  0.3294  0.2906  0.1890
   47MOL0     C 6137   1.520  10.449   6.376  0.3219  0.3533 -1.2077
   47MOL0     C 6138   1.386  10.465   6.371 -0.2764 -0.7362  0.8742
   47MOL0     H 6139   0.968  10.837   6.306  0.6228 -1.4570  1.3353
   47MOL0     H 6140   0.714  10.853   6.330  2.3619  0.3849  1.8345
   47MOL0     H 6141   0.511  10.830   6.380 -0.7842 -0.3026 -0.2556
   47MOL0     H 6142   0.495  10.673   6.472 -0.2136 -2.1448 -0.3113
   47MOL0     H 6143   0.296  10.618   6.369 -2.4246  0.2731 -2.1304
   47MOL0     H 6144   0.301  10.755   6.265  0.3964 -1.7892 -0.9344
   47MOL0     H 6145   0.257  10.917   6.457  0.6107  0.7580 -0.4765
   47MOL0     H 6146   0.242  10.778   6.571 -0.7996  3.3565  0.7245
   47MOL0     H 6147   0.098  10.770   6.309 -0.9704 -0.6105  0.5731
   47MOL0     H 6148   0.079  10.671   6.452 -2.2767  0.5143  1.7759
   47MOL0     H 6149   0.029  10.896   6.578  0.8141  0.2611 -0.4204
   47MOL0     H 6150  -0.103  10.825   6.485  0.2977 -0.8132  1.7201
   47MOL0     H 6151  -0.089  10.968   6.311 -1.9841 -0.6021  0.2442
   47MOL0     H 6152   0.071  11.030   6.359 -0.2922 -1.3761  1.3528
   47MOL0     H 6153  -0.039  11.136   6.557 -0.5686 -2.2421  0.0577
   47MOL0     H 6154  -0.073  11.204   6.401  3.3114 -0.8721  0.6093
   47MOL0     H 6155  -0.263  11.036   6.572 -4.5035  0.7731  1.0303
   47MOL0     H 6156  -0.296  11.046   6.406 -3.5904  1.2362  0.9226
   47MOL0     H 6157  -0.181  11.393   6.428  0.1359 -0.9950 -0.9258
   47MOL0     H 6158  -0.279  11.645   6.578 -1.4964  1.8064 -0.2097
   47MOL0     H 6159  -0.444  11.611   6.632 -1.2228 -2.2274 -0.0901
   47MOL0     H 6160  -0.366  11.613   6.331 -2.2369 -0.3394 -1.2321
   47MOL0     H 6161  -0.402  11.756   6.416  4.9707 -0.7334 -0.1453
   47MOL0     H 6162  -0.585  11.515   6.451  0.0096  0.5156 -0.5989
   47MOL0     H 6163  -0.631  11.691   6.459  1.5369  2.2183 -0.9372
   47MOL0     H 6164  -0.717  11.585   6.249 -0.5010  0.1734  0.8076
   47MOL0     H 6165  -0.550  11.546   6.206  1.5984  0.9317  0.5042
   47MOL0     H 6166  -0.628  11.889   6.013 -0.5938  0.9340  0.5014
   47MOL0     H 6167  -0.804  12.040   5.953 -0.0966 -0.2483 -0.1404
   47MOL0     H 6168  -1.277  12.159   5.948  0.3045  0.7376 -1.4084
   47MOL0     H 6169  -1.459  12.343   5.940  0.1771 -0.4830 -0.0635
   47MOL0     H 6170  -1.291  12.752   6.000  0.3528  0.9893 -1.7388
   47MOL0     H 6171  -1.466  12.784   5.995  0.2884  0.4371 -0.0444
   47MOL0     H 6172  -1.282  12.707   5.758 -0.2103  1.7874 -0.5705
   47MOL0     H 6173  -1.344  12.854   5.805  1.5631  0.4015 -1.6848
   47MOL0     H 6174  -1.580  12.741   5.761 -0.7208  3.4328 -2.0544
   47MOL0     H 6175  -1.486  12.602   5.704  1.8869 -0.9369  0.2152
   47MOL0     H 6176  -1.469  12.897   5.610 -0.4978 -0.4749 -0.2482
   47MOL0     H 6177  -1.389  12.772   5.527  2.2453 -0.6097  2.3033
   47MOL0     H 6178  -1.614  12.863   5.426 -0.6567 -1.1147 -1.1484
   47MOL0     H 6179  -1.691  12.808   5.573 -0.2468  2.1439 -1.8968
   47MOL0     H 6180  -1.587  12.556   5.500 -0.6544 -0.0910  0.2689
   47MOL0     H 6181  -1.555  12.627   5.348  0.2557  0.7912  0.9122
   47MOL0     H 6182  -1.805  12.592   5.519 -2.1284 -1.6813 -0.4825
   47MOL0     H 6183  -1.824  12.694   5.380  2.1365 -0.1068 -0.1163
   47MOL0     H 6184  -1.793  12.512   5.216 -0.3734  2.8017  0.1424
   47MOL0     H 6185  -1.911  12.454   5.350  1.6155 -1.9948  0.7351
   47MOL0     H 6186  -1.170  12.618   6.077  2.4985 -1.0633  3.4026
   47MOL0     H 6187  -0.992  12.458   6.073  1.0224 -3.1533 -0.4224
   47MOL0     H 6188  -0.998  11.964   6.326 -1.8948 -0.4445 -1.7645
   47MOL0     H 6189  -0.812  11.786   6.380  1.4595 -0.9143 -0.9924
   47MOL0     H 6190   0.673  10.463   6.182 -0.5529  1.2309 -0.8093
   47MOL0     H 6191   0.921  10.449   6.140 -2.3818 -0.2214 -0.8451
   47MOL0     H 6192   1.357  10.695   6.133 -1.9581 -0.8410  0.0840
   47MOL0     H 6193   1.601  10.659   6.135 -1.9523 -1.1018 -1.8951
   47MOL0     H 6194   1.744  10.404   6.135  0.1055  0.5910 -0.3289
   47MOL0     H 6195   1.859  10.352   6.254 -1.7914 -2.0694 -2.2948
   47MOL0     H 6196   1.996  10.556   6.237 -1.8668  2.2010  0.8200
   47MOL0     H 6197   1.973  10.463   6.088  0.2747  1.2577  0.2764
   47MOL0     H 6198   1.809  10.715   6.157  0.0058  2.8362 -2.5506
   47MOL0     H 6199   1.798  10.628   6.005 -1.4380  1.6377  1.0328
   47MOL0     H 6200   2.064  10.721   6.099 -2.0244 -0.4780  1.8228
   47MOL0     H 6201   2.007  10.685   5.931 -0.9121 -0.6583 -0.5449
   47MOL0     H 6202   1.940  11.098   6.011 -2.6852  0.0401  1.1845
   47MOL0     H 6203   1.545  10.361   6.435 -0.1583  1.4210  0.6479
   47MOL0     H 6204   1.318  10.401   6.427 -0.7284 -1.9626 -0.9817
   48MOL0     O 6205   0.619   9.269   4.663  0.3711  0.6361 -0.6783
   48MOL0     C 6206   0.623   9.273   4.784 -0.2280  0.5172  0.9468
   48MOL0     O 6207   0.547   9.197   4.850 -0.0452  0.2610 -0.0634
   48MOL0     C 6208   0.417   9.167   4.811  0.4676 -0.3944 -0.4122
   48MOL0     C 6209   0.371   9.033   4.828  0.3568  0.2428  0.1933
   48MOL0     C 6210   0.239   8.996   4.786 -0.5501  0.1530 -0.0104
   48MOL0     C 6211   0.152   9.106   4.757 -0.1829  0.3315 -0.3330
   48MOL0     O 6212   0.026   9.079   4.721  0.7137  0.0198  0.1310
   48MOL0     C 6213   0.016   8.980   4.610  0.6475 -0.2144  0.5559
   48MOL0     C 6214  -0.055   9.044   4.486 -0.3326 -0.2096 -0.4269
   48MOL0     C 6215  -0.191   9.115   4.524 -0.7252  0.8036 -0.3559
   48MOL0     C 6216  -0.235   9.199   4.405  0.2012  0.4213  0.2773
   48MOL0     C 6217  -0.378   9.246   4.419 -0.1396 -0.4898 -1.0297
   48MOL0     C 6218  -0.423   9.313   4.290 -0.1596 -0.3790  0.3929
   48MOL0     C 6219  -0.538   9.412   4.329 -0.5676 -0.6828  0.6893
   48MOL0     C 6220  -0.668   9.341   4.348 -0.5175  0.2612 -0.1349
   48MOL0     N 6221  -0.771   9.367   4.256 -0.5216  0.1433 -0.3233
   48MOL0     C 6222  -0.761   9.351   4.119 -0.4812  0.0580 -0.0133
   48MOL0     C 6223  -0.867   9.405   4.064  0.6977  0.7191  0.1503
   48MOL0     C 6224  -0.901   9.412   3.917 -0.3912  0.5992  0.0765
   48MOL0     C 6225  -1.047   9.379   3.869 -1.1370 -0.4431  0.3310
   48MOL0     C 6226  -1.087   9.444   3.729  0.1557 -0.0261 -0.4562
   48MOL0     C 6227  -1.226   9.404   3.693 -0.0657  0.1388 -0.5886
   48MOL0     O 6228  -1.321   9.447   3.789 -0.0667  0.1153  0.2862
   48MOL0     C 6229  -1.458   9.413   3.758 -0.9292 -0.8869  0.2642
   48MOL0     C 6230  -1.509   9.323   3.667 -0.0407 -0.2057  0.3861
   48MOL0     C 6231  -1.639   9.331   3.637  0.7797  0.3430  0.2387
   48MOL0     C 6232  -1.738   9.410   3.698 -0.2649  0.1999 -1.0191
   48MOL0     C 6233  -1.884   9.398   3.657 -0.2363  0.2205 -0.4544
   48MOL0     O 6234  -1.905   9.308   3.560  0.3213 -0.3529  0.6104
   48MOL0     C 6235  -2.031   9.284   3.513 -0.1462 -0.1702  0.1226
   48MOL0     C 6236  -2.104   9.382   3.437  0.1954  0.9566  0.0420
   48MOL0     C 6237  -2.233   9.375   3.399 -0.0930  0.1486 -0.2345
   48MOL0     C 6238  -2.301   9.254   3.427 -0.4259  1.0890 -0.8575
   48MOL0     O 6239  -2.425   9.213   3.389 -0.1834 -0.8172  0.3218
   48MOL0     C 6240  -2.511   9.312   3.333  0.6016  0.5432  0.3275
   48MOL0     C 6241  -2.648   9.248   3.304  0.4092 -0.2783 -0.4495
   48MOL0     C 6242  -2.708   9.171   3.423 -0.2948  0.4924  0.2068
   48MOL0     C 6243  -2.854   9.149   3.406 -0.1554 -0.7318  0.1526
   48MOL0     C 6244  -2.914   9.047   3.500 -0.4212  0.2705 -0.5911
   48MOL0     C 6245  -3.054   8.993   3.446  0.3112  0.1037 -1.0531
   48MOL0     C 6246  -3.112   8.879   3.555 -0.1941 -0.3565 -0.0739
   48MOL0     C 6247  -3.215   8.785   3.493 -0.1945 -0.2314 -0.5278
   48MOL0    Cl 6248  -3.153   8.663   3.391 -0.0966  0.3376 -0.3659
   48MOL0     C 6249  -2.235   9.153   3.499  0.5529  0.4415 -0.1574
   48MOL0     C 6250  -2.099   9.176   3.539 -0.1442 -1.0911  0.4492
   48MOL0     O 6251  -1.972   9.466   3.709 -0.5169 -0.3670 -0.4338
   48MOL0     C 6252  -1.694   9.493   3.802 -0.0453 -0.5863 -1.1212
   48MOL0     C 6253  -1.551   9.501   3.821  0.7452  0.2217 -0.2069
   48MOL0     N 6254  -0.948   9.452   4.163 -0.3009 -0.4409 -0.6227
   48MOL0     N 6255  -0.890   9.433   4.280  0.3872  0.8248  0.2414
   48MOL0     C 6256   0.192   9.236   4.753 -0.1586 -0.3748  0.1167
   48MOL0     C 6257   0.323   9.267   4.778  0.1357 -0.2665  0.5227
   48MOL0     C 6258   0.730   9.351   4.850 -1.4430 -0.4698 -0.0462
   48MOL0     C 6259   0.817   9.434   4.773 -0.1029 -0.6396  1.2197
   48MOL0     C 6260   0.917   9.509   4.827 -0.6386 -0.2506  1.6534
   48MOL0     C 6261   0.946   9.500   4.959 -0.7072  0.2882 -0.0077
   48MOL0     O 6262   1.064   9.560   5.009  0.4092  0.0695 -0.4674
   48MOL0     C 6263   1.092   9.547   5.150  0.3271 -0.5974 -0.0030
   48MOL0     C 6264   1.223   9.610   5.194 -0.9306 -0.6062 -0.0370
   48MOL0     C 6265   1.278   9.546   5.321 -0.4859  0.0718 -0.4003
   48MOL0     C 6266   1.373   9.431   5.299 -0.0478 -0.4513 -0.1203
   48MOL0     C 6267   1.496   9.488   5.236 -0.4181 -0.5013  0.0599
   48MOL0     C 6268   1.602   9.531   5.194  0.5930 -0.5100  0.1164
   48MOL0     C 6269   0.862   9.429   5.039  0.1834  0.4000 -0.5097
   48MOL0     C 6270   0.765   9.351   4.992  0.2294 -0.5635  0.0959
   48MOL0     H 6271   0.438   8.955   4.861  1.2864  1.6833  1.8594
   48MOL0     H 6272   0.207   8.893   4.781  1.6087 -0.7279  2.4973
   48MOL0     H 6273  -0.040   8.893   4.645 -0.8883 -0.2130 -1.7218
   48MOL0     H 6274   0.109   8.951   4.560  0.5594 -2.0025  1.3319
   48MOL0     H 6275  -0.076   8.963   4.415 -2.9267 -0.2310  0.2483
   48MOL0     H 6276   0.012   9.120   4.448 -0.8930  0.6686  0.2919
   48MOL0     H 6277  -0.170   9.187   4.603  2.7140  3.0550 -3.0329
   48MOL0     H 6278  -0.262   9.035   4.547  0.4602 -0.6910 -1.6793
   48MOL0     H 6279  -0.158   9.276   4.389  1.8881 -1.1918  0.2857
   48MOL0     H 6280  -0.245   9.150   4.308 -0.0247  2.6182 -0.8828
   48MOL0     H 6281  -0.375   9.330   4.489 -0.8091  0.9433 -2.6570
   48MOL0     H 6282  -0.438   9.163   4.457 -0.0445 -0.7553 -1.4617
   48MOL0     H 6283  -0.461   9.247   4.212 -1.1770  1.0520 -0.3825
   48MOL0     H 6284  -0.349   9.380   4.243 -1.7231  0.7327 -0.5919
   48MOL0     H 6285  -0.511   9.477   4.413 -2.0022  2.4406 -1.0847
   48MOL0     H 6286  -0.551   9.473   4.239  0.5104 -1.3856  0.0315
   48MOL0     H 6287  -0.700   9.370   4.449 -0.1795  1.0792 -0.2547
   48MOL0     H 6288  -0.649   9.234   4.337 -2.0180  0.0963 -1.3448
   48MOL0     H 6289  -0.684   9.302   4.061 -1.6263  0.1382 -1.6521
   48MOL0     H 6290  -0.851   9.338   3.854 -2.1709  0.9122 -1.8077
   48MOL0     H 6291  -0.846   9.501   3.888  0.8031  0.2361  1.1311
   48MOL0     H 6292  -1.126   9.403   3.942 -1.0705  3.2242 -0.6146
   48MOL0     H 6293  -1.045   9.272   3.846  0.3012 -0.2719 -0.4056
   48MOL0     H 6294  -1.076   9.552   3.741  2.9979 -0.4817  1.9598
   48MOL0     H 6295  -1.021   9.419   3.646 -0.1507 -3.2849  0.1416
   48MOL0     H 6296  -1.233   9.296   3.676  3.2024 -0.4867  1.1295
   48MOL0     H 6297  -1.240   9.457   3.598 -1.1219  0.1921 -0.4182
   48MOL0     H 6298  -1.441   9.254   3.618 -0.9300 -0.3783 -0.6318
   48MOL0     H 6299  -1.672   9.262   3.560 -0.2296  0.0853  0.8823
   48MOL0     H 6300  -2.060   9.480   3.420 -1.9908  2.1668  0.9848
   48MOL0     H 6301  -2.271   9.459   3.341 -0.1955  0.4096  0.2034
   48MOL0     H 6302  -2.485   9.356   3.236 -2.8422  3.5470  0.5338
   48MOL0     H 6303  -2.509   9.384   3.416  1.1441 -0.2239  0.9979
   48MOL0     H 6304  -2.645   9.187   3.213 -0.9878  2.3719 -2.4603
   48MOL0     H 6305  -2.721   9.326   3.279 -0.1465 -1.0165 -1.1969
   48MOL0     H 6306  -2.693   9.234   3.512  1.8012  1.1041 -0.5138
   48MOL0     H 6307  -2.649   9.080   3.438 -1.2220 -0.0651  0.5846
   48MOL0     H 6308  -2.902   9.246   3.424 -1.9538 -1.9171  2.2509
   48MOL0     H 6309  -2.879   9.116   3.304 -3.0482  1.9573 -0.1634
   48MOL0     H 6310  -2.925   9.089   3.600  1.5908 -0.3184 -0.0744
   48MOL0     H 6311  -2.837   8.970   3.510 -1.5242 -0.7113  0.6747
   48MOL0     H 6312  -3.039   8.965   3.342 -1.8486  1.5968 -1.8318
   48MOL0     H 6313  -3.117   9.082   3.447 -1.4688 -1.0579 -2.3653
   48MOL0     H 6314  -3.029   8.825   3.601 -0.9986 -0.3922  1.3684
   48MOL0     H 6315  -3.157   8.925   3.643  1.2315 -0.6882  0.8496
   48MOL0     H 6316  -3.288   8.848   3.441 -1.6389 -1.0685  0.3744
   48MOL0     H 6317  -3.266   8.725   3.569  0.2619  0.3725  0.2699
   48MOL0     H 6318  -2.277   9.053   3.504 -2.1405  1.5404  1.4886
   48MOL0     H 6319  -2.037   9.102   3.589 -0.5072  0.1369  2.8836
   48MOL0     H 6320  -1.759   9.563   3.853  1.4714 -0.5394  0.9079
   48MOL0     H 6321  -1.512   9.572   3.893  0.3068  0.0172  0.2295
   48MOL0     H 6322   0.114   9.306   4.725  0.2600  0.9358  2.0111
   48MOL0     H 6323   0.343   9.374   4.777  0.3377 -0.3007  0.7052
   48MOL0     H 6324   0.806   9.433   4.665 -0.5655  0.3719  1.2468
   48MOL0     H 6325   0.973   9.575   4.761 -0.1438 -1.4783  0.7953
   48MOL0     H 6326   1.104   9.446   5.192 -0.3804  1.0687  4.9359
   48MOL0     H 6327   1.016   9.596   5.212  1.7554 -1.4478  2.5906
   48MOL0     H 6328   1.298   9.595   5.116 -1.9069 -0.8876 -0.9361
   48MOL0     H 6329   1.209   9.717   5.211  0.4557 -0.2244 -1.1257
   48MOL0     H 6330   1.194   9.514   5.384  0.7253 -1.9263  0.3067
   48MOL0     H 6331   1.335   9.617   5.381  2.0433  0.1212 -2.6602
   48MOL0     H 6332   1.390   9.367   5.385 -1.8021 -0.3395  0.3561
   48MOL0     H 6333   1.317   9.361   5.235 -0.3768  0.7943 -1.2560
   48MOL0     H 6334   1.698   9.561   5.156  1.3049 -2.0784  0.5752
   48MOL0     H 6335   0.867   9.444   5.146  0.6373 -0.5427 -0.3946
   48MOL0     H 6336   0.708   9.296   5.066 -2.2407  1.4637 -0.1762
   49MOL0     O 6337   0.245   8.862   4.090 -0.3792 -0.0969 -0.4029
   49MOL0     C 6338   0.258   8.936   4.191  0.1899  0.2353  0.1495
   49MOL0     O 6339   0.179   9.046   4.225  0.0586 -0.9256 -0.4686
   49MOL0     C 6340   0.061   9.063   4.146 -0.1212 -0.8663  0.4776
   49MOL0     C 6341   0.038   9.182   4.088 -0.2046 -0.0529  0.0224
   49MOL0     C 6342  -0.088   9.208   4.014 -0.5520  0.2827  0.6477
   49MOL0     C 6343  -0.188   9.108   3.993 -0.5551  0.9198 -0.0421
   49MOL0     O 6344  -0.301   9.148   3.921  0.0384  0.5273 -0.3996
   49MOL0     C 6345  -0.411   9.060   3.898  0.1077 -0.1228  0.1267
   49MOL0     C 6346  -0.462   9.104   3.764  1.5993 -0.2540  1.0495
   49MOL0     C 6347  -0.594   9.040   3.735  0.6022  0.3282  0.1246
   49MOL0     C 6348  -0.653   9.105   3.610  0.1395  0.3008  0.0717
   49MOL0     C 6349  -0.781   9.036   3.578  1.1365 -0.5483  0.1731
   49MOL0     C 6350  -0.895   9.046   3.676  0.8943  0.2303 -0.8394
   49MOL0     C 6351  -1.021   9.056   3.600 -0.5965  0.3718  0.3241
   49MOL0     C 6352  -1.052   8.948   3.492  0.1834 -0.1270 -0.7296
   49MOL0     N 6353  -1.194   8.948   3.463  0.2231 -0.5462  0.2810
   49MOL0     C 6354  -1.295   8.863   3.497 -0.1812  0.0302 -0.1931
   49MOL0     C 6355  -1.409   8.923   3.447 -0.2205  1.5000  0.3537
   49MOL0     C 6356  -1.539   8.859   3.466 -0.2738  0.0176  1.0508
   49MOL0     C 6357  -1.652   8.904   3.370  0.7015  0.3736  0.6997
   49MOL0     C 6358  -1.741   9.023   3.423 -0.2926 -0.1334  0.4351
   49MOL0     C 6359  -1.834   9.080   3.316  0.0528  0.3962 -0.2268
   49MOL0     O 6360  -1.906   8.980   3.248  1.0455 -0.0747  0.7571
   49MOL0     C 6361  -2.030   9.015   3.196 -0.1176  0.4773 -1.6014
   49MOL0     C 6362  -2.155   8.975   3.246 -0.9537  0.6177 -0.4080
   49MOL0     C 6363  -2.273   9.005   3.177  0.1063  0.5515 -0.4614
   49MOL0     C 6364  -2.267   9.080   3.057  0.0296 -0.2889 -0.1738
   49MOL0     C 6365  -2.382   9.090   2.962 -0.0400 -0.5190 -0.6067
   49MOL0     O 6366  -2.483   8.999   2.979  0.8716  0.3203 -0.7897
   49MOL0     C 6367  -2.610   9.029   2.937  0.4920 -0.5389  1.5785
   49MOL0     C 6368  -2.647   9.066   2.801 -0.4111  0.2282 -1.0539
   49MOL0     C 6369  -2.783   9.091   2.772  0.5130  0.1983 -0.2484
   49MOL0     C 6370  -2.881   9.068   2.872  0.4947 -0.6990  0.0511
   49MOL0     O 6371  -3.020   9.072   2.852  0.0569 -0.4812 -0.2796
   49MOL0     C 6372  -3.080   9.096   2.727 -0.1287  0.4331  0.1587
   49MOL0     C 6373  -3.231   9.124   2.760 -0.6001 -0.2683 -0.6079
   49MOL0     C 6374  -3.296   9.136   2.628  0.5172  0.4201  0.2341
   49MOL0     C 6375  -3.439   9.198   2.648 -0.6648 -0.0045 -0.5061
   49MOL0     C 6376  -3.509   9.211   2.512  0.6444  0.0145  0.7370
   49MOL0     C 6377  -3.608   9.319   2.499  0.3217  0.1126 -0.7556
   49MOL0     C 6378  -3.534   9.453   2.463 -0.4154 -0.5664 -0.5470
   49MOL0     C 6379  -3.641   9.562   2.487 -0.2585 -0.5729  0.9219
   49MOL0    Cl 6380  -3.666   9.588   2.667  0.0112 -0.2159  0.0245
   49MOL0     C 6381  -2.845   9.037   2.995  0.4166 -0.0699  0.3848
   49MOL0     C 6382  -2.718   9.007   3.020  0.2694  0.9091 -0.2271
   49MOL0     O 6383  -2.386   9.193   2.899 -0.0726 -0.3522  0.0914
   49MOL0     C 6384  -2.138   9.124   3.015  0.2382  0.0426  0.4274
   49MOL0     C 6385  -2.029   9.098   3.086 -0.1773 -0.9851  0.1135
   49MOL0     N 6386  -1.374   9.051   3.400  0.3940  0.0982 -0.0530
   49MOL0     N 6387  -1.247   9.057   3.393  0.0985 -0.1143  0.2789
   49MOL0     C 6388  -0.160   8.982   4.061 -0.7115 -0.7452  0.3416
   49MOL0     C 6389  -0.040   8.969   4.128 -0.3414  0.5249 -0.8864
   49MOL0     C 6390   0.372   8.918   4.282 -0.2093  1.1952 -0.7797
   49MOL0     C 6391   0.451   8.803   4.278 -0.5466  0.5159 -0.0646
   49MOL0     C 6392   0.545   8.792   4.382  0.0811  0.2515 -0.7778
   49MOL0     C 6393   0.581   8.879   4.484 -0.2377 -0.4161  0.6331
   49MOL0     O 6394   0.693   8.853   4.570  0.5562  0.4898  0.5905
   49MOL0     C 6395   0.731   8.956   4.662 -0.1796  0.1286  0.3982
   49MOL0     C 6396   0.869   8.929   4.726 -0.2783  0.0236 -0.7812
   49MOL0     C 6397   0.936   9.045   4.801  0.5181 -0.0746 -0.4086
   49MOL0     C 6398   1.082   9.003   4.834 -0.3322 -0.4322 -0.8404
   49MOL0     C 6399   1.144   9.086   4.931 -0.4214 -0.0017  0.8583
   49MOL0     C 6400   1.203   9.156   5.017  0.3674  0.3752  0.2000
   49MOL0     C 6401   0.497   8.987   4.495 -0.0826 -0.0194  0.5117
   49MOL0     C 6402   0.406   9.012   4.388  0.3411  0.0470  0.3028
   49MOL0     H 6403   0.109   9.264   4.095 -1.9101  1.5825 -1.0364
   49MOL0     H 6404  -0.100   9.308   3.974  2.3495  0.2032 -0.7041
   49MOL0     H 6405  -0.485   9.085   3.975  0.8173  2.5432  0.0724
   49MOL0     H 6406  -0.389   8.954   3.905  0.2445 -0.1724 -0.9415
   49MOL0     H 6407  -0.390   9.085   3.684 -0.1142  1.7495 -1.1141
   49MOL0     H 6408  -0.472   9.212   3.777 -1.5786 -0.6448  2.9791
   49MOL0     H 6409  -0.663   9.055   3.818  0.0306 -1.3996  0.0001
   49MOL0     H 6410  -0.586   8.931   3.733 -1.5079  0.0445  2.5530
   49MOL0     H 6411  -0.681   9.206   3.642 -3.6910 -0.2539 -0.9911
   49MOL0     H 6412  -0.582   9.112   3.527 -0.9834  0.5021 -0.9048
   49MOL0     H 6413  -0.760   8.934   3.543  2.3368 -0.0035 -0.7714
   49MOL0     H 6414  -0.818   9.089   3.490 -1.5176 -0.3606  1.3276
   49MOL0     H 6415  -0.879   9.133   3.740  5.0493 -1.5483  0.8887
   49MOL0     H 6416  -0.900   8.953   3.733 -0.0610  1.3287  0.9725
   49MOL0     H 6417  -1.100   9.053   3.676 -0.0838  1.7117  0.9589
   49MOL0     H 6418  -1.023   9.155   3.554 -2.2064  1.1406  1.9129
   49MOL0     H 6419  -1.023   8.850   3.531  0.6711  0.6483  0.9293
   49MOL0     H 6420  -0.995   8.950   3.398 -0.6713 -0.5988 -1.2786
   49MOL0     H 6421  -1.279   8.769   3.550 -0.4598  1.1816  2.0535
   49MOL0     H 6422  -1.566   8.856   3.572  4.0210 -4.1620  2.3630
   49MOL0     H 6423  -1.522   8.752   3.452  0.2009 -0.0565  2.1115
   49MOL0     H 6424  -1.720   8.823   3.341  1.8679 -0.7389  0.9805
   49MOL0     H 6425  -1.600   8.943   3.281  2.2395 -0.6707  1.1081
   49MOL0     H 6426  -1.798   9.010   3.516  1.2438 -1.7927  1.2132
   49MOL0     H 6427  -1.668   9.103   3.435 -0.8346  0.4765 -0.2467
   49MOL0     H 6428  -1.770   9.130   3.243  2.8278 -0.8822  1.1980
   49MOL0     H 6429  -1.911   9.149   3.354 -0.7448  0.6908 -2.2516
   49MOL0     H 6430  -2.168   8.903   3.327  1.7870  2.5958  2.0214
   49MOL0     H 6431  -2.360   8.957   3.220  1.0552 -0.7760  0.0598
   49MOL0     H 6432  -2.582   9.072   2.714  2.6400  0.6965  1.0986
   49MOL0     H 6433  -2.814   9.117   2.672  1.3404  1.0612 -0.3030
   49MOL0     H 6434  -3.073   8.997   2.681 -0.0977 -1.3873  3.7998
   49MOL0     H 6435  -3.029   9.182   2.681  0.3589  0.5401  0.8947
   49MOL0     H 6436  -3.256   9.219   2.808 -2.8343 -0.5316 -1.0991
   49MOL0     H 6437  -3.270   9.046   2.827 -2.3002  2.6055  2.0623
   49MOL0     H 6438  -3.307   9.044   2.569 -0.2217  0.1420  0.7834
   49MOL0     H 6439  -3.245   9.211   2.566 -0.8910  1.2746  0.0519
   49MOL0     H 6440  -3.499   9.128   2.708  0.7682 -2.2361 -1.5607
   49MOL0     H 6441  -3.428   9.296   2.696  1.7109 -0.5301  0.1374
   49MOL0     H 6442  -3.554   9.116   2.482  0.0559 -0.0497  1.7672
   49MOL0     H 6443  -3.428   9.227   2.441  2.0973  0.4877  2.4165
   49MOL0     H 6444  -3.672   9.322   2.588  0.4419 -0.8524 -0.6248
   49MOL0     H 6445  -3.679   9.301   2.418  2.0290  1.7646 -2.7210
   49MOL0     H 6446  -3.452   9.471   2.534  0.1932  0.9977 -1.5699
   49MOL0     H 6447  -3.501   9.448   2.359 -0.6562  1.1158 -0.7364
   49MOL0     H 6448  -3.731   9.526   2.437 -0.0016  2.4274 -2.0371
   49MOL0     H 6449  -3.605   9.658   2.448 -3.3640  0.3621 -0.0101
   49MOL0     H 6450  -2.912   9.024   3.079  2.6890  0.5623  2.4353
   49MOL0     H 6451  -2.686   8.968   3.117 -0.6660  1.7961  0.4597
   49MOL0     H 6452  -2.124   9.178   2.922  1.2298  1.8231  1.5470
   49MOL0     H 6453  -1.933   9.132   3.048 -0.6781 -1.9108 -2.1818
   49MOL0     H 6454  -0.223   8.895   4.052  2.3477 -2.9737 -1.2837
   49MOL0     H 6455  -0.027   8.875   4.180  0.0886  1.3527  0.5604
   49MOL0     H 6456   0.442   8.721   4.207  2.0951 -1.8185  2.0797
   49MOL0     H 6457   0.615   8.710   4.377  2.1502  1.6314  2.2105
   49MOL0     H 6458   0.653   8.978   4.736 -0.9144  0.0130 -0.3258
   49MOL0     H 6459   0.755   9.042   4.600  1.5847 -0.1775  0.5902
   49MOL0     H 6460   0.862   8.842   4.793  1.2244 -1.1189 -2.0333
   49MOL0     H 6461   0.934   8.910   4.640 -0.8161  2.8035 -1.9146
   49MOL0     H 6462   0.876   9.057   4.892 -0.1833  1.9599 -1.0851
   49MOL0     H 6463   0.934   9.142   4.750 -1.2988  1.7703  2.8214
   49MOL0     H 6464   1.099   8.905   4.878 -0.1206 -0.1267 -0.2429
   49MOL0     H 6465   1.130   9.018   4.737 -1.3579 -0.7187 -1.4116
   49MOL0     H 6466   1.263   9.213   5.085  0.2698  1.9101 -0.9624
   49MOL0     H 6467   0.517   9.061   4.572  0.5369 -0.5031  0.8275
   49MOL0     H 6468   0.356   9.108   4.394 -0.7568 -0.5041  5.4678
   50MOL0     O 6469   6.090   7.955   3.000  0.2940  0.0666 -0.3653
   50MOL0     C 6470   6.139   8.065   3.010  1.5646  0.0354  0.6121
   50MOL0     O 6471   6.079   8.172   3.059 -0.0967  0.3487 -0.1545
   50MOL0     C 6472   5.963   8.158   3.123  0.3109 -0.4149 -0.3358
   50MOL0     C 6473   5.846   8.169   3.044 -0.0800  0.1152  0.1000
   50MOL0     C 6474   5.721   8.160   3.106  0.5747  0.5323  0.2506
   50MOL0     C 6475   5.710   8.146   3.239  0.0360 -0.3170  0.0679
   50MOL0     O 6476   5.583   8.136   3.302 -0.2190  0.4488  0.3907
   50MOL0     C 6477   5.475   8.206   3.249 -0.1811 -0.0640  0.3213
   50MOL0     C 6478   5.363   8.112   3.195 -0.7254 -0.6492  1.0698
   50MOL0     C 6479   5.232   8.183   3.171 -0.1018 -0.5651  0.9593
   50MOL0     C 6480   5.151   8.179   3.292  0.7025  0.2341 -0.1507
   50MOL0     C 6481   4.995   8.204   3.291  0.3368  0.1508 -0.1355
   50MOL0     C 6482   4.943   8.169   3.431  0.5686 -0.1569 -0.0154
   50MOL0     C 6483   4.795   8.197   3.445 -0.0034 -0.2468 -0.6767
   50MOL0     C 6484   4.756   8.210   3.592 -0.3422 -0.4699 -0.6309
   50MOL0     N 6485   4.799   8.339   3.659 -0.1190 -0.3956 -0.4995
   50MOL0     C 6486   4.719   8.450   3.662  0.4178 -0.1845 -0.2126
   50MOL0     C 6487   4.787   8.529   3.757  0.2956 -0.0287  0.2083
   50MOL0     C 6488   4.754   8.666   3.803  1.1095 -0.5853 -0.9210
   50MOL0     C 6489   4.802   8.771   3.696 -0.3914 -0.0880 -0.3091
   50MOL0     C 6490   4.952   8.786   3.710  0.0739 -0.0825 -0.8934
   50MOL0     C 6491   5.010   8.920   3.662 -0.5775 -0.1470 -0.2156
   50MOL0     O 6492   5.122   8.894   3.582  0.5228 -0.4248  0.2513
   50MOL0     C 6493   5.191   8.995   3.526 -0.0462  1.0453  0.2751
   50MOL0     C 6494   5.188   9.125   3.574 -0.0773  0.3711  0.2741
   50MOL0     C 6495   5.270   9.223   3.524  0.0733 -0.1445  0.6868
   50MOL0     C 6496   5.339   9.194   3.414 -0.1070  0.3994  0.4319
   50MOL0     C 6497   5.412   9.302   3.351  1.0425  0.2283  0.5526
   50MOL0     O 6498   5.537   9.271   3.313  0.1802  0.2371 -0.1375
   50MOL0     C 6499   5.625   9.371   3.286  0.2550  0.3543  0.3507
   50MOL0     C 6500   5.656   9.471   3.383  0.4424  0.6217  0.3172
   50MOL0     C 6501   5.753   9.569   3.354  0.0665  0.5737  0.0639
   50MOL0     C 6502   5.830   9.557   3.244  1.2299 -0.5274 -0.3966
   50MOL0     O 6503   5.946   9.617   3.219  1.0329 -0.3467  0.2266
   50MOL0     C 6504   5.994   9.715   3.309 -0.6807 -0.4157 -0.8818
   50MOL0     C 6505   6.130   9.764   3.257 -0.1593 -0.6964  0.4140
   50MOL0     C 6506   6.216   9.792   3.382  0.1884 -0.8479 -0.0589
   50MOL0     C 6507   6.368   9.793   3.346 -0.0333 -0.4192  0.2369
   50MOL0     C 6508   6.466   9.806   3.458  0.3567  0.5120 -0.3003
   50MOL0     C 6509   6.588   9.880   3.404 -0.8925 -0.0624  0.0464
   50MOL0     C 6510   6.661   9.812   3.290 -0.3583  0.4850 -0.0452
   50MOL0     C 6511   6.772   9.902   3.240 -0.2533  1.1677 -0.5513
   50MOL0    Cl 6512   6.855   9.802   3.113  0.1747 -0.1732  0.5205
   50MOL0     C 6513   5.796   9.469   3.146 -0.1966  0.5021  1.4571
   50MOL0     C 6514   5.690   9.383   3.158 -0.0035  0.6257 -0.5717
   50MOL0     O 6515   5.362   9.415   3.343  0.1532  0.1215 -0.0843
   50MOL0     C 6516   5.359   9.062   3.372  0.2408  0.2294  1.0551
   50MOL0     C 6517   5.273   8.966   3.418  0.1646 -0.1176 -0.3871
   50MOL0     N 6518   4.898   8.453   3.807  0.5755 -0.0334 -0.2122
   50MOL0     N 6519   4.911   8.351   3.736  0.2523 -0.3300 -0.0401
   50MOL0     C 6520   5.832   8.133   3.322  0.3260 -0.1607  0.5966
   50MOL0     C 6521   5.960   8.154   3.263  0.8774 -0.8702 -0.0610
   50MOL0     C 6522   6.270   8.082   2.943  0.1269  0.2706  0.6005
   50MOL0     C 6523   6.331   7.973   2.869 -0.1737 -0.1514  0.2456
   50MOL0     C 6524   6.461   7.989   2.804 -0.1162 -0.5155  0.1964
   50MOL0     C 6525   6.533   8.115   2.824  0.1273  0.3242  0.2465
   50MOL0     O 6526   6.653   8.145   2.769  0.5150 -0.1942  0.4503
   50MOL0     C 6527   6.735   8.041   2.735  0.4553  0.3548  0.8296
   50MOL0     C 6528   6.863   8.107   2.669  0.8116  0.2407  0.3440
   50MOL0     C 6529   6.974   8.002   2.652  0.0748  0.2901 -0.2192
   50MOL0     C 6530   7.093   8.070   2.582  0.1950  0.6909  0.0755
   50MOL0     C 6531   7.197   7.979   2.532 -0.1037 -0.7277  0.3265
   50MOL0     C 6532   7.278   7.907   2.484 -0.6592 -0.4891  0.6401
   50MOL0     C 6533   6.474   8.213   2.905 -0.7775  0.6742  1.3043
   50MOL0     C 6534   6.345   8.198   2.960 -0.1851  0.2353  0.4339
   50MOL0     H 6535   5.861   8.185   2.937  1.1309  1.2565  0.4094
   50MOL0     H 6536   5.631   8.151   3.046  1.3065  0.4828 -0.8677
   50MOL0     H 6537   5.505   8.280   3.174 -3.5025  2.1108  0.9301
   50MOL0     H 6538   5.427   8.259   3.332 -3.9510 -3.8285  0.9159
   50MOL0     H 6539   5.348   8.027   3.262 -3.0422 -2.8991 -2.0197
   50MOL0     H 6540   5.393   8.068   3.099  1.9357  1.9723  0.5441
   50MOL0     H 6541   5.181   8.121   3.097  0.9884 -0.4708  0.1032
   50MOL0     H 6542   5.242   8.286   3.134 -0.4158 -0.7602  0.3200
   50MOL0     H 6543   5.163   8.080   3.339  0.3222  0.4012  0.3119
   50MOL0     H 6544   5.195   8.258   3.353 -1.1919  3.2333 -2.4262
   50MOL0     H 6545   4.942   8.142   3.219  1.5883  1.0536 -1.9028
   50MOL0     H 6546   4.976   8.311   3.274 -0.9926  0.1789  1.2766
   50MOL0     H 6547   4.986   8.233   3.509 -1.5464  3.1598 -1.3635
   50MOL0     H 6548   4.959   8.061   3.444 -1.0460 -0.2013  1.9251
   50MOL0     H 6549   4.756   8.270   3.373 -0.1150 -2.4850 -3.0484
   50MOL0     H 6550   4.741   8.112   3.403 -3.9585  3.1232 -3.3669
   50MOL0     H 6551   4.801   8.123   3.639 -0.0384 -0.3035 -0.6133
   50MOL0     H 6552   4.647   8.219   3.594 -0.2380  1.0799  1.0687
   50MOL0     H 6553   4.637   8.490   3.604 -0.1077  1.9308  1.8140
   50MOL0     H 6554   4.797   8.682   3.903 -2.1687  1.5952  0.3005
   50MOL0     H 6555   4.647   8.675   3.822  1.6324 -0.8312  3.1196
   50MOL0     H 6556   4.761   8.869   3.724  3.3337  1.4570  0.3232
   50MOL0     H 6557   4.771   8.738   3.596 -4.6011 -1.8914  1.3450
   50MOL0     H 6558   4.987   8.770   3.812  2.1780  2.6573 -1.0816
   50MOL0     H 6559   5.000   8.708   3.650  1.1136  1.0898 -1.6208
   50MOL0     H 6560   5.034   8.978   3.752 -0.3978 -2.5272  1.3776
   50MOL0     H 6561   4.942   8.975   3.597 -0.2230 -0.2555 -0.6819
   50MOL0     H 6562   5.137   9.159   3.663 -1.4363 -2.4394  0.6743
   50MOL0     H 6563   5.281   9.320   3.572 -0.8789 -0.7107  2.0947
   50MOL0     H 6564   5.602   9.477   3.477 -0.6997 -1.5817 -0.1426
   50MOL0     H 6565   5.780   9.630   3.440 -0.1252 -0.4698  0.8790
   50MOL0     H 6566   5.998   9.653   3.399 -1.4922 -1.4369 -1.5230
   50MOL0     H 6567   5.925   9.799   3.327 -2.1905 -2.0007  1.3389
   50MOL0     H 6568   6.117   9.851   3.192 -1.1593  1.0560  2.7776
   50MOL0     H 6569   6.180   9.681   3.206 -0.9330 -1.3412  0.6799
   50MOL0     H 6570   6.215   9.720   3.464  1.4344  0.0334  0.7731
   50MOL0     H 6571   6.196   9.895   3.411  2.1559 -0.4034 -0.1255
   50MOL0     H 6572   6.402   9.725   3.267  0.2224 -0.0327  0.0085
   50MOL0     H 6573   6.369   9.887   3.289 -2.2057  0.6849  1.8517
   50MOL0     H 6574   6.481   9.713   3.514  0.2610 -0.4191 -1.7705
   50MOL0     H 6575   6.415   9.873   3.528  0.3242  0.6378 -0.4446
   50MOL0     H 6576   6.657   9.900   3.486  0.7640  2.2240 -1.7683
   50MOL0     H 6577   6.567   9.984   3.376  0.2994  0.3886  0.7747
   50MOL0     H 6578   6.704   9.722   3.334 -0.3943  1.3595  1.8697
   50MOL0     H 6579   6.596   9.788   3.205  2.6101 -4.3778 -1.2931
   50MOL0     H 6580   6.843   9.927   3.319  0.3264 -3.4005  0.6428
   50MOL0     H 6581   6.733   9.997   3.200 -1.2287  1.6306  1.3445
   50MOL0     H 6582   5.858   9.465   3.057 -2.6333  1.1474 -0.3769
   50MOL0     H 6583   5.669   9.321   3.072  0.7974  0.6894 -0.8178
   50MOL0     H 6584   5.429   9.040   3.291 -1.3481  1.2653 -0.6961
   50MOL0     H 6585   5.247   8.874   3.367 -0.5637 -0.8611  1.2361
   50MOL0     H 6586   5.828   8.122   3.430  0.8092  0.7337  0.7106
   50MOL0     H 6587   6.043   8.157   3.333  0.8309  0.0662 -0.0331
   50MOL0     H 6588   6.269   7.886   2.851 -2.1090  1.3096 -0.5823
   50MOL0     H 6589   6.498   7.915   2.734  2.6883  0.9671 -0.0377
   50MOL0     H 6590   6.683   7.986   2.657  0.9106  0.8247  0.1883
   50MOL0     H 6591   6.751   7.969   2.816  0.2734 -2.3528 -1.3922
   50MOL0     H 6592   6.838   8.136   2.566 -3.2968 -1.9553  0.5082
   50MOL0     H 6593   6.889   8.195   2.728 -0.9751  0.7858  0.3592
   50MOL0     H 6594   6.923   7.924   2.593  1.5467 -1.5870  0.8915
   50MOL0     H 6595   7.003   7.960   2.748 -0.3355  0.4868 -0.0030
   50MOL0     H 6596   7.050   8.128   2.500  0.0694 -0.1460 -0.4614
   50MOL0     H 6597   7.136   8.148   2.646 -1.9219  1.7513  0.2931
   50MOL0     H 6598   7.344   7.839   2.435  1.2366 -0.8496  3.4770
   50MOL0     H 6599   6.536   8.297   2.931  2.8366 -0.5101 -2.4554
   50MOL0     H 6600   6.297   8.281   3.012 -0.3213  0.7866 -0.5268
   51MOL0     O 6601   1.123   9.847   1.169  0.3633 -0.6053 -0.4539
   51MOL0     C 6602   1.170   9.751   1.236  0.0253 -0.3715  0.3534
   51MOL0     O 6603   1.091   9.661   1.306  0.6570  0.3753 -0.0998
   51MOL0     C 6604   0.951   9.668   1.305 -0.7268 -0.8716 -0.1033
   51MOL0     C 6605   0.886   9.648   1.186 -0.1965  0.4440 -1.2862
   51MOL0     C 6606   0.742   9.651   1.179 -0.3205  0.1141 -0.2182
   51MOL0     C 6607   0.673   9.688   1.291 -0.2539 -0.1250 -0.7629
   51MOL0     O 6608   0.534   9.682   1.286  0.4260  0.9192  0.2664
   51MOL0     C 6609   0.465   9.606   1.380  0.2332  0.0846  0.2239
   51MOL0     C 6610   0.361   9.699   1.459 -0.2822 -0.0057  0.0684
   51MOL0     C 6611   0.226   9.723   1.383 -0.9723  0.3337 -0.7697
   51MOL0     C 6612   0.255   9.789   1.254  0.0006 -0.4420 -0.3997
   51MOL0     C 6613   0.147   9.882   1.200  0.3698  0.6216  0.5596
   51MOL0     C 6614   0.021   9.801   1.189 -0.1452 -1.0885 -0.6024
   51MOL0     C 6615  -0.098   9.901   1.167 -0.1426  0.3651 -0.6142
   51MOL0     C 6616  -0.221   9.858   1.241  0.4474 -0.0552 -0.7572
   51MOL0     N 6617  -0.220   9.891   1.385  0.7678  0.0574 -0.3147
   51MOL0     C 6618  -0.211  10.013   1.453  0.2529  0.0471  0.5960
   51MOL0     C 6619  -0.182   9.986   1.581  0.1448  0.5818  0.1363
   51MOL0     C 6620  -0.139  10.078   1.691  0.1069 -0.0738  0.0002
   51MOL0     C 6621  -0.007  10.140   1.648 -0.2697  0.4896 -0.6102
   51MOL0     C 6622  -0.030  10.273   1.574 -0.2171  1.2550  0.2152
   51MOL0     C 6623  -0.076  10.393   1.647  0.5108 -1.4704 -0.7285
   51MOL0     O 6624  -0.213  10.393   1.683 -0.0647  0.5399 -0.8619
   51MOL0     C 6625  -0.312  10.419   1.595  0.0645 -0.5528 -0.1746
   51MOL0     C 6626  -0.293  10.489   1.467 -0.7322 -0.4909  0.8510
   51MOL0     C 6627  -0.402  10.521   1.385  0.3368  0.0302 -0.1994
   51MOL0     C 6628  -0.532  10.489   1.433  0.4781 -0.4925  0.0463
   51MOL0     C 6629  -0.649  10.522   1.359 -0.2571  0.0092  0.4113
   51MOL0     O 6630  -0.763  10.468   1.404  0.2967  0.2167  0.1357
   51MOL0     C 6631  -0.878  10.483   1.332 -0.5725 -0.2229  0.6094
   51MOL0     C 6632  -0.996  10.502   1.402  0.5759  0.5561 -0.7794
   51MOL0     C 6633  -1.116  10.522   1.333 -0.5615  1.1926 -0.1009
   51MOL0     C 6634  -1.106  10.518   1.190  0.0228  0.0075 -0.2581
   51MOL0     O 6635  -1.220  10.534   1.121  0.1190 -0.2817  0.1631
   51MOL0     C 6636  -1.353  10.508   1.169 -0.4263  0.6173  0.3269
   51MOL0     C 6637  -1.450  10.506   1.060  0.0379  0.2552  0.1524
   51MOL0     C 6638  -1.584  10.463   1.112  0.3761 -0.1224 -0.0966
   51MOL0     C 6639  -1.704  10.477   1.009  0.6485  1.3422 -0.4739
   51MOL0     C 6640  -1.835  10.454   1.084  0.3231 -0.3125  0.1239
   51MOL0     C 6641  -1.944  10.493   0.989 -0.2367  0.5273  0.1688
   51MOL0     C 6642  -2.081  10.458   1.051  1.1847  0.6330 -0.3700
   51MOL0     C 6643  -2.196  10.484   0.958 -0.0928  0.2906 -0.1597
   51MOL0    Cl 6644  -2.350  10.406   1.010 -0.0933  0.1371 -0.4478
   51MOL0     C 6645  -0.992  10.485   1.125  0.6077  0.6071  1.1654
   51MOL0     C 6646  -0.881  10.467   1.187 -0.7760 -0.3773 -0.3383
   51MOL0     O 6647  -0.639  10.595   1.262  0.0159  0.1299  0.1733
   51MOL0     C 6648  -0.552  10.420   1.551 -0.0176  0.3520  0.4387
   51MOL0     C 6649  -0.436  10.385   1.629  0.4509 -0.0396  0.3858
   51MOL0     N 6650  -0.188   9.847   1.593 -0.5205  0.3890  0.1589
   51MOL0     N 6651  -0.191   9.795   1.478  0.4163  0.0112 -0.1215
   51MOL0     C 6652   0.740   9.728   1.407 -0.1668  0.2831 -0.5398
   51MOL0     C 6653   0.873   9.722   1.413 -0.7986 -0.7975 -0.8360
   51MOL0     C 6654   1.319   9.734   1.234 -0.1865  0.1371 -0.1348
   51MOL0     C 6655   1.373   9.639   1.322  0.2300 -0.2200 -0.0432
   51MOL0     C 6656   1.510   9.614   1.327 -0.5575  0.2040 -1.1092
   51MOL0     C 6657   1.598   9.672   1.241 -0.3881  0.1772  0.4537
   51MOL0     O 6658   1.732   9.664   1.253 -0.7884  0.4531  0.3533
   51MOL0     C 6659   1.782   9.534   1.302 -0.0913  0.2885  0.2548
   51MOL0     C 6660   1.930   9.501   1.272 -0.3411  0.5480  0.3571
   51MOL0     C 6661   2.030   9.619   1.290 -0.5812 -0.4414 -0.2215
   51MOL0     C 6662   2.186   9.584   1.241  0.8322 -0.1671 -1.2706
   51MOL0     C 6663   2.279   9.688   1.303 -0.9288  1.2617 -0.3598
   51MOL0     C 6664   2.339   9.780   1.361 -0.5115  0.5678 -0.1578
   51MOL0     C 6665   1.540   9.769   1.154  0.0994 -0.2461 -0.1285
   51MOL0     C 6666   1.402   9.806   1.154 -1.5491  0.2003  0.0437
   51MOL0     H 6667   0.937   9.628   1.092 -1.1478 -2.6788 -1.2351
   51MOL0     H 6668   0.669   9.620   1.105 -1.0019  1.7376 -0.2642
   51MOL0     H 6669   0.524   9.560   1.460 -1.4445  0.4352  1.7220
   51MOL0     H 6670   0.408   9.524   1.335 -0.3114  0.3339  0.4537
   51MOL0     H 6671   0.410   9.793   1.488  0.6758 -1.3533  3.2092
   51MOL0     H 6672   0.339   9.648   1.552  0.9317  0.4255  0.6120
   51MOL0     H 6673   0.153   9.776   1.445  0.2899  0.0758  1.0532
   51MOL0     H 6674   0.183   9.623   1.370  1.2383 -0.6793 -0.8018
   51MOL0     H 6675   0.346   9.848   1.268 -0.8094  0.5488  1.0736
   51MOL0     H 6676   0.282   9.711   1.183  1.4452 -0.5652  0.2545
   51MOL0     H 6677   0.181   9.922   1.104  2.7207 -0.0397  1.0467
   51MOL0     H 6678   0.146   9.973   1.260  0.2466  0.0892  1.3745
   51MOL0     H 6679  -0.003   9.751   1.283 -2.8686  0.1092 -0.5710
   51MOL0     H 6680   0.032   9.738   1.100 -1.1980  0.1202 -1.6295
   51MOL0     H 6681  -0.075  10.005   1.192  0.5883  0.7759 -2.7626
   51MOL0     H 6682  -0.118   9.889   1.060  2.7984 -4.2480 -0.9353
   51MOL0     H 6683  -0.256   9.756   1.223 -0.8596  0.4677 -1.2880
   51MOL0     H 6684  -0.305   9.913   1.198  0.1749 -0.5211 -0.8306
   51MOL0     H 6685  -0.204  10.112   1.410  0.9110 -0.1123  0.3142
   51MOL0     H 6686  -0.131  10.033   1.790 -0.7271  0.6167  0.3934
   51MOL0     H 6687  -0.226  10.142   1.705 -1.7475 -2.4183 -0.1875
   51MOL0     H 6688   0.044  10.068   1.584 -2.1681 -2.0751  0.5941
   51MOL0     H 6689   0.053  10.172   1.734  0.2691 -2.5441  0.2303
   51MOL0     H 6690   0.064  10.289   1.521  0.3344 -2.7440 -0.3307
   51MOL0     H 6691  -0.112  10.253   1.505 -0.6376 -4.1405  1.8103
   51MOL0     H 6692  -0.055  10.486   1.593 -1.5472  1.2677  2.7533
   51MOL0     H 6693  -0.010  10.410   1.733  1.1212 -0.1121 -1.4401
   51MOL0     H 6694  -0.196  10.535   1.451 -1.6600  1.4220  0.3409
   51MOL0     H 6695  -0.392  10.590   1.302 -0.9032  1.9886  1.1846
   51MOL0     H 6696  -1.004  10.508   1.510 -2.2520 -0.0643 -0.8804
   51MOL0     H 6697  -1.212  10.542   1.380  0.1351  0.7869  1.5504
   51MOL0     H 6698  -1.384  10.576   1.250 -4.5934 -1.4602  0.7745
   51MOL0     H 6699  -1.353  10.405   1.206  1.7795  0.0673 -1.0646
   51MOL0     H 6700  -1.415  10.428   0.991  1.0773  0.9234 -0.0988
   51MOL0     H 6701  -1.458  10.601   1.007  3.6289 -0.2337 -1.6237
   51MOL0     H 6702  -1.607  10.520   1.203  3.2813  1.1014 -0.0036
   51MOL0     H 6703  -1.577  10.358   1.139  1.1893 -0.5244 -1.7245
   51MOL0     H 6704  -1.716  10.578   0.968 -0.4054  1.3516 -0.1572
   51MOL0     H 6705  -1.686  10.408   0.926  1.3217  0.2950  0.5046
   51MOL0     H 6706  -1.832  10.524   1.168 -1.8203  0.0292 -0.0302
   51MOL0     H 6707  -1.851  10.348   1.108  2.9247 -1.5890 -2.9491
   51MOL0     H 6708  -1.935  10.440   0.893  2.2042 -0.1987  0.7148
   51MOL0     H 6709  -1.934  10.599   0.964  0.7485  0.0706 -1.5659
   51MOL0     H 6710  -2.072  10.356   1.089  0.9511  0.0607 -1.8184
   51MOL0     H 6711  -2.098  10.514   1.144  1.0245 -2.6320  1.7638
   51MOL0     H 6712  -2.170  10.458   0.855  1.7546  3.4156 -0.5928
   51MOL0     H 6713  -2.219  10.591   0.951 -0.6248  0.3336  1.7083
   51MOL0     H 6714  -1.003  10.479   1.017 -0.1411  3.7657  0.9637
   51MOL0     H 6715  -0.794  10.442   1.127 -0.3385  0.0031  0.1244
   51MOL0     H 6716  -0.652  10.396   1.586 -0.5598  0.6883 -0.8290
   51MOL0     H 6717  -0.460  10.327   1.717  0.2480 -1.3762 -0.5204
   51MOL0     H 6718   0.677   9.776   1.481 -2.8614  0.6209 -2.9125
   51MOL0     H 6719   0.916   9.757   1.506 -1.6469  3.3979 -1.8030
   51MOL0     H 6720   1.309   9.590   1.394 -2.6298  0.7208 -1.7540
   51MOL0     H 6721   1.536   9.535   1.396 -2.1174  1.3835  0.9403
   51MOL0     H 6722   1.731   9.452   1.250 -0.5388 -1.5898  3.4352
   51MOL0     H 6723   1.757   9.518   1.407 -2.0986 -1.5424 -0.4414
   51MOL0     H 6724   1.947   9.417   1.339 -0.0987  3.1145  3.7862
   51MOL0     H 6725   1.944   9.479   1.165 -0.6648  1.5718  0.0874
   51MOL0     H 6726   2.034   9.636   1.398  0.7785 -0.1672 -0.2925
   51MOL0     H 6727   2.005   9.708   1.232  1.4895  0.3854  0.0494
   51MOL0     H 6728   2.218   9.485   1.276  1.4120  1.1417  2.3377
   51MOL0     H 6729   2.195   9.582   1.132  0.0446 -0.6611 -1.3380
   51MOL0     H 6730   2.381   9.832   1.445 -0.7943 -0.1987  0.4641
   51MOL0     H 6731   1.603   9.827   1.088  1.5078 -0.7331  0.7542
   51MOL0     H 6732   1.357   9.884   1.092 -0.2567  3.1881  2.6243
   52MOL0     O 6733   8.960   0.925   9.349  0.5714 -0.8209 -0.4125
   52MOL0     C 6734   9.017   1.036   9.346 -0.1738  0.7366 -0.0277
   52MOL0     O 6735   8.962   1.151   9.295 -0.6297  0.3345  0.3990
   52MOL0     C 6736   8.838   1.150   9.239  0.3994  0.5179 -0.5148
   52MOL0     C 6737   8.721   1.096   9.292 -0.2829 -1.0168  0.2307
   52MOL0     C 6738   8.600   1.095   9.215  0.2059 -0.0109  0.0462
   52MOL0     C 6739   8.593   1.131   9.080 -0.0690  0.5697  0.0963
   52MOL0     O 6740   8.483   1.122   9.000  0.1738 -0.2926 -0.0828
   52MOL0     C 6741   8.356   1.088   9.053  0.0070  0.3528 -0.2972
   52MOL0     C 6742   8.258   1.079   8.944 -0.8226  0.2094  0.6582
   52MOL0     C 6743   8.117   1.095   9.005  0.1623 -0.0015 -0.3334
   52MOL0     C 6744   8.018   1.086   8.898 -0.2601 -0.9668  0.7391
   52MOL0     C 6745   7.876   1.051   8.946 -0.1208  0.2730 -0.1493
   52MOL0     C 6746   7.840   1.120   9.072 -0.2759 -0.1273  1.0675
   52MOL0     C 6747   7.692   1.115   9.108  0.4477  0.0156 -0.0737
   52MOL0     C 6748   7.630   0.978   9.074  0.5515  0.4530  0.1888
   52MOL0     N 6749   7.497   0.990   9.137 -0.1819 -0.2931 -0.5966
   52MOL0     C 6750   7.396   1.085   9.106  0.3322 -0.5856  0.2839
   52MOL0     C 6751   7.306   1.078   9.207  0.1515  0.5270  1.2577
   52MOL0     C 6752   7.192   1.170   9.233  0.6376  0.4350 -0.6037
   52MOL0     C 6753   7.231   1.315   9.252  0.2244 -1.0479  0.8746
   52MOL0     C 6754   7.113   1.409   9.277  0.2777  0.2375  0.1379
   52MOL0     C 6755   7.153   1.549   9.309  0.1455 -0.7157  0.4246
   52MOL0     O 6756   7.042   1.646   9.302  0.1678 -0.0635  0.0632
   52MOL0     C 6757   6.977   1.677   9.417 -0.5077 -0.4807  0.8489
   52MOL0     C 6758   6.884   1.779   9.399 -0.7344 -0.4971  0.8017
   52MOL0     C 6759   6.803   1.827   9.502 -0.1118 -0.5527 -0.2919
   52MOL0     C 6760   6.807   1.765   9.626  0.2830  0.0680 -1.1122
   52MOL0     C 6761   6.725   1.807   9.737  1.0925 -0.1255 -0.2808
   52MOL0     O 6762   6.665   1.929   9.739 -0.6885 -0.2075 -0.2100
   52MOL0     C 6763   6.601   1.968   9.860 -0.4650  0.0197 -0.1783
   52MOL0     C 6764   6.662   2.050   9.954 -0.8585  0.1175  0.2273
   52MOL0     C 6765   6.610   2.097  10.073  1.4944 -0.4750  0.1043
   52MOL0     C 6766   6.476   2.065  10.095  1.9901 -0.5910  0.3157
   52MOL0     O 6767   6.404   2.091  10.208 -0.1942  0.2801  0.4577
   52MOL0     C 6768   6.455   2.198  10.290  1.3935 -0.0280  0.0357
   52MOL0     C 6769   6.418   2.342  10.231  1.1793 -0.0635 -0.0597
   52MOL0     C 6770   6.270   2.345  10.188 -0.9734 -0.4902 -0.4185
   52MOL0     C 6771   6.219   2.486  10.164 -0.2218  0.6894  1.1719
   52MOL0     C 6772   6.071   2.499  10.206 -0.1366  0.8700 -0.8330
   52MOL0     C 6773   5.974   2.381  10.156 -0.2754 -0.4168 -0.7965
   52MOL0     C 6774   5.827   2.422  10.157 -0.3480  0.0929 -0.1440
   52MOL0     C 6775   5.733   2.348  10.072 -0.2579  0.3935  0.6315
   52MOL0    Cl 6776   5.719   2.177  10.132  0.1931  0.5050 -0.0948
   52MOL0     C 6777   6.403   1.997   9.998  0.1556  0.2333  0.4593
   52MOL0     C 6778   6.467   1.944   9.882 -0.0810  0.2091 -0.2199
   52MOL0     O 6779   6.695   1.720   9.822 -0.4596 -0.1244 -0.3072
   52MOL0     C 6780   6.899   1.657   9.645  0.8504 -0.1597 -0.4541
   52MOL0     C 6781   6.994   1.625   9.543  0.6806 -0.2980 -0.4521
   52MOL0     N 6782   7.349   0.982   9.293  0.2142 -0.6666  0.2165
   52MOL0     N 6783   7.460   0.929   9.253  0.4344  0.5272  0.6896
   52MOL0     C 6784   8.706   1.191   9.019 -0.2670 -0.3395 -0.1755
   52MOL0     C 6785   8.826   1.191   9.104 -0.1356 -0.8863 -0.4195
   52MOL0     C 6786   9.168   1.044   9.364  0.5225  1.2509 -0.7690
   52MOL0     C 6787   9.237   0.926   9.399  0.0846 -0.8186 -0.4070
   52MOL0     C 6788   9.384   0.924   9.401 -0.6695  0.3665 -0.0013
   52MOL0     C 6789   9.451   1.043   9.375 -0.5929 -1.0569 -0.2253
   52MOL0     O 6790   9.585   1.037   9.390 -0.2944  0.3045  0.4472
   52MOL0     C 6791   9.666   1.156   9.407 -0.0057  0.5532 -0.4904
   52MOL0     C 6792   9.807   1.115   9.447  0.5152 -0.2042 -0.2074
   52MOL0     C 6793   9.799   1.026   9.575 -0.1263 -0.5174 -0.1883
   52MOL0     C 6794   9.934   0.971   9.619 -0.3931 -0.1587 -0.3843
   52MOL0     C 6795  10.061   1.053   9.602  0.7818  0.5859  0.6725
   52MOL0     C 6796  10.159   1.125   9.590  0.0189  0.1652 -0.1813
   52MOL0     C 6797   9.374   1.163   9.361  0.0432 -0.8291  0.3927
   52MOL0     C 6798   9.234   1.167   9.353 -1.0729 -0.3792 -0.0111
   52MOL0     H 6799   8.724   1.042   9.387 -0.3867 -0.6724  0.4333
   52MOL0     H 6800   8.520   1.052   9.274 -1.1537  0.4111 -1.4051
   52MOL0     H 6801   8.325   1.168   9.122 -2.8922 -0.8062 -0.0850
   52MOL0     H 6802   8.355   0.993   9.108  1.4056  0.0889 -0.7116
   52MOL0     H 6803   8.261   0.985   8.889 -1.1948  1.3174 -1.4003
   52MOL0     H 6804   8.274   1.164   8.876 -3.0447  1.9065  2.1272
   52MOL0     H 6805   8.111   1.190   9.058  0.5718 -0.6627  0.9402
   52MOL0     H 6806   8.104   1.010   9.074 -1.4489  0.9387  0.5864
   52MOL0     H 6807   8.012   1.184   8.850  0.2855 -0.4903  1.6304
   52MOL0     H 6808   8.054   1.012   8.826  0.0366 -0.8939  0.8126
   52MOL0     H 6809   7.865   0.944   8.964  1.1481 -0.1453 -1.6056
   52MOL0     H 6810   7.808   1.088   8.868 -1.1213  0.0056  0.5752
   52MOL0     H 6811   7.877   1.222   9.064 -0.8565  0.2510  2.7350
   52MOL0     H 6812   7.889   1.072   9.158 -3.4084 -3.6158  1.2133
   52MOL0     H 6813   7.685   1.145   9.213  0.1778  4.9564 -1.2650
   52MOL0     H 6814   7.639   1.194   9.053  1.0043 -0.9752 -2.1089
   52MOL0     H 6815   7.684   0.909   9.141 -0.4824  0.9151  1.5363
   52MOL0     H 6816   7.634   0.950   8.968 -2.1808  0.7969 -0.0568
   52MOL0     H 6817   7.386   1.158   9.027  0.8589 -1.4881 -0.6422
   52MOL0     H 6818   7.141   1.145   9.327 -1.3072 -2.4062 -2.2817
   52MOL0     H 6819   7.117   1.175   9.153  2.8234  0.5040 -2.7478
   52MOL0     H 6820   7.294   1.346   9.168  0.2616 -1.7835  0.6181
   52MOL0     H 6821   7.292   1.314   9.343  1.1557  3.7725  0.5612
   52MOL0     H 6822   7.057   1.426   9.184  2.5040  0.3308 -1.2654
   52MOL0     H 6823   7.043   1.374   9.353  1.1034 -0.7871  0.4398
   52MOL0     H 6824   7.217   1.589   9.230  0.3945 -1.4927  0.2303
   52MOL0     H 6825   7.209   1.545   9.403  2.1447 -0.1824 -0.6985
   52MOL0     H 6826   6.886   1.826   9.302  0.2454  0.5626  1.3171
   52MOL0     H 6827   6.731   1.902   9.469 -0.2324  0.2699  1.6828
   52MOL0     H 6828   6.764   2.071   9.925 -0.2792 -2.1392  0.4454
   52MOL0     H 6829   6.669   2.161  10.137 -0.5703  0.5142  1.1289
   52MOL0     H 6830   6.564   2.193  10.301  1.6629 -0.0567 -2.2959
   52MOL0     H 6831   6.409   2.195  10.389  0.2587  1.4343 -0.4272
   52MOL0     H 6832   6.477   2.366  10.142 -1.4678  0.6249 -1.7479
   52MOL0     H 6833   6.436   2.424  10.302 -0.9571 -2.4185  3.4802
   52MOL0     H 6834   6.216   2.302  10.273  2.7095 -5.0742  0.0327
   52MOL0     H 6835   6.249   2.283  10.101 -0.1839 -1.6795  0.2091
   52MOL0     H 6836   6.285   2.555  10.217  1.0374  1.3400 -1.1071
   52MOL0     H 6837   6.233   2.508  10.057  1.4106  0.5179  1.3241
   52MOL0     H 6838   6.034   2.594  10.166  0.8916  0.0981 -3.9442
   52MOL0     H 6839   6.061   2.506  10.314  2.2423 -3.0839 -0.1625
   52MOL0     H 6840   5.980   2.290  10.216 -1.8445 -0.5918 -0.8636
   52MOL0     H 6841   6.008   2.345  10.058  1.3585 -1.1642 -0.0053
   52MOL0     H 6842   5.802   2.403  10.262  2.1679  3.0124  1.1394
   52MOL0     H 6843   5.810   2.528  10.134 -3.5789 -0.6821 -2.0037
   52MOL0     H 6844   5.773   2.338   9.970  1.8071  2.2920  1.1724
   52MOL0     H 6845   5.637   2.401  10.072 -1.5316 -1.7465 -0.6853
   52MOL0     H 6846   6.297   1.980  10.011 -0.0450  1.3685  0.3498
   52MOL0     H 6847   6.428   1.887   9.797  5.0611 -1.0054 -2.1336
   52MOL0     H 6848   6.906   1.589   9.730 -0.1501 -0.6975 -0.7855
   52MOL0     H 6849   7.064   1.545   9.565  0.4250 -0.2104  0.7262
   52MOL0     H 6850   8.712   1.235   8.920 -0.9401  1.6104  0.6028
   52MOL0     H 6851   8.910   1.223   9.043 -0.4028 -2.2766 -1.5623
   52MOL0     H 6852   9.181   0.836   9.423  0.6697 -1.0689  0.0263
   52MOL0     H 6853   9.427   0.828   9.427 -1.9632  0.5396  3.3594
   52MOL0     H 6854   9.625   1.222   9.484  1.6586 -0.6691  1.5139
   52MOL0     H 6855   9.673   1.213   9.314  0.2154  0.1469 -0.7261
   52MOL0     H 6856   9.851   1.055   9.368  0.4031 -2.6761  1.4988
   52MOL0     H 6857   9.863   1.203   9.480 -0.8722  0.1726  1.2743
   52MOL0     H 6858   9.730   0.942   9.565 -0.5881 -0.0235 -1.2917
   52MOL0     H 6859   9.758   1.099   9.645 -2.3313  1.4765 -3.3155
   52MOL0     H 6860   9.933   0.943   9.725  0.1241 -1.4086 -0.6952
   52MOL0     H 6861   9.937   0.887   9.549  1.4354 -0.5935  0.1424
   52MOL0     H 6862  10.247   1.185   9.579 -0.2038  0.5994  0.3713
   52MOL0     H 6863   9.433   1.254   9.368  1.8786 -2.0514  2.3317
   52MOL0     H 6864   9.178   1.260   9.349  0.9563  1.5046  5.4181
   53MOL0     O 6865   1.345   7.640   6.010 -0.5455  0.7007 -0.7793
   53MOL0     C 6866   1.444   7.601   6.080 -0.7213 -0.7252 -0.2429
   53MOL0     O 6867   1.447   7.493   6.158 -0.1306  0.7904 -0.3526
   53MOL0     C 6868   1.339   7.411   6.136  0.2288  0.2478 -0.0359
   53MOL0     C 6869   1.321   7.336   6.023 -0.4513 -0.1620  0.6812
   53MOL0     C 6870   1.217   7.254   5.995 -0.3779 -0.6300  0.0246
   53MOL0     C 6871   1.124   7.248   6.097  0.2332 -1.0785 -0.4671
   53MOL0     O 6872   0.997   7.189   6.084 -0.4908  0.8943  0.7807
   53MOL0     C 6873   0.894   7.259   6.017  0.1357  0.0921 -0.5625
   53MOL0     C 6874   0.766   7.182   6.008  0.5826  0.4993  0.8483
   53MOL0     C 6875   0.675   7.194   6.124 -0.0451  0.0204 -0.0609
   53MOL0     C 6876   0.555   7.086   6.131 -0.0049 -0.1332 -0.3178
   53MOL0     C 6877   0.474   7.068   6.267  0.6336 -0.3855 -0.7906
   53MOL0     C 6878   0.327   7.023   6.258 -0.1480  0.4917 -0.2458
   53MOL0     C 6879   0.235   7.133   6.203 -0.6931  0.3537  0.6189
   53MOL0     C 6880   0.088   7.076   6.191 -0.3402  0.4146  0.1662
   53MOL0     N 6881  -0.007   7.182   6.160 -1.0003  0.2172 -0.1945
   53MOL0     C 6882  -0.038   7.239   6.043 -0.1975  1.1452 -0.6170
   53MOL0     C 6883  -0.125   7.336   6.070  0.5966  0.2520 -0.0434
   53MOL0     C 6884  -0.198   7.427   5.981  0.0329 -0.2857 -0.4536
   53MOL0     C 6885  -0.344   7.407   5.969 -0.0822 -0.1343 -0.1690
   53MOL0     C 6886  -0.380   7.264   5.922  0.1975  0.3794  0.1607
   53MOL0     C 6887  -0.532   7.246   5.910  0.1785 -0.2978 -0.4145
   53MOL0     O 6888  -0.578   7.299   5.782 -0.7028 -0.3811 -0.6361
   53MOL0     C 6889  -0.714   7.315   5.769  0.6281  0.2706 -0.5190
   53MOL0     C 6890  -0.818   7.280   5.855 -0.8956 -0.8108  0.4469
   53MOL0     C 6891  -0.942   7.324   5.828 -0.4777  1.1314 -0.0475
   53MOL0     C 6892  -0.976   7.403   5.717  0.2481 -0.0233 -0.6813
   53MOL0     C 6893  -1.116   7.437   5.696 -0.0886 -0.0091 -0.7613
   53MOL0     O 6894  -1.153   7.474   5.570  0.0834 -0.2531  0.0289
   53MOL0     C 6895  -1.270   7.544   5.556  0.7462  0.4686  1.2693
   53MOL0     C 6896  -1.388   7.470   5.543  0.3643  0.3132  0.6533
   53MOL0     C 6897  -1.508   7.543   5.533  0.5961  0.2714  0.2077
   53MOL0     C 6898  -1.512   7.681   5.515 -0.2504  0.1726  0.0647
   53MOL0     O 6899  -1.627   7.754   5.480 -0.3293 -0.0054  0.0502
   53MOL0     C 6900  -1.726   7.739   5.579 -0.1033  0.0304  0.5203
   53MOL0     C 6901  -1.861   7.794   5.529  0.3117  0.2008 -0.4183
   53MOL0     C 6902  -1.977   7.754   5.628  0.0068  0.1062 -0.0984
   53MOL0     C 6903  -2.101   7.842   5.594 -0.5132 -0.0625 -0.3810
   53MOL0     C 6904  -2.223   7.795   5.680 -0.5295 -0.8793  0.6839
   53MOL0     C 6905  -2.267   7.644   5.660  0.1768 -0.2338 -0.0590
   53MOL0     C 6906  -2.392   7.614   5.743  0.0738 -0.0357 -0.1011
   53MOL0     C 6907  -2.518   7.640   5.663  0.4536  0.1801 -0.4000
   53MOL0    Cl 6908  -2.652   7.620   5.772  0.0804 -0.3339  0.0248
   53MOL0     C 6909  -1.392   7.750   5.531 -1.0423 -0.2284  0.9867
   53MOL0     C 6910  -1.271   7.680   5.562  0.4365 -0.1795  0.5007
   53MOL0     O 6911  -1.186   7.449   5.796 -0.6819 -0.9420 -0.5855
   53MOL0     C 6912  -0.876   7.448   5.640 -0.0349 -0.8177  0.1193
   53MOL0     C 6913  -0.748   7.399   5.665 -0.2405 -0.4654 -0.9081
   53MOL0     N 6914  -0.147   7.327   6.208  0.7224  0.4005 -0.0881
   53MOL0     N 6915  -0.066   7.242   6.262  1.2153  0.0611 -0.2463
   53MOL0     C 6916   1.137   7.318   6.217 -0.4092  0.4345 -0.0140
   53MOL0     C 6917   1.246   7.396   6.233  0.5894 -0.5900 -1.3320
   53MOL0     C 6918   1.565   7.694   6.094 -1.2800 -0.0827  0.1488
   53MOL0     C 6919   1.585   7.789   5.994  0.0508 -0.0834  0.2179
   53MOL0     C 6920   1.682   7.887   6.001 -0.8482 -0.5027 -0.7450
   53MOL0     C 6921   1.755   7.893   6.124  0.0716 -0.6425 -0.6214
   53MOL0     O 6922   1.850   7.988   6.123  0.1398 -0.3242 -0.1251
   53MOL0     C 6923   1.970   7.962   6.191 -0.1391  0.2920  0.1870
   53MOL0     C 6924   2.092   8.027   6.123  0.3514 -0.5138 -0.5392
   53MOL0     C 6925   2.220   7.994   6.215  1.2775 -0.4199  0.1848
   53MOL0     C 6926   2.339   7.976   6.126  0.2053  0.0696  0.1645
   53MOL0     C 6927   2.383   8.110   6.078  0.2978  0.5301  0.2461
   53MOL0     C 6928   2.407   8.215   6.030 -0.8342  0.4824  0.5088
   53MOL0     C 6929   1.743   7.799   6.225 -0.4546 -0.5124 -0.5979
   53MOL0     C 6930   1.645   7.701   6.210 -0.0498  1.2441 -0.4784
   53MOL0     H 6931   1.398   7.356   5.950 -1.1235  4.9085  0.9668
   53MOL0     H 6932   1.203   7.204   5.899 -1.1587 -0.1844 -0.1055
   53MOL0     H 6933   0.938   7.285   5.920  0.2624 -0.1021 -0.5573
   53MOL0     H 6934   0.882   7.354   6.070  1.8877  0.6364 -1.0902
   53MOL0     H 6935   0.800   7.081   5.986 -0.8167 -0.0760  1.2213
   53MOL0     H 6936   0.705   7.211   5.922  0.1094  2.8063  1.8900
   53MOL0     H 6937   0.627   7.292   6.128  2.5543  1.4110 -0.6673
   53MOL0     H 6938   0.737   7.198   6.214 -2.1696  0.3129  1.4408
   53MOL0     H 6939   0.487   7.111   6.049 -0.9546 -1.1776  0.1227
   53MOL0     H 6940   0.591   6.988   6.100  0.1885  0.2922 -1.4770
   53MOL0     H 6941   0.464   7.164   6.318  1.4032 -0.4556 -0.5037
   53MOL0     H 6942   0.530   7.008   6.340 -2.3347 -1.0466  1.1275
   53MOL0     H 6943   0.303   7.003   6.363  2.5578  0.1716  0.3818
   53MOL0     H 6944   0.312   6.927   6.208 -1.2688  1.1836 -1.3038
   53MOL0     H 6945   0.248   7.227   6.257  0.5030  1.7471 -1.9076
   53MOL0     H 6946   0.259   7.162   6.100 -2.4439 -3.5913 -1.1006
   53MOL0     H 6947   0.068   7.016   6.280  1.4481  1.6056  1.4296
   53MOL0     H 6948   0.088   7.010   6.104  0.1111  2.2906 -1.3348
   53MOL0     H 6949  -0.004   7.200   5.948  2.5958 -5.1323  2.4240
   53MOL0     H 6950  -0.144   7.438   5.886  1.3343 -0.8196  0.2080
   53MOL0     H 6951  -0.186   7.528   6.021  1.0743 -0.6885  0.3010
   53MOL0     H 6952  -0.381   7.480   5.896  2.2907  0.4536 -0.8688
   53MOL0     H 6953  -0.395   7.428   6.063 -1.4009 -0.2643 -0.8177
   53MOL0     H 6954  -0.328   7.235   5.830 -0.7380 -1.9018  0.2895
   53MOL0     H 6955  -0.343   7.202   6.004 -3.8929  1.2500  2.9934
   53MOL0     H 6956  -0.582   7.291   5.996  0.0873  0.9235 -1.0902
   53MOL0     H 6957  -0.554   7.139   5.904  1.2702 -0.5549 -0.1086
   53MOL0     H 6958  -0.807   7.214   5.941  2.8406 -0.5732  0.2753
   53MOL0     H 6959  -1.015   7.312   5.907 -0.4469  2.3768  0.1833
   53MOL0     H 6960  -1.389   7.362   5.544 -1.2425  0.0051 -4.4884
   53MOL0     H 6961  -1.602   7.488   5.526  2.1988 -2.4193 -2.9060
   53MOL0     H 6962  -1.693   7.787   5.671  2.3394  0.6556 -0.5776
   53MOL0     H 6963  -1.731   7.634   5.608 -2.9091 -0.1218 -0.1893
   53MOL0     H 6964  -1.887   7.752   5.432  0.7148 -0.3666 -0.2881
   53MOL0     H 6965  -1.851   7.903   5.520  0.3670  0.1933 -0.4477
   53MOL0     H 6966  -1.932   7.753   5.728  3.3549 -1.7525 -1.4658
   53MOL0     H 6967  -2.002   7.653   5.595  0.5481 -0.0161 -0.1525
   53MOL0     H 6968  -2.083   7.943   5.633  0.5478 -0.8477  1.2464
   53MOL0     H 6969  -2.126   7.854   5.488 -2.0619  2.2871  0.1600
   53MOL0     H 6970  -2.303   7.867   5.659  0.6248  0.8590  1.9968
   53MOL0     H 6971  -2.197   7.814   5.785  0.8567  2.2203 -0.1027
   53MOL0     H 6972  -2.190   7.576   5.696  0.1082  1.1754  3.1458
   53MOL0     H 6973  -2.295   7.632   5.555  0.5207  0.4090 -0.2309
   53MOL0     H 6974  -2.398   7.507   5.762 -0.8828  0.2685  1.5453
   53MOL0     H 6975  -2.386   7.674   5.834  1.5813 -0.8918  0.4008
   53MOL0     H 6976  -2.530   7.568   5.581  1.3830 -0.4114 -0.0384
   53MOL0     H 6977  -2.524   7.741   5.621 -1.8034 -0.4128 -1.6866
   53MOL0     H 6978  -1.402   7.858   5.530  5.2138  0.7557 -0.4792
   53MOL0     H 6979  -1.179   7.726   5.598  1.2595 -1.7160  0.4410
   53MOL0     H 6980  -0.897   7.525   5.566 -1.7856 -0.6667  0.7162
   53MOL0     H 6981  -0.669   7.449   5.609  0.1341  0.7533  0.6372
   53MOL0     H 6982   1.071   7.317   6.303 -1.3244 -0.2769 -0.7002
   53MOL0     H 6983   1.265   7.446   6.328 -1.1757 -1.3551 -0.5350
   53MOL0     H 6984   1.545   7.778   5.894  2.3534  1.3709 -0.9508
   53MOL0     H 6985   1.704   7.956   5.920 -3.3133  1.8606  0.4510
   53MOL0     H 6986   1.992   7.856   6.200 -0.7703  0.3251  3.1633
   53MOL0     H 6987   1.956   8.001   6.292 -3.2440  1.6823 -0.6384
   53MOL0     H 6988   2.116   7.981   6.027  1.6828 -1.1734  0.0826
   53MOL0     H 6989   2.082   8.135   6.113  1.2183 -0.6391 -4.0398
   53MOL0     H 6990   2.215   7.910   6.285  2.1122 -0.6597 -0.0366
   53MOL0     H 6991   2.228   8.085   6.275 -0.0604  0.4239 -0.8585
   53MOL0     H 6992   2.418   7.930   6.186 -0.7668 -1.6385  0.1981
   53MOL0     H 6993   2.317   7.901   6.049  0.4342 -0.1599  0.3234
   53MOL0     H 6994   2.415   8.309   5.978  0.4896 -0.2370 -0.6852
   53MOL0     H 6995   1.814   7.814   6.306  0.9616  0.5068 -1.9551
   53MOL0     H 6996   1.644   7.628   6.290  0.1924 -0.1976 -1.7324
   54MOL0     O 6997   7.350   9.471   7.778 -0.4094 -0.0543  1.2611
   54MOL0     C 6998   7.383   9.590   7.804 -0.4182  0.8011 -0.8150
   54MOL0     O 6999   7.299   9.696   7.822  0.3295 -0.3189 -0.5699
   54MOL0     C 7000   7.162   9.692   7.811 -0.2755  0.6334  0.0953
   54MOL0     C 7001   7.080   9.619   7.893  0.7224 -0.3395 -0.3303
   54MOL0     C 7002   6.938   9.605   7.876  0.6745 -0.7859  1.1056
   54MOL0     C 7003   6.882   9.659   7.757 -1.2805 -0.0076  0.0066
   54MOL0     O 7004   6.758   9.623   7.715 -0.1106  0.1865  0.8571
   54MOL0     C 7005   6.696   9.669   7.592  0.7177  1.0124 -0.1630
   54MOL0     C 7006   6.591   9.554   7.556 -0.1313 -0.3535  0.5904
   54MOL0     C 7007   6.561   9.540   7.406 -0.8373  0.5527  0.5606
   54MOL0     C 7008   6.457   9.432   7.379  0.0346  0.2395  1.2906
   54MOL0     C 7009   6.408   9.443   7.241  0.4867  0.7758  0.7731
   54MOL0     C 7010   6.276   9.358   7.210 -0.0032  0.5772 -0.6145
   54MOL0     C 7011   6.237   9.356   7.066  0.8046  0.7611 -1.0092
   54MOL0     C 7012   6.091   9.311   7.053 -0.1422 -0.3895  0.6128
   54MOL0     N 7013   6.015   9.360   6.936 -0.7200  0.0371  0.3678
   54MOL0     C 7014   6.067   9.368   6.805 -0.2446 -0.1459 -0.0701
   54MOL0     C 7015   5.962   9.412   6.733 -0.1795 -0.5146  0.5401
   54MOL0     C 7016   5.960   9.427   6.583 -0.1515 -0.7948 -0.3377
   54MOL0     C 7017   5.958   9.574   6.536  0.0443 -0.1628 -0.6449
   54MOL0     C 7018   5.917   9.597   6.393  0.1919 -0.4081  0.4621
   54MOL0     C 7019   5.978   9.505   6.284  0.8128 -0.1594  0.2512
   54MOL0     O 7020   5.927   9.528   6.147 -0.4878 -0.4502  0.1956
   54MOL0     C 7021   5.802   9.484   6.110 -1.1426 -0.8870  0.4293
   54MOL0     C 7022   5.768   9.501   5.978 -1.0219  0.0771  0.7188
   54MOL0     C 7023   5.658   9.445   5.922 -0.1498  0.1161  0.0681
   54MOL0     C 7024   5.558   9.374   6.005  0.4066  0.6908 -0.1903
   54MOL0     C 7025   5.441   9.306   5.942 -0.1253 -0.5459  0.2928
   54MOL0     O 7026   5.436   9.287   5.806  0.0220 -0.3857 -0.0470
   54MOL0     C 7027   5.321   9.227   5.767  1.5922 -0.2773 -0.4440
   54MOL0     C 7028   5.235   9.301   5.688  0.8559 -0.2212  0.8982
   54MOL0     C 7029   5.113   9.249   5.635 -0.3589  0.1614 -0.0807
   54MOL0     C 7030   5.092   9.104   5.662  0.2654 -0.5742 -0.7026
   54MOL0     O 7031   4.980   9.048   5.613  0.6889  1.1977 -0.1802
   54MOL0     C 7032   4.886   9.112   5.520  0.3315  0.3438 -0.1284
   54MOL0     C 7033   4.788   9.194   5.606 -0.9648 -0.4121  0.3938
   54MOL0     C 7034   4.679   9.266   5.532  0.1705  0.6395 -0.0642
   54MOL0     C 7035   4.723   9.369   5.433 -0.4216  0.3394  0.6921
   54MOL0     C 7036   4.605   9.436   5.366 -0.6222 -0.2699 -0.9171
   54MOL0     C 7037   4.561   9.568   5.432  0.0444 -0.1473  0.4077
   54MOL0     C 7038   4.453   9.630   5.345  0.2688  0.7668 -0.3840
   54MOL0     C 7039   4.435   9.778   5.348  0.5077  0.6879  0.9106
   54MOL0    Cl 7040   4.285   9.841   5.250  0.3710  0.4525 -0.2831
   54MOL0     C 7041   5.181   9.036   5.744  0.1374 -0.9619  1.0991
   54MOL0     C 7042   5.299   9.090   5.787  0.2766  0.3445  0.3638
   54MOL0     O 7043   5.361   9.267   6.024  0.5899 -0.1228 -0.6770
   54MOL0     C 7044   5.571   9.394   6.141  0.0862 -0.0325  0.6887
   54MOL0     C 7045   5.703   9.431   6.195  0.3176 -0.4407 -0.1527
   54MOL0     N 7046   5.851   9.421   6.816  0.0872  0.0854 -0.7116
   54MOL0     N 7047   5.886   9.397   6.934  1.1965 -0.2936  0.5818
   54MOL0     C 7048   6.964   9.744   7.678 -0.5919 -0.4759  0.4800
   54MOL0     C 7049   7.099   9.765   7.710  0.2773  0.1440 -0.0371
   54MOL0     C 7050   7.525   9.603   7.813 -0.4646  1.1272  0.7447
   54MOL0     C 7051   7.583   9.730   7.778 -0.1159 -0.6115 -0.1661
   54MOL0     C 7052   7.722   9.744   7.772  0.0389 -0.0020 -0.3885
   54MOL0     C 7053   7.802   9.635   7.802 -0.9686  0.2170 -0.2529
   54MOL0     O 7054   7.947   9.649   7.810  0.2243  0.4646  0.5300
   54MOL0     C 7055   7.997   9.784   7.812 -0.5499  0.3130  0.2956
   54MOL0     C 7056   8.148   9.792   7.839 -0.4036  0.4672  0.1120
   54MOL0     C 7057   8.215   9.759   7.707 -0.8172  0.1959  0.4479
   54MOL0     C 7058   8.270   9.891   7.640  0.2411 -0.1278  0.4717
   54MOL0     C 7059   8.370   9.860   7.549  0.4656  0.4326  0.2732
   54MOL0     C 7060   8.465   9.826   7.476 -0.8937 -0.1761 -0.4475
   54MOL0     C 7061   7.754   9.508   7.829  0.6144  0.8298 -0.2697
   54MOL0     C 7062   7.615   9.496   7.835  0.4383  0.2607 -0.0330
   54MOL0     H 7063   7.124   9.558   7.971 -0.9915  0.6687  1.5329
   54MOL0     H 7064   6.872   9.535   7.926 -1.9781 -0.0824 -1.1667
   54MOL0     H 7065   6.770   9.683   7.513  1.3434 -0.1082  0.1939
   54MOL0     H 7066   6.639   9.760   7.614 -3.3840 -1.5113  0.7019
   54MOL0     H 7067   6.496   9.587   7.599  0.1521  2.4896 -0.7664
   54MOL0     H 7068   6.630   9.462   7.602  1.3321  1.5143  3.3709
   54MOL0     H 7069   6.653   9.508   7.356 -2.3017  0.7922 -2.5800
   54MOL0     H 7070   6.526   9.637   7.371 -0.2121  0.4109 -0.5083
   54MOL0     H 7071   6.487   9.327   7.392 -2.1210 -0.6214 -0.1782
   54MOL0     H 7072   6.374   9.438   7.450 -2.5729 -1.7774 -1.3191
   54MOL0     H 7073   6.481   9.388   7.180  0.4243 -0.6608  1.9402
   54MOL0     H 7074   6.390   9.545   7.206 -2.3402  0.4865  1.1960
   54MOL0     H 7075   6.195   9.393   7.275 -2.3291 -0.2609 -2.8841
   54MOL0     H 7076   6.291   9.254   7.240 -0.3229  0.5712 -0.4738
   54MOL0     H 7077   6.245   9.459   7.030 -2.0528  0.6654 -2.2165
   54MOL0     H 7078   6.303   9.284   7.016  1.7591 -1.7652  3.4128
   54MOL0     H 7079   6.037   9.349   7.141  0.3106  0.5447  0.5046
   54MOL0     H 7080   6.090   9.202   7.061  5.1844 -0.6182  2.3576
   54MOL0     H 7081   6.168   9.341   6.776  0.0512 -0.4951  1.2316
   54MOL0     H 7082   5.871   9.378   6.542 -1.8530 -0.0248  2.1842
   54MOL0     H 7083   6.055   9.381   6.554 -0.7271 -2.8247  0.8297
   54MOL0     H 7084   6.064   9.597   6.549 -0.7436  2.4630  2.3284
   54MOL0     H 7085   5.900   9.625   6.613  1.5678 -0.2752  0.6396
   54MOL0     H 7086   5.808   9.585   6.405 -0.4104  3.9959  1.1447
   54MOL0     H 7087   5.939   9.701   6.367 -0.6247 -0.3201  0.0573
   54MOL0     H 7088   5.964   9.404   6.325 -0.8713  0.0630  0.3277
   54MOL0     H 7089   6.085   9.526   6.291  0.8773 -0.8174  1.5487
   54MOL0     H 7090   5.839   9.552   5.914  0.2137 -1.4890  0.7679
   54MOL0     H 7091   5.652   9.451   5.814  1.1765 -0.0146 -0.0193
   54MOL0     H 7092   5.273   9.399   5.662  2.5292 -1.4301 -1.6203
   54MOL0     H 7093   5.046   9.309   5.574 -1.0722 -0.3402  0.2018
   54MOL0     H 7094   4.831   9.033   5.468  1.1306 -0.2921 -0.0333
   54MOL0     H 7095   4.933   9.169   5.440 -0.5881  0.0398 -0.8998
   54MOL0     H 7096   4.853   9.268   5.653  1.9673 -0.0416 -3.6770
   54MOL0     H 7097   4.737   9.130   5.678 -0.6271  0.7518  1.7074
   54MOL0     H 7098   4.612   9.313   5.604 -0.9187 -0.4904 -0.3068
   54MOL0     H 7099   4.608   9.192   5.493 -0.3192 -0.9993  3.5657
   54MOL0     H 7100   4.791   9.442   5.477 -0.9622  2.1070 -1.2303
   54MOL0     H 7101   4.785   9.323   5.355  2.3680  0.2869  2.7932
   54MOL0     H 7102   4.515   9.374   5.355 -2.0175  1.8464 -2.3624
   54MOL0     H 7103   4.641   9.469   5.268 -1.9716 -1.1772 -1.7547
   54MOL0     H 7104   4.640   9.643   5.431 -0.6857  0.6501 -1.1998
   54MOL0     H 7105   4.528   9.552   5.535 -3.4933  1.4141 -0.3302
   54MOL0     H 7106   4.466   9.601   5.240  0.6891 -1.7053  0.2925
   54MOL0     H 7107   4.355   9.599   5.382  0.9680 -1.7910 -0.5124
   54MOL0     H 7108   4.529   9.811   5.302  1.3302 -0.3349  1.8228
   54MOL0     H 7109   4.434   9.823   5.448 -1.0853  2.2669  0.2460
   54MOL0     H 7110   5.150   8.936   5.772 -2.3451 -0.9794 -1.2354
   54MOL0     H 7111   5.367   9.031   5.849  3.5693  2.0596 -1.3506
   54MOL0     H 7112   5.497   9.373   6.217  0.0290  1.0304  0.9323
   54MOL0     H 7113   5.723   9.414   6.300  3.3757 -1.3973 -0.7890
   54MOL0     H 7114   6.924   9.797   7.592 -0.9028  0.3748  1.1267
   54MOL0     H 7115   7.153   9.818   7.632 -2.2546  2.2163 -0.5282
   54MOL0     H 7116   7.519   9.813   7.748  0.9453  0.8630  1.4462
   54MOL0     H 7117   7.756   9.844   7.749  0.0222  0.0473 -0.2019
   54MOL0     H 7118   7.938   9.846   7.881 -0.1532  1.6969 -0.5592
   54MOL0     H 7119   7.976   9.838   7.719 -1.2019  2.0148  1.3693
   54MOL0     H 7120   8.177   9.886   7.886 -0.8808  1.5119 -1.5742
   54MOL0     H 7121   8.162   9.708   7.907 -0.3899  0.9155  0.6699
   54MOL0     H 7122   8.151   9.710   7.633 -0.9573  1.0071  0.0242
   54MOL0     H 7123   8.295   9.687   7.728 -2.4595 -0.7080  4.7910
   54MOL0     H 7124   8.191   9.941   7.583 -0.4270 -1.0058  0.6039
   54MOL0     H 7125   8.306   9.965   7.712 -3.8770 -1.2745  4.1696
   54MOL0     H 7126   8.548   9.810   7.410  0.5353  0.8434  0.9994
   54MOL0     H 7127   7.825   9.431   7.856 -3.2277 -2.6659  1.0263
   54MOL0     H 7128   7.579   9.396   7.858  1.8382 -0.3066 -0.2165
   55MOL0     O 7129   7.118   3.096   1.665  0.1607 -0.0224 -0.5076
   55MOL0     C 7130   7.168   3.207   1.648  0.9100 -0.7451  0.2191
   55MOL0     O 7131   7.102   3.324   1.651 -0.7550 -0.3756 -0.4026
   55MOL0     C 7132   6.968   3.320   1.675 -0.8936 -0.0374 -0.0826
   55MOL0     C 7133   6.875   3.263   1.594 -0.0972  0.1270  0.7751
   55MOL0     C 7134   6.736   3.272   1.624 -0.0002 -0.0926 -0.0899
   55MOL0     C 7135   6.695   3.337   1.736 -0.1076 -0.5123  0.0273
   55MOL0     O 7136   6.563   3.379   1.748 -0.4649 -0.1029  0.2226
   55MOL0     C 7137   6.467   3.278   1.707 -0.4634 -1.2913 -0.1120
   55MOL0     C 7138   6.386   3.332   1.581 -0.1830 -0.2113 -0.0169
   55MOL0     C 7139   6.259   3.250   1.553 -0.6733 -0.8823  0.1655
   55MOL0     C 7140   6.155   3.327   1.465 -0.2720  0.0648  0.0368
   55MOL0     C 7141   6.026   3.247   1.441  0.0081 -0.5824  0.1715
   55MOL0     C 7142   5.944   3.324   1.336  0.5122 -0.6759  0.2299
   55MOL0     C 7143   5.817   3.260   1.317 -0.1718 -0.5181 -0.8464
   55MOL0     C 7144   5.724   3.304   1.443  0.8957 -0.7459  0.3576
   55MOL0     N 7145   5.591   3.245   1.432  0.0304 -0.5249 -1.0712
   55MOL0     C 7146   5.508   3.244   1.335  0.8132 -0.2864 -0.4713
   55MOL0     C 7147   5.408   3.158   1.372 -0.4209  0.3122 -0.4043
   55MOL0     C 7148   5.285   3.125   1.295 -0.0577 -0.0463 -0.0519
   55MOL0     C 7149   5.157   3.199   1.342  0.2544 -0.7103 -0.6180
   55MOL0     C 7150   5.051   3.171   1.236  0.1919 -0.4243 -0.3664
   55MOL0     C 7151   4.913   3.234   1.280  0.0330  0.2066  0.2613
   55MOL0     O 7152   4.811   3.192   1.184 -0.4150 -0.2682 -0.0367
   55MOL0     C 7153   4.679   3.236   1.209 -0.3857 -0.3652 -0.2573
   55MOL0     C 7154   4.627   3.297   1.327 -0.3909  0.5816 -0.1729
   55MOL0     C 7155   4.494   3.313   1.335 -0.2115 -0.3670 -0.9619
   55MOL0     C 7156   4.402   3.291   1.232 -0.6496  0.4479 -0.3696
   55MOL0     C 7157   4.257   3.335   1.242 -0.7959  0.3134  0.5024
   55MOL0     O 7158   4.213   3.368   1.364  0.5877 -0.0356  0.2164
   55MOL0     C 7159   4.080   3.394   1.391 -0.2004 -1.1347 -0.2283
   55MOL0     C 7160   4.016   3.513   1.353 -0.2570  0.1312  0.5661
   55MOL0     C 7161   3.878   3.526   1.375  0.3218 -0.1061 -1.0763
   55MOL0     C 7162   3.796   3.423   1.433  0.8896  1.1891 -0.7146
   55MOL0     O 7163   3.656   3.441   1.455 -0.7143 -0.8123  0.4909
   55MOL0     C 7164   3.575   3.335   1.506 -0.6499  1.6148  0.8432
   55MOL0     C 7165   3.443   3.384   1.497  0.3637  0.0688  0.4077
   55MOL0     C 7166   3.336   3.290   1.552  0.1515 -0.1134  0.4711
   55MOL0     C 7167   3.205   3.360   1.574  0.4280  0.7844 -0.2898
   55MOL0     C 7168   3.087   3.291   1.647 -0.3646  0.0098 -0.1624
   55MOL0     C 7169   2.998   3.405   1.707 -0.4355 -0.5270  0.4681
   55MOL0     C 7170   2.945   3.504   1.609  0.0924 -0.4865  0.8865
   55MOL0     C 7171   2.804   3.543   1.638  0.1706  0.5265 -0.8488
   55MOL0    Cl 7172   2.686   3.399   1.620  0.1491  0.5883 -0.2544
   55MOL0     C 7173   3.858   3.304   1.464  0.7618  0.2678  1.1507
   55MOL0     C 7174   3.994   3.286   1.441  0.5007 -0.7042 -0.4477
   55MOL0     O 7175   4.196   3.340   1.136 -0.0136  0.4268  0.0516
   55MOL0     C 7176   4.453   3.225   1.117  0.1853 -0.3974 -0.2911
   55MOL0     C 7177   4.585   3.198   1.109 -0.4780  0.9953 -0.6322
   55MOL0     N 7178   5.445   3.106   1.496  0.2165 -0.3622  1.0920
   55MOL0     N 7179   5.557   3.152   1.530 -0.1439  0.0476  0.6370
   55MOL0     C 7180   6.785   3.391   1.824 -0.2056 -0.1626 -0.0527
   55MOL0     C 7181   6.924   3.386   1.789  0.5905 -0.1452 -0.4744
   55MOL0     C 7182   7.312   3.211   1.636  0.2057  0.5387  0.0204
   55MOL0     C 7183   7.377   3.329   1.667  0.4346  0.3917  0.4754
   55MOL0     C 7184   7.519   3.329   1.674  0.5521  0.4381  0.1311
   55MOL0     C 7185   7.594   3.223   1.633  0.6872 -0.2167 -0.6207
   55MOL0     O 7186   7.732   3.236   1.651  0.8770  0.9937  0.8773
   55MOL0     C 7187   7.790   3.270   1.521 -0.2467 -0.0783 -0.0669
   55MOL0     C 7188   7.857   3.146   1.457 -0.0052  0.5735 -0.0732
   55MOL0     C 7189   7.961   3.077   1.546 -0.5104  1.0815  0.7322
   55MOL0     C 7190   8.090   3.156   1.567 -0.0404 -0.1130 -0.1060
   55MOL0     C 7191   8.156   3.194   1.441 -0.3394 -0.4010 -0.2700
   55MOL0     C 7192   8.214   3.215   1.339  0.6364  0.0842 -1.5427
   55MOL0     C 7193   7.533   3.108   1.586  0.4105 -0.2683 -0.7353
   55MOL0     C 7194   7.390   3.106   1.582  0.4245 -0.3648  0.0434
   55MOL0     H 7195   6.903   3.205   1.507  3.5444  0.7173  1.4157
   55MOL0     H 7196   6.664   3.226   1.557  0.1249  0.4904 -0.6352
   55MOL0     H 7197   6.395   3.259   1.786 -1.1055 -2.4916 -0.9567
   55MOL0     H 7198   6.505   3.177   1.689  1.1698 -0.6396 -0.5907
   55MOL0     H 7199   6.445   3.344   1.490 -1.1607 -2.4421 -1.0161
   55MOL0     H 7200   6.360   3.433   1.616 -0.9019 -0.8844  1.5012
   55MOL0     H 7201   6.229   3.231   1.656  1.9574 -2.1492  0.7641
   55MOL0     H 7202   6.287   3.153   1.510  0.6210 -1.0288  1.2778
   55MOL0     H 7203   6.130   3.421   1.515  0.5604 -0.2344  1.0478
   55MOL0     H 7204   6.201   3.354   1.370 -2.5915  1.4091 -0.8032
   55MOL0     H 7205   5.977   3.245   1.539 -1.0265  3.7942 -0.0066
   55MOL0     H 7206   6.045   3.142   1.422 -3.0107 -1.3786  0.9516
   55MOL0     H 7207   6.000   3.337   1.243  4.3956  1.5128  2.5868
   55MOL0     H 7208   5.926   3.423   1.378  1.1419 -0.3801 -0.1722
   55MOL0     H 7209   5.765   3.287   1.225  0.6660 -1.2712 -1.5466
   55MOL0     H 7210   5.844   3.155   1.306  0.7978 -0.2455 -1.1935
   55MOL0     H 7211   5.717   3.412   1.428 -1.7975 -0.7186  1.3205
   55MOL0     H 7212   5.776   3.281   1.536  1.5823  0.1028  0.1989
   55MOL0     H 7213   5.514   3.295   1.239  1.2822  0.7201  0.0776
   55MOL0     H 7214   5.265   3.018   1.304 -1.0498  0.0498 -0.9436
   55MOL0     H 7215   5.303   3.140   1.188 -0.8007  0.6806 -0.0798
   55MOL0     H 7216   5.193   3.302   1.335  1.2864 -1.0312 -0.2757
   55MOL0     H 7217   5.136   3.194   1.449  4.4172 -0.5910  0.3992
   55MOL0     H 7218   5.097   3.231   1.157 -1.1475  1.3915  0.1806
   55MOL0     H 7219   5.043   3.066   1.208  2.4405 -0.1128 -2.5185
   55MOL0     H 7220   4.922   3.343   1.278  0.2506  0.1839 -0.3576
   55MOL0     H 7221   4.880   3.188   1.373 -0.2342 -2.9031 -1.2386
   55MOL0     H 7222   4.685   3.323   1.416 -1.8981  0.3351  0.9255
   55MOL0     H 7223   4.458   3.367   1.422 -0.9932 -1.2337 -0.7270
   55MOL0     H 7224   4.075   3.586   1.299  0.2825 -0.6717  0.0513
   55MOL0     H 7225   3.834   3.623   1.355  2.1200  0.8994 -0.4235
   55MOL0     H 7226   3.601   3.302   1.607  2.1392 -0.3955 -0.3874
   55MOL0     H 7227   3.576   3.241   1.449  1.2972  0.6284  2.3638
   55MOL0     H 7228   3.416   3.419   1.397  1.0676  0.1989  0.2633
   55MOL0     H 7229   3.445   3.476   1.556 -0.3894  0.1331  0.3474
   55MOL0     H 7230   3.351   3.254   1.655 -0.6872 -1.5783  0.1178
   55MOL0     H 7231   3.323   3.206   1.483  2.5968 -0.4284  0.3109
   55MOL0     H 7232   3.235   3.448   1.633  2.8942 -1.0745  1.4203
   55MOL0     H 7233   3.178   3.400   1.476 -2.7946  2.0059  0.9510
   55MOL0     H 7234   3.129   3.230   1.727  0.3499  3.5255  2.3836
   55MOL0     H 7235   3.035   3.228   1.574  0.5336 -0.1622 -0.6641
   55MOL0     H 7236   3.046   3.447   1.795  1.2716 -3.7849  1.2203
   55MOL0     H 7237   2.908   3.353   1.742  0.6848 -3.1894 -0.3660
   55MOL0     H 7238   3.010   3.592   1.614 -0.7422  0.1262  1.3278
   55MOL0     H 7239   2.946   3.461   1.508 -2.3827  0.0598  0.5555
   55MOL0     H 7240   2.772   3.611   1.558 -3.5709  0.6854  0.5622
   55MOL0     H 7241   2.797   3.589   1.737  0.4961 -2.1509  0.4978
   55MOL0     H 7242   3.809   3.218   1.509  2.0492 -1.1915 -0.1367
   55MOL0     H 7243   4.042   3.197   1.480  0.1212 -0.0253  1.6793
   55MOL0     H 7244   4.392   3.224   1.027  0.9920  0.0301 -0.8532
   55MOL0     H 7245   4.628   3.148   1.023 -0.5268 -1.4340  0.6476
   55MOL0     H 7246   6.741   3.456   1.899  0.4830  0.8505 -0.5032
   55MOL0     H 7247   7.000   3.429   1.854  0.6016 -0.6823 -0.1185
   55MOL0     H 7248   7.339   3.426   1.694  3.3325  2.1037 -1.1341
   55MOL0     H 7249   7.567   3.419   1.712  0.7717  0.7444 -0.8406
   55MOL0     H 7250   7.872   3.342   1.528 -1.8180  1.6263  2.0800
   55MOL0     H 7251   7.721   3.307   1.445  1.1050  3.1738  0.1281
   55MOL0     H 7252   7.778   3.070   1.457 -0.4366  0.9836  1.3108
   55MOL0     H 7253   7.898   3.164   1.358 -0.5023  1.1077 -0.1891
   55MOL0     H 7254   7.995   2.984   1.500  1.1219  1.2818  1.4572
   55MOL0     H 7255   7.917   3.051   1.643  0.3713 -2.8701  0.2377
   55MOL0     H 7256   8.060   3.249   1.617  2.6277 -0.0805  1.6609
   55MOL0     H 7257   8.160   3.098   1.627 -0.8259 -2.6117 -1.4818
   55MOL0     H 7258   8.281   3.229   1.256  1.6384 -2.7601 -1.3142
   55MOL0     H 7259   7.589   3.016   1.571  0.8560 -0.4909  1.8295
   55MOL0     H 7260   7.348   3.013   1.547  1.4035 -1.0450  0.6420
   56MOL0     O 7261   0.954   5.928   8.886  0.3356 -0.0398  0.1656
   56MOL0     C 7262   0.918   6.036   8.839  0.3694 -0.3327 -0.2091
   56MOL0     O 7263   0.990   6.113   8.753 -1.0670  0.1762 -0.2688
   56MOL0     C 7264   1.118   6.070   8.705  0.0209  0.1092  0.6218
   56MOL0     C 7265   1.120   5.966   8.611  0.7650 -0.2748 -0.4515
   56MOL0     C 7266   1.235   5.910   8.565 -1.2715 -0.7520 -0.8578
   56MOL0     C 7267   1.364   5.966   8.607  1.1241  0.0153  0.3702
   56MOL0     O 7268   1.483   5.919   8.571 -0.0290  0.7076  0.5209
   56MOL0     C 7269   1.491   5.796   8.487 -0.1746 -1.1935 -0.0356
   56MOL0     C 7270   1.626   5.735   8.482  0.2153  0.2189 -0.3474
   56MOL0     C 7271   1.744   5.831   8.436 -0.1803 -0.3109 -0.5404
   56MOL0     C 7272   1.862   5.742   8.411 -1.0088  1.3857 -0.9009
   56MOL0     C 7273   1.991   5.822   8.402  0.4087 -0.5002 -0.3612
   56MOL0     C 7274   2.107   5.742   8.322 -0.2489 -0.4847 -1.4909
   56MOL0     C 7275   2.239   5.821   8.295  0.1466 -0.6574 -0.5295
   56MOL0     C 7276   2.311   5.866   8.424  0.9667 -0.1899  0.0854
   56MOL0     N 7277   2.432   5.939   8.380  0.0095 -0.1499  0.6368
   56MOL0     C 7278   2.562   5.884   8.376 -0.0810 -0.1758  0.4676
   56MOL0     C 7279   2.648   5.986   8.356 -0.3394  0.8609 -0.8828
   56MOL0     C 7280   2.798   5.992   8.365  0.4000 -0.2327  0.3872
   56MOL0     C 7281   2.844   6.095   8.464  0.5486  0.1734 -0.7296
   56MOL0     C 7282   2.808   6.072   8.611  0.0503 -0.1982  0.0474
   56MOL0     C 7283   2.934   6.069   8.696 -0.0655 -0.4638 -0.2209
   56MOL0     O 7284   2.974   6.206   8.713  0.4070  0.4707  0.1228
   56MOL0     C 7285   3.056   6.251   8.815 -0.5363 -0.5249 -0.1473
   56MOL0     C 7286   3.117   6.161   8.908  0.2234  0.7498 -0.3934
   56MOL0     C 7287   3.198   6.217   9.016 -0.2210  0.0843 -0.3216
   56MOL0     C 7288   3.228   6.352   9.028 -0.4223 -0.0413 -0.6673
   56MOL0     C 7289   3.324   6.403   9.127  0.2318  0.2348 -1.0420
   56MOL0     O 7290   3.399   6.305   9.191 -0.3878 -0.2857 -0.2076
   56MOL0     C 7291   3.520   6.348   9.246  1.0208 -0.3134  0.2668
   56MOL0     C 7292   3.631   6.375   9.165  0.7969 -0.2299  0.1472
   56MOL0     C 7293   3.755   6.413   9.221  0.1124  0.0314  0.0112
   56MOL0     C 7294   3.778   6.434   9.361 -0.1806 -0.7689 -0.0397
   56MOL0     O 7295   3.901   6.474   9.401 -0.3922  0.4508  1.9781
   56MOL0     C 7296   3.957   6.402   9.512  0.1107 -0.3027 -0.3622
   56MOL0     C 7297   4.038   6.281   9.466  0.1981 -0.7879 -0.2936
   56MOL0     C 7298   3.951   6.164   9.422 -0.1192 -0.2128 -0.3617
   56MOL0     C 7299   4.039   6.038   9.406 -0.1982  0.0467  0.2588
   56MOL0     C 7300   3.965   5.914   9.396  0.2158  0.5153 -0.1838
   56MOL0     C 7301   3.847   5.919   9.293  0.0173  0.3326 -0.4497
   56MOL0     C 7302   3.708   5.945   9.342 -0.1791 -0.1094 -0.9362
   56MOL0     C 7303   3.608   5.928   9.227 -0.2214 -0.1524 -0.7452
   56MOL0    Cl 7304   3.612   5.777   9.138  0.4975  0.2804 -0.5480
   56MOL0     C 7305   3.664   6.399   9.442  0.0934 -0.3319  0.2068
   56MOL0     C 7306   3.535   6.370   9.391  0.5159 -0.6473  1.0266
   56MOL0     O 7307   3.349   6.526   9.144  0.9289  0.4097 -0.0087
   56MOL0     C 7308   3.164   6.437   8.935 -0.4435 -0.0711  0.1971
   56MOL0     C 7309   3.079   6.385   8.834 -0.0439  0.1890  0.1691
   56MOL0     N 7310   2.574   6.097   8.338  0.4180  0.2931  0.2502
   56MOL0     N 7311   2.447   6.070   8.357 -0.0245  0.7576 -0.0815
   56MOL0     C 7312   1.362   6.076   8.695 -0.9281  0.5570  0.2084
   56MOL0     C 7313   1.238   6.113   8.758 -0.7039 -0.0464 -0.2405
   56MOL0     C 7314   0.778   6.077   8.862 -0.3973 -0.9601  0.0363
   56MOL0     C 7315   0.733   6.208   8.822 -0.3029 -1.2070  0.0163
   56MOL0     C 7316   0.600   6.243   8.826  0.7521 -0.1159 -0.3454
   56MOL0     C 7317   0.502   6.152   8.886 -0.7976  0.6107  0.4447
   56MOL0     O 7318   0.369   6.162   8.903 -0.1102 -0.4102 -0.5130
   56MOL0     C 7319   0.318   6.283   8.840 -0.2821  0.1402 -0.3736
   56MOL0     C 7320   0.165   6.284   8.821  0.5368 -0.5412 -0.0215
   56MOL0     C 7321   0.079   6.210   8.920 -0.3279  0.3205  0.0626
   56MOL0     C 7322  -0.075   6.221   8.894  0.2115 -0.8983 -0.0011
   56MOL0     C 7323  -0.137   6.164   9.015  0.0006 -0.1424 -0.2627
   56MOL0     C 7324  -0.189   6.140   9.126  0.6114 -0.3225  0.2031
   56MOL0     C 7325   0.552   6.023   8.931  0.6985 -0.4315  0.3995
   56MOL0     C 7326   0.679   5.989   8.911 -0.5193 -1.3537 -0.4722
   56MOL0     H 7327   1.028   5.928   8.568  1.9575 -2.5224 -1.1814
   56MOL0     H 7328   1.227   5.830   8.492  0.3831 -0.4892 -1.3693
   56MOL0     H 7329   1.447   5.818   8.389  1.8122 -0.5264 -0.8421
   56MOL0     H 7330   1.416   5.725   8.522 -1.9242  0.8647  0.6042
   56MOL0     H 7331   1.623   5.650   8.413 -1.0392  0.5026 -0.6609
   56MOL0     H 7332   1.645   5.697   8.583 -0.0876  0.0039 -0.3707
   56MOL0     H 7333   1.754   5.901   8.519 -0.7498  3.6898 -3.5173
   56MOL0     H 7334   1.708   5.889   8.350 -0.4212  0.2959 -0.0358
   56MOL0     H 7335   1.865   5.675   8.497  0.3823  0.8642 -1.3297
   56MOL0     H 7336   1.849   5.685   8.318  0.9749 -0.3872 -0.1636
   56MOL0     H 7337   2.037   5.833   8.501  0.1567  0.3575 -0.3316
   56MOL0     H 7338   1.975   5.917   8.350 -0.5085 -0.8323 -0.7084
   56MOL0     H 7339   2.055   5.708   8.232 -3.1471 -2.7063  0.8062
   56MOL0     H 7340   2.131   5.649   8.374  2.1677  1.5786  1.4807
   56MOL0     H 7341   2.316   5.758   8.247  2.5333  0.9248  0.9819
   56MOL0     H 7342   2.226   5.901   8.223  2.0942  0.5804  0.3960
   56MOL0     H 7343   2.348   5.781   8.482  1.1107 -1.3432 -1.6285
   56MOL0     H 7344   2.244   5.929   8.484  1.9588 -2.2492  3.6599
   56MOL0     H 7345   2.591   5.780   8.386  2.7105  0.5537  0.7481
   56MOL0     H 7346   2.835   6.006   8.263 -0.5293 -1.0383 -0.0848
   56MOL0     H 7347   2.828   5.891   8.396  1.5690  0.4808  1.7064
   56MOL0     H 7348   2.810   6.195   8.438 -1.0852  0.5039  2.2179
   56MOL0     H 7349   2.950   6.117   8.447  0.3132 -0.0586 -2.7016
   56MOL0     H 7350   2.749   6.154   8.652  0.8209  1.4369 -1.9163
   56MOL0     H 7351   2.747   5.982   8.624  2.5750 -1.9224  0.7322
   56MOL0     H 7352   3.016   6.008   8.658  1.5257 -0.0410  2.2990
   56MOL0     H 7353   2.919   6.013   8.789 -0.6729  0.4844  0.2757
   56MOL0     H 7354   3.097   6.055   8.921  0.1150  0.8670  0.4756
   56MOL0     H 7355   3.232   6.143   9.087 -2.4608 -0.4515  0.2878
   56MOL0     H 7356   3.614   6.346   9.062 -0.0929 -0.7527  0.4325
   56MOL0     H 7357   3.842   6.432   9.158  2.0769  1.7759  2.9590
   56MOL0     H 7358   3.874   6.367   9.574  1.4800 -2.0765  0.5614
   56MOL0     H 7359   4.016   6.461   9.584 -0.3428 -1.9526  1.4402
   56MOL0     H 7360   4.110   6.243   9.539  1.3510  0.0295 -0.9655
   56MOL0     H 7361   4.094   6.315   9.378  3.1761 -1.4849  1.2030
   56MOL0     H 7362   3.890   6.183   9.333 -1.6323  2.4445  1.1218
   56MOL0     H 7363   3.878   6.146   9.502  0.3336  0.3656  0.2010
   56MOL0     H 7364   4.104   6.052   9.320  0.6342  1.0870  1.0283
   56MOL0     H 7365   4.103   6.036   9.495  0.1173  2.2272  0.1317
   56MOL0     H 7366   3.925   5.903   9.497 -0.4959 -0.7610 -0.5833
   56MOL0     H 7367   4.035   5.832   9.381 -0.9405 -0.7447  1.0011
   56MOL0     H 7368   3.848   5.823   9.240  0.9639  0.9347 -1.5676
   56MOL0     H 7369   3.879   5.996   9.223  2.0521 -0.0843 -0.0326
   56MOL0     H 7370   3.688   5.879   9.428  1.7559  3.2355  2.3494
   56MOL0     H 7371   3.698   6.046   9.381 -0.2292 -0.9119  1.3042
   56MOL0     H 7372   3.607   6.017   9.164 -1.1664  0.9791  0.8126
   56MOL0     H 7373   3.512   5.933   9.278  0.8741  1.4671  1.3205
   56MOL0     H 7374   3.672   6.396   9.550  1.3991  2.3298  0.2879
   56MOL0     H 7375   3.445   6.347   9.447 -0.7640  2.0450  0.2387
   56MOL0     H 7376   3.189   6.542   8.923  3.3370 -0.7716  0.8135
   56MOL0     H 7377   3.033   6.452   8.762  1.4438  1.0446 -0.0283
   56MOL0     H 7378   1.452   6.133   8.716 -2.7777  3.3251  1.1879
   56MOL0     H 7379   1.242   6.180   8.843  3.3733 -0.7198  0.2789
   56MOL0     H 7380   0.810   6.279   8.794 -3.3645  1.9983 -0.9423
   56MOL0     H 7381   0.567   6.344   8.800 -1.5769 -0.6643  0.2748
   56MOL0     H 7382   0.358   6.313   8.743  3.2330  7.1877  2.4857
   56MOL0     H 7383   0.352   6.365   8.905 -1.6279  0.5674 -0.1807
   56MOL0     H 7384   0.127   6.385   8.802 -1.1557 -0.8784  1.2889
   56MOL0     H 7385   0.149   6.237   8.724  3.0048 -1.1644 -0.1865
   56MOL0     H 7386   0.109   6.233   9.023 -0.0246  1.2355 -0.2176
   56MOL0     H 7387   0.095   6.104   8.903 -3.1385 -0.4811  1.7278
   56MOL0     H 7388  -0.105   6.326   8.881  1.9268 -0.6461 -2.5548
   56MOL0     H 7389  -0.106   6.175   8.800  0.0490  0.1765 -0.4904
   56MOL0     H 7390  -0.220   6.139   9.228  1.1355  2.1192  0.4532
   56MOL0     H 7391   0.482   5.953   8.974  0.9612 -0.5639  0.6130
   56MOL0     H 7392   0.699   5.887   8.944 -0.2387 -1.3947 -0.7573
   57MOL0     O 7393   7.800   8.746   0.166 -0.6520 -0.6137  0.6775
   57MOL0     C 7394   7.791   8.821   0.066  1.1346  0.8515  0.0050
   57MOL0     O 7395   7.698   8.909   0.036 -0.0156  0.9971  0.6620
   57MOL0     C 7396   7.580   8.904   0.106 -0.1364  0.2318 -0.2481
   57MOL0     C 7397   7.570   8.907   0.247 -0.5011  0.3624 -0.8259
   57MOL0     C 7398   7.440   8.916   0.309 -0.9799 -0.3439  0.0765
   57MOL0     C 7399   7.331   8.920   0.220 -0.2494 -0.2800  0.3030
   57MOL0     O 7400   7.195   8.938   0.250  0.0958 -0.4406  0.0019
   57MOL0     C 7401   7.151   8.941   0.391 -0.2213  1.2140  0.2212
   57MOL0     C 7402   7.013   8.885   0.410  0.6565  0.1445  0.1038
   57MOL0     C 7403   6.915   8.960   0.326  0.5233 -0.3515  1.0817
   57MOL0     C 7404   6.772   8.894   0.321  0.0152  0.9068  0.8898
   57MOL0     C 7405   6.758   8.752   0.256  0.1993 -0.9773  0.1930
   57MOL0     C 7406   6.780   8.768   0.106 -0.0642  0.5444  0.2478
   57MOL0     C 7407   6.789   8.629   0.058  0.4610 -0.6924 -0.6725
   57MOL0     C 7408   6.815   8.612  -0.098  0.6189  0.3458 -0.6753
   57MOL0     N 7409   6.809   8.465  -0.128  0.6054 -0.5870 -0.8062
   57MOL0     C 7410   6.912   8.386  -0.167 -0.8524 -0.0253  0.9834
   57MOL0     C 7411   6.867   8.273  -0.217 -0.3163 -1.0292 -0.2081
   57MOL0     C 7412   6.957   8.158  -0.277  0.2538 -0.1821 -0.3551
   57MOL0     C 7413   6.941   8.153  -0.429  1.0213  0.7171  0.1476
   57MOL0     C 7414   6.992   8.270  -0.515  0.1307 -0.7223  0.0726
   57MOL0     C 7415   7.139   8.304  -0.491 -0.7540 -0.0469  0.2954
   57MOL0     O 7416   7.209   8.187  -0.555 -0.2206 -0.6898 -0.9099
   57MOL0     C 7417   7.344   8.180  -0.538 -0.5864 -0.4927 -1.0898
   57MOL0     C 7418   7.404   8.091  -0.615 -0.2023  0.0336  0.3501
   57MOL0     C 7419   7.537   8.062  -0.606 -0.3585 -1.2777  0.3671
   57MOL0     C 7420   7.615   8.145  -0.535  0.3482  0.4769 -0.4943
   57MOL0     C 7421   7.763   8.128  -0.546  0.6046  0.4393 -0.8661
   57MOL0     O 7422   7.808   8.012  -0.593  0.6603  0.1585 -0.0156
   57MOL0     C 7423   7.935   7.993  -0.649 -0.0002 -0.2214  0.7414
   57MOL0     C 7424   8.039   8.089  -0.667 -0.7943  0.0371  0.3349
   57MOL0     C 7425   8.167   8.059  -0.717  1.0712  0.4845  0.3480
   57MOL0     C 7426   8.193   7.923  -0.761  0.3521 -0.1525 -0.7034
   57MOL0     O 7427   8.316   7.878  -0.814  0.0541 -0.5855 -0.4339
   57MOL0     C 7428   8.426   7.945  -0.751 -0.8496 -0.0944  0.0015
   57MOL0     C 7429   8.553   7.868  -0.772 -0.6321 -0.8196 -0.5117
   57MOL0     C 7430   8.611   7.871  -0.909  0.7875  0.1255 -0.1951
   57MOL0     C 7431   8.758   7.829  -0.905  0.2521  0.4573 -0.6415
   57MOL0     C 7432   8.831   7.823  -1.037 -0.6663  0.1584  0.2812
   57MOL0     C 7433   8.988   7.821  -1.019 -0.0984 -0.3704  0.4176
   57MOL0     C 7434   9.059   7.819  -1.155  0.9393 -0.3438 -0.1319
   57MOL0     C 7435   9.193   7.746  -1.147 -0.8263  0.0970  0.3499
   57MOL0    Cl 7436   9.273   7.726  -1.300 -0.0473 -0.1014 -0.1157
   57MOL0     C 7437   8.084   7.828  -0.744 -1.0777  0.2292  0.0806
   57MOL0     C 7438   7.959   7.870  -0.707 -0.5349  0.7406  0.4734
   57MOL0     O 7439   7.832   8.215  -0.496  0.0023 -0.1938  0.3991
   57MOL0     C 7440   7.557   8.244  -0.453 -0.3023  0.3074  0.4821
   57MOL0     C 7441   7.416   8.252  -0.445 -0.5930  0.4274  0.3144
   57MOL0     N 7442   6.735   8.281  -0.209 -0.0987  0.4277 -0.4372
   57MOL0     N 7443   6.692   8.395  -0.165 -1.1209  0.5893 -0.5986
   57MOL0     C 7444   7.345   8.917   0.088  0.0873  1.0989  0.7195
   57MOL0     C 7445   7.469   8.916   0.028 -0.3920  0.2948 -1.5721
   57MOL0     C 7446   7.905   8.821  -0.015  0.3694 -0.7034  0.4515
   57MOL0     C 7447   8.026   8.762   0.026  0.6015 -0.3044  0.2350
   57MOL0     C 7448   8.141   8.767  -0.049  0.3965  0.3747 -0.7491
   57MOL0     C 7449   8.144   8.834  -0.167 -0.8135  0.5737 -0.2467
   57MOL0     O 7450   8.258   8.850  -0.243 -0.0940 -0.2775  0.2853
   57MOL0     C 7451   8.344   8.739  -0.276 -0.2423 -0.5331 -0.1566
   57MOL0     C 7452   8.274   8.638  -0.349 -0.2190 -0.4118 -0.1759
   57MOL0     C 7453   8.382   8.538  -0.404 -0.2733  0.2884 -0.3469
   57MOL0     C 7454   8.315   8.457  -0.516 -0.4471  0.2830 -0.4364
   57MOL0     C 7455   8.245   8.340  -0.460  0.6709 -0.0036 -0.5450
   57MOL0     C 7456   8.178   8.246  -0.416  0.8628 -0.4060  0.7432
   57MOL0     C 7457   8.030   8.889  -0.214  0.4439  0.5647  0.5950
   57MOL0     C 7458   7.911   8.884  -0.141  0.2814 -0.4828 -0.4297
   57MOL0     H 7459   7.649   8.915   0.321  0.0598  0.5176 -1.4311
   57MOL0     H 7460   7.427   8.934   0.415 -0.0323 -0.1298  0.1622
   57MOL0     H 7461   7.167   9.039   0.437 -2.4405  1.0733  1.4317
   57MOL0     H 7462   7.212   8.869   0.445 -0.9429  1.6093  1.6196
   57MOL0     H 7463   6.985   8.883   0.515 -2.6014 -2.2103 -0.6438
   57MOL0     H 7464   7.020   8.779   0.384 -1.5255 -0.6098  2.1734
   57MOL0     H 7465   6.957   8.985   0.228  0.6845  2.1728  1.7270
   57MOL0     H 7466   6.905   9.062   0.364 -1.2810 -0.3991  0.8335
   57MOL0     H 7467   6.734   8.879   0.423  2.7820 -2.6215  1.6107
   57MOL0     H 7468   6.703   8.960   0.268 -3.1528  0.5380  4.1663
   57MOL0     H 7469   6.659   8.712   0.275 -1.1030  1.1060 -1.6292
   57MOL0     H 7470   6.832   8.680   0.291  0.0532 -2.9252 -3.1308
   57MOL0     H 7471   6.869   8.812   0.060 -0.5800 -1.4913 -3.0136
   57MOL0     H 7472   6.695   8.829   0.074  1.2706  2.5700  0.3733
   57MOL0     H 7473   6.869   8.583   0.117 -0.8277  0.3259  1.9931
   57MOL0     H 7474   6.694   8.587   0.092 -1.9701  2.2331 -3.2765
   57MOL0     H 7475   6.912   8.656  -0.125  1.0286  1.6249  2.4476
   57MOL0     H 7476   6.733   8.660  -0.151 -1.8317 -1.9174  0.7841
   57MOL0     H 7477   7.015   8.421  -0.164 -0.6332 -0.5691  0.1325
   57MOL0     H 7478   6.920   8.065  -0.233  2.3682  0.1667  2.4437
   57MOL0     H 7479   7.062   8.179  -0.252  0.2735 -0.3783 -0.2730
   57MOL0     H 7480   6.832   8.153  -0.440  1.0412 -1.7702 -0.5192
   57MOL0     H 7481   6.978   8.059  -0.469 -1.0499  0.5693 -1.6192
   57MOL0     H 7482   6.963   8.248  -0.618 -2.8269  1.8927  0.2257
   57MOL0     H 7483   6.942   8.364  -0.491  2.9639  1.3732 -1.5594
   57MOL0     H 7484   7.168   8.324  -0.387  5.1935  4.3540 -1.6512
   57MOL0     H 7485   7.152   8.400  -0.542 -0.8337 -1.3825 -2.3667
   57MOL0     H 7486   7.354   8.029  -0.689 -0.1307 -1.9397  1.8726
   57MOL0     H 7487   7.575   7.982  -0.669  3.4264 -0.8302  1.8407
   57MOL0     H 7488   8.023   8.192  -0.638 -2.2364 -0.1232  0.1852
   57MOL0     H 7489   8.234   8.144  -0.726  0.8472  0.5840 -0.4783
   57MOL0     H 7490   8.414   7.957  -0.643 -0.5962  0.1522  0.0032
   57MOL0     H 7491   8.430   8.045  -0.796  1.8360  0.2817  0.8968
   57MOL0     H 7492   8.535   7.771  -0.724 -0.3889 -0.6184 -0.0071
   57MOL0     H 7493   8.630   7.918  -0.713  0.6356  0.4874 -3.0890
   57MOL0     H 7494   8.589   7.961  -0.966 -1.9837 -0.6730 -0.5052
   57MOL0     H 7495   8.561   7.796  -0.971  1.3759 -0.7658  0.3780
   57MOL0     H 7496   8.809   7.902  -0.843 -0.5889  0.4612  0.0728
   57MOL0     H 7497   8.764   7.733  -0.852  0.5939  0.4131 -0.7602
   57MOL0     H 7498   8.806   7.910  -1.098  1.0656 -1.7077 -3.3881
   57MOL0     H 7499   8.798   7.737  -1.096 -0.9787  1.3316 -1.3222
   57MOL0     H 7500   9.013   7.728  -0.967 -1.3925 -2.2428 -2.0743
   57MOL0     H 7501   9.036   7.904  -0.966  2.4259 -1.5968  0.1893
   57MOL0     H 7502   9.001   7.767  -1.232 -3.8341  0.8335  2.2801
   57MOL0     H 7503   9.078   7.924  -1.179  1.2421 -0.3241  0.1868
   57MOL0     H 7504   9.188   7.640  -1.121  1.8905 -0.3540 -0.6045
   57MOL0     H 7505   9.262   7.795  -1.077  0.9660 -0.9309 -0.6144
   57MOL0     H 7506   8.105   7.727  -0.778  2.3946  1.3461 -1.5585
   57MOL0     H 7507   7.884   7.792  -0.715  1.7667 -2.2639  4.2882
   57MOL0     H 7508   7.626   8.305  -0.395  0.5945 -1.9082  1.8816
   57MOL0     H 7509   7.371   8.331  -0.386 -1.3712  0.4521 -0.2958
   57MOL0     H 7510   7.255   8.920   0.027 -1.0445  0.0949  2.2447
   57MOL0     H 7511   7.479   8.919  -0.080 -2.5754  1.1903 -1.7959
   57MOL0     H 7512   8.035   8.719   0.125  0.3437 -1.2100 -0.1197
   57MOL0     H 7513   8.233   8.718  -0.018 -1.3142 -1.8905  1.1650
   57MOL0     H 7514   8.378   8.692  -0.183 -0.7726  0.4948  0.5662
   57MOL0     H 7515   8.428   8.778  -0.334  2.1176  0.3029  3.4857
   57MOL0     H 7516   8.202   8.593  -0.281 -3.3565  2.0226 -1.6472
   57MOL0     H 7517   8.217   8.680  -0.432  1.6139  1.5502 -0.5232
   57MOL0     H 7518   8.430   8.466  -0.337  3.1088  1.1055 -1.6379
   57MOL0     H 7519   8.476   8.590  -0.426  0.9044 -0.5883  2.1567
   57MOL0     H 7520   8.241   8.506  -0.580 -0.2068  0.7749 -0.3442
   57MOL0     H 7521   8.394   8.412  -0.578  0.4450  1.4017 -0.1561
   57MOL0     H 7522   8.112   8.163  -0.402 -0.0239 -0.0403 -1.0033
   57MOL0     H 7523   8.034   8.931  -0.314 -0.8289 -0.5902  0.0383
   57MOL0     H 7524   7.818   8.919  -0.183  0.8803 -0.0719 -1.4408
   58MOL0     O 7525   8.360   3.874   6.309 -0.3735 -0.2619 -0.4503
   58MOL0     C 7526   8.354   3.882   6.193  0.1385  0.1271  0.6572
   58MOL0     O 7527   8.240   3.922   6.127  0.6854 -0.2899  0.6710
   58MOL0     C 7528   8.119   3.897   6.190 -0.6841 -0.4279 -0.4708
   58MOL0     C 7529   8.015   3.974   6.143  0.2182  0.7236 -0.2405
   58MOL0     C 7530   7.878   3.951   6.196  0.1558  0.4291  0.4676
   58MOL0     C 7531   7.858   3.861   6.298 -0.2690  1.1813  0.1247
   58MOL0     O 7532   7.726   3.857   6.329 -0.7730  0.0636  0.3929
   58MOL0     C 7533   7.682   3.763   6.429 -0.6008 -0.1674  0.7501
   58MOL0     C 7534   7.539   3.733   6.411  0.0443  0.1912 -0.0516
   58MOL0     C 7535   7.449   3.745   6.533 -0.8792  0.1072  0.0578
   58MOL0     C 7536   7.313   3.698   6.497 -0.9608  0.0132  0.9497
   58MOL0     C 7537   7.211   3.710   6.613  0.7938 -0.8471 -0.4184
   58MOL0     C 7538   7.207   3.850   6.687  0.1877  0.6963  0.3711
   58MOL0     C 7539   7.095   3.867   6.785  0.3553  0.5952 -0.1600
   58MOL0     C 7540   6.957   3.865   6.715  0.1624  0.2867  0.2908
   58MOL0     N 7541   6.835   3.901   6.791 -0.1128  0.1096  0.8380
   58MOL0     C 7542   6.796   4.030   6.835 -0.5057  0.3507  0.0013
   58MOL0     C 7543   6.682   4.002   6.902  0.3471  0.2203  0.3112
   58MOL0     C 7544   6.595   4.119   6.947  0.2536 -0.2011 -0.3303
   58MOL0     C 7545   6.459   4.091   6.896 -0.5468  0.9023 -0.2830
   58MOL0     C 7546   6.364   4.199   6.972  0.9875 -0.6948  0.4650
   58MOL0     C 7547   6.210   4.184   6.937  0.4548 -0.3896  0.3516
   58MOL0     O 7548   6.196   4.179   6.791  0.2685 -0.3638  0.6340
   58MOL0     C 7549   6.066   4.166   6.742  0.5040  0.0428 -0.4685
   58MOL0     C 7550   5.960   4.125   6.812  0.9918  0.2390  0.3928
   58MOL0     C 7551   5.824   4.121   6.757 -0.0529  1.0695 -0.1397
   58MOL0     C 7552   5.809   4.165   6.624 -0.2499 -0.0579 -0.5585
   58MOL0     C 7553   5.673   4.169   6.566  0.7741  0.1474 -0.3945
   58MOL0     O 7554   5.570   4.120   6.642  0.6184 -0.1221  1.0891
   58MOL0     C 7555   5.441   4.138   6.589 -0.5629 -0.3984  0.2714
   58MOL0     C 7556   5.358   4.026   6.599  0.0783 -0.8018 -0.1812
   58MOL0     C 7557   5.223   4.035   6.568  0.6564  0.3081  0.0642
   58MOL0     C 7558   5.167   4.154   6.505  0.5334  1.0641  0.4053
   58MOL0     O 7559   5.032   4.142   6.476  0.6997 -0.0141 -0.5616
   58MOL0     C 7560   4.988   4.241   6.385  0.6705 -0.6784  0.2395
   58MOL0     C 7561   4.856   4.205   6.318  0.6599 -0.3616 -0.2539
   58MOL0     C 7562   4.740   4.196   6.418 -0.7268 -0.3739  0.3955
   58MOL0     C 7563   4.605   4.180   6.336 -0.3684  0.2813  0.0712
   58MOL0     C 7564   4.496   4.151   6.435 -0.2699 -0.0874  0.0614
   58MOL0     C 7565   4.378   4.088   6.365  0.0667  0.6211  1.1093
   58MOL0     C 7566   4.395   3.941   6.340  0.3230  0.1570 -0.8407
   58MOL0     C 7567   4.281   3.870   6.264 -1.4338  0.1705  0.5289
   58MOL0    Cl 7568   4.155   3.810   6.370  0.1247 -0.1210  0.3243
   58MOL0     C 7569   5.257   4.261   6.492  0.1084 -0.0638  0.8091
   58MOL0     C 7570   5.394   4.256   6.532  1.3248 -0.8542 -0.0614
   58MOL0     O 7571   5.663   4.230   6.458  0.0145 -0.2480  0.1043
   58MOL0     C 7572   5.921   4.196   6.546 -0.8431  0.2274  0.4427
   58MOL0     C 7573   6.043   4.191   6.609 -0.1309 -0.1020  0.8274
   58MOL0     N 7574   6.660   3.867   6.909  0.4498 -0.1954  0.2782
   58MOL0     N 7575   6.750   3.809   6.841 -0.1416  0.7442  0.2861
   58MOL0     C 7576   7.972   3.795   6.350  0.3514 -0.3741 -0.3314
   58MOL0     C 7577   8.097   3.802   6.294 -0.8991 -0.4651  0.5291
   58MOL0     C 7578   8.486   3.862   6.122  0.1360  0.2026 -0.1156
   58MOL0     C 7579   8.616   3.898   6.183  0.0036 -0.6849  0.2253
   58MOL0     C 7580   8.731   3.924   6.106  0.4907 -0.5817 -0.6422
   58MOL0     C 7581   8.729   3.915   5.969  0.2003  0.6915 -0.1840
   58MOL0     O 7582   8.829   3.938   5.883 -0.0543  1.1236 -0.2621
   58MOL0     C 7583   8.950   3.975   5.949 -0.3721  1.1287  0.9445
   58MOL0     C 7584   9.047   4.004   5.831 -0.8963 -0.5875 -0.8998
   58MOL0     C 7585   9.157   4.095   5.872  0.6855 -0.4908  0.2122
   58MOL0     C 7586   9.239   4.156   5.758 -0.5776 -0.0099  0.5037
   58MOL0     C 7587   9.316   4.272   5.799 -0.6641 -0.2240 -0.1007
   58MOL0     C 7588   9.373   4.375   5.830  0.1150  0.4730  0.0531
   58MOL0     C 7589   8.605   3.869   5.909  0.7014 -0.2579 -0.2596
   58MOL0     C 7590   8.485   3.845   5.985  0.0954  0.8034 -0.6626
   58MOL0     H 7591   8.023   4.052   6.069 -1.5171  0.1537 -1.0934
   58MOL0     H 7592   7.799   4.019   6.164 -0.1469 -1.2475 -2.7848
   58MOL0     H 7593   7.698   3.808   6.527 -0.1318 -0.2718  0.7234
   58MOL0     H 7594   7.748   3.675   6.431 -0.1008  0.0248 -2.3910
   58MOL0     H 7595   7.524   3.637   6.361 -1.6057 -0.9977  2.5290
   58MOL0     H 7596   7.503   3.808   6.340 -0.6846 -0.9377 -0.9163
   58MOL0     H 7597   7.442   3.850   6.563 -1.4182 -0.2921  1.4168
   58MOL0     H 7598   7.486   3.692   6.621 -1.2230  1.5096  1.0825
   58MOL0     H 7599   7.270   3.738   6.405 -2.7679 -0.5696  1.4991
   58MOL0     H 7600   7.330   3.593   6.469 -1.2604  0.9513 -3.4501
   58MOL0     H 7601   7.223   3.631   6.689 -5.5150 -1.5342  0.3473
   58MOL0     H 7602   7.113   3.683   6.572  0.6292 -0.8749 -0.0108
   58MOL0     H 7603   7.209   3.930   6.612  1.3528  1.6576  1.3692
   58MOL0     H 7604   7.299   3.863   6.745  0.0527 -0.6594  0.9261
   58MOL0     H 7605   7.104   3.795   6.867  0.4887 -3.1553 -3.1585
   58MOL0     H 7606   7.088   3.969   6.823 -2.8039  0.0047  1.1581
   58MOL0     H 7607   6.945   3.766   6.672 -1.1106  0.8263 -0.6674
   58MOL0     H 7608   6.959   3.929   6.627  0.4393 -1.0481 -0.6948
   58MOL0     H 7609   6.820   4.129   6.798 -4.0700  1.0493 -0.8335
   58MOL0     H 7610   6.632   4.213   6.906  0.0635  1.4100  2.9211
   58MOL0     H 7611   6.600   4.136   7.055 -2.0641  2.7388 -0.5527
   58MOL0     H 7612   6.431   3.986   6.913  1.3285  0.4263  0.1196
   58MOL0     H 7613   6.454   4.107   6.788  0.3003  1.8137 -0.2046
   58MOL0     H 7614   6.388   4.210   7.078  1.0943  0.6694  0.3171
   58MOL0     H 7615   6.399   4.295   6.931 -0.5647 -0.0884  0.5078
   58MOL0     H 7616   6.151   4.265   6.980  0.8280 -1.6205  3.4004
   58MOL0     H 7617   6.175   4.094   6.988 -3.4033  1.2224  0.8282
   58MOL0     H 7618   5.963   4.088   6.914 -1.4805 -0.7440  0.1763
   58MOL0     H 7619   5.751   4.069   6.818  0.8335  0.0416  0.0841
   58MOL0     H 7620   5.413   3.940   6.636  1.9557 -0.4167 -1.8716
   58MOL0     H 7621   5.162   3.948   6.592  0.4932  0.5306  0.4570
   58MOL0     H 7622   5.064   4.268   6.312  0.8141 -1.8195 -0.0477
   58MOL0     H 7623   4.969   4.329   6.448  0.5782  0.5373 -1.4117
   58MOL0     H 7624   4.855   4.114   6.259 -1.6889  1.2807 -2.9972
   58MOL0     H 7625   4.838   4.290   6.251  0.0894  0.4355  0.8693
   58MOL0     H 7626   4.730   4.285   6.480 -2.5512 -0.0127 -0.3493
   58MOL0     H 7627   4.761   4.108   6.480  1.3344  0.7191  1.3437
   58MOL0     H 7628   4.564   4.272   6.293 -5.9105 -2.1490 -0.7650
   58MOL0     H 7629   4.610   4.107   6.255  1.1287 -0.6949  1.0011
   58MOL0     H 7630   4.470   4.244   6.486 -0.5582 -0.6908  1.0451
   58MOL0     H 7631   4.522   4.092   6.523 -2.1368 -1.3391 -0.1735
   58MOL0     H 7632   4.368   4.147   6.273  2.4339 -0.1838  0.2576
   58MOL0     H 7633   4.293   4.114   6.428 -2.1919 -0.4117 -1.3405
   58MOL0     H 7634   4.483   3.922   6.277 -1.0930 -1.9259 -2.3042
   58MOL0     H 7635   4.413   3.894   6.437  0.0479  3.0494  0.7269
   58MOL0     H 7636   4.319   3.785   6.207 -1.5274 -0.9049  2.0022
   58MOL0     H 7637   4.232   3.949   6.207 -4.0684 -0.8641  1.2130
   58MOL0     H 7638   5.224   4.358   6.456 -2.1676 -1.7167 -1.8918
   58MOL0     H 7639   5.455   4.345   6.524  0.4909 -0.1996  0.7324
   58MOL0     H 7640   5.921   4.227   6.442  1.1953 -3.3107 -0.8006
   58MOL0     H 7641   6.135   4.203   6.552 -1.9022  1.9970 -1.8263
   58MOL0     H 7642   7.963   3.737   6.442  0.6724  3.6703  2.5377
   58MOL0     H 7643   8.172   3.734   6.334 -1.4007 -0.6929  1.1113
   58MOL0     H 7644   8.602   3.911   6.289 -1.2056 -2.2728  0.3083
   58MOL0     H 7645   8.816   3.951   6.168 -1.1539  0.3749  1.3414
   58MOL0     H 7646   8.967   3.895   6.022  0.2129 -0.3596 -0.7765
   58MOL0     H 7647   8.937   4.068   6.007  0.1349 -0.1139  3.1668
   58MOL0     H 7648   9.081   3.912   5.782  0.2997  2.0372 -5.6078
   58MOL0     H 7649   8.997   4.061   5.753 -0.9377 -2.2531 -2.1636
   58MOL0     H 7650   9.235   4.038   5.923  1.0381  0.7093  1.0544
   58MOL0     H 7651   9.110   4.181   5.921  0.1622 -1.6649  1.8619
   58MOL0     H 7652   9.306   4.083   5.710  1.4981  0.2596  2.7911
   58MOL0     H 7653   9.178   4.203   5.681 -1.3106  0.1935  1.2024
   58MOL0     H 7654   9.433   4.458   5.862 -3.0740  2.4082  1.5554
   58MOL0     H 7655   8.599   3.856   5.801 -1.8565  0.6881 -0.3023
   58MOL0     H 7656   8.394   3.809   5.939 -1.6775 -0.9408  3.7304
   59MOL0     O 7657   8.511   2.469   2.211  0.3231  0.4471  0.4014
   59MOL0     C 7658   8.534   2.356   2.264  1.0531 -0.7321  0.3019
   59MOL0     O 7659   8.456   2.248   2.242 -1.0666  0.4497  0.0536
   59MOL0     C 7660   8.333   2.241   2.184 -0.0198  0.2646  0.5338
   59MOL0     C 7661   8.270   2.348   2.109 -0.0054 -0.0051 -0.3813
   59MOL0     C 7662   8.138   2.339   2.074 -0.2771  0.6259 -1.1353
   59MOL0     C 7663   8.054   2.228   2.094  0.4693 -0.6557 -0.1636
   59MOL0     O 7664   7.921   2.239   2.057 -0.0398 -0.2789  0.3887
   59MOL0     C 7665   7.865   2.116   1.999 -0.7363 -0.3808  0.3943
   59MOL0     C 7666   7.734   2.142   1.915 -0.1423  0.0598 -0.2005
   59MOL0     C 7667   7.610   2.183   2.007  0.6285  0.3237  1.3703
   59MOL0     C 7668   7.482   2.205   1.919 -0.0204 -0.2281  0.0922
   59MOL0     C 7669   7.371   2.237   2.018  0.6185 -0.1611  0.3747
   59MOL0     C 7670   7.238   2.213   1.940  0.2241 -0.6589  0.2932
   59MOL0     C 7671   7.104   2.215   2.024  0.1309  0.1804  0.3498
   59MOL0     C 7672   7.055   2.354   2.046  0.2996 -0.5505 -0.0853
   59MOL0     N 7673   6.928   2.356   2.110  0.2604  0.2156 -0.7182
   59MOL0     C 7674   6.902   2.329   2.251 -0.5833  0.8704  0.1948
   59MOL0     C 7675   6.767   2.337   2.270  0.3458  0.3403  0.7730
   59MOL0     C 7676   6.689   2.336   2.397  0.4470 -0.8588  0.2108
   59MOL0     C 7677   6.746   2.224   2.478  0.1453 -0.0844 -0.8373
   59MOL0     C 7678   6.666   2.155   2.600  0.0770 -0.7139 -0.5435
   59MOL0     C 7679   6.512   2.147   2.575 -0.7521  0.5404  0.5851
   59MOL0     O 7680   6.462   2.034   2.655  0.2842  0.3473 -0.8067
   59MOL0     C 7681   6.329   2.015   2.654  0.2292  0.6816 -1.0262
   59MOL0     C 7682   6.248   2.037   2.534 -0.9766  0.2181  0.2813
   59MOL0     C 7683   6.111   2.010   2.538  0.1519  0.6749 -0.4390
   59MOL0     C 7684   6.050   1.961   2.661  0.3399  0.5259  0.2089
   59MOL0     C 7685   5.905   1.955   2.663  0.0137  0.2776  0.5717
   59MOL0     O 7686   5.838   1.926   2.783  0.2664 -0.0451  0.2189
   59MOL0     C 7687   5.702   1.947   2.804 -0.6011 -0.1172  0.5369
   59MOL0     C 7688   5.600   1.938   2.708 -0.6345  0.4791  0.7242
   59MOL0     C 7689   5.468   1.971   2.741 -0.7704  0.9197  0.2425
   59MOL0     C 7690   5.428   2.003   2.869 -0.1973 -0.0021  1.3352
   59MOL0     O 7691   5.295   2.028   2.892  1.1242  0.3927  0.4033
   59MOL0     C 7692   5.263   2.030   3.023  1.2997 -0.2790  0.0138
   59MOL0     C 7693   5.101   2.053   3.025  0.0868 -0.1507 -0.7208
   59MOL0     C 7694   5.015   1.951   2.951  0.5449  0.0871 -0.4159
   59MOL0     C 7695   4.865   1.956   3.002  0.2794 -0.1918  0.4393
   59MOL0     C 7696   4.766   1.852   2.937  0.5015  0.8544 -0.2387
   59MOL0     C 7697   4.635   1.844   3.024  0.5919 -0.4507  0.3171
   59MOL0     C 7698   4.551   1.715   2.988  0.4252  0.5353  1.2203
   59MOL0     C 7699   4.391   1.734   2.990 -0.1088 -0.9070  0.3236
   59MOL0    Cl 7700   4.338   1.800   2.830 -0.2304  0.1073 -0.3700
   59MOL0     C 7701   5.532   2.024   2.966  0.1144 -0.2835  0.5651
   59MOL0     C 7702   5.665   2.001   2.932 -0.2548  0.3855 -0.8082
   59MOL0     O 7703   5.850   1.998   2.566  0.0098  0.1070  0.1703
   59MOL0     C 7704   6.133   1.926   2.767 -0.4295 -0.2428 -0.0214
   59MOL0     C 7705   6.270   1.951   2.766 -0.0397 -0.4399  0.2591
   59MOL0     N 7706   6.712   2.352   2.148  0.1958 -0.2755  0.3121
   59MOL0     N 7707   6.801   2.358   2.057 -0.6376  0.5798  0.1200
   59MOL0     C 7708   8.108   2.112   2.166  0.5421 -0.1763 -0.2381
   59MOL0     C 7709   8.240   2.133   2.211 -0.7574 -0.3768 -0.2020
   59MOL0     C 7710   8.650   2.335   2.340 -0.0435 -0.0195 -0.1198
   59MOL0     C 7711   8.656   2.217   2.426  0.4745  0.0219  0.1797
   59MOL0     C 7712   8.769   2.195   2.503 -0.5475 -0.8062 -0.0003
   59MOL0     C 7713   8.875   2.286   2.501 -0.0257 -0.2442  0.4786
   59MOL0     O 7714   8.984   2.246   2.574 -0.0249  0.6399  0.3532
   59MOL0     C 7715   8.976   2.265   2.708  0.2462  0.0040  0.7714
   59MOL0     C 7716   9.022   2.409   2.733 -0.2142 -0.6341 -1.3667
   59MOL0     C 7717   8.902   2.496   2.790 -0.4357  0.0691 -0.2810
   59MOL0     C 7718   8.947   2.613   2.879 -0.1273  0.7474 -0.6758
   59MOL0     C 7719   8.958   2.562   3.021 -0.0012 -0.3632  0.6609
   59MOL0     C 7720   8.977   2.527   3.134 -0.0207 -0.0778  0.1542
   59MOL0     C 7721   8.866   2.397   2.419 -0.5024 -0.6106  0.1786
   59MOL0     C 7722   8.753   2.428   2.343 -1.1875  0.6975 -0.5459
   59MOL0     H 7723   8.323   2.439   2.084 -0.7738  0.0107 -2.1343
   59MOL0     H 7724   8.096   2.425   2.023 -2.9453 -0.4827 -0.9232
   59MOL0     H 7725   7.858   2.028   2.064  1.2478 -1.6010 -0.9277
   59MOL0     H 7726   7.932   2.076   1.922 -0.9476  2.1639 -1.2337
   59MOL0     H 7727   7.699   2.048   1.870 -0.1231 -0.3067  0.5343
   59MOL0     H 7728   7.744   2.211   1.831 -0.3480  0.2375 -0.0782
   59MOL0     H 7729   7.628   2.272   2.067 -0.4150  1.3465  0.2192
   59MOL0     H 7730   7.589   2.104   2.080 -0.6977  0.7615  1.4923
   59MOL0     H 7731   7.487   2.284   1.843  2.8282 -1.8346 -1.5255
   59MOL0     H 7732   7.449   2.119   1.860 -3.5955  2.9310 -3.1466
   59MOL0     H 7733   7.375   2.340   2.055 -1.5044 -0.1422  0.6901
   59MOL0     H 7734   7.373   2.160   2.096 -1.5670 -0.8114 -0.1468
   59MOL0     H 7735   7.248   2.111   1.901 -0.4675 -2.1944  3.7527
   59MOL0     H 7736   7.222   2.284   1.858 -2.8663 -1.2041  0.2809
   59MOL0     H 7737   7.032   2.160   1.962 -0.6961  1.1355  0.4331
   59MOL0     H 7738   7.124   2.166   2.119  0.5894  0.0833  0.2083
   59MOL0     H 7739   7.033   2.405   1.952  0.6907 -1.9441 -0.9558
   59MOL0     H 7740   7.129   2.406   2.109 -1.5178  1.9241  0.1389
   59MOL0     H 7741   6.980   2.299   2.320  0.7619 -1.1242 -2.0243
   59MOL0     H 7742   6.584   2.311   2.377  0.6897 -2.3061  0.6719
   59MOL0     H 7743   6.699   2.434   2.447 -0.1823 -1.1104  0.8546
   59MOL0     H 7744   6.842   2.262   2.515  0.2127 -0.8177 -0.2198
   59MOL0     H 7745   6.772   2.139   2.414  0.2093 -0.2620 -0.5832
   59MOL0     H 7746   6.696   2.053   2.625 -0.1812 -0.4411  0.9514
   59MOL0     H 7747   6.683   2.211   2.692 -0.6996 -1.0487 -0.1876
   59MOL0     H 7748   6.496   2.127   2.469  2.0895 -0.1482  0.1927
   59MOL0     H 7749   6.461   2.241   2.599  1.2687  1.6073  0.9832
   59MOL0     H 7750   6.294   2.077   2.444  0.0155 -1.5432 -0.0512
   59MOL0     H 7751   6.059   2.032   2.445 -0.7935 -0.8026 -0.2836
   59MOL0     H 7752   5.626   1.893   2.613 -0.8203  2.7859 -0.4724
   59MOL0     H 7753   5.386   1.978   2.670 -1.1735  1.4183  0.7491
   59MOL0     H 7754   5.303   2.111   3.085 -0.3069  0.5107  0.0723
   59MOL0     H 7755   5.275   1.932   3.070  1.2589  1.2150  3.4544
   59MOL0     H 7756   5.054   2.151   3.020 -1.1642 -0.4305  2.6929
   59MOL0     H 7757   5.081   2.029   3.130 -2.7528 -0.2672 -1.2098
   59MOL0     H 7758   5.059   1.852   2.966  0.1967 -0.8047 -4.2799
   59MOL0     H 7759   5.022   1.975   2.845 -1.4690  1.3945 -0.3109
   59MOL0     H 7760   4.862   1.946   3.111  0.0530 -0.6741  0.3941
   59MOL0     H 7761   4.815   2.050   2.980  2.8002  0.4887 -3.1523
   59MOL0     H 7762   4.819   1.757   2.930  1.2506  1.1344  1.2312
   59MOL0     H 7763   4.743   1.889   2.837  1.9599  1.0534 -0.5106
   59MOL0     H 7764   4.573   1.932   3.011  0.7960 -0.0565  1.7637
   59MOL0     H 7765   4.659   1.848   3.131 -0.6721  3.0939  0.6061
   59MOL0     H 7766   4.583   1.661   2.898  1.2129  2.1649  0.4791
   59MOL0     H 7767   4.562   1.649   3.074  1.8531  1.3924  1.7242
   59MOL0     H 7768   4.372   1.798   3.077  3.8089  0.4239  0.3985
   59MOL0     H 7769   4.331   1.644   3.005  0.2289 -1.4355 -1.3446
   59MOL0     H 7770   5.507   2.064   3.064  1.2545  0.6181  0.5000
   59MOL0     H 7771   5.735   2.033   3.008 -1.8262  0.1639  0.7867
   59MOL0     H 7772   6.097   1.883   2.860  0.9160  1.8474  1.5573
   59MOL0     H 7773   6.327   1.925   2.854  0.2907 -0.5144  0.0213
   59MOL0     H 7774   8.052   2.025   2.198 -0.1667  0.5038  0.4317
   59MOL0     H 7775   8.290   2.046   2.253 -2.2961 -1.0987  0.2063
   59MOL0     H 7776   8.577   2.143   2.433  0.3005  0.0878 -0.9290
   59MOL0     H 7777   8.778   2.102   2.559  1.8469  0.0856  1.2504
   59MOL0     H 7778   9.045   2.198   2.760  1.6920 -1.5659 -2.8009
   59MOL0     H 7779   8.878   2.243   2.753  1.0138 -0.7077  2.1646
   59MOL0     H 7780   9.098   2.401   2.811  2.4764  0.8140 -3.6802
   59MOL0     H 7781   9.060   2.466   2.648 -1.4897 -1.7796 -2.7606
   59MOL0     H 7782   8.829   2.435   2.844 -2.0957  0.6507 -1.7381
   59MOL0     H 7783   8.860   2.541   2.699  2.7797  2.0365 -0.9651
   59MOL0     H 7784   9.039   2.659   2.843  0.8942 -1.4105 -0.9277
   59MOL0     H 7785   8.867   2.688   2.884  1.7004  2.7616  2.3498
   59MOL0     H 7786   8.999   2.521   3.239 -1.3555  4.9673  0.9955
   59MOL0     H 7787   8.951   2.464   2.412  0.8628 -2.3456 -0.5599
   59MOL0     H 7788   8.750   2.519   2.284  1.0072  1.4459  0.3790
   60MOL0     O 7789   3.493   9.347   7.306  0.5602 -0.5602  0.1326
   60MOL0     C 7790   3.428   9.437   7.247 -0.0272  0.4088 -0.6717
   60MOL0     O 7791   3.492   9.539   7.171 -0.0292 -0.3134 -0.3579
   60MOL0     C 7792   3.631   9.538   7.167  0.5304 -1.7216  0.5425
   60MOL0     C 7793   3.704   9.583   7.282  0.5551 -0.7702  0.5787
   60MOL0     C 7794   3.846   9.586   7.275  0.2158 -0.5550 -0.5272
   60MOL0     C 7795   3.911   9.530   7.169 -0.3631  0.5026 -0.4996
   60MOL0     O 7796   4.049   9.525   7.172 -0.4690 -0.0130  0.0551
   60MOL0     C 7797   4.132   9.473   7.068  0.1472  1.1510  0.5875
   60MOL0     C 7798   4.262   9.417   7.118  0.1459 -0.5948  0.3708
   60MOL0     C 7799   4.363   9.532   7.153 -0.7384  0.9250  0.0409
   60MOL0     C 7800   4.495   9.466   7.216 -0.2316 -0.2698  0.8039
   60MOL0     C 7801   4.609   9.564   7.241 -0.3860  0.3076  1.1197
   60MOL0     C 7802   4.699   9.559   7.124 -0.5410 -0.6568  0.5436
   60MOL0     C 7803   4.804   9.668   7.158 -0.2896 -0.7282 -0.0193
   60MOL0     C 7804   4.924   9.673   7.057  0.4558  0.1081 -0.1793
   60MOL0     N 7805   5.031   9.771   7.094  0.5349 -0.0168 -0.3481
   60MOL0     C 7806   5.073   9.797   7.220 -0.2977  0.2979  0.5823
   60MOL0     C 7807   5.171   9.890   7.205  1.3405  0.6560 -0.5278
   60MOL0     C 7808   5.237   9.965   7.313 -0.5025 -0.5054  0.0783
   60MOL0     C 7809   5.268   9.880   7.445  0.6974 -0.5344 -0.0512
   60MOL0     C 7810   5.333   9.971   7.548  0.0725  0.1429 -0.0812
   60MOL0     C 7811   5.258  10.094   7.604  0.5621  0.6946 -0.1914
   60MOL0     O 7812   5.274  10.110   7.746  0.2415  0.8155 -0.2708
   60MOL0     C 7813   5.403  10.137   7.792 -0.3035  0.2254 -0.2669
   60MOL0     C 7814   5.520  10.175   7.714  0.0880  0.4236  0.3606
   60MOL0     C 7815   5.642  10.210   7.771 -0.0019  0.0129  0.9729
   60MOL0     C 7816   5.661  10.187   7.906 -0.5467 -0.3629 -0.1176
   60MOL0     C 7817   5.790  10.198   7.974  0.1010 -0.0113  0.4232
   60MOL0     O 7818   5.796  10.179   8.113  0.1359  0.1904 -0.0573
   60MOL0     C 7819   5.920  10.163   8.175  0.8025  0.7950 -0.4212
   60MOL0     C 7820   5.924  10.223   8.305 -0.4414  0.1762 -0.6071
   60MOL0     C 7821   6.047  10.232   8.373  0.1981 -0.9108  0.3298
   60MOL0     C 7822   6.169  10.179   8.321  0.1435 -0.4658  0.3143
   60MOL0     O 7823   6.277  10.189   8.404 -0.5197 -0.5400  0.4410
   60MOL0     C 7824   6.392  10.106   8.379 -0.3343 -0.2120 -0.7846
   60MOL0     C 7825   6.519  10.182   8.338 -0.5312 -0.0337  0.7278
   60MOL0     C 7826   6.531  10.197   8.180 -0.3250  0.4246  0.1179
   60MOL0     C 7827   6.680  10.205   8.137 -0.4541 -0.2985  0.0904
   60MOL0     C 7828   6.724  10.253   7.999  0.4446 -0.4312  0.9439
   60MOL0     C 7829   6.873  10.203   7.964  1.0985 -0.5499 -0.4130
   60MOL0     C 7830   6.923  10.267   7.839  0.1489 -0.0695 -0.4613
   60MOL0     C 7831   6.826  10.258   7.721  0.6545  0.7359  0.1604
   60MOL0    Cl 7832   6.830  10.083   7.668  0.3370  0.0846  0.2879
   60MOL0     C 7833   6.154  10.119   8.190  0.0323  0.2827  0.0276
   60MOL0     C 7834   6.033  10.108   8.126  0.6469  1.1767  0.3595
   60MOL0     O 7835   5.884  10.219   7.897  0.1528 -0.1035  0.2765
   60MOL0     C 7836   5.549  10.150   7.989  0.6937 -0.2605  0.2476
   60MOL0     C 7837   5.422  10.124   7.930 -0.0826 -0.3287  0.3011
   60MOL0     N 7838   5.184   9.922   7.070 -0.0343  0.5362 -0.0148
   60MOL0     N 7839   5.105   9.839   7.009  0.2998 -0.5021  0.4667
   60MOL0     C 7840   3.843   9.472   7.062  0.3287 -0.5087 -1.3620
   60MOL0     C 7841   3.700   9.493   7.057 -0.3729  0.1468  0.5935
   60MOL0     C 7842   3.279   9.424   7.248  0.1742  0.4503 -0.6125
   60MOL0     C 7843   3.216   9.300   7.277 -0.2313  0.7799  0.7164
   60MOL0     C 7844   3.076   9.289   7.268 -0.2475  0.5031  0.0825
   60MOL0     C 7845   2.994   9.399   7.233  0.0550  0.0955  0.5562
   60MOL0     O 7846   2.861   9.397   7.217 -0.4422  0.4051 -0.2211
   60MOL0     C 7847   2.786   9.317   7.306  0.2193 -0.9215  0.2970
   60MOL0     C 7848   2.795   9.357   7.461  0.0138 -1.0824  0.6933
   60MOL0     C 7849   2.707   9.279   7.558 -0.4459 -1.0955  0.2628
   60MOL0     C 7850   2.710   9.133   7.511  0.4551  0.4862 -0.8685
   60MOL0     C 7851   2.625   9.052   7.597  0.1249 -0.0217 -0.0429
   60MOL0     C 7852   2.534   9.023   7.675  0.5582  0.6715  0.1469
   60MOL0     C 7853   3.064   9.519   7.205 -0.1087  0.1342 -0.2190
   60MOL0     C 7854   3.202   9.532   7.204  0.8327  0.4865  0.4959
   60MOL0     H 7855   3.658   9.624   7.371 -0.0404 -0.3944  0.1090
   60MOL0     H 7856   3.902   9.630   7.357 -0.9396 -0.0266 -0.0039
   60MOL0     H 7857   4.160   9.551   6.997 -0.2636  1.6440  0.9549
   60MOL0     H 7858   4.088   9.394   7.006  2.1658  0.6041 -0.2126
   60MOL0     H 7859   4.304   9.354   7.039  1.5999  2.8177 -1.7866
   60MOL0     H 7860   4.243   9.354   7.206 -0.5938 -1.7177 -0.5629
   60MOL0     H 7861   4.320   9.595   7.231 -0.9605 -1.5131  2.0270
   60MOL0     H 7862   4.394   9.603   7.076  1.3564  0.9470  0.8159
   60MOL0     H 7863   4.471   9.422   7.313 -1.9949 -0.0874  0.4800
   60MOL0     H 7864   4.520   9.381   7.152 -0.9677 -2.3025  3.0728
   60MOL0     H 7865   4.668   9.527   7.325  1.2752  0.5494  0.1029
   60MOL0     H 7866   4.559   9.659   7.260 -1.8119 -0.3100  0.6193
   60MOL0     H 7867   4.648   9.576   7.028  1.3694 -1.4814 -0.6743
   60MOL0     H 7868   4.741   9.459   7.120 -2.3751 -1.4288 -1.7287
   60MOL0     H 7869   4.761   9.769   7.162 -0.9255 -0.9677 -0.6389
   60MOL0     H 7870   4.838   9.629   7.254 -2.4561 -0.8560  0.7519
   60MOL0     H 7871   4.888   9.721   6.966 -0.1143  2.3873  1.1695
   60MOL0     H 7872   4.957   9.569   7.048 -0.1587  0.0182 -1.6357
   60MOL0     H 7873   5.026   9.756   7.310 -3.0061  1.8713  0.0084
   60MOL0     H 7874   5.168  10.046   7.340 -0.4055 -0.4601  0.1926
   60MOL0     H 7875   5.324  10.018   7.274 -1.2742  0.6142 -0.1692
   60MOL0     H 7876   5.339   9.800   7.424  1.5325  0.1493  0.0811
   60MOL0     H 7877   5.176   9.842   7.489 -0.2687  1.2526 -0.4312
   60MOL0     H 7878   5.363   9.914   7.637  1.7150  0.6858 -0.2560
   60MOL0     H 7879   5.424  10.004   7.497  1.0423 -3.4428 -0.9171
   60MOL0     H 7880   5.151  10.069   7.606  1.0859 -1.8998 -0.7594
   60MOL0     H 7881   5.283  10.187   7.553 -3.6450  1.9409 -0.3914
   60MOL0     H 7882   5.520  10.197   7.608  1.4621  0.5876  0.3771
   60MOL0     H 7883   5.724  10.250   7.713 -1.2489  1.1583 -0.0659
   60MOL0     H 7884   5.831  10.268   8.340 -0.9396 -0.2080 -1.3961
   60MOL0     H 7885   6.045  10.270   8.475  1.7606  0.1521 -0.0009
   60MOL0     H 7886   6.367  10.031   8.303  0.8593 -0.2980 -1.1093
   60MOL0     H 7887   6.412  10.049   8.470 -1.2591  1.4807  0.5497
   60MOL0     H 7888   6.600  10.116   8.371  3.4732  2.4078 -3.0747
   60MOL0     H 7889   6.538  10.280   8.383  0.5174 -0.5500  1.4457
   60MOL0     H 7890   6.493  10.298   8.167  3.4546  2.1102  0.9138
   60MOL0     H 7891   6.466  10.124   8.131  0.6222 -0.9096  0.7747
   60MOL0     H 7892   6.733  10.267   8.210 -2.8059  1.0720  0.7353
   60MOL0     H 7893   6.729  10.109   8.160  5.4429  1.5826 -2.6460
   60MOL0     H 7894   6.726  10.363   7.992  1.6369 -0.4910 -0.1305
   60MOL0     H 7895   6.667  10.209   7.917 -2.1049 -0.3038  2.5482
   60MOL0     H 7896   6.867  10.095   7.944 -1.5864 -0.3267 -1.1371
   60MOL0     H 7897   6.942  10.225   8.047  0.7619  2.1238 -0.7718
   60MOL0     H 7898   6.944  10.374   7.853  0.0540 -0.3410  2.3476
   60MOL0     H 7899   7.021  10.228   7.811 -0.1655  0.5889 -2.6429
   60MOL0     H 7900   6.863  10.321   7.640  1.7962 -0.4902 -0.3075
   60MOL0     H 7901   6.723  10.283   7.745 -0.5234 -2.5557 -0.9700
   60MOL0     H 7902   6.241  10.074   8.143  1.6137  0.6040  2.4535
   60MOL0     H 7903   6.037  10.058   8.029 -2.5561  2.5149 -0.6145
   60MOL0     H 7904   5.554  10.148   8.098 -1.0184  0.5819  0.3742
   60MOL0     H 7905   5.344  10.091   7.997 -0.4008 -1.4158 -0.5698
   60MOL0     H 7906   3.887   9.437   6.969 -2.0056  1.2955 -3.2737
   60MOL0     H 7907   3.646   9.480   6.964  2.2165  2.2039 -1.3572
   60MOL0     H 7908   3.267   9.210   7.308 -1.8300 -1.1728 -1.9150
   60MOL0     H 7909   3.038   9.193   7.300 -0.7756  1.0521  1.1915
   60MOL0     H 7910   2.831   9.221   7.278 -2.8255 -1.3873 -4.0638
   60MOL0     H 7911   2.679   9.314   7.283 -0.0952  3.0929  0.5264
   60MOL0     H 7912   2.897   9.362   7.499 -0.4208  3.6531  1.9554
   60MOL0     H 7913   2.761   9.461   7.470  0.7275 -0.6217 -1.3955
   60MOL0     H 7914   2.603   9.314   7.558 -0.1504  0.0890  3.1793
   60MOL0     H 7915   2.743   9.297   7.660  1.3312 -1.3859 -0.2847
   60MOL0     H 7916   2.678   9.104   7.411  0.9449 -0.8099 -0.6735
   60MOL0     H 7917   2.811   9.094   7.525 -0.1606 -1.9647 -2.5324
   60MOL0     H 7918   2.451   8.994   7.737 -0.0728 -0.0909 -1.0263
   60MOL0     H 7919   2.993   9.599   7.186 -0.5138  0.2135  1.4520
   60MOL0     H 7920   3.244   9.621   7.159  2.4438 -1.4512 -2.1547
   61MOL0     O 7921   0.958   5.910   7.871  0.4387  0.2855  0.4214
   61MOL0     C 7922   1.050   5.989   7.887 -0.6913  0.1505  0.1966
   61MOL0     O 7923   1.036   6.131   7.872  0.4340  0.4227 -0.2439
   61MOL0     C 7924   0.911   6.175   7.867 -0.9222  0.1314  0.1076
   61MOL0     C 7925   0.874   6.262   7.756  0.0019 -0.2167 -0.2703
   61MOL0     C 7926   0.751   6.320   7.757 -0.2580 -0.8285  0.4969
   61MOL0     C 7927   0.652   6.287   7.850 -0.6941 -0.4014  0.2064
   61MOL0     O 7928   0.530   6.330   7.819  0.4316  0.3563  0.8974
   61MOL0     C 7929   0.425   6.318   7.922 -0.3699  0.2699 -0.2712
   61MOL0     C 7930   0.312   6.412   7.891  0.1663  1.0719 -0.7081
   61MOL0     C 7931   0.183   6.373   7.973  0.2380  0.1804  0.0572
   61MOL0     C 7932   0.076   6.469   7.945  0.1154  0.0972  0.6340
   61MOL0     C 7933  -0.050   6.449   8.034 -0.7237 -0.1352  0.4415
   61MOL0     C 7934  -0.163   6.537   7.988  0.9770 -0.5575 -0.4621
   61MOL0     C 7935  -0.287   6.507   8.067 -0.5043 -0.8659  1.0277
   61MOL0     C 7936  -0.393   6.617   8.054  0.0207  0.0361 -0.2615
   61MOL0     N 7937  -0.438   6.635   7.915  0.7703  0.4313 -0.4556
   61MOL0     C 7938  -0.550   6.578   7.868 -0.7071 -0.1312 -0.2326
   61MOL0     C 7939  -0.552   6.607   7.732 -0.8145  0.3108 -0.3773
   61MOL0     C 7940  -0.662   6.577   7.631  0.3592 -0.6390 -0.0546
   61MOL0     C 7941  -0.789   6.643   7.655  0.5394 -0.2961 -0.1538
   61MOL0     C 7942  -0.899   6.537   7.683 -0.2066  0.5312  0.6192
   61MOL0     C 7943  -1.040   6.589   7.693 -0.3573  0.9732  0.3814
   61MOL0     O 7944  -1.068   6.638   7.565  0.1401  0.7380  0.5166
   61MOL0     C 7945  -1.203   6.650   7.527 -0.0137  0.4792 -0.2605
   61MOL0     C 7946  -1.317   6.621   7.601  0.6782 -1.1082  0.7444
   61MOL0     C 7947  -1.449   6.637   7.552  0.0634 -0.4803  0.9330
   61MOL0     C 7948  -1.465   6.660   7.411  0.0246  0.4563 -0.0275
   61MOL0     C 7949  -1.603   6.662   7.361 -0.5261 -1.1672 -0.2880
   61MOL0     O 7950  -1.695   6.618   7.451 -0.6062  0.3528 -0.1689
   61MOL0     C 7951  -1.818   6.632   7.400  1.0644  0.1560 -0.7755
   61MOL0     C 7952  -1.867   6.518   7.338  0.8822  0.1001 -1.0937
   61MOL0     C 7953  -2.002   6.522   7.297  0.5289  0.6978 -0.1914
   61MOL0     C 7954  -2.089   6.630   7.313  0.2505  0.7786  0.2456
   61MOL0     O 7955  -2.211   6.608   7.256  0.1541  0.4572 -0.0626
   61MOL0     C 7956  -2.311   6.705   7.276 -0.5573 -0.1164  0.8293
   61MOL0     C 7957  -2.446   6.643   7.238 -0.3913  0.7654 -0.5981
   61MOL0     C 7958  -2.526   6.715   7.136  0.1263 -0.1656  0.4969
   61MOL0     C 7959  -2.642   6.632   7.090 -1.3591 -0.5847 -0.2259
   61MOL0     C 7960  -2.748   6.702   7.003  0.5013 -1.0930  0.2025
   61MOL0     C 7961  -2.828   6.822   7.065 -0.4915 -0.2435 -0.8662
   61MOL0     C 7962  -2.953   6.851   6.986  0.7377 -1.1511 -0.4872
   61MOL0     C 7963  -3.064   6.948   7.057 -0.8418  0.7153 -0.0876
   61MOL0    Cl 7964  -3.074   6.920   7.230 -0.6732  0.1674 -0.0388
   61MOL0     C 7965  -2.036   6.741   7.395  0.4933  0.4333  0.2880
   61MOL0     C 7966  -1.908   6.746   7.431 -0.9455  0.6532  0.4758
   61MOL0     O 7967  -1.620   6.712   7.248  1.5608  0.1016  0.1019
   61MOL0     C 7968  -1.352   6.691   7.340 -0.2377  0.0556 -0.2915
   61MOL0     C 7969  -1.221   6.681   7.395  0.6603 -0.4019  0.1749
   61MOL0     N 7970  -0.441   6.689   7.712 -0.1905  0.3208  0.5875
   61MOL0     N 7971  -0.370   6.702   7.817  0.5274  0.4378 -0.3680
   61MOL0     C 7972   0.679   6.206   7.957 -0.2272  0.1649 -0.8621
   61MOL0     C 7973   0.813   6.160   7.964  0.8238  0.2182 -0.3204
   61MOL0     C 7974   1.186   5.926   7.896 -0.5676  0.4397  0.1350
   61MOL0     C 7975   1.194   5.785   7.901 -0.2865 -0.4662 -0.6009
   61MOL0     C 7976   1.313   5.718   7.920 -0.2106 -0.6437 -0.0319
   61MOL0     C 7977   1.427   5.798   7.927  0.9287  1.1296  0.1664
   61MOL0     O 7978   1.542   5.728   7.957  0.4503 -0.4142 -0.6648
   61MOL0     C 7979   1.673   5.785   7.939 -0.8082  0.0429  0.2356
   61MOL0     C 7980   1.716   5.862   8.058  0.5761  0.2910  0.7622
   61MOL0     C 7981   1.856   5.913   8.054 -0.8211 -0.5607 -0.2803
   61MOL0     C 7982   1.889   6.018   7.944 -0.0315 -0.8165  0.9473
   61MOL0     C 7983   2.036   6.036   7.925  0.2107 -0.5925  0.3236
   61MOL0     C 7984   2.146   6.046   7.901 -0.0066 -0.4359 -0.1098
   61MOL0     C 7985   1.423   5.938   7.901 -0.2157 -0.8512  0.5305
   61MOL0     C 7986   1.300   6.002   7.883 -0.3413  0.6877  0.1587
   61MOL0     H 7987   0.943   6.284   7.675  0.1266 -0.4890 -0.2414
   61MOL0     H 7988   0.712   6.381   7.676  0.7454 -1.7735 -0.7314
   61MOL0     H 7989   0.457   6.354   8.020  0.4666 -0.0486 -0.4206
   61MOL0     H 7990   0.393   6.214   7.924 -1.8714  0.6750 -1.3427
   61MOL0     H 7991   0.284   6.415   7.785  0.0455 -0.6051 -0.7435
   61MOL0     H 7992   0.345   6.513   7.917  0.7084  0.9376 -0.8797
   61MOL0     H 7993   0.213   6.378   8.078  0.0806 -0.0443  0.1127
   61MOL0     H 7994   0.146   6.272   7.954  2.0817 -1.4085  3.8528
   61MOL0     H 7995   0.120   6.566   7.969  0.6963 -0.4300  1.7238
   61MOL0     H 7996   0.059   6.470   7.837  1.2519 -1.4410  0.4127
   61MOL0     H 7997  -0.028   6.450   8.141  3.7749  0.2248 -0.2887
   61MOL0     H 7998  -0.078   6.345   8.013 -1.1282  0.0752 -0.0772
   61MOL0     H 7999  -0.170   6.507   7.883  3.3808  0.3332 -0.9382
   61MOL0     H 8000  -0.141   6.643   8.005 -3.7059  0.5519  0.2396
   61MOL0     H 8001  -0.313   6.402   8.055  1.1144 -1.1439 -0.4072
   61MOL0     H 8002  -0.260   6.525   8.171 -4.5736 -0.0492  2.1056
   61MOL0     H 8003  -0.349   6.710   8.091 -0.0686 -0.4830  1.1987
   61MOL0     H 8004  -0.486   6.589   8.105 -0.4337  2.4546  0.3865
   61MOL0     H 8005  -0.629   6.526   7.923  1.0691 -0.8396  1.7964
   61MOL0     H 8006  -0.668   6.468   7.635  1.1000 -0.7226 -0.8989
   61MOL0     H 8007  -0.632   6.596   7.528 -3.0062 -0.3479 -1.0846
   61MOL0     H 8008  -0.821   6.708   7.573 -2.9680  0.3481  1.5319
   61MOL0     H 8009  -0.788   6.707   7.743 -2.9313  0.0180 -0.2116
   61MOL0     H 8010  -0.885   6.464   7.603  3.5494 -1.3505  2.6923
   61MOL0     H 8011  -0.876   6.480   7.773  0.9258  1.1779  0.7563
   61MOL0     H 8012  -1.049   6.669   7.767  1.8729  1.1704  0.5042
   61MOL0     H 8013  -1.112   6.510   7.717  0.1937  0.7818  1.4509
   61MOL0     H 8014  -1.288   6.596   7.703  2.5487 -2.3023 -0.0137
   61MOL0     H 8015  -1.536   6.620   7.615  1.2898 -1.8826  2.3463
   61MOL0     H 8016  -1.806   6.429   7.335  1.8990  0.3759  3.5049
   61MOL0     H 8017  -2.047   6.447   7.233 -0.2482  0.1428  0.9743
   61MOL0     H 8018  -2.284   6.793   7.217  1.3721 -1.4928 -0.4213
   61MOL0     H 8019  -2.316   6.724   7.384  0.4403 -4.7812  1.9199
   61MOL0     H 8020  -2.501   6.653   7.332  2.0916  4.3400  0.6935
   61MOL0     H 8021  -2.429   6.536   7.222  2.6807  0.7582  1.8797
   61MOL0     H 8022  -2.457   6.739   7.054  2.8824 -1.9047  2.1247
   61MOL0     H 8023  -2.567   6.806   7.181  0.3807 -0.6144  1.6742
   61MOL0     H 8024  -2.606   6.543   7.037  1.5855 -0.4984  1.4327
   61MOL0     H 8025  -2.697   6.610   7.181  1.9893  2.2135  2.7734
   61MOL0     H 8026  -2.824   6.627   6.978 -0.4556 -0.7432  1.9061
   61MOL0     H 8027  -2.706   6.751   6.914  0.8469  0.4558  1.1779
   61MOL0     H 8028  -2.760   6.908   7.062  0.7140 -0.5510  5.2661
   61MOL0     H 8029  -2.853   6.813   7.171 -2.8004  0.4938 -1.2907
   61MOL0     H 8030  -2.926   6.885   6.886 -1.4561 -1.0113 -1.0808
   61MOL0     H 8031  -3.003   6.754   6.989 -1.1654 -0.1902  0.3303
   61MOL0     H 8032  -3.157   6.924   7.005 -0.4384 -0.7785 -0.1652
   61MOL0     H 8033  -3.039   7.053   7.040  0.8981  0.3540  0.0108
   61MOL0     H 8034  -2.090   6.833   7.417  0.5732  1.0892 -1.9851
   61MOL0     H 8035  -1.872   6.827   7.494 -2.3800  0.7310  1.2382
   61MOL0     H 8036  -1.366   6.728   7.239 -1.3503  2.3975  0.6694
   61MOL0     H 8037  -1.143   6.699   7.321  0.6161  0.0553  0.2378
   61MOL0     H 8038   0.607   6.166   8.026  0.8157 -0.7397 -0.2704
   61MOL0     H 8039   0.846   6.099   8.048  1.4051 -1.4120 -1.6824
   61MOL0     H 8040   1.105   5.724   7.891 -1.0528  0.2149  1.4202
   61MOL0     H 8041   1.315   5.612   7.943 -0.5453 -0.9884 -1.4744
   61MOL0     H 8042   1.687   5.851   7.853 -1.5458  0.6269  0.5437
   61MOL0     H 8043   1.752   5.710   7.938 -0.8371  0.0134  0.1494
   61MOL0     H 8044   1.652   5.948   8.073 -2.1546 -1.7411  1.5430
   61MOL0     H 8045   1.698   5.800   8.146 -0.3706  0.6339  0.8130
   61MOL0     H 8046   1.925   5.830   8.039  1.4612  0.9875  1.0078
   61MOL0     H 8047   1.882   5.952   8.152 -3.4684 -2.5255  1.3346
   61MOL0     H 8048   1.850   5.988   7.846 -0.5308  4.4743 -0.7915
   61MOL0     H 8049   1.849   6.114   7.976  0.5933 -0.6551  1.2605
   61MOL0     H 8050   2.245   6.054   7.860 -0.0296  0.1523 -0.0544
   61MOL0     H 8051   1.516   5.994   7.904 -0.4542 -0.4449  0.4169
   61MOL0     H 8052   1.294   6.106   7.853  1.2079 -0.0599 -3.2529
   62MOL0     O 8053  10.614   3.450   3.949 -0.8590 -0.2845  0.1761
   62MOL0     C 8054  10.568   3.509   4.050 -0.2663 -0.1482 -0.2508
   62MOL0     O 8055  10.442   3.523   4.085  0.4947  0.2305  0.2715
   62MOL0     C 8056  10.350   3.441   4.023  0.3320 -0.4665 -0.0979
   62MOL0     C 8057  10.214   3.478   4.008  0.5984 -0.9423 -0.0210
   62MOL0     C 8058  10.113   3.394   3.964  0.7144 -0.0757 -1.2481
   62MOL0     C 8059  10.135   3.261   3.948  0.3788 -0.3915 -0.8251
   62MOL0     O 8060  10.032   3.186   3.900  0.2997  0.5226  0.1301
   62MOL0     C 8061  10.024   3.040   3.933 -0.5286 -0.5771 -0.0865
   62MOL0     C 8062   9.873   3.024   3.922 -0.7019 -1.2763  0.3899
   62MOL0     C 8063   9.810   3.035   3.776 -0.4058  0.8945 -0.1991
   62MOL0     C 8064   9.655   3.052   3.772  0.4553  0.0121 -0.2911
   62MOL0     C 8065   9.593   3.006   3.639 -0.0049 -0.3657 -0.0009
   62MOL0     C 8066   9.458   3.062   3.610  0.2706  0.0413  0.5148
   62MOL0     C 8067   9.398   3.003   3.483  0.4617 -0.0828  0.2160
   62MOL0     C 8068   9.258   3.044   3.448  0.7115  0.6057  0.5039
   62MOL0     N 8069   9.204   2.977   3.326  0.0803 -0.2827  0.2778
   62MOL0     C 8070   9.238   3.006   3.194 -0.3858  0.4276 -1.1914
   62MOL0     C 8071   9.147   2.937   3.115 -0.3712 -0.3853 -0.6090
   62MOL0     C 8072   9.144   2.937   2.964  0.1570  0.1462 -0.4853
   62MOL0     C 8073   9.067   3.065   2.920 -0.2891  0.3575  0.3092
   62MOL0     C 8074   8.944   3.103   3.000  1.0760 -0.2711  0.3797
   62MOL0     C 8075   8.831   3.004   3.021  0.5877  0.0130  0.8754
   62MOL0     O 8076   8.741   3.008   2.912 -0.2195 -0.5186  0.7889
   62MOL0     C 8077   8.615   2.973   2.941  0.2367 -1.1519 -0.1846
   62MOL0     C 8078   8.569   2.858   2.991  0.4656 -0.0784  0.1809
   62MOL0     C 8079   8.433   2.830   3.009 -0.3746  0.5967 -0.5240
   62MOL0     C 8080   8.339   2.927   2.984 -0.4245  0.3154 -0.5127
   62MOL0     C 8081   8.200   2.899   3.009  0.1854 -0.2819  0.0576
   62MOL0     O 8082   8.106   2.996   3.003 -0.8624 -0.4169 -0.3517
   62MOL0     C 8083   7.975   2.954   2.991  0.9282  0.2808  0.6468
   62MOL0     C 8084   7.933   2.855   2.904 -0.7465  0.5584 -0.2246
   62MOL0     C 8085   7.798   2.817   2.903 -0.1414  0.2045 -0.5328
   62MOL0     C 8086   7.702   2.892   2.972  0.0067  0.0280  0.1460
   62MOL0     O 8087   7.568   2.850   2.958  0.4719  0.0363 -0.0502
   62MOL0     C 8088   7.463   2.899   3.045 -0.1315 -0.1361 -0.1131
   62MOL0     C 8089   7.334   2.842   3.000  1.2294 -0.1853 -0.4665
   62MOL0     C 8090   7.223   2.900   3.080 -0.1866 -0.0142 -0.7307
   62MOL0     C 8091   7.092   2.832   3.036  0.4832 -0.2143 -0.3165
   62MOL0     C 8092   6.973   2.903   3.106  0.2746 -0.7266 -0.3054
   62MOL0     C 8093   6.869   2.797   3.148  0.7273  0.4355 -0.3180
   62MOL0     C 8094   6.733   2.859   3.194  0.6954 -1.0831  0.6844
   62MOL0     C 8095   6.630   2.747   3.239  0.1142  0.2215  0.4903
   62MOL0    Cl 8096   6.468   2.802   3.282  0.4015  0.5622  0.0820
   62MOL0     C 8097   7.737   3.001   3.048  0.4760 -0.2953  0.6545
   62MOL0     C 8098   7.876   3.032   3.052 -0.0752  0.3699  0.7169
   62MOL0     O 8099   8.177   2.783   3.040 -0.0625  0.7033  0.0623
   62MOL0     C 8100   8.378   3.050   2.943 -0.6692 -0.0127 -0.8240
   62MOL0     C 8101   8.514   3.074   2.911  0.3231  0.0559 -1.1145
   62MOL0     N 8102   9.074   2.854   3.202  0.0936 -0.4111  0.8244
   62MOL0     N 8103   9.118   2.872   3.326  0.2133  0.5864 -0.7521
   62MOL0     C 8104  10.271   3.215   3.957  0.4059  0.4283 -0.2017
   62MOL0     C 8105  10.374   3.303   4.000  0.3298  0.5142  0.1959
   62MOL0     C 8106  10.662   3.583   4.132 -0.1387  0.4679 -0.5882
   62MOL0     C 8107  10.800   3.580   4.103 -0.2413  0.2985  0.2191
   62MOL0     C 8108  10.884   3.667   4.167  0.2914 -0.5268  0.1179
   62MOL0     C 8109  10.839   3.760   4.253 -0.0643 -0.4122 -0.2124
   62MOL0     O 8110  10.925   3.842   4.320  0.2150 -0.1640  0.5238
   62MOL0     C 8111  10.951   3.970   4.263  0.8930 -0.9944  0.5400
   62MOL0     C 8112  11.078   4.033   4.313  0.1836  0.2552 -0.5240
   62MOL0     C 8113  11.210   3.950   4.308  0.1090 -0.9584  0.1727
   62MOL0     C 8114  11.323   4.033   4.264  0.8533  0.2092  1.2600
   62MOL0     C 8115  11.455   3.964   4.288  0.8852  0.5163 -0.3261
   62MOL0     C 8116  11.565   3.917   4.305  0.7007 -0.0548  0.3164
   62MOL0     C 8117  10.701   3.766   4.286 -0.1557 -0.0147  0.1867
   62MOL0     C 8118  10.615   3.676   4.229 -0.7341 -0.3981  0.0871
   62MOL0     H 8119  10.182   3.579   4.034  0.8954 -1.3412  2.0375
   62MOL0     H 8120  10.012   3.425   3.939  0.8180  1.4122  0.0479
   62MOL0     H 8121  10.061   3.021   4.035 -2.2678 -3.9252  0.0631
   62MOL0     H 8122  10.080   2.985   3.857  1.3850  1.4842 -0.2680
   62MOL0     H 8123   9.816   3.088   3.990 -0.8669 -2.2032  1.1444
   62MOL0     H 8124   9.867   2.920   3.955 -0.0772 -2.5272 -2.9675
   62MOL0     H 8125   9.838   2.947   3.717 -1.3540  0.3871  0.0896
   62MOL0     H 8126   9.853   3.125   3.730 -3.8724  1.9779 -1.6430
   62MOL0     H 8127   9.609   3.004   3.859  1.4203  0.7367  0.6517
   62MOL0     H 8128   9.648   3.161   3.775  2.1442  0.1422  0.1612
   62MOL0     H 8129   9.588   2.897   3.638  3.2582 -0.6053 -0.5397
   62MOL0     H 8130   9.665   3.027   3.559  1.1855 -2.9399  0.3151
   62MOL0     H 8131   9.461   3.171   3.602  1.9664 -0.1416 -3.1522
   62MOL0     H 8132   9.385   3.031   3.685 -0.6841 -2.4348 -1.3171
   62MOL0     H 8133   9.465   3.045   3.407  1.3717  0.9684  1.5448
   62MOL0     H 8134   9.397   2.894   3.493  0.6365 -0.3131 -1.7440
   62MOL0     H 8135   9.259   3.152   3.434  0.8252  0.6823  1.0591
   62MOL0     H 8136   9.198   3.027   3.538  0.2088 -1.5629 -0.1914
   62MOL0     H 8137   9.305   3.083   3.155  1.2715  0.1113  0.8353
   62MOL0     H 8138   9.081   2.851   2.940 -1.5331  0.6821  1.6546
   62MOL0     H 8139   9.241   2.933   2.915 -0.9845 -0.7510 -2.8050
   62MOL0     H 8140   9.046   3.052   2.813  2.2698 -0.0855 -0.2040
   62MOL0     H 8141   9.140   3.146   2.931  1.0601 -1.0547  2.3722
   62MOL0     H 8142   8.987   3.140   3.094  2.2833  1.2055 -0.7232
   62MOL0     H 8143   8.902   3.189   2.947  3.0974  0.7706  0.3881
   62MOL0     H 8144   8.779   3.037   3.111 -2.2253  4.7779 -2.0543
   62MOL0     H 8145   8.863   2.900   3.032 -0.5469 -0.3138  1.2239
   62MOL0     H 8146   8.638   2.775   3.010 -0.6128 -0.8937  0.6337
   62MOL0     H 8147   8.398   2.736   3.049  1.2669  0.9968  2.1030
   62MOL0     H 8148   8.005   2.801   2.842 -1.1777  1.7062 -1.7795
   62MOL0     H 8149   7.754   2.729   2.856 -1.2932  0.1540  0.5795
   62MOL0     H 8150   7.472   3.008   3.051  2.6001 -0.2922 -0.0589
   62MOL0     H 8151   7.496   2.868   3.144  1.0763 -0.0300 -0.4610
   62MOL0     H 8152   7.333   2.732   3.006  2.5897 -0.1220  2.4945
   62MOL0     H 8153   7.317   2.868   2.895 -1.2182 -2.5698 -0.7588
   62MOL0     H 8154   7.227   3.007   3.057  2.4707  0.0637 -0.1581
   62MOL0     H 8155   7.248   2.863   3.180 -2.6294  1.9945  0.7267
   62MOL0     H 8156   7.087   2.831   2.926  3.2325 -2.2171 -0.5288
   62MOL0     H 8157   7.103   2.726   3.063  1.7776 -0.2271 -0.8241
   62MOL0     H 8158   6.939   2.981   3.038 -0.7039  0.2247  1.2138
   62MOL0     H 8159   6.988   2.962   3.196 -1.3456  1.4086 -1.3504
   62MOL0     H 8160   6.903   2.735   3.232  1.5827  1.9198  0.4794
   62MOL0     H 8161   6.852   2.739   3.057 -1.0339  0.0373  0.2278
   62MOL0     H 8162   6.737   2.934   3.274  1.9892  0.3431 -0.6729
   62MOL0     H 8163   6.685   2.910   3.110 -0.5570 -2.1843  0.6966
   62MOL0     H 8164   6.666   2.701   3.331 -0.7554  0.7529  1.1160
   62MOL0     H 8165   6.620   2.662   3.172  0.7225 -1.7448  2.7607
   62MOL0     H 8166   7.661   3.076   3.066 -2.4702 -2.4335 -1.8637
   62MOL0     H 8167   7.901   3.119   3.112  0.6381 -0.9833  2.4941
   62MOL0     H 8168   8.306   3.131   2.930  0.8709  1.8570  1.3985
   62MOL0     H 8169   8.539   3.172   2.871  1.1664  0.5703  0.5937
   62MOL0     H 8170  10.293   3.110   3.937  1.2864  0.4022  0.8250
   62MOL0     H 8171  10.474   3.262   4.010  1.1189  1.6116 -2.2358
   62MOL0     H 8172  10.835   3.513   4.026  0.4650 -2.1760  2.5342
   62MOL0     H 8173  10.989   3.653   4.141 -0.4493 -3.8909 -1.5767
   62MOL0     H 8174  10.863   4.035   4.263  1.1986 -0.5714  0.1863
   62MOL0     H 8175  10.968   3.958   4.155  1.1334  1.4374  0.2534
   62MOL0     H 8176  11.085   4.121   4.249  0.8025  0.1277 -0.6397
   62MOL0     H 8177  11.064   4.068   4.416 -1.4127  1.1141 -1.0029
   62MOL0     H 8178  11.202   3.879   4.225 -0.6737  0.2934 -0.8504
   62MOL0     H 8179  11.234   3.905   4.405 -2.3173  0.1212  1.3540
   62MOL0     H 8180  11.312   4.048   4.156  1.4946  0.5200  1.2387
   62MOL0     H 8181  11.343   4.125   4.319 -0.9083 -0.5368  3.3414
   62MOL0     H 8182  11.666   3.888   4.326  0.7909  1.5966  2.5466
   62MOL0     H 8183  10.664   3.837   4.359  0.8965 -1.8845  2.7267
   62MOL0     H 8184  10.509   3.675   4.254 -0.8279  0.0112 -0.2897
   63MOL0     O 8185   2.607  10.143   8.832  0.3570  0.9246 -0.4943
   63MOL0     C 8186   2.604  10.027   8.879 -0.1335  0.8243 -0.1671
   63MOL0     O 8187   2.697   9.925   8.867 -1.3047 -0.4875 -0.4042
   63MOL0     C 8188   2.803   9.966   8.796 -0.4642  1.2088  0.1491
   63MOL0     C 8189   2.823   9.918   8.659  0.3678  0.7252  0.2421
   63MOL0     C 8190   2.940   9.938   8.588  0.4529 -0.9583  0.0301
   63MOL0     C 8191   3.047   9.993   8.645 -0.6945 -1.3363  0.5691
   63MOL0     O 8192   3.160  10.011   8.561 -0.3667 -0.1360  0.3806
   63MOL0     C 8193   3.277  10.049   8.625 -0.3322 -0.3357 -0.1423
   63MOL0     C 8194   3.403  10.030   8.548 -0.3306  0.3470  0.2455
   63MOL0     C 8195   3.409   9.881   8.493 -0.8644 -0.7765  0.7832
   63MOL0     C 8196   3.524   9.862   8.396 -1.0590  0.6494  0.3100
   63MOL0     C 8197   3.652   9.848   8.475 -0.7400  0.6183  0.7677
   63MOL0     C 8198   3.781   9.905   8.403  0.5390  0.8310  0.1338
   63MOL0     C 8199   3.914   9.860   8.476 -0.1099 -0.3506  0.2921
   63MOL0     C 8200   4.025   9.965   8.439 -0.6682 -0.3194  0.5505
   63MOL0     N 8201   4.161   9.911   8.447 -0.2751 -0.0619 -1.0884
   63MOL0     C 8202   4.228   9.843   8.348  0.4582  0.4263  0.2916
   63MOL0     C 8203   4.356   9.817   8.386 -0.2824  1.1232  0.1551
   63MOL0     C 8204   4.462   9.757   8.296 -0.1897  0.1887  0.0663
   63MOL0     C 8205   4.468   9.833   8.165  0.4578 -0.5889 -0.0703
   63MOL0     C 8206   4.591   9.806   8.077  0.2895 -0.3723  0.2899
   63MOL0     C 8207   4.593   9.663   8.019 -0.0447  0.1309  0.2219
   63MOL0     O 8208   4.713   9.631   7.933  0.3628 -0.5530 -0.4556
   63MOL0     C 8209   4.840   9.623   7.984 -0.1615 -0.3694 -0.8913
   63MOL0     C 8210   4.945   9.670   7.901 -0.1370  0.3958  0.0921
   63MOL0     C 8211   5.077   9.673   7.941 -0.7257  0.7781 -0.9529
   63MOL0     C 8212   5.110   9.646   8.080  0.1115 -0.3104 -0.9403
   63MOL0     C 8213   5.251   9.662   8.122 -0.1275 -0.4247 -0.5255
   63MOL0     O 8214   5.337   9.711   8.032 -0.4353  0.7516 -0.1714
   63MOL0     C 8215   5.469   9.701   8.057  0.8504  0.4777 -0.4213
   63MOL0     C 8216   5.539   9.582   8.041  0.1391 -0.9458  0.4837
   63MOL0     C 8217   5.677   9.572   8.056  0.0713 -0.8241 -0.1023
   63MOL0     C 8218   5.742   9.689   8.095  0.1659 -0.6375 -0.3133
   63MOL0     O 8219   5.877   9.693   8.107 -0.8293 -0.0084  0.1695
   63MOL0     C 8220   5.927   9.789   8.198 -0.0315  0.1421 -1.1234
   63MOL0     C 8221   6.067   9.759   8.229 -0.2567  0.4034  0.4607
   63MOL0     C 8222   6.103   9.613   8.222  0.4462 -0.2285 -0.4107
   63MOL0     C 8223   6.021   9.525   8.327 -0.0748  0.3044  0.3741
   63MOL0     C 8224   6.050   9.373   8.316 -0.6495  0.2659  0.0381
   63MOL0     C 8225   6.022   9.318   8.177  0.7655  0.7746  0.6059
   63MOL0     C 8226   6.030   9.164   8.179 -0.0125 -0.7539 -0.6227
   63MOL0     C 8227   5.997   9.109   8.046  0.9803 -0.2081  1.0133
   63MOL0    Cl 8228   5.817   9.104   8.005  0.0733  0.6231 -0.2538
   63MOL0     C 8229   5.664   9.813   8.114  0.0851 -0.1996 -0.6137
   63MOL0     C 8230   5.531   9.815   8.093  0.1311  1.1322  0.3408
   63MOL0     O 8231   5.276   9.634   8.240 -0.2944  0.3327  0.3364
   63MOL0     C 8232   5.005   9.586   8.156 -0.2352 -0.8497 -0.2458
   63MOL0     C 8233   4.871   9.572   8.113 -0.6850  0.5892 -0.0491
   63MOL0     N 8234   4.368   9.876   8.511  0.4463  0.9144 -0.7153
   63MOL0     N 8235   4.259   9.934   8.535 -0.1043 -0.4975  0.6212
   63MOL0     C 8236   3.038  10.043   8.777  0.4691 -0.6332  0.8930
   63MOL0     C 8237   2.918  10.029   8.848 -0.1198  0.9607 -1.0339
   63MOL0     C 8238   2.484   9.982   8.955 -1.0737  0.0578 -0.3290
   63MOL0     C 8239   2.373  10.056   8.961  0.3247 -0.3790  0.2893
   63MOL0     C 8240   2.255  10.028   9.043  0.7072  0.6622 -0.3772
   63MOL0     C 8241   2.238   9.908   9.102  0.1073 -0.3372 -0.4991
   63MOL0     O 8242   2.125   9.883   9.171  0.1628 -0.8220 -0.0762
   63MOL0     C 8243   2.074   9.750   9.211  0.7872  0.8705  0.0222
   63MOL0     C 8244   1.924   9.754   9.275 -0.2938  0.3784 -0.3973
   63MOL0     C 8245   1.834   9.816   9.172  0.9039 -0.5482 -0.0731
   63MOL0     C 8246   1.691   9.842   9.228  0.1502 -0.3040 -0.1854
   63MOL0     C 8247   1.636   9.976   9.180 -0.3118 -0.3276 -0.2799
   63MOL0     C 8248   1.604  10.094   9.158 -0.7976  0.4280 -0.0531
   63MOL0     C 8249   2.346   9.822   9.092 -0.2087  0.5669  0.4897
   63MOL0     C 8250   2.464   9.855   9.017 -0.6258 -0.1660  0.0948
   63MOL0     H 8251   2.739   9.869   8.612 -0.2933  0.1388  1.9595
   63MOL0     H 8252   2.931   9.906   8.484  1.4727 -4.2199  0.8372
   63MOL0     H 8253   3.274   9.991   8.718 -0.1884 -1.9034 -1.0732
   63MOL0     H 8254   3.279  10.155   8.649  0.0212 -0.0728 -1.2932
   63MOL0     H 8255   3.488  10.044   8.615 -0.4133 -1.6663  0.8532
   63MOL0     H 8256   3.406  10.103   8.466 -1.1654 -3.0221 -3.1001
   63MOL0     H 8257   3.317   9.862   8.438  0.4580  1.7777 -2.7244
   63MOL0     H 8258   3.423   9.806   8.571  1.7552 -0.7206  0.4865
   63MOL0     H 8259   3.504   9.772   8.338  0.1141  0.1902  0.6000
   63MOL0     H 8260   3.543   9.942   8.324 -0.5354  0.3629  0.1251
   63MOL0     H 8261   3.681   9.749   8.511  0.4613  0.1817 -1.2928
   63MOL0     H 8262   3.636   9.919   8.557 -0.1412  2.2309 -0.4746
   63MOL0     H 8263   3.760  10.012   8.417 -2.3523  0.4389 -0.5058
   63MOL0     H 8264   3.786   9.882   8.297 -3.5462 -0.3540  0.0272
   63MOL0     H 8265   3.899   9.855   8.584  1.0845 -0.1377  0.4786
   63MOL0     H 8266   3.954   9.767   8.435 -0.9381 -0.4823 -0.2361
   63MOL0     H 8267   4.011  10.055   8.500 -0.3456 -1.1543  1.8885
   63MOL0     H 8268   4.011   9.995   8.335 -2.6402 -0.3052  0.7813
   63MOL0     H 8269   4.176   9.813   8.257 -1.4712 -2.6534  2.2336
   63MOL0     H 8270   4.437   9.653   8.274  1.9951 -0.1012 -1.3512
   63MOL0     H 8271   4.563   9.761   8.339 -0.1902  0.7212  0.0227
   63MOL0     H 8272   4.470   9.940   8.189 -0.5484 -0.3606 -0.9343
   63MOL0     H 8273   4.375   9.823   8.107  1.7049  0.7259 -2.4491
   63MOL0     H 8274   4.585   9.870   7.989 -2.2877 -2.3034 -1.0545
   63MOL0     H 8275   4.688   9.825   8.125  1.2347 -1.3517 -1.1640
   63MOL0     H 8276   4.515   9.648   7.943  1.3881 -1.4135 -1.0392
   63MOL0     H 8277   4.579   9.589   8.099 -0.3955 -2.5997 -2.1657
   63MOL0     H 8278   4.929   9.701   7.798 -1.9086 -1.6139 -0.3179
   63MOL0     H 8279   5.146   9.709   7.867  2.7397 -2.5946  0.3092
   63MOL0     H 8280   5.487   9.489   8.017 -0.8475 -0.3584  0.3013
   63MOL0     H 8281   5.723   9.478   8.028 -0.6877 -0.4962 -2.7602
   63MOL0     H 8282   5.878   9.781   8.296  3.0418  2.1106  0.7370
   63MOL0     H 8283   5.911   9.888   8.155 -1.5807 -0.4222 -1.9245
   63MOL0     H 8284   6.092   9.785   8.333  3.7009 -0.9406  0.0004
   63MOL0     H 8285   6.128   9.825   8.167 -1.3050  0.3935 -0.6219
   63MOL0     H 8286   6.208   9.597   8.248 -0.3438 -1.2006  2.7284
   63MOL0     H 8287   6.081   9.582   8.119 -2.7205  0.4062 -0.0283
   63MOL0     H 8288   6.049   9.557   8.428 -2.8618  3.2139  0.3871
   63MOL0     H 8289   5.914   9.540   8.307  0.0024 -2.9240 -3.7136
   63MOL0     H 8290   6.003   9.326   8.403 -1.6291  2.1613  0.5791
   63MOL0     H 8291   6.157   9.353   8.329 -0.6886 -2.8765 -2.8532
   63MOL0     H 8292   6.101   9.352   8.111 -0.6099 -0.5201 -1.8340
   63MOL0     H 8293   5.931   9.361   8.134  1.7066 -0.0041 -2.3722
   63MOL0     H 8294   6.137   9.147   8.197  0.8134  3.1370 -1.0049
   63MOL0     H 8295   5.968   9.131   8.264  0.7985  0.4535  0.4700
   63MOL0     H 8296   6.032   9.005   8.048  1.6327 -0.2511 -3.2320
   63MOL0     H 8297   6.058   9.147   7.963  1.4389 -2.9201  0.0108
   63MOL0     H 8298   5.715   9.908   8.126 -0.4097  0.2049 -1.5656
   63MOL0     H 8299   5.467   9.903   8.087 -5.5753 -2.2856  2.4868
   63MOL0     H 8300   5.035   9.534   8.246  0.2636  0.5153  0.4030
   63MOL0     H 8301   4.807   9.519   8.184  1.8352 -1.1546  1.0545
   63MOL0     H 8302   3.119  10.097   8.825 -1.0568  2.9541 -0.1555
   63MOL0     H 8303   2.920  10.069   8.949 -2.3881 -1.5031  0.0832
   63MOL0     H 8304   2.373  10.146   8.901 -0.6977 -2.6153 -3.4351
   63MOL0     H 8305   2.174  10.101   9.048 -0.2803  0.0273 -3.9312
   63MOL0     H 8306   2.140   9.699   9.282 -0.2022 -3.3467 -1.7794
   63MOL0     H 8307   2.082   9.679   9.128 -0.0476  0.4050  0.3281
   63MOL0     H 8308   1.897   9.649   9.286  1.0442  0.0501 -0.1109
   63MOL0     H 8309   1.923   9.807   9.370  1.6151 -1.2290  0.5952
   63MOL0     H 8310   1.820   9.761   9.079 -0.7981  0.6386 -0.5670
   63MOL0     H 8311   1.879   9.914   9.156  0.7151 -0.9194 -3.7634
   63MOL0     H 8312   1.618   9.766   9.199 -1.2426  0.7474  0.4425
   63MOL0     H 8313   1.694   9.859   9.336 -0.9361 -0.9157 -0.0414
   63MOL0     H 8314   1.561  10.186   9.122 -1.9839 -0.7792 -1.9090
   63MOL0     H 8315   2.329   9.730   9.149 -1.1030  0.8596  0.7236
   63MOL0     H 8316   2.547   9.788   8.995 -0.9587 -0.2009 -1.1100
   64MOL0     O 8317   9.020   2.358   6.550 -0.8182 -0.3932  0.2879
   64MOL0     C 8318   8.995   2.447   6.632  0.3452  0.4001 -0.5781
   64MOL0     O 8319   8.887   2.445   6.721  0.2725 -0.0888 -0.4916
   64MOL0     C 8320   8.807   2.338   6.743 -0.0724 -0.1606  0.1293
   64MOL0     C 8321   8.814   2.210   6.685 -0.4120  0.0534  0.9217
   64MOL0     C 8322   8.721   2.111   6.713 -0.1849  0.8393  0.2079
   64MOL0     C 8323   8.613   2.135   6.800 -0.5031 -0.6010 -1.6877
   64MOL0     O 8324   8.524   2.032   6.826 -0.1374 -0.4218 -0.7787
   64MOL0     C 8325   8.451   2.014   6.954  1.0682 -0.3493  0.2026
   64MOL0     C 8326   8.318   2.075   6.923  0.4241 -1.2046 -0.5060
   64MOL0     C 8327   8.213   2.034   7.039  0.0191  0.1851  0.4096
   64MOL0     C 8328   8.080   2.099   7.008 -0.1548 -0.1657  0.2186
   64MOL0     C 8329   7.985   2.101   7.126 -0.5560 -0.5746 -0.3396
   64MOL0     C 8330   7.877   2.198   7.100 -0.8800  0.6622 -0.0432
   64MOL0     C 8331   7.764   2.211   7.215  0.0822  0.4421 -0.1135
   64MOL0     C 8332   7.812   2.226   7.357  0.6914 -0.0699  0.6429
   64MOL0     N 8333   7.703   2.210   7.450  0.5345  0.0979 -0.1946
   64MOL0     C 8334   7.639   2.307   7.517  0.9164  0.2422 -0.6477
   64MOL0     C 8335   7.552   2.239   7.593 -1.0231  0.6635 -0.5923
   64MOL0     C 8336   7.435   2.303   7.663  0.6970  0.2076 -0.5015
   64MOL0     C 8337   7.294   2.280   7.598  0.3790 -0.0560 -0.3131
   64MOL0     C 8338   7.186   2.332   7.687  0.1148  0.4232  0.5313
   64MOL0     C 8339   7.054   2.298   7.643 -0.7687 -0.3421  0.4723
   64MOL0     O 8340   6.965   2.343   7.738  0.2856  0.2564 -0.5098
   64MOL0     C 8341   6.829   2.322   7.727 -0.5846 -0.1741 -0.2391
   64MOL0     C 8342   6.762   2.272   7.617 -0.3681  0.1766 -0.1435
   64MOL0     C 8343   6.619   2.278   7.598  0.0356 -0.2664 -0.4302
   64MOL0     C 8344   6.543   2.329   7.709 -0.4463  1.4415  0.1955
   64MOL0     C 8345   6.399   2.341   7.696 -0.8848 -0.3467 -0.2901
   64MOL0     O 8346   6.343   2.422   7.781  0.3561 -0.8127  0.0960
   64MOL0     C 8347   6.210   2.463   7.772  0.6782  0.2176 -0.1066
   64MOL0     C 8348   6.179   2.600   7.749 -0.1572  0.2443  0.0490
   64MOL0     C 8349   6.046   2.646   7.759  0.9829  0.0230  0.5730
   64MOL0     C 8350   5.935   2.556   7.774 -0.6001 -0.5427 -1.1028
   64MOL0     O 8351   5.802   2.580   7.771  0.6014  0.0289  0.5403
   64MOL0     C 8352   5.749   2.719   7.777 -0.9781  0.2964 -0.0811
   64MOL0     C 8353   5.605   2.726   7.833 -0.3214  0.0082 -0.0636
   64MOL0     C 8354   5.509   2.822   7.761 -0.8020 -0.3070 -0.1245
   64MOL0     C 8355   5.552   2.975   7.752  0.2615  0.2133 -0.0391
   64MOL0     C 8356   5.491   3.015   7.615 -0.1958 -0.4179  0.4348
   64MOL0     C 8357   5.513   3.166   7.578 -1.0206 -0.3542  0.2718
   64MOL0     C 8358   5.653   3.171   7.515  0.1784 -0.2490 -0.4685
   64MOL0     C 8359   5.718   3.315   7.549 -0.0196 -0.2658  0.1123
   64MOL0    Cl 8360   5.865   3.337   7.455  0.1203 -0.6459  0.0398
   64MOL0     C 8361   5.971   2.422   7.783  0.6550  0.8468  0.1576
   64MOL0     C 8362   6.104   2.377   7.777 -0.0057  1.0627 -0.7218
   64MOL0     O 8363   6.347   2.294   7.596 -0.0112  0.9022  0.0498
   64MOL0     C 8364   6.604   2.358   7.830 -0.3427  0.4044  0.6350
   64MOL0     C 8365   6.747   2.367   7.837 -0.7315 -0.1714 -0.1235
   64MOL0     N 8366   7.572   2.101   7.577  0.1350  0.0585 -0.8583
   64MOL0     N 8367   7.658   2.086   7.481 -0.3949  0.0996  0.1851
   64MOL0     C 8368   8.600   2.266   6.856 -0.4224 -0.3512  0.2811
   64MOL0     C 8369   8.691   2.372   6.814  0.3907 -0.1993 -0.9333
   64MOL0     C 8370   9.073   2.568   6.628 -0.2288 -0.3390 -0.1470
   64MOL0     C 8371   9.184   2.597   6.536  0.3142 -0.0536 -0.3089
   64MOL0     C 8372   9.245   2.725   6.549  0.2518 -0.7196  0.0282
   64MOL0     C 8373   9.222   2.814   6.647  0.1252  0.2952 -0.2158
   64MOL0     O 8374   9.294   2.933   6.658  0.0786 -0.3219 -0.2008
   64MOL0     C 8375   9.435   2.913   6.693  0.1469  0.4044 -0.5757
   64MOL0     C 8376   9.532   2.929   6.577 -0.1283  0.8780  0.5284
   64MOL0     C 8377   9.662   2.862   6.621 -0.1284 -1.0639  0.3262
   64MOL0     C 8378   9.792   2.950   6.588 -0.7496  0.2560  0.2872
   64MOL0     C 8379   9.818   2.939   6.445 -0.0231 -0.1904 -0.6934
   64MOL0     C 8380   9.833   2.940   6.327 -0.0085  0.5576  0.3909
   64MOL0     C 8381   9.126   2.774   6.742 -0.7417  0.7380 -0.5301
   64MOL0     C 8382   9.044   2.664   6.726 -0.5625 -0.1482  1.1800
   64MOL0     H 8383   8.888   2.192   6.607 -1.3612  0.0211  0.0086
   64MOL0     H 8384   8.730   2.015   6.664  0.7766  1.4452 -0.8612
   64MOL0     H 8385   8.507   2.067   7.031  0.1273  0.7271  0.1666
   64MOL0     H 8386   8.441   1.907   6.977 -2.7587 -0.6128 -1.7960
   64MOL0     H 8387   8.278   2.032   6.831  1.1498 -0.8708 -0.9912
   64MOL0     H 8388   8.324   2.184   6.911 -1.4718 -0.9996  0.1058
   64MOL0     H 8389   8.252   2.064   7.136 -0.2341  0.1409  0.5239
   64MOL0     H 8390   8.193   1.927   7.050  3.3421 -0.4113  1.7953
   64MOL0     H 8391   8.113   2.199   6.977 -0.8635 -0.3691 -1.2709
   64MOL0     H 8392   8.037   2.046   6.923 -0.1326 -1.4539  0.9926
   64MOL0     H 8393   8.043   2.133   7.213 -1.7697 -0.9948  0.6563
   64MOL0     H 8394   7.944   2.002   7.147  2.3834 -1.5224  1.4805
   64MOL0     H 8395   7.833   2.159   7.008 -0.7479  1.0062 -0.2517
   64MOL0     H 8396   7.914   2.299   7.079  3.7223 -0.1878  2.6024
   64MOL0     H 8397   7.696   2.294   7.194 -0.1070  0.3334  0.0689
   64MOL0     H 8398   7.694   2.128   7.207 -0.6185  0.9126  0.8720
   64MOL0     H 8399   7.864   2.322   7.363  0.8515 -0.0727 -0.5663
   64MOL0     H 8400   7.893   2.153   7.366  3.2618  1.7814 -4.0385
   64MOL0     H 8401   7.640   2.416   7.514  0.6772  0.2584 -0.2700
   64MOL0     H 8402   7.457   2.405   7.696 -1.6379  0.8307 -0.7144
   64MOL0     H 8403   7.439   2.252   7.760  2.2373  0.0559 -0.6146
   64MOL0     H 8404   7.286   2.172   7.582 -0.0434 -0.3324  1.4949
   64MOL0     H 8405   7.297   2.335   7.504 -1.2319 -1.0981 -1.0088
   64MOL0     H 8406   7.192   2.288   7.787  0.4936 -2.1180 -0.5341
   64MOL0     H 8407   7.205   2.439   7.696 -0.6574  0.5693  0.4617
   64MOL0     H 8408   7.037   2.190   7.635 -1.1929 -0.2326 -0.1138
   64MOL0     H 8409   7.036   2.335   7.542  0.9342 -0.5286  0.0714
   64MOL0     H 8410   6.820   2.248   7.528  2.4412  0.6745  1.4519
   64MOL0     H 8411   6.566   2.242   7.509 -1.5398 -0.5139  0.5612
   64MOL0     H 8412   6.265   2.662   7.727  1.3677 -1.2815  1.4067
   64MOL0     H 8413   6.020   2.751   7.767 -0.2454 -0.1989 -0.2888
   64MOL0     H 8414   5.747   2.760   7.676  3.4116  2.3301  0.4494
   64MOL0     H 8415   5.820   2.774   7.839 -0.6597 -1.7840  1.5334
   64MOL0     H 8416   5.611   2.749   7.940 -1.9679  0.7767 -0.1110
   64MOL0     H 8417   5.564   2.626   7.820  0.2250 -0.2735  0.3448
   64MOL0     H 8418   5.408   2.818   7.802 -0.1334 -0.8067  1.5726
   64MOL0     H 8419   5.495   2.775   7.663 -0.0516 -1.7604  0.4507
   64MOL0     H 8420   5.512   3.033   7.836  1.5520  0.1456  0.6620
   64MOL0     H 8421   5.661   2.985   7.747  0.2165  0.1333 -2.3800
   64MOL0     H 8422   5.382   3.006   7.617 -0.5844  2.7408 -0.0550
   64MOL0     H 8423   5.534   2.955   7.534 -0.2486 -0.8255  0.7059
   64MOL0     H 8424   5.519   3.227   7.668  0.9854  0.6457 -0.4735
   64MOL0     H 8425   5.426   3.203   7.523  0.8568  2.4198 -1.0897
   64MOL0     H 8426   5.728   3.100   7.552  1.9049  1.5022 -0.4255
   64MOL0     H 8427   5.640   3.156   7.408  2.9138 -2.2364 -0.6223
   64MOL0     H 8428   5.740   3.318   7.656  2.0162 -1.2941 -0.2167
   64MOL0     H 8429   5.635   3.380   7.522 -0.6998 -1.4615 -0.8179
   64MOL0     H 8430   5.908   2.334   7.794 -0.2325  0.9632 -3.0624
   64MOL0     H 8431   6.139   2.275   7.787 -2.2875  0.2362 -0.6934
   64MOL0     H 8432   6.553   2.389   7.920 -0.1218  2.6508  0.0380
   64MOL0     H 8433   6.806   2.402   7.922  1.1785  1.1491 -1.9059
   64MOL0     H 8434   8.519   2.298   6.921  0.5077 -1.0213  1.8108
   64MOL0     H 8435   8.678   2.475   6.843  3.3373 -0.1426  0.4886
   64MOL0     H 8436   9.216   2.530   6.456  1.1863  1.4337 -1.2523
   64MOL0     H 8437   9.290   2.758   6.456  0.7768  0.6185  0.7334
   64MOL0     H 8438   9.450   2.812   6.731 -0.5469 -0.2155 -1.9083
   64MOL0     H 8439   9.461   2.981   6.775 -2.0910  0.7709 -0.1245
   64MOL0     H 8440   9.499   2.867   6.494 -0.5820 -0.1177  1.4224
   64MOL0     H 8441   9.529   3.031   6.538  0.3597 -0.0176 -2.0351
   64MOL0     H 8442   9.674   2.771   6.562  1.5966 -1.1563  0.7753
   64MOL0     H 8443   9.663   2.849   6.729  0.5227 -3.2269  0.1085
   64MOL0     H 8444   9.784   3.058   6.602  2.6977  0.6931 -0.2846
   64MOL0     H 8445   9.876   2.927   6.653  0.0773  1.4939 -0.3067
   64MOL0     H 8446   9.838   2.930   6.220 -2.7939  0.4073  0.2077
   64MOL0     H 8447   9.115   2.843   6.825 -0.9220  2.1577 -1.6887
   64MOL0     H 8448   8.962   2.646   6.796 -1.6240  3.2371  1.0162
   65MOL0     O 8449   5.285   2.869   3.902  0.4055  1.0803 -0.4984
   65MOL0     C 8450   5.240   2.960   3.832 -0.2949  0.1826 -0.1751
   65MOL0     O 8451   5.312   3.062   3.768  0.1704  0.6924 -0.0238
   65MOL0     C 8452   5.441   3.070   3.807  0.1515 -0.1779  0.4310
   65MOL0     C 8453   5.488   3.190   3.853  0.0912 -0.9698 -0.0424
   65MOL0     C 8454   5.617   3.209   3.895 -0.2069  0.0413  0.3995
   65MOL0     C 8455   5.710   3.102   3.887 -0.5591  1.0545 -0.0238
   65MOL0     O 8456   5.844   3.111   3.914  0.2655 -0.6528 -0.0633
   65MOL0     C 8457   5.903   3.243   3.929 -0.9497 -0.0806 -0.6122
   65MOL0     C 8458   6.058   3.240   3.931 -0.2419 -0.0723 -0.4284
   65MOL0     C 8459   6.098   3.386   3.944 -0.1438 -0.4671  0.3455
   65MOL0     C 8460   6.247   3.393   3.982 -0.4460 -0.7029  0.6784
   65MOL0     C 8461   6.307   3.534   3.979 -0.0513 -1.0677  0.2588
   65MOL0     C 8462   6.337   3.584   3.830 -0.0555 -0.9024 -0.2629
   65MOL0     C 8463   6.455   3.683   3.841 -0.6838  0.3485 -0.6152
   65MOL0     C 8464   6.481   3.779   3.718 -0.5792  0.0262 -0.6392
   65MOL0     N 8465   6.503   3.703   3.589 -0.6188 -0.4813 -1.0444
   65MOL0     C 8466   6.457   3.744   3.469 -0.4433 -0.5809 -0.8152
   65MOL0     C 8467   6.505   3.651   3.385  0.1764  0.8603  0.3930
   65MOL0     C 8468   6.487   3.636   3.240 -0.0215 -0.1416 -0.0958
   65MOL0     C 8469   6.500   3.765   3.164  0.0258  0.8185  0.6199
   65MOL0     C 8470   6.447   3.749   3.017  0.2658  0.1187  0.0047
   65MOL0     C 8471   6.293   3.747   3.000  0.4701 -0.2877 -0.6021
   65MOL0     O 8472   6.221   3.863   3.060 -0.3320 -0.2592  0.7131
   65MOL0     C 8473   6.083   3.872   3.049 -0.5575  0.0735  0.4627
   65MOL0     C 8474   6.016   3.988   3.080  0.0948  0.8197  0.8060
   65MOL0     C 8475   5.873   4.003   3.066  0.2141  0.8872 -0.1949
   65MOL0     C 8476   5.796   3.895   3.014 -0.1672 -0.0863  0.7561
   65MOL0     C 8477   5.649   3.905   2.991 -0.2035  0.0708 -0.1186
   65MOL0     O 8478   5.583   3.822   2.901  1.0464  0.1048  0.1288
   65MOL0     C 8479   5.447   3.846   2.860 -0.4758 -0.2613 -0.2231
   65MOL0     C 8480   5.405   3.977   2.821 -0.7389  0.3287  0.6462
   65MOL0     C 8481   5.286   3.991   2.747 -0.3741  0.1377 -0.0176
   65MOL0     C 8482   5.207   3.880   2.711 -0.0790 -0.0170 -0.0326
   65MOL0     O 8483   5.090   3.916   2.658 -0.1964  0.0927 -0.1464
   65MOL0     C 8484   5.021   3.833   2.565 -0.0014 -0.6370 -0.7581
   65MOL0     C 8485   4.881   3.894   2.564  0.5203 -0.1419  0.1107
   65MOL0     C 8486   4.780   3.797   2.494 -0.9896 -0.0853  0.1720
   65MOL0     C 8487   4.643   3.861   2.501 -0.4334 -0.7227  0.2964
   65MOL0     C 8488   4.542   3.762   2.443 -1.3300 -0.5873  0.0498
   65MOL0     C 8489   4.397   3.799   2.456 -0.4548 -0.3807  0.8338
   65MOL0     C 8490   4.326   3.712   2.358 -0.9960 -0.0910 -1.6767
   65MOL0     C 8491   4.177   3.718   2.380  0.1291 -0.2995  0.9839
   65MOL0    Cl 8492   4.127   3.675   2.536  0.0502 -0.1313  0.3023
   65MOL0     C 8493   5.254   3.755   2.737 -0.1604 -0.8697 -0.0183
   65MOL0     C 8494   5.371   3.741   2.815 -0.1070 -0.0969  0.3418
   65MOL0     O 8495   5.596   3.986   3.060  0.2762 -0.0866  0.3795
   65MOL0     C 8496   5.859   3.771   2.981 -0.6874 -0.0135 -0.5561
   65MOL0     C 8497   5.997   3.766   3.008  0.5960 -0.1839 -0.1990
   65MOL0     N 8498   6.571   3.550   3.455  0.6924 -1.0685  0.5829
   65MOL0     N 8499   6.584   3.596   3.572 -0.2823  0.4790  0.2178
   65MOL0     C 8500   5.662   2.986   3.845  0.7656  0.4462 -0.8137
   65MOL0     C 8501   5.530   2.966   3.807 -0.0007  0.2565  0.7110
   65MOL0     C 8502   5.100   2.957   3.796  0.6835 -0.3358 -0.0266
   65MOL0     C 8503   5.009   2.886   3.881  0.2516 -0.0741 -0.2812
   65MOL0     C 8504   4.868   2.886   3.858  0.8124  0.1636 -0.3961
   65MOL0     C 8505   4.817   2.942   3.742  0.0544  0.4856 -0.0979
   65MOL0     O 8506   4.683   2.945   3.717 -0.4656  0.6390  0.2744
   65MOL0     C 8507   4.582   2.977   3.817  0.2828  0.1266 -0.0363
   65MOL0     C 8508   4.440   2.998   3.759 -1.0477 -0.1973 -0.0311
   65MOL0     C 8509   4.434   3.060   3.610 -0.0563  0.4837  0.1460
   65MOL0     C 8510   4.300   3.109   3.582  0.7300 -0.3867 -0.0580
   65MOL0     C 8511   4.237   3.187   3.687 -0.7000 -0.0485 -1.1140
   65MOL0     C 8512   4.192   3.255   3.775 -0.2183 -0.7666 -0.0941
   65MOL0     C 8513   4.912   3.009   3.658  0.1467  0.2677  0.5198
   65MOL0     C 8514   5.047   3.018   3.680  0.7816  0.3761 -0.3339
   65MOL0     H 8515   5.417   3.272   3.861  0.3585 -0.9296  3.3702
   65MOL0     H 8516   5.651   3.302   3.939  0.7087  0.1653 -0.5467
   65MOL0     H 8517   5.869   3.289   4.022  1.5087  0.1586  0.2322
   65MOL0     H 8518   5.862   3.299   3.844 -2.3061  2.6647  1.6948
   65MOL0     H 8519   6.087   3.191   3.837 -1.8661 -0.8670 -0.5549
   65MOL0     H 8520   6.101   3.182   4.013 -0.4160  1.2511  0.6464
   65MOL0     H 8521   6.046   3.423   4.033  3.1628  0.0987  2.1832
   65MOL0     H 8522   6.077   3.442   3.853  2.1507  0.3189  0.2430
   65MOL0     H 8523   6.243   3.355   4.084 -1.6867 -1.6807  0.2926
   65MOL0     H 8524   6.310   3.323   3.924  2.3463 -0.3766  3.0983
   65MOL0     H 8525   6.400   3.532   4.036  0.8123 -2.8410 -1.0926
   65MOL0     H 8526   6.234   3.591   4.036 -0.4096 -0.4704 -0.7598
   65MOL0     H 8527   6.250   3.633   3.784  0.1564 -0.9394 -0.7109
   65MOL0     H 8528   6.364   3.504   3.760 -2.1033 -2.4690  0.6271
   65MOL0     H 8529   6.449   3.746   3.930  2.6383  1.5769 -1.1042
   65MOL0     H 8530   6.549   3.629   3.857  0.9661  3.6878  2.2406
   65MOL0     H 8531   6.568   3.845   3.722 -1.3968  1.2425 -2.0403
   65MOL0     H 8532   6.394   3.845   3.708 -1.6356 -1.5524 -2.4955
   65MOL0     H 8533   6.401   3.833   3.441 -1.2805 -1.4862 -2.1193
   65MOL0     H 8534   6.388   3.589   3.229 -0.1718 -0.2794  1.5656
   65MOL0     H 8535   6.557   3.559   3.206 -1.6161 -1.6447 -0.1826
   65MOL0     H 8536   6.608   3.777   3.155  0.1884 -0.4315  0.8042
   65MOL0     H 8537   6.463   3.859   3.205  2.4251  2.5928 -0.9700
   65MOL0     H 8538   6.488   3.830   2.955  0.3587 -1.3004 -1.8865
   65MOL0     H 8539   6.487   3.660   2.967 -3.3074 -0.9124 -1.3195
   65MOL0     H 8540   6.246   3.657   3.042  1.0084  0.6532  2.2401
   65MOL0     H 8541   6.275   3.748   2.893 -0.5274 -1.3864 -0.4665
   65MOL0     H 8542   6.062   4.073   3.131 -0.4245  0.2231  2.3410
   65MOL0     H 8543   5.834   4.092   3.114 -3.1812 -1.2682  1.4172
   65MOL0     H 8544   5.473   4.060   2.841  0.3530 -0.5496  0.6560
   65MOL0     H 8545   5.257   4.083   2.699  0.7350 -0.1417 -1.3142
   65MOL0     H 8546   5.034   3.729   2.596  0.4427 -0.0852  1.0524
   65MOL0     H 8547   5.071   3.849   2.469  1.3510  3.4943  0.3870
   65MOL0     H 8548   4.890   3.986   2.505  1.6613 -0.3855 -0.1156
   65MOL0     H 8549   4.847   3.925   2.663 -3.9811  1.1467 -1.5898
   65MOL0     H 8550   4.790   3.710   2.559  1.6836  0.7175  0.9504
   65MOL0     H 8551   4.800   3.766   2.391 -0.4924 -1.0142  0.5453
   65MOL0     H 8552   4.605   3.878   2.602  2.2642  4.2465  0.7425
   65MOL0     H 8553   4.632   3.953   2.443 -1.3690 -3.0561 -3.6343
   65MOL0     H 8554   4.556   3.666   2.494  0.4862  0.5399  1.8144
   65MOL0     H 8555   4.556   3.744   2.336 -1.8389 -1.3064  0.0956
   65MOL0     H 8556   4.383   3.905   2.434 -3.3315 -0.7989  0.2444
   65MOL0     H 8557   4.369   3.784   2.561 -0.6265  0.1314  0.8594
   65MOL0     H 8558   4.331   3.753   2.257 -1.7074  2.9847 -0.5790
   65MOL0     H 8559   4.353   3.608   2.377  2.8443  0.9050 -0.8316
   65MOL0     H 8560   4.115   3.665   2.306 -0.3136 -0.2327  1.3015
   65MOL0     H 8561   4.149   3.821   2.355 -0.2222 -0.9185 -1.5021
   65MOL0     H 8562   5.212   3.664   2.696 -1.1602  0.3567 -1.8580
   65MOL0     H 8563   5.404   3.639   2.832 -1.2224 -0.5195  0.1117
   65MOL0     H 8564   5.797   3.684   2.961 -0.9762  0.5125 -2.0643
   65MOL0     H 8565   6.044   3.668   2.994 -1.8369 -1.4082 -0.2726
   65MOL0     H 8566   5.734   2.905   3.843  2.6392  1.9618  0.5520
   65MOL0     H 8567   5.501   2.867   3.775  0.9064  0.6719 -1.5978
   65MOL0     H 8568   5.044   2.838   3.972  1.6035 -2.2210 -1.8298
   65MOL0     H 8569   4.805   2.837   3.931  0.9807  2.5611  1.4819
   65MOL0     H 8570   4.611   3.070   3.868  2.0992 -1.0613  1.1917
   65MOL0     H 8571   4.578   2.899   3.893  1.1348 -1.4968 -1.5759
   65MOL0     H 8572   4.383   2.905   3.759 -2.4139  0.5769 -2.2803
   65MOL0     H 8573   4.397   3.054   3.843 -0.2023 -0.4352  0.5703
   65MOL0     H 8574   4.453   2.989   3.529 -0.6557  0.3566  0.1102
   65MOL0     H 8575   4.512   3.137   3.602  0.5662 -0.0726  0.6695
   65MOL0     H 8576   4.304   3.172   3.493  2.2876 -0.4698 -0.0702
   65MOL0     H 8577   4.235   3.021   3.588 -0.9898  0.8107 -0.3352
   65MOL0     H 8578   4.151   3.312   3.856  2.0162 -1.1271  1.3641
   65MOL0     H 8579   4.863   3.054   3.572  2.2733  1.5502 -0.0990
   65MOL0     H 8580   5.120   3.077   3.625  0.7803  0.0003 -0.7463
   66MOL0     O 8581   1.871   8.227   3.477 -0.4957  0.5178 -0.2957
   66MOL0     C 8582   1.787   8.194   3.393 -0.6234  1.0850 -0.0658
   66MOL0     O 8583   1.741   8.265   3.290  0.2039 -0.0610 -1.1744
   66MOL0     C 8584   1.805   8.383   3.259 -0.8044  0.1040 -0.5752
   66MOL0     C 8585   1.742   8.504   3.241 -0.2182  0.3490 -0.3169
   66MOL0     C 8586   1.809   8.627   3.215 -0.8043  0.1647  0.3452
   66MOL0     C 8587   1.952   8.632   3.199 -0.7403 -0.0849  0.5441
   66MOL0     O 8588   2.014   8.756   3.194 -0.3142  0.1182  0.5076
   66MOL0     C 8589   2.132   8.754   3.271 -0.3140 -0.2290 -0.4991
   66MOL0     C 8590   2.185   8.896   3.290 -0.1870  0.1127 -0.1069
   66MOL0     C 8591   2.316   8.893   3.363 -0.9818 -0.0173 -1.0326
   66MOL0     C 8592   2.369   9.033   3.363  0.1323 -0.6023  0.0421
   66MOL0     C 8593   2.486   9.042   3.458  0.2946 -0.5552 -0.2106
   66MOL0     C 8594   2.539   9.186   3.466  0.4239 -0.3775  0.1181
   66MOL0     C 8595   2.604   9.222   3.606  0.0643 -0.0941  0.1519
   66MOL0     C 8596   2.666   9.360   3.600 -0.0613  0.1019  0.1793
   66MOL0     N 8597   2.567   9.470   3.595 -0.2461 -0.1687 -0.2433
   66MOL0     C 8598   2.570   9.578   3.680  0.3507  0.0024  0.3436
   66MOL0     C 8599   2.445   9.641   3.658 -0.3453  0.0513  0.1036
   66MOL0     C 8600   2.374   9.757   3.720 -0.0377 -0.3084  1.1231
   66MOL0     C 8601   2.361   9.779   3.873  0.1409 -0.1478  0.0209
   66MOL0     C 8602   2.290   9.646   3.932  0.3202  0.1095 -0.2555
   66MOL0     C 8603   2.141   9.643   3.907  0.0981 -0.7653 -0.9572
   66MOL0     O 8604   2.081   9.536   3.984 -0.7967 -0.3483  0.1261
   66MOL0     C 8605   1.945   9.516   3.971 -0.7121  0.8420  0.2282
   66MOL0     C 8606   1.858   9.592   3.895  0.4181 -0.4660 -0.2050
   66MOL0     C 8607   1.723   9.559   3.884 -0.8303  0.1795 -0.6862
   66MOL0     C 8608   1.672   9.441   3.941  0.4060  0.2876  0.1756
   66MOL0     C 8609   1.537   9.403   3.938 -0.0038 -0.1268 -0.3610
   66MOL0     O 8610   1.450   9.488   3.874  0.0156 -0.0788  0.2393
   66MOL0     C 8611   1.311   9.479   3.867 -0.5500 -0.0059 -0.4969
   66MOL0     C 8612   1.231   9.376   3.928 -0.1619 -0.4840  0.1616
   66MOL0     C 8613   1.087   9.360   3.904 -0.6558 -0.3271 -1.0835
   66MOL0     C 8614   1.035   9.464   3.827 -0.3050 -0.6159  0.2420
   66MOL0     O 8615   0.905   9.451   3.810  0.5539  0.3645  0.2633
   66MOL0     C 8616   0.853   9.517   3.685  0.5255 -0.2894 -0.3917
   66MOL0     C 8617   0.713   9.467   3.663  0.7652 -0.0420  1.6217
   66MOL0     C 8618   0.678   9.465   3.512 -0.2278 -0.1271  0.1685
   66MOL0     C 8619   0.526   9.455   3.496  0.0970  0.4112 -0.7775
   66MOL0     C 8620   0.474   9.438   3.352  0.2585  0.1086 -0.2160
   66MOL0     C 8621   0.315   9.425   3.358 -0.0130  0.1198 -1.2518
   66MOL0     C 8622   0.261   9.374   3.223  0.7655 -0.0765  0.5337
   66MOL0     C 8623   0.113   9.399   3.183 -0.3657  0.4741  0.2441
   66MOL0    Cl 8624   0.092   9.566   3.125 -0.4135  0.2162  0.1718
   66MOL0     C 8625   1.109   9.574   3.782  0.4372 -0.0419  0.3723
   66MOL0     C 8626   1.247   9.574   3.799  0.4547 -0.7708  0.5026
   66MOL0     O 8627   1.502   9.294   3.974  0.3678 -0.1749 -0.3663
   66MOL0     C 8628   1.754   9.358   4.012 -0.0472 -1.0521  0.5230
   66MOL0     C 8629   1.894   9.398   4.028 -0.7640  0.2162 -0.0698
   66MOL0     N 8630   2.382   9.579   3.556 -0.1454 -0.2215  0.4574
   66MOL0     N 8631   2.444   9.474   3.537 -0.7974 -0.3634  1.0578
   66MOL0     C 8632   2.017   8.509   3.216  0.2968  0.5382 -1.0339
   66MOL0     C 8633   1.948   8.392   3.245  0.4798  0.6496 -0.5213
   66MOL0     C 8634   1.728   8.057   3.423  0.2046 -0.4581 -0.5610
   66MOL0     C 8635   1.724   8.006   3.561 -0.1730 -0.1531  0.6930
   66MOL0     C 8636   1.653   7.885   3.590 -1.1702  0.0888 -0.2611
   66MOL0     C 8637   1.602   7.809   3.495 -0.3297  1.2998 -0.1402
   66MOL0     O 8638   1.542   7.691   3.526  0.2289  0.1594 -0.3917
   66MOL0     C 8639   1.475   7.608   3.432 -0.0767  0.0368 -0.9886
   66MOL0     C 8640   1.421   7.478   3.507  1.0497 -0.8046 -0.6910
   66MOL0     C 8641   1.321   7.526   3.617  0.2115  1.2077  0.0472
   66MOL0     C 8642   1.279   7.408   3.693  0.3948  0.0048 -1.1698
   66MOL0     C 8643   1.198   7.324   3.611 -1.6189 -0.5637 -0.0339
   66MOL0     C 8644   1.129   7.251   3.545 -0.7357 -0.4152  0.5242
   66MOL0     C 8645   1.608   7.854   3.359  0.0500 -0.9162 -0.1467
   66MOL0     C 8646   1.651   7.982   3.331 -0.6973  1.0909 -0.6454
   66MOL0     H 8647   1.634   8.503   3.253 -0.2658  2.0121 -0.3655
   66MOL0     H 8648   1.755   8.721   3.213 -0.7496  0.1892 -1.4533
   66MOL0     H 8649   2.204   8.691   3.217  0.9346 -1.4150  2.3629
   66MOL0     H 8650   2.108   8.713   3.369 -1.8683  1.0049 -0.3125
   66MOL0     H 8651   2.106   8.953   3.338 -0.7701 -1.2056  0.5616
   66MOL0     H 8652   2.188   8.948   3.193  0.9075  0.1209 -0.0813
   66MOL0     H 8653   2.388   8.830   3.310 -0.2047  1.1997 -1.4622
   66MOL0     H 8654   2.307   8.846   3.461  1.6450 -0.3551 -0.8854
   66MOL0     H 8655   2.402   9.072   3.266  3.3695  0.1433  1.3170
   66MOL0     H 8656   2.288   9.097   3.398 -0.7867 -0.7491 -1.6878
   66MOL0     H 8657   2.567   8.972   3.434 -0.1694 -0.9068 -0.7992
   66MOL0     H 8658   2.456   9.011   3.559  1.5458 -0.0658  0.3208
   66MOL0     H 8659   2.452   9.251   3.460  0.1841 -0.7383 -0.3628
   66MOL0     H 8660   2.604   9.202   3.379  0.4567 -3.5630 -0.5610
   66MOL0     H 8661   2.532   9.210   3.688  1.4921  2.2806  1.8732
   66MOL0     H 8662   2.683   9.147   3.618 -0.4546 -0.3941  2.0430
   66MOL0     H 8663   2.727   9.363   3.509 -1.3276 -0.8242 -0.7349
   66MOL0     H 8664   2.730   9.374   3.687 -1.3564 -1.3669  1.4205
   66MOL0     H 8665   2.638   9.628   3.748 -2.0626  1.8808  1.5183
   66MOL0     H 8666   2.277   9.753   3.671  0.4476  0.8326 -0.0147
   66MOL0     H 8667   2.434   9.844   3.690 -2.4781  0.6073 -1.4918
   66MOL0     H 8668   2.298   9.866   3.893  0.7995  0.2763  0.3077
   66MOL0     H 8669   2.462   9.799   3.911 -0.2004  2.0219 -0.0678
   66MOL0     H 8670   2.329   9.549   3.900  1.7543 -0.5072  2.9571
   66MOL0     H 8671   2.303   9.634   4.039  0.2088  0.8499 -0.1510
   66MOL0     H 8672   2.119   9.630   3.801 -0.8441 -1.0860 -0.7401
   66MOL0     H 8673   2.107   9.743   3.935  0.8303 -1.0517  1.1047
   66MOL0     H 8674   1.893   9.689   3.860 -1.5102 -0.2935 -1.8995
   66MOL0     H 8675   1.657   9.622   3.825 -4.5475 -0.5373  2.2784
   66MOL0     H 8676   1.279   9.294   3.981  0.5363  0.7698  1.5541
   66MOL0     H 8677   1.040   9.271   3.945 -1.7521  0.1806 -1.2190
   66MOL0     H 8678   0.914   9.484   3.600  2.6798  2.5420 -0.0882
   66MOL0     H 8679   0.848   9.626   3.692 -0.6637 -0.3448 -0.1950
   66MOL0     H 8680   0.636   9.530   3.706 -0.0817 -1.2820  1.9564
   66MOL0     H 8681   0.702   9.365   3.700  0.3622 -1.0874 -1.0902
   66MOL0     H 8682   0.730   9.377   3.473  0.5139 -0.3624  1.6073
   66MOL0     H 8683   0.716   9.555   3.462 -1.4146  0.2765 -0.0436
   66MOL0     H 8684   0.502   9.366   3.554 -0.3564  0.5977 -0.6722
   66MOL0     H 8685   0.488   9.548   3.540  1.6508  1.8938 -2.3820
   66MOL0     H 8686   0.521   9.349   3.310  2.2535  0.3141  1.4364
   66MOL0     H 8687   0.508   9.515   3.282 -0.7921  0.0344 -0.8322
   66MOL0     H 8688   0.276   9.523   3.386 -1.1256 -0.3825 -0.9875
   66MOL0     H 8689   0.294   9.356   3.440 -0.3707  1.3416 -0.2854
   66MOL0     H 8690   0.318   9.420   3.142 -0.2151  2.8697  1.3986
   66MOL0     H 8691   0.278   9.267   3.208 -0.1497 -0.0071 -1.3440
   66MOL0     H 8692   0.052   9.381   3.272 -1.1926 -1.0010 -0.5819
   66MOL0     H 8693   0.084   9.327   3.105 -0.0558  0.2490  0.3330
   66MOL0     H 8694   1.066   9.658   3.728 -0.8899  0.6099  2.3502
   66MOL0     H 8695   1.315   9.650   3.763 -0.1964 -0.5650 -0.3217
   66MOL0     H 8696   1.735   9.255   4.043 -0.8562 -1.3556 -0.8838
   66MOL0     H 8697   1.964   9.336   4.082 -0.0796 -0.3655 -1.5742
   66MOL0     H 8698   2.125   8.502   3.216  0.3216  0.5043  0.3584
   66MOL0     H 8699   2.011   8.309   3.276 -0.4069 -1.0765 -3.0282
   66MOL0     H 8700   1.754   8.075   3.639 -1.3923  0.2866  0.8005
   66MOL0     H 8701   1.639   7.853   3.693 -0.4923  0.9839  0.1240
   66MOL0     H 8702   1.540   7.588   3.346  1.7514  1.4886  0.0085
   66MOL0     H 8703   1.389   7.660   3.388 -0.2152  0.1409 -0.6000
   66MOL0     H 8704   1.374   7.421   3.427 -0.5649  0.6075 -0.8035
   66MOL0     H 8705   1.502   7.415   3.546  1.7851  1.2049  1.2248
   66MOL0     H 8706   1.239   7.580   3.567 -1.7238 -1.0022  0.6860
   66MOL0     H 8707   1.373   7.597   3.683  0.2952  1.7560 -0.5919
   66MOL0     H 8708   1.365   7.345   3.716 -0.3306 -0.3028  0.9084
   66MOL0     H 8709   1.219   7.433   3.781 -1.3064  0.6687 -2.4463
   66MOL0     H 8710   1.048   7.206   3.492 -0.4334 -0.9387  0.4985
   66MOL0     H 8711   1.573   7.791   3.277  0.7415 -1.4888 -0.0152
   66MOL0     H 8712   1.651   8.018   3.229  0.5671 -0.2418 -1.1449
   67MOL0     O 8713   1.024   8.780   6.786 -0.0606 -0.0475  0.4012
   67MOL0     C 8714   1.086   8.762   6.895  0.1640  0.9255 -0.3371
   67MOL0     O 8715   1.035   8.705   7.008  0.1300 -0.9235  0.2552
   67MOL0     C 8716   0.907   8.666   6.995 -0.1986  0.3437 -1.0676
   67MOL0     C 8717   0.800   8.739   7.062 -0.3784 -0.7103 -0.5969
   67MOL0     C 8718   0.673   8.703   7.057 -0.0759 -1.0486  0.4624
   67MOL0     C 8719   0.645   8.585   7.001 -0.6379 -0.9182  0.0057
   67MOL0     O 8720   0.513   8.546   7.024 -0.3573  0.4381  0.3938
   67MOL0     C 8721   0.499   8.405   7.061 -0.0907 -0.5637 -0.9496
   67MOL0     C 8722   0.360   8.371   7.118  0.0802  0.8523 -0.0138
   67MOL0     C 8723   0.267   8.380   6.989  0.1221  0.4413 -0.1593
   67MOL0     C 8724   0.118   8.389   6.995  0.0626  0.5674  0.0761
   67MOL0     C 8725   0.058   8.411   6.858  1.9696 -0.1116  0.2711
   67MOL0     C 8726  -0.096   8.405   6.865 -0.0197 -0.3796  0.5315
   67MOL0     C 8727  -0.149   8.398   6.725 -0.0040 -0.7251  0.2639
   67MOL0     C 8728  -0.121   8.515   6.628  0.1731 -0.2261  0.1136
   67MOL0     N 8729  -0.148   8.472   6.493  0.0693  0.3883 -0.1793
   67MOL0     C 8730  -0.275   8.447   6.456  0.2099 -0.0215  1.0130
   67MOL0     C 8731  -0.270   8.415   6.324 -0.7258  0.1184 -0.0853
   67MOL0     C 8732  -0.385   8.392   6.232 -0.1193 -1.0034  0.2856
   67MOL0     C 8733  -0.489   8.317   6.301  0.6530  0.2747 -0.0554
   67MOL0     C 8734  -0.585   8.256   6.195 -0.9005 -0.0083 -0.6109
   67MOL0     C 8735  -0.691   8.185   6.284  0.3309  0.0917  0.7536
   67MOL0     O 8736  -0.771   8.113   6.186 -0.6531 -0.6102 -0.6326
   67MOL0     C 8737  -0.878   8.178   6.125 -0.0045  0.5613 -0.6068
   67MOL0     C 8738  -0.959   8.092   6.051  0.5086 -0.0163  0.7073
   67MOL0     C 8739  -1.063   8.145   5.977  0.0223 -0.7224 -0.2986
   67MOL0     C 8740  -1.105   8.283   5.993  0.4303 -0.7543  1.2157
   67MOL0     C 8741  -1.224   8.332   5.922 -0.0188 -0.4871 -0.3164
   67MOL0     O 8742  -1.309   8.227   5.870  0.5064  0.5878  0.3045
   67MOL0     C 8743  -1.439   8.245   5.835 -0.4645 -0.5344  0.6298
   67MOL0     C 8744  -1.480   8.229   5.703  0.7586 -0.3775  0.2026
   67MOL0     C 8745  -1.616   8.278   5.667 -0.1148 -0.0285  0.3325
   67MOL0     C 8746  -1.706   8.312   5.770  1.3440 -1.3495 -0.1408
   67MOL0     O 8747  -1.836   8.365   5.745  0.0785  0.6220 -0.1744
   67MOL0     C 8748  -1.927   8.265   5.692  1.1817 -0.4645  0.6408
   67MOL0     C 8749  -2.011   8.325   5.575 -0.2185 -0.6189  0.1858
   67MOL0     C 8750  -2.112   8.228   5.516 -0.4387 -0.7037  0.3639
   67MOL0     C 8751  -2.224   8.288   5.432 -0.5242  0.2663 -0.5386
   67MOL0     C 8752  -2.343   8.188   5.409  0.4125 -0.6505 -0.7222
   67MOL0     C 8753  -2.303   8.060   5.324 -0.0318  0.0523 -0.0585
   67MOL0     C 8754  -2.424   7.968   5.335  0.8386  0.0558  0.2610
   67MOL0     C 8755  -2.417   7.865   5.221  0.2094  0.1407 -0.2269
   67MOL0    Cl 8756  -2.286   7.754   5.247 -0.0268 -0.1133 -0.2287
   67MOL0     C 8757  -1.663   8.324   5.901  0.0580 -0.2592 -0.3283
   67MOL0     C 8758  -1.529   8.292   5.934  0.7215 -0.2857 -0.7297
   67MOL0     O 8759  -1.244   8.462   5.924  0.1253  0.5480  0.3682
   67MOL0     C 8760  -1.017   8.368   6.059  0.7480 -0.5518  1.3188
   67MOL0     C 8761  -0.922   8.315   6.137 -0.1792 -1.2854  0.1857
   67MOL0     N 8762  -0.137   8.401   6.298  0.5694  0.5685 -0.2759
   67MOL0     N 8763  -0.062   8.432   6.397 -0.0013 -0.2487  0.6413
   67MOL0     C 8764   0.739   8.502   6.937  0.1266  0.2646  0.9123
   67MOL0     C 8765   0.867   8.547   6.927  0.8034  0.6463  0.1103
   67MOL0     C 8766   1.222   8.813   6.900 -0.3477  0.4960  0.3878
   67MOL0     C 8767   1.288   8.832   7.019  0.0163  0.1752 -1.0233
   67MOL0     C 8768   1.423   8.870   7.014  0.7415 -0.1505 -0.4364
   67MOL0     C 8769   1.482   8.918   6.895  0.5252 -0.1334  0.4697
   67MOL0     O 8770   1.613   8.954   6.905  0.0692  0.4764 -0.8805
   67MOL0     C 8771   1.681   9.009   6.795  0.3412 -0.1358 -0.1415
   67MOL0     C 8772   1.671   9.155   6.775  0.4425  0.0920  0.0401
   67MOL0     C 8773   1.702   9.201   6.629 -0.0629  0.3611 -0.9509
   67MOL0     C 8774   1.857   9.202   6.603  0.0424  0.5973  0.1808
   67MOL0     C 8775   1.886   9.287   6.478 -0.8575  0.8388  0.2188
   67MOL0     C 8776   1.929   9.343   6.372  0.2840  0.5888 -0.4146
   67MOL0     C 8777   1.414   8.900   6.772 -1.3931 -0.8796 -0.5197
   67MOL0     C 8778   1.288   8.853   6.780  0.3810  0.3831  0.0328
   67MOL0     H 8779   0.818   8.831   7.118  2.1515 -0.2786 -1.9788
   67MOL0     H 8780   0.595   8.759   7.109  1.4836  2.4822 -0.6463
   67MOL0     H 8781   0.568   8.379   7.141 -0.5782  0.1714 -0.2705
   67MOL0     H 8782   0.516   8.344   6.972 -0.0764 -1.2128 -0.5047
   67MOL0     H 8783   0.323   8.449   7.185 -0.5459  1.2390 -0.7878
   67MOL0     H 8784   0.358   8.271   7.162 -3.1119  0.6258 -0.4202
   67MOL0     H 8785   0.302   8.298   6.925 -1.2595 -0.9520  0.8187
   67MOL0     H 8786   0.299   8.469   6.934 -2.1842  0.8371 -0.9469
   67MOL0     H 8787   0.088   8.296   7.044  2.7207 -0.6156 -0.3230
   67MOL0     H 8788   0.090   8.470   7.062  0.0646  0.1948  0.5298
   67MOL0     H 8789   0.094   8.336   6.787  1.4917  0.0387 -0.1432
   67MOL0     H 8790   0.097   8.502   6.812  1.8700 -0.1172  0.1754
   67MOL0     H 8791  -0.140   8.498   6.904 -0.1617  0.0820 -0.6676
   67MOL0     H 8792  -0.133   8.328   6.933 -2.9447 -0.4833 -0.9744
   67MOL0     H 8793  -0.109   8.305   6.683 -0.9005 -1.6950  1.4823
   67MOL0     H 8794  -0.257   8.392   6.742  0.1442  1.8433  2.6668
   67MOL0     H 8795  -0.020   8.553   6.643 -0.4574  1.1800  1.1393
   67MOL0     H 8796  -0.183   8.603   6.649 -0.9347 -0.9197 -0.1249
   67MOL0     H 8797  -0.364   8.464   6.515  0.6414  1.1389  1.3533
   67MOL0     H 8798  -0.337   8.337   6.151  3.2325  1.6748  0.2092
   67MOL0     H 8799  -0.426   8.487   6.196  1.5884 -0.0569  0.6745
   67MOL0     H 8800  -0.545   8.389   6.361 -0.1556 -1.0590  0.8342
   67MOL0     H 8801  -0.448   8.240   6.367  0.8210 -2.5909 -3.2246
   67MOL0     H 8802  -0.634   8.329   6.129  1.1217  1.2097 -0.8452
   67MOL0     H 8803  -0.537   8.185   6.127 -2.6414 -1.9128  0.0414
   67MOL0     H 8804  -0.737   8.264   6.343 -1.4534 -0.6223  0.3622
   67MOL0     H 8805  -0.645   8.110   6.349 -0.7845 -1.6699 -0.3949
   67MOL0     H 8806  -0.935   7.989   6.028  2.2407  0.8605 -1.8840
   67MOL0     H 8807  -1.121   8.082   5.910 -0.6901  0.8260 -1.1954
   67MOL0     H 8808  -1.407   8.200   5.629 -2.5272  0.3587 -3.7295
   67MOL0     H 8809  -1.643   8.290   5.562  2.8504  0.7885 -0.4191
   67MOL0     H 8810  -1.990   8.223   5.771 -0.0596  0.1676  0.0119
   67MOL0     H 8811  -1.868   8.184   5.648 -0.3881 -0.9412 -0.6875
   67MOL0     H 8812  -1.949   8.356   5.491  1.1423  0.3986  1.5048
   67MOL0     H 8813  -2.073   8.411   5.604 -0.8267 -0.1913 -2.1958
   67MOL0     H 8814  -2.168   8.178   5.596 -2.5991 -2.9463 -2.3026
   67MOL0     H 8815  -2.066   8.140   5.469  0.7238 -0.7259  1.4807
   67MOL0     H 8816  -2.260   8.374   5.488  0.8385 -1.1282  2.7684
   67MOL0     H 8817  -2.187   8.323   5.335 -1.0046 -1.0649 -1.2269
   67MOL0     H 8818  -2.429   8.232   5.358  0.2276 -0.2733 -0.0960
   67MOL0     H 8819  -2.369   8.161   5.512 -0.0797 -2.1927 -1.2250
   67MOL0     H 8820  -2.216   8.018   5.374  1.3780  0.9490 -1.6497
   67MOL0     H 8821  -2.272   8.087   5.222  1.9718  0.8749  0.7216
   67MOL0     H 8822  -2.434   7.926   5.436 -0.1047  0.2669  0.2653
   67MOL0     H 8823  -2.515   8.030   5.334 -0.0485 -1.1606  1.5403
   67MOL0     H 8824  -2.414   7.919   5.126 -1.8061 -1.5295 -1.3299
   67MOL0     H 8825  -2.512   7.811   5.223 -0.4493  1.2567 -0.6187
   67MOL0     H 8826  -1.724   8.356   5.984  0.0196  1.6731 -1.0471
   67MOL0     H 8827  -1.476   8.313   6.027  1.8414  0.4328 -1.5001
   67MOL0     H 8828  -1.036   8.475   6.060 -1.4547 -0.8240 -0.8449
   67MOL0     H 8829  -0.855   8.383   6.189  2.4259 -2.5367 -1.3416
   67MOL0     H 8830   0.719   8.407   6.890  0.0855  0.3771  0.7033
   67MOL0     H 8831   0.938   8.488   6.870  2.0497 -0.9524  3.0638
   67MOL0     H 8832   1.259   8.802   7.120  3.6053 -1.0299 -0.1844
   67MOL0     H 8833   1.493   8.853   7.095 -0.9891  1.7131  1.5610
   67MOL0     H 8834   1.642   8.967   6.702  0.4031 -1.0104  0.2212
   67MOL0     H 8835   1.784   8.972   6.799  0.4635  0.2880  1.7484
   67MOL0     H 8836   1.566   9.181   6.789 -0.0169 -2.2684  1.4920
   67MOL0     H 8837   1.735   9.205   6.848 -1.1910  0.9890  0.9078
   67MOL0     H 8838   1.650   9.293   6.598 -0.9216 -0.2278 -1.3054
   67MOL0     H 8839   1.647   9.135   6.560 -2.4134  1.9850 -0.7522
   67MOL0     H 8840   1.906   9.231   6.697 -2.5759 -0.4407  2.0009
   67MOL0     H 8841   1.907   9.109   6.576  2.0626  2.7045 -4.4734
   67MOL0     H 8842   1.962   9.411   6.295  0.3742  1.9755  0.8014
   67MOL0     H 8843   1.447   8.933   6.674 -0.1092 -0.0763  0.1564
   67MOL0     H 8844   1.228   8.848   6.690  0.2023  2.9708 -0.0554
   68MOL0     O 8845   7.426  10.293  11.283  0.6415 -0.0266 -0.6505
   68MOL0     C 8846   7.438  10.212  11.365  0.3498  0.9089 -0.0686
   68MOL0     O 8847   7.551  10.168  11.410 -0.7469 -0.5920  0.2774
   68MOL0     C 8848   7.679  10.231  11.384 -0.2964 -0.2087 -0.1062
   68MOL0     C 8849   7.798  10.158  11.402 -0.0928 -0.1461  0.7444
   68MOL0     C 8850   7.922  10.208  11.371  0.3076 -0.5028 -0.1106
   68MOL0     C 8851   7.945  10.343  11.327 -0.5280  0.3878  1.0592
   68MOL0     O 8852   8.067  10.406  11.300 -0.0530 -0.1028  0.1855
   68MOL0     C 8853   8.194  10.320  11.294 -0.2269 -0.2270  0.0973
   68MOL0     C 8854   8.299  10.408  11.248  0.2311  0.0812  0.8707
   68MOL0     C 8855   8.435  10.343  11.256 -0.4148  0.5023 -0.4513
   68MOL0     C 8856   8.545  10.438  11.205  1.3771  0.6285  0.3284
   68MOL0     C 8857   8.686  10.381  11.199  0.1741 -0.3146  0.2803
   68MOL0     C 8858   8.786  10.479  11.156  0.2055  0.0810 -0.3009
   68MOL0     C 8859   8.918  10.426  11.192 -0.3863 -0.2450 -0.1909
   68MOL0     C 8860   9.030  10.509  11.108  0.5306 -0.8452  0.4478
   68MOL0     N 8861   9.065  10.644  11.152  0.4590  0.1593  0.6195
   68MOL0     C 8862   8.975  10.756  11.144 -0.5354  0.0471 -0.0372
   68MOL0     C 8863   9.010  10.840  11.238  0.2396  0.1059  0.2578
   68MOL0     C 8864   8.946  10.972  11.275 -0.2601  0.4160  0.7026
   68MOL0     C 8865   8.796  10.962  11.298  0.4937 -0.1965  0.0937
   68MOL0     C 8866   8.780  10.865  11.418 -0.3072  0.7832 -0.9630
   68MOL0     C 8867   8.654  10.880  11.494  0.5126 -0.6657  0.3986
   68MOL0     O 8868   8.686  10.800  11.602 -0.2708 -0.0938 -0.9483
   68MOL0     C 8869   8.616  10.686  11.614  0.2333 -0.1408 -0.2193
   68MOL0     C 8870   8.499  10.684  11.703  0.8072 -0.4045  0.3498
   68MOL0     C 8871   8.420  10.575  11.716  0.6448 -0.5290 -0.9230
   68MOL0     C 8872   8.451  10.459  11.643  0.6827 -0.5069  0.0454
   68MOL0     C 8873   8.369  10.340  11.664  0.6323 -0.2235 -0.4269
   68MOL0     O 8874   8.236  10.354  11.693 -0.1843  0.1968 -0.8456
   68MOL0     C 8875   8.142  10.256  11.718 -0.3636  1.3708  0.2830
   68MOL0     C 8876   8.035  10.298  11.797 -0.1722  0.9421 -0.2943
   68MOL0     C 8877   7.934  10.202  11.816 -0.3927  0.0962 -0.1886
   68MOL0     C 8878   7.931  10.073  11.765 -0.0883  0.0682 -0.3559
   68MOL0     O 8879   7.822   9.994  11.769 -0.1204  0.1099 -0.1478
   68MOL0     C 8880   7.707  10.032  11.841 -0.0487  0.2141 -0.6871
   68MOL0     C 8881   7.587   9.955  11.779  0.3271 -0.4417 -0.6905
   68MOL0     C 8882   7.446   9.999  11.821  0.1387  0.2812 -0.1663
   68MOL0     C 8883   7.397  10.146  11.803 -0.7561 -0.2689 -0.0319
   68MOL0     C 8884   7.265  10.169  11.869  0.1978  0.3886  0.2401
   68MOL0     C 8885   7.142  10.081  11.822  0.1069  0.1301 -0.8499
   68MOL0     C 8886   7.015  10.099  11.907 -1.1078 -0.8822  0.2185
   68MOL0     C 8887   6.925  10.220  11.856 -0.4617 -0.5451 -0.3999
   68MOL0    Cl 8888   6.773  10.224  11.946 -0.0499  0.2615 -0.2951
   68MOL0     C 8889   8.048  10.030  11.698  0.1462 -0.8372 -0.1146
   68MOL0     C 8890   8.151  10.124  11.678  0.4029  0.6096 -0.1700
   68MOL0     O 8891   8.426  10.233  11.669  0.4589  0.0443  0.0748
   68MOL0     C 8892   8.565  10.452  11.558  0.3380  0.2554  0.4917
   68MOL0     C 8893   8.651  10.563  11.550 -0.7246  0.4443 -0.0096
   68MOL0     N 8894   9.133  10.805  11.282  0.1286 -0.5554  0.4351
   68MOL0     N 8895   9.165  10.681  11.241 -0.5635  0.0505 -0.1648
   68MOL0     C 8896   7.826  10.426  11.323  0.3559 -0.2111 -0.1498
   68MOL0     C 8897   7.693  10.376  11.352 -0.8658  0.3953  0.3766
   68MOL0     C 8898   7.315  10.131  11.405 -0.3879  0.2692 -0.4721
   68MOL0     C 8899   7.337  10.019  11.485  0.5813 -0.3678 -0.5818
   68MOL0     C 8900   7.241   9.916  11.494  0.6018  0.1147 -0.1271
   68MOL0     C 8901   7.110   9.942  11.438 -0.9466  0.3246 -0.4835
   68MOL0     O 8902   7.011   9.850  11.447 -0.4402 -0.1823  0.0749
   68MOL0     C 8903   7.024   9.733  11.362 -0.4416 -0.0527  0.5691
   68MOL0     C 8904   7.008   9.765  11.214 -0.3589 -0.6468 -0.0191
   68MOL0     C 8905   6.877   9.848  11.178  0.6262 -0.1494 -0.2740
   68MOL0     C 8906   6.753   9.768  11.175 -1.2938  0.1535  0.0622
   68MOL0     C 8907   6.646   9.856  11.132  0.8558 -0.1302  0.9213
   68MOL0     C 8908   6.551   9.922  11.097 -0.3434 -0.4444 -1.0650
   68MOL0     C 8909   7.080  10.065  11.383  0.5119  0.1876  0.5126
   68MOL0     C 8910   7.182  10.154  11.363  0.2570  0.3733 -0.5859
   68MOL0     H 8911   7.787  10.057  11.442 -3.0067 -0.2218 -0.0050
   68MOL0     H 8912   8.007  10.142  11.383  0.5698 -0.4598 -1.5042
   68MOL0     H 8913   8.185  10.237  11.224  2.6877  1.1354 -2.1104
   68MOL0     H 8914   8.214  10.261  11.385 -2.5511  0.0210  0.8278
   68MOL0     H 8915   8.309  10.495  11.313  0.2596  0.0082  0.9649
   68MOL0     H 8916   8.276  10.428  11.143 -2.4901 -4.1810  0.4431
   68MOL0     H 8917   8.442  10.249  11.201  1.2964  1.7186 -2.4683
   68MOL0     H 8918   8.458  10.315  11.359 -0.0106 -1.0294 -0.9205
   68MOL0     H 8919   8.524  10.474  11.104  0.2355  1.3788  0.8122
   68MOL0     H 8920   8.538  10.520  11.277 -0.7189  2.1849 -1.5430
   68MOL0     H 8921   8.689  10.308  11.117  0.2291  1.2250 -1.1316
   68MOL0     H 8922   8.709  10.338  11.297 -0.9591 -3.3347 -0.6716
   68MOL0     H 8923   8.764  10.568  11.216 -1.1174 -0.7048  0.4296
   68MOL0     H 8924   8.778  10.492  11.048  0.5343 -0.3714 -0.3824
   68MOL0     H 8925   8.932  10.423  11.301 -2.9131 -0.4685  0.1863
   68MOL0     H 8926   8.920  10.322  11.158 -0.4828  0.9490 -4.3725
   68MOL0     H 8927   9.002  10.504  11.003 -3.1141  0.7940  1.1944
   68MOL0     H 8928   9.116  10.441  11.108  0.0871 -1.4172  0.7887
   68MOL0     H 8929   8.881  10.749  11.091 -1.5224 -0.2982  1.6638
   68MOL0     H 8930   8.974  11.045  11.199  1.6843 -2.5742 -1.7152
   68MOL0     H 8931   8.998  11.010  11.363  0.5376 -1.9513  1.3485
   68MOL0     H 8932   8.749  10.935  11.203 -0.9956  2.1479  0.0810
   68MOL0     H 8933   8.750  11.052  11.341  0.4896 -0.3418  0.3972
   68MOL0     H 8934   8.780  10.764  11.375 -0.8094  1.0806 -1.6691
   68MOL0     H 8935   8.857  10.880  11.495 -0.9853  3.2522 -0.6743
   68MOL0     H 8936   8.567  10.843  11.439  0.5441  0.2069 -0.2517
   68MOL0     H 8937   8.637  10.982  11.529 -0.1221 -0.8964  0.7911
   68MOL0     H 8938   8.473  10.778  11.751 -0.1765  0.1093 -1.0989
   68MOL0     H 8939   8.335  10.587  11.782  1.9113  0.9141  0.5179
   68MOL0     H 8940   8.036  10.396  11.845 -1.6454  0.5303  0.6495
   68MOL0     H 8941   7.856  10.247  11.877  0.6715  0.9558  0.5859
   68MOL0     H 8942   7.684  10.138  11.822  0.4807  0.7403  1.3651
   68MOL0     H 8943   7.720  10.014  11.948  1.6707  0.0074 -0.9016
   68MOL0     H 8944   7.597   9.851  11.811 -2.3693 -0.9091 -1.1150
   68MOL0     H 8945   7.588   9.954  11.669  1.7224 -0.8346 -0.6952
   68MOL0     H 8946   7.433   9.988  11.929  0.4239  1.5837  0.0219
   68MOL0     H 8947   7.378   9.943  11.756 -0.8205  3.8857 -2.5972
   68MOL0     H 8948   7.459  10.215  11.861  0.9353 -0.8737 -1.0556
   68MOL0     H 8949   7.406  10.185  11.701 -0.0316 -1.6430 -0.5212
   68MOL0     H 8950   7.246  10.275  11.851  0.0729  0.6348  1.7059
   68MOL0     H 8951   7.275  10.150  11.976  1.2441  1.4469  0.3421
   68MOL0     H 8952   7.160   9.976  11.848 -2.5655 -0.0459  0.6920
   68MOL0     H 8953   7.120  10.087  11.715 -1.5334 -0.6016 -0.5841
   68MOL0     H 8954   6.947  10.014  11.902 -3.9763  1.3022 -0.9179
   68MOL0     H 8955   7.027  10.125  12.012 -2.0550  1.9083 -0.2814
   68MOL0     H 8956   6.897  10.217  11.751 -0.2754 -1.5404 -0.4327
   68MOL0     H 8957   6.987  10.308  11.878 -0.4119 -0.6452 -0.1233
   68MOL0     H 8958   8.051   9.927  11.664 -2.6611 -0.2713 -2.5110
   68MOL0     H 8959   8.232  10.111  11.607  0.7600  3.2962 -0.3453
   68MOL0     H 8960   8.593  10.353  11.522 -2.4080 -0.0754 -0.9629
   68MOL0     H 8961   8.739  10.562  11.488 -1.0170 -2.1736 -0.4678
   68MOL0     H 8962   7.845  10.530  11.299  2.5449 -0.3290  0.8878
   68MOL0     H 8963   7.604  10.437  11.343 -2.1748 -1.7326 -5.0325
   68MOL0     H 8964   7.439  10.003  11.519  1.5978  2.9690 -1.6764
   68MOL0     H 8965   7.259   9.819  11.540  2.1081  1.5022  2.4679
   68MOL0     H 8966   6.958   9.650  11.388 -2.8045  1.7092  0.5980
   68MOL0     H 8967   7.123   9.689  11.374  0.7063  2.2557  0.0867
   68MOL0     H 8968   7.096   9.823  11.183 -0.3655 -0.3401  0.5209
   68MOL0     H 8969   7.007   9.673  11.156 -0.7149 -0.4345 -0.3506
   68MOL0     H 8970   6.903   9.891  11.081  2.5726 -2.6707 -0.9793
   68MOL0     H 8971   6.864   9.920  11.259  2.7643  0.6493 -0.5526
   68MOL0     H 8972   6.761   9.692  11.097 -0.0537 -0.0215  0.3336
   68MOL0     H 8973   6.768   9.736  11.279  1.8448  0.6822 -0.1177
   68MOL0     H 8974   6.462   9.966  11.055  0.3652 -0.6402 -2.8315
   68MOL0     H 8975   6.981  10.080  11.340 -0.0044 -0.5112  1.4130
   68MOL0     H 8976   7.148  10.236  11.300 -0.2721 -0.7725 -1.8437
   69MOL0     O 8977  10.556   7.330   8.925  0.1415 -0.0644  0.5869
   69MOL0     C 8978  10.519   7.433   8.868 -0.0333 -0.0516  0.8119
   69MOL0     O 8979  10.580   7.548   8.861  0.0678 -0.3049 -0.4958
   69MOL0     C 8980  10.697   7.564   8.931  0.2496  0.2115 -0.4089
   69MOL0     C 8981  10.722   7.589   9.072  0.0883  0.7124  0.4306
   69MOL0     C 8982  10.855   7.620   9.120 -0.2800 -0.1030  0.0362
   69MOL0     C 8983  10.964   7.615   9.039  0.2025  0.2325  0.2891
   69MOL0     O 8984  11.096   7.625   9.087  0.6206 -0.1401 -0.2359
   69MOL0     C 8985  11.124   7.686   9.212 -0.2209  0.1625 -0.6875
   69MOL0     C 8986  11.277   7.709   9.222  0.4818  0.0457  0.1629
   69MOL0     C 8987  11.365   7.584   9.211 -1.5981  0.1629 -0.0400
   69MOL0     C 8988  11.511   7.614   9.230  0.4220 -0.3597  0.5429
   69MOL0     C 8989  11.597   7.492   9.229  0.6920  0.2780 -0.4164
   69MOL0     C 8990  11.745   7.534   9.214 -0.8883 -0.1850 -0.1041
   69MOL0     C 8991  11.771   7.554   9.059 -0.0449  0.3051  0.9077
   69MOL0     C 8992  11.915   7.565   9.011  1.1007  0.2267 -0.3511
   69MOL0     N 8993  11.920   7.588   8.869 -0.0942  0.1698  0.2571
   69MOL0     C 8994  11.954   7.490   8.782 -0.2392  0.2094 -0.2023
   69MOL0     C 8995  11.957   7.546   8.665  0.4684 -0.2761  0.3122
   69MOL0     C 8996  11.984   7.467   8.537 -0.2844 -0.0162 -0.8221
   69MOL0     C 8997  12.078   7.352   8.537 -0.6681  0.6106  0.1562
   69MOL0     C 8998  12.230   7.377   8.560 -0.2345  0.6015 -0.5287
   69MOL0     C 8999  12.317   7.250   8.570 -0.1204  0.4754 -0.7017
   69MOL0     O 9000  12.263   7.162   8.678 -0.2131 -0.3846 -0.2033
   69MOL0     C 9001  12.323   7.049   8.724 -0.2929  0.7271 -0.5391
   69MOL0     C 9002  12.459   7.029   8.724 -0.5377 -0.3651  0.4705
   69MOL0     C 9003  12.519   6.908   8.772 -0.7012 -0.3019  0.6608
   69MOL0     C 9004  12.436   6.805   8.812 -0.2544 -0.0265  0.3079
   69MOL0     C 9005  12.489   6.672   8.848  0.2139 -0.0100  0.5066
   69MOL0     O 9006  12.414   6.579   8.909 -0.2619  0.1311  0.1216
   69MOL0     C 9007  12.471   6.472   8.972 -0.9039 -0.6041  0.4708
   69MOL0     C 9008  12.377   6.371   8.989  0.3521  0.2424  0.4025
   69MOL0     C 9009  12.410   6.262   9.072  0.6843 -0.8867  0.4239
   69MOL0     C 9010  12.541   6.249   9.107  0.0044  0.8729  0.0884
   69MOL0     O 9011  12.577   6.131   9.171 -0.2393 -0.5312 -0.3383
   69MOL0     C 9012  12.540   6.005   9.116  1.5194 -0.1025 -0.2683
   69MOL0     C 9013  12.641   5.901   9.145 -0.5514  0.2026 -0.9226
   69MOL0     C 9014  12.609   5.767   9.069  0.1881 -1.0634 -0.3929
   69MOL0     C 9015  12.480   5.701   9.116 -0.2164 -0.2894 -0.2918
   69MOL0     C 9016  12.474   5.684   9.267 -0.9020  0.1741  0.3772
   69MOL0     C 9017  12.378   5.561   9.311  0.6999  0.1744 -1.5036
   69MOL0     C 9018  12.380   5.523   9.461  0.6864  0.5283 -0.6347
   69MOL0     C 9019  12.504   5.452   9.515  0.3821  0.1295 -0.2690
   69MOL0    Cl 9020  12.467   5.343   9.660  0.0688  0.6393  0.1772
   69MOL0     C 9021  12.637   6.348   9.085  0.5503 -0.8570 -0.6313
   69MOL0     C 9022  12.603   6.467   9.012 -0.5675 -0.0093 -0.6990
   69MOL0     O 9023  12.609   6.661   8.813  0.2618  0.4867  0.2684
   69MOL0     C 9024  12.298   6.826   8.820 -0.6006 -0.0397  0.8708
   69MOL0     C 9025  12.245   6.949   8.775  0.4314 -0.4504  0.3090
   69MOL0     N 9026  11.911   7.679   8.682 -0.1620  0.2190  0.9455
   69MOL0     N 9027  11.890   7.700   8.807 -0.8031 -1.1157  1.0732
   69MOL0     C 9028  10.943   7.588   8.900 -0.0418  0.1526 -0.8686
   69MOL0     C 9029  10.811   7.572   8.855 -0.8192 -0.6843  0.3663
   69MOL0     C 9030  10.392   7.423   8.797 -0.2235 -0.2962  0.2378
   69MOL0     C 9031  10.321   7.545   8.755 -0.3661  0.4841 -0.8909
   69MOL0     C 9032  10.189   7.537   8.711  0.2715  0.2327  0.3850
   69MOL0     C 9033  10.115   7.422   8.699 -0.6752 -0.3163 -0.0244
   69MOL0     O 9034   9.994   7.434   8.638 -0.1766 -0.0497  0.5168
   69MOL0     C 9035   9.922   7.313   8.606  0.9238 -0.1447  1.1840
   69MOL0     C 9036   9.806   7.344   8.508  0.0728 -0.6915 -0.3419
   69MOL0     C 9037   9.684   7.400   8.583 -0.0721 -0.2251  0.2491
   69MOL0     C 9038   9.561   7.409   8.495  0.3855  0.2321 -0.2833
   69MOL0     C 9039   9.462   7.480   8.569  0.6032 -0.2489  0.0543
   69MOL0     C 9040   9.403   7.554   8.647 -0.5909 -0.1214  0.3164
   69MOL0     C 9041  10.185   7.304   8.731  0.8063  0.0529  0.7272
   69MOL0     C 9042  10.317   7.301   8.787  0.0399  0.3246  0.5876
   69MOL0     H 9043  10.644   7.584   9.147 -0.1009 -2.2384  0.1395
   69MOL0     H 9044  10.874   7.613   9.227  0.1252 -0.2549 -0.0429
   69MOL0     H 9045  11.088   7.634   9.302  0.8039 -0.0684 -0.3974
   69MOL0     H 9046  11.085   7.788   9.207 -0.8124 -0.0552 -0.6113
   69MOL0     H 9047  11.299   7.762   9.314  0.7502 -2.5820  1.7029
   69MOL0     H 9048  11.320   7.778   9.149 -1.6209  3.0843  1.6133
   69MOL0     H 9049  11.347   7.540   9.113 -1.5090 -1.1093  0.4957
   69MOL0     H 9050  11.347   7.511   9.290 -1.7337  1.0651  0.7868
   69MOL0     H 9051  11.527   7.681   9.145  0.8539  1.0548  1.6831
   69MOL0     H 9052  11.523   7.672   9.322 -1.6974  0.0867  0.5833
   69MOL0     H 9053  11.558   7.417   9.159 -3.3290  0.3054  1.5512
   69MOL0     H 9054  11.590   7.440   9.325  0.4507  0.4679 -0.3316
   69MOL0     H 9055  11.812   7.453   9.244  0.6926  0.9733 -0.3725
   69MOL0     H 9056  11.776   7.617   9.278  0.8436 -0.8559 -0.0247
   69MOL0     H 9057  11.731   7.471   9.000 -0.1789  1.3070 -0.4285
   69MOL0     H 9058  11.732   7.651   9.029  2.4941  0.5256 -2.1227
   69MOL0     H 9059  11.980   7.481   9.038 -1.5070 -1.4809  1.1009
   69MOL0     H 9060  11.961   7.650   9.062 -0.7343  0.3993  1.1184
   69MOL0     H 9061  11.972   7.388   8.815  0.7688 -0.3969 -2.4595
   69MOL0     H 9062  12.015   7.532   8.455  0.2330  0.7977  0.0008
   69MOL0     H 9063  11.884   7.437   8.504 -0.7352  2.1399 -1.6181
   69MOL0     H 9064  12.077   7.318   8.433 -1.8887 -0.5552  0.5256
   69MOL0     H 9065  12.032   7.286   8.610 -1.4344  2.9227  1.8739
   69MOL0     H 9066  12.263   7.442   8.478  1.4113  0.9946  0.3936
   69MOL0     H 9067  12.244   7.432   8.654 -0.2043 -0.3991  0.0700
   69MOL0     H 9068  12.423   7.268   8.591  0.6772 -4.9598  1.6297
   69MOL0     H 9069  12.315   7.196   8.474  5.4810 -0.6222 -0.5614
   69MOL0     H 9070  12.527   7.111   8.703 -0.4912  0.3275  3.0090
   69MOL0     H 9071  12.625   6.888   8.763 -0.6972  0.3414 -1.1521
   69MOL0     H 9072  12.275   6.367   8.951  0.6590 -0.1055 -0.4121
   69MOL0     H 9073  12.341   6.184   9.102 -4.6930  2.3168 -2.2325
   69MOL0     H 9074  12.527   6.012   9.007  0.3814 -2.2548 -0.3083
   69MOL0     H 9075  12.444   5.981   9.162  0.8088  1.1614 -1.0291
   69MOL0     H 9076  12.644   5.898   9.254  1.3620  3.3744 -0.7528
   69MOL0     H 9077  12.737   5.941   9.110 -0.1405 -0.6448 -0.7953
   69MOL0     H 9078  12.693   5.699   9.085 -1.4657 -2.5176  3.0179
   69MOL0     H 9079  12.608   5.797   8.963  0.4427  1.7843  0.3189
   69MOL0     H 9080  12.396   5.751   9.067  1.9463  2.0640 -1.8198
   69MOL0     H 9081  12.491   5.598   9.080  2.5910 -0.9640  2.1292
   69MOL0     H 9082  12.435   5.775   9.313  0.0207  1.2074 -0.7901
   69MOL0     H 9083  12.576   5.668   9.305  0.5499 -1.0264 -3.4663
   69MOL0     H 9084  12.404   5.468   9.260  0.0759 -0.3990 -0.8053
   69MOL0     H 9085  12.274   5.585   9.286  0.5625  0.1777 -0.9519
   69MOL0     H 9086  12.362   5.608   9.527  1.2657  0.3525 -0.2456
   69MOL0     H 9087  12.296   5.453   9.474  1.1826 -0.2710 -1.5662
   69MOL0     H 9088  12.566   5.536   9.549 -2.0846  1.4248  1.4767
   69MOL0     H 9089  12.538   5.394   9.429 -2.6742 -2.1893 -0.0837
   69MOL0     H 9090  12.737   6.338   9.126  0.8624  0.1159 -1.1168
   69MOL0     H 9091  12.676   6.547   9.005  0.7926 -1.2475 -1.1947
   69MOL0     H 9092  12.234   6.747   8.858 -1.9278  0.7006  0.2608
   69MOL0     H 9093  12.138   6.969   8.779 -0.0253 -2.1725 -1.5408
   69MOL0     H 9094  11.028   7.577   8.834  1.6122  1.1420  1.0034
   69MOL0     H 9095  10.797   7.559   8.748 -0.6360  1.0077  0.1225
   69MOL0     H 9096  10.350   7.648   8.768 -1.9397  0.7360  1.1785
   69MOL0     H 9097  10.139   7.626   8.672  0.2137  0.4197  0.8848
   69MOL0     H 9098   9.872   7.284   8.699  0.1267 -2.1441  0.1803
   69MOL0     H 9099   9.977   7.222   8.583 -0.2762 -0.2441 -1.7066
   69MOL0     H 9100   9.841   7.425   8.442 -2.2815  1.7178  1.1428
   69MOL0     H 9101   9.797   7.255   8.445  3.1181 -0.7762 -0.7962
   69MOL0     H 9102   9.716   7.500   8.614 -2.2292  1.1664 -1.6657
   69MOL0     H 9103   9.668   7.335   8.669 -2.5106  1.2678  0.9953
   69MOL0     H 9104   9.581   7.464   8.402 -0.7206  2.1249  0.5437
   69MOL0     H 9105   9.524   7.310   8.466  0.4023 -0.3138  1.4321
   69MOL0     H 9106   9.353   7.624   8.711  0.4537 -0.9384  2.1095
   69MOL0     H 9107  10.138   7.210   8.700 -1.7001  0.8100  1.9160
   69MOL0     H 9108  10.363   7.209   8.821  2.4635  1.6774  1.1970
   70MOL0     O 9109   2.841   6.233   3.783  0.3600  0.7584 -0.7945
   70MOL0     C 9110   2.863   6.265   3.668  0.0379 -0.4924 -0.2053
   70MOL0     O 9111   2.777   6.278   3.564 -0.0615 -0.5086 -0.4279
   70MOL0     C 9112   2.651   6.222   3.557  0.8647  0.4817 -0.0481
   70MOL0     C 9113   2.612   6.104   3.626 -0.2331  0.2881 -0.0801
   70MOL0     C 9114   2.489   6.038   3.607  0.6616  0.1827  0.6440
   70MOL0     C 9115   2.390   6.094   3.525 -0.9661 -1.2198  0.2410
   70MOL0     O 9116   2.268   6.045   3.538  0.4103  0.4994  0.4425
   70MOL0     C 9117   2.196   6.026   3.419  0.0148  0.5605  0.1028
   70MOL0     C 9118   2.090   5.914   3.431 -0.5531 -0.0527  0.1142
   70MOL0     C 9119   2.018   5.892   3.304  0.4590 -0.3984  0.7139
   70MOL0     C 9120   1.902   5.986   3.278 -0.0488  0.2270  0.5524
   70MOL0     C 9121   1.819   5.953   3.154 -0.4535  0.9539  0.5226
   70MOL0     C 9122   1.716   6.062   3.132  0.1591 -0.6096  0.4161
   70MOL0     C 9123   1.605   6.013   3.037  0.4168 -0.7183 -0.3128
   70MOL0     C 9124   1.497   6.117   2.998  0.0974 -0.6015  0.1483
   70MOL0     N 9125   1.422   6.178   3.114 -0.2091 -0.4894  0.3343
   70MOL0     C 9126   1.367   6.311   3.119  0.0661  0.1980  0.1272
   70MOL0     C 9127   1.341   6.334   3.246 -0.9048  0.0318  0.6351
   70MOL0     C 9128   1.291   6.459   3.298  0.7292 -0.5255  0.3139
   70MOL0     C 9129   1.140   6.436   3.335 -0.2015 -0.2777  0.7443
   70MOL0     C 9130   1.061   6.560   3.360  0.6308  0.1500 -0.0104
   70MOL0     C 9131   0.926   6.534   3.431 -0.1777  0.4083  0.4029
   70MOL0     O 9132   0.861   6.430   3.355 -0.3468  0.1278  0.2100
   70MOL0     C 9133   0.734   6.393   3.395 -0.3633 -0.2623 -0.0091
   70MOL0     C 9134   0.671   6.289   3.320  0.3441  0.6094 -0.2416
   70MOL0     C 9135   0.547   6.235   3.356  0.6574  0.1853 -0.1964
   70MOL0     C 9136   0.477   6.271   3.473  0.4702 -0.5351 -1.6219
   70MOL0     C 9137   0.343   6.227   3.516  0.1087 -0.1930  0.7702
   70MOL0     O 9138   0.288   6.288   3.628 -0.1302  0.0519  0.0284
   70MOL0     C 9139   0.151   6.282   3.663 -0.1422 -0.5802 -0.6012
   70MOL0     C 9140   0.046   6.343   3.586  0.3350  0.0117  0.1797
   70MOL0     C 9141  -0.090   6.339   3.642 -0.0952  0.4354  0.2071
   70MOL0     C 9142  -0.119   6.284   3.767  0.0402  0.3688 -0.1920
   70MOL0     O 9143  -0.249   6.272   3.810 -0.2093 -0.8963 -0.2601
   70MOL0     C 9144  -0.276   6.380   3.908  0.5944  0.9351  0.3635
   70MOL0     C 9145  -0.421   6.396   3.906  0.4383  0.3132 -0.2930
   70MOL0     C 9146  -0.487   6.496   3.989 -0.1943  0.3466 -0.1531
   70MOL0     C 9147  -0.634   6.528   3.951 -0.0021  0.9941  0.4659
   70MOL0     C 9148  -0.698   6.629   4.045 -0.2229 -0.3234 -0.0472
   70MOL0     C 9149  -0.841   6.651   4.007 -0.5859  0.9017 -0.0313
   70MOL0     C 9150  -0.912   6.757   4.084  0.2441 -0.0923  0.5326
   70MOL0     C 9151  -1.064   6.782   4.064  0.4698 -0.4597 -0.5234
   70MOL0    Cl 9152  -1.171   6.640   4.094 -0.4301 -0.5390 -0.3280
   70MOL0     C 9153  -0.018   6.242   3.854  0.0893  0.5295  0.1909
   70MOL0     C 9154   0.110   6.239   3.794  0.5267  0.2190 -0.2065
   70MOL0     O 9155   0.287   6.141   3.441  0.2914 -0.6826 -0.5789
   70MOL0     C 9156   0.537   6.383   3.543 -0.4296  0.9195 -0.0785
   70MOL0     C 9157   0.662   6.443   3.513  0.5375  0.2013  1.0571
   70MOL0     N 9158   1.374   6.217   3.317 -0.5977 -0.6218 -0.0348
   70MOL0     N 9159   1.420   6.121   3.239  0.6942  0.0220  0.1170
   70MOL0     C 9160   2.427   6.213   3.449 -0.1363  0.5409  0.0407
   70MOL0     C 9161   2.559   6.266   3.459  0.8812  0.2210  0.5994
   70MOL0     C 9162   3.002   6.308   3.648 -1.0337 -0.2452 -0.2724
   70MOL0     C 9163   3.103   6.282   3.736  0.3430 -0.1413 -0.0029
   70MOL0     C 9164   3.234   6.328   3.718  0.4228  0.1971 -0.0661
   70MOL0     C 9165   3.266   6.383   3.598 -0.1506 -0.8862 -0.1233
   70MOL0     O 9166   3.395   6.429   3.577 -0.1487 -0.3333 -0.8723
   70MOL0     C 9167   3.438   6.460   3.441 -0.1096 -0.4728 -0.4558
   70MOL0     C 9168   3.588   6.500   3.441 -0.5293  0.5603  0.3864
   70MOL0     C 9169   3.604   6.638   3.501 -0.0530 -0.0596 -0.5533
   70MOL0     C 9170   3.750   6.662   3.553  0.4870  0.4520 -0.4349
   70MOL0     C 9171   3.852   6.671   3.440  0.3214 -0.0939 -0.2486
   70MOL0     C 9172   3.931   6.689   3.353 -0.5786 -0.2099 -0.3000
   70MOL0     C 9173   3.168   6.424   3.509  0.3094 -0.0597 -0.3646
   70MOL0     C 9174   3.040   6.389   3.532  0.7432  0.5747  0.4602
   70MOL0     H 9175   2.675   6.062   3.704 -0.0175  0.4350 -0.1703
   70MOL0     H 9176   2.453   5.948   3.657 -0.1209  0.8587  1.3434
   70MOL0     H 9177   2.251   6.014   3.326 -1.2368 -0.1793 -0.5698
   70MOL0     H 9178   2.143   6.121   3.409  3.0584  2.1969 -2.1943
   70MOL0     H 9179   2.023   5.933   3.516  1.4191 -0.1322  1.7569
   70MOL0     H 9180   2.140   5.824   3.468  0.9033  0.9508  0.6668
   70MOL0     H 9181   1.980   5.790   3.313  0.2048 -0.4304 -0.6338
   70MOL0     H 9182   2.082   5.890   3.216 -1.5194  1.6965 -0.8760
   70MOL0     H 9183   1.842   5.988   3.370 -0.3546  0.4265  0.3504
   70MOL0     H 9184   1.926   6.091   3.257 -4.4441  0.7460 -3.8571
   70MOL0     H 9185   1.772   5.855   3.166  0.7881  0.1916 -0.5707
   70MOL0     H 9186   1.892   5.957   3.072  0.3312  1.6588  1.2414
   70MOL0     H 9187   1.760   6.156   3.100 -3.4146  0.9493 -0.3772
   70MOL0     H 9188   1.674   6.091   3.229 -0.5336 -2.1263  0.5955
   70MOL0     H 9189   1.648   5.982   2.941  0.5915 -0.1193 -0.4273
   70MOL0     H 9190   1.557   5.927   3.086 -1.4320  0.2454 -0.3390
   70MOL0     H 9191   1.411   6.065   2.955 -1.6228 -0.0359  2.6571
   70MOL0     H 9192   1.538   6.189   2.927 -1.8955  0.0454 -0.4223
   70MOL0     H 9193   1.357   6.379   3.035 -0.0125 -0.4890 -0.4289
   70MOL0     H 9194   1.286   6.544   3.230 -2.5259 -0.0135  1.0161
   70MOL0     H 9195   1.347   6.494   3.386 -0.6280  1.4072  0.4718
   70MOL0     H 9196   1.139   6.368   3.421 -3.3079  1.4488  2.2539
   70MOL0     H 9197   1.092   6.389   3.249  0.5394 -0.9201  0.6713
   70MOL0     H 9198   1.117   6.633   3.419  0.8679  0.1064 -0.1832
   70MOL0     H 9199   1.046   6.620   3.270  5.3440  2.7426  0.6211
   70MOL0     H 9200   0.870   6.628   3.430  1.3091  1.3384 -0.8759
   70MOL0     H 9201   0.957   6.494   3.527  4.2908 -5.6146 -2.8387
   70MOL0     H 9202   0.703   6.257   3.221  0.1462  1.4429 -0.5927
   70MOL0     H 9203   0.496   6.171   3.285  1.3297 -0.7478  0.1421
   70MOL0     H 9204   0.063   6.379   3.485  0.4102 -0.5530 -0.0152
   70MOL0     H 9205  -0.167   6.392   3.588 -0.2574  1.6079  1.5337
   70MOL0     H 9206  -0.226   6.472   3.877 -1.0807  2.1273  1.0993
   70MOL0     H 9207  -0.235   6.364   4.008 -0.4248 -0.3301  0.5982
   70MOL0     H 9208  -0.475   6.301   3.915 -0.1137  0.8091  2.6811
   70MOL0     H 9209  -0.445   6.426   3.803  1.7506  2.3298 -0.0629
   70MOL0     H 9210  -0.427   6.588   3.989  0.8528 -0.2690  1.9795
   70MOL0     H 9211  -0.481   6.454   4.090  2.7375  2.7329  0.8342
   70MOL0     H 9212  -0.627   6.575   3.853 -0.2816  2.4140  1.0980
   70MOL0     H 9213  -0.689   6.434   3.948 -0.7525  1.4418 -0.6673
   70MOL0     H 9214  -0.639   6.717   4.018  0.4360 -0.6887  0.1832
   70MOL0     H 9215  -0.678   6.601   4.148 -2.9587  0.8662  0.8970
   70MOL0     H 9216  -0.901   6.560   4.019  1.3928 -0.3893  0.5847
   70MOL0     H 9217  -0.849   6.679   3.901 -0.3401 -1.2481 -0.6787
   70MOL0     H 9218  -0.906   6.729   4.189 -1.8898 -2.6005  0.0715
   70MOL0     H 9219  -0.861   6.853   4.069 -2.2657  1.1368 -0.8144
   70MOL0     H 9220  -1.081   6.831   3.968  0.6041  2.1589  0.7052
   70MOL0     H 9221  -1.085   6.863   4.134 -0.3084  0.4274 -1.7587
   70MOL0     H 9222  -0.042   6.223   3.958 -2.2393 -0.4831 -0.4626
   70MOL0     H 9223   0.191   6.205   3.858  0.2244  1.8564  1.1112
   70MOL0     H 9224   0.484   6.433   3.623 -0.0273  3.1198 -1.1304
   70MOL0     H 9225   0.687   6.531   3.572 -0.4340  1.5208 -0.4101
   70MOL0     H 9226   2.357   6.257   3.379 -0.5911 -0.6260 -0.2659
   70MOL0     H 9227   2.583   6.343   3.386  1.8896 -2.2363 -1.8485
   70MOL0     H 9228   3.080   6.235   3.831 -1.3326  0.8262  0.1215
   70MOL0     H 9229   3.299   6.332   3.805  1.3001  0.1656 -0.7047
   70MOL0     H 9230   3.387   6.546   3.395  0.3596  0.0092 -0.0751
   70MOL0     H 9231   3.430   6.366   3.385 -1.3639 -0.2278 -0.7304
   70MOL0     H 9232   3.649   6.426   3.494 -1.5490 -3.1419 -3.1206
   70MOL0     H 9233   3.635   6.498   3.342 -1.6629 -3.0459 -0.1969
   70MOL0     H 9234   3.540   6.637   3.590  4.3750 -0.1501  3.0058
   70MOL0     H 9235   3.570   6.722   3.440  0.9401  0.8441  0.0968
   70MOL0     H 9236   3.747   6.756   3.609 -3.4780  0.1371  0.1020
   70MOL0     H 9237   3.762   6.584   3.628 -2.0108 -0.6038 -1.0712
   70MOL0     H 9238   3.988   6.699   3.263  0.6891 -0.7063  0.4201
   70MOL0     H 9239   3.177   6.491   3.424 -1.0814  1.8362  0.9018
   70MOL0     H 9240   2.958   6.410   3.464 -1.4416 -2.8554  1.7682
   71MOL0     O 9241   5.876   7.147   7.571 -0.3148  0.1829  0.0174
   71MOL0     C 9242   5.880   7.133   7.448 -0.4110 -0.1318  0.3620
   71MOL0     O 9243   5.781   7.145   7.364  0.2565 -0.8478  0.0604
   71MOL0     C 9244   5.656   7.169   7.422  0.4634  0.3703  0.5900
   71MOL0     C 9245   5.575   7.073   7.481  0.4975 -0.0731 -0.5662
   71MOL0     C 9246   5.444   7.110   7.528 -0.2874  0.4590 -0.0512
   71MOL0     C 9247   5.396   7.238   7.509  0.0695 -0.4035  0.0677
   71MOL0     O 9248   5.274   7.270   7.563 -0.0166 -0.0748 -0.1314
   71MOL0     C 9249   5.222   7.401   7.569 -0.0977 -0.3589 -0.3127
   71MOL0     C 9250   5.067   7.393   7.581  1.4190  0.0247 -0.3636
   71MOL0     C 9251   4.996   7.303   7.488 -0.6340 -0.2570  0.0125
   71MOL0     C 9252   5.006   7.363   7.348 -0.4989  0.0999  0.1984
   71MOL0     C 9253   4.902   7.293   7.257  0.4833 -0.4572 -0.2398
   71MOL0     C 9254   4.918   7.338   7.116  0.4449 -0.2738 -0.5586
   71MOL0     C 9255   4.863   7.233   7.014  0.5764 -0.4622  0.0892
   71MOL0     C 9256   4.709   7.244   6.998  0.2730  1.0042 -0.2488
   71MOL0     N 9257   4.657   7.131   6.910 -0.5531 -0.4868  0.2538
   71MOL0     C 9258   4.535   7.076   6.920 -0.2571  0.2917 -1.0205
   71MOL0     C 9259   4.525   6.979   6.823  0.4703 -0.8327 -0.5481
   71MOL0     C 9260   4.412   6.875   6.793  0.1258 -0.6523  0.0135
   71MOL0     C 9261   4.313   6.851   6.905  0.3721  0.2401 -0.1645
   71MOL0     C 9262   4.187   6.769   6.859 -0.0134 -0.0878  0.3578
   71MOL0     C 9263   4.066   6.787   6.945  0.4494  0.0298 -0.5854
   71MOL0     O 9264   3.994   6.906   6.902  1.0075  0.5994 -0.3714
   71MOL0     C 9265   3.870   6.924   6.952 -0.4290  0.8392 -1.0590
   71MOL0     C 9266   3.831   6.864   7.072  0.4406 -0.0908  0.0339
   71MOL0     C 9267   3.700   6.892   7.110 -0.3242  0.5623 -0.5088
   71MOL0     C 9268   3.607   6.984   7.045 -0.6223  1.2615 -0.0431
   71MOL0     C 9269   3.476   7.019   7.105  0.2927  0.1160  0.5504
   71MOL0     O 9270   3.422   6.946   7.216  0.1072  0.0295  0.1148
   71MOL0     C 9271   3.305   6.985   7.281 -0.1000  0.7272 -0.3652
   71MOL0     C 9272   3.186   6.995   7.209  0.9645 -0.4174 -0.3930
   71MOL0     C 9273   3.067   7.033   7.277 -0.7083 -0.2619  0.4639
   71MOL0     C 9274   3.064   7.053   7.412  0.4914 -0.2943  0.0130
   71MOL0     O 9275   2.945   7.082   7.473  0.1847 -0.9439 -0.3568
   71MOL0     C 9276   2.853   7.162   7.400  0.1774 -1.0113 -0.4800
   71MOL0     C 9277   2.777   7.253   7.491 -0.5244  0.4022  0.2678
   71MOL0     C 9278   2.689   7.363   7.423  0.5747  0.1659  1.0730
   71MOL0     C 9279   2.577   7.300   7.338  0.2025  0.0028 -0.4135
   71MOL0     C 9280   2.494   7.414   7.293 -0.4617  0.2469  0.2791
   71MOL0     C 9281   2.393   7.365   7.195  0.1340 -0.7225 -0.4654
   71MOL0     C 9282   2.307   7.262   7.264  0.4028 -0.4450 -0.7225
   71MOL0     C 9283   2.164   7.267   7.203  0.1368 -0.7398  0.6707
   71MOL0    Cl 9284   2.059   7.160   7.291  0.4411  0.4123  0.1113
   71MOL0     C 9285   3.186   7.031   7.477  0.1238 -0.0618 -0.2368
   71MOL0     C 9286   3.311   7.002   7.416  0.0756 -0.2111  0.0801
   71MOL0     O 9287   3.431   7.121   7.060 -0.5788 -0.3870  0.0152
   71MOL0     C 9288   3.652   7.046   6.933 -0.2332  0.3931  1.2530
   71MOL0     C 9289   3.784   7.015   6.887 -1.6193 -0.8461 -0.1325
   71MOL0     N 9290   4.648   6.979   6.765 -0.6905  0.6206  0.3571
   71MOL0     N 9291   4.730   7.069   6.810  0.4714  0.3936 -0.5757
   71MOL0     C 9292   5.481   7.332   7.449  0.0509 -1.0831 -0.4347
   71MOL0     C 9293   5.610   7.294   7.411 -0.3272  0.1257  0.3619
   71MOL0     C 9294   6.011   7.096   7.386 -0.1163 -1.0703  0.7709
   71MOL0     C 9295   6.124   7.097   7.472 -0.7919 -0.0379  0.1774
   71MOL0     C 9296   6.254   7.074   7.418 -0.0467  0.5047 -0.9281
   71MOL0     C 9297   6.275   7.058   7.282 -0.0050  0.1790  0.1778
   71MOL0     O 9298   6.393   7.028   7.219 -0.2594 -0.0625  0.0953
   71MOL0     C 9299   6.511   7.012   7.292  0.1118  0.2380 -0.0451
   71MOL0     C 9300   6.625   7.013   7.204 -0.6453 -0.2746  1.1616
   71MOL0     C 9301   6.737   6.939   7.275 -0.6217  0.1753  1.2239
   71MOL0     C 9302   6.880   6.955   7.210  0.3062  0.5301 -0.3666
   71MOL0     C 9303   6.973   6.857   7.270  0.2049  0.3308  0.9165
   71MOL0     C 9304   7.048   6.774   7.326 -0.3532 -0.5307 -0.0152
   71MOL0     C 9305   6.166   7.074   7.198 -0.2869  0.0595  0.2454
   71MOL0     C 9306   6.037   7.078   7.250  0.6246 -0.5280  0.0206
   71MOL0     H 9307   5.629   6.984   7.511  0.4324  0.8604  2.7357
   71MOL0     H 9308   5.376   7.044   7.580 -0.2414 -0.5471 -1.2267
   71MOL0     H 9309   5.246   7.449   7.473  2.4554 -0.4902  0.2027
   71MOL0     H 9310   5.259   7.466   7.648  0.0647 -2.6241  1.5750
   71MOL0     H 9311   5.014   7.488   7.565  0.1269 -0.5660  0.2156
   71MOL0     H 9312   5.048   7.362   7.684 -1.5422 -0.0092 -0.8172
   71MOL0     H 9313   4.891   7.295   7.515 -0.1200  0.0529  2.3593
   71MOL0     H 9314   5.048   7.207   7.487 -1.5410 -0.7632 -2.1415
   71MOL0     H 9315   4.969   7.466   7.353 -2.2246 -0.4870  0.3742
   71MOL0     H 9316   5.107   7.359   7.307 -0.1426 -1.8223  1.1854
   71MOL0     H 9317   4.798   7.315   7.286  1.0181  1.3061  0.5080
   71MOL0     H 9318   4.923   7.186   7.256 -4.2242 -1.5932 -0.4789
   71MOL0     H 9319   5.024   7.335   7.089  0.0563  1.2249 -2.4268
   71MOL0     H 9320   4.893   7.441   7.092  2.0419  0.6016  1.2540
   71MOL0     H 9321   4.905   7.243   6.913 -1.6849 -0.1073 -0.8878
   71MOL0     H 9322   4.889   7.131   7.046  2.1150  0.1520  0.9006
   71MOL0     H 9323   4.680   7.338   6.949 -2.3945  1.4192  1.8670
   71MOL0     H 9324   4.659   7.234   7.094 -0.1203 -2.8946 -0.6991
   71MOL0     H 9325   4.451   7.113   6.977 -1.5062  0.5114 -2.9070
   71MOL0     H 9326   4.462   6.781   6.770  0.9218 -0.6772  1.7191
   71MOL0     H 9327   4.364   6.935   6.715  0.5667  2.8045  2.1497
   71MOL0     H 9328   4.279   6.950   6.938 -0.9081 -0.1967 -0.1264
   71MOL0     H 9329   4.353   6.794   6.990 -2.7782  0.9641  1.9725
   71MOL0     H 9330   4.169   6.806   6.758  0.8313  0.3363  0.3530
   71MOL0     H 9331   4.212   6.662   6.863 -0.8493 -0.3173 -0.2102
   71MOL0     H 9332   4.083   6.807   7.051 -1.3702  3.0784 -0.7642
   71MOL0     H 9333   4.003   6.698   6.933  3.1115 -1.7402 -2.5777
   71MOL0     H 9334   3.887   6.787   7.125  2.4553  1.0715 -0.3034
   71MOL0     H 9335   3.667   6.832   7.195  0.9486  0.6136  0.0389
   71MOL0     H 9336   3.182   6.991   7.101  1.5689 -0.2340 -0.4240
   71MOL0     H 9337   2.984   7.052   7.210  1.7513  0.1443 -2.7009
   71MOL0     H 9338   2.782   7.103   7.340 -2.2637  1.7413 -0.5169
   71MOL0     H 9339   2.904   7.233   7.335  0.6633  0.2512  1.2291
   71MOL0     H 9340   2.844   7.298   7.564 -1.3733  4.9765 -1.4057
   71MOL0     H 9341   2.713   7.184   7.547 -0.9270 -1.0782 -1.8728
   71MOL0     H 9342   2.753   7.417   7.352  0.2501 -0.0430  0.6149
   71MOL0     H 9343   2.649   7.426   7.503  0.4234  1.8745 -0.2885
   71MOL0     H 9344   2.619   7.244   7.254 -0.1202  3.3359 -3.0502
   71MOL0     H 9345   2.514   7.240   7.404 -0.5053  3.1456  2.0443
   71MOL0     H 9346   2.560   7.491   7.251  0.0963 -0.0737  0.5706
   71MOL0     H 9347   2.447   7.463   7.379 -0.0520 -2.0067  1.8817
   71MOL0     H 9348   2.453   7.315   7.119  1.1612  0.1352 -0.2310
   71MOL0     H 9349   2.337   7.450   7.156  1.5672  1.1677  1.3848
   71MOL0     H 9350   2.348   7.161   7.264  1.1588 -0.2336  2.1964
   71MOL0     H 9351   2.300   7.291   7.370  0.2568 -1.1543 -0.5351
   71MOL0     H 9352   2.164   7.227   7.101 -1.0960  0.7137  0.0659
   71MOL0     H 9353   2.124   7.369   7.199 -0.9356 -1.1562  0.4288
   71MOL0     H 9354   3.193   7.037   7.586 -2.4035 -1.3138  0.0630
   71MOL0     H 9355   3.405   6.993   7.470  1.1546 -3.0093 -1.9995
   71MOL0     H 9356   3.601   7.123   6.875 -1.6504 -1.3599  0.0567
   71MOL0     H 9357   3.816   7.083   6.809 -1.2103 -0.6315  0.2194
   71MOL0     H 9358   5.448   7.435   7.441 -1.6317 -1.5896 -0.2684
   71MOL0     H 9359   5.662   7.373   7.359  1.1604 -1.9440 -1.4779
   71MOL0     H 9360   6.130   7.109   7.580 -0.9882  0.6453  0.1180
   71MOL0     H 9361   6.330   7.080   7.495 -1.0097 -0.3321  0.1326
   71MOL0     H 9362   6.502   6.926   7.358  0.4639  0.5427  0.4030
   71MOL0     H 9363   6.521   7.099   7.357 -2.2820 -1.0203  2.2075
   71MOL0     H 9364   6.612   6.968   7.106  1.5413  2.8073 -0.7145
   71MOL0     H 9365   6.657   7.116   7.184 -0.5889 -0.1589  1.8067
   71MOL0     H 9366   6.713   6.832   7.277  0.0829 -0.0322 -0.2713
   71MOL0     H 9367   6.742   6.974   7.378 -1.4943  0.7793  1.0743
   71MOL0     H 9368   6.861   6.935   7.105 -1.1653 -0.8145  0.1178
   71MOL0     H 9369   6.905   7.059   7.234  1.8823 -0.0495  0.7309
   71MOL0     H 9370   7.133   6.723   7.366 -0.2707  0.6884  1.4850
   71MOL0     H 9371   6.184   7.083   7.091 -1.8724  2.2863  0.0865
   71MOL0     H 9372   5.957   7.091   7.177 -0.6702 -2.3071  1.0549
   72MOL0     O 9373   2.798   0.827   0.729  0.0264  0.2809  0.1287
   72MOL0     C 9374   2.810   0.733   0.656  0.5633 -0.5920 -0.7836
   72MOL0     O 9375   2.716   0.620   0.649  0.8555  0.0008 -0.1888
   72MOL0     C 9376   2.595   0.624   0.719  0.4366 -0.6734 -0.0644
   72MOL0     C 9377   2.517   0.737   0.744  0.4392 -0.1605 -0.3837
   72MOL0     C 9378   2.390   0.734   0.804 -0.5442  0.4559  0.7006
   72MOL0     C 9379   2.334   0.611   0.830  0.1541  0.1555  0.4126
   72MOL0     O 9380   2.201   0.581   0.865 -0.2116  0.0782  0.6031
   72MOL0     C 9381   2.111   0.697   0.872 -0.1565 -0.5995 -0.5136
   72MOL0     C 9382   1.972   0.654   0.823  0.3149 -0.1607 -0.0294
   72MOL0     C 9383   1.875   0.767   0.836  1.1802  0.0728  0.3396
   72MOL0     C 9384   1.736   0.728   0.781 -0.1736 -0.6419  0.1744
   72MOL0     C 9385   1.633   0.841   0.810 -0.4318  0.5255  0.4811
   72MOL0     C 9386   1.495   0.832   0.751  0.6724 -0.2793  0.1753
   72MOL0     C 9387   1.396   0.936   0.803 -0.5742 -0.1955  0.1590
   72MOL0     C 9388   1.277   0.951   0.714 -0.6783 -0.0864  0.4130
   72MOL0     N 9389   1.191   0.828   0.706 -0.9471 -0.7957 -0.4239
   72MOL0     C 9390   1.212   0.735   0.607 -0.6675 -0.3342 -0.4958
   72MOL0     C 9391   1.088   0.677   0.600 -0.7943 -0.5355  0.0120
   72MOL0     C 9392   1.044   0.571   0.504 -0.2676  0.6165  0.4059
   72MOL0     C 9393   1.023   0.435   0.572 -0.1375  0.1869 -1.4247
   72MOL0     C 9394   0.969   0.320   0.483 -0.9003  0.1288 -0.3838
   72MOL0     C 9395   0.974   0.194   0.573  0.1695 -0.2650 -0.3488
   72MOL0     O 9396   0.899   0.224   0.688  0.0204  0.7720 -0.7719
   72MOL0     C 9397   0.758   0.200   0.689  0.2422  0.2258 -0.0518
   72MOL0     C 9398   0.676   0.144   0.584 -0.1180  0.5198 -0.4022
   72MOL0     C 9399   0.546   0.123   0.594  0.0290  0.5342  0.5861
   72MOL0     C 9400   0.477   0.158   0.717 -0.1991  0.6627  0.5623
   72MOL0     C 9401   0.331   0.182   0.717  1.2212  0.3627  0.7031
   72MOL0     O 9402   0.273   0.192   0.837  0.4953 -0.0219  0.7898
   72MOL0     C 9403   0.138   0.199   0.843 -0.1703 -0.5859  0.1672
   72MOL0     C 9404   0.063   0.107   0.917 -0.4057  0.2091  0.5841
   72MOL0     C 9405  -0.078   0.107   0.920 -0.3464  0.2814 -0.3549
   72MOL0     C 9406  -0.156   0.222   0.877 -0.5936  0.0433  0.6642
   72MOL0     O 9407  -0.291   0.242   0.864 -0.1988 -0.1001  0.0080
   72MOL0     C 9408  -0.368   0.116   0.869  0.3598 -0.3648 -0.2323
   72MOL0     C 9409  -0.518   0.140   0.829  0.2124  0.2855  0.1050
   72MOL0     C 9410  -0.608   0.172   0.949 -0.1971  1.0032 -0.1438
   72MOL0     C 9411  -0.719   0.272   0.903  0.2596  0.2240  0.3214
   72MOL0     C 9412  -0.835   0.284   1.010 -0.1872 -1.1691  0.1128
   72MOL0     C 9413  -0.787   0.354   1.138  0.2218 -0.1003 -0.5036
   72MOL0     C 9414  -0.907   0.364   1.232  1.1976  0.7015  0.9525
   72MOL0     C 9415  -0.864   0.427   1.356 -0.4390 -0.3540  0.7030
   72MOL0    Cl 9416  -1.004   0.463   1.465 -0.1425  0.2939 -0.0490
   72MOL0     C 9417  -0.077   0.320   0.808  0.0661 -0.2293  0.1679
   72MOL0     C 9418   0.064   0.308   0.782  1.8292 -0.5470 -0.0068
   72MOL0     O 9419   0.269   0.184   0.607 -0.1214 -0.6704 -0.1357
   72MOL0     C 9420   0.547   0.219   0.815 -0.7320 -0.3514 -0.0545
   72MOL0     C 9421   0.683   0.242   0.798 -0.2003  1.2982 -1.3495
   72MOL0     N 9422   1.021   0.716   0.708 -0.1323 -0.1886  0.2500
   72MOL0     N 9423   1.074   0.813   0.773 -0.2894 -0.1454  1.2200
   72MOL0     C 9424   2.414   0.496   0.814 -0.8264 -0.6118 -0.2907
   72MOL0     C 9425   2.545   0.508   0.772 -0.2540  0.1858 -0.6684
   72MOL0     C 9426   2.924   0.735   0.566  0.2062  0.3257 -0.1973
   72MOL0     C 9427   3.031   0.832   0.583  0.7553  0.4976 -1.2924
   72MOL0     C 9428   3.146   0.817   0.509 -0.1889 -0.8646  0.2321
   72MOL0     C 9429   3.166   0.717   0.419  0.3882  0.1878 -0.7428
   72MOL0     O 9430   3.289   0.704   0.364  0.7534 -0.2782 -0.3973
   72MOL0     C 9431   3.301   0.630   0.243  1.0912  0.0763 -0.0150
   72MOL0     C 9432   3.440   0.676   0.194 -0.3755  0.0523  0.3547
   72MOL0     C 9433   3.570   0.633   0.269 -0.4517  0.2758 -0.0343
   72MOL0     C 9434   3.579   0.481   0.273  0.1479  0.5804 -0.0480
   72MOL0     C 9435   3.721   0.429   0.292  0.3797 -0.4269  0.9297
   72MOL0     C 9436   3.831   0.393   0.289  0.0646  0.2098 -0.3565
   72MOL0     C 9437   3.060   0.624   0.399  0.6538  0.1563 -0.1732
   72MOL0     C 9438   2.942   0.630   0.474  0.4702 -0.2702  1.0256
   72MOL0     H 9439   2.562   0.832   0.717  3.0803 -0.7948  1.4009
   72MOL0     H 9440   2.344   0.829   0.827  1.8998  1.2125  2.8621
   72MOL0     H 9441   2.140   0.782   0.809 -3.8693  1.9869  0.9232
   72MOL0     H 9442   2.098   0.730   0.975  0.7498 -0.9388 -0.2788
   72MOL0     H 9443   1.939   0.575   0.892 -0.2641  1.4649  1.6339
   72MOL0     H 9444   1.990   0.618   0.722 -0.9166  1.3431 -0.8327
   72MOL0     H 9445   1.913   0.859   0.791  1.4263  0.3543  1.1146
   72MOL0     H 9446   1.857   0.781   0.943  0.2271  0.6414  0.1157
   72MOL0     H 9447   1.747   0.720   0.673  1.5764 -0.7300  0.3329
   72MOL0     H 9448   1.696   0.634   0.819  0.0471  0.0867  2.3482
   72MOL0     H 9449   1.690   0.928   0.777  0.0843 -0.0178 -0.0765
   72MOL0     H 9450   1.623   0.840   0.919 -1.0781  2.4615  0.4786
   72MOL0     H 9451   1.445   0.737   0.773 -0.0019 -0.2285 -1.0601
   72MOL0     H 9452   1.503   0.843   0.642  0.1757 -1.3369  0.0116
   72MOL0     H 9453   1.366   0.914   0.906  1.3957  3.2255  1.6626
   72MOL0     H 9454   1.451   1.031   0.815  2.1736 -1.8921  2.3267
   72MOL0     H 9455   1.309   0.981   0.614 -1.1515  0.8751  0.5333
   72MOL0     H 9456   1.214   1.037   0.740  1.7276  1.7977  0.4211
   72MOL0     H 9457   1.296   0.727   0.538 -0.9434 -1.0840 -0.7593
   72MOL0     H 9458   1.125   0.545   0.435  0.9399 -0.2033  2.0650
   72MOL0     H 9459   0.962   0.610   0.443 -1.8573 -5.0246 -1.6993
   72MOL0     H 9460   0.948   0.456   0.649  1.1627  1.8824 -0.5478
   72MOL0     H 9461   1.119   0.407   0.616 -0.2453  0.7746 -0.7900
   72MOL0     H 9462   0.870   0.337   0.439 -0.1718  2.0817 -1.4244
   72MOL0     H 9463   1.028   0.309   0.391 -0.1200 -1.0881  0.2348
   72MOL0     H 9464   1.079   0.169   0.593  0.5601  0.7528 -1.0315
   72MOL0     H 9465   0.929   0.111   0.519  0.9166 -0.2231 -1.0597
   72MOL0     H 9466   0.725   0.120   0.491 -1.4936  2.5116 -1.7112
   72MOL0     H 9467   0.487   0.075   0.516 -0.0643  0.9827  0.3766
   72MOL0     H 9468   0.106   0.021   0.968  0.5524  0.1660 -0.2665
   72MOL0     H 9469  -0.141   0.031   0.966  0.2967  0.8631  1.5743
   72MOL0     H 9470  -0.356   0.063   0.964  0.9776 -2.3380 -1.3538
   72MOL0     H 9471  -0.326   0.048   0.795  1.8695  1.6981 -1.3652
   72MOL0     H 9472  -0.566   0.055   0.779 -0.0063 -0.3359  1.3316
   72MOL0     H 9473  -0.527   0.217   0.752 -2.4977 -1.4989 -1.5542
   72MOL0     H 9474  -0.551   0.210   1.035 -0.0183 -1.0873  0.7179
   72MOL0     H 9475  -0.645   0.075   0.984  4.2380 -1.5131 -1.5996
   72MOL0     H 9476  -0.680   0.373   0.887 -0.1494  0.5740  1.4813
   72MOL0     H 9477  -0.757   0.235   0.807  1.6820  0.3281 -0.3119
   72MOL0     H 9478  -0.863   0.179   1.014  3.3158 -2.4753 -3.1994
   72MOL0     H 9479  -0.908   0.348   0.959  1.7685  1.5851  0.5604
   72MOL0     H 9480  -0.757   0.457   1.116  0.3563 -0.2381 -0.9762
   72MOL0     H 9481  -0.701   0.306   1.185  0.8285  0.6524 -0.8183
   72MOL0     H 9482  -0.991   0.427   1.200  1.2792  0.7808  0.8951
   72MOL0     H 9483  -0.941   0.261   1.249 -1.3826  1.1665 -0.7299
   72MOL0     H 9484  -0.826   0.526   1.326  0.5517 -0.6896  0.8272
   72MOL0     H 9485  -0.788   0.362   1.399 -0.4097 -0.4618  0.4898
   72MOL0     H 9486  -0.146   0.387   0.759  0.3842 -0.0742 -0.0715
   72MOL0     H 9487   0.128   0.382   0.735  0.3887  2.5429  2.5683
   72MOL0     H 9488   0.495   0.267   0.897  2.0428  2.9198  0.0246
   72MOL0     H 9489   0.741   0.293   0.874 -0.9916  0.3314 -0.0534
   72MOL0     H 9490   2.356   0.408   0.840  1.5757 -1.8854  1.1604
   72MOL0     H 9491   2.594   0.412   0.763 -0.9099 -0.3388  1.0264
   72MOL0     H 9492   3.026   0.905   0.663  1.5971 -0.8784  0.0792
   72MOL0     H 9493   3.232   0.882   0.522  1.0577 -2.4600  0.2830
   72MOL0     H 9494   3.217   0.654   0.177 -1.2930 -2.2236  1.9765
   72MOL0     H 9495   3.307   0.521   0.251 -1.3144 -0.1673 -0.7256
   72MOL0     H 9496   3.443   0.650   0.088 -2.1360 -0.9835  0.5119
   72MOL0     H 9497   3.442   0.785   0.198  3.7456  0.2214 -1.2557
   72MOL0     H 9498   3.566   0.680   0.368 -2.3918 -0.0505  0.0767
   72MOL0     H 9499   3.659   0.670   0.218 -0.3655  1.3991  0.8971
   72MOL0     H 9500   3.514   0.436   0.349  0.7705  1.8340  1.2875
   72MOL0     H 9501   3.543   0.438   0.180 -3.0819  0.6894  1.0155
   72MOL0     H 9502   3.932   0.358   0.299 -0.4624 -0.7194  2.9707
   72MOL0     H 9503   3.086   0.533   0.347 -0.1293 -0.3444  0.2883
   72MOL0     H 9504   2.867   0.552   0.470 -1.1270  1.1347  2.3556
   73MOL0     O 9505   3.571  10.112   8.095 -0.3890  0.0796  0.1941
   73MOL0     C 9506   3.629  10.045   8.010 -0.2211  0.1160  0.4989
   73MOL0     O 9507   3.568   9.959   7.923 -0.8035 -0.8124 -0.1483
   73MOL0     C 9508   3.442   9.936   7.939  0.1345 -0.6801 -0.3180
   73MOL0     C 9509   3.402   9.865   8.061 -0.2692  0.6396  0.2220
   73MOL0     C 9510   3.267   9.852   8.090  0.1607  0.7077  0.1708
   73MOL0     C 9511   3.162   9.906   8.006  0.1527  0.7833 -0.4281
   73MOL0     O 9512   3.031   9.881   8.032  0.3429 -1.1702 -0.5817
   73MOL0     C 9513   2.956   9.992   8.072  0.4210  0.2478  0.3965
   73MOL0     C 9514   2.850   9.952   8.182  0.8835 -0.4981  0.0782
   73MOL0     C 9515   2.745  10.059   8.208  0.5006 -0.1145 -0.1362
   73MOL0     C 9516   2.801  10.192   8.243 -0.1308  0.1192 -0.5717
   73MOL0     C 9517   2.692  10.288   8.295 -0.1542  0.0628  0.4191
   73MOL0     C 9518   2.762  10.428   8.313 -1.1896 -0.8298  0.0032
   73MOL0     C 9519   2.815  10.485   8.181 -1.3023 -0.3394 -0.4818
   73MOL0     C 9520   2.809  10.634   8.191  0.5453  0.1992  0.7879
   73MOL0     N 9521   2.864  10.708   8.071 -1.0059  1.3290  0.4614
   73MOL0     C 9522   2.979  10.772   8.068  0.3023 -0.2592  0.2269
   73MOL0     C 9523   2.991  10.836   7.949  0.6002  0.8048 -0.1491
   73MOL0     C 9524   3.105  10.915   7.895 -0.9890  0.2368  0.3073
   73MOL0     C 9525   3.236  10.835   7.890  0.6594 -0.6479 -0.5483
   73MOL0     C 9526   3.344  10.928   7.845  0.2018  0.8815  0.4361
   73MOL0     C 9527   3.488  10.863   7.869  0.4664 -0.5485 -0.1022
   73MOL0     O 9528   3.587  10.964   7.845 -0.6134  0.7352  0.0296
   73MOL0     C 9529   3.714  10.924   7.896 -0.1913  0.1448 -0.5999
   73MOL0     C 9530   3.795  10.824   7.838 -0.7701 -0.3575 -0.4406
   73MOL0     C 9531   3.919  10.795   7.903 -0.2123  0.1656  0.7001
   73MOL0     C 9532   3.962  10.855   8.022  0.2893 -0.9103 -0.3527
   73MOL0     C 9533   4.089  10.824   8.082  0.2098  0.1473 -0.3954
   73MOL0     O 9534   4.139  10.912   8.171 -0.2432 -0.7184  0.5867
   73MOL0     C 9535   4.256  10.892   8.246  0.6536 -0.5529  0.2400
   73MOL0     C 9536   4.326  11.011   8.279  0.3096  0.8885  0.0635
   73MOL0     C 9537   4.461  11.004   8.327  0.3394  0.0271 -1.1273
   73MOL0     C 9538   4.508  10.877   8.365  0.6030 -0.2122 -0.0395
   73MOL0     O 9539   4.639  10.868   8.396 -0.4817  0.2022  0.2524
   73MOL0     C 9540   4.682  10.765   8.499  0.7823  0.3295  0.5447
   73MOL0     C 9541   4.623  10.808   8.632 -0.5649  0.5459 -0.2390
   73MOL0     C 9542   4.681  10.726   8.750 -0.4904 -1.1640  0.7708
   73MOL0     C 9543   4.670  10.575   8.732  0.0439  0.7138 -0.4233
   73MOL0     C 9544   4.530  10.523   8.752 -0.8948  0.1072  0.2729
   73MOL0     C 9545   4.500  10.398   8.674  1.0132 -0.2397 -0.1032
   73MOL0     C 9546   4.367  10.335   8.731 -0.9446 -0.0409 -0.1625
   73MOL0     C 9547   4.323  10.212   8.651  1.0492 -0.0614  0.4853
   73MOL0    Cl 9548   4.277  10.249   8.474  0.0596 -0.0572 -0.2948
   73MOL0     C 9549   4.421  10.766   8.364 -0.2177  0.1551 -0.2216
   73MOL0     C 9550   4.297  10.770   8.293  0.4610  0.4500  0.8268
   73MOL0     O 9551   4.146  10.721   8.042  0.7574 -0.8437 -0.3948
   73MOL0     C 9552   3.884  10.959   8.065 -0.2484  0.4272 -0.1077
   73MOL0     C 9553   3.763  10.991   8.004  0.5807  0.5381  0.5437
   73MOL0     N 9554   2.877  10.795   7.877  0.0428 -0.3751  0.3295
   73MOL0     N 9555   2.802  10.721   7.955  0.6164  0.0754  0.1455
   73MOL0     C 9556   3.202   9.961   7.886  0.2769 -0.3106  0.3525
   73MOL0     C 9557   3.334   9.980   7.852 -0.7997 -0.0889 -0.2678
   73MOL0     C 9558   3.782  10.043   7.999 -0.4015 -0.3809  0.2072
   73MOL0     C 9559   3.846   9.953   7.910  0.7895  0.2037 -0.9579
   73MOL0     C 9560   3.984   9.950   7.900 -0.7222 -0.6903 -0.0633
   73MOL0     C 9561   4.058  10.033   7.981  0.4759 -0.6527 -0.3181
   73MOL0     O 9562   4.196  10.031   7.973  0.6170 -0.1578  0.4869
   73MOL0     C 9563   4.264   9.967   7.864  0.2236  0.0335  0.1392
   73MOL0     C 9564   4.244  10.026   7.717 -0.0148  0.2692 -0.0585
   73MOL0     C 9565   4.297  10.168   7.709 -0.7322  0.2717 -0.0715
   73MOL0     C 9566   4.270  10.227   7.576 -0.2932  0.2343  0.6346
   73MOL0     C 9567   4.339  10.152   7.464 -0.2943  0.5688 -0.4687
   73MOL0     C 9568   4.413  10.099   7.387 -0.5282  0.2885 -1.0390
   73MOL0     C 9569   4.002  10.114   8.074  0.0852 -0.1468 -0.1546
   73MOL0     C 9570   3.862  10.120   8.081  0.2063 -0.0582  0.1233
   73MOL0     H 9571   3.483   9.819   8.117 -1.6520 -1.5852  0.4875
   73MOL0     H 9572   3.249   9.804   8.186 -2.9767  0.2893 -0.5132
   73MOL0     H 9573   2.904  10.016   7.979 -1.0978 -1.9895  0.6017
   73MOL0     H 9574   3.014  10.075   8.115  0.5862 -0.5413  1.7485
   73MOL0     H 9575   2.897   9.917   8.274 -0.9640 -2.4686  0.3585
   73MOL0     H 9576   2.797   9.864   8.143 -0.8485 -0.6876  2.6009
   73MOL0     H 9577   2.688  10.026   8.295 -0.5248  1.7152 -0.0684
   73MOL0     H 9578   2.672  10.076   8.129 -0.3741 -2.4154  0.0845
   73MOL0     H 9579   2.873  10.172   8.323 -0.2900  3.4000  0.5137
   73MOL0     H 9580   2.857  10.225   8.155 -1.6428  1.2496 -1.1427
   73MOL0     H 9581   2.650  10.256   8.391 -1.0299  1.0500  0.3883
   73MOL0     H 9582   2.613  10.294   8.219 -0.4806 -2.6084  0.4396
   73MOL0     H 9583   2.843  10.413   8.386 -1.9288  1.9664  1.5373
   73MOL0     H 9584   2.698  10.497   8.368 -0.1530 -0.8660  1.3182
   73MOL0     H 9585   2.919  10.451   8.174 -0.9247  0.5469  0.4278
   73MOL0     H 9586   2.759  10.451   8.094 -0.1057 -2.5192 -0.4673
   73MOL0     H 9587   2.848  10.663   8.289 -0.5667  0.4552  1.1737
   73MOL0     H 9588   2.701  10.654   8.200  0.9211  1.6011  3.3945
   73MOL0     H 9589   3.057  10.774   8.143 -0.8087  2.2985  1.4277
   73MOL0     H 9590   3.109  11.010   7.950 -0.4007  0.4765 -0.1431
   73MOL0     H 9591   3.087  10.946   7.792  1.0489 -0.4967 -0.3208
   73MOL0     H 9592   3.232  10.768   7.803 -2.4421  0.9257 -1.8037
   73MOL0     H 9593   3.260  10.796   7.989  1.2296  1.4795  0.2017
   73MOL0     H 9594   3.342  10.941   7.737  0.2336 -2.6776 -0.0922
   73MOL0     H 9595   3.330  11.022   7.900  0.0997  0.1515  1.6911
   73MOL0     H 9596   3.495  10.776   7.803  1.2925  0.4104 -1.3198
   73MOL0     H 9597   3.507  10.813   7.965 -1.2664 -1.4239 -0.1697
   73MOL0     H 9598   3.765  10.772   7.748  1.6479 -0.5376 -1.2150
   73MOL0     H 9599   3.976  10.712   7.864 -1.4720 -0.8449  0.9324
   73MOL0     H 9600   4.274  11.105   8.266 -0.7425  0.3596  0.3565
   73MOL0     H 9601   4.521  11.095   8.330  0.7341 -0.0928 -3.4669
   73MOL0     H 9602   4.790  10.780   8.502  1.0217 -0.9343 -0.5200
   73MOL0     H 9603   4.640  10.668   8.471  1.2110  0.8289 -2.1119
   73MOL0     H 9604   4.514  10.799   8.632 -0.6074  1.0171 -0.7419
   73MOL0     H 9605   4.649  10.913   8.650  1.2484  0.4979 -2.1678
   73MOL0     H 9606   4.631  10.768   8.837 -0.2908  1.0881 -0.1302
   73MOL0     H 9607   4.785  10.759   8.760 -0.2894 -1.3561 -0.5669
   73MOL0     H 9608   4.720  10.540   8.642 -0.1401  1.3116 -0.7631
   73MOL0     H 9609   4.726  10.547   8.822  0.8612  1.8845 -0.5416
   73MOL0     H 9610   4.466  10.602   8.711 -1.3769 -2.3533 -4.3316
   73MOL0     H 9611   4.510  10.519   8.859  1.3620  0.8736  0.7783
   73MOL0     H 9612   4.581  10.329   8.699  2.3391  1.6213  0.9930
   73MOL0     H 9613   4.494  10.411   8.566  2.8134  0.5890 -0.1415
   73MOL0     H 9614   4.377  10.315   8.838 -0.5204  1.8506  0.1799
   73MOL0     H 9615   4.287  10.409   8.723  0.9447  2.7100  3.2644
   73MOL0     H 9616   4.243  10.160   8.704  1.1682 -0.3639  0.3702
   73MOL0     H 9617   4.402  10.137   8.656 -0.3163 -1.4484  3.6254
   73MOL0     H 9618   4.459  10.669   8.394  0.5993  0.3931 -0.4622
   73MOL0     H 9619   4.241  10.679   8.276 -0.0235  0.5258  1.9331
   73MOL0     H 9620   3.919  11.021   8.147  3.0096 -1.2357 -0.0797
   73MOL0     H 9621   3.695  11.068   8.040 -0.7291 -0.7407  0.8668
   73MOL0     H 9622   3.130   9.996   7.813 -1.1236 -1.4055  1.1378
   73MOL0     H 9623   3.368  10.031   7.762  0.7688  1.0884  0.9171
   73MOL0     H 9624   3.776   9.894   7.853  0.4970  2.4826 -3.1155
   73MOL0     H 9625   4.024   9.874   7.834 -1.6882 -0.4912 -0.9103
   73MOL0     H 9626   4.234   9.862   7.870  0.7600 -0.0356  3.0804
   73MOL0     H 9627   4.373   9.963   7.876  0.1491 -0.8411  0.5754
   73MOL0     H 9628   4.302   9.964   7.648  0.7531  0.5010  0.3684
   73MOL0     H 9629   4.143  10.028   7.675 -0.8146  1.4315  1.7957
   73MOL0     H 9630   4.404  10.179   7.729 -0.5370 -0.8673 -0.4436
   73MOL0     H 9631   4.251  10.226   7.790 -3.7303  2.0966 -2.8460
   73MOL0     H 9632   4.163  10.229   7.551  0.1577  1.3767 -1.4900
   73MOL0     H 9633   4.297  10.333   7.581  2.4824 -0.4444  1.2636
   73MOL0     H 9634   4.493  10.056   7.330  0.0441 -1.2672  0.8211
   73MOL0     H 9635   4.064  10.176   8.139  2.5867 -3.7768  1.2524
   73MOL0     H 9636   3.802  10.193   8.134 -1.3863  1.4485 -3.4082
   74MOL0     O 9637   6.804   6.321   1.672 -0.0713 -0.3059 -0.4363
   74MOL0     C 9638   6.913   6.275   1.627 -0.9271 -0.0711  0.6060
   74MOL0     O 9639   6.934   6.147   1.579  0.6674 -0.6643  0.2928
   74MOL0     C 9640   6.831   6.062   1.589  0.1961 -0.1997  0.5811
   74MOL0     C 9641   6.765   6.041   1.703  0.3413 -0.7854 -0.3530
   74MOL0     C 9642   6.657   5.952   1.712  0.4513  0.0731 -0.4217
   74MOL0     C 9643   6.618   5.885   1.598  0.1722  0.2723 -0.6431
   74MOL0     O 9644   6.513   5.797   1.595  0.4934  0.6377  0.1483
   74MOL0     C 9645   6.409   5.810   1.693  1.1837 -0.9542  0.5063
   74MOL0     C 9646   6.280   5.815   1.608 -0.1613 -0.3575  0.9039
   74MOL0     C 9647   6.163   5.760   1.693  0.1179  0.0807  0.9050
   74MOL0     C 9648   6.031   5.750   1.608 -0.2121 -0.5652  0.0604
   74MOL0     C 9649   5.912   5.662   1.657  0.6850  0.7034  0.5599
   74MOL0     C 9650   5.896   5.648   1.811  0.9653  0.4649 -0.1333
   74MOL0     C 9651   5.845   5.792   1.845 -0.4544  0.1672 -0.3983
   74MOL0     C 9652   5.796   5.789   1.987  0.8221 -0.3730 -0.0240
   74MOL0     N 9653   5.659   5.728   1.995 -0.3111 -0.1700 -0.5105
   74MOL0     C 9654   5.537   5.786   1.963  0.1148 -0.1709 -0.2572
   74MOL0     C 9655   5.444   5.685   1.972 -0.8706 -0.3740 -0.0694
   74MOL0     C 9656   5.303   5.675   1.939  0.7370  0.9826 -0.5221
   74MOL0     C 9657   5.201   5.669   2.051 -0.3392  0.5646  0.4105
   74MOL0     C 9658   5.052   5.687   2.000  0.6489 -0.2875  0.1601
   74MOL0     C 9659   5.012   5.573   1.899 -0.4153  0.1871 -0.5380
   74MOL0     O 9660   5.010   5.436   1.955 -0.4020 -0.6340  0.5012
   74MOL0     C 9661   4.903   5.380   2.019  0.6262 -0.1508 -0.6509
   74MOL0     C 9662   4.895   5.252   2.079 -0.0738  0.5089 -0.5767
   74MOL0     C 9663   4.774   5.204   2.127  0.3729  0.0227 -0.2986
   74MOL0     C 9664   4.657   5.272   2.110 -0.6980  0.5422  0.0470
   74MOL0     C 9665   4.529   5.216   2.153  0.4169 -0.7928  0.7020
   74MOL0     O 9666   4.425   5.292   2.105 -0.0899 -0.3456 -0.3130
   74MOL0     C 9667   4.297   5.263   2.138 -0.7504  0.2673 -0.0653
   74MOL0     C 9668   4.239   5.135   2.150  0.0412 -0.2707 -0.3860
   74MOL0     C 9669   4.102   5.114   2.185  0.2107  0.3035  0.2705
   74MOL0     C 9670   4.021   5.227   2.194 -0.1938 -0.5435  0.7553
   74MOL0     O 9671   3.887   5.218   2.209  0.5677  0.4875 -0.5013
   74MOL0     C 9672   3.830   5.093   2.265  0.4048  0.2478 -0.4251
   74MOL0     C 9673   3.692   5.124   2.314  0.2078  0.6361  0.4395
   74MOL0     C 9674   3.600   5.182   2.216 -0.7136  1.0837 -0.2414
   74MOL0     C 9675   3.461   5.203   2.277  0.8369  0.2994  0.0151
   74MOL0     C 9676   3.370   5.268   2.169 -0.8049  1.0912  1.0984
   74MOL0     C 9677   3.246   5.331   2.224 -0.6498  0.3698 -0.4177
   74MOL0     C 9678   3.144   5.338   2.107  0.0769  0.0514  0.4333
   74MOL0     C 9679   3.004   5.399   2.158 -0.4791  0.7656  0.5820
   74MOL0    Cl 9680   2.937   5.299   2.283  0.4880 -0.3818  0.2109
   74MOL0     C 9681   4.077   5.356   2.170 -0.2597  0.9681 -0.1272
   74MOL0     C 9682   4.212   5.373   2.151  0.0367 -0.0849 -0.9081
   74MOL0     O 9683   4.527   5.111   2.223  0.2911 -0.1434 -0.3452
   74MOL0     C 9684   4.658   5.402   2.060  0.5292 -0.1107  0.4301
   74MOL0     C 9685   4.781   5.457   2.018  0.7224  0.4784  0.2992
   74MOL0     N 9686   5.498   5.573   2.023 -0.5336  0.7212  0.0727
   74MOL0     N 9687   5.629   5.598   2.035  0.0242  0.2538  1.1519
   74MOL0     C 9688   6.674   5.910   1.475  0.5833 -0.7378  0.1283
   74MOL0     C 9689   6.775   6.009   1.468  0.8108 -0.2006  0.0191
   74MOL0     C 9690   7.033   6.368   1.619  0.7254 -0.5805 -0.3929
   74MOL0     C 9691   7.036   6.497   1.676 -0.4281  0.9196 -0.3440
   74MOL0     C 9692   7.148   6.583   1.654  0.8347 -0.0005  0.4073
   74MOL0     C 9693   7.259   6.544   1.578  0.4193 -0.2363 -0.2331
   74MOL0     O 9694   7.373   6.616   1.569  0.1773 -0.2764  0.2634
   74MOL0     C 9695   7.385   6.743   1.633 -0.5874  0.1781  0.0160
   74MOL0     C 9696   7.516   6.828   1.584 -0.5640 -0.1514 -0.6901
   74MOL0     C 9697   7.516   6.978   1.632 -0.6343 -0.4938  0.5468
   74MOL0     C 9698   7.556   7.003   1.779 -0.2240  0.0037 -0.4051
   74MOL0     C 9699   7.702   7.024   1.782  0.0084  1.5306 -1.2185
   74MOL0     C 9700   7.822   7.044   1.800 -0.1091 -1.2546 -0.1583
   74MOL0     C 9701   7.252   6.409   1.528 -0.0441 -0.6806  0.0642
   74MOL0     C 9702   7.142   6.324   1.554 -0.9190  0.7544  0.3173
   74MOL0     H 9703   6.783   6.111   1.784 -1.3323 -0.3897 -0.2834
   74MOL0     H 9704   6.601   5.930   1.802  0.1144  2.0495 -0.0982
   74MOL0     H 9705   6.411   5.904   1.749 -1.3854  0.4890 -1.6121
   74MOL0     H 9706   6.412   5.735   1.772 -1.4557 -0.1221  1.4752
   74MOL0     H 9707   6.288   5.755   1.517 -0.9924 -0.6018  0.9826
   74MOL0     H 9708   6.254   5.918   1.580  2.2629  0.9789  3.0802
   74MOL0     H 9709   6.155   5.830   1.777 -1.1415 -1.1327  1.8126
   74MOL0     H 9710   6.181   5.661   1.734 -0.0266  0.1299  1.0887
   74MOL0     H 9711   6.011   5.856   1.592  2.2626 -0.4423 -3.3062
   74MOL0     H 9712   6.059   5.713   1.509  0.2401 -0.1176  0.0178
   74MOL0     H 9713   5.924   5.557   1.628 -0.0313  0.6221  0.5424
   74MOL0     H 9714   5.818   5.702   1.618  1.4830  2.8891  0.7335
   74MOL0     H 9715   5.981   5.612   1.870  0.0100 -2.2253 -0.2569
   74MOL0     H 9716   5.812   5.579   1.826  1.1391  0.1189 -0.7227
   74MOL0     H 9717   5.921   5.871   1.845 -0.8676  0.6306  1.6687
   74MOL0     H 9718   5.759   5.828   1.787  1.5317  2.2749 -2.2169
   74MOL0     H 9719   5.791   5.897   2.003  2.1413 -0.3152  0.1224
   74MOL0     H 9720   5.861   5.739   2.059 -0.7293  0.0569  1.7393
   74MOL0     H 9721   5.527   5.886   1.921 -1.0766 -0.8997 -1.8388
   74MOL0     H 9722   5.289   5.585   1.878  2.5390 -1.2389  2.1134
   74MOL0     H 9723   5.271   5.757   1.874  3.9806 -0.0976 -3.8117
   74MOL0     H 9724   5.233   5.751   2.116 -0.1883 -0.3413  1.5170
   74MOL0     H 9725   5.203   5.575   2.107  0.4010 -0.0416 -0.6085
   74MOL0     H 9726   4.978   5.682   2.080  0.4279  5.1880  0.6296
   74MOL0     H 9727   5.026   5.785   1.961 -0.7089 -0.6849 -0.0075
   74MOL0     H 9728   5.100   5.563   1.835  0.0603 -0.2979  0.1798
   74MOL0     H 9729   4.921   5.614   1.853 -1.3753  3.5838  3.7236
   74MOL0     H 9730   4.977   5.180   2.082 -0.3237  0.1420 -2.0045
   74MOL0     H 9731   4.778   5.106   2.174  1.4939  0.3979  0.4170
   74MOL0     H 9732   4.301   5.050   2.126 -0.4450 -0.6860 -0.1964
   74MOL0     H 9733   4.051   5.019   2.185 -0.7942  0.7974 -1.7671
   74MOL0     H 9734   3.890   5.062   2.351 -1.8020  1.9109  1.8474
   74MOL0     H 9735   3.830   5.011   2.192  0.1485  1.6799 -2.1026
   74MOL0     H 9736   3.706   5.201   2.390  0.0888  0.6085  0.4900
   74MOL0     H 9737   3.649   5.036   2.363  1.6587 -1.4207 -1.7409
   74MOL0     H 9738   3.592   5.113   2.132 -0.9535  1.0573 -0.1966
   74MOL0     H 9739   3.636   5.276   2.174  2.0345  0.7194  1.1152
   74MOL0     H 9740   3.415   5.109   2.305  1.5557  0.4686  1.9081
   74MOL0     H 9741   3.467   5.267   2.365  2.9510  0.1264  0.0653
   74MOL0     H 9742   3.335   5.182   2.112  2.0431  0.3439  0.3046
   74MOL0     H 9743   3.427   5.336   2.105 -0.9676  0.3386  0.1499
   74MOL0     H 9744   3.277   5.430   2.260  0.1281 -0.9633  2.9520
   74MOL0     H 9745   3.210   5.277   2.312  4.0035  0.4629  1.8684
   74MOL0     H 9746   3.179   5.400   2.024  0.9898 -1.7508 -0.5787
   74MOL0     H 9747   3.107   5.242   2.071 -2.0126  1.3725 -1.1969
   74MOL0     H 9748   2.936   5.403   2.073  0.5107  2.6403 -0.1812
   74MOL0     H 9749   3.019   5.505   2.182  2.6827  1.1691 -2.4265
   74MOL0     H 9750   4.008   5.439   2.183 -2.0377 -0.7080  1.9848
   74MOL0     H 9751   4.250   5.475   2.156  3.0364 -1.1519  1.0916
   74MOL0     H 9752   4.568   5.462   2.048  0.3076 -0.4231  0.5184
   74MOL0     H 9753   4.775   5.558   1.979  0.5802 -0.2820 -1.7277
   74MOL0     H 9754   6.631   5.860   1.389  0.5839 -0.9444  0.2483
   74MOL0     H 9755   6.824   6.029   1.374  1.2202 -1.2256 -0.0028
   74MOL0     H 9756   6.951   6.535   1.731 -1.2957 -1.1783 -0.1436
   74MOL0     H 9757   7.140   6.675   1.711 -2.0250 -1.4730  2.6901
   74MOL0     H 9758   7.396   6.738   1.742  0.5172 -0.5493 -0.1116
   74MOL0     H 9759   7.296   6.803   1.610 -0.6016 -0.3246 -1.3497
   74MOL0     H 9760   7.606   6.780   1.622  0.0072 -0.9023 -2.8336
   74MOL0     H 9761   7.524   6.814   1.476 -0.5731 -1.1495 -0.5731
   74MOL0     H 9762   7.412   7.011   1.629 -0.0129  1.5623 -1.2556
   74MOL0     H 9763   7.574   7.041   1.564  0.6969 -0.3519  1.7595
   74MOL0     H 9764   7.505   7.091   1.819  3.3557  1.2091  2.0397
   74MOL0     H 9765   7.525   6.912   1.832  0.9341  0.6881  1.5425
   74MOL0     H 9766   7.920   7.059   1.840 -1.0388 -0.2278  1.8580
   74MOL0     H 9767   7.342   6.381   1.475  1.4677  0.9140  1.6295
   74MOL0     H 9768   7.143   6.225   1.509  0.9885  1.0558 -0.3913
   75MOL0     O 9769   1.422   8.439   7.469  0.2402  0.1714 -0.9372
   75MOL0     C 9770   1.336   8.475   7.394  0.1829 -0.4714  0.2941
   75MOL0     O 9771   1.342   8.599   7.324 -0.7540  0.8505 -0.5517
   75MOL0     C 9772   1.463   8.665   7.328 -0.1476 -0.2117  0.6195
   75MOL0     C 9773   1.452   8.801   7.369 -0.2516 -0.5166 -0.2178
   75MOL0     C 9774   1.570   8.871   7.401  0.7706  0.9649 -0.0731
   75MOL0     C 9775   1.699   8.816   7.375  0.5928  0.9126  0.7154
   75MOL0     O 9776   1.815   8.891   7.375  0.2975 -0.4642  0.5229
   75MOL0     C 9777   1.790   9.033   7.406  0.0785  0.8800 -0.2956
   75MOL0     C 9778   1.927   9.099   7.411 -0.2453  0.2239  1.1238
   75MOL0     C 9779   1.989   9.103   7.266 -0.7277 -0.4966 -0.5108
   75MOL0     C 9780   2.141   9.117   7.250  0.2973  0.7669  0.0556
   75MOL0     C 9781   2.185   9.112   7.107  0.1124  0.1424  0.2395
   75MOL0     C 9782   2.127   9.244   7.038 -0.4327  0.5315 -0.3879
   75MOL0     C 9783   2.197   9.274   6.903  0.1382  0.2237  0.3117
   75MOL0     C 9784   2.232   9.147   6.825 -0.4212  0.2995  0.4712
   75MOL0     N 9785   2.294   9.203   6.695  0.9109  0.8467  0.0559
   75MOL0     C 9786   2.413   9.274   6.680  0.0014 -0.4995 -0.1971
   75MOL0     C 9787   2.455   9.247   6.553  0.2380 -1.0872  1.1518
   75MOL0     C 9788   2.580   9.290   6.463 -0.6051  1.1913 -0.4441
   75MOL0     C 9789   2.675   9.169   6.475  0.5068  0.6714  0.2423
   75MOL0     C 9790   2.784   9.153   6.356  0.2565  0.9288 -1.1042
   75MOL0     C 9791   2.732   9.141   6.210 -0.4251 -0.0165  0.9668
   75MOL0     O 9792   2.681   9.007   6.175  0.0305 -0.4214 -0.0076
   75MOL0     C 9793   2.552   8.981   6.199 -0.7376 -0.8943  0.3433
   75MOL0     C 9794   2.520   8.867   6.276 -0.4252  0.3849  0.1610
   75MOL0     C 9795   2.374   8.840   6.298 -0.5850 -0.7901 -0.3883
   75MOL0     C 9796   2.280   8.906   6.224  0.3445  0.0256  0.2155
   75MOL0     C 9797   2.145   8.890   6.250  0.5242  0.4075 -1.0046
   75MOL0     O 9798   2.115   8.828   6.369 -0.2402  0.5611  0.3994
   75MOL0     C 9799   1.988   8.785   6.395 -0.4579  0.2586 -1.0941
   75MOL0     C 9800   1.890   8.878   6.422  0.0098 -0.1917 -0.9857
   75MOL0     C 9801   1.763   8.853   6.471  0.6435 -0.0019  0.1441
   75MOL0     C 9802   1.730   8.720   6.488  0.9662 -0.1177  0.4400
   75MOL0     O 9803   1.601   8.694   6.515  0.1405 -0.6242 -0.1467
   75MOL0     C 9804   1.545   8.559   6.492 -0.9280 -0.4974 -0.4555
   75MOL0     C 9805   1.395   8.568   6.503  0.1395 -0.6600  0.0156
   75MOL0     C 9806   1.315   8.438   6.507  0.9696 -0.1138  0.1026
   75MOL0     C 9807   1.165   8.463   6.533  0.8520 -0.2141  0.5272
   75MOL0     C 9808   1.088   8.337   6.544 -0.2977  0.6245 -0.4959
   75MOL0     C 9809   0.946   8.360   6.567 -0.7991 -0.8382 -0.1809
   75MOL0     C 9810   0.873   8.237   6.616  0.4819 -0.5469 -0.2867
   75MOL0     C 9811   0.891   8.116   6.532 -0.2622 -0.7209  0.2504
   75MOL0    Cl 9812   0.803   7.972   6.603 -0.2716 -0.6323  0.2785
   75MOL0     C 9813   1.822   8.616   6.455  0.2970 -1.4927 -0.2021
   75MOL0     C 9814   1.951   8.652   6.418 -1.1694  0.5566 -0.6576
   75MOL0     O 9815   2.060   8.916   6.165  0.0459  0.7758  0.5014
   75MOL0     C 9816   2.316   9.012   6.145 -0.1339 -0.4916 -0.1099
   75MOL0     C 9817   2.451   9.050   6.128  0.1101  0.0780 -0.1054
   75MOL0     N 9818   2.348   9.184   6.489 -0.3401  1.3395  0.1354
   75MOL0     N 9819   2.252   9.159   6.577 -0.2174  0.8646  0.8085
   75MOL0     C 9820   1.702   8.681   7.335  0.6761 -0.7320 -0.4820
   75MOL0     C 9821   1.589   8.609   7.311  0.0394 -0.3480 -0.1358
   75MOL0     C 9822   1.211   8.396   7.383  0.2130  0.3140  0.6181
   75MOL0     C 9823   1.118   8.433   7.276 -0.4531 -0.0978  0.8070
   75MOL0     C 9824   1.014   8.345   7.249 -0.2346 -0.0634 -0.2934
   75MOL0     C 9825   0.989   8.222   7.320  0.3452  0.8049  0.1981
   75MOL0     O 9826   0.908   8.123   7.261  0.2233  0.0215 -0.6386
   75MOL0     C 9827   0.847   8.042   7.355 -0.3978 -0.1667  0.1632
   75MOL0     C 9828   0.710   8.014   7.295  0.2765  0.0227 -0.1538
   75MOL0     C 9829   0.726   7.922   7.164  1.0472  0.8364  0.1723
   75MOL0     C 9830   0.698   7.990   7.030  0.4571  0.5418  0.3446
   75MOL0     C 9831   0.554   8.028   7.019 -0.6966  0.4521 -0.5521
   75MOL0     C 9832   0.437   8.064   7.019  0.7266  0.4106 -0.5750
   75MOL0     C 9833   1.081   8.197   7.418  0.8215  0.0594  0.4909
   75MOL0     C 9834   1.197   8.269   7.452  0.8316 -0.7811 -0.7547
   75MOL0     H 9835   1.362   8.851   7.403 -0.7866 -0.3346 -1.8233
   75MOL0     H 9836   1.554   8.966   7.452 -0.2262 -0.2857  2.0893
   75MOL0     H 9837   1.738   9.047   7.501 -2.1472 -0.9440 -1.1636
   75MOL0     H 9838   1.734   9.087   7.329  0.5153  1.1134 -0.4548
   75MOL0     H 9839   1.982   9.036   7.480 -0.8302 -1.1865  0.3509
   75MOL0     H 9840   1.926   9.199   7.457 -3.1632  1.7213 -1.7308
   75MOL0     H 9841   1.934   9.187   7.223 -2.0319 -1.9869 -1.8696
   75MOL0     H 9842   1.955   9.019   7.204 -0.7388 -0.0659 -1.0964
   75MOL0     H 9843   2.174   9.206   7.303  0.8409  0.3414  0.4445
   75MOL0     H 9844   2.193   9.031   7.294  1.0362  0.4042 -1.4554
   75MOL0     H 9845   2.155   9.017   7.061  0.9257  1.4139 -3.2688
   75MOL0     H 9846   2.293   9.127   7.099  0.0710 -0.3582 -2.1298
   75MOL0     H 9847   2.147   9.326   7.107  0.7054  0.8084 -1.0093
   75MOL0     H 9848   2.019   9.246   7.026 -0.3244 -1.3143 -2.5063
   75MOL0     H 9849   2.135   9.341   6.843 -0.7631 -0.3423  0.5954
   75MOL0     H 9850   2.292   9.324   6.925 -2.2578  4.3950  2.4797
   75MOL0     H 9851   2.149   9.078   6.809  0.4590 -0.4169 -1.2122
   75MOL0     H 9852   2.310   9.087   6.872 -0.8958 -1.2531 -0.6176
   75MOL0     H 9853   2.490   9.325   6.738 -1.7333  2.6228 -0.4578
   75MOL0     H 9854   2.624   9.378   6.512  2.0189  0.1065 -0.6934
   75MOL0     H 9855   2.549   9.319   6.362 -1.8563 -0.9324 -0.7228
   75MOL0     H 9856   2.618   9.076   6.469  3.3012 -1.1638  0.0787
   75MOL0     H 9857   2.733   9.168   6.568  1.3223 -1.3814 -0.2274
   75MOL0     H 9858   2.862   9.228   6.375  1.7236 -0.2317 -2.2643
   75MOL0     H 9859   2.845   9.063   6.370  0.9061  1.6451  1.1927
   75MOL0     H 9860   2.812   9.174   6.143 -2.3541  3.3784  0.1171
   75MOL0     H 9861   2.661   9.222   6.192  0.2929  0.5139  0.4867
   75MOL0     H 9862   2.597   8.812   6.330 -0.4987  0.9399  0.8549
   75MOL0     H 9863   2.358   8.761   6.371  0.9892 -2.4787 -1.7769
   75MOL0     H 9864   1.904   8.985   6.408  0.2616  0.2610  1.9970
   75MOL0     H 9865   1.692   8.932   6.492 -2.9160 -2.7908 -0.3166
   75MOL0     H 9866   1.590   8.488   6.562  1.3503  1.9928  0.8323
   75MOL0     H 9867   1.584   8.537   6.392  0.3194  1.3983 -0.4450
   75MOL0     H 9868   1.353   8.631   6.424  4.6480  0.8131 -1.5073
   75MOL0     H 9869   1.367   8.611   6.599 -2.5816 -0.8033 -0.6250
   75MOL0     H 9870   1.337   8.370   6.589  0.9395 -0.1121  0.1121
   75MOL0     H 9871   1.324   8.382   6.414 -2.9542 -2.0299  0.7011
   75MOL0     H 9872   1.145   8.517   6.626 -0.2806 -0.2292  0.3077
   75MOL0     H 9873   1.129   8.523   6.449  1.3025 -2.1988 -1.1547
   75MOL0     H 9874   1.140   8.270   6.613  3.1327  3.6334  0.1607
   75MOL0     H 9875   1.107   8.285   6.449 -0.1123  0.4102 -0.3439
   75MOL0     H 9876   0.909   8.386   6.468 -0.3394 -1.7059 -0.5918
   75MOL0     H 9877   0.926   8.446   6.631  0.2204 -0.7993  0.0950
   75MOL0     H 9878   0.900   8.224   6.721 -1.6572  0.0563  0.3926
   75MOL0     H 9879   0.767   8.255   6.635  1.0219 -0.0086  2.7704
   75MOL0     H 9880   0.999   8.097   6.529  0.0695  0.8433  1.0713
   75MOL0     H 9881   0.869   8.140   6.427  2.5442  1.2187 -0.0214
   75MOL0     H 9882   1.802   8.512   6.476  1.8209 -1.3024  2.8670
   75MOL0     H 9883   2.017   8.566   6.407 -2.4256 -0.2899 -1.8140
   75MOL0     H 9884   2.244   9.074   6.093 -0.5520 -0.5630  0.3780
   75MOL0     H 9885   2.472   9.138   6.068  2.6591 -0.2137  0.2300
   75MOL0     H 9886   1.803   8.649   7.313  0.6921  0.8686 -3.0646
   75MOL0     H 9887   1.601   8.507   7.276 -0.8140  0.5720 -3.4595
   75MOL0     H 9888   1.130   8.518   7.209 -1.3984 -1.4196 -1.1248
   75MOL0     H 9889   0.944   8.373   7.171  1.1195  3.9535 -0.3206
   75MOL0     H 9890   0.817   8.086   7.450 -3.9773  0.8925 -1.2917
   75MOL0     H 9891   0.905   7.951   7.372 -1.1176 -0.7219 -0.2895
   75MOL0     H 9892   0.640   7.968   7.365 -0.5858  0.8835 -0.4301
   75MOL0     H 9893   0.664   8.111   7.273  0.7270  0.7426  1.8856
   75MOL0     H 9894   0.657   7.838   7.172 -0.3919  2.1631  3.0097
   75MOL0     H 9895   0.826   7.878   7.162  1.0105  0.6816  1.2910
   75MOL0     H 9896   0.763   8.078   7.035  0.5591  0.4696  0.2878
   75MOL0     H 9897   0.726   7.931   6.942 -3.5758  1.9383 -2.1839
   75MOL0     H 9898   0.331   8.080   7.020  0.7901  0.9300  0.9520
   75MOL0     H 9899   1.087   8.100   7.465 -2.7382  0.1431  1.3849
   75MOL0     H 9900   1.265   8.239   7.531 -0.1393  2.5786  1.5483
   76MOL0     O 9901   0.646   9.480   2.511 -0.5601 -0.1442 -0.3563
   76MOL0     C 9902   0.720   9.417   2.435  0.5157  0.2114  0.6106
   76MOL0     O 9903   0.684   9.291   2.380  0.0649  0.9266  0.6599
   76MOL0     C 9904   0.574   9.224   2.425  0.5245  0.9928 -0.6877
   76MOL0     C 9905   0.452   9.284   2.460  0.9204  0.2713  0.1844
   76MOL0     C 9906   0.350   9.200   2.502 -0.2214 -1.0246 -0.3700
   76MOL0     C 9907   0.358   9.061   2.517 -0.1836 -0.1954 -0.1004
   76MOL0     O 9908   0.248   8.990   2.566 -0.2170  0.3118 -0.3118
   76MOL0     C 9909   0.145   9.068   2.636  0.2622  0.1188  0.0690
   76MOL0     C 9910   0.059   8.969   2.717 -0.3340 -0.3320 -0.1926
   76MOL0     C 9911  -0.076   9.042   2.746  0.8478  0.1436  0.0773
   76MOL0     C 9912  -0.170   8.948   2.832 -0.6186  0.4025 -1.0674
   76MOL0     C 9913  -0.277   9.023   2.912  0.1984  0.3110  0.2729
   76MOL0     C 9914  -0.353   8.918   2.995  0.5296  0.2902 -0.8648
   76MOL0     C 9915  -0.493   8.975   3.017  0.7379 -0.0675  0.0936
   76MOL0     C 9916  -0.576   8.862   3.087  0.1037 -0.0802  0.5832
   76MOL0     N 9917  -0.720   8.887   3.063  0.5490 -0.0733 -0.1513
   76MOL0     C 9918  -0.801   8.868   2.954 -0.0454 -0.6464 -0.0403
   76MOL0     C 9919  -0.923   8.909   2.992  0.4297 -0.6323 -0.5080
   76MOL0     C 9920  -1.031   8.935   2.891  0.1496 -0.7950  0.3350
   76MOL0     C 9921  -1.154   8.857   2.915  0.8202 -0.1775 -0.5868
   76MOL0     C 9922  -1.238   8.926   3.037 -0.2865  0.1144 -0.2900
   76MOL0     C 9923  -1.379   8.881   3.045  0.8557  0.1290  0.1844
   76MOL0     O 9924  -1.449   8.947   2.938  0.2450  0.2248 -0.0639
   76MOL0     C 9925  -1.581   8.927   2.913  0.9799  0.0015 -0.3989
   76MOL0     C 9926  -1.670   8.852   3.003  0.4509 -0.6121 -0.1167
   76MOL0     C 9927  -1.802   8.847   2.959  0.2441  0.4655  0.5459
   76MOL0     C 9928  -1.846   8.907   2.840 -0.1749  0.1627  0.6073
   76MOL0     C 9929  -1.983   8.881   2.781  0.2137 -0.2648  0.6066
   76MOL0     O 9930  -2.013   8.939   2.659 -0.1680 -0.5052  1.4166
   76MOL0     C 9931  -2.137   8.942   2.609 -0.0659 -0.6088  0.1840
   76MOL0     C 9932  -2.193   8.825   2.561 -0.1552  0.2497  0.4100
   76MOL0     C 9933  -2.327   8.825   2.514  0.9422  0.1522 -0.5353
   76MOL0     C 9934  -2.405   8.942   2.524  0.2774  0.1282  0.1942
   76MOL0     O 9935  -2.545   8.942   2.500  0.5031  0.4265  0.3514
   76MOL0     C 9936  -2.595   8.865   2.391 -0.2762 -0.3707 -0.2772
   76MOL0     C 9937  -2.638   8.958   2.271  0.5616  0.4462  0.1764
   76MOL0     C 9938  -2.717   8.878   2.170  0.1507  0.3890  1.3051
   76MOL0     C 9939  -2.703   8.942   2.029  0.1296 -0.0059  0.1593
   76MOL0     C 9940  -2.819   8.914   1.933 -0.5508 -0.4444 -0.4786
   76MOL0     C 9941  -2.883   9.040   1.868 -0.1619  0.7107  0.0373
   76MOL0     C 9942  -3.007   8.984   1.809  0.4051 -0.3047 -0.1228
   76MOL0     C 9943  -3.099   9.090   1.758 -0.1207  0.3537 -0.1887
   76MOL0    Cl 9944  -3.250   8.998   1.728  0.4934  0.7655  0.3257
   76MOL0     C 9945  -2.344   9.055   2.579 -0.0188  0.4021  0.2744
   76MOL0     C 9946  -2.210   9.059   2.622 -1.3485  0.3314  0.4936
   76MOL0     O 9947  -2.048   8.794   2.839 -0.0914 -0.1530  0.0890
   76MOL0     C 9948  -1.754   8.986   2.757  1.1352 -0.3400  0.8657
   76MOL0     C 9949  -1.632   9.005   2.810  0.2135  0.0999 -0.4573
   76MOL0     N 9950  -0.916   8.949   3.125 -1.1311  0.8560  0.0377
   76MOL0     N 9951  -0.796   8.939   3.170  0.5413  0.0163 -0.3300
   76MOL0     C 9952   0.478   9.005   2.477 -0.5023 -0.0341  0.1473
   76MOL0     C 9953   0.587   9.081   2.426  0.6015 -0.5917 -0.1059
   76MOL0     C 9954   0.839   9.486   2.385 -0.7373  0.4401  0.3874
   76MOL0     C 9955   0.936   9.412   2.318  0.6048 -0.4377  0.4418
   76MOL0     C 9956   1.040   9.477   2.259  0.2123  0.3504 -0.0341
   76MOL0     C 9957   1.057   9.614   2.260 -0.3259 -0.4218 -0.5356
   76MOL0     O 9958   1.168   9.671   2.200  0.2927 -0.1203 -0.1098
   76MOL0     C 9959   1.192   9.811   2.227 -0.4700  0.1886 -0.3235
   76MOL0     C 9960   1.324   9.875   2.155  0.2920 -0.3006 -0.7540
   76MOL0     C 9961   1.438   9.848   2.240 -0.0285 -0.2450  0.1398
   76MOL0     C 9962   1.581   9.895   2.204  0.6168  1.1360 -0.2428
   76MOL0     C 9963   1.591  10.029   2.153  0.3794  0.9869  0.2069
   76MOL0     C 9964   1.607  10.141   2.111 -1.0456 -0.8316  0.8996
   76MOL0     C 9965   0.960   9.684   2.333  0.5409  0.0308 -0.1040
   76MOL0     C 9966   0.857   9.623   2.397 -0.1485 -0.6480 -0.4962
   76MOL0     H 9967   0.432   9.387   2.432 -0.3579 -0.4353 -1.7178
   76MOL0     H 9968   0.253   9.241   2.526  1.1349  1.0501  2.1640
   76MOL0     H 9969   0.073   9.117   2.571 -0.3759  1.0524  1.4360
   76MOL0     H 9970   0.184   9.144   2.705  1.3681  0.9650 -1.4395
   76MOL0     H 9971   0.114   8.947   2.809  1.5061  0.8696 -0.9259
   76MOL0     H 9972   0.051   8.869   2.673  1.2567 -1.5394  2.0393
   76MOL0     H 9973  -0.122   9.077   2.653 -1.3551  0.1923  1.1307
   76MOL0     H 9974  -0.061   9.139   2.793  0.3399 -0.3363  1.2569
   76MOL0     H 9975  -0.231   8.883   2.769 -2.3226 -0.3317  1.1793
   76MOL0     H 9976  -0.104   8.892   2.899 -3.9341 -0.3889  1.8422
   76MOL0     H 9977  -0.340   9.074   2.839 -1.9157  0.3856  2.0128
   76MOL0     H 9978  -0.249   9.107   2.976  0.4203 -0.5639  1.3608
   76MOL0     H 9979  -0.297   8.902   3.088  1.0150 -1.2937 -1.4004
   76MOL0     H 9980  -0.364   8.819   2.950  2.5886 -0.8549  0.9588
   76MOL0     H 9981  -0.485   9.071   3.069  0.6101 -0.0336  0.0511
   76MOL0     H 9982  -0.540   8.998   2.921  0.4533 -0.1733  0.2042
   76MOL0     H 9983  -0.547   8.862   3.192  0.6679 -2.7156  0.5170
   76MOL0     H 9984  -0.548   8.764   3.047  2.4080  1.0037 -0.6753
   76MOL0     H 9985  -0.768   8.830   2.858  0.0244 -1.7300  0.3921
   76MOL0     H 9986  -0.996   8.914   2.789 -3.1318 -0.6132 -0.9531
   76MOL0     H 9987  -1.066   9.038   2.884 -0.3373 -1.0746 -2.3265
   76MOL0     H 9988  -1.128   8.751   2.919  1.6396  0.0597  1.6820
   76MOL0     H 9989  -1.225   8.863   2.831  0.3004  0.7573 -0.1010
   76MOL0     H 9990  -1.177   8.904   3.125 -2.4828 -2.0338  0.8138
   76MOL0     H 9991  -1.240   9.035   3.033 -0.9256  0.0651 -2.5357
   76MOL0     H 9992  -1.419   8.922   3.138 -0.5027 -0.1543 -0.2490
   76MOL0     H 9993  -1.397   8.773   3.041 -1.2103  0.4670 -0.7451
   76MOL0     H 9994  -1.617   8.799   3.081  1.4096 -0.0854 -0.3875
   76MOL0     H 9995  -1.880   8.801   3.019 -2.7283  4.1811 -0.0846
   76MOL0     H 9996  -2.140   8.730   2.558 -0.3866  0.1282  0.1333
   76MOL0     H 9997  -2.370   8.730   2.484  2.0748 -0.3216 -0.7226
   76MOL0     H 9998  -2.679   8.803   2.425  1.9952 -2.4362  1.9366
   76MOL0     H 9999  -2.531   8.784   2.355  0.6673 -0.5434  1.6629
   76MOL0     H10000  -2.545   8.990   2.222  0.0789 -0.2467 -1.2323
   76MOL0     H10001  -2.697   9.044   2.304  2.5631  1.6026  0.9121
   76MOL0     H10002  -2.822   8.878   2.202 -0.0740  0.6539  0.6044
   76MOL0     H10003  -2.687   8.776   2.147 -1.7651  0.6993 -4.0162
   76MOL0     H10004  -2.674   9.047   2.034  0.9876 -0.1484 -1.1192
   76MOL0     H10005  -2.613   8.901   1.980 -1.8640 -4.6900 -0.1089
   76MOL0     H10006  -2.894   8.864   1.995 -1.5844  2.5194  0.8455
   76MOL0     H10007  -2.786   8.837   1.863  1.0394 -1.4918  1.3211
   76MOL0     H10008  -2.817   9.072   1.786 -0.3382  0.0719 -0.3566
   76MOL0     H10009  -2.906   9.119   1.940 -0.6427  2.0147 -1.4830
   76MOL0     H10010  -2.981   8.917   1.727  1.5120  2.4046 -2.1474
   76MOL0     H10011  -3.058   8.931   1.890  0.1758  1.0241  0.6417
   76MOL0     H10012  -3.066   9.145   1.670 -1.4488  0.6853 -0.4999
   76MOL0     H10013  -3.108   9.167   1.835 -1.0470  0.8899 -0.8183
   76MOL0     H10014  -2.406   9.143   2.585 -1.2153 -0.5191  2.4136
   76MOL0     H10015  -2.173   9.153   2.661 -1.1873  1.1439 -1.4683
   76MOL0     H10016  -1.779   9.022   2.658  3.9606 -2.3716 -0.7516
   76MOL0     H10017  -1.565   9.073   2.759  2.5022 -0.2133  1.9358
   76MOL0     H10018   0.487   8.897   2.480 -0.7274 -0.0902 -0.7582
   76MOL0     H10019   0.682   9.032   2.409 -0.4183 -2.4487 -0.8178
   76MOL0     H10020   0.936   9.304   2.307  0.5491 -0.3354 -0.7439
   76MOL0     H10021   1.102   9.419   2.190  0.5709 -0.1362  0.6876
   76MOL0     H10022   1.211   9.822   2.334  1.4389  1.9775 -0.7764
   76MOL0     H10023   1.106   9.870   2.195 -1.2681  0.4491  2.0810
   76MOL0     H10024   1.335   9.834   2.054 -2.0866 -2.7101 -0.1591
   76MOL0     H10025   1.316   9.983   2.145 -2.6800 -0.4361 -0.7980
   76MOL0     H10026   1.444   9.741   2.265  3.9003 -0.2803 -0.3480
   76MOL0     H10027   1.418   9.901   2.333  1.0121 -0.2832  0.4041
   76MOL0     H10028   1.641   9.880   2.294 -1.3471  0.6523  1.0647
   76MOL0     H10029   1.627   9.832   2.128  0.7254  1.6650 -0.6252
   76MOL0     H10030   1.611  10.246   2.091  2.2856 -1.1189 -0.5919
   76MOL0     H10031   0.978   9.791   2.345  5.3974 -0.5438 -0.2756
   76MOL0     H10032   0.793   9.689   2.454  1.3164  0.4486 -0.0684
   77MOL0     O10033   0.943   5.035   3.437  0.0045 -0.5168  0.3651
   77MOL0     C10034   0.914   5.017   3.553  0.7216 -0.8300 -0.3117
   77MOL0     O10035   0.789   5.018   3.607 -0.3865 -0.4533  0.3523
   77MOL0     C10036   0.686   5.053   3.522  0.1424  0.1098 -0.1922
   77MOL0     C10037   0.600   5.157   3.562  0.3985 -0.0169  0.3176
   77MOL0     C10038   0.476   5.179   3.488 -0.0817  0.0990 -1.5722
   77MOL0     C10039   0.436   5.088   3.386 -0.6915 -0.2389 -0.6744
   77MOL0     O10040   0.321   5.099   3.319  0.4056  0.0436  0.6672
   77MOL0     C10041   0.254   5.227   3.316  0.5575 -0.0102 -0.1022
   77MOL0     C10042   0.149   5.223   3.210  0.7936 -0.8330  0.3172
   77MOL0     C10043   0.013   5.160   3.245 -0.3503 -0.5801 -0.5260
   77MOL0     C10044  -0.073   5.122   3.125 -0.0433  0.0794  1.0669
   77MOL0     C10045  -0.104   5.242   3.044 -0.0428  0.0128  0.3950
   77MOL0     C10046  -0.185   5.184   2.915 -0.8133 -0.1014  0.2210
   77MOL0     C10047  -0.247   5.310   2.841  0.0319  0.7947 -0.3019
   77MOL0     C10048  -0.313   5.300   2.700  0.0128 -0.2724  0.1904
   77MOL0     N10049  -0.445   5.226   2.699  1.4040 -0.1983  0.0909
   77MOL0     C10050  -0.448   5.088   2.711  0.6939  1.2324  0.2881
   77MOL0     C10051  -0.579   5.056   2.688  0.8906  1.4703 -0.0379
   77MOL0     C10052  -0.652   4.921   2.686  0.1339 -0.2786  0.1116
   77MOL0     C10053  -0.674   4.863   2.828 -0.9096  0.4206 -0.7834
   77MOL0     C10054  -0.766   4.739   2.838  0.2189 -0.1780 -0.8049
   77MOL0     C10055  -0.915   4.764   2.815 -0.6460 -0.0912  0.1690
   77MOL0     O10056  -0.977   4.808   2.940 -0.2338  0.4117  0.6274
   77MOL0     C10057  -1.118   4.800   2.941  0.4863 -0.3663  0.1236
   77MOL0     C10058  -1.174   4.829   3.061 -0.4986 -0.3230  0.6212
   77MOL0     C10059  -1.315   4.814   3.081  0.1046  0.0186  0.7023
   77MOL0     C10060  -1.403   4.774   2.977  0.0844  0.5337 -0.8907
   77MOL0     C10061  -1.549   4.737   3.001  0.1704 -0.0351  0.5010
   77MOL0     O10062  -1.613   4.675   2.900 -0.3937 -0.1428 -0.1149
   77MOL0     C10063  -1.746   4.657   2.936 -0.5642 -0.0552 -0.4393
   77MOL0     C10064  -1.783   4.533   2.991 -0.4433  0.2969 -0.1689
   77MOL0     C10065  -1.918   4.517   3.031 -0.0825  0.7012 -0.0072
   77MOL0     C10066  -2.010   4.622   3.031 -1.5078 -0.0849 -0.5215
   77MOL0     O10067  -2.145   4.607   3.071  0.3804  0.7163 -0.1248
   77MOL0     C10068  -2.185   4.468   3.095  1.1259  0.2728 -0.0722
   77MOL0     C10069  -2.336   4.481   3.077 -0.1269  0.0543 -0.4778
   77MOL0     C10070  -2.406   4.350   3.113  0.2198  0.9137  1.3962
   77MOL0     C10071  -2.559   4.367   3.085  0.3095  0.0307 -0.4545
   77MOL0     C10072  -2.638   4.238   3.108 -0.1973  0.4088 -0.7496
   77MOL0     C10073  -2.792   4.258   3.098 -0.4217  0.3225 -0.6261
   77MOL0     C10074  -2.843   4.332   2.966 -0.3262  0.4179  0.2056
   77MOL0     C10075  -2.991   4.325   2.941 -0.0027  0.2447 -0.3267
   77MOL0    Cl10076  -3.028   4.395   2.781  0.0510 -0.2376 -0.3552
   77MOL0     C10077  -1.977   4.744   2.978 -0.3417 -0.3091 -0.0725
   77MOL0     C10078  -1.840   4.761   2.945 -0.3474 -0.6172  0.2560
   77MOL0     O10079  -1.601   4.776   3.106 -0.2995 -0.3667  0.2339
   77MOL0     C10080  -1.337   4.738   2.856 -0.5523  0.3855  0.3090
   77MOL0     C10081  -1.195   4.755   2.835  1.2257 -0.0502  0.0428
   77MOL0     N10082  -0.643   5.167   2.637  0.2880 -0.8114 -0.0686
   77MOL0     N10083  -0.564   5.272   2.653  0.6839  1.2631 -0.8234
   77MOL0     C10084   0.534   4.990   3.344  0.5821  0.3825  0.3012
   77MOL0     C10085   0.649   4.970   3.409 -0.1535  0.2764 -0.3683
   77MOL0     C10086   1.027   4.965   3.637  0.3980 -0.2227  0.4286
   77MOL0     C10087   1.003   4.877   3.747 -0.4219 -0.6158  0.4841
   77MOL0     C10088   1.111   4.848   3.828  0.4688 -0.8449 -0.2775
   77MOL0     C10089   1.242   4.895   3.807 -0.2113  0.5007 -0.7735
   77MOL0     O10090   1.342   4.840   3.878  0.0560 -0.8002 -0.0808
   77MOL0     C10091   1.477   4.887   3.865  0.0254  0.0362 -0.3578
   77MOL0     C10092   1.562   4.806   3.957  0.6243  0.1877  1.1694
   77MOL0     C10093   1.703   4.858   3.948 -1.0509  0.2991 -0.6600
   77MOL0     C10094   1.796   4.751   3.902 -0.6179  0.0828 -0.4967
   77MOL0     C10095   1.934   4.780   3.856 -0.1211  0.0211 -0.4414
   77MOL0     C10096   2.041   4.811   3.801 -0.6471  0.0221 -0.4436
   77MOL0     C10097   1.257   4.992   3.708 -0.1819 -0.0486 -0.5420
   77MOL0     C10098   1.152   5.028   3.626  0.1766 -0.2577  0.7611
   77MOL0     H10099   0.631   5.220   3.645  3.3229  1.2817 -1.5989
   77MOL0     H10100   0.422   5.267   3.519  0.8590  0.4354 -0.8534
   77MOL0     H10101   0.319   5.309   3.282 -0.2477  0.8768  0.4300
   77MOL0     H10102   0.227   5.260   3.417 -1.0662 -1.2793 -0.0945
   77MOL0     H10103   0.182   5.158   3.128 -2.1956 -2.2682  0.1197
   77MOL0     H10104   0.134   5.326   3.175 -0.7077 -1.2561 -0.3634
   77MOL0     H10105  -0.039   5.235   3.306 -0.3364  1.4625 -2.8613
   77MOL0     H10106   0.029   5.068   3.302 -1.3566  0.7300  2.0683
   77MOL0     H10107  -0.017   5.045   3.071 -0.6892 -1.1757  2.1411
   77MOL0     H10108  -0.160   5.072   3.168  1.0291 -2.1788  0.7849
   77MOL0     H10109  -0.013   5.290   3.007  0.3537 -1.7403 -1.0706
   77MOL0     H10110  -0.173   5.307   3.100  3.6780  4.7259  0.1603
   77MOL0     H10111  -0.271   5.125   2.949 -1.0686  0.4728  0.6142
   77MOL0     H10112  -0.132   5.114   2.851  0.2483  1.7259 -0.9719
   77MOL0     H10113  -0.317   5.349   2.915 -1.3179 -1.9976  0.0108
   77MOL0     H10114  -0.160   5.378   2.840 -0.9369  2.2247  2.2644
   77MOL0     H10115  -0.241   5.252   2.634  0.4560 -0.3494  0.7183
   77MOL0     H10116  -0.339   5.399   2.660 -0.4220 -0.1651  0.7247
   77MOL0     H10117  -0.367   5.021   2.739  0.5490 -0.7569 -3.3626
   77MOL0     H10118  -0.588   4.857   2.624  1.2755  2.8361 -2.1893
   77MOL0     H10119  -0.745   4.939   2.631 -1.6757  0.7091  3.2282
   77MOL0     H10120  -0.707   4.940   2.898  0.3889 -0.0479  0.3965
   77MOL0     H10121  -0.580   4.830   2.873 -0.7931  0.5146 -0.9534
   77MOL0     H10122  -0.742   4.663   2.763 -2.5650 -3.4375  1.2837
   77MOL0     H10123  -0.742   4.699   2.937  2.5421 -0.5273 -1.4479
   77MOL0     H10124  -0.966   4.678   2.770  1.3279 -2.0895  1.5772
   77MOL0     H10125  -0.911   4.840   2.736  3.0242 -0.7972 -0.5164
   77MOL0     H10126  -1.107   4.856   3.142  0.4948 -2.4549  0.5715
   77MOL0     H10127  -1.353   4.814   3.183  0.1293 -0.2917  0.7143
   77MOL0     H10128  -1.706   4.458   2.982 -0.6923 -0.5410  3.3966
   77MOL0     H10129  -1.938   4.415   3.061 -2.4957  0.8469 -0.9541
   77MOL0     H10130  -2.175   4.436   3.200 -2.3349 -1.9942 -0.2248
   77MOL0     H10131  -2.145   4.389   3.032  1.3522  1.3908 -1.3599
   77MOL0     H10132  -2.354   4.503   2.971 -0.0835 -1.3207 -0.7792
   77MOL0     H10133  -2.371   4.566   3.138  2.3403  0.4166  0.5401
   77MOL0     H10134  -2.382   4.316   3.214  1.3668 -1.8699  0.2742
   77MOL0     H10135  -2.365   4.273   3.047  2.8544  1.7489  1.8988
   77MOL0     H10136  -2.607   4.448   3.141 -2.1160 -0.8123 -1.1749
   77MOL0     H10137  -2.591   4.411   2.990 -1.3901 -0.3786 -0.1119
   77MOL0     H10138  -2.605   4.189   3.200 -0.5633  3.4313  1.1389
   77MOL0     H10139  -2.609   4.160   3.036  0.4124 -0.2084  0.1416
   77MOL0     H10140  -2.796   4.324   3.185  0.5645 -0.4561  0.0324
   77MOL0     H10141  -2.858   4.172   3.112 -0.4589  0.3610 -0.5570
   77MOL0     H10142  -2.815   4.438   2.971 -2.3036  0.9348  1.8691
   77MOL0     H10143  -2.787   4.287   2.884  0.9687  0.7539  0.8790
   77MOL0     H10144  -3.045   4.391   3.010  2.4524  3.0583 -0.8407
   77MOL0     H10145  -3.028   4.222   2.943  1.8600 -0.4572 -0.2067
   77MOL0     H10146  -2.061   4.813   2.988 -1.4355 -1.2068 -2.2343
   77MOL0     H10147  -1.797   4.858   2.922  1.1040 -1.8341 -2.7221
   77MOL0     H10148  -1.399   4.687   2.782 -0.9938 -3.3165  2.9403
   77MOL0     H10149  -1.158   4.738   2.735 -2.0526 -1.0763 -1.1350
   77MOL0     H10150   0.516   4.932   3.254  0.1834  1.4723 -0.3479
   77MOL0     H10151   0.708   4.887   3.372 -1.9588  0.1976 -3.3836
   77MOL0     H10152   0.901   4.844   3.763 -1.4270  0.7389 -2.4463
   77MOL0     H10153   1.094   4.772   3.904  0.3889  0.3774  0.9776
   77MOL0     H10154   1.479   4.994   3.889 -0.1684 -0.1243  0.4297
   77MOL0     H10155   1.498   4.866   3.760  0.7974 -3.3200  0.3669
   77MOL0     H10156   1.517   4.826   4.055 -1.5387  0.7411  0.1246
   77MOL0     H10157   1.556   4.699   3.936 -2.4951  0.2815  1.1118
   77MOL0     H10158   1.736   4.892   4.047  0.4567 -1.2381 -0.5815
   77MOL0     H10159   1.701   4.946   3.884  0.3476  0.9166  0.1044
   77MOL0     H10160   1.797   4.677   3.983 -2.9978  1.3411  0.7838
   77MOL0     H10161   1.737   4.705   3.822 -0.9560 -0.6435  0.1479
   77MOL0     H10162   2.136   4.843   3.762 -0.1621 -0.9268 -0.0795
   77MOL0     H10163   1.357   5.023   3.679 -0.6449 -0.5651 -2.9036
   77MOL0     H10164   1.169   5.101   3.547  1.2025  1.3193  2.3660
   78MOL0     O10165   0.738   6.479   8.623  0.5240 -1.0537 -0.2701
   78MOL0     C10166   0.795   6.589   8.620 -0.0260  0.3580 -0.5964
   78MOL0     O10167   0.732   6.710   8.623  0.0016 -0.5293 -0.3444
   78MOL0     C10168   0.600   6.714   8.653 -0.2428  0.1573 -0.3092
   78MOL0     C10169   0.501   6.729   8.556 -0.0235 -0.5022  0.0736
   78MOL0     C10170   0.367   6.711   8.598  0.8656 -1.1291 -0.4900
   78MOL0     C10171   0.325   6.684   8.735 -0.2782 -1.2394  0.1833
   78MOL0     O10172   0.198   6.656   8.766  0.4594  0.4660 -0.3862
   78MOL0     C10173   0.120   6.749   8.847  0.0427 -0.0928  0.1331
   78MOL0     C10174   0.036   6.837   8.758 -0.0302 -0.1818 -0.9225
   78MOL0     C10175  -0.087   6.757   8.706  0.2441 -0.7754 -0.1865
   78MOL0     C10176  -0.136   6.825   8.580 -0.2751  0.1955  0.4087
   78MOL0     C10177  -0.235   6.732   8.507  0.6666  0.2462  0.1243
   78MOL0     C10178  -0.307   6.812   8.397 -0.1042 -0.2645  0.7311
   78MOL0     C10179  -0.401   6.926   8.430  0.6647  0.8950 -0.4053
   78MOL0     C10180  -0.550   6.878   8.457  0.9864  0.1229 -0.5539
   78MOL0     N10181  -0.617   6.854   8.331 -0.3031 -0.1116 -0.7128
   78MOL0     C10182  -0.669   6.944   8.241  1.1159  0.8821 -0.2128
   78MOL0     C10183  -0.735   6.869   8.149  1.0041 -0.3960  0.0485
   78MOL0     C10184  -0.816   6.897   8.019 -0.2432 -0.3300  0.0481
   78MOL0     C10185  -0.774   7.015   7.937 -0.0286 -0.0508 -0.1500
   78MOL0     C10186  -0.641   6.982   7.869  0.2580 -0.2229 -0.7252
   78MOL0     C10187  -0.581   7.119   7.820  0.7099 -0.2525  0.6648
   78MOL0     O10188  -0.509   7.205   7.911  0.2121 -0.2478  0.4630
   78MOL0     C10189  -0.388   7.156   7.965  0.6440 -0.9899  0.0031
   78MOL0     C10190  -0.336   7.221   8.080  0.4756 -0.1752 -0.3098
   78MOL0     C10191  -0.222   7.167   8.147  1.0696 -0.4248 -0.0850
   78MOL0     C10192  -0.162   7.051   8.102 -0.6282 -0.1731  0.7954
   78MOL0     C10193  -0.051   6.986   8.163 -0.6384 -0.2597 -0.0067
   78MOL0     O10194  -0.030   6.865   8.125  0.8981  0.0846  1.1555
   78MOL0     C10195   0.083   6.801   8.155  0.4720  0.7198 -0.6767
   78MOL0     C10196   0.185   6.830   8.075 -1.0374 -0.3562 -1.1211
   78MOL0     C10197   0.314   6.756   8.081  0.3598 -0.5302  0.5307
   78MOL0     C10198   0.332   6.656   8.175  0.2810  0.0397  0.0828
   78MOL0     O10199   0.446   6.583   8.207  0.1442 -0.4102  0.1383
   78MOL0     C10200   0.566   6.639   8.151  0.7690  0.1483 -0.3005
   78MOL0     C10201   0.681   6.564   8.224 -0.0422 -0.4039  0.0657
   78MOL0     C10202   0.814   6.620   8.166 -0.3867 -0.2150 -0.2653
   78MOL0     C10203   0.855   6.559   8.031 -0.0420  0.7311 -0.6738
   78MOL0     C10204   0.959   6.638   7.956 -0.1987 -0.5001 -0.0268
   78MOL0     C10205   1.089   6.599   8.023 -0.2043 -0.2645  0.0454
   78MOL0     C10206   1.147   6.464   7.995 -0.6848 -0.0069 -0.2785
   78MOL0     C10207   1.195   6.437   7.858 -0.0402 -0.8873  0.4543
   78MOL0    Cl10208   1.312   6.562   7.802  0.2445 -0.4509  0.0914
   78MOL0     C10209   0.219   6.633   8.262  0.3415  0.1173  0.7234
   78MOL0     C10210   0.096   6.703   8.257  0.0425  0.0808  0.0843
   78MOL0     O10211   0.008   7.041   8.250  0.3861 -0.0951 -0.3348
   78MOL0     C10212  -0.218   6.992   7.985 -0.2284  0.8949 -0.5235
   78MOL0     C10213  -0.323   7.045   7.916  0.9214 -0.3087 -0.9168
   78MOL0     N10214  -0.716   6.733   8.182  0.6005  0.2831  0.7414
   78MOL0     N10215  -0.653   6.736   8.287 -0.0119 -0.3746  0.2712
   78MOL0     C10216   0.428   6.686   8.821  0.9135  0.0203 -0.4610
   78MOL0     C10217   0.559   6.700   8.786 -0.4467  1.1606  0.7409
   78MOL0     C10218   0.941   6.588   8.583  0.0896  1.5877  0.8236
   78MOL0     C10219   0.998   6.679   8.496 -0.6847  0.0403 -0.6036
   78MOL0     C10220   1.140   6.660   8.451  0.3174  0.4723  0.6178
   78MOL0     C10221   1.214   6.557   8.500  1.0100  0.4586  0.7951
   78MOL0     O10222   1.348   6.557   8.470 -0.2549 -0.4166 -0.2116
   78MOL0     C10223   1.445   6.485   8.547 -0.3603  0.3928 -0.1508
   78MOL0     C10224   1.485   6.349   8.486  0.1311  0.2531  0.5973
   78MOL0     C10225   1.535   6.367   8.346 -0.6649  0.7411  0.4250
   78MOL0     C10226   1.565   6.230   8.297 -0.2369  0.5513 -0.0567
   78MOL0     C10227   1.564   6.246   8.147  0.0081  0.4354  0.2791
   78MOL0     C10228   1.562   6.249   8.026  0.2728 -0.1451 -0.2736
   78MOL0     C10229   1.151   6.460   8.572  0.6612 -0.4640  0.0115
   78MOL0     C10230   1.021   6.478   8.613  0.3135  0.2397  0.2986
   78MOL0     H10231   0.536   6.707   8.456 -0.5181 -2.5216  0.2832
   78MOL0     H10232   0.287   6.712   8.525 -1.9314 -2.0970  2.3259
   78MOL0     H10233   0.177   6.798   8.926 -1.2591  3.6422 -0.9974
   78MOL0     H10234   0.055   6.684   8.906 -0.1945  0.7400  0.8118
   78MOL0     H10235   0.105   6.875   8.681 -1.9545  1.6962 -1.8073
   78MOL0     H10236  -0.015   6.915   8.815 -1.1728 -2.3189  1.1946
   78MOL0     H10237  -0.161   6.752   8.787  0.6286 -0.4849  0.1904
   78MOL0     H10238  -0.060   6.654   8.681  0.1414 -0.8361 -0.0476
   78MOL0     H10239  -0.176   6.923   8.609  1.9012  0.3263  3.4949
   78MOL0     H10240  -0.055   6.856   8.514  1.9230 -4.6421  0.4321
   78MOL0     H10241  -0.313   6.709   8.579 -1.8475  2.7266 -1.5878
   78MOL0     H10242  -0.185   6.643   8.468 -1.1528 -0.8037  0.0523
   78MOL0     H10243  -0.356   6.744   8.326 -3.5093  0.3586  2.2618
   78MOL0     H10244  -0.224   6.853   8.338 -1.0046  0.0315 -0.3783
   78MOL0     H10245  -0.376   6.985   8.519  0.7849  0.8953 -0.4396
   78MOL0     H10246  -0.405   7.002   8.352  1.9700  0.0438 -1.3329
   78MOL0     H10247  -0.598   6.956   8.517  0.6681  1.3655 -2.3213
   78MOL0     H10248  -0.556   6.785   8.514 -3.6336  0.0260 -0.7586
   78MOL0     H10249  -0.637   7.047   8.226 -0.0140  1.2208 -0.3675
   78MOL0     H10250  -0.913   6.924   8.061 -1.0081 -1.3652 -1.0033
   78MOL0     H10251  -0.828   6.804   7.963 -3.1088 -0.3116  0.4684
   78MOL0     H10252  -0.775   7.104   7.999 -0.6386  0.6051 -1.0838
   78MOL0     H10253  -0.846   7.022   7.854  1.0051 -0.3569 -1.1063
   78MOL0     H10254  -0.565   6.938   7.934  0.0542  0.8317  0.2594
   78MOL0     H10255  -0.653   6.914   7.785  3.3042 -0.5380 -0.9815
   78MOL0     H10256  -0.661   7.175   7.770  2.8096  1.3738 -1.0407
   78MOL0     H10257  -0.514   7.095   7.737  2.4722 -1.2403  2.2922
   78MOL0     H10258  -0.384   7.301   8.134  0.3002 -0.0335 -0.6705
   78MOL0     H10259  -0.184   7.207   8.240  0.6399  0.9722 -0.4919
   78MOL0     H10260   0.170   6.895   7.990 -0.1355  1.0572 -0.2468
   78MOL0     H10261   0.397   6.767   8.013 -1.0160  1.5859 -0.9278
   78MOL0     H10262   0.569   6.748   8.160  1.1046  0.1958 -0.9196
   78MOL0     H10263   0.558   6.628   8.042 -0.1920  3.6702 -0.7328
   78MOL0     H10264   0.680   6.457   8.203  0.3259 -0.1931 -1.0952
   78MOL0     H10265   0.679   6.584   8.332 -1.5669 -2.0625  0.3896
   78MOL0     H10266   0.890   6.591   8.238  1.7099 -0.0466 -2.2795
   78MOL0     H10267   0.797   6.729   8.168 -0.0133 -0.1469 -0.6756
   78MOL0     H10268   0.887   6.454   8.032  2.7446  1.4445 -2.3609
   78MOL0     H10269   0.765   6.562   7.968  0.1081  0.4541 -0.9067
   78MOL0     H10270   0.936   6.744   7.964  1.9914  0.0721 -0.7770
   78MOL0     H10271   0.950   6.613   7.850 -1.0918 -1.4186  0.2458
   78MOL0     H10272   1.080   6.615   8.130 -1.6457  1.1500 -0.2392
   78MOL0     H10273   1.156   6.679   7.992  1.6617 -1.1571  1.5830
   78MOL0     H10274   1.234   6.460   8.061 -0.2075 -0.7592 -0.9360
   78MOL0     H10275   1.070   6.394   8.030 -0.2639  0.9124  2.8180
   78MOL0     H10276   1.111   6.423   7.789  0.5888 -0.2246 -0.4707
   78MOL0     H10277   1.250   6.343   7.855  2.1276  0.2959  1.0155
   78MOL0     H10278   0.228   6.553   8.335 -0.7275 -3.1417 -2.3838
   78MOL0     H10279   0.022   6.673   8.330 -1.5503 -1.1023 -1.9022
   78MOL0     H10280  -0.182   6.900   7.939 -1.2350  0.1280  0.1795
   78MOL0     H10281  -0.351   6.993   7.825 -3.4720  0.4214 -0.2052
   78MOL0     H10282   0.405   6.674   8.926 -1.7355  0.0753 -0.9785
   78MOL0     H10283   0.628   6.674   8.866 -0.8455 -4.2455 -0.3266
   78MOL0     H10284   0.943   6.770   8.474  0.3992  1.6668  2.7414
   78MOL0     H10285   1.192   6.731   8.387 -1.3576  1.9884  0.8461
   78MOL0     H10286   1.421   6.481   8.654 -0.2735  0.0607 -0.1445
   78MOL0     H10287   1.538   6.542   8.557 -0.9035  0.9086  3.7561
   78MOL0     H10288   1.570   6.305   8.540 -0.3442 -0.2931  0.9098
   78MOL0     H10289   1.403   6.278   8.500  2.2756 -1.9548  3.4054
   78MOL0     H10290   1.627   6.427   8.347  0.6727 -1.1728  2.0382
   78MOL0     H10291   1.458   6.419   8.289 -2.0843 -0.9720  0.6793
   78MOL0     H10292   1.661   6.184   8.323 -0.5113 -0.2963 -0.4980
   78MOL0     H10293   1.476   6.172   8.320 -2.1813  3.1609 -0.4979
   78MOL0     H10294   1.547   6.247   7.920 -2.3117 -0.9964  0.0330
   78MOL0     H10295   1.213   6.373   8.590  1.4761 -0.2209 -1.5140
   78MOL0     H10296   0.991   6.401   8.684  2.4780  1.3108  2.5463
   79MOL0     O10297   0.953   6.983   8.324  0.0810  0.7104 -0.8939
   79MOL0     C10298   0.902   7.025   8.222 -0.9328  0.1656  0.1130
   79MOL0     O10299   0.772   7.062   8.205 -0.5912 -0.6465  0.6801
   79MOL0     C10300   0.676   7.052   8.304 -0.1031 -0.2424 -0.7022
   79MOL0     C10301   0.694   7.050   8.439 -0.2556  0.6786 -0.5739
   79MOL0     C10302   0.586   7.035   8.524 -0.1476 -0.8268  0.3983
   79MOL0     C10303   0.455   7.040   8.484 -0.2976  0.7766  0.3906
   79MOL0     O10304   0.350   7.044   8.583  0.2460 -0.6461 -0.4979
   79MOL0     C10305   0.219   7.085   8.530 -0.5231  0.1875  0.2857
   79MOL0     C10306   0.201   7.234   8.480 -0.1276  0.0031  0.4334
   79MOL0     C10307   0.288   7.337   8.563  0.3650  0.1758  0.3122
   79MOL0     C10308   0.204   7.405   8.665 -0.2053 -0.2780 -0.8905
   79MOL0     C10309   0.277   7.527   8.716  0.5427 -1.3240 -0.1563
   79MOL0     C10310   0.203   7.584   8.841  0.9757  0.8623  0.2275
   79MOL0     C10311   0.064   7.658   8.840  0.2735  0.5186 -0.1876
   79MOL0     C10312   0.059   7.767   8.738  0.0768 -1.0252  0.8924
   79MOL0     N10313  -0.051   7.859   8.774 -0.9625 -0.4189 -0.0218
   79MOL0     C10314  -0.183   7.840   8.730 -0.2020  0.6289 -0.2882
   79MOL0     C10315  -0.246   7.963   8.739 -0.1289 -0.4842 -0.4380
   79MOL0     C10316  -0.377   8.024   8.721  0.6075  0.5958 -0.4509
   79MOL0     C10317  -0.488   7.933   8.740  0.2596  1.2438 -0.2461
   79MOL0     C10318  -0.632   7.983   8.696  1.3989  0.9299  0.0651
   79MOL0     C10319  -0.751   7.882   8.722  0.3892 -0.3473 -0.3010
   79MOL0     O10320  -0.870   7.914   8.642  0.6889  0.4492 -0.5339
   79MOL0     C10321  -0.974   7.983   8.698 -0.0516 -0.8777  0.1719
   79MOL0     C10322  -1.015   7.973   8.834 -0.4874  0.3021 -1.3366
   79MOL0     C10323  -1.134   8.035   8.885 -0.3265 -0.0396 -0.0569
   79MOL0     C10324  -1.203   8.116   8.798 -0.3752  0.0390  0.2694
   79MOL0     C10325  -1.327   8.179   8.851 -0.8956  0.4027 -0.0650
   79MOL0     O10326  -1.376   8.138   8.970 -0.5806 -0.1728  0.7503
   79MOL0     C10327  -1.499   8.177   9.023 -0.8999  0.2990 -0.0077
   79MOL0     C10328  -1.495   8.200   9.159 -0.2880 -0.4893 -0.9611
   79MOL0     C10329  -1.621   8.206   9.231  0.1931  1.0241 -0.0983
   79MOL0     C10330  -1.746   8.180   9.163  0.3967  0.4419 -0.9521
   79MOL0     O10331  -1.875   8.167   9.212  0.0972  0.0014  0.0858
   79MOL0     C10332  -1.907   8.208   9.350  0.2350 -0.1696 -0.2018
   79MOL0     C10333  -2.035   8.157   9.394 -0.7865 -0.0529 -0.4184
   79MOL0     C10334  -2.156   8.239   9.341 -0.5331 -0.4062 -0.1682
   79MOL0     C10335  -2.277   8.219   9.433  0.1054  0.1047 -0.2572
   79MOL0     C10336  -2.408   8.255   9.371 -0.0391  0.0996  0.0050
   79MOL0     C10337  -2.525   8.233   9.455  0.3285 -0.9794  1.4155
   79MOL0     C10338  -2.661   8.259   9.384  0.0747  0.4371 -0.0824
   79MOL0     C10339  -2.766   8.158   9.438  1.0186 -0.4698 -0.5566
   79MOL0    Cl10340  -2.924   8.193   9.353 -0.0838  0.0776  0.2641
   79MOL0     C10341  -1.738   8.165   9.026 -0.9953 -0.0253  0.0211
   79MOL0     C10342  -1.620   8.164   8.961 -0.8697 -0.4785 -0.3792
   79MOL0     O10343  -1.394   8.246   8.772  0.1489  0.2725 -0.0900
   79MOL0     C10344  -1.167   8.133   8.668 -0.3752 -0.1530  0.1226
   79MOL0     C10345  -1.058   8.070   8.616 -1.0560 -0.1203 -0.1334
   79MOL0     N10346  -0.143   8.053   8.757 -1.0537  0.1161 -0.1130
   79MOL0     N10347  -0.029   7.990   8.778 -0.0746 -0.0572 -0.3740
   79MOL0     C10348   0.437   7.046   8.341 -0.6785 -1.0882 -0.0684
   79MOL0     C10349   0.547   7.059   8.254 -0.2035 -0.4232  0.1395
   79MOL0     C10350   0.986   7.021   8.103 -0.0187 -0.3143 -0.1913
   79MOL0     C10351   1.117   6.966   8.105 -0.4329 -0.0986  0.1210
   79MOL0     C10352   1.195   6.968   7.987 -0.7661 -0.3727 -0.1612
   79MOL0     C10353   1.152   7.038   7.869 -1.6247  0.3410 -0.5522
   79MOL0     O10354   1.234   7.069   7.760 -0.1992 -0.5189 -0.5112
   79MOL0     C10355   1.378   7.064   7.785 -0.5906  1.0300 -0.5348
   79MOL0     C10356   1.428   6.945   7.698 -0.2755 -0.6926  0.1067
   79MOL0     C10357   1.585   6.950   7.696  0.7496  0.7886  0.3158
   79MOL0     C10358   1.645   7.072   7.627 -0.0552 -0.3403  0.6237
   79MOL0     C10359   1.789   7.061   7.615 -0.6989  0.1403  0.0848
   79MOL0     C10360   1.908   7.035   7.611 -0.0064 -0.3510 -0.0859
   79MOL0     C10361   1.028   7.091   7.874  0.2616 -0.8335  0.3135
   79MOL0     C10362   0.944   7.074   7.988  0.9126  0.2275 -0.6492
   79MOL0     H10363   0.789   7.035   8.488 -0.2806  2.2538 -0.0024
   79MOL0     H10364   0.608   7.006   8.626 -0.8561 -2.6110  0.0812
   79MOL0     H10365   0.146   7.079   8.612 -2.2348  0.7115 -1.1443
   79MOL0     H10366   0.175   7.016   8.458 -1.8024  2.7223 -1.5188
   79MOL0     H10367   0.093   7.250   8.481  0.1970  2.8909 -0.7869
   79MOL0     H10368   0.239   7.226   8.378  3.0675 -0.3396  1.5349
   79MOL0     H10369   0.321   7.411   8.491 -0.4006 -0.3387 -0.5972
   79MOL0     H10370   0.384   7.297   8.597  0.6308 -0.0748 -0.6981
   79MOL0     H10371   0.109   7.433   8.618 -2.3744 -3.8850  0.9065
   79MOL0     H10372   0.193   7.336   8.749  2.2173  0.1108 -0.1629
   79MOL0     H10373   0.282   7.604   8.639 -0.4021 -0.4579  0.6247
   79MOL0     H10374   0.379   7.497   8.742  0.8736  1.6231  2.4301
   79MOL0     H10375   0.279   7.649   8.885  1.2669  1.7149 -1.4687
   79MOL0     H10376   0.204   7.507   8.918  0.9576  0.7124  0.0786
   79MOL0     H10377  -0.016   7.585   8.826 -0.9080  1.5532  0.9965
   79MOL0     H10378   0.056   7.701   8.940 -2.0890  1.0893 -0.5634
   79MOL0     H10379   0.032   7.725   8.640 -0.1859 -1.0450  0.9712
   79MOL0     H10380   0.155   7.819   8.743  0.8608 -2.3596  0.2119
   79MOL0     H10381  -0.230   7.742   8.727  1.1252 -0.1726  1.8953
   79MOL0     H10382  -0.383   8.049   8.614 -1.6710 -2.1923 -1.1103
   79MOL0     H10383  -0.392   8.109   8.788  0.9280  0.4469 -0.1895
   79MOL0     H10384  -0.490   7.904   8.846 -1.1046  2.0459 -0.0298
   79MOL0     H10385  -0.471   7.839   8.687 -4.4514  1.4430 -2.5936
   79MOL0     H10386  -0.656   8.073   8.754  0.0902 -1.0040  2.6835
   79MOL0     H10387  -0.625   8.007   8.589  0.5723  0.2282 -0.1527
   79MOL0     H10388  -0.773   7.865   8.828  0.2908  1.2447 -0.0409
   79MOL0     H10389  -0.718   7.786   8.680 -1.0732 -1.2807  0.5951
   79MOL0     H10390  -0.951   7.920   8.904 -1.6648  1.0910  0.3934
   79MOL0     H10391  -1.163   8.026   8.989  2.0333 -1.3036  0.5557
   79MOL0     H10392  -1.403   8.215   9.214 -2.1549  2.1216  1.7107
   79MOL0     H10393  -1.615   8.212   9.339  1.3295 -2.1139  0.1128
   79MOL0     H10394  -1.914   8.317   9.363  0.7742 -0.5686  5.9031
   79MOL0     H10395  -1.822   8.170   9.407  0.9724  2.0593  0.2758
   79MOL0     H10396  -2.029   8.164   9.503  1.3764  1.7214 -0.5915
   79MOL0     H10397  -2.050   8.053   9.363  2.8844 -0.6132 -0.7873
   79MOL0     H10398  -2.167   8.211   9.236  0.7189  0.5487 -0.5802
   79MOL0     H10399  -2.146   8.348   9.339 -1.8688 -0.2615  0.0520
   79MOL0     H10400  -2.279   8.113   9.456 -2.1180 -0.0552 -0.9926
   79MOL0     H10401  -2.266   8.279   9.523 -0.3328  0.1486 -0.2310
   79MOL0     H10402  -2.429   8.195   9.282 -2.1502  0.1930  0.3816
   79MOL0     H10403  -2.410   8.356   9.331  2.3342 -0.0785 -0.7378
   79MOL0     H10404  -2.519   8.284   9.551  2.7933 -0.0532  0.8260
   79MOL0     H10405  -2.529   8.125   9.474 -2.2065 -0.4074  5.4927
   79MOL0     H10406  -2.692   8.363   9.395 -2.9885 -0.5552  1.6702
   79MOL0     H10407  -2.641   8.233   9.280  0.5428 -2.2937  0.6164
   79MOL0     H10408  -2.786   8.172   9.545  2.1713  0.2932 -0.4240
   79MOL0     H10409  -2.737   8.053   9.432 -3.4626 -1.8786 -0.9535
   79MOL0     H10410  -1.827   8.149   8.966 -1.2655  0.9167  0.1637
   79MOL0     H10411  -1.624   8.134   8.857  0.4262 -0.1137 -0.5453
   79MOL0     H10412  -1.232   8.188   8.601  1.1839 -1.2587 -2.4161
   79MOL0     H10413  -1.026   8.086   8.514  1.0113 -0.2728  0.4275
   79MOL0     H10414   0.338   7.048   8.295 -0.2566 -0.9649 -0.9997
   79MOL0     H10415   0.537   7.075   8.147  0.0481  0.4646  0.2392
   79MOL0     H10416   1.155   6.926   8.198  0.3463  0.9079  0.2598
   79MOL0     H10417   1.293   6.926   8.006 -0.9385 -0.0230  1.6589
   79MOL0     H10418   1.410   7.060   7.890 -0.4304  5.4482 -0.2520
   79MOL0     H10419   1.416   7.156   7.740 -1.1014  0.6655 -1.7584
   79MOL0     H10420   1.399   6.851   7.746  1.3690  0.0242  2.7466
   79MOL0     H10421   1.391   6.954   7.595 -0.2597  1.5288  0.2629
   79MOL0     H10422   1.619   6.859   7.647 -1.6183  0.1545 -0.2754
   79MOL0     H10423   1.621   6.954   7.799 -1.6170 -0.0176  1.2611
   79MOL0     H10424   1.592   7.079   7.532 -1.6670 -2.3022  1.3187
   79MOL0     H10425   1.617   7.166   7.674 -2.1166 -1.5456  1.9335
   79MOL0     H10426   2.015   7.027   7.605  0.1660  0.9272  1.0920
   79MOL0     H10427   0.989   7.155   7.795  2.2062 -1.8409 -1.5779
   79MOL0     H10428   0.844   7.116   7.995  1.1245  0.5022  1.6178
   80MOL0     O10429   2.728   2.359   1.076 -0.0411  0.4738 -0.9450
   80MOL0     C10430   2.724   2.270   1.162 -0.5293 -0.6383 -0.4943
   80MOL0     O10431   2.618   2.206   1.204  0.1002 -0.2127  0.0042
   80MOL0     C10432   2.494   2.219   1.149  0.0703 -1.0665 -0.7792
   80MOL0     C10433   2.383   2.159   1.212  0.5315  0.7227  0.1709
   80MOL0     C10434   2.257   2.168   1.159  0.1996  0.2317 -1.1416
   80MOL0     C10435   2.231   2.222   1.036  1.1116  0.4465  0.0029
   80MOL0     O10436   2.107   2.205   0.979  0.3855  0.7709  0.3562
   80MOL0     C10437   2.026   2.093   1.026  1.2709  0.0330 -0.8515
   80MOL0     C10438   1.884   2.079   0.945  0.1695 -0.1003 -2.0344
   80MOL0     C10439   1.908   2.043   0.804  0.3459 -0.2738 -0.7743
   80MOL0     C10440   1.779   2.058   0.728 -0.1104  0.7511  0.5359
   80MOL0     C10441   1.790   2.023   0.575 -0.1455 -0.1885 -0.5280
   80MOL0     C10442   1.655   2.017   0.497 -0.3450 -0.3295  0.4272
   80MOL0     C10443   1.552   1.925   0.554  0.0356 -1.0946 -1.1703
   80MOL0     C10444   1.599   1.779   0.577  0.0878 -0.0794  0.3613
   80MOL0     N10445   1.488   1.715   0.646 -0.5310 -0.7601 -0.0707
   80MOL0     C10446   1.490   1.666   0.775 -0.4046  0.7418 -0.1538
   80MOL0     C10447   1.365   1.619   0.798  0.4401 -0.1966 -0.1867
   80MOL0     C10448   1.298   1.547   0.921  0.0224 -0.4646  0.6527
   80MOL0     C10449   1.176   1.629   0.967  0.0103  0.3202 -0.4941
   80MOL0     C10450   1.110   1.560   1.093 -0.4733 -0.5764  0.2954
   80MOL0     C10451   0.961   1.617   1.111  0.2711 -0.3088 -0.0198
   80MOL0     O10452   0.876   1.567   1.000  0.6643  0.1854 -0.2979
   80MOL0     C10453   0.755   1.618   0.963 -0.7225  0.1690 -0.5427
   80MOL0     C10454   0.654   1.532   0.960 -0.1794 -0.0249  0.3111
   80MOL0     C10455   0.529   1.584   0.928 -0.0680 -0.5663 -0.3746
   80MOL0     C10456   0.504   1.721   0.913 -0.2484 -0.5003 -0.1899
   80MOL0     C10457   0.367   1.761   0.898 -0.9213 -0.3111 -0.7130
   80MOL0     O10458   0.284   1.672   0.841  0.2802  0.0289  0.6467
   80MOL0     C10459   0.146   1.674   0.870 -0.4471  0.0461  0.1056
   80MOL0     C10460   0.049   1.675   0.762  0.2710  0.1616  0.6051
   80MOL0     C10461  -0.088   1.674   0.793 -1.0631 -0.2006 -0.2252
   80MOL0     C10462  -0.125   1.651   0.926  0.7729 -0.9849 -0.1073
   80MOL0     O10463  -0.261   1.664   0.960 -0.4624 -0.4456 -0.8671
   80MOL0     C10464  -0.355   1.594   0.878  0.6978 -0.0543 -0.0027
   80MOL0     C10465  -0.477   1.551   0.955  0.3257  0.3358 -0.0604
   80MOL0     C10466  -0.561   1.468   0.863 -1.1650 -0.4876  0.7485
   80MOL0     C10467  -0.644   1.552   0.770  0.5608  0.6323 -0.0091
   80MOL0     C10468  -0.764   1.463   0.712 -0.1903  0.9497 -0.5563
   80MOL0     C10469  -0.861   1.553   0.628  0.1693 -0.1568 -0.0473
   80MOL0     C10470  -0.968   1.462   0.559 -0.1095 -0.4525 -0.0171
   80MOL0     C10471  -1.059   1.389   0.663 -0.3769  0.0063  0.6279
   80MOL0    Cl10472  -1.231   1.432   0.639  0.0662 -0.4762  0.0022
   80MOL0     C10473  -0.035   1.637   1.033  0.4006  0.0427 -0.6397
   80MOL0     C10474   0.103   1.652   1.005  1.4480  0.5299 -0.0891
   80MOL0     O10475   0.344   1.871   0.951  0.9133  0.0490 -0.1086
   80MOL0     C10476   0.607   1.809   0.903  0.5786 -0.4078 -0.4696
   80MOL0     C10477   0.737   1.752   0.928  0.1327 -0.8448  0.3942
   80MOL0     N10478   1.296   1.632   0.679  1.0843 -0.1180 -0.5491
   80MOL0     N10479   1.364   1.701   0.598 -0.3929  0.1367  0.3606
   80MOL0     C10480   2.333   2.283   0.971 -0.8810 -0.6175 -0.3920
   80MOL0     C10481   2.464   2.277   1.022 -0.6814  0.0103 -0.3420
   80MOL0     C10482   2.856   2.237   1.227  0.3340  0.6696 -0.1776
   80MOL0     C10483   2.886   2.111   1.280 -0.2010  0.2150  0.1705
   80MOL0     C10484   3.013   2.075   1.330 -0.0448 -0.0145 -0.9729
   80MOL0     C10485   3.115   2.162   1.322 -0.3076 -0.1893 -0.2522
   80MOL0     O10486   3.233   2.106   1.359  0.1268  1.1556  0.1233
   80MOL0     C10487   3.341   2.185   1.350  0.3600  0.2150  0.7903
   80MOL0     C10488   3.457   2.112   1.436 -0.0156  0.2445 -0.0990
   80MOL0     C10489   3.501   1.974   1.405 -0.6308  0.0793 -0.2329
   80MOL0     C10490   3.598   1.901   1.511 -1.0808 -0.5066 -0.0929
   80MOL0     C10491   3.519   1.866   1.630  0.6139 -0.5213 -0.1153
   80MOL0     C10492   3.451   1.840   1.722 -0.6021  0.7311  0.4675
   80MOL0     C10493   3.088   2.294   1.267 -0.2857 -0.8688 -0.7913
   80MOL0     C10494   2.957   2.331   1.223 -0.1293 -1.1641  0.3302
   80MOL0     H10495   2.408   2.113   1.307  0.0682  1.8381  0.8512
   80MOL0     H10496   2.181   2.117   1.218 -0.1003  0.0209 -1.7020
   80MOL0     H10497   2.002   2.105   1.132 -2.5015 -0.3509 -1.5274
   80MOL0     H10498   2.078   2.000   1.002  2.7433  0.6078  0.0333
   80MOL0     H10499   1.834   2.175   0.958  2.8680  1.5462 -3.0490
   80MOL0     H10500   1.818   2.007   0.996  1.1380  1.3573  1.5420
   80MOL0     H10501   1.948   1.942   0.793 -0.4315 -0.9297  1.7646
   80MOL0     H10502   1.971   2.120   0.758  2.8830 -0.9376  1.3364
   80MOL0     H10503   1.718   1.987   0.785  1.7705  0.3552  2.2053
   80MOL0     H10504   1.744   2.161   0.737 -0.2886  0.9204 -1.6636
   80MOL0     H10505   1.837   1.927   0.555 -0.6659 -0.4680 -0.4158
   80MOL0     H10506   1.834   2.107   0.519  0.2098 -0.5263 -0.7561
   80MOL0     H10507   1.675   1.989   0.393  2.7943  0.3329  0.7484
   80MOL0     H10508   1.605   2.114   0.487  1.3557  0.7177  1.5952
   80MOL0     H10509   1.502   1.975   0.638  0.3984 -0.1703 -1.4919
   80MOL0     H10510   1.479   1.915   0.473 -0.0880 -0.6308 -1.1217
   80MOL0     H10511   1.688   1.779   0.641  2.2434  1.1302 -2.3975
   80MOL0     H10512   1.610   1.723   0.483  0.6306  0.3710  0.1460
   80MOL0     H10513   1.578   1.660   0.838 -0.7545 -0.2255  0.2647
   80MOL0     H10514   1.359   1.522   1.008 -1.2744 -0.8578  1.4848
   80MOL0     H10515   1.258   1.452   0.886 -1.2433 -0.6071  2.3745
   80MOL0     H10516   1.099   1.632   0.889  0.7262 -3.6876 -1.5916
   80MOL0     H10517   1.215   1.726   0.997  0.4994 -0.0761  0.1755
   80MOL0     H10518   1.121   1.451   1.101 -0.0421 -0.5449  0.1359
   80MOL0     H10519   1.174   1.590   1.176  2.5177 -1.9722 -1.3163
   80MOL0     H10520   0.966   1.725   1.122  0.6037 -0.4399  1.1485
   80MOL0     H10521   0.917   1.581   1.205  3.1672  1.8523  2.3313
   80MOL0     H10522   0.666   1.427   0.986  2.0198 -0.0100 -0.4737
   80MOL0     H10523   0.454   1.506   0.934 -1.5680  0.8949  1.2820
   80MOL0     H10524   0.079   1.706   0.663 -0.4264 -2.5603 -0.5547
   80MOL0     H10525  -0.164   1.697   0.719  0.7079  0.3199 -1.9515
   80MOL0     H10526  -0.316   1.500   0.837 -3.4001 -0.8035 -2.7561
   80MOL0     H10527  -0.376   1.666   0.798  0.6301 -2.1320 -1.9429
   80MOL0     H10528  -0.539   1.633   0.994  0.9901  0.8181  0.0127
   80MOL0     H10529  -0.446   1.490   1.040  2.5692 -0.2910 -1.2438
   80MOL0     H10530  -0.643   1.414   0.911 -1.5738  0.2474  0.9058
   80MOL0     H10531  -0.497   1.405   0.802 -2.1051  1.2856 -2.2780
   80MOL0     H10532  -0.681   1.648   0.806  0.6879  0.5900  0.2381
   80MOL0     H10533  -0.588   1.575   0.679  0.1335  1.4074 -0.0861
   80MOL0     H10534  -0.826   1.427   0.795 -1.3775  3.5107 -0.2210
   80MOL0     H10535  -0.712   1.388   0.652  1.2436 -0.0096  1.7350
   80MOL0     H10536  -0.803   1.618   0.561  4.1126 -0.7493  2.4751
   80MOL0     H10537  -0.923   1.622   0.686 -0.0861  2.6693 -3.3417
   80MOL0     H10538  -1.023   1.529   0.493 -1.7486  0.4689  2.1391
   80MOL0     H10539  -0.905   1.401   0.494  2.1835  0.3894  1.3106
   80MOL0     H10540  -1.041   1.437   0.760  1.6471 -1.7216  1.1812
   80MOL0     H10541  -1.043   1.280   0.664  0.9963  0.1696 -0.4627
   80MOL0     H10542  -0.061   1.630   1.138 -0.1551 -2.3899 -0.8690
   80MOL0     H10543   0.174   1.649   1.086  0.6487 -0.4681  0.5969
   80MOL0     H10544   0.590   1.916   0.890  1.0893 -0.1328  0.9966
   80MOL0     H10545   0.821   1.820   0.937 -2.5501  2.4505  3.8917
   80MOL0     H10546   2.321   2.337   0.877  2.1094  2.0329  0.5690
   80MOL0     H10547   2.539   2.326   0.961  0.4074  0.2176  1.1040
   80MOL0     H10548   2.809   2.035   1.281 -0.8684  0.8918  0.6748
   80MOL0     H10549   3.039   1.982   1.380  2.2649  0.8632 -0.3601
   80MOL0     H10550   3.319   2.284   1.390 -0.9719  0.2354  0.0692
   80MOL0     H10551   3.377   2.194   1.247  1.1735 -2.0553  0.8156
   80MOL0     H10552   3.554   2.164   1.430 -0.4983  1.2566  0.6471
   80MOL0     H10553   3.423   2.125   1.539  0.1554  1.7032 -0.2028
   80MOL0     H10554   3.552   1.970   1.308  1.5666 -3.6819  0.8384
   80MOL0     H10555   3.413   1.910   1.397 -0.3307 -0.5363  1.2063
   80MOL0     H10556   3.631   1.804   1.472 -0.2181 -0.0009 -0.6448
   80MOL0     H10557   3.681   1.961   1.548  1.4590 -2.0258 -2.8969
   80MOL0     H10558   3.387   1.812   1.803  1.8098 -2.2658  1.5558
   80MOL0     H10559   3.167   2.368   1.259  0.7146 -2.0300 -2.2412
   80MOL0     H10560   2.935   2.429   1.183  0.0389 -0.5310  1.7222
   81MOL0     O10561   8.259   5.585   2.561  0.3782  0.5710  0.1174
   81MOL0     C10562   8.264   5.461   2.579  0.2385  0.2323 -0.8807
   81MOL0     O10563   8.159   5.377   2.560 -0.9447 -0.5548 -0.4659
   81MOL0     C10564   8.042   5.444   2.522  0.6453  0.3952 -0.1483
   81MOL0     C10565   7.920   5.434   2.594 -0.1350 -0.2105 -1.1620
   81MOL0     C10566   7.808   5.487   2.534 -0.3180  0.0235  0.7144
   81MOL0     C10567   7.810   5.537   2.403 -0.4841 -0.3221  0.5152
   81MOL0     O10568   7.694   5.576   2.342  0.3795  1.0147 -0.7146
   81MOL0     C10569   7.646   5.492   2.233 -0.4731 -0.0453 -0.1477
   81MOL0     C10570   7.557   5.374   2.292 -1.0200  0.0139  0.0110
   81MOL0     C10571   7.410   5.407   2.283 -0.6916  0.8189 -0.4283
   81MOL0     C10572   7.365   5.542   2.334 -0.8619 -0.8816  0.5393
   81MOL0     C10573   7.216   5.569   2.319  0.3490 -0.1102 -0.3016
   81MOL0     C10574   7.181   5.712   2.273  0.2264  0.6884  0.9049
   81MOL0     C10575   7.034   5.721   2.216  0.2427 -0.5090 -0.1358
   81MOL0     C10576   6.919   5.708   2.320 -0.5362  1.3013 -0.3555
   81MOL0     N10577   6.788   5.708   2.243 -0.4064  0.3033 -0.1358
   81MOL0     C10578   6.727   5.603   2.190  0.1134 -0.0336 -0.1990
   81MOL0     C10579   6.610   5.662   2.153  0.9361  0.0950  0.5410
   81MOL0     C10580   6.490   5.604   2.082  0.6617 -0.6340 -0.0737
   81MOL0     C10581   6.376   5.579   2.181 -0.0116  0.4973  0.7361
   81MOL0     C10582   6.267   5.516   2.092  0.2437  0.5626 -0.0983
   81MOL0     C10583   6.141   5.489   2.185 -0.0431 -0.8668 -0.5369
   81MOL0     O10584   6.076   5.615   2.230  0.2265  0.3031 -0.5029
   81MOL0     C10585   5.947   5.626   2.282 -0.1849 -1.3841 -0.3395
   81MOL0     C10586   5.850   5.523   2.300 -1.2958 -0.0618  0.4345
   81MOL0     C10587   5.723   5.548   2.338 -0.0631 -0.4628  0.6176
   81MOL0     C10588   5.677   5.678   2.354 -0.2916  0.1025  0.2413
   81MOL0     C10589   5.537   5.700   2.381  0.1567  0.4098 -0.2617
   81MOL0     O10590   5.489   5.829   2.372  0.0878  0.2006 -0.5870
   81MOL0     C10591   5.362   5.859   2.419  1.1967 -0.2987  0.5706
   81MOL0     C10592   5.268   5.921   2.333 -0.2668  0.1052  0.0876
   81MOL0     C10593   5.145   5.972   2.385  0.0683  1.1157 -0.5518
   81MOL0     C10594   5.105   5.933   2.515 -0.5413  0.3043 -0.0703
   81MOL0     O10595   4.973   5.929   2.562  0.3404  0.5782  0.6477
   81MOL0     C10596   4.874   5.865   2.479 -1.1847  0.0954  0.6350
   81MOL0     C10597   4.755   5.826   2.567 -0.9803 -0.2340  1.0480
   81MOL0     C10598   4.629   5.787   2.480  1.5475  0.3709 -0.8554
   81MOL0     C10599   4.512   5.732   2.573 -0.7519 -1.3877  0.8936
   81MOL0     C10600   4.387   5.688   2.495 -0.5331  0.3317  0.2120
   81MOL0     C10601   4.267   5.687   2.588 -0.3588 -0.0043 -0.0081
   81MOL0     C10602   4.129   5.677   2.520  0.2003  0.8670  0.1387
   81MOL0     C10603   4.082   5.538   2.500 -0.2274 -0.0905 -0.3169
   81MOL0    Cl10604   3.908   5.520   2.478  0.2931  0.1385 -0.3246
   81MOL0     C10605   5.201   5.870   2.602 -0.3407 -0.3050 -0.4179
   81MOL0     C10606   5.325   5.831   2.551 -0.4459  0.4413 -0.6483
   81MOL0     O10607   5.470   5.607   2.429 -0.4111  0.1192 -0.5431
   81MOL0     C10608   5.771   5.780   2.358 -0.3335  0.2212 -0.4199
   81MOL0     C10609   5.906   5.753   2.323  0.5087 -0.3256 -0.9042
   81MOL0     N10610   6.604   5.796   2.188 -0.6062  0.0808 -0.1186
   81MOL0     N10611   6.713   5.822   2.238  0.3532 -0.6911  0.2676
   81MOL0     C10612   7.935   5.534   2.330 -0.0197 -0.1487 -0.0760
   81MOL0     C10613   8.045   5.496   2.395  0.3414  0.2423  0.4022
   81MOL0     C10614   8.390   5.394   2.599 -0.1880  0.2481  0.0380
   81MOL0     C10615   8.508   5.457   2.617 -0.5285  0.0510  0.2791
   81MOL0     C10616   8.630   5.402   2.628 -0.5446 -0.0017 -1.3488
   81MOL0     C10617   8.644   5.259   2.623  0.1008 -0.3178 -0.4410
   81MOL0     O10618   8.774   5.196   2.629  0.4752 -0.4818 -0.0394
   81MOL0     C10619   8.789   5.055   2.662 -0.1624  0.0902  0.2745
   81MOL0     C10620   8.931   5.032   2.725 -0.6742 -0.5885 -0.1459
   81MOL0     C10621   9.024   5.027   2.603 -0.2933  0.6684 -0.1616
   81MOL0     C10622   9.168   5.005   2.670  0.5823  0.2414  0.5726
   81MOL0     C10623   9.284   5.030   2.583  0.3556 -0.6152  0.1361
   81MOL0     C10624   9.379   5.030   2.511 -0.2058 -1.0640  0.4183
   81MOL0     C10625   8.524   5.195   2.596  0.8458  0.0631 -0.5223
   81MOL0     C10626   8.404   5.254   2.585 -0.4778 -0.0916 -0.2952
   81MOL0     H10627   7.918   5.391   2.694  0.6382  2.5453  0.1451
   81MOL0     H10628   7.707   5.477   2.572 -0.8601 -3.3679 -1.1889
   81MOL0     H10629   7.728   5.465   2.166  0.3320  1.6088  0.1157
   81MOL0     H10630   7.576   5.550   2.173 -3.4858 -3.6636 -0.5357
   81MOL0     H10631   7.593   5.350   2.393  1.8680 -0.5289 -1.0499
   81MOL0     H10632   7.576   5.283   2.235 -1.5254 -0.6322  0.8440
   81MOL0     H10633   7.350   5.339   2.343 -0.1500  2.7248  2.4780
   81MOL0     H10634   7.388   5.396   2.176  1.8237 -0.4453 -0.8854
   81MOL0     H10635   7.395   5.554   2.438 -3.0839 -0.6927  1.2178
   81MOL0     H10636   7.416   5.613   2.268  2.5175 -0.9050  2.8959
   81MOL0     H10637   7.174   5.542   2.416  2.0167 -1.7775  0.0221
   81MOL0     H10638   7.174   5.493   2.251  1.2467  0.4211 -1.4867
   81MOL0     H10639   7.254   5.738   2.196 -2.2890 -0.6122 -2.1163
   81MOL0     H10640   7.182   5.779   2.360 -2.4020  2.2051 -0.1329
   81MOL0     H10641   7.022   5.811   2.156 -3.8170  0.0133  1.1610
   81MOL0     H10642   7.018   5.643   2.141  3.2676 -0.6685 -0.7647
   81MOL0     H10643   6.913   5.782   2.400  0.1658  0.9574  0.0246
   81MOL0     H10644   6.927   5.618   2.381 -2.2983  0.6717 -1.0023
   81MOL0     H10645   6.755   5.499   2.180 -1.9148 -0.6872  0.5103
   81MOL0     H10646   6.516   5.511   2.031 -0.2006 -0.1372 -1.4584
   81MOL0     H10647   6.468   5.674   2.001  1.9733 -0.4181 -0.2729
   81MOL0     H10648   6.343   5.671   2.230 -0.2006  1.1937 -0.6295
   81MOL0     H10649   6.405   5.505   2.255  3.3427  1.3736  0.4648
   81MOL0     H10650   6.248   5.573   2.000  1.6533  1.5621  0.1955
   81MOL0     H10651   6.293   5.415   2.061 -3.4507 -0.0067 -1.8376
   81MOL0     H10652   6.160   5.438   2.280 -2.8465  2.0511  1.8155
   81MOL0     H10653   6.073   5.430   2.123  2.2627 -1.1663 -2.9973
   81MOL0     H10654   5.869   5.418   2.282 -0.9352  0.1782 -0.6379
   81MOL0     H10655   5.655   5.463   2.344 -3.9841  2.1369 -1.8662
   81MOL0     H10656   5.297   5.944   2.232 -0.8361  0.0220 -0.1001
   81MOL0     H10657   5.082   6.033   2.321 -1.4689  0.3881  0.1972
   81MOL0     H10658   4.923   5.777   2.437  0.0987  0.4136  1.3844
   81MOL0     H10659   4.847   5.932   2.397 -1.2806 -1.0798 -0.3133
   81MOL0     H10660   4.745   5.918   2.626  0.5876 -0.8043  2.2890
   81MOL0     H10661   4.774   5.747   2.640  2.5774  0.3271  0.8981
   81MOL0     H10662   4.655   5.701   2.418  3.5390 -0.0140  0.4216
   81MOL0     H10663   4.591   5.871   2.420  2.4669  1.7356  0.3849
   81MOL0     H10664   4.564   5.653   2.629  0.7693 -1.3367 -0.3719
   81MOL0     H10665   4.488   5.813   2.642 -1.7776 -0.9409  0.0339
   81MOL0     H10666   4.394   5.585   2.458 -1.8800  0.2037  0.2353
   81MOL0     H10667   4.367   5.754   2.410 -1.2456 -0.8807 -0.5928
   81MOL0     H10668   4.253   5.788   2.629  0.9016  1.2854 -2.5483
   81MOL0     H10669   4.301   5.620   2.668 -2.0408 -2.6771 -1.3711
   81MOL0     H10670   4.058   5.743   2.570 -0.1783  2.4551 -2.3325
   81MOL0     H10671   4.143   5.728   2.424 -1.3604  0.0057 -0.5836
   81MOL0     H10672   4.112   5.488   2.592  1.4236  2.1481  0.4463
   81MOL0     H10673   4.129   5.494   2.411  0.3220 -2.0151  0.8743
   81MOL0     H10674   5.182   5.847   2.706 -4.2004 -0.0322 -0.8796
   81MOL0     H10675   5.403   5.782   2.608 -0.1994 -0.3293 -1.6079
   81MOL0     H10676   5.738   5.875   2.399 -3.0561 -0.6387 -0.3854
   81MOL0     H10677   5.980   5.833   2.324 -0.6817  0.8378  1.4669
   81MOL0     H10678   7.940   5.579   2.232  0.2851  1.2823  0.5731
   81MOL0     H10679   8.136   5.502   2.336 -0.1148  1.3892 -0.2000
   81MOL0     H10680   8.515   5.565   2.631  0.6464  0.0521 -0.2024
   81MOL0     H10681   8.725   5.445   2.658 -0.1947 -2.8185  2.3465
   81MOL0     H10682   8.766   4.982   2.583  1.3079 -0.6212  0.4704
   81MOL0     H10683   8.718   5.039   2.744 -0.7558 -0.2861 -0.2953
   81MOL0     H10684   8.970   5.106   2.794  1.8622 -1.9071 -0.0600
   81MOL0     H10685   8.931   4.938   2.781  1.1579  0.1654  1.2141
   81MOL0     H10686   9.020   5.119   2.544  0.4509  0.6037 -0.3258
   81MOL0     H10687   8.999   4.938   2.544 -1.5181  1.9525 -1.6343
   81MOL0     H10688   9.173   5.068   2.759 -0.7561 -1.3152  1.8169
   81MOL0     H10689   9.189   4.901   2.698  1.6590 -0.4779 -2.5037
   81MOL0     H10690   9.472   5.028   2.457  0.1656  1.5325  0.8314
   81MOL0     H10691   8.530   5.087   2.592  1.0212  0.0161  0.7323
   81MOL0     H10692   8.328   5.186   2.548 -0.5204  0.1013 -0.5721
   82MOL0     O10693  10.859   6.002   5.879  0.2974 -0.2102  0.0478
   82MOL0     C10694  10.891   6.113   5.840 -0.6531 -0.9539 -0.8419
   82MOL0     O10695  10.811   6.217   5.826  0.0188  0.0830 -0.2342
   82MOL0     C10696  10.670   6.202   5.854  0.1373  0.0502 -0.1701
   82MOL0     C10697  10.620   6.136   5.971 -0.2995 -0.3781  0.1891
   82MOL0     C10698  10.482   6.110   5.998 -0.9319  0.3117  1.0484
   82MOL0     C10699  10.391   6.152   5.905  0.0993 -0.2044  0.0290
   82MOL0     O10700  10.264   6.146   5.942 -0.3502 -0.0346 -0.4746
   82MOL0     C10701  10.170   6.104   5.841  0.0842  0.2445 -0.3871
   82MOL0     C10702  10.038   6.068   5.919  0.5852 -0.8194  0.1016
   82MOL0     C10703   9.930   6.006   5.833  0.0420 -0.0047 -0.6046
   82MOL0     C10704   9.798   6.039   5.892 -0.5525  0.2463 -0.0474
   82MOL0     C10705   9.686   5.993   5.807 -1.0902  0.3343  1.1550
   82MOL0     C10706   9.563   6.064   5.821  0.2049 -0.0075  0.5419
   82MOL0     C10707   9.446   5.986   5.759  1.2371 -0.5486  0.2418
   82MOL0     C10708   9.311   6.061   5.758  0.7144  0.4527 -0.2852
   82MOL0     N10709   9.315   6.188   5.679 -0.5645  0.5240 -0.8066
   82MOL0     C10710   9.297   6.189   5.541 -1.3064  0.0691 -0.7449
   82MOL0     C10711   9.314   6.321   5.508 -0.2013  1.1963  0.0737
   82MOL0     C10712   9.334   6.380   5.374  0.1971  0.3282  0.7721
   82MOL0     C10713   9.486   6.427   5.358  0.9021  0.0388 -0.0695
   82MOL0     C10714   9.586   6.319   5.325 -0.2951 -0.0614 -0.7252
   82MOL0     C10715   9.588   6.193   5.414  0.9010 -0.2262 -0.2128
   82MOL0     O10716   9.692   6.108   5.386 -0.0187 -0.5873  0.7769
   82MOL0     C10717   9.819   6.122   5.418 -0.7304 -0.5593 -0.2618
   82MOL0     C10718   9.895   6.008   5.377 -0.2271 -0.3611 -0.3825
   82MOL0     C10719  10.035   6.015   5.383 -0.5295 -0.1418  0.3522
   82MOL0     C10720  10.096   6.125   5.452 -0.4192  0.8354  0.6865
   82MOL0     C10721  10.249   6.123   5.462  0.2380 -0.4275 -0.0232
   82MOL0     O10722  10.314   6.011   5.404 -0.3095 -0.9006  0.3029
   82MOL0     C10723  10.457   6.016   5.409  0.5974 -0.3962  0.6694
   82MOL0     C10724  10.528   5.997   5.534 -0.7591 -0.0669 -0.6831
   82MOL0     C10725  10.669   5.983   5.524 -0.4438 -0.5075 -0.3474
   82MOL0     C10726  10.737   5.991   5.408  0.2084 -0.4864  0.0429
   82MOL0     O10727  10.868   5.998   5.432 -0.7803  0.3257  0.1022
   82MOL0     C10728  10.969   6.008   5.328  0.7116 -0.7463  0.4642
   82MOL0     C10729  10.993   6.146   5.275 -0.5308  0.2593 -0.8520
   82MOL0     C10730  11.125   6.153   5.197 -0.2145 -0.4411  0.6396
   82MOL0     C10731  11.255   6.160   5.288 -0.1624 -0.3366 -0.5142
   82MOL0     C10732  11.387   6.175   5.193  0.3721 -0.2857 -0.0874
   82MOL0     C10733  11.517   6.155   5.267  0.3170 -0.0909 -0.1305
   82MOL0     C10734  11.632   6.112   5.172 -0.1883  0.1951 -1.0775
   82MOL0     C10735  11.728   6.017   5.235  0.6034  0.5464  0.3485
   82MOL0    Cl10736  11.798   6.090   5.387 -0.1669 -0.1102  0.1506
   82MOL0     C10737  10.662   6.001   5.284 -0.3107  0.3743 -0.8871
   82MOL0     C10738  10.522   6.007   5.285 -0.5992 -0.1508 -0.4149
   82MOL0     O10739  10.311   6.227   5.485 -0.1457 -0.2872  0.2465
   82MOL0     C10740  10.014   6.229   5.500 -0.0027 -0.1002  0.4998
   82MOL0     C10741   9.876   6.237   5.469 -0.0054 -0.2831  0.1332
   82MOL0     N10742   9.312   6.399   5.631 -0.2481  0.9605  0.0931
   82MOL0     N10743   9.304   6.316   5.731  0.0221 -1.2260 -0.2248
   82MOL0     C10744  10.438   6.209   5.782  0.1766 -0.3416 -0.7505
   82MOL0     C10745  10.576   6.227   5.757 -0.4216 -0.4341 -0.0838
   82MOL0     C10746  11.035   6.139   5.805 -0.4703  0.8240  0.4534
   82MOL0     C10747  11.131   6.052   5.852 -0.4777 -0.1059 -0.4542
   82MOL0     C10748  11.259   6.063   5.808 -1.8019 -0.1696 -0.0244
   82MOL0     C10749  11.295   6.167   5.725 -0.5351 -0.2668  0.5214
   82MOL0     O10750  11.429   6.192   5.691  0.3015  0.3123  0.4384
   82MOL0     C10751  11.535   6.161   5.781  0.0431 -0.7884 -0.0206
   82MOL0     C10752  11.664   6.181   5.696 -0.1840  0.7195 -0.8056
   82MOL0     C10753  11.782   6.132   5.775  0.1251  0.4413  0.7665
   82MOL0     C10754  11.870   6.241   5.849 -0.3443  0.0643  0.5268
   82MOL0     C10755  11.930   6.330   5.746  0.1386  1.1193  0.1948
   82MOL0     C10756  11.964   6.399   5.655 -0.1102  0.4373  0.2355
   82MOL0     C10757  11.199   6.263   5.682  0.2585  0.5544  0.5074
   82MOL0     C10758  11.066   6.244   5.718  0.2941 -0.0250 -0.4288
   82MOL0     H10759  10.694   6.100   6.042  0.0798 -1.0142 -0.5161
   82MOL0     H10760  10.437   6.065   6.086 -0.8082 -1.0352  0.4545
   82MOL0     H10761  10.215   6.018   5.790 -0.2723 -1.0057  1.3046
   82MOL0     H10762  10.156   6.182   5.767 -0.9326  1.1888  0.7518
   82MOL0     H10763  10.001   6.154   5.974 -0.9629 -2.2101  1.3573
   82MOL0     H10764  10.056   5.994   5.997  1.9851  0.2408  0.8178
   82MOL0     H10765   9.948   5.899   5.818  2.0235  0.4415 -1.7730
   82MOL0     H10766   9.938   6.055   5.736 -1.8417  2.2219  0.2688
   82MOL0     H10767   9.794   5.981   5.985 -0.6654  1.2565  0.5993
   82MOL0     H10768   9.789   6.146   5.911  0.7867 -0.0100  2.4537
   82MOL0     H10769   9.662   5.888   5.831 -0.0981  0.5703  3.4760
   82MOL0     H10770   9.730   5.995   5.707 -0.6505 -1.7787  1.2597
   82MOL0     H10771   9.575   6.160   5.769  0.8011 -1.2203 -1.6697
   82MOL0     H10772   9.541   6.081   5.927 -0.3779 -0.1941  0.4568
   82MOL0     H10773   9.476   5.958   5.657 -2.2056 -0.5301 -0.9132
   82MOL0     H10774   9.416   5.900   5.820 -1.7594  1.7205  2.2188
   82MOL0     H10775   9.273   6.086   5.858 -0.9266 -2.4033 -0.1156
   82MOL0     H10776   9.232   5.997   5.719  1.7265 -0.1964 -1.3386
   82MOL0     H10777   9.283   6.106   5.472 -1.6744 -0.7078  0.2393
   82MOL0     H10778   9.254   6.453   5.364  1.3403  1.8325  2.0362
   82MOL0     H10779   9.319   6.299   5.302  0.4672  0.3007  0.7450
   82MOL0     H10780   9.509   6.475   5.454  1.2674  2.0185 -1.1040
   82MOL0     H10781   9.487   6.501   5.278  1.1893 -0.5418 -0.6090
   82MOL0     H10782   9.560   6.280   5.227 -0.2882 -0.1445 -0.6945
   82MOL0     H10783   9.681   6.373   5.318 -1.1774  1.8435  1.0766
   82MOL0     H10784   9.497   6.133   5.402 -0.5218  1.4128  1.5952
   82MOL0     H10785   9.611   6.229   5.515  2.2870  2.4388 -1.3630
   82MOL0     H10786   9.838   5.921   5.347 -1.9929  0.1902  1.1900
   82MOL0     H10787  10.098   5.933   5.350 -0.1619  1.0655 -2.1951
   82MOL0     H10788  10.470   6.009   5.625 -0.3977 -0.5950 -0.3802
   82MOL0     H10789  10.719   5.979   5.620  4.3042 -3.6461 -2.5768
   82MOL0     H10790  10.936   5.946   5.244  1.1219 -0.1489 -0.1489
   82MOL0     H10791  11.063   5.967   5.364  0.6107 -1.9143 -0.5246
   82MOL0     H10792  11.005   6.214   5.360  0.3774 -1.9667  0.9144
   82MOL0     H10793  10.914   6.171   5.203 -2.7659  2.0196  1.9833
   82MOL0     H10794  11.124   6.248   5.142 -0.5662 -0.8247 -0.0289
   82MOL0     H10795  11.124   6.068   5.129  0.3621 -0.8683  1.1531
   82MOL0     H10796  11.252   6.239   5.364 -0.1062  0.5413 -1.4000
   82MOL0     H10797  11.275   6.066   5.340 -1.8430 -1.2113 -1.3626
   82MOL0     H10798  11.378   6.278   5.157 -0.6225 -0.4713 -0.4165
   82MOL0     H10799  11.384   6.107   5.108 -0.5803  0.3294 -0.5687
   82MOL0     H10800  11.494   6.078   5.342  0.3628 -0.9230 -0.9494
   82MOL0     H10801  11.546   6.251   5.311  0.9762  0.0635 -0.8779
   82MOL0     H10802  11.600   6.076   5.074  0.8734 -0.0674 -1.3421
   82MOL0     H10803  11.686   6.204   5.150  2.0271 -0.2414  1.9245
   82MOL0     H10804  11.811   5.994   5.168 -1.3368 -0.2319 -1.9104
   82MOL0     H10805  11.675   5.922   5.247 -1.2815  1.4128 -0.6205
   82MOL0     H10806  10.713   6.009   5.188  1.3996 -0.8877 -0.1342
   82MOL0     H10807  10.474   6.020   5.188  0.7155 -0.0279 -1.0700
   82MOL0     H10808  10.061   6.301   5.566  1.9699  1.5219 -2.4391
   82MOL0     H10809   9.817   6.324   5.495 -1.7079 -0.6281 -2.3212
   82MOL0     H10810  10.362   6.256   5.720  1.1270  5.0421  1.5952
   82MOL0     H10811  10.621   6.282   5.675  2.4126  0.6643  2.0395
   82MOL0     H10812  11.108   5.974   5.924 -0.6394  0.3740  0.0171
   82MOL0     H10813  11.333   5.989   5.836 -0.9388  1.9458  4.2910
   82MOL0     H10814  11.534   6.054   5.805  2.9270 -0.6797  1.0526
   82MOL0     H10815  11.541   6.222   5.871  1.3340 -0.8573 -0.0385
   82MOL0     H10816  11.661   6.128   5.600  0.0925  2.4935 -1.8462
   82MOL0     H10817  11.669   6.289   5.679  0.8070  0.8687  0.2590
   82MOL0     H10818  11.847   6.093   5.696  0.5596  2.5965 -0.0108
   82MOL0     H10819  11.751   6.052   5.842  1.6527 -0.3216  0.5976
   82MOL0     H10820  11.804   6.286   5.923  0.7936  0.8133  1.1061
   82MOL0     H10821  11.948   6.190   5.906  1.4169  0.9970 -0.9147
   82MOL0     H10822  12.000   6.459   5.573  2.4233  3.3492  3.1942
   82MOL0     H10823  11.231   6.351   5.626 -2.1444  1.7328  0.8666
   82MOL0     H10824  10.983   6.306   5.685 -0.8214 -1.0331  0.4060
   83MOL0     O10825   3.386   0.139   3.281 -0.0293  0.4401  0.0490
   83MOL0     C10826   3.411   0.228   3.199  0.5149 -0.7122 -0.7075
   83MOL0     O10827   3.318   0.289   3.110 -0.3483  0.2025 -0.9217
   83MOL0     C10828   3.182   0.259   3.105  0.3881 -0.8345 -0.7943
   83MOL0     C10829   3.105   0.215   3.216  0.1123 -0.4592 -0.6806
   83MOL0     C10830   2.964   0.195   3.192  0.2511 -0.6791  0.3176
   83MOL0     C10831   2.912   0.199   3.069  0.4710  0.1679 -0.2088
   83MOL0     O10832   2.779   0.158   3.060  0.1307 -0.1999  0.6071
   83MOL0     C10833   2.688   0.206   3.160  0.0447  0.4040 -0.1854
   83MOL0     C10834   2.549   0.196   3.103  0.5928  0.0006  0.5392
   83MOL0     C10835   2.511   0.056   3.041  0.2175 -0.0756  0.2843
   83MOL0     C10836   2.360   0.048   3.019  0.5717 -0.0503 -0.3496
   83MOL0     C10837   2.319   0.144   2.923 -0.1723  0.2501 -0.7146
   83MOL0     C10838   2.176   0.153   2.869  0.2361  0.0098 -0.1377
   83MOL0     C10839   2.067   0.120   2.968  0.4290 -0.3494  0.1554
   83MOL0     C10840   1.936   0.192   2.931  0.8045  1.1066  0.3138
   83MOL0     N10841   1.871   0.148   2.805 -0.3191  0.6566  0.0995
   83MOL0     C10842   1.850   0.017   2.761  0.3233  0.4912 -0.4235
   83MOL0     C10843   1.806   0.022   2.633  0.4369  0.3386  0.4508
   83MOL0     C10844   1.777  -0.093   2.532  0.4456  0.4899 -0.3573
   83MOL0     C10845   1.627  -0.101   2.494 -0.7824  0.0613 -0.6634
   83MOL0     C10846   1.550  -0.204   2.574  0.5695  0.1258 -0.6857
   83MOL0     C10847   1.403  -0.202   2.534  0.5928 -1.5562 -0.5844
   83MOL0     O10848   1.343  -0.071   2.564 -0.1867  0.2658 -0.2929
   83MOL0     C10849   1.212  -0.052   2.612  0.3673  0.2633 -0.0930
   83MOL0     C10850   1.168   0.080   2.658 -0.6181 -0.5613 -0.1175
   83MOL0     C10851   1.039   0.097   2.709  0.7432 -0.0476 -0.1566
   83MOL0     C10852   0.941  -0.006   2.716 -0.3883 -0.0039 -0.5892
   83MOL0     C10853   0.800   0.015   2.761 -0.2244 -0.2832  0.8958
   83MOL0     O10854   0.716  -0.091   2.777 -0.0616  0.6692 -1.2093
   83MOL0     C10855   0.579  -0.072   2.793  0.6133  0.6175  0.4750
   83MOL0     C10856   0.501   0.046   2.784  0.0404  0.5942 -0.8478
   83MOL0     C10857   0.365   0.054   2.821  0.1367  0.3059 -0.9919
   83MOL0     C10858   0.307  -0.069   2.849 -1.1581  1.0199 -0.1882
   83MOL0     O10859   0.171  -0.073   2.854 -1.5214  0.0274 -0.1105
   83MOL0     C10860   0.094  -0.195   2.844  0.0189  0.3758  0.0928
   83MOL0     C10861  -0.047  -0.158   2.804  0.0483  0.9820  0.2263
   83MOL0     C10862  -0.059  -0.094   2.671  0.2145 -0.0777 -0.5185
   83MOL0     C10863  -0.200  -0.028   2.656 -0.7093 -0.1406  0.3837
   83MOL0     C10864  -0.281  -0.116   2.561  0.3917 -0.0133 -0.1567
   83MOL0     C10865  -0.434  -0.101   2.568  0.9188 -0.3886  0.5944
   83MOL0     C10866  -0.508  -0.217   2.500 -0.7511 -0.3637  0.0413
   83MOL0     C10867  -0.652  -0.198   2.525  0.1347  0.5560  0.9012
   83MOL0    Cl10868  -0.715  -0.055   2.444  0.4032 -0.0743  0.0262
   83MOL0     C10869   0.378  -0.193   2.863 -0.9450 -0.1012  0.4773
   83MOL0     C10870   0.515  -0.187   2.837  0.2142 -0.2771  0.5367
   83MOL0     O10871   0.779   0.130   2.801 -0.1933  0.0190 -0.0689
   83MOL0     C10872   0.991  -0.133   2.672 -0.1192 -0.0538 -0.3645
   83MOL0     C10873   1.124  -0.163   2.625 -0.7227 -0.3885 -0.4592
   83MOL0     N10874   1.791   0.152   2.598  0.1813 -1.1264  0.6798
   83MOL0     N10875   1.818   0.224   2.702 -0.0971 -0.3001  1.0772
   83MOL0     C10876   2.985   0.242   2.956  0.3163  0.4494  0.3967
   83MOL0     C10877   3.119   0.276   2.983 -0.6459 -0.3799 -1.0552
   83MOL0     C10878   3.549   0.272   3.165 -0.6635 -0.0016  0.0984
   83MOL0     C10879   3.659   0.203   3.224 -1.0515  1.0058 -0.7875
   83MOL0     C10880   3.790   0.236   3.189  0.4332  0.1838  1.0835
   83MOL0     C10881   3.826   0.342   3.107 -0.4628 -0.2215  0.1698
   83MOL0     O10882   3.955   0.366   3.066 -0.0216 -0.3535  0.0068
   83MOL0     C10883   3.998   0.510   3.053 -0.6509  0.7077  0.5699
   83MOL0     C10884   4.088   0.568   3.153 -0.1846 -0.6959  0.1367
   83MOL0     C10885   4.031   0.566   3.291 -0.4202  0.1446 -0.1453
   83MOL0     C10886   3.906   0.652   3.308 -0.0206  0.3707 -1.2598
   83MOL0     C10887   3.867   0.645   3.447  0.0546  0.2475 -0.0799
   83MOL0     C10888   3.821   0.635   3.559 -0.5212 -0.7625  0.4388
   83MOL0     C10889   3.714   0.411   3.041 -0.5418 -0.5757  0.3106
   83MOL0     C10890   3.582   0.384   3.081  0.2514  0.2882  0.4425
   83MOL0     H10891   3.153   0.206   3.313 -0.4739  4.0399  0.2182
   83MOL0     H10892   2.913   0.175   3.286  0.2867  0.5994  0.6209
   83MOL0     H10893   2.715   0.298   3.212 -0.8065 -0.7401  2.4294
   83MOL0     H10894   2.684   0.126   3.233  1.5978  0.1790 -0.3202
   83MOL0     H10895   2.538   0.276   3.029 -1.8580 -0.4859  0.3135
   83MOL0     H10896   2.473   0.218   3.178 -0.0610 -0.6979  0.0967
   83MOL0     H10897   2.544  -0.013   3.119  1.8716 -0.2917 -0.5645
   83MOL0     H10898   2.567   0.039   2.948 -1.9597 -1.6957 -0.8299
   83MOL0     H10899   2.338  -0.049   2.973 -0.9893 -0.3053  0.8705
   83MOL0     H10900   2.297   0.045   3.109  1.9231 -0.2541  0.6192
   83MOL0     H10901   2.389   0.122   2.841  0.9386 -0.4494  0.3706
   83MOL0     H10902   2.349   0.246   2.949 -1.8172  0.4103  0.7666
   83MOL0     H10903   2.162   0.073   2.796 -1.5421  1.4885 -1.5230
   83MOL0     H10904   2.166   0.250   2.819  0.2846 -0.2855 -0.7299
   83MOL0     H10905   2.035   0.019   2.940 -2.4530  1.3020 -3.4134
   83MOL0     H10906   2.099   0.147   3.069 -0.3322  1.7128 -0.0935
   83MOL0     H10907   1.959   0.299   2.920  1.1013  1.1968  1.6681
   83MOL0     H10908   1.865   0.187   3.014 -0.4091  3.0659 -0.5171
   83MOL0     H10909   1.878  -0.073   2.816  0.5495  1.6048  1.3231
   83MOL0     H10910   1.811  -0.189   2.571 -1.7758  0.1224  0.8714
   83MOL0     H10911   1.833  -0.073   2.440 -0.6027 -0.9996 -1.3825
   83MOL0     H10912   1.616  -0.126   2.388 -1.7097 -1.8519 -0.1632
   83MOL0     H10913   1.582  -0.001   2.500 -0.4051  0.3478 -2.0476
   83MOL0     H10914   1.592  -0.305   2.579  2.0306  0.7731  2.1207
   83MOL0     H10915   1.567  -0.177   2.679  1.6508  1.6744 -1.2161
   83MOL0     H10916   1.351  -0.286   2.581  1.1241 -0.1270  2.8510
   83MOL0     H10917   1.397  -0.213   2.425  0.2441  0.4149 -0.7912
   83MOL0     H10918   1.234   0.165   2.658 -0.3387 -0.7307 -2.2645
   83MOL0     H10919   1.020   0.197   2.744  1.2508  1.1169 -2.9039
   83MOL0     H10920   0.554   0.135   2.751  1.7957  1.1391  2.9424
   83MOL0     H10921   0.297   0.138   2.812 -2.0480 -1.3037 -0.4883
   83MOL0     H10922   0.107  -0.243   2.942 -2.0936 -0.0225  0.2290
   83MOL0     H10923   0.147  -0.246   2.763  2.7134  1.9713  0.7080
   83MOL0     H10924  -0.094  -0.085   2.871 -0.0487  0.9457  0.1981
   83MOL0     H10925  -0.106  -0.250   2.808 -1.4326  1.7751 -1.7567
   83MOL0     H10926  -0.020  -0.164   2.596 -1.6939 -1.3314 -0.4122
   83MOL0     H10927   0.012  -0.011   2.675 -1.8027  1.7131  2.7176
   83MOL0     H10928  -0.255  -0.019   2.751 -3.3323 -1.7701 -0.8733
   83MOL0     H10929  -0.178   0.071   2.615 -0.2709  0.0772  1.1137
   83MOL0     H10930  -0.262  -0.216   2.601 -1.3606 -0.7468 -1.0345
   83MOL0     H10931  -0.241  -0.114   2.459  0.1643  0.6044 -0.2352
   83MOL0     H10932  -0.456  -0.010   2.511 -1.0817  0.4170  2.5281
   83MOL0     H10933  -0.477  -0.095   2.668 -0.5129  0.7575 -0.0399
   83MOL0     H10934  -0.483  -0.216   2.393  0.8941 -0.1772  0.4020
   83MOL0     H10935  -0.477  -0.308   2.552  1.7560  0.7279  0.5997
   83MOL0     H10936  -0.668  -0.189   2.633  0.1397  0.4722  0.9093
   83MOL0     H10937  -0.705  -0.282   2.479  2.0206 -0.0978 -0.1860
   83MOL0     H10938   0.335  -0.281   2.909  1.5622 -1.2174  0.8511
   83MOL0     H10939   0.583  -0.272   2.841  3.2411  1.9917  0.9431
   83MOL0     H10940   0.919  -0.213   2.682 -0.2695  0.0269 -0.7853
   83MOL0     H10941   1.131  -0.271   2.614 -2.7772 -0.6714  0.4789
   83MOL0     H10942   2.930   0.255   2.863 -0.0232 -2.6846  0.0490
   83MOL0     H10943   3.180   0.314   2.902 -2.0126 -0.5548 -2.2084
   83MOL0     H10944   3.640   0.124   3.296  0.9080  0.6321 -0.6131
   83MOL0     H10945   3.866   0.166   3.221  1.2208 -0.1985 -1.4158
   83MOL0     H10946   3.909   0.571   3.038 -1.3497 -0.5011 -0.4265
   83MOL0     H10947   4.044   0.517   2.954  2.4282 -1.0730  1.7345
   83MOL0     H10948   4.185   0.519   3.146  0.2085  0.0867  0.0938
   83MOL0     H10949   4.095   0.669   3.113  0.2053 -0.7839 -0.0208
   83MOL0     H10950   4.110   0.605   3.355  2.1703 -1.5565 -2.1239
   83MOL0     H10951   4.012   0.465   3.328 -0.7458 -0.0549 -0.8389
   83MOL0     H10952   3.931   0.757   3.293  1.3857  0.7572  2.6254
   83MOL0     H10953   3.813   0.633   3.253 -0.0828 -0.3211 -0.9260
   83MOL0     H10954   3.783   0.620   3.658 -2.3057  0.6753  0.0249
   83MOL0     H10955   3.728   0.482   2.961  0.3362 -2.5592 -1.3853
   83MOL0     H10956   3.505   0.436   3.025  2.4028  1.5983 -1.4427
   84MOL0     O10957   0.532   1.667   2.888 -0.3290 -0.0011  0.0743
   84MOL0     C10958   0.526   1.762   2.960 -0.8197 -0.8229  0.2759
   84MOL0     O10959   0.415   1.811   3.017 -0.5013  0.3856 -0.3051
   84MOL0     C10960   0.291   1.765   2.972 -0.3294  0.3128 -0.0710
   84MOL0     C10961   0.247   1.699   2.854 -0.1352 -0.4039 -0.2591
   84MOL0     C10962   0.116   1.653   2.841  0.4396 -0.0752  0.3646
   84MOL0     C10963   0.023   1.682   2.937  0.5284 -0.8456  0.4188
   84MOL0     O10964  -0.113   1.653   2.920 -0.3567  0.2435 -0.6210
   84MOL0     C10965  -0.217   1.759   2.937 -0.1940 -0.4420  0.8017
   84MOL0     C10966  -0.337   1.707   2.856 -0.2297 -0.3338 -0.0541
   84MOL0     C10967  -0.450   1.805   2.840 -0.3733 -0.5764 -0.5760
   84MOL0     C10968  -0.554   1.756   2.732  0.2485  0.8058 -0.1279
   84MOL0     C10969  -0.668   1.846   2.707  0.7379 -0.4761  0.3415
   84MOL0     C10970  -0.773   1.781   2.618  0.6620 -0.4761  0.0572
   84MOL0     C10971  -0.884   1.889   2.588 -0.1235  0.2082  0.8947
   84MOL0     C10972  -0.854   1.966   2.462 -0.9818 -0.2304  0.2415
   84MOL0     N10973  -0.970   2.048   2.419 -0.7663  0.4954 -0.1551
   84MOL0     C10974  -0.987   2.178   2.452 -0.1264  0.4200  0.0982
   84MOL0     C10975  -1.110   2.210   2.408  0.0405  0.4342 -0.8031
   84MOL0     C10976  -1.182   2.346   2.404 -0.2705  0.3896 -0.1913
   84MOL0     C10977  -1.166   2.412   2.263  0.3742  0.0517 -0.4038
   84MOL0     C10978  -1.228   2.550   2.277 -0.2774  0.5730  0.3919
   84MOL0     C10979  -1.230   2.630   2.147 -0.1890 -0.0805  0.2461
   84MOL0     O10980  -1.261   2.776   2.172 -0.2390  0.0466 -0.1706
   84MOL0     C10981  -1.384   2.801   2.227  0.4285  0.7206  0.8236
   84MOL0     C10982  -1.498   2.732   2.177  0.6367 -1.2394  0.0663
   84MOL0     C10983  -1.623   2.750   2.241 -0.6640  0.0303  0.5605
   84MOL0     C10984  -1.628   2.843   2.346  0.4908  0.3117  0.0361
   84MOL0     C10985  -1.766   2.886   2.395  0.1250 -0.2032 -0.7778
   84MOL0     O10986  -1.858   2.784   2.386 -0.0986 -0.2336 -0.2058
   84MOL0     C10987  -1.991   2.797   2.429 -0.0844 -0.9547  0.3772
   84MOL0     C10988  -2.015   2.867   2.546 -0.5260  0.5656  0.8403
   84MOL0     C10989  -2.143   2.873   2.598  0.2260  0.3083  0.1733
   84MOL0     C10990  -2.253   2.829   2.521  0.2588  0.7090 -0.5744
   84MOL0     O10991  -2.380   2.845   2.569  0.0557 -0.5093 -0.1536
   84MOL0     C10992  -2.493   2.811   2.478  0.7035 -0.3218 -0.7592
   84MOL0     C10993  -2.624   2.831   2.571  0.0414  0.8198 -0.5687
   84MOL0     C10994  -2.744   2.777   2.503 -0.1543 -0.3785 -0.1084
   84MOL0     C10995  -2.876   2.806   2.565 -0.3798 -0.6156 -0.0662
   84MOL0     C10996  -2.996   2.757   2.494 -0.5991  0.3248  0.9429
   84MOL0     C10997  -3.131   2.793   2.567 -0.2210 -0.7181 -0.3320
   84MOL0     C10998  -3.253   2.746   2.487  1.0923 -0.2392  0.2834
   84MOL0     C10999  -3.383   2.714   2.567 -0.2202  0.2112  0.0298
   84MOL0    Cl11000  -3.377   2.566   2.666  0.1721  0.2648 -0.2894
   84MOL0     C11001  -2.220   2.765   2.396 -0.3103  0.3967  0.8342
   84MOL0     C11002  -2.098   2.758   2.351  0.1068 -0.1298 -0.6280
   84MOL0     O11003  -1.787   2.999   2.434  0.0517  0.2862 -0.3613
   84MOL0     C11004  -1.520   2.926   2.384  0.1050 -0.1965  0.1221
   84MOL0     C11005  -1.392   2.896   2.322 -0.0996  1.0095 -0.2926
   84MOL0     N11006  -1.159   2.097   2.343 -0.2685 -0.1299  0.0690
   84MOL0     N11007  -1.078   1.997   2.352  0.1811  0.6971  0.5859
   84MOL0     C11008   0.065   1.733   3.055 -0.8357 -0.1212 -0.6193
   84MOL0     C11009   0.198   1.772   3.078  0.8081  0.1087  0.0849
   84MOL0     C11010   0.654   1.835   2.968 -0.1751  0.0289 -0.7972
   84MOL0     C11011   0.762   1.778   2.904  0.1805  0.1009  0.7010
   84MOL0     C11012   0.883   1.831   2.913 -0.3614 -0.1822 -1.1335
   84MOL0     C11013   0.902   1.957   2.983  0.9307  0.6389  0.3099
   84MOL0     O11014   1.025   2.025   2.995 -0.1020  0.5322  0.2614
   84MOL0     C11015   1.135   1.984   2.913 -0.0163 -0.9703 -0.2400
   84MOL0     C11016   1.223   1.876   2.976 -0.1098 -0.8433  0.6088
   84MOL0     C11017   1.329   1.843   2.871 -0.1970 -1.6472 -0.2355
   84MOL0     C11018   1.437   1.747   2.910  0.1076 -0.1888 -0.0472
   84MOL0     C11019   1.397   1.604   2.907 -0.0894  0.6130 -0.5350
   84MOL0     C11020   1.361   1.485   2.911 -0.1944  0.4783  0.1053
   84MOL0     C11021   0.792   2.019   3.037  0.0915  0.0399  0.6879
   84MOL0     C11022   0.665   1.967   3.030 -1.1603 -0.4075 -0.1247
   84MOL0     H11023   0.319   1.686   2.774 -0.6889 -2.0310 -0.5319
   84MOL0     H11024   0.077   1.610   2.749  1.1364  0.5997 -0.2569
   84MOL0     H11025  -0.174   1.848   2.890 -1.3522 -0.9888 -1.3858
   84MOL0     H11026  -0.249   1.785   3.039 -0.5384  0.7312  0.4057
   84MOL0     H11027  -0.383   1.630   2.918  0.2051 -0.8067 -0.3098
   84MOL0     H11028  -0.311   1.683   2.752 -1.4702  3.5152 -1.4418
   84MOL0     H11029  -0.411   1.900   2.802  0.9651  0.2824  2.5900
   84MOL0     H11030  -0.498   1.816   2.937  1.8628 -2.9104  0.9204
   84MOL0     H11031  -0.502   1.748   2.635  0.2220  0.7930 -0.1412
   84MOL0     H11032  -0.575   1.655   2.767  1.0740  0.9371  0.8049
   84MOL0     H11033  -0.628   1.928   2.647 -0.9262  0.3536  0.3249
   84MOL0     H11034  -0.706   1.881   2.803  4.5816  1.3461  1.3728
   84MOL0     H11035  -0.802   1.689   2.669  1.9832 -0.6033  0.6042
   84MOL0     H11036  -0.720   1.753   2.526  0.9856  0.8858 -0.1979
   84MOL0     H11037  -0.978   1.836   2.567  0.2063 -1.5486  3.4347
   84MOL0     H11038  -0.914   1.950   2.673 -3.4727  1.0143 -0.6925
   84MOL0     H11039  -0.817   1.903   2.381  1.0318  0.7763  0.3122
   84MOL0     H11040  -0.772   2.036   2.479 -2.0834  1.0163  0.6193
   84MOL0     H11041  -0.929   2.237   2.523 -0.6725  1.0796  0.0032
   84MOL0     H11042  -1.140   2.411   2.482  3.0744  0.1509 -1.6599
   84MOL0     H11043  -1.291   2.340   2.420 -0.8503  0.7050 -3.3826
   84MOL0     H11044  -1.216   2.362   2.179 -5.1204  4.1522 -0.1379
   84MOL0     H11045  -1.058   2.425   2.249  0.6867 -0.6370  1.1672
   84MOL0     H11046  -1.333   2.535   2.304 -0.8589 -0.3861 -2.1600
   84MOL0     H11047  -1.162   2.602   2.347 -0.9904  0.4484  1.1726
   84MOL0     H11048  -1.301   2.592   2.072 -0.1718  0.5966 -0.1225
   84MOL0     H11049  -1.129   2.623   2.106 -0.7702 -1.0514 -1.0954
   84MOL0     H11050  -1.498   2.667   2.090 -4.0408  1.1328 -2.0853
   84MOL0     H11051  -1.707   2.697   2.197 -2.4029  2.1159  1.1867
   84MOL0     H11052  -1.931   2.902   2.604  1.1823  0.0724 -1.2275
   84MOL0     H11053  -2.156   2.902   2.702 -0.4594 -1.4950  0.6181
   84MOL0     H11054  -2.480   2.711   2.434  0.8170 -0.0141 -1.4385
   84MOL0     H11055  -2.506   2.881   2.395 -0.6461 -0.2054 -0.4870
   84MOL0     H11056  -2.642   2.938   2.586  1.9083  1.1432 -0.3988
   84MOL0     H11057  -2.611   2.802   2.676  0.0430 -1.1829 -1.0920
   84MOL0     H11058  -2.738   2.669   2.487 -2.5540 -0.5360 -0.4107
   84MOL0     H11059  -2.752   2.818   2.402 -2.3140  1.4934  0.7366
   84MOL0     H11060  -2.881   2.760   2.664 -1.1347  0.7918  0.5667
   84MOL0     H11061  -2.871   2.915   2.572  3.3706 -0.6905  0.1738
   84MOL0     H11062  -2.993   2.650   2.474  0.6142  0.5623 -0.2412
   84MOL0     H11063  -2.997   2.809   2.398  0.0887  0.0414  0.7778
   84MOL0     H11064  -3.140   2.902   2.566  1.0189 -0.5152  2.4883
   84MOL0     H11065  -3.132   2.765   2.673  0.4181  1.1519  0.2110
   84MOL0     H11066  -3.274   2.820   2.410 -2.4293  0.0007  1.2970
   84MOL0     H11067  -3.222   2.653   2.437  0.2056 -0.5532  0.2984
   84MOL0     H11068  -3.449   2.700   2.481 -1.1183  2.0561  0.3599
   84MOL0     H11069  -3.416   2.799   2.627  3.1229  0.8699  1.1629
   84MOL0     H11070  -2.308   2.734   2.341  0.4784 -2.6757  1.1284
   84MOL0     H11071  -2.089   2.697   2.262  1.9660 -2.2935  0.9175
   84MOL0     H11072  -1.537   3.007   2.454  1.0715 -1.6262  2.0951
   84MOL0     H11073  -1.299   2.947   2.346 -0.5127  2.0833 -0.8643
   84MOL0     H11074  -0.000   1.745   3.141 -0.0239  0.0423 -0.0133
   84MOL0     H11075   0.236   1.812   3.171 -1.0887  0.3055  0.8335
   84MOL0     H11076   0.765   1.700   2.828  2.2865 -0.4230  1.2624
   84MOL0     H11077   0.967   1.778   2.870  0.4382  1.6353 -1.9292
   84MOL0     H11078   1.193   2.073   2.888 -0.5459 -0.1384  1.3299
   84MOL0     H11079   1.107   1.947   2.814 -0.9745 -0.8312 -0.0290
   84MOL0     H11080   1.260   1.914   3.072 -0.1085  2.0410 -0.4500
   84MOL0     H11081   1.175   1.786   3.014  2.0241 -1.2892  2.4694
   84MOL0     H11082   1.384   1.937   2.859  0.0460 -1.0359  4.1281
   84MOL0     H11083   1.284   1.816   2.774 -1.6137  1.9839 -0.7663
   84MOL0     H11084   1.531   1.766   2.858  0.1711  1.4538  0.5823
   84MOL0     H11085   1.469   1.766   3.013  1.6282 -1.5741 -0.2220
   84MOL0     H11086   1.328   1.383   2.914 -0.7621  0.5372 -1.9744
   84MOL0     H11087   0.794   2.110   3.096 -0.8609  0.6048 -0.1247
   84MOL0     H11088   0.583   2.024   3.072  0.9299  2.2294  0.6377
   85MOL0     O11089   7.260   9.765   4.269  0.0374  0.1061  0.7527
   85MOL0     C11090   7.290   9.874   4.310 -0.5107 -0.3547 -0.0873
   85MOL0     O11091   7.212   9.962   4.370 -0.3954 -0.7395 -1.1541
   85MOL0     C11092   7.069   9.960   4.383  0.0876 -0.4316 -1.0379
   85MOL0     C11093   6.978   9.866   4.327 -0.6515 -0.3496  0.2668
   85MOL0     C11094   6.844   9.902   4.317 -0.7904 -0.6253  0.8938
   85MOL0     C11095   6.793  10.016   4.375 -0.7829  0.1274 -0.0386
   85MOL0     O11096   6.657  10.035   4.371 -0.2777 -1.0506 -0.1970
   85MOL0     C11097   6.611  10.173   4.367  0.7402  0.1239  0.0288
   85MOL0     C11098   6.451  10.171   4.372 -1.2483  0.1736  0.1641
   85MOL0     C11099   6.385  10.105   4.251  0.2950 -0.5995  0.0832
   85MOL0     C11100   6.227  10.128   4.243 -0.6596 -0.4115 -0.8861
   85MOL0     C11101   6.156  10.037   4.136  0.2334  0.4348  0.6294
   85MOL0     C11102   6.003  10.061   4.136 -0.1668 -0.6815 -0.3574
   85MOL0     C11103   5.932   9.990   4.025  0.2452  0.2763 -0.1538
   85MOL0     C11104   5.786  10.006   4.029  0.2954 -0.1024 -0.2095
   85MOL0     N11105   5.703   9.930   3.935  0.4859  0.3214  0.0559
   85MOL0     C11106   5.714   9.894   3.799  0.0834 -0.4159  0.0172
   85MOL0     C11107   5.604   9.815   3.775 -0.4150  0.4387 -0.2587
   85MOL0     C11108   5.579   9.733   3.651  0.2576  0.2565  0.0001
   85MOL0     C11109   5.446   9.661   3.654 -0.2562 -0.5777  0.4287
   85MOL0     C11110   5.326   9.766   3.633 -1.4190  0.1212 -0.5093
   85MOL0     C11111   5.213   9.673   3.615  0.0350 -0.2892  0.5951
   85MOL0     O11112   5.090   9.746   3.642 -0.3067 -0.6815  0.2951
   85MOL0     C11113   4.964   9.682   3.650 -0.0633 -0.2756 -1.1550
   85MOL0     C11114   4.942   9.545   3.637 -0.6465  0.2171 -0.4383
   85MOL0     C11115   4.815   9.483   3.658 -0.1191  0.4440 -0.7330
   85MOL0     C11116   4.700   9.565   3.682  0.4861  0.0334 -0.3198
   85MOL0     C11117   4.559   9.519   3.696  0.8704  0.2900 -0.6697
   85MOL0     O11118   4.467   9.616   3.658  0.3813  0.1676 -0.8018
   85MOL0     C11119   4.338   9.586   3.633 -0.3196 -0.2121 -0.9452
   85MOL0     C11120   4.265   9.691   3.570  0.5662  0.3466 -0.1950
   85MOL0     C11121   4.131   9.684   3.564  0.2747  0.8722  0.3491
   85MOL0     C11122   4.056   9.573   3.604  0.4915  0.1867  0.1360
   85MOL0     O11123   3.921   9.579   3.588  0.8352  0.6885  0.3424
   85MOL0     C11124   3.858   9.587   3.719 -0.2662 -0.2565  0.6247
   85MOL0     C11125   3.748   9.485   3.724  0.1333 -0.3662  1.0576
   85MOL0     C11126   3.678   9.491   3.861 -0.5991 -0.0954  0.3080
   85MOL0     C11127   3.596   9.618   3.896  0.8224  0.6949 -0.5057
   85MOL0     C11128   3.451   9.597   3.833 -0.3715  0.8457  0.3937
   85MOL0     C11129   3.358   9.712   3.885  0.0430 -0.4313 -0.1834
   85MOL0     C11130   3.215   9.679   3.866 -0.4608  0.2670 -0.5441
   85MOL0     C11131   3.127   9.800   3.902 -0.0416 -0.2250 -1.4743
   85MOL0    Cl11132   2.958   9.742   3.938 -0.2780  0.1526  0.2999
   85MOL0     C11133   4.122   9.472   3.671 -1.1328  0.3802 -0.1817
   85MOL0     C11134   4.259   9.476   3.673  0.0278 -0.3704  0.3876
   85MOL0     O11135   4.536   9.397   3.717 -0.3706  0.2406 -0.1335
   85MOL0     C11136   4.730   9.705   3.693  0.4630  0.2601 -1.1940
   85MOL0     C11137   4.856   9.760   3.690 -0.0694 -0.1188  0.2228
   85MOL0     N11138   5.528   9.811   3.888 -0.1362 -0.4900  0.4296
   85MOL0     N11139   5.574   9.892   3.972 -0.4300  0.2212 -0.2978
   85MOL0     C11140   6.878  10.095   4.449  0.0299 -0.3852 -0.8491
   85MOL0     C11141   7.011  10.070   4.453  0.1348  0.6703 -0.6294
   85MOL0     C11142   7.436   9.914   4.286  0.0724 -0.9139  0.1075
   85MOL0     C11143   7.524   9.803   4.298  0.4080  0.2316 -0.5912
   85MOL0     C11144   7.665   9.831   4.305  0.2700 -0.3197  0.7967
   85MOL0     C11145   7.714   9.963   4.288 -0.6313 -0.4991  0.3880
   85MOL0     O11146   7.856   9.967   4.290  0.2968  0.9667  0.1014
   85MOL0     C11147   7.914  10.093   4.265 -0.5153  0.6041 -0.5479
   85MOL0     C11148   8.070  10.078   4.228 -0.4337 -0.2101 -0.1136
   85MOL0     C11149   8.160  10.040   4.347  0.5016  0.4785  0.3072
   85MOL0     C11150   8.174  10.152   4.447  0.0426  1.0826 -0.4627
   85MOL0     C11151   8.286  10.129   4.543  0.1565  0.0191 -0.0625
   85MOL0     C11152   8.366  10.103   4.629 -0.0351 -0.1384 -0.6270
   85MOL0     C11153   7.622  10.077   4.278  0.4993  0.4357  0.1118
   85MOL0     C11154   7.485  10.047   4.273  0.5476 -0.0166  0.2732
   85MOL0     H11155   7.009   9.782   4.266 -2.4335  0.1749 -1.4496
   85MOL0     H11156   6.775   9.830   4.274  0.0752 -1.0880  0.2375
   85MOL0     H11157   6.638  10.222   4.273  1.4107 -1.1989 -0.4914
   85MOL0     H11158   6.639  10.232   4.454 -0.6169  0.4795  0.2513
   85MOL0     H11159   6.415  10.273   4.382 -1.3302 -0.0334  2.6263
   85MOL0     H11160   6.418  10.111   4.458  2.6128 -0.4643  1.3933
   85MOL0     H11161   6.401   9.998   4.236 -1.0406 -0.5559 -2.3408
   85MOL0     H11162   6.418  10.151   4.157 -0.0266 -0.5926 -0.0272
   85MOL0     H11163   6.183  10.085   4.333 -1.4171 -1.3882 -1.7035
   85MOL0     H11164   6.200  10.234   4.241  0.1423 -0.2053 -1.4748
   85MOL0     H11165   6.153   9.929   4.152 -0.0282  0.2845 -0.3283
   85MOL0     H11166   6.190  10.059   4.034 -2.0937  2.6470  0.2131
   85MOL0     H11167   5.989  10.168   4.119  1.8697 -0.5437 -1.5435
   85MOL0     H11168   5.975  10.028   4.236  0.6448  1.7888  0.7745
   85MOL0     H11169   5.966  10.040   3.934  1.4968 -0.6535 -0.2170
   85MOL0     H11170   5.963   9.885   4.022  3.4103  0.9621  2.5122
   85MOL0     H11171   5.765  10.113   4.028 -1.8543 -0.4549  0.4456
   85MOL0     H11172   5.745   9.971   4.125 -2.8450 -0.3890 -1.5390
   85MOL0     H11173   5.800   9.908   3.735  0.2094  0.0086  0.2726
   85MOL0     H11174   5.651   9.651   3.638  0.0274  0.3037 -1.8862
   85MOL0     H11175   5.593   9.796   3.562 -0.9661 -0.6452 -0.8568
   85MOL0     H11176   5.429   9.608   3.748  0.0381 -0.4478  0.5539
   85MOL0     H11177   5.447   9.586   3.574  1.4753  2.7293 -3.0033
   85MOL0     H11178   5.313   9.825   3.725 -1.4679  1.2431 -1.2245
   85MOL0     H11179   5.350   9.829   3.547 -0.1209  3.0215  1.8059
   85MOL0     H11180   5.219   9.599   3.695 -0.7099  2.2685  3.1988
   85MOL0     H11181   5.207   9.627   3.516  1.0515  0.5389  0.1306
   85MOL0     H11182   5.032   9.485   3.624 -1.2691 -0.4433 -1.7854
   85MOL0     H11183   4.808   9.376   3.646 -0.2790  0.2812  0.6908
   85MOL0     H11184   4.331   9.768   3.531  1.1199 -0.5453 -1.0671
   85MOL0     H11185   4.089   9.773   3.518  1.7389  0.7571 -1.3778
   85MOL0     H11186   3.815   9.687   3.726  0.4706  0.1486 -0.3557
   85MOL0     H11187   3.929   9.570   3.800  0.0871  2.9455  1.1010
   85MOL0     H11188   3.797   9.387   3.729  1.3476  0.1626  0.1056
   85MOL0     H11189   3.689   9.496   3.632  1.3154  2.4576  0.5319
   85MOL0     H11190   3.754   9.473   3.937  0.1173 -0.5882 -0.5117
   85MOL0     H11191   3.614   9.403   3.874  0.3828 -0.6987  1.2438
   85MOL0     H11192   3.573   9.625   4.003  0.2865 -0.2014 -0.5558
   85MOL0     H11193   3.635   9.715   3.865 -1.0291  1.2177 -1.3188
   85MOL0     H11194   3.407   9.502   3.864  1.1494  0.2309  0.7861
   85MOL0     H11195   3.463   9.599   3.724  2.4482 -0.1992  0.5950
   85MOL0     H11196   3.380   9.807   3.835 -4.8408  1.8704  1.3688
   85MOL0     H11197   3.386   9.720   3.990 -0.7913 -2.3853  0.2398
   85MOL0     H11198   3.195   9.660   3.760  1.7090  3.4113 -1.6328
   85MOL0     H11199   3.193   9.598   3.937  1.3393 -0.2485 -0.5287
   85MOL0     H11200   3.121   9.875   3.822 -0.4690 -0.5700 -1.7739
   85MOL0     H11201   3.169   9.849   3.990  1.1632  0.8352 -2.6007
   85MOL0     H11202   4.086   9.376   3.708  1.7478 -0.5967  0.2993
   85MOL0     H11203   4.316   9.388   3.702  2.1063  0.3473 -1.2805
   85MOL0     H11204   4.645   9.769   3.715  2.2995  2.4933 -0.2356
   85MOL0     H11205   4.876   9.862   3.722 -2.8712  0.6840 -0.3441
   85MOL0     H11206   6.839  10.177   4.509 -0.9653 -1.9242  0.7213
   85MOL0     H11207   7.067  10.139   4.515 -1.8730  0.5179  1.5235
   85MOL0     H11208   7.484   9.702   4.300  1.4355 -0.3166 -3.4594
   85MOL0     H11209   7.726   9.742   4.307  1.5722  0.5436  0.6962
   85MOL0     H11210   7.902  10.157   4.354  2.0320  0.2881  0.1026
   85MOL0     H11211   7.862  10.137   4.179  1.7418  0.8913 -1.8264
   85MOL0     H11212   8.076  10.019   4.136 -1.2400  2.5747 -2.0737
   85MOL0     H11213   8.103  10.174   4.188  0.3917 -1.2699 -2.1144
   85MOL0     H11214   8.258  10.001   4.318  0.4827  2.2400 -2.4435
   85MOL0     H11215   8.097   9.983   4.416 -0.0633  2.6372  1.7115
   85MOL0     H11216   8.205  10.245   4.398  1.0251  1.6317  1.1116
   85MOL0     H11217   8.079  10.166   4.501  0.3678  0.5250  0.2822
   85MOL0     H11218   8.437  10.082   4.706  1.0457  1.3665 -1.1773
   85MOL0     H11219   7.663  10.178   4.273  0.7357  0.3215 -0.2714
   85MOL0     H11220   7.416  10.131   4.272 -0.4035 -0.7789 -0.7961
   86MOL0     O11221   3.427   1.467   5.949 -0.1540 -0.9595 -0.0187
   86MOL0     C11222   3.488   1.368   5.982  0.6032  0.9329 -0.6261
   86MOL0     O11223   3.434   1.254   6.028 -0.4107 -0.6669 -0.3481
   86MOL0     C11224   3.305   1.259   6.064  0.6854 -0.1410  0.4036
   86MOL0     C11225   3.190   1.234   5.979  0.6894  0.1210  0.0859
   86MOL0     C11226   3.055   1.254   6.028 -0.0112 -0.1530  0.4316
   86MOL0     C11227   3.027   1.280   6.159 -0.1868  0.0153 -0.7976
   86MOL0     O11228   2.900   1.290   6.215 -0.7977 -0.0320 -0.2807
   86MOL0     C11229   2.807   1.179   6.182  0.2450 -0.5974  0.2302
   86MOL0     C11230   2.688   1.218   6.268 -0.0953  0.9690  0.7446
   86MOL0     C11231   2.580   1.119   6.233 -0.0488 -0.0845 -0.2152
   86MOL0     C11232   2.595   0.980   6.289 -0.3181  0.0096 -0.5510
   86MOL0     C11233   2.454   0.907   6.286 -1.3026 -1.5045 -0.5886
   86MOL0     C11234   2.469   0.783   6.369 -0.3947  1.1326 -0.2565
   86MOL0     C11235   2.333   0.730   6.412  0.2507 -0.6431 -0.2222
   86MOL0     C11236   2.243   0.710   6.283  0.7615  0.0026  0.1852
   86MOL0     N11237   2.134   0.632   6.335 -0.1166 -0.1934  0.1384
   86MOL0     C11238   2.025   0.677   6.393  0.0028 -0.4782 -0.1273
   86MOL0     C11239   1.948   0.567   6.433  0.0590 -0.3769  0.2366
   86MOL0     C11240   1.817   0.560   6.512 -0.4715  0.2857 -0.4740
   86MOL0     C11241   1.814   0.460   6.634  0.7328 -0.3913 -0.4089
   86MOL0     C11242   1.726   0.519   6.747  0.0092 -0.5965 -0.6548
   86MOL0     C11243   1.575   0.527   6.706  0.3902 -0.1177 -0.1252
   86MOL0     O11244   1.486   0.567   6.817 -0.5496  0.2249 -0.2120
   86MOL0     C11245   1.355   0.604   6.791 -0.1894  1.0661  0.0610
   86MOL0     C11246   1.296   0.585   6.670 -0.1178 -0.0136 -0.2513
   86MOL0     C11247   1.162   0.618   6.647 -0.3610 -0.0080  0.8940
   86MOL0     C11248   1.079   0.657   6.745  1.1227 -0.1819  1.3814
   86MOL0     C11249   0.933   0.710   6.720 -0.4148  0.0955  0.2783
   86MOL0     O11250   0.884   0.704   6.594 -0.4198  0.1595  0.1413
   86MOL0     C11251   0.747   0.706   6.591 -0.1227  0.0918  0.4088
   86MOL0     C11252   0.693   0.769   6.474 -0.0237 -0.2831  0.4633
   86MOL0     C11253   0.555   0.782   6.463 -1.7803  0.1315 -0.9137
   86MOL0     C11254   0.466   0.732   6.555  0.1693 -0.0215 -0.6897
   86MOL0     O11255   0.340   0.760   6.513 -0.6590 -0.3558  0.7374
   86MOL0     C11256   0.231   0.701   6.584 -0.3119 -0.1670  0.7284
   86MOL0     C11257   0.108   0.771   6.518  0.7801  0.5267  0.7956
   86MOL0     C11258  -0.004   0.720   6.593  0.0403  0.5960  0.9531
   86MOL0     C11259  -0.124   0.814   6.565 -1.0645  0.4441 -0.0159
   86MOL0     C11260  -0.249   0.760   6.635  0.0692 -0.4762 -0.3038
   86MOL0     C11261  -0.379   0.841   6.617 -0.7466 -1.2034 -0.2065
   86MOL0     C11262  -0.431   0.811   6.464 -1.1939 -0.3921  0.3589
   86MOL0     C11263  -0.559   0.895   6.437  0.3630 -0.3032 -0.2641
   86MOL0    Cl11264  -0.691   0.797   6.509 -0.8556  0.0611  0.4887
   86MOL0     C11265   0.510   0.653   6.662 -0.9738 -0.9182  0.6204
   86MOL0     C11266   0.654   0.648   6.684  0.2775 -0.3463 -0.7614
   86MOL0     O11267   0.889   0.777   6.813  0.1351 -0.3551 -0.3603
   86MOL0     C11268   1.139   0.677   6.876  0.3178  0.5235  0.3588
   86MOL0     C11269   1.274   0.653   6.897  1.2090 -0.4730  0.3969
   86MOL0     N11270   2.019   0.462   6.390  0.4932  0.4428 -0.2940
   86MOL0     N11271   2.136   0.502   6.335 -0.0273  0.6241 -0.4011
   86MOL0     C11272   3.140   1.284   6.250 -0.7163 -0.0497  0.6183
   86MOL0     C11273   3.274   1.287   6.194  0.4370 -0.4449 -0.2068
   86MOL0     C11274   3.638   1.371   5.963 -0.7087  0.0574  0.3641
   86MOL0     C11275   3.694   1.488   5.900  0.9384  0.5083 -0.4074
   86MOL0     C11276   3.823   1.481   5.857  0.1200 -0.9538 -0.1501
   86MOL0     C11277   3.915   1.397   5.907  0.6453  0.6678  0.2986
   86MOL0     O11278   4.047   1.414   5.881 -0.8555  0.0175 -0.5210
   86MOL0     C11279   4.138   1.322   5.927 -0.5525  0.0709  0.2536
   86MOL0     C11280   4.287   1.346   5.882 -0.0727  0.2012  0.1639
   86MOL0     C11281   4.343   1.469   5.965 -0.0263  0.3168  0.8688
   86MOL0     C11282   4.477   1.512   5.916 -1.7292  0.2277  0.3665
   86MOL0     C11283   4.475   1.596   5.794 -0.2776  0.0903  0.4792
   86MOL0     C11284   4.486   1.678   5.705  0.4960 -0.5781 -0.1410
   86MOL0     C11285   3.866   1.290   5.992  0.0311 -0.5331  0.0922
   86MOL0     C11286   3.727   1.275   6.010 -0.5612 -0.1892  0.3504
   86MOL0     H11287   3.212   1.228   5.873  0.0094 -0.3424 -0.0409
   86MOL0     H11288   2.975   1.244   5.956 -0.3237  0.1069  0.7398
   86MOL0     H11289   2.847   1.080   6.209  0.3051 -1.2767 -2.1584
   86MOL0     H11290   2.777   1.175   6.077 -1.0285  0.1227  0.5577
   86MOL0     H11291   2.644   1.315   6.246 -3.3785 -0.1108  1.9563
   86MOL0     H11292   2.735   1.217   6.368 -1.1006  0.4711  1.2218
   86MOL0     H11293   2.581   1.113   6.124  2.4356 -0.6960 -0.2306
   86MOL0     H11294   2.479   1.149   6.261 -0.1616 -0.0308 -0.6785
   86MOL0     H11295   2.663   0.918   6.231  1.6537  1.5745 -0.0128
   86MOL0     H11296   2.632   0.979   6.392  0.0979 -1.8341 -0.6866
   86MOL0     H11297   2.416   0.889   6.185 -2.4518 -1.0269 -0.2553
   86MOL0     H11298   2.387   0.975   6.338 -0.8332 -2.1808  0.9500
   86MOL0     H11299   2.533   0.800   6.457  2.2166  1.6110 -2.1231
   86MOL0     H11300   2.508   0.703   6.305 -3.7323  0.3344 -1.4748
   86MOL0     H11301   2.334   0.629   6.454  0.5276 -1.9584 -3.1334
   86MOL0     H11302   2.286   0.796   6.486  3.9198 -0.0743  1.8202
   86MOL0     H11303   2.298   0.659   6.203  3.3039  0.9337  1.2435
   86MOL0     H11304   2.213   0.809   6.247  0.6954  0.1856  0.7399
   86MOL0     H11305   1.996   0.780   6.414  2.3415  1.1278 -3.7122
   86MOL0     H11306   1.736   0.530   6.446 -0.1722  2.0835 -1.7596
   86MOL0     H11307   1.805   0.663   6.548  2.0306 -0.0371  1.5617
   86MOL0     H11308   1.916   0.446   6.672 -0.2656 -3.6461  1.4277
   86MOL0     H11309   1.778   0.360   6.610  1.0787 -0.2350 -1.6775
   86MOL0     H11310   1.749   0.457   6.834  2.0222  0.0915 -0.6407
   86MOL0     H11311   1.759   0.623   6.758 -0.4589 -0.6034  1.2536
   86MOL0     H11312   1.540   0.434   6.660  0.8659  1.4168 -3.9342
   86MOL0     H11313   1.572   0.598   6.623  2.0363  1.1079  0.7955
   86MOL0     H11314   1.361   0.543   6.595  2.0884  2.5570  0.0892
   86MOL0     H11315   1.119   0.600   6.549 -0.1710  1.5556  0.4891
   86MOL0     H11316   0.745   0.829   6.400 -0.1479  0.8887  1.2969
   86MOL0     H11317   0.518   0.839   6.378 -1.4211  0.9808 -0.5141
   86MOL0     H11318   0.242   0.728   6.690 -0.0120  2.9591 -0.0167
   86MOL0     H11319   0.221   0.593   6.575  1.7046 -0.3799  0.4758
   86MOL0     H11320   0.101   0.744   6.413 -2.3246  1.7256  0.5912
   86MOL0     H11321   0.115   0.880   6.511 -2.4121  0.7410 -0.6418
   86MOL0     H11322   0.017   0.716   6.700  2.9834  1.8714  0.5153
   86MOL0     H11323  -0.030   0.621   6.553  0.4960  0.4765  0.9444
   86MOL0     H11324  -0.108   0.908   6.618  1.2301  0.6647 -1.0169
   86MOL0     H11325  -0.128   0.825   6.457  4.1523  0.7812 -0.4271
   86MOL0     H11326  -0.231   0.755   6.742 -0.8652 -0.2406 -0.1253
   86MOL0     H11327  -0.263   0.658   6.598  0.2556 -0.8362  0.5984
   86MOL0     H11328  -0.366   0.947   6.636  3.4820 -1.9022  1.9254
   86MOL0     H11329  -0.449   0.818   6.698 -1.8948  0.4703 -0.6679
   86MOL0     H11330  -0.357   0.833   6.387 -0.6656  0.1027  0.9941
   86MOL0     H11331  -0.446   0.707   6.433 -3.8589  0.8177 -3.0740
   86MOL0     H11332  -0.569   0.928   6.333 -4.2955  2.6454  0.8560
   86MOL0     H11333  -0.544   0.984   6.499  2.3581 -1.1932  0.6328
   86MOL0     H11334   0.453   0.593   6.732 -0.7838  1.9831  3.5226
   86MOL0     H11335   0.686   0.592   6.771  1.0042  0.7483 -0.2955
   86MOL0     H11336   1.081   0.719   6.958 -2.1088 -0.8362 -0.5739
   86MOL0     H11337   1.324   0.670   6.992  2.8602 -2.5896 -0.0045
   86MOL0     H11338   3.123   1.306   6.355 -0.8995 -3.4624  1.4353
   86MOL0     H11339   3.358   1.308   6.258 -1.0400 -1.1939  2.0838
   86MOL0     H11340   3.635   1.571   5.863  2.8451  3.1710  2.0373
   86MOL0     H11341   3.857   1.559   5.789  1.7795 -1.8718 -0.4377
   86MOL0     H11342   4.107   1.223   5.891  2.8545 -0.5592 -1.4713
   86MOL0     H11343   4.133   1.329   6.036  1.2161  1.5354  0.3016
   86MOL0     H11344   4.345   1.255   5.896  0.9783  0.9668  0.8632
   86MOL0     H11345   4.289   1.370   5.775 -2.6193  0.9436  0.2077
   86MOL0     H11346   4.343   1.433   6.069 -1.2731  0.7593  1.0386
   86MOL0     H11347   4.279   1.557   5.962  0.9307  1.0087  0.2401
   86MOL0     H11348   4.513   1.579   5.994  0.1277 -1.3619  0.9771
   86MOL0     H11349   4.544   1.427   5.903 -0.0938  1.3042  1.4361
   86MOL0     H11350   4.492   1.761   5.637  3.2097 -1.2855 -0.8651
   86MOL0     H11351   3.921   1.203   6.028  1.1447 -1.0000 -2.4558
   86MOL0     H11352   3.685   1.187   6.056 -3.2205  0.2702 -0.9771
   87MOL0     O11353   8.534   4.980  10.749 -1.0413 -0.4341  0.4119
   87MOL0     C11354   8.528   4.879  10.678 -0.3956  1.0329  0.9566
   87MOL0     O11355   8.411   4.810  10.649  0.0588  0.0023  0.4370
   87MOL0     C11356   8.289   4.871  10.686  0.5876  1.2373  0.7032
   87MOL0     C11357   8.209   4.786  10.770  0.1217  0.4854  0.3330
   87MOL0     C11358   8.082   4.826  10.815 -0.4412 -0.0533 -0.1408
   87MOL0     C11359   8.037   4.946  10.774  0.4957 -0.4772 -0.0500
   87MOL0     O11360   7.910   5.001  10.780 -0.1094  0.1651 -0.4393
   87MOL0     C11361   7.824   4.929  10.872 -0.3211  0.4872  1.0124
   87MOL0     C11362   7.697   5.004  10.896 -0.1524 -0.1369 -0.1354
   87MOL0     C11363   7.718   5.132  10.986 -0.7900  0.0860 -0.1096
   87MOL0     C11364   7.614   5.235  10.973 -0.4616  0.9665 -0.1999
   87MOL0     C11365   7.646   5.342  11.066 -0.0093 -1.6427 -0.1194
   87MOL0     C11366   7.526   5.438  11.077  0.2750 -0.2229 -0.5929
   87MOL0     C11367   7.392   5.376  11.120 -0.4971 -0.2952 -0.4724
   87MOL0     C11368   7.290   5.480  11.153 -0.2525 -0.8226 -0.4629
   87MOL0     N11369   7.161   5.406  11.181 -0.0276 -0.3206  0.2264
   87MOL0     C11370   7.097   5.404  11.305  0.0110 -0.3504  1.0000
   87MOL0     C11371   6.980   5.334  11.286  0.7851 -0.7515 -0.1072
   87MOL0     C11372   6.875   5.312  11.395 -0.9593  0.3040  0.5704
   87MOL0     C11373   6.818   5.171  11.392  0.1965 -0.3270 -0.2822
   87MOL0     C11374   6.773   5.126  11.531 -0.3603 -0.6999  0.2040
   87MOL0     C11375   6.632   5.113  11.559 -0.3081  0.9545 -0.4637
   87MOL0     O11376   6.568   5.232  11.511 -0.1208 -0.2851 -0.1730
   87MOL0     C11377   6.440   5.240  11.467  0.4076  0.2407 -0.4243
   87MOL0     C11378   6.349   5.142  11.511 -1.1364 -0.1869 -1.0435
   87MOL0     C11379   6.217   5.148  11.472  0.0451  0.8548  0.7206
   87MOL0     C11380   6.179   5.252  11.379  0.3021  0.5496 -0.1077
   87MOL0     C11381   6.055   5.244  11.314  0.0797 -0.0693 -0.5497
   87MOL0     O11382   6.027   5.324  11.205 -0.2263 -0.1738 -0.2002
   87MOL0     C11383   5.916   5.314  11.128 -0.2043 -0.5914  0.0588
   87MOL0     C11384   5.916   5.404  11.019 -0.2313 -0.4699  0.2384
   87MOL0     C11385   5.808   5.403  10.926 -0.3652  0.5866  0.1754
   87MOL0     C11386   5.696   5.316  10.934  0.7062  0.8286 -0.5602
   87MOL0     O11387   5.598   5.320  10.833 -0.2301 -0.3433 -0.2793
   87MOL0     C11388   5.506   5.213  10.805 -0.9274  0.3478 -0.1315
   87MOL0     C11389   5.369   5.239  10.868 -1.0703  0.3405  0.5900
   87MOL0     C11390   5.307   5.362  10.809 -0.9862  0.5183 -0.3033
   87MOL0     C11391   5.204   5.406  10.913 -0.0172  0.5559 -0.3745
   87MOL0     C11392   5.127   5.531  10.872 -0.0047 -0.3452  0.6048
   87MOL0     C11393   5.012   5.558  10.966  0.1378 -0.0635  0.4980
   87MOL0     C11394   4.868   5.518  10.922 -0.0781 -0.5227 -0.8337
   87MOL0     C11395   4.753   5.592  10.992  0.3084 -0.0339 -0.0774
   87MOL0    Cl11396   4.766   5.774  10.936  0.1011  0.5512 -0.6704
   87MOL0     C11397   5.706   5.216  11.037  1.0965 -1.5257  0.1895
   87MOL0     C11398   5.810   5.212  11.132 -1.1327  0.7283 -0.0492
   87MOL0     O11399   5.975   5.162  11.366  0.1165 -0.1330 -0.0333
   87MOL0     C11400   6.268   5.348  11.338 -0.8362 -0.3381  0.7039
   87MOL0     C11401   6.401   5.342  11.385  0.1347 -0.4437 -0.3475
   87MOL0     N11402   6.976   5.299  11.146 -0.6708  0.1737  0.1852
   87MOL0     N11403   7.095   5.330  11.087 -0.0025 -0.8995  0.0832
   87MOL0     C11404   8.123   5.035  10.698 -0.1397  0.3018 -0.2440
   87MOL0     C11405   8.248   5.000  10.657  1.2604 -0.4778 -0.4556
   87MOL0     C11406   8.654   4.817  10.632 -0.4999  0.7773  0.7196
   87MOL0     C11407   8.774   4.894  10.640  0.0292 -0.5029 -0.6931
   87MOL0     C11408   8.895   4.836  10.593  0.4586  0.3359 -0.0644
   87MOL0     C11409   8.899   4.709  10.523 -0.6326  0.6158 -0.4426
   87MOL0     O11410   9.009   4.642  10.481 -0.5930  0.7142 -0.1929
   87MOL0     C11411   9.117   4.724  10.431 -1.5235  0.1819  0.0898
   87MOL0     C11412   9.084   4.781  10.293  0.0619 -0.2096  0.7941
   87MOL0     C11413   9.043   4.676  10.182 -0.1552 -0.1918 -0.0239
   87MOL0     C11414   8.963   4.742  10.070 -0.0709 -0.4852  0.8832
   87MOL0     C11415   8.822   4.727  10.111  0.9667  1.4880  1.2627
   87MOL0     C11416   8.703   4.734  10.140  0.5363  0.0007  0.2417
   87MOL0     C11417   8.777   4.642  10.507  1.3956 -0.8073  0.5994
   87MOL0     C11418   8.662   4.695  10.562 -0.4061  0.8318  1.0659
   87MOL0     H11419   8.253   4.688  10.782  2.7965  1.3223 -1.5890
   87MOL0     H11420   8.025   4.757  10.877  3.2772 -3.0755  0.3068
   87MOL0     H11421   7.881   4.917  10.964 -0.4638 -1.5124  0.8789
   87MOL0     H11422   7.798   4.835  10.823 -0.9626  2.2030 -2.2636
   87MOL0     H11423   7.625   4.939  10.946 -0.1291 -0.4070 -0.4496
   87MOL0     H11424   7.662   5.047  10.801  3.4432  2.3091 -0.5716
   87MOL0     H11425   7.812   5.181  10.960  0.3821 -0.3496  2.9019
   87MOL0     H11426   7.720   5.104  11.091  0.6040 -1.3047 -0.4779
   87MOL0     H11427   7.590   5.251  10.868 -0.8992 -3.8646 -1.0578
   87MOL0     H11428   7.536   5.177  11.023  0.8442 -1.5217 -0.8735
   87MOL0     H11429   7.729   5.400  11.025 -1.0584  0.0563  0.0816
   87MOL0     H11430   7.672   5.308  11.166  1.9440  1.6349  0.6188
   87MOL0     H11431   7.514   5.482  10.978  2.0218 -0.0001 -0.7497
   87MOL0     H11432   7.556   5.523  11.140  2.1860 -0.9035 -0.5057
   87MOL0     H11433   7.343   5.316  11.044 -1.8917  1.2860 -0.9055
   87MOL0     H11434   7.401   5.319  11.213 -1.5498 -0.9992 -0.7830
   87MOL0     H11435   7.276   5.543  11.064  0.9719  0.3396  0.1264
   87MOL0     H11436   7.315   5.542  11.239 -1.7180 -1.8308  0.7214
   87MOL0     H11437   7.137   5.439  11.400  0.0681 -2.2242  1.7020
   87MOL0     H11438   6.793   5.384  11.388 -2.0585 -0.7235  2.1657
   87MOL0     H11439   6.922   5.328  11.492 -1.3003  2.6278  0.3935
   87MOL0     H11440   6.905   5.112  11.362  1.1905  1.0188 -0.1738
   87MOL0     H11441   6.737   5.163  11.320  2.6838 -0.9768 -3.1926
   87MOL0     H11442   6.818   5.028  11.549 -1.1826 -1.3250 -0.9953
   87MOL0     H11443   6.808   5.194  11.609  0.1978 -0.0438 -0.6104
   87MOL0     H11444   6.621   5.097  11.667 -0.2911  0.2518 -0.5656
   87MOL0     H11445   6.590   5.024  11.511  1.6054 -0.3994  0.2169
   87MOL0     H11446   6.378   5.058  11.572 -2.3173  1.8546  2.6277
   87MOL0     H11447   6.138   5.081  11.505  0.1382  0.3612 -0.0375
   87MOL0     H11448   5.992   5.481  11.012 -2.1494  2.2159  4.3126
   87MOL0     H11449   5.822   5.461  10.835 -2.9839  1.4402  0.2263
   87MOL0     H11450   5.538   5.121  10.854 -1.7460 -0.1409 -0.4928
   87MOL0     H11451   5.505   5.214  10.696 -1.3899  3.0495 -0.1875
   87MOL0     H11452   5.366   5.238  10.977 -1.4213  1.3632  0.5962
   87MOL0     H11453   5.316   5.151  10.830 -1.4908  0.8882 -0.1278
   87MOL0     H11454   5.253   5.344  10.716  2.1699  2.8162 -2.8446
   87MOL0     H11455   5.378   5.444  10.793 -0.9821  0.6566  0.3954
   87MOL0     H11456   5.134   5.325  10.932 -1.5969  1.5467 -1.6558
   87MOL0     H11457   5.254   5.418  11.009  0.5524 -1.9436 -0.2885
   87MOL0     H11458   5.091   5.543  10.769 -3.4956  0.2489  1.7782
   87MOL0     H11459   5.205   5.608  10.883  0.5128 -0.7207 -0.2871
   87MOL0     H11460   5.011   5.668  10.969  2.6026  0.0401 -0.1017
   87MOL0     H11461   5.036   5.523  11.067  1.8409 -0.2551  0.0597
   87MOL0     H11462   4.858   5.542  10.816  2.7314  0.4821 -0.9452
   87MOL0     H11463   4.860   5.410  10.933 -0.0516 -0.4593 -0.0963
   87MOL0     H11464   4.765   5.592  11.100 -2.5354 -1.5155  0.3325
   87MOL0     H11465   4.651   5.561  10.970 -1.0473  2.1662  2.5243
   87MOL0     H11466   5.623   5.146  11.040 -0.7814  0.5516  3.4165
   87MOL0     H11467   5.812   5.134  11.207  1.9905  0.0896 -0.6758
   87MOL0     H11468   6.234   5.427  11.273  0.8282 -0.9827 -1.0495
   87MOL0     H11469   6.475   5.419  11.365 -2.0795  2.7104  2.4352
   87MOL0     H11470   8.090   5.132  10.662 -3.5736 -1.2975 -1.8908
   87MOL0     H11471   8.303   5.065  10.590  1.3359 -2.8598 -2.8914
   87MOL0     H11472   8.774   4.993  10.684 -0.3543  0.3331 -2.4727
   87MOL0     H11473   8.989   4.889  10.600 -0.9889  2.8428  1.7449
   87MOL0     H11474   9.202   4.655  10.426 -2.1814 -0.9671  2.9358
   87MOL0     H11475   9.147   4.805  10.498  0.6149 -1.2571  1.0052
   87MOL0     H11476   9.006   4.857  10.304  0.6856  1.2781 -3.3342
   87MOL0     H11477   9.171   4.836  10.257 -1.2734  0.2863 -1.9721
   87MOL0     H11478   8.996   4.593  10.236  1.8801 -1.3976  0.0174
   87MOL0     H11479   9.136   4.633  10.144  0.1445  1.4360 -1.2221
   87MOL0     H11480   8.988   4.845  10.045 -0.9047 -0.6306 -0.6526
   87MOL0     H11481   8.970   4.669   9.989  0.9871 -2.0655  2.3294
   87MOL0     H11482   8.603   4.746  10.176  0.9022 -1.4841  1.9529
   87MOL0     H11483   8.776   4.550  10.450  2.0734  0.3725 -1.4152
   87MOL0     H11484   8.576   4.630  10.548  1.2295 -1.3409  0.6111
   88MOL0     O11485   6.897   9.833  10.100 -0.5938 -1.0740 -0.1617
   88MOL0     C11486   6.929   9.897  10.005  0.4171  0.2022 -0.3744
   88MOL0     O11487   6.842   9.927   9.900 -0.7238  0.0829 -0.5596
   88MOL0     C11488   6.723   9.866   9.874  0.4209 -0.4890  0.2038
   88MOL0     C11489   6.688   9.736   9.901  0.0531 -0.1170 -0.1093
   88MOL0     C11490   6.567   9.682   9.854 -0.6567  0.3569  0.6232
   88MOL0     C11491   6.478   9.762   9.786 -0.6002  0.5775  0.0367
   88MOL0     O11492   6.368   9.717   9.727  0.0364 -0.4929  0.6544
   88MOL0     C11493   6.249   9.731   9.801 -0.5470  0.7384  0.3920
   88MOL0     C11494   6.251   9.644   9.925 -0.0000  0.1700 -0.4258
   88MOL0     C11495   6.262   9.491   9.905 -0.3179  0.3056 -0.7372
   88MOL0     C11496   6.232   9.402  10.021 -0.8536 -0.2927  0.0066
   88MOL0     C11497   6.210   9.258   9.981  0.8687 -0.3892 -1.0381
   88MOL0     C11498   6.229   9.156  10.095  0.4580  0.5279 -0.2145
   88MOL0     C11499   6.166   9.017  10.058 -0.6020 -0.3561  0.5515
   88MOL0     C11500   6.129   8.934  10.179  0.3083  0.0910  0.3423
   88MOL0     N11501   6.042   8.819  10.152  0.1589 -0.0482  0.4250
   88MOL0     C11502   6.048   8.727  10.043 -0.2409  0.1831  0.4003
   88MOL0     C11503   5.932   8.658  10.064 -0.2464 -0.3257 -0.7353
   88MOL0     C11504   5.891   8.539   9.988  0.3809  0.7936 -0.3321
   88MOL0     C11505   5.839   8.576   9.849 -0.3944  0.6434 -0.1731
   88MOL0     C11506   5.717   8.669   9.839 -0.4274 -0.1328 -0.6561
   88MOL0     C11507   5.585   8.612   9.889  0.2071  0.6596  0.7107
   88MOL0     O11508   5.524   8.519   9.794 -0.7448  0.3477  0.7476
   88MOL0     C11509   5.423   8.435   9.843 -1.0500 -0.2638  0.4464
   88MOL0     C11510   5.398   8.328   9.755 -0.1912 -0.7280 -0.2366
   88MOL0     C11511   5.310   8.227   9.788  0.6256  1.4248 -0.4616
   88MOL0     C11512   5.237   8.232   9.922 -0.4967  0.7926  0.9923
   88MOL0     C11513   5.140   8.134   9.963  0.6344 -0.6967  0.5843
   88MOL0     O11514   5.093   8.056   9.860 -1.5051  0.1163 -0.1206
   88MOL0     C11515   4.972   7.982   9.861  0.5496 -0.6522  0.2549
   88MOL0     C11516   4.960   7.869   9.780  0.1013 -0.4492 -0.1617
   88MOL0     C11517   4.837   7.801   9.778  0.7933  1.2746 -0.5475
   88MOL0     C11518   4.715   7.852   9.832  0.1887 -0.7163 -0.4790
   88MOL0     O11519   4.592   7.792   9.825 -0.0205  0.7917 -0.4189
   88MOL0     C11520   4.579   7.654   9.762 -0.0222 -0.9631  0.0617
   88MOL0     C11521   4.448   7.582   9.792 -0.2489  0.9616 -0.3181
   88MOL0     C11522   4.340   7.650   9.716  0.2311  0.2265  0.3990
   88MOL0     C11523   4.198   7.591   9.720 -0.3519  0.8505 -0.3492
   88MOL0     C11524   4.197   7.463   9.635 -0.2118  0.4834 -0.1522
   88MOL0     C11525   4.053   7.432   9.585 -0.6683 -0.4699  0.6492
   88MOL0     C11526   4.020   7.308   9.506  0.0064 -0.6836 -0.2645
   88MOL0     C11527   3.969   7.333   9.366 -0.0706  0.2387  0.5434
   88MOL0    Cl11528   3.800   7.403   9.377 -0.1799 -0.2970  0.2549
   88MOL0     C11529   4.726   7.975   9.910  0.0554 -0.8216  0.9718
   88MOL0     C11530   4.855   8.041   9.922  0.7627 -0.0628 -0.0664
   88MOL0     O11531   5.096   8.140  10.079 -0.2194 -0.0633 -0.0598
   88MOL0     C11532   5.276   8.344  10.006 -0.1420  0.1170 -0.5308
   88MOL0     C11533   5.371   8.437   9.972 -0.0183 -0.5445 -0.2390
   88MOL0     N11534   5.868   8.704  10.179 -0.4569 -0.0814 -0.3060
   88MOL0     N11535   5.934   8.801  10.229 -0.2800 -0.7717 -0.1041
   88MOL0     C11536   6.513   9.895   9.762 -0.3528  0.9624  0.0330
   88MOL0     C11537   6.632   9.953   9.813 -0.4646  0.1918  0.4576
   88MOL0     C11538   7.076   9.935  10.006  0.4349  0.1080 -0.0075
   88MOL0     C11539   7.142   9.967   9.882  0.3342 -0.2765 -0.2522
   88MOL0     C11540   7.268  10.011   9.884 -0.1814 -0.5025  0.1977
   88MOL0     C11541   7.345  10.011   9.995 -0.4347  0.0486 -0.2160
   88MOL0     O11542   7.471  10.047  10.002 -0.6752 -0.1884 -0.6090
   88MOL0     C11543   7.566  10.003   9.897  0.7213 -0.6950  0.9303
   88MOL0     C11544   7.699   9.951   9.958  0.2626 -0.6560 -0.1788
   88MOL0     C11545   7.785   9.920   9.841 -0.3955 -0.3108  0.2721
   88MOL0     C11546   7.917   9.852   9.889  0.2699  0.6620 -0.4739
   88MOL0     C11547   7.917   9.715   9.859 -0.4738  0.6286 -1.0466
   88MOL0     C11548   7.914   9.595   9.828 -0.0496 -0.0424 -0.1354
   88MOL0     C11549   7.292   9.984  10.121  0.6667  0.3108 -0.5626
   88MOL0     C11550   7.157   9.943  10.120 -0.3490  0.4957  0.0837
   88MOL0     H11551   6.751   9.671   9.960  0.1326  0.1467  0.1031
   88MOL0     H11552   6.557   9.581   9.893 -0.7516  0.4246  0.7732
   88MOL0     H11553   6.162   9.697   9.743 -2.4909  4.3678  0.9064
   88MOL0     H11554   6.233   9.835   9.829 -0.7824  0.7035  0.3911
   88MOL0     H11555   6.158   9.671   9.978 -1.4397 -0.0078 -2.7223
   88MOL0     H11556   6.336   9.678   9.985 -0.1196  0.4750 -0.4263
   88MOL0     H11557   6.357   9.458   9.862  0.2266  3.0112 -1.8506
   88MOL0     H11558   6.186   9.471   9.829  0.5446 -2.2963 -1.0050
   88MOL0     H11559   6.327   9.412  10.075  1.4119 -2.7893 -3.1329
   88MOL0     H11560   6.144   9.441  10.073 -1.3102 -2.1292  0.7214
   88MOL0     H11561   6.275   9.227   9.899 -0.4289 -0.5977 -2.0307
   88MOL0     H11562   6.107   9.252   9.944  0.9545 -0.4569 -1.2686
   88MOL0     H11563   6.177   9.189  10.185 -0.3356 -0.6476 -0.2232
   88MOL0     H11564   6.335   9.155  10.122  0.7179 -1.6984 -1.0903
   88MOL0     H11565   6.075   9.044  10.003 -0.9221  0.5068  1.4755
   88MOL0     H11566   6.229   8.970   9.982 -0.4916  2.3667 -1.1828
   88MOL0     H11567   6.073   9.001  10.245  0.7537 -1.8399  2.8637
   88MOL0     H11568   6.224   8.909  10.229  0.3371  1.2428  0.8949
   88MOL0     H11569   6.128   8.722   9.969  0.0296 -2.2364  0.7601
   88MOL0     H11570   5.811   8.492  10.045  0.9464  1.7531  1.3259
   88MOL0     H11571   5.976   8.472   9.975 -0.0525  0.3052 -0.6882
   88MOL0     H11572   5.817   8.487   9.790  1.0425  0.6493 -0.7535
   88MOL0     H11573   5.919   8.620   9.789 -1.6529 -0.8849 -3.1810
   88MOL0     H11574   5.741   8.760   9.896 -1.4527 -0.1142 -0.2416
   88MOL0     H11575   5.697   8.701   9.736 -1.2826 -1.0909 -0.7987
   88MOL0     H11576   5.506   8.688   9.898  1.3546  2.2891 -1.8799
   88MOL0     H11577   5.602   8.559   9.983 -0.8183 -2.1330 -0.5611
   88MOL0     H11578   5.441   8.316   9.657  1.2758  1.2340  0.0970
   88MOL0     H11579   5.282   8.146   9.720  0.1773  0.1820  1.1328
   88MOL0     H11580   5.045   7.835   9.722  0.0798 -2.0693  0.7065
   88MOL0     H11581   4.837   7.707   9.723 -0.1529  1.1860 -0.4115
   88MOL0     H11582   4.664   7.593   9.794  2.3194  1.0557 -1.8461
   88MOL0     H11583   4.589   7.655   9.653 -0.8280  1.8949 -0.0644
   88MOL0     H11584   4.430   7.588   9.900 -0.4297 -0.7285 -0.2377
   88MOL0     H11585   4.451   7.478   9.760  0.6360  0.2291  1.9714
   88MOL0     H11586   4.376   7.658   9.614  1.9813  1.3039  1.0578
   88MOL0     H11587   4.333   7.751   9.758  3.0842 -0.5829  3.3050
   88MOL0     H11588   4.173   7.561   9.822  1.5165  2.1824  0.5661
   88MOL0     H11589   4.125   7.665   9.687  1.5609  2.1181 -1.9976
   88MOL0     H11590   4.235   7.386   9.702  0.0683  2.1715  1.7076
   88MOL0     H11591   4.263   7.450   9.549  1.5127 -2.2433  1.4596
   88MOL0     H11592   4.018   7.519   9.528 -0.5349 -0.4231  0.6373
   88MOL0     H11593   3.991   7.417   9.673 -0.8460 -2.0721  0.2773
   88MOL0     H11594   4.107   7.241   9.501  1.1716  0.8218 -1.2142
   88MOL0     H11595   3.937   7.261   9.560 -1.3115  1.5666 -0.2118
   88MOL0     H11596   3.967   7.236   9.314 -0.1323  0.5149  0.0300
   88MOL0     H11597   4.035   7.390   9.300  0.7406 -1.4472 -0.1649
   88MOL0     H11598   4.635   8.022   9.948  0.9552  2.3448 -0.5040
   88MOL0     H11599   4.857   8.134   9.978 -3.4475 -0.6945  1.4983
   88MOL0     H11600   5.228   8.353  10.103  0.6641  0.8964 -0.1957
   88MOL0     H11601   5.397   8.514  10.044  0.3960 -2.7331  2.0903
   88MOL0     H11602   6.440   9.962   9.718  0.1553  1.4587 -0.0651
   88MOL0     H11603   6.657  10.056   9.790 -1.2300  0.0710 -1.0072
   88MOL0     H11604   7.085   9.945   9.792 -2.4638  1.7230  0.8624
   88MOL0     H11605   7.325  10.044   9.799  0.0031  0.3784  0.6540
   88MOL0     H11606   7.574  10.088   9.829 -2.9753 -2.2931 -1.8631
   88MOL0     H11607   7.532   9.916   9.840  1.3062 -0.4714  0.2140
   88MOL0     H11608   7.739  10.034  10.017 -0.9505  1.8101 -2.6308
   88MOL0     H11609   7.680   9.860  10.016 -0.0291 -1.4091 -1.4162
   88MOL0     H11610   7.815  10.017   9.799 -0.8174  0.4340  1.6188
   88MOL0     H11611   7.733   9.850   9.775  0.1280  0.7746 -1.3725
   88MOL0     H11612   8.006   9.898   9.845 -1.2095  2.6565 -1.5791
   88MOL0     H11613   7.928   9.853   9.997  0.2482  1.5254 -0.4678
   88MOL0     H11614   7.921   9.488   9.822 -0.2794 -0.3440  3.0691
   88MOL0     H11615   7.348   9.968  10.213 -3.0082  0.3748  1.9080
   88MOL0     H11616   7.124   9.898  10.213 -1.5106  0.3754 -0.3780
   89MOL0     O11617   9.227   3.833   2.095  0.0179  0.7807  0.3004
   89MOL0     C11618   9.258   3.794   2.210 -0.0126  0.3798  0.2083
   89MOL0     O11619   9.165   3.744   2.301 -0.2292 -0.8420  0.0213
   89MOL0     C11620   9.032   3.761   2.273  0.2994  0.0949 -0.6431
   89MOL0     C11621   8.966   3.881   2.236 -1.0875  0.3319 -0.5510
   89MOL0     C11622   8.830   3.895   2.225  0.2797  0.1436  0.3334
   89MOL0     C11623   8.744   3.784   2.243  0.3913  0.0652 -0.3955
   89MOL0     O11624   8.607   3.778   2.248  0.1850  0.2165 -0.7861
   89MOL0     C11625   8.530   3.903   2.241 -0.3899  0.0653  0.8246
   89MOL0     C11626   8.378   3.862   2.253 -0.0094 -0.0796 -0.2916
   89MOL0     C11627   8.346   3.750   2.346  1.0000  0.1962 -0.2631
   89MOL0     C11628   8.195   3.722   2.338 -0.5011 -0.8076  0.2254
   89MOL0     C11629   8.148   3.624   2.450 -0.3909  0.2128  0.4624
   89MOL0     C11630   7.998   3.601   2.430  0.6702 -0.0445 -0.5745
   89MOL0     C11631   7.934   3.491   2.511 -0.1555  0.4724  0.5038
   89MOL0     C11632   7.780   3.477   2.522 -0.7411 -0.4619  0.3313
   89MOL0     N11633   7.695   3.586   2.587 -0.7951 -0.2121 -0.1958
   89MOL0     C11634   7.628   3.565   2.699  1.3016  0.5071  0.1810
   89MOL0     C11635   7.567   3.680   2.727 -0.4802 -0.0070  0.7201
   89MOL0     C11636   7.466   3.697   2.843 -0.8050  0.0177  0.1368
   89MOL0     C11637   7.468   3.844   2.872 -0.3568 -0.5002 -0.3275
   89MOL0     C11638   7.386   3.866   3.000  0.3549 -1.1161 -0.1452
   89MOL0     C11639   7.466   3.808   3.116  0.1018 -0.0648  0.1452
   89MOL0     O11640   7.446   3.886   3.231 -0.0586  0.3992 -0.1739
   89MOL0     C11641   7.525   3.869   3.339 -0.5800  0.1119 -0.4598
   89MOL0     C11642   7.592   3.757   3.379  0.5179 -0.0834 -0.4411
   89MOL0     C11643   7.668   3.758   3.498  0.7897 -0.0473  0.6097
   89MOL0     C11644   7.657   3.862   3.586 -0.2854 -0.0236 -0.0910
   89MOL0     C11645   7.721   3.863   3.719  0.3286 -0.0053 -0.6309
   89MOL0     O11646   7.679   3.949   3.820  0.0023 -0.4837 -0.6013
   89MOL0     C11647   7.732   3.964   3.946 -0.7689 -0.2600 -0.2421
   89MOL0     C11648   7.854   3.915   3.994  0.6607  0.8350 -0.4964
   89MOL0     C11649   7.899   3.934   4.129  0.5029 -0.1078  0.6071
   89MOL0     C11650   7.818   4.024   4.216 -0.5240  0.2886  1.4206
   89MOL0     O11651   7.843   4.055   4.345  0.1496 -0.4418 -0.6472
   89MOL0     C11652   7.971   4.016   4.394  0.3682  1.0218  0.0756
   89MOL0     C11653   8.004   4.035   4.541  0.2047 -0.9594  0.0186
   89MOL0     C11654   7.903   3.978   4.633  0.3341 -0.6428 -0.3780
   89MOL0     C11655   7.943   4.006   4.776 -0.3537  0.5070  0.4722
   89MOL0     C11656   7.844   3.971   4.882 -0.1195  0.0081  0.6778
   89MOL0     C11657   7.896   4.032   5.016  0.4467 -0.4732 -0.2585
   89MOL0     C11658   7.811   3.995   5.139 -0.7330 -0.1828 -0.4513
   89MOL0     C11659   7.843   4.071   5.271  0.8131  0.2233 -0.1650
   89MOL0    Cl11660   7.982   4.012   5.343  0.0373  0.8098 -0.1060
   89MOL0     C11661   7.701   4.069   4.168  0.6764  1.2342 -0.0915
   89MOL0     C11662   7.657   4.037   4.038  0.6962 -0.2529  0.0906
   89MOL0     O11663   7.828   3.802   3.727  0.1824  0.0015  0.3268
   89MOL0     C11664   7.605   3.980   3.542 -0.4164 -0.7983  1.0663
   89MOL0     C11665   7.536   3.982   3.418  1.1869 -0.8863 -0.0966
   89MOL0     N11666   7.578   3.766   2.619 -0.0311 -0.2793  0.5742
   89MOL0     N11667   7.661   3.704   2.536  0.1035  0.2178 -0.3526
   89MOL0     C11668   8.810   3.668   2.278  0.1045 -0.3973  0.2036
   89MOL0     C11669   8.945   3.654   2.302  0.3930 -0.1634  0.0604
   89MOL0     C11670   9.396   3.802   2.251  0.4540  0.0121  0.3693
   89MOL0     C11671   9.432   3.787   2.386 -0.0502 -0.6485 -0.5763
   89MOL0     C11672   9.563   3.790   2.430  0.1905  0.1462  0.8386
   89MOL0     C11673   9.663   3.791   2.340 -0.1060 -1.2052  0.5971
   89MOL0     O11674   9.792   3.780   2.375  1.0816  0.1972 -0.4040
   89MOL0     C11675   9.865   3.896   2.353  0.4577  0.0361 -0.2903
   89MOL0     C11676  10.006   3.853   2.324  0.1382 -0.0439  0.0955
   89MOL0     C11677  10.090   3.958   2.256 -0.0689 -0.0065 -0.0642
   89MOL0     C11678  10.231   3.922   2.213 -0.5929 -0.1916 -0.1423
   89MOL0     C11679  10.309   4.040   2.169 -0.0524 -0.5881 -0.4266
   89MOL0     C11680  10.403   4.103   2.133  0.4623  0.3766 -0.5039
   89MOL0     C11681   9.633   3.786   2.203  0.3554  0.2653 -0.1644
   89MOL0     C11682   9.500   3.810   2.156  0.2038 -0.5551  0.4976
   89MOL0     H11683   9.031   3.963   2.206  1.3318 -2.1302 -2.6701
   89MOL0     H11684   8.779   3.989   2.203 -1.5324 -1.3858 -2.7830
   89MOL0     H11685   8.540   3.949   2.142 -2.5215  1.6506  1.2652
   89MOL0     H11686   8.552   3.971   2.324  2.6977 -2.3393  2.1688
   89MOL0     H11687   8.344   3.827   2.155 -0.2654 -2.1520  0.4915
   89MOL0     H11688   8.327   3.951   2.292  0.3547  0.5416 -1.1963
   89MOL0     H11689   8.370   3.780   2.449 -1.0914  1.3118 -0.0405
   89MOL0     H11690   8.390   3.658   2.308  1.6320  0.7060 -0.7865
   89MOL0     H11691   8.129   3.809   2.347  0.8172 -0.0311  3.4086
   89MOL0     H11692   8.175   3.678   2.240  0.4592  1.6916 -1.1963
   89MOL0     H11693   8.164   3.669   2.548  0.5501 -0.2474  0.5283
   89MOL0     H11694   8.206   3.532   2.446 -1.2871 -0.3467  0.0285
   89MOL0     H11695   7.990   3.570   2.325  1.8662 -3.4527  0.2181
   89MOL0     H11696   7.937   3.690   2.444  1.3540  0.4628 -0.7965
   89MOL0     H11697   7.965   3.394   2.471 -0.9018 -0.7978  2.7761
   89MOL0     H11698   7.976   3.500   2.612  2.3078 -1.6923 -0.2001
   89MOL0     H11699   7.759   3.377   2.560 -1.4814 -2.4943 -4.7544
   89MOL0     H11700   7.750   3.454   2.420  1.8577 -1.3746 -0.3238
   89MOL0     H11701   7.598   3.479   2.758 -0.6138  1.5932  0.8583
   89MOL0     H11702   7.507   3.634   2.923  0.1201  0.6931  0.2069
   89MOL0     H11703   7.370   3.670   2.797 -1.0356 -1.0221  1.1725
   89MOL0     H11704   7.425   3.912   2.798 -3.4120  0.1519  1.8311
   89MOL0     H11705   7.568   3.885   2.890 -0.9836  0.2447  1.8600
   89MOL0     H11706   7.384   3.975   3.008 -0.9187 -1.1584  0.5650
   89MOL0     H11707   7.282   3.832   2.997 -0.8151  2.0579  0.4156
   89MOL0     H11708   7.572   3.802   3.089  0.3425 -2.0712  1.2918
   89MOL0     H11709   7.419   3.710   3.132  0.3070 -0.3355 -0.8795
   89MOL0     H11710   7.589   3.671   3.313  0.8436 -0.4672  0.0278
   89MOL0     H11711   7.724   3.667   3.518  2.3198  1.1777  2.1618
   89MOL0     H11712   7.921   3.844   3.947 -0.7017 -0.7015 -0.1884
   89MOL0     H11713   8.000   3.902   4.154  2.0168  2.2686 -1.8665
   89MOL0     H11714   8.054   4.062   4.341  0.1958 -1.7826 -2.9624
   89MOL0     H11715   7.984   3.909   4.374  0.0794  0.6137  1.9000
   89MOL0     H11716   8.015   4.143   4.550 -3.3498 -0.0453 -3.7649
   89MOL0     H11717   8.097   3.986   4.572  0.3624 -0.2850  0.6348
   89MOL0     H11718   7.912   3.870   4.617  0.9416 -0.7222  0.4229
   89MOL0     H11719   7.805   4.018   4.609 -0.0465 -2.1362 -1.4379
   89MOL0     H11720   8.040   3.957   4.792  0.2588  1.2240 -0.8620
   89MOL0     H11721   7.961   4.111   4.803 -0.5584 -0.1089  3.4283
   89MOL0     H11722   7.842   3.865   4.908 -0.2516 -0.1064  0.2121
   89MOL0     H11723   7.744   4.011   4.869  0.5949  1.9618  0.8558
   89MOL0     H11724   7.904   4.141   5.018 -2.5626 -0.1559  1.5907
   89MOL0     H11725   7.997   3.991   5.021  0.7951 -0.0801 -2.7637
   89MOL0     H11726   7.704   4.005   5.121 -1.2177  3.7390  3.1103
   89MOL0     H11727   7.830   3.888   5.156 -1.9632 -0.6414 -1.7966
   89MOL0     H11728   7.755   4.075   5.335  1.3194  2.5886  0.4692
   89MOL0     H11729   7.854   4.174   5.235 -0.8220  0.3624 -0.3036
   89MOL0     H11730   7.640   4.141   4.221  0.1048  0.2368  0.6130
   89MOL0     H11731   7.566   4.086   4.006  0.5226 -1.5921 -1.6647
   89MOL0     H11732   7.618   4.070   3.601  0.9192  0.1895 -0.6631
   89MOL0     H11733   7.488   4.067   3.372  2.9186  0.1345 -0.1107
   89MOL0     H11734   8.747   3.583   2.300  2.6226 -2.3211  0.4455
   89MOL0     H11735   8.981   3.559   2.340  0.6394  0.4946  1.5320
   89MOL0     H11736   9.359   3.772   2.465  0.1268  0.4647 -0.1898
   89MOL0     H11737   9.592   3.779   2.534  2.3279 -0.4861  0.2253
   89MOL0     H11738   9.840   3.946   2.448  1.7435  1.7905 -0.8156
   89MOL0     H11739   9.835   3.960   2.269  1.5389 -1.6288 -2.0217
   89MOL0     H11740  10.051   3.820   2.418  1.8899  0.4646 -0.5290
   89MOL0     H11741   9.992   3.774   2.250  0.0828  2.6363 -2.9799
   89MOL0     H11742  10.098   4.043   2.324  0.3038 -1.2014  1.4419
   89MOL0     H11743  10.044   3.993   2.163 -1.1207  0.0025  0.4451
   89MOL0     H11744  10.269   3.864   2.298 -4.1413 -0.2987  1.5682
   89MOL0     H11745  10.234   3.855   2.126 -1.1757  1.7962 -1.7796
   89MOL0     H11746  10.491   4.155   2.101  0.7714  0.2213  0.0750
   89MOL0     H11747   9.712   3.766   2.132  0.9934 -2.2861  1.1472
   89MOL0     H11748   9.477   3.802   2.050  1.1793 -1.9938  0.3711
   90MOL0     O11749   3.989   8.760   9.236  0.0222 -0.3249 -0.2498
   90MOL0     C11750   4.002   8.872   9.284 -0.5756 -0.8790 -0.4673
   90MOL0     O11751   3.904   8.957   9.318  0.1662  0.4608 -0.1841
   90MOL0     C11752   3.772   8.916   9.307 -0.3144  0.4037 -0.4332
   90MOL0     C11753   3.724   8.790   9.347  0.2247 -0.2272 -0.5941
   90MOL0     C11754   3.591   8.763   9.340 -0.6188  0.4829 -0.3895
   90MOL0     C11755   3.502   8.865   9.301 -0.5351 -0.2804 -0.0801
   90MOL0     O11756   3.380   8.832   9.277 -0.1513 -0.9997 -0.3292
   90MOL0     C11757   3.304   8.803   9.395 -0.6414  0.5292 -0.2598
   90MOL0     C11758   3.179   8.891   9.418 -0.1377 -0.8743  0.4620
   90MOL0     C11759   3.112   8.933   9.289 -0.4019 -0.6522 -0.2439
   90MOL0     C11760   3.068   8.812   9.212  0.3476  0.6690  0.0334
   90MOL0     C11761   3.040   8.842   9.062 -0.6736 -0.4114  0.3304
   90MOL0     C11762   3.165   8.868   8.975  0.5039 -0.1077  0.1267
   90MOL0     C11763   3.145   8.945   8.850  0.6896 -0.2915  0.7660
   90MOL0     C11764   3.121   9.091   8.876  0.4773 -0.1259  0.4862
   90MOL0     N11765   3.246   9.148   8.922 -0.0529  0.0803  0.0253
   90MOL0     C11766   3.375   9.137   8.873 -0.0819 -0.8733  0.2468
   90MOL0     C11767   3.457   9.205   8.965 -0.5826  0.4493  0.2850
   90MOL0     C11768   3.606   9.234   8.958 -0.1819  0.4292  0.5689
   90MOL0     C11769   3.675   9.112   8.889 -0.3290  0.5174  0.1334
   90MOL0     C11770   3.827   9.142   8.860 -1.1060  0.3586 -0.5327
   90MOL0     C11771   3.895   9.181   8.995 -1.4781  0.4585  0.8133
   90MOL0     O11772   4.024   9.239   8.973  0.5413  0.7520 -0.1439
   90MOL0     C11773   4.133   9.165   8.939 -1.1726  0.8662 -0.4528
   90MOL0     C11774   4.255   9.234   8.933 -0.4157 -0.0151  0.7993
   90MOL0     C11775   4.371   9.166   8.899 -0.8012  0.0021  0.1652
   90MOL0     C11776   4.376   9.031   8.893 -0.1797  0.1638 -0.7731
   90MOL0     C11777   4.511   8.965   8.885 -0.3773 -1.1146 -0.2205
   90MOL0     O11778   4.625   9.024   8.945  0.0826  0.0612  0.1294
   90MOL0     C11779   4.729   8.939   8.960  0.6126 -0.6176 -0.7958
   90MOL0     C11780   4.831   8.942   8.864 -0.9060 -0.4449 -0.4859
   90MOL0     C11781   4.935   8.851   8.872  0.1010 -0.6426  0.0624
   90MOL0     C11782   4.962   8.783   8.988 -0.1679 -0.2959 -0.2278
   90MOL0     O11783   5.082   8.719   9.000  0.7766  0.1168 -0.1797
   90MOL0     C11784   5.139   8.728   9.136 -1.1090  0.4184  0.0903
   90MOL0     C11785   5.290   8.669   9.133  0.3264  0.7126 -0.5025
   90MOL0     C11786   5.378   8.710   9.246  0.5499 -0.3254 -0.0150
   90MOL0     C11787   5.481   8.600   9.275 -0.1420 -0.0310 -0.2839
   90MOL0     C11788   5.579   8.641   9.391  0.2998  0.7324  0.0973
   90MOL0     C11789   5.717   8.580   9.369  0.3099 -0.0030  0.3293
   90MOL0     C11790   5.810   8.626   9.480  0.3215 -0.5650  0.2975
   90MOL0     C11791   5.959   8.577   9.459  1.0693 -0.0221  0.0679
   90MOL0    Cl11792   6.019   8.555   9.292 -0.4167  0.2934  0.4053
   90MOL0     C11793   4.868   8.796   9.091  0.2787  0.5401  0.6522
   90MOL0     C11794   4.746   8.866   9.077  0.7319  0.1796 -0.4259
   90MOL0     O11795   4.508   8.853   8.837  0.2553  0.0986 -0.0626
   90MOL0     C11796   4.257   8.960   8.900  1.8547  0.2951  0.2465
   90MOL0     C11797   4.136   9.028   8.924 -0.4273  0.7133  0.2852
   90MOL0     N11798   3.383   9.237   9.070 -0.0237  1.0713 -0.1594
   90MOL0     N11799   3.264   9.207   9.043 -0.4022  0.2525 -0.0853
   90MOL0     C11800   3.551   8.991   9.259  0.0132  0.3692  0.4411
   90MOL0     C11801   3.685   9.016   9.269  0.1518 -0.0557 -0.1019
   90MOL0     C11802   4.140   8.933   9.272  0.6121 -0.8201 -0.0646
   90MOL0     C11803   4.248   8.843   9.268 -0.2042  0.3266  0.3826
   90MOL0     C11804   4.381   8.890   9.256 -0.8640 -0.8067  1.3105
   90MOL0     C11805   4.414   9.022   9.238  0.8272  0.4766 -0.9261
   90MOL0     O11806   4.546   9.058   9.233 -0.2103  0.1180 -0.4534
   90MOL0     C11807   4.582   9.189   9.212  0.1490 -1.3774  0.1027
   90MOL0     C11808   4.732   9.215   9.220 -0.7125  0.6061  0.3145
   90MOL0     C11809   4.792   9.169   9.359  0.5744 -0.6391 -0.4992
   90MOL0     C11810   4.919   9.087   9.354 -0.8007  0.5573  0.3961
   90MOL0     C11811   5.036   9.150   9.292 -0.1081 -0.8032  0.3763
   90MOL0     C11812   5.129   9.223   9.248  0.1799 -0.7580  0.5152
   90MOL0     C11813   4.304   9.110   9.237  0.8187  0.2140 -0.1984
   90MOL0     C11814   4.176   9.066   9.260 -0.2927  0.0261 -0.2608
   90MOL0     H11815   3.787   8.709   9.383 -1.3410 -1.7173 -1.0464
   90MOL0     H11816   3.560   8.660   9.355 -0.4399  0.7915  2.5297
   90MOL0     H11817   3.367   8.824   9.481 -2.1693  5.4368 -0.0274
   90MOL0     H11818   3.279   8.696   9.395  2.3881 -0.2910  1.8352
   90MOL0     H11819   3.210   8.982   9.470 -0.6428 -0.6649  0.4036
   90MOL0     H11820   3.107   8.829   9.473 -0.4356 -0.0273  1.0318
   90MOL0     H11821   3.184   8.996   9.235 -0.4737 -0.0886  0.3075
   90MOL0     H11822   3.029   8.999   9.314  1.7211  2.3542 -0.4714
   90MOL0     H11823   3.144   8.733   9.212  1.3970  1.5681  2.4837
   90MOL0     H11824   2.972   8.771   9.244  0.0539 -1.0797 -2.8173
   90MOL0     H11825   2.981   8.933   9.056  1.6228  1.1024 -0.8772
   90MOL0     H11826   2.986   8.755   9.023 -0.6150  0.5845 -2.1587
   90MOL0     H11827   3.201   8.767   8.955 -1.5547 -0.7697 -0.4780
   90MOL0     H11828   3.229   8.928   9.041 -0.8622  0.4141  1.0274
   90MOL0     H11829   3.226   8.915   8.783 -3.3828 -3.0366 -3.6112
   90MOL0     H11830   3.061   8.913   8.788 -0.7177  1.5524  1.6160
   90MOL0     H11831   3.037   9.111   8.943 -1.4289  2.1004 -2.2733
   90MOL0     H11832   3.082   9.141   8.787 -3.0950 -1.0509  1.3777
   90MOL0     H11833   3.395   9.089   8.777 -2.9422 -1.8038  0.0063
   90MOL0     H11834   3.638   9.261   9.059 -2.8036 -1.1057  1.9421
   90MOL0     H11835   3.615   9.330   8.908 -1.2367  0.9520  1.3156
   90MOL0     H11836   3.630   9.081   8.795 -1.0242 -0.5654  0.8054
   90MOL0     H11837   3.661   9.022   8.949  4.3436 -0.6736 -0.1508
   90MOL0     H11838   3.876   9.049   8.829  0.2542  0.0717  2.1305
   90MOL0     H11839   3.838   9.220   8.785 -1.2915 -0.2566 -1.2144
   90MOL0     H11840   3.903   9.092   9.059  2.7576  0.1149  0.1412
   90MOL0     H11841   3.837   9.259   9.045 -1.9315  0.1421  0.7922
   90MOL0     H11842   4.270   9.341   8.923  3.7911 -0.3893  1.1855
   90MOL0     H11843   4.462   9.225   8.893  0.7616 -2.3067 -0.1760
   90MOL0     H11844   4.817   8.997   8.771 -0.1482  1.0918  0.2752
   90MOL0     H11845   5.001   8.840   8.787 -0.3616 -2.7852 -0.0716
   90MOL0     H11846   5.073   8.667   9.198  0.5582  0.3993  1.9598
   90MOL0     H11847   5.128   8.831   9.171 -2.0272  0.6819 -0.9040
   90MOL0     H11848   5.347   8.705   9.046 -1.8155 -0.1713 -2.3860
   90MOL0     H11849   5.293   8.561   9.119 -0.4904  0.3341  1.8821
   90MOL0     H11850   5.315   8.719   9.335 -0.0554 -1.5126 -0.3133
   90MOL0     H11851   5.430   8.804   9.225  0.1883  0.9828  4.0435
   90MOL0     H11852   5.437   8.501   9.292  0.6255 -0.0264  2.1272
   90MOL0     H11853   5.545   8.591   9.187 -1.2818 -0.6947 -1.0648
   90MOL0     H11854   5.537   8.604   9.485  0.1296 -2.2738 -1.0452
   90MOL0     H11855   5.593   8.749   9.395  1.7216  0.5283  2.4764
   90MOL0     H11856   5.747   8.595   9.265 -4.6211 -0.9131 -1.5240
   90MOL0     H11857   5.703   8.472   9.380 -1.9999  0.3111  0.9898
   90MOL0     H11858   5.803   8.735   9.488  0.5468 -0.6178  1.3061
   90MOL0     H11859   5.762   8.597   9.574 -0.8879  0.7170  0.1148
   90MOL0     H11860   5.973   8.480   9.508  1.2994 -0.2292 -0.3924
   90MOL0     H11861   6.014   8.653   9.515 -0.5088  0.5481  0.8816
   90MOL0     H11862   4.885   8.764   9.194  2.8733  2.5223  0.9507
   90MOL0     H11863   4.666   8.864   9.150  1.5678 -3.3320  0.6034
   90MOL0     H11864   4.256   8.851   8.898  1.0002  0.2922  0.3722
   90MOL0     H11865   4.050   8.963   8.936  1.5805 -1.8848  1.6900
   90MOL0     H11866   3.483   9.066   9.223 -0.8993  0.4601  2.2578
   90MOL0     H11867   3.716   9.116   9.241 -0.2363  0.2473  0.5177
   90MOL0     H11868   4.226   8.737   9.271  0.9368  0.0899  0.4607
   90MOL0     H11869   4.472   8.831   9.253  0.7126  1.5098  0.9132
   90MOL0     H11870   4.536   9.252   9.289  2.0749  2.1475 -1.3731
   90MOL0     H11871   4.529   9.222   9.122 -3.2910 -1.2991  2.0056
   90MOL0     H11872   4.802   9.185   9.142  1.2097  1.9979  1.4148
   90MOL0     H11873   4.759   9.320   9.204 -0.2894 -0.0320 -4.5878
   90MOL0     H11874   4.726   9.105   9.417 -0.0246  0.4141  0.0190
   90MOL0     H11875   4.813   9.259   9.419  1.0742 -1.2627  0.2778
   90MOL0     H11876   4.946   9.046   9.452  1.6135 -3.5145 -1.7218
   90MOL0     H11877   4.907   9.001   9.287 -0.2313  0.2784  0.6442
   90MOL0     H11878   5.214   9.282   9.219 -0.4300  2.8500  4.9514
   90MOL0     H11879   4.310   9.218   9.227  0.2438  0.1928 -0.8275
   90MOL0     H11880   4.094   9.136   9.273  0.5180  0.7593  1.2773
   91MOL0     O11881   3.895   6.890   3.807 -0.6947 -0.7272 -0.2843
   91MOL0     C11882   3.888   6.992   3.878  0.2031 -0.0304 -0.0298
   91MOL0     O11883   3.776   7.039   3.929 -0.0507  0.1331 -0.1895
   91MOL0     C11884   3.664   6.983   3.870 -0.5169 -0.7569  0.0612
   91MOL0     C11885   3.594   6.880   3.934  0.4797 -1.2919 -0.0523
   91MOL0     C11886   3.467   6.841   3.905  1.2096  0.4120  0.1604
   91MOL0     C11887   3.415   6.897   3.789 -0.5815  0.2828  0.1261
   91MOL0     O11888   3.283   6.869   3.743 -0.5469 -0.9311  0.1044
   91MOL0     C11889   3.199   6.768   3.804  0.4086  0.1461  0.0233
   91MOL0     C11890   3.054   6.771   3.756 -0.7838  0.1622  0.4758
   91MOL0     C11891   2.967   6.680   3.841 -0.7982 -0.6392 -0.0150
   91MOL0     C11892   2.830   6.653   3.783 -0.7736  0.3328 -0.4207
   91MOL0     C11893   2.752   6.556   3.867 -0.1278  0.7078  0.0242
   91MOL0     C11894   2.614   6.530   3.786 -0.0913 -0.3567 -0.1946
   91MOL0     C11895   2.503   6.467   3.867 -0.1706  0.9876 -0.6681
   91MOL0     C11896   2.516   6.332   3.943  1.4205  0.3728 -0.7518
   91MOL0     N11897   2.385   6.280   3.983 -0.7830  0.0736  0.5888
   91MOL0     C11898   2.346   6.148   3.964 -1.1539  0.2178  0.2641
   91MOL0     C11899   2.227   6.135   4.027  0.2038  0.1676  1.0152
   91MOL0     C11900   2.129   6.011   4.008  0.0852  0.2206  0.3332
   91MOL0     C11901   1.979   6.053   3.975  0.1780 -0.4340 -0.4654
   91MOL0     C11902   1.959   6.093   3.824  0.2433  0.7984  0.4443
   91MOL0     C11903   2.058   6.195   3.761 -0.4650 -0.9316  0.0434
   91MOL0     O11904   2.001   6.242   3.639 -0.5872 -0.1843 -0.2448
   91MOL0     C11905   2.071   6.341   3.572 -0.3109  0.2952 -0.0748
   91MOL0     C11906   2.196   6.387   3.610  0.0021  0.3150 -0.2260
   91MOL0     C11907   2.267   6.480   3.534  0.4725 -0.7833  0.0729
   91MOL0     C11908   2.211   6.514   3.409 -0.6220 -0.0970  0.7581
   91MOL0     C11909   2.294   6.606   3.320 -0.2618 -0.3875 -0.3432
   91MOL0     O11910   2.412   6.664   3.369 -0.0748 -0.6131 -0.2526
   91MOL0     C11911   2.479   6.746   3.284 -0.3838 -0.3279 -0.4964
   91MOL0     C11912   2.429   6.880   3.260 -0.0641  0.2313  0.7856
   91MOL0     C11913   2.505   6.968   3.183  0.2836 -0.0002 -0.2697
   91MOL0     C11914   2.630   6.934   3.129 -0.0571 -0.9078  0.6050
   91MOL0     O11915   2.684   7.028   3.049 -0.3962  1.0851  0.3423
   91MOL0     C11916   2.826   7.014   3.010  0.0578 -0.0196  0.6238
   91MOL0     C11917   2.889   7.143   2.966 -0.2953  0.4665 -0.3664
   91MOL0     C11918   3.039   7.127   2.916  0.1928 -0.2336 -0.4720
   91MOL0     C11919   3.098   7.261   2.893  0.4175  0.1280  0.3595
   91MOL0     C11920   3.255   7.243   2.876 -0.0297  0.2255  0.3655
   91MOL0     C11921   3.328   7.354   2.804  0.1826  0.2063 -0.6644
   91MOL0     C11922   3.469   7.317   2.783  0.9252  0.7057  1.0132
   91MOL0     C11923   3.546   7.420   2.698  0.0572  0.4791  0.6843
   91MOL0    Cl11924   3.712   7.366   2.677 -0.6734 -0.0794  0.3223
   91MOL0     C11925   2.682   6.806   3.163 -0.4600 -0.5561  0.7711
   91MOL0     C11926   2.612   6.715   3.244 -0.5929 -0.5841  0.1764
   91MOL0     O11927   2.251   6.611   3.204 -0.4725 -0.5461  0.2747
   91MOL0     C11928   2.074   6.487   3.380  0.9081  0.5296 -0.2669
   91MOL0     C11929   2.004   6.395   3.458 -1.1248  0.3212  0.4538
   91MOL0     N11930   2.215   6.252   4.101 -0.0679  0.1541  0.4258
   91MOL0     N11931   2.307   6.336   4.081 -0.1376 -0.2611 -0.2861
   91MOL0     C11932   3.494   6.967   3.705 -0.0548 -0.6432 -0.0369
   91MOL0     C11933   3.616   7.024   3.743  0.6603 -0.4021 -0.3224
   91MOL0     C11934   3.999   7.088   3.878  0.4602  0.6472  0.5986
   91MOL0     C11935   4.127   7.049   3.831  0.3030 -0.4907 -0.3254
   91MOL0     C11936   4.238   7.127   3.841  0.1290  0.2898  0.5159
   91MOL0     C11937   4.224   7.264   3.875  0.2447  0.2538  0.3772
   91MOL0     O11938   4.318   7.367   3.864  0.0702  0.4675  0.1972
   91MOL0     C11939   4.449   7.339   3.812 -0.8302 -0.3385  0.2174
   91MOL0     C11940   4.547   7.461   3.829  0.4186 -0.0137 -0.4241
   91MOL0     C11941   4.681   7.424   3.763 -0.3593  0.3511 -0.2894
   91MOL0     C11942   4.778   7.536   3.741  0.3553  0.3529 -0.1762
   91MOL0     C11943   4.734   7.676   3.749  0.1605  0.0877  0.3521
   91MOL0     C11944   4.709   7.791   3.740 -0.0508 -0.3691  0.6199
   91MOL0     C11945   4.099   7.300   3.927  0.2071  1.1703 -0.2179
   91MOL0     C11946   3.979   7.221   3.921  0.0117  0.1899  0.7328
   91MOL0     H11947   3.633   6.834   4.023 -0.0647 -2.2967 -0.3181
   91MOL0     H11948   3.411   6.770   3.963  1.0968  2.0227  2.1323
   91MOL0     H11949   3.196   6.781   3.912 -0.8488  0.4901 -0.0331
   91MOL0     H11950   3.239   6.668   3.789  2.6469  0.9380  0.3483
   91MOL0     H11951   3.041   6.761   3.648 -1.3910  2.1010  0.3254
   91MOL0     H11952   3.007   6.869   3.771 -1.6021  0.3538 -2.5172
   91MOL0     H11953   2.973   6.724   3.941  0.9659 -3.1295  1.1012
   91MOL0     H11954   3.009   6.579   3.843 -2.2016 -1.2640 -1.0201
   91MOL0     H11955   2.784   6.752   3.774 -1.0361  0.1214 -1.5935
   91MOL0     H11956   2.830   6.607   3.683  0.1220 -0.3224 -0.1254
   91MOL0     H11957   2.713   6.608   3.955 -2.7414  1.9579 -1.7511
   91MOL0     H11958   2.816   6.475   3.903 -0.4776  1.3700  2.3035
   91MOL0     H11959   2.644   6.467   3.702 -1.8472  0.3315 -1.3964
   91MOL0     H11960   2.579   6.623   3.741 -0.6178 -0.8246 -0.7726
   91MOL0     H11961   2.464   6.544   3.934 -6.0714  0.5106 -2.8884
   91MOL0     H11962   2.417   6.440   3.805 -0.6438 -0.0958  0.3858
   91MOL0     H11963   2.577   6.341   4.033  0.4982 -1.5645  0.1238
   91MOL0     H11964   2.564   6.255   3.881  2.0051  1.7539 -2.0840
   91MOL0     H11965   2.404   6.074   3.909  2.0325  0.3364  3.0903
   91MOL0     H11966   2.121   5.946   4.096 -1.4165  0.4855  0.4208
   91MOL0     H11967   2.160   5.962   3.916  0.3904  1.0347 -0.0002
   91MOL0     H11968   1.955   6.140   4.037 -1.4565 -0.1123 -1.4891
   91MOL0     H11969   1.892   5.994   4.005  0.1051 -0.8530 -1.4866
   91MOL0     H11970   1.974   5.995   3.778  1.0109  1.2314 -0.2594
   91MOL0     H11971   1.855   6.125   3.814  0.3891  0.6828 -2.2272
   91MOL0     H11972   2.143   6.135   3.729 -0.9198  0.1949 -3.7802
   91MOL0     H11973   2.088   6.279   3.825 -1.3837  0.0218 -0.7228
   91MOL0     H11974   2.241   6.343   3.698  0.8052 -0.5571 -1.0494
   91MOL0     H11975   2.359   6.521   3.574  0.2265 -1.7486  1.7671
   91MOL0     H11976   2.331   6.907   3.298 -0.7661  1.0122 -1.4197
   91MOL0     H11977   2.480   7.069   3.150  1.9891 -0.4333 -3.1670
   91MOL0     H11978   2.818   6.948   2.923  2.3357  0.5149 -0.0713
   91MOL0     H11979   2.886   6.961   3.085  1.0749 -1.2667 -0.9886
   91MOL0     H11980   2.891   7.198   3.060  0.4779 -1.4507  0.8080
   91MOL0     H11981   2.825   7.190   2.891 -1.2049 -1.4740 -0.8857
   91MOL0     H11982   3.054   7.072   2.822  0.1633  1.2407 -1.3685
   91MOL0     H11983   3.093   7.071   2.993  0.7255 -0.6546 -1.1356
   91MOL0     H11984   3.047   7.305   2.807  1.5004  1.2368  0.2417
   91MOL0     H11985   3.090   7.321   2.984 -0.0315  0.1015  0.3366
   91MOL0     H11986   3.272   7.155   2.812  1.9709  0.3447  0.6794
   91MOL0     H11987   3.297   7.215   2.973 -2.6514 -1.1755  1.2161
   91MOL0     H11988   3.319   7.440   2.870 -0.4072 -0.5656  0.2985
   91MOL0     H11989   3.280   7.379   2.709 -0.8359 -2.6788 -1.0240
   91MOL0     H11990   3.527   7.302   2.875 -0.4152  0.4449  1.8525
   91MOL0     H11991   3.467   7.228   2.719  0.8513  2.7143 -1.9728
   91MOL0     H11992   3.542   7.516   2.751  2.5456  1.1243 -0.1781
   91MOL0     H11993   3.509   7.444   2.598  1.6660  0.6289  0.0981
   91MOL0     H11994   2.784   6.784   3.133 -0.1550  0.2267  1.2182
   91MOL0     H11995   2.641   6.612   3.261 -1.5026 -0.8454  0.2419
   91MOL0     H11996   2.033   6.529   3.289  5.1153 -1.0694 -3.2405
   91MOL0     H11997   1.906   6.356   3.435 -0.9489  0.9838 -1.6887
   91MOL0     H11998   3.453   7.008   3.613 -0.3710  0.9110  0.7683
   91MOL0     H11999   3.668   7.100   3.684  3.5939 -0.7656  1.5805
   91MOL0     H12000   4.141   6.944   3.809  2.3324 -0.3300 -0.0391
   91MOL0     H12001   4.329   7.078   3.809 -0.7015 -2.4262  2.0312
   91MOL0     H12002   4.439   7.314   3.706 -0.4828  3.2941 -0.8089
   91MOL0     H12003   4.496   7.254   3.862 -2.4539 -1.1958  0.3574
   91MOL0     H12004   4.504   7.547   3.777 -0.3546 -0.6656 -0.8866
   91MOL0     H12005   4.550   7.485   3.936  2.6908  0.1890 -0.4895
   91MOL0     H12006   4.665   7.354   3.681  2.7488  0.2093 -0.9181
   91MOL0     H12007   4.726   7.349   3.828 -0.5037  0.9599  0.5388
   91MOL0     H12008   4.853   7.516   3.819 -0.3633 -1.8693 -0.0064
   91MOL0     H12009   4.824   7.527   3.642  0.0105 -3.6848 -0.0996
   91MOL0     H12010   4.674   7.892   3.742 -3.2395 -1.3444 -0.4702
   91MOL0     H12011   4.080   7.404   3.951  0.0070  1.1250 -0.1729
   91MOL0     H12012   3.889   7.275   3.948  0.2194  2.8471 -3.0041
   92MOL0     O12013   3.122   8.483   5.440 -0.0849 -0.2162  0.2788
   92MOL0     C12014   3.183   8.468   5.338 -0.0046  0.2484  0.1714
   92MOL0     O12015   3.143   8.383   5.236 -0.4231  0.8662 -1.1273
   92MOL0     C12016   3.032   8.302   5.254 -0.5550  0.7725  0.0955
   92MOL0     C12017   3.047   8.167   5.229 -0.4487 -0.4822  0.2733
   92MOL0     C12018   2.932   8.081   5.248 -0.1183  0.2860 -0.4835
   92MOL0     C12019   2.813   8.134   5.287  0.5383 -1.1017 -0.0105
   92MOL0     O12020   2.706   8.052   5.309 -0.9388 -0.0323  0.1735
   92MOL0     C12021   2.673   7.976   5.188 -0.1474  0.3786 -0.3415
   92MOL0     C12022   2.536   7.926   5.216 -0.4511 -0.2659 -0.3515
   92MOL0     C12023   2.467   7.850   5.096  0.4961  0.5504  0.0745
   92MOL0     C12024   2.332   7.793   5.154 -0.9927 -1.6420 -0.6193
   92MOL0     C12025   2.266   7.704   5.059 -0.0321  0.3566  0.0018
   92MOL0     C12026   2.136   7.645   5.119 -0.0026 -0.2617  0.6496
   92MOL0     C12027   2.078   7.560   5.010 -0.8040  0.0809 -0.0699
   92MOL0     C12028   1.929   7.548   5.044  0.8256  0.8684 -0.0900
   92MOL0     N12029   1.875   7.436   4.969 -0.8953  0.1150  0.0601
   92MOL0     C12030   1.796   7.343   5.016  0.8148  0.8029  0.3360
   92MOL0     C12031   1.763   7.268   4.907 -0.2381 -0.2311  0.5618
   92MOL0     C12032   1.672   7.147   4.904  0.2589 -0.1305  0.2451
   92MOL0     C12033   1.685   7.055   4.780  0.4330  0.1119 -0.3066
   92MOL0     C12034   1.780   6.935   4.782  0.1933  0.4665  0.0999
   92MOL0     C12035   1.921   6.982   4.807  0.2929  0.0375  0.4743
   92MOL0     O12036   2.003   6.871   4.809  0.1243 -0.6359 -0.4660
   92MOL0     C12037   2.130   6.897   4.786 -0.8919  0.8697  0.3121
   92MOL0     C12038   2.208   6.793   4.729  0.6204 -0.3339 -0.5071
   92MOL0     C12039   2.340   6.816   4.693  0.6690 -0.2224 -0.0540
   92MOL0     C12040   2.402   6.933   4.712  0.8393 -0.0550 -0.2578
   92MOL0     C12041   2.532   6.960   4.656 -0.3150 -0.0903  0.5798
   92MOL0     O12042   2.568   6.906   4.532  0.4767 -0.1580  0.5619
   92MOL0     C12043   2.698   6.913   4.492  0.3713 -0.6656  0.1989
   92MOL0     C12044   2.802   6.865   4.570  1.1384  0.0784 -0.2803
   92MOL0     C12045   2.930   6.859   4.511 -0.5247  0.1889 -0.7569
   92MOL0     C12046   2.959   6.930   4.391  1.4048  0.3054  0.8380
   92MOL0     O12047   3.086   6.964   4.356  0.4155  0.5408 -0.1332
   92MOL0     C12048   3.126   6.994   4.224  0.1927 -0.1682 -0.0773
   92MOL0     C12049   3.282   6.963   4.218 -0.7603  0.0799  0.8060
   92MOL0     C12050   3.361   7.064   4.139  0.2227 -0.0128 -0.0900
   92MOL0     C12051   3.507   7.076   4.173 -0.5398 -0.3194  0.3650
   92MOL0     C12052   3.537   7.164   4.298 -0.5544 -1.3408 -0.5809
   92MOL0     C12053   3.687   7.144   4.335  0.1996  0.5246  0.8422
   92MOL0     C12054   3.727   7.236   4.452  0.6095 -0.2282  0.4431
   92MOL0     C12055   3.706   7.172   4.595 -0.3409  0.2980 -0.3322
   92MOL0    Cl12056   3.826   7.045   4.624  0.4967 -0.4605 -0.2584
   92MOL0     C12057   2.843   6.974   4.321 -0.4468 -0.6932 -0.3014
   92MOL0     C12058   2.714   6.964   4.363 -0.0957  0.5297 -0.4919
   92MOL0     O12059   2.607   7.034   4.718  0.0858 -0.5787  0.2797
   92MOL0     C12060   2.332   7.035   4.791 -0.0514 -0.1248 -0.9088
   92MOL0     C12061   2.193   7.027   4.817  0.0483  0.1663 -0.3140
   92MOL0     N12062   1.812   7.337   4.796  0.1862 -0.1835 -0.2357
   92MOL0     N12063   1.880   7.431   4.836 -0.5357 -0.1275  1.4642
   92MOL0     C12064   2.791   8.271   5.300  0.1107  0.4341 -0.4952
   92MOL0     C12065   2.904   8.351   5.291  0.4954 -0.5485 -0.3120
   92MOL0     C12066   3.313   8.537   5.314  0.0472 -0.3614  0.7559
   92MOL0     C12067   3.385   8.586   5.421  1.0709 -0.2589  1.1373
   92MOL0     C12068   3.509   8.640   5.407 -1.1012  0.1482  0.0528
   92MOL0     C12069   3.572   8.642   5.285 -0.0468  0.1386 -0.6827
   92MOL0     O12070   3.688   8.699   5.250  0.1272  0.3173 -0.6820
   92MOL0     C12071   3.782   8.741   5.350 -0.2242  0.7556 -0.2527
   92MOL0     C12072   3.740   8.892   5.365  0.3425  0.3375  0.0574
   92MOL0     C12073   3.857   8.980   5.430 -0.2356  0.4588 -1.0677
   92MOL0     C12074   3.835   9.128   5.405  0.4188 -0.2087  0.5091
   92MOL0     C12075   3.719   9.175   5.484 -0.1600  0.1770 -1.2161
   92MOL0     C12076   3.631   9.212   5.562 -0.4680 -0.0349  0.4432
   92MOL0     C12077   3.504   8.596   5.177  0.7063 -0.1310  0.0667
   92MOL0     C12078   3.370   8.539   5.181 -0.0781  0.9550 -0.0454
   92MOL0     H12079   3.146   8.128   5.206 -1.1701 -4.1034  2.4587
   92MOL0     H12080   2.946   7.974   5.241 -2.3043 -0.0328 -0.9070
   92MOL0     H12081   2.742   7.892   5.175  1.1128  1.2622  0.4188
   92MOL0     H12082   2.681   8.038   5.098  0.6757  1.6851  0.6057
   92MOL0     H12083   2.470   8.009   5.241 -1.4070 -0.8543 -0.8489
   92MOL0     H12084   2.550   7.860   5.302  3.1494 -2.9287 -2.6842
   92MOL0     H12085   2.537   7.775   5.058 -0.0232  0.2233 -0.2326
   92MOL0     H12086   2.439   7.918   5.015 -2.5214 -1.1758 -0.4547
   92MOL0     H12087   2.348   7.735   5.246  0.5048 -1.1516 -0.5380
   92MOL0     H12088   2.279   7.883   5.186  1.6950  0.0796 -0.6742
   92MOL0     H12089   2.330   7.622   5.025  1.1509  1.6868 -1.1161
   92MOL0     H12090   2.243   7.751   4.962  0.5417 -1.7521 -1.2162
   92MOL0     H12091   2.066   7.728   5.135 -1.1316 -1.7211  4.3448
   92MOL0     H12092   2.142   7.598   5.217 -2.4682  1.4464  1.7242
   92MOL0     H12093   2.102   7.604   4.913 -1.7264  0.8289  0.0255
   92MOL0     H12094   2.116   7.458   5.012  1.1495  0.7762  2.4046
   92MOL0     H12095   1.881   7.636   5.000  0.2397  0.0756 -1.0864
   92MOL0     H12096   1.927   7.541   5.153  0.3078 -1.9620 -0.1943
   92MOL0     H12097   1.775   7.312   5.118  2.1768 -3.2869 -0.4411
   92MOL0     H12098   1.567   7.177   4.896  0.8591  2.0965  0.0935
   92MOL0     H12099   1.682   7.098   5.001 -0.5768  4.0321  2.6572
   92MOL0     H12100   1.678   7.109   4.686  1.3492 -2.0103 -1.6578
   92MOL0     H12101   1.591   7.000   4.791 -0.3618  1.8082  3.1371
   92MOL0     H12102   1.753   6.866   4.863 -4.4578 -0.4434 -1.9033
   92MOL0     H12103   1.766   6.876   4.691 -0.4630  0.6506  0.0797
   92MOL0     H12104   1.927   7.025   4.908  2.2876 -1.1094  0.9200
   92MOL0     H12105   1.952   7.052   4.729 -1.9018  0.0461 -0.4322
   92MOL0     H12106   2.158   6.698   4.713 -0.0007 -0.1263  0.1625
   92MOL0     H12107   2.385   6.739   4.632 -0.4474 -0.0771 -1.1087
   92MOL0     H12108   2.780   6.838   4.672 -1.5044  1.3954 -0.4059
   92MOL0     H12109   3.012   6.810   4.562  0.7243  1.0889 -1.8295
   92MOL0     H12110   3.093   7.097   4.212 -1.0985 -0.0313  3.3072
   92MOL0     H12111   3.085   6.929   4.147 -0.2531 -1.2883  1.0584
   92MOL0     H12112   3.288   6.868   4.163  1.2164  1.1641 -0.9838
   92MOL0     H12113   3.319   6.961   4.321 -0.0944  3.0618  0.7115
   92MOL0     H12114   3.307   7.158   4.146 -2.9374 -1.8389  2.3511
   92MOL0     H12115   3.363   7.042   4.032  0.2888 -2.5590  0.3595
   92MOL0     H12116   3.540   6.972   4.186  1.8040  0.5043  1.5532
   92MOL0     H12117   3.563   7.129   4.096  2.4152 -1.4385  1.5689
   92MOL0     H12118   3.478   7.138   4.387 -0.8029 -0.0077 -0.3309
   92MOL0     H12119   3.511   7.267   4.274  2.3529 -0.6381 -1.1468
   92MOL0     H12120   3.745   7.164   4.244 -1.3963  0.9579 -0.1254
   92MOL0     H12121   3.720   7.046   4.370  0.6067  0.7973  1.2337
   92MOL0     H12122   3.823   7.287   4.444 -0.5653  2.0087 -0.4202
   92MOL0     H12123   3.662   7.322   4.438 -0.0161 -0.8188 -0.4028
   92MOL0     H12124   3.608   7.123   4.602  0.1800 -0.6135  1.2636
   92MOL0     H12125   3.718   7.250   4.671  2.8360  1.1903 -1.6134
   92MOL0     H12126   2.871   7.034   4.235  0.6373 -0.1341  0.4232
   92MOL0     H12127   2.631   7.012   4.313 -0.8088  1.5293  1.5303
   92MOL0     H12128   2.385   7.129   4.802  0.8233 -0.6219 -0.8100
   92MOL0     H12129   2.138   7.102   4.873 -2.6708  0.3156 -2.8895
   92MOL0     H12130   2.689   8.307   5.312 -0.9414 -2.5127  0.3289
   92MOL0     H12131   2.887   8.456   5.311  0.8395 -0.3237 -1.1496
   92MOL0     H12132   3.358   8.577   5.526  1.9636  0.8346  1.4873
   92MOL0     H12133   3.548   8.668   5.504 -0.3896  0.7208 -0.3940
   92MOL0     H12134   3.883   8.738   5.310 -0.6514  2.0163 -1.4961
   92MOL0     H12135   3.778   8.682   5.442  3.5631  0.1041 -0.3810
   92MOL0     H12136   3.719   8.933   5.266 -0.5346 -0.6254 -0.1669
   92MOL0     H12137   3.647   8.899   5.422 -1.1241  2.7670 -2.3729
   92MOL0     H12138   3.951   8.951   5.382  0.2971 -0.0616  0.2382
   92MOL0     H12139   3.863   8.955   5.536 -3.2003  0.6723 -0.7676
   92MOL0     H12140   3.924   9.188   5.427 -0.1226  1.5382 -1.6481
   92MOL0     H12141   3.806   9.153   5.302  0.0043 -0.3241  0.5953
   92MOL0     H12142   3.557   9.223   5.639  0.1426  0.4291  0.9717
   92MOL0     H12143   3.556   8.610   5.083  3.7759 -3.3920  1.0663
   92MOL0     H12144   3.318   8.512   5.089  1.6754  0.4203 -0.9318
   93MOL0     O12145   7.717   6.269   0.835  0.5136 -0.1858  0.2012
   93MOL0     C12146   7.732   6.242   0.714  0.1893 -0.6081 -0.5981
   93MOL0     O12147   7.832   6.178   0.657 -0.2886 -0.8567 -0.2276
   93MOL0     C12148   7.955   6.161   0.716  0.7688  0.0768 -1.1944
   93MOL0     C12149   8.062   6.163   0.630 -0.0109 -0.0914 -0.3747
   93MOL0     C12150   8.199   6.155   0.675  0.9653  0.1946 -0.1976
   93MOL0     C12151   8.224   6.104   0.803  1.0920 -0.2281 -0.2485
   93MOL0     O12152   8.353   6.088   0.855  0.9039  0.3502  0.0901
   93MOL0     C12153   8.465   6.135   0.783 -0.0703  0.0952 -0.5178
   93MOL0     C12154   8.596   6.079   0.845  1.0384 -0.1317  0.6067
   93MOL0     C12155   8.700   6.045   0.741 -0.5561 -0.5488  0.3308
   93MOL0     C12156   8.822   5.995   0.815 -0.2335 -0.2059 -0.6062
   93MOL0     C12157   8.938   5.972   0.723  0.2966  0.2199  0.2587
   93MOL0     C12158   9.056   5.910   0.800  0.3880 -0.3945 -0.1514
   93MOL0     C12159   9.173   5.879   0.716  0.4981  0.4394  0.2089
   93MOL0     C12160   9.304   5.884   0.780 -0.2175 -1.1139 -0.0207
   93MOL0     N12161   9.417   5.899   0.687 -0.1304 -0.2421 -0.8225
   93MOL0     C12162   9.515   5.995   0.707  0.5815 -0.3791  0.1552
   93MOL0     C12163   9.622   5.946   0.636 -1.0922 -1.0032 -0.0222
   93MOL0     C12164   9.750   6.016   0.600 -0.0372  0.6211  0.3017
   93MOL0     C12165   9.831   6.046   0.726  0.2096 -0.5248  0.7225
   93MOL0     C12166   9.893   5.929   0.802 -0.1610 -0.0733 -0.7361
   93MOL0     C12167   9.793   5.825   0.871  0.3253 -0.2678  0.8333
   93MOL0     O12168   9.695   5.884   0.958 -0.2202 -0.1275 -0.1017
   93MOL0     C12169   9.582   5.814   1.003 -0.4939  0.3179  0.1348
   93MOL0     C12170   9.554   5.678   0.973 -0.1293  0.4016 -0.6090
   93MOL0     C12171   9.435   5.611   1.016  0.2771 -0.2426  0.7484
   93MOL0     C12172   9.337   5.691   1.088 -0.2558  0.8631  0.0757
   93MOL0     C12173   9.211   5.629   1.131 -0.3505  0.0712  0.0412
   93MOL0     O12174   9.126   5.721   1.186 -0.5509  1.2535 -0.2028
   93MOL0     C12175   8.989   5.712   1.210  0.0032 -0.4614  0.2223
   93MOL0     C12176   8.926   5.836   1.251 -0.9733 -0.1802  0.6044
   93MOL0     C12177   8.792   5.841   1.270  0.6812  0.8751  0.1605
   93MOL0     C12178   8.721   5.726   1.276  1.0230  0.1816 -0.6599
   93MOL0     O12179   8.584   5.744   1.289 -0.7666  0.5616 -0.1751
   93MOL0     C12180   8.496   5.632   1.317  0.5456 -0.1394  0.4585
   93MOL0     C12181   8.356   5.680   1.348  0.0765 -0.3311  0.0876
   93MOL0     C12182   8.255   5.566   1.386  0.3185  0.1899 -0.4329
   93MOL0     C12183   8.122   5.634   1.415  0.3299 -1.0628 -0.4299
   93MOL0     C12184   8.019   5.537   1.465  0.5116 -0.2410 -0.3897
   93MOL0     C12185   7.875   5.581   1.450  0.2611  1.2361 -0.1540
   93MOL0     C12186   7.788   5.455   1.502 -0.9730  0.0995 -0.0411
   93MOL0     C12187   7.639   5.487   1.501 -0.2778  0.8392 -0.3181
   93MOL0    Cl12188   7.569   5.601   1.626 -0.1568  0.0149  0.2960
   93MOL0     C12189   8.771   5.603   1.242 -0.6300 -0.6582  0.3318
   93MOL0     C12190   8.909   5.602   1.202 -0.9578  0.8512 -0.2129
   93MOL0     O12191   9.179   5.519   1.086  0.1563  0.4901 -0.0097
   93MOL0     C12192   9.374   5.814   1.132 -0.7305 -0.2920 -0.4259
   93MOL0     C12193   9.490   5.878   1.088  0.7408  0.0324 -0.1507
   93MOL0     N12194   9.584   5.822   0.570 -0.0199 -0.8811 -1.1026
   93MOL0     N12195   9.466   5.801   0.602  0.5081 -0.1445 -0.8386
   93MOL0     C12196   8.109   6.104   0.900  0.8387 -0.0760  0.9677
   93MOL0     C12197   7.979   6.135   0.855 -0.6238 -0.3957  0.3814
   93MOL0     C12198   7.616   6.260   0.629 -0.5184  0.2904  0.3590
   93MOL0     C12199   7.489   6.253   0.683  0.5048 -0.9019  0.6548
   93MOL0     C12200   7.388   6.291   0.595  0.8792  0.0677 -0.3470
   93MOL0     C12201   7.410   6.341   0.470  0.2100 -0.9622 -0.2887
   93MOL0     O12202   7.297   6.382   0.396  1.2595 -0.0397 -0.9122
   93MOL0     C12203   7.307   6.408   0.263  0.3277  0.6180  0.6582
   93MOL0     C12204   7.175   6.459   0.206 -0.2654 -0.1439 -1.0320
   93MOL0     C12205   7.069   6.346   0.218 -0.2205 -0.2393 -0.3052
   93MOL0     C12206   6.930   6.396   0.190  0.2017  0.2406  0.4982
   93MOL0     C12207   6.868   6.489   0.290  1.2319 -0.1207  0.0558
   93MOL0     C12208   6.808   6.559   0.371  0.4012  0.0611 -0.3333
   93MOL0     C12209   7.539   6.346   0.422  0.0659  0.4901  0.3660
   93MOL0     C12210   7.643   6.306   0.498 -0.4095  0.6062 -1.0217
   93MOL0     H12211   8.039   6.199   0.530 -0.3374 -1.7317 -0.9226
   93MOL0     H12212   8.273   6.173   0.598  1.5019 -1.4734 -0.0933
   93MOL0     H12213   8.457   6.243   0.765  0.7407  0.6503  2.0759
   93MOL0     H12214   8.463   6.095   0.681 -1.2838  0.6875 -0.7426
   93MOL0     H12215   8.569   5.991   0.905  0.1226  1.9320  3.3995
   93MOL0     H12216   8.633   6.158   0.909  1.0564 -0.1963  0.6764
   93MOL0     H12217   8.742   6.132   0.688 -1.1534  0.3398  1.2814
   93MOL0     H12218   8.666   5.972   0.668 -0.0100 -1.6945  1.1881
   93MOL0     H12219   8.856   6.067   0.890  0.4261 -1.2112  0.0703
   93MOL0     H12220   8.785   5.909   0.872 -2.2680  2.3189  2.2322
   93MOL0     H12221   8.969   6.063   0.670  1.9245  0.6604  1.8587
   93MOL0     H12222   8.907   5.905   0.642 -0.4697 -0.8336  1.3832
   93MOL0     H12223   9.035   5.816   0.850  0.7682 -0.1756  0.4243
   93MOL0     H12224   9.086   5.972   0.885 -0.6076  0.3204 -0.2976
   93MOL0     H12225   9.166   5.783   0.664 -2.1505  0.6702  0.0165
   93MOL0     H12226   9.172   5.957   0.640  2.3565  1.5906  1.2942
   93MOL0     H12227   9.313   5.785   0.828 -2.9038 -1.8143 -0.8238
   93MOL0     H12228   9.300   5.961   0.857 -0.1952 -1.5639  0.4419
   93MOL0     H12229   9.518   6.091   0.757 -2.2529 -0.3601  0.4592
   93MOL0     H12230   9.736   6.106   0.539 -1.9188 -0.5257 -1.0640
   93MOL0     H12231   9.805   5.947   0.536 -0.5146 -0.9128  1.4799
   93MOL0     H12232   9.765   6.099   0.795  1.8925  1.0007  1.2352
   93MOL0     H12233   9.910   6.117   0.699  0.3153 -0.6535  0.6875
   93MOL0     H12234   9.970   5.884   0.738  0.5521  0.0143  0.0331
   93MOL0     H12235   9.947   5.980   0.883  0.6720 -2.3157  0.2142
   93MOL0     H12236   9.844   5.745   0.926  0.0198 -0.8675  0.2620
   93MOL0     H12237   9.742   5.775   0.788 -1.5660  0.8253  1.2667
   93MOL0     H12238   9.627   5.616   0.921  1.4680 -0.3074  2.2622
   93MOL0     H12239   9.428   5.504   0.998 -0.2022 -0.2465  0.9433
   93MOL0     H12240   8.989   5.920   1.278 -1.1071 -0.4222  1.7504
   93MOL0     H12241   8.739   5.931   1.299  0.2822  1.0292 -1.0181
   93MOL0     H12242   8.542   5.575   1.399 -2.0593  0.3227  2.3706
   93MOL0     H12243   8.501   5.560   1.235  2.5682  0.2752  0.1706
   93MOL0     H12244   8.319   5.748   1.271 -0.3084 -0.3299  0.2684
   93MOL0     H12245   8.354   5.743   1.437  0.9129 -0.9259  0.5472
   93MOL0     H12246   8.286   5.508   1.473  0.4410  0.5255 -0.2490
   93MOL0     H12247   8.247   5.507   1.294  2.3365  0.7584 -1.0249
   93MOL0     H12248   8.126   5.709   1.494  1.0710 -0.4056 -1.0839
   93MOL0     H12249   8.092   5.684   1.322  0.5750 -0.3239 -0.1178
   93MOL0     H12250   8.047   5.514   1.568  1.6309 -1.7190 -0.9812
   93MOL0     H12251   8.026   5.441   1.413 -1.3115 -0.7926  0.2951
   93MOL0     H12252   7.848   5.593   1.345 -0.0945 -0.7698 -0.3283
   93MOL0     H12253   7.853   5.671   1.509 -1.1536  1.5328 -1.0768
   93MOL0     H12254   7.789   5.370   1.434 -0.4266  1.4137 -1.7482
   93MOL0     H12255   7.827   5.415   1.596  2.7123  1.3654 -0.8371
   93MOL0     H12256   7.588   5.391   1.501 -1.9977  1.7034 -1.0398
   93MOL0     H12257   7.615   5.526   1.401  3.5996 -1.1463 -2.2456
   93MOL0     H12258   8.724   5.506   1.229  1.1311 -1.7581  1.6446
   93MOL0     H12259   8.949   5.505   1.177 -0.2685 -0.1263  3.9025
   93MOL0     H12260   9.316   5.872   1.204  1.7490  0.7183  0.8677
   93MOL0     H12261   9.525   5.975   1.122 -2.1053  1.1476 -0.1172
   93MOL0     H12262   8.138   6.084   1.003 -1.3297 -1.4255  1.3622
   93MOL0     H12263   7.903   6.126   0.933  0.6614  2.0066  2.0105
   93MOL0     H12264   7.475   6.222   0.786 -0.7532 -0.4754  0.6286
   93MOL0     H12265   7.280   6.292   0.605  0.5990 -1.6398 -2.4231
   93MOL0     H12266   7.339   6.315   0.214  1.0431  0.3115  1.6833
   93MOL0     H12267   7.382   6.486   0.250  1.4383 -0.7970 -2.2577
   93MOL0     H12268   7.138   6.544   0.263 -1.7348 -0.5058 -1.4034
   93MOL0     H12269   7.190   6.482   0.100  3.4529 -0.6531 -0.7798
   93MOL0     H12270   7.059   6.322   0.324  2.4357  2.5133  0.7158
   93MOL0     H12271   7.092   6.254   0.163  0.0880 -0.1332 -0.3534
   93MOL0     H12272   6.936   6.437   0.088  0.0544 -4.1793 -1.5237
   93MOL0     H12273   6.865   6.309   0.198  0.0013  0.4929  1.8479
   93MOL0     H12274   6.750   6.612   0.444 -0.0066 -0.5773 -0.1855
   93MOL0     H12275   7.559   6.385   0.323  0.6959  0.5376  0.5035
   93MOL0     H12276   7.745   6.301   0.460  0.1457  0.8326  0.3372
   94MOL0     O12277   0.938   4.715   4.692 -0.9825 -0.0433 -0.3944
   94MOL0     C12278   0.948   4.710   4.817 -0.0479  0.8391  0.5144
   94MOL0     O12279   0.838   4.721   4.898  0.1213  0.5677 -0.0010
   94MOL0     C12280   0.709   4.743   4.854 -0.1424  0.9271 -0.3865
   94MOL0     C12281   0.620   4.813   4.944 -0.5315 -0.1901 -0.1999
   94MOL0     C12282   0.490   4.841   4.909  0.5422  0.7084 -1.0114
   94MOL0     C12283   0.439   4.798   4.779 -0.0348  1.4472 -0.3960
   94MOL0     O12284   0.308   4.809   4.737 -1.1460  0.2272  0.0682
   94MOL0     C12285   0.217   4.887   4.814  0.0967  0.5670 -0.2936
   94MOL0     C12286   0.139   4.991   4.719 -0.6875  0.1361 -0.1150
   94MOL0     C12287   0.022   4.932   4.643  0.3223  0.7827  0.1286
   94MOL0     C12288  -0.110   4.899   4.735  0.6451 -0.9096  0.2792
   94MOL0     C12289  -0.218   5.005   4.722  0.2210 -0.2446 -0.0064
   94MOL0     C12290  -0.355   4.971   4.784 -0.4615  0.6097  0.6014
   94MOL0     C12291  -0.450   5.087   4.783  0.2205 -0.4970 -0.0284
   94MOL0     C12292  -0.586   5.057   4.850 -0.2572  0.2598 -0.0612
   94MOL0     N12293  -0.672   4.985   4.759 -0.5583  0.7083 -0.0730
   94MOL0     C12294  -0.733   5.023   4.637  0.4035 -0.9578  0.7910
   94MOL0     C12295  -0.791   4.910   4.596 -0.1801 -0.5945  0.3604
   94MOL0     C12296  -0.883   4.904   4.476 -0.4201 -0.5045 -0.2816
   94MOL0     C12297  -1.021   4.892   4.539 -0.8873 -0.2547  0.1946
   94MOL0     C12298  -1.138   4.848   4.440  0.9021  0.2495 -0.1159
   94MOL0     C12299  -1.273   4.867   4.511 -0.2092 -0.7586  0.3120
   94MOL0     O12300  -1.294   4.763   4.601 -0.4169  1.4446  0.4992
   94MOL0     C12301  -1.411   4.763   4.669  0.1323  0.1622  0.7307
   94MOL0     C12302  -1.419   4.777   4.808 -0.3616 -0.0895  0.5505
   94MOL0     C12303  -1.542   4.803   4.865 -0.1789 -0.8599  0.5268
   94MOL0     C12304  -1.662   4.825   4.801  0.0907  1.0552 -0.4460
   94MOL0     C12305  -1.785   4.857   4.879 -0.4217  0.7014  1.0656
   94MOL0     O12306  -1.777   4.900   5.006  0.0872  0.1685 -0.0556
   94MOL0     C12307  -1.888   4.907   5.090 -0.6237 -0.1999 -0.0843
   94MOL0     C12308  -1.864   4.976   5.213  0.0845  0.4615 -0.2284
   94MOL0     C12309  -1.968   4.989   5.311 -0.2855 -0.3256  0.1674
   94MOL0     C12310  -2.089   4.919   5.295 -0.3858  0.5923  0.8675
   94MOL0     O12311  -2.168   4.929   5.404  0.1102 -0.1019 -0.0890
   94MOL0     C12312  -2.304   4.884   5.398  0.4654  0.5407  0.6075
   94MOL0     C12313  -2.365   4.897   5.540 -0.0183 -0.2457  0.3773
   94MOL0     C12314  -2.514   4.867   5.535  0.4362 -0.0838  0.3005
   94MOL0     C12315  -2.571   4.860   5.679 -0.2744 -0.0190 -0.0074
   94MOL0     C12316  -2.719   4.831   5.695 -0.3566 -0.5363 -0.0703
   94MOL0     C12317  -2.802   4.959   5.671  0.8110  0.3186  0.7865
   94MOL0     C12318  -2.947   4.934   5.637 -0.4874 -0.3869 -0.0696
   94MOL0     C12319  -3.049   5.060   5.636 -0.2920  0.4900 -0.3265
   94MOL0    Cl12320  -2.964   5.169   5.513  0.2357 -0.1877  0.2667
   94MOL0     C12321  -2.107   4.836   5.178  0.7624 -0.0233  0.8104
   94MOL0     C12322  -2.012   4.836   5.078  0.2678 -0.0147 -0.1492
   94MOL0     O12323  -1.887   4.842   4.819  0.0876  0.2359 -0.6322
   94MOL0     C12324  -1.654   4.806   4.660  0.8393  0.0862 -0.6356
   94MOL0     C12325  -1.529   4.782   4.591 -0.1890  0.1258  0.7392
   94MOL0     N12326  -0.752   4.803   4.669 -0.2630 -0.2344 -0.5682
   94MOL0     N12327  -0.675   4.845   4.766  0.2011 -0.4012  0.8144
   94MOL0     C12328   0.512   4.711   4.700  0.1644  1.0688  0.1030
   94MOL0     C12329   0.653   4.690   4.734  0.0640  0.6346  0.2555
   94MOL0     C12330   1.084   4.695   4.875  1.1326 -0.7262 -0.1413
   94MOL0     C12331   1.192   4.662   4.793 -0.4503  0.3560 -0.2280
   94MOL0     C12332   1.313   4.633   4.850 -0.0751  0.5269 -1.0585
   94MOL0     C12333   1.345   4.659   4.985  0.0578  0.3304  0.0081
   94MOL0     O12334   1.460   4.619   5.047  0.1284 -0.0840  0.7063
   94MOL0     C12335   1.504   4.484   5.021 -0.1570 -1.0906  0.0392
   94MOL0     C12336   1.621   4.444   5.112  0.1782 -1.0255 -0.6673
   94MOL0     C12337   1.571   4.448   5.260  1.1166 -0.2283 -0.2508
   94MOL0     C12338   1.681   4.417   5.366 -0.2066  0.4439 -0.0783
   94MOL0     C12339   1.776   4.313   5.338  0.0818  0.3735  0.5935
   94MOL0     C12340   1.865   4.229   5.309  0.0525  0.0961  0.1969
   94MOL0     C12341   1.233   4.698   5.064  0.0128 -0.6567 -0.0554
   94MOL0     C12342   1.104   4.713   5.012  0.3061  0.7639 -0.0961
   94MOL0     H12343   0.660   4.843   5.041  0.5427  1.2014 -1.0488
   94MOL0     H12344   0.435   4.886   4.991  2.3854  0.0401  0.6868
   94MOL0     H12345   0.274   4.954   4.880 -1.3549  1.3516  0.2142
   94MOL0     H12346   0.140   4.830   4.867  1.1630 -0.9978 -0.3601
   94MOL0     H12347   0.212   5.017   4.642 -2.1316 -0.5624 -1.7892
   94MOL0     H12348   0.110   5.081   4.775 -1.1333 -1.9457  3.2819
   94MOL0     H12349   0.055   4.838   4.597  1.3728  1.2649 -0.1448
   94MOL0     H12350  -0.008   5.014   4.577 -1.3451  2.0462  2.3378
   94MOL0     H12351  -0.151   4.808   4.692 -0.0019  0.6196 -2.5685
   94MOL0     H12352  -0.076   4.886   4.839  0.3763 -2.4491  0.1923
   94MOL0     H12353  -0.239   5.014   4.615 -2.5068 -5.8085 -0.2840
   94MOL0     H12354  -0.186   5.101   4.765 -1.6423  0.6067 -0.3980
   94MOL0     H12355  -0.335   4.940   4.887 -2.8700 -2.6602  0.2444
   94MOL0     H12356  -0.406   4.885   4.739  1.1376 -1.4058  2.3973
   94MOL0     H12357  -0.406   5.168   4.843 -1.2719  0.0727  0.3387
   94MOL0     H12358  -0.452   5.140   4.687 -1.0197  1.8556  1.2020
   94MOL0     H12359  -0.620   5.157   4.877  2.0840  1.6068 -1.6522
   94MOL0     H12360  -0.574   5.000   4.943  2.2738 -0.3313 -0.6687
   94MOL0     H12361  -0.727   5.116   4.582  0.6891 -2.3232 -1.6424
   94MOL0     H12362  -0.859   4.821   4.409 -0.5752  0.3178 -1.3749
   94MOL0     H12363  -0.872   4.997   4.420  1.8492  0.6935  1.9361
   94MOL0     H12364  -1.041   4.990   4.582 -0.6841 -0.9904  2.0694
   94MOL0     H12365  -1.015   4.816   4.618  1.9075  0.3729  0.6919
   94MOL0     H12366  -1.140   4.901   4.344  0.5657  2.5592  1.0865
   94MOL0     H12367  -1.120   4.741   4.429 -0.8625 -0.0951 -0.0349
   94MOL0     H12368  -1.352   4.878   4.436 -0.7092 -0.9930  0.8010
   94MOL0     H12369  -1.273   4.961   4.567 -3.6629  0.3677 -1.3356
   94MOL0     H12370  -1.326   4.771   4.865  0.0660 -1.7944 -0.2478
   94MOL0     H12371  -1.542   4.807   4.974 -1.4787  0.9886  0.5022
   94MOL0     H12372  -1.770   5.028   5.230 -0.1774  0.5090  1.2082
   94MOL0     H12373  -1.960   5.049   5.401 -0.0844 -0.1494  0.0320
   94MOL0     H12374  -2.306   4.777   5.373  0.9247  0.8055 -0.6517
   94MOL0     H12375  -2.365   4.934   5.322 -0.7348  0.7889  1.7193
   94MOL0     H12376  -2.343   4.996   5.581  3.0155 -1.3462  1.7385
   94MOL0     H12377  -2.317   4.822   5.605 -1.5694 -2.1223 -0.5399
   94MOL0     H12378  -2.522   4.770   5.486  3.9831 -0.4464  0.1999
   94MOL0     H12379  -2.565   4.938   5.469 -0.3552  0.9466  1.9517
   94MOL0     H12380  -2.514   4.790   5.742  1.2305  0.3076 -0.9480
   94MOL0     H12381  -2.549   4.947   5.742 -1.2708 -3.0071  5.0440
   94MOL0     H12382  -2.729   4.807   5.801  1.8373  0.2979  0.3740
   94MOL0     H12383  -2.748   4.740   5.642  1.8232 -0.7223 -1.0601
   94MOL0     H12384  -2.764   5.006   5.580 -0.4522  0.0477  0.0940
   94MOL0     H12385  -2.786   5.034   5.750  1.3597  0.6778  0.3394
   94MOL0     H12386  -2.950   4.880   5.542 -0.2913  1.3046 -1.0667
   94MOL0     H12387  -2.987   4.860   5.708 -0.4143 -1.9050 -1.5446
   94MOL0     H12388  -3.049   5.108   5.734  1.9718 -1.5973  0.8009
   94MOL0     H12389  -3.148   5.021   5.607 -1.0991  0.1377  2.5860
   94MOL0     H12390  -2.190   4.767   5.166  0.2933  0.5653  0.6149
   94MOL0     H12391  -2.019   4.763   4.998  3.5083 -1.1673  0.4790
   94MOL0     H12392  -1.744   4.801   4.599  0.2169 -2.2635  0.3534
   94MOL0     H12393  -1.535   4.768   4.484  0.5239 -0.1628  0.7294
   94MOL0     H12394   0.462   4.669   4.613  0.9442 -0.5382  0.3849
   94MOL0     H12395   0.710   4.627   4.666 -0.4822  0.6453 -0.2232
   94MOL0     H12396   1.190   4.646   4.685 -1.5101  0.3689 -0.2166
   94MOL0     H12397   1.387   4.587   4.785  0.3723 -0.2383 -0.0320
   94MOL0     H12398   1.515   4.476   4.912 -0.5674  1.0397 -0.1880
   94MOL0     H12399   1.423   4.415   5.048 -1.8407  1.6533  2.5642
   94MOL0     H12400   1.636   4.338   5.089 -1.3681 -1.4920  0.2828
   94MOL0     H12401   1.710   4.503   5.089 -0.2526 -0.8007 -1.8366
   94MOL0     H12402   1.485   4.380   5.261 -0.2929  1.4704 -0.7798
   94MOL0     H12403   1.533   4.548   5.279  0.2208 -0.8779  1.5858
   94MOL0     H12404   1.749   4.500   5.391  4.2706 -3.4350  2.2767
   94MOL0     H12405   1.634   4.397   5.462  0.4003  0.9906  0.3490
   94MOL0     H12406   1.938   4.154   5.286  0.3328  0.1781  0.8093
   94MOL0     H12407   1.261   4.709   5.168  2.4966 -0.6110 -0.6671
   94MOL0     H12408   1.017   4.727   5.076  0.6260 -0.5438  0.6563
   95MOL0     O12409   2.124   0.231   3.557  0.4577 -0.0773  0.0637
   95MOL0     C12410   2.184   0.282   3.657  1.3677  0.1154  0.0478
   95MOL0     O12411   2.119   0.338   3.763 -0.8229 -0.2552  0.9569
   95MOL0     C12412   1.980   0.339   3.781 -0.9174 -0.2292 -0.1577
   95MOL0     C12413   1.881   0.246   3.738 -0.9132 -0.5635  0.4461
   95MOL0     C12414   1.750   0.247   3.789 -0.9807  0.4637  1.1571
   95MOL0     C12415   1.714   0.343   3.879 -0.5624 -0.8149 -0.8140
   95MOL0     O12416   1.586   0.337   3.915  0.2751  0.2487 -0.4163
   95MOL0     C12417   1.534   0.449   3.996 -0.5751  0.7188 -0.3146
   95MOL0     C12418   1.562   0.437   4.149 -0.2254  0.3030 -0.5725
   95MOL0     C12419   1.500   0.300   4.197  0.4682 -0.5349  0.3965
   95MOL0     C12420   1.344   0.293   4.183  0.2262  0.4950 -0.4124
   95MOL0     C12421   1.291   0.157   4.222 -0.3456  0.1083 -0.7776
   95MOL0     C12422   1.147   0.114   4.216 -0.0894 -0.3191  0.1076
   95MOL0     C12423   1.054   0.217   4.296 -1.1536 -0.8231 -1.6556
   95MOL0     C12424   0.908   0.181   4.271  0.6045 -0.5828 -0.0562
   95MOL0     N12425   0.891   0.197   4.124 -0.4667 -0.5294 -0.4667
   95MOL0     C12426   0.874   0.313   4.059 -0.1777 -0.8220  0.0042
   95MOL0     C12427   0.834   0.286   3.926  0.3689 -0.3480  0.6263
   95MOL0     C12428   0.796   0.385   3.813  0.0939 -0.5523  0.3096
   95MOL0     C12429   0.651   0.429   3.830  1.4589 -0.9302 -0.4126
   95MOL0     C12430   0.546   0.318   3.839 -0.1379 -0.3486  0.0346
   95MOL0     C12431   0.409   0.361   3.782  0.1166 -0.3027  0.3797
   95MOL0     O12432   0.324   0.244   3.809 -0.1793  0.1778  0.4188
   95MOL0     C12433   0.194   0.250   3.765 -0.2507 -0.3408 -0.1279
   95MOL0     C12434   0.107   0.148   3.807 -0.7025  0.4862 -0.1212
   95MOL0     C12435  -0.026   0.137   3.758  0.9472 -0.0200 -0.9422
   95MOL0     C12436  -0.067   0.230   3.671 -0.6505 -0.0380  0.6735
   95MOL0     C12437  -0.204   0.220   3.617  0.3404  1.0729  0.8684
   95MOL0     O12438  -0.292   0.129   3.662 -0.6553 -0.1838 -0.1253
   95MOL0     C12439  -0.416   0.124   3.615  0.3685 -0.0359 -0.5536
   95MOL0     C12440  -0.473  -0.004   3.634 -0.7063 -0.1140  0.3630
   95MOL0     C12441  -0.603  -0.031   3.596  0.3559  0.4991  0.0553
   95MOL0     C12442  -0.678   0.071   3.531  0.2251 -0.1065  0.0547
   95MOL0     O12443  -0.804   0.049   3.497  0.1709 -0.2015  0.3586
   95MOL0     C12444  -0.881  -0.034   3.584  0.4136  0.3766  1.0947
   95MOL0     C12445  -1.030  -0.042   3.534 -0.6402  0.5236 -0.6162
   95MOL0     C12446  -1.103   0.091   3.545  0.5999 -0.6665 -0.1952
   95MOL0     C12447  -1.253   0.071   3.540  0.8206  0.0094  0.1523
   95MOL0     C12448  -1.335   0.182   3.485 -0.3905 -0.7762 -0.3458
   95MOL0     C12449  -1.329   0.306   3.580  0.5691 -0.5738 -0.9369
   95MOL0     C12450  -1.388   0.421   3.498 -0.2322  0.9731  0.0354
   95MOL0     C12451  -1.381   0.554   3.560  1.0061  0.2457  0.5102
   95MOL0    Cl12452  -1.414   0.541   3.737  0.1266 -0.1229  0.0692
   95MOL0     C12453  -0.623   0.202   3.508  0.0265  0.3360 -0.8040
   95MOL0     C12454  -0.490   0.227   3.556  0.3984 -0.8433  0.8851
   95MOL0     O12455  -0.233   0.309   3.537 -0.2567 -0.2103 -0.1907
   95MOL0     C12456   0.023   0.336   3.627  0.4142  0.4098  0.0746
   95MOL0     C12457   0.151   0.343   3.672  0.4162  0.5390 -0.4783
   95MOL0     N12458   0.841   0.149   3.914  0.4225 -0.0436  0.6969
   95MOL0     N12459   0.869   0.101   4.032 -0.7540 -0.2057 -0.0760
   95MOL0     C12460   1.809   0.430   3.930 -0.8834  0.1732 -0.7492
   95MOL0     C12461   1.942   0.428   3.882  0.1952  0.3385 -0.0919
   95MOL0     C12462   2.325   0.297   3.650  0.0720 -0.2401 -1.0631
   95MOL0     C12463   2.397   0.310   3.534  0.0797 -0.1256  0.6054
   95MOL0     C12464   2.537   0.314   3.536  0.6639  0.1379 -0.6242
   95MOL0     C12465   2.605   0.334   3.655 -0.7380  0.0461 -0.0844
   95MOL0     O12466   2.737   0.352   3.639 -0.1982  0.0259 -0.2891
   95MOL0     C12467   2.809   0.327   3.770  0.9771 -0.3387  0.5500
   95MOL0     C12468   2.965   0.328   3.750 -0.5339 -0.0299  0.5126
   95MOL0     C12469   3.016   0.187   3.708  0.3468 -0.0285  0.3595
   95MOL0     C12470   3.165   0.195   3.682  0.0086 -0.7902 -0.1095
   95MOL0     C12471   3.220   0.067   3.643 -0.1303 -0.1203 -0.5476
   95MOL0     C12472   3.270  -0.048   3.620 -0.7863 -0.0065 -0.6039
   95MOL0     C12473   2.525   0.334   3.773  0.6853  0.1359  0.7288
   95MOL0     C12474   2.391   0.315   3.770 -0.8685  0.0781  1.0875
   95MOL0     H12475   1.915   0.168   3.671 -1.0124 -0.8179  0.6940
   95MOL0     H12476   1.676   0.173   3.762  2.7084 -2.6719 -1.5216
   95MOL0     H12477   1.425   0.442   3.982 -0.3005 -5.3604 -2.3507
   95MOL0     H12478   1.557   0.544   3.947  0.1432 -1.0269 -3.6336
   95MOL0     H12479   1.518   0.525   4.196 -1.8381  0.6720 -2.6256
   95MOL0     H12480   1.670   0.425   4.163  0.1333 -2.2180 -4.1069
   95MOL0     H12481   1.523   0.297   4.304 -2.6593  0.0598  1.1637
   95MOL0     H12482   1.543   0.217   4.140 -3.3566 -1.7792 -0.9626
   95MOL0     H12483   1.286   0.360   4.246 -0.3463 -0.8588  0.5584
   95MOL0     H12484   1.301   0.299   4.082 -0.5688  1.0523 -0.0480
   95MOL0     H12485   1.330   0.135   4.322 -1.0481 -0.5707 -0.6537
   95MOL0     H12486   1.344   0.103   4.142 -0.8490  0.7194 -1.5348
   95MOL0     H12487   1.129   0.014   4.255 -0.7271 -0.6560 -0.9988
   95MOL0     H12488   1.129   0.119   4.108  2.2709  3.6096 -0.2972
   95MOL0     H12489   1.074   0.206   4.403  0.9796  0.8911 -1.7847
   95MOL0     H12490   1.070   0.324   4.277 -1.5011 -0.2047  1.1416
   95MOL0     H12491   0.844   0.242   4.335  1.7438 -0.6414  1.1869
   95MOL0     H12492   0.886   0.085   4.318  0.9968  0.2328  1.9046
   95MOL0     H12493   0.881   0.416   4.091  0.7646 -0.1036 -2.3438
   95MOL0     H12494   0.799   0.337   3.714 -2.0058 -4.0286  1.7412
   95MOL0     H12495   0.866   0.468   3.825  1.7491 -1.9990  1.2325
   95MOL0     H12496   0.636   0.509   3.756  3.1118 -0.5171 -0.3436
   95MOL0     H12497   0.634   0.472   3.929 -3.7096 -3.2540  0.0439
   95MOL0     H12498   0.577   0.229   3.784 -0.0878  0.8833 -2.0458
   95MOL0     H12499   0.539   0.300   3.947 -1.0655  0.9234  0.2027
   95MOL0     H12500   0.424   0.364   3.673 -1.4089 -2.3038  0.0429
   95MOL0     H12501   0.371   0.456   3.820  1.1194  0.8065 -1.2649
   95MOL0     H12502   0.136   0.069   3.876 -0.9194 -0.4242 -1.0519
   95MOL0     H12503  -0.094   0.064   3.800 -0.9317  2.0701 -0.1064
   95MOL0     H12504  -0.407  -0.085   3.664  0.7627  0.5057 -1.0223
   95MOL0     H12505  -0.649  -0.128   3.612 -0.7422  0.5145 -2.4471
   95MOL0     H12506  -0.879  -0.004   3.689  1.8611 -2.9439  2.1545
   95MOL0     H12507  -0.860  -0.141   3.588 -4.1693 -0.8301 -0.6891
   95MOL0     H12508  -1.081  -0.121   3.590  2.5060  1.3390  3.9694
   95MOL0     H12509  -1.033  -0.072   3.429  0.0577 -0.1823 -0.4371
   95MOL0     H12510  -1.078   0.155   3.460  2.7085  1.2435  1.7121
   95MOL0     H12511  -1.087   0.136   3.644 -1.7712 -0.9988  0.3937
   95MOL0     H12512  -1.264  -0.015   3.474  0.8043 -0.0621  0.2485
   95MOL0     H12513  -1.302   0.065   3.638 -0.0889 -0.4846 -0.3186
   95MOL0     H12514  -1.440   0.152   3.487 -1.5699  2.7942  0.5608
   95MOL0     H12515  -1.310   0.208   3.382  0.0890  0.9683  0.1609
   95MOL0     H12516  -1.226   0.326   3.613  1.0290 -1.4877 -1.7677
   95MOL0     H12517  -1.393   0.286   3.666 -0.2044  2.0082 -0.8421
   95MOL0     H12518  -1.331   0.427   3.405 -3.4520  2.6340 -2.0284
   95MOL0     H12519  -1.490   0.402   3.462 -0.4307  0.1174  1.0095
   95MOL0     H12520  -1.439   0.625   3.500  1.3738 -0.6771 -0.9803
   95MOL0     H12521  -1.277   0.587   3.554  0.0293  3.6425 -0.0227
   95MOL0     H12522  -0.676   0.287   3.466 -1.4385  1.4281  2.9266
   95MOL0     H12523  -0.458   0.330   3.552 -2.9566  0.2863 -1.5837
   95MOL0     H12524  -0.033   0.412   3.572  1.5425  0.8395 -0.5142
   95MOL0     H12525   0.201   0.437   3.655 -3.1588  2.5832 -0.7267
   95MOL0     H12526   1.781   0.505   4.003 -0.9365 -2.3585  2.0158
   95MOL0     H12527   2.018   0.499   3.913 -0.4908  0.8884  0.3445
   95MOL0     H12528   2.347   0.312   3.437  0.6633 -0.7431  0.2790
   95MOL0     H12529   2.587   0.318   3.440  1.8034  0.6799 -0.0387
   95MOL0     H12530   2.777   0.234   3.817 -0.9814 -0.7284 -1.3878
   95MOL0     H12531   2.786   0.405   3.843 -0.2399  0.2774 -0.4587
   95MOL0     H12532   3.001   0.400   3.676  1.8606  0.4163  1.9978
   95MOL0     H12533   3.009   0.359   3.845 -1.0208 -3.6841  2.1010
   95MOL0     H12534   2.982   0.150   3.611  1.6407 -1.0076  0.2444
   95MOL0     H12535   2.996   0.116   3.789  1.7286 -0.8777 -0.0006
   95MOL0     H12536   3.184   0.275   3.611 -2.5587  3.1506  3.2076
   95MOL0     H12537   3.212   0.223   3.776  2.2691  0.9909 -1.6478
   95MOL0     H12538   3.316  -0.143   3.603 -0.4921  0.7641 -5.3549
   95MOL0     H12539   2.566   0.352   3.871  0.1161 -1.2357  1.2491
   95MOL0     H12540   2.346   0.315   3.869  0.8423  1.5674  1.9206
   96MOL0     O12541   4.523  10.429   7.578  0.3754  0.4915 -0.2234
   96MOL0     C12542   4.568  10.539   7.608 -0.3633  0.3904 -0.1940
   96MOL0     O12543   4.500  10.649   7.628 -0.5995 -0.7529 -0.2876
   96MOL0     C12544   4.367  10.619   7.659 -0.1240 -1.0310  0.1255
   96MOL0     C12545   4.274  10.639   7.555 -0.1927 -0.0372  0.0374
   96MOL0     C12546   4.142  10.599   7.567 -0.1569  0.4285 -0.9745
   96MOL0     C12547   4.096  10.522   7.677  1.0765 -0.1403 -0.8938
   96MOL0     O12548   3.977  10.448   7.679  0.0142 -0.9781 -0.2952
   96MOL0     C12549   3.874  10.479   7.584 -0.1970 -0.6280  1.3921
   96MOL0     C12550   3.744  10.400   7.607 -0.5543  0.1559  0.0834
   96MOL0     C12551   3.649  10.473   7.695 -0.3927 -0.0609  0.2177
   96MOL0     C12552   3.514  10.392   7.719  0.1875 -0.2044 -0.2922
   96MOL0     C12553   3.423  10.467   7.824  0.0500 -0.7053 -0.0331
   96MOL0     C12554   3.269  10.444   7.811  0.5297 -0.0776  0.4045
   96MOL0     C12555   3.215  10.317   7.880 -0.3163  0.0187  0.6827
   96MOL0     C12556   3.122  10.334   7.997  0.1462 -0.6452 -0.1258
   96MOL0     N12557   3.183  10.401   8.120  0.3159 -0.7976 -0.1016
   96MOL0     C12558   3.269  10.355   8.218  0.3305  0.4270 -0.1123
   96MOL0     C12559   3.316  10.460   8.279 -0.0612  0.8066  0.2351
   96MOL0     C12560   3.431  10.465   8.390 -0.0240  0.5997  0.3116
   96MOL0     C12561   3.573  10.461   8.333  0.3226 -0.1216 -0.1183
   96MOL0     C12562   3.595  10.568   8.228  0.6449 -0.0053  1.2749
   96MOL0     C12563   3.724  10.552   8.154 -0.2067 -0.3410  0.3952
   96MOL0     O12564   3.839  10.502   8.231 -0.0945 -0.9089  0.9276
   96MOL0     C12565   3.897  10.581   8.328  0.7057 -0.3575  0.2133
   96MOL0     C12566   3.880  10.718   8.338 -0.3322 -0.5924 -0.1797
   96MOL0     C12567   3.952  10.787   8.444 -0.7578 -0.7675 -0.2040
   96MOL0     C12568   4.039  10.727   8.531  0.6602  0.5774 -0.7268
   96MOL0     C12569   4.101  10.799   8.641  1.6890  0.7043  0.1100
   96MOL0     O12570   4.226  10.779   8.665  0.3447 -0.3855  0.4515
   96MOL0     C12571   4.285  10.860   8.760  0.2658  0.0752 -0.6394
   96MOL0     C12572   4.344  10.984   8.729  0.4901  0.2414  0.4480
   96MOL0     C12573   4.419  11.049   8.835  0.3371 -0.4850  0.8439
   96MOL0     C12574   4.448  10.979   8.957 -0.4413 -0.5247 -0.0297
   96MOL0     O12575   4.511  11.031   9.065  0.3898  0.1906  0.3586
   96MOL0     C12576   4.536  11.173   9.077  0.2180 -0.5667  0.1145
   96MOL0     C12577   4.546  11.204   9.228  0.5669 -0.4626 -0.5127
   96MOL0     C12578   4.416  11.179   9.314  0.3652 -0.2959  1.3260
   96MOL0     C12579   4.432  11.209   9.460 -0.6218  0.3114  0.2426
   96MOL0     C12580   4.453  11.090   9.551 -0.1260 -0.0082  0.9540
   96MOL0     C12581   4.409  11.117   9.694  0.4074  0.5196  0.1435
   96MOL0     C12582   4.459  11.008   9.788  0.3094  0.1482  0.2788
   96MOL0     C12583   4.407  11.022   9.928  0.7068 -0.2850  0.8325
   96MOL0    Cl12584   4.447  10.874  10.016 -0.9656  0.0332  0.2808
   96MOL0     C12585   4.407  10.850   8.971  0.6467  0.9172 -0.4781
   96MOL0     C12586   4.319  10.791   8.877  0.3991 -0.5069 -0.4134
   96MOL0     O12587   4.026  10.877   8.700 -0.1283  0.5838 -0.4346
   96MOL0     C12588   4.059  10.590   8.511 -0.0380  0.4888  0.4126
   96MOL0     C12589   3.992  10.518   8.406  0.7865 -0.1774 -0.2053
   96MOL0     N12590   3.272  10.571   8.217 -0.0174  0.4046 -1.3818
   96MOL0     N12591   3.183  10.542   8.133 -0.3499  0.4354 -0.7175
   96MOL0     C12592   4.187  10.522   7.789  0.2964  0.9014 -0.5211
   96MOL0     C12593   4.320  10.568   7.777  0.8564 -0.4847  0.3480
   96MOL0     C12594   4.709  10.557   7.646  0.3629 -0.8316 -0.2287
   96MOL0     C12595   4.759  10.689   7.681  0.5483 -0.2126 -0.2135
   96MOL0     C12596   4.896  10.708   7.715  0.0177 -0.0263 -0.1021
   96MOL0     C12597   4.984  10.594   7.729  0.0482  0.8179 -0.0308
   96MOL0     O12598   5.101  10.627   7.785 -0.0240  0.3039  0.0635
   96MOL0     C12599   5.147  10.525   7.874  0.4558  0.1165  0.0604
   96MOL0     C12600   5.244  10.587   7.973 -0.4104  0.0633  0.2442
   96MOL0     C12601   5.366  10.658   7.893 -0.3334  0.8816 -0.5475
   96MOL0     C12602   5.469  10.705   8.000 -0.2422  0.2610  0.2605
   96MOL0     C12603   5.546  10.589   8.060 -0.2517 -0.7452 -0.2161
   96MOL0     C12604   5.600  10.489   8.093  0.5247  0.1039  0.1183
   96MOL0     C12605   4.926  10.468   7.702  0.4615  0.7460  1.2162
   96MOL0     C12606   4.798  10.449   7.642 -0.5629 -1.3708  0.4829
   96MOL0     H12607   4.302  10.690   7.464  0.0471  1.9885  1.1904
   96MOL0     H12608   4.073  10.612   7.484 -1.2808 -0.6068 -0.2549
   96MOL0     H12609   3.900  10.456   7.480 -1.5328  1.0463  0.6414
   96MOL0     H12610   3.859  10.587   7.582  3.2059 -0.0293  1.7208
   96MOL0     H12611   3.769  10.301   7.647  1.4042  0.9553  0.9235
   96MOL0     H12612   3.690  10.382   7.513  1.6332 -2.2416 -0.8472
   96MOL0     H12613   3.627  10.568   7.645  1.0057 -0.5330 -1.3788
   96MOL0     H12614   3.700  10.493   7.790 -2.8306 -0.6911  1.7640
   96MOL0     H12615   3.454  10.388   7.627 -0.7070  3.2069 -0.0262
   96MOL0     H12616   3.535  10.287   7.737  0.9032 -0.0305 -0.0779
   96MOL0     H12617   3.445  10.573   7.810  0.4528 -1.1710 -4.6757
   96MOL0     H12618   3.467  10.430   7.917 -2.0170 -2.4220  0.3274
   96MOL0     H12619   3.240  10.459   7.707  0.8711  0.4340  0.3739
   96MOL0     H12620   3.219  10.527   7.861  1.2971  1.8356 -1.8106
   96MOL0     H12621   3.148  10.270   7.806 -0.2071  0.0038  0.5936
   96MOL0     H12622   3.289  10.244   7.912 -1.0167  0.3702  3.3258
   96MOL0     H12623   3.091  10.234   8.026 -1.4592 -0.1081  0.0795
   96MOL0     H12624   3.035  10.392   7.964  0.3728 -0.7430 -0.9320
   96MOL0     H12625   3.309  10.254   8.209  0.2687  0.5555 -2.8574
   96MOL0     H12626   3.420  10.375   8.453  0.5297  0.4646  0.2166
   96MOL0     H12627   3.415  10.557   8.447  3.2619  0.3459  1.8587
   96MOL0     H12628   3.581  10.365   8.280 -1.4267  0.8389 -2.2742
   96MOL0     H12629   3.645  10.474   8.414  0.4154 -1.3073  0.0117
   96MOL0     H12630   3.514  10.571   8.155  0.0058  2.1200  1.9821
   96MOL0     H12631   3.589  10.662   8.284  0.3829 -0.3782  1.8729
   96MOL0     H12632   3.749  10.647   8.106 -3.7114  1.0911  1.1119
   96MOL0     H12633   3.703  10.484   8.071  0.8518  1.7017 -1.6528
   96MOL0     H12634   3.810  10.775   8.278  0.7815  2.3917  1.1383
   96MOL0     H12635   3.958  10.895   8.451  0.6066 -0.9334  1.8141
   96MOL0     H12636   4.322  11.032   8.634  0.5254  1.6249  1.1113
   96MOL0     H12637   4.446  11.154   8.831 -0.7411 -0.1984  0.7257
   96MOL0     H12638   4.459  11.235   9.028  2.0709  0.3031 -1.8330
   96MOL0     H12639   4.633  11.204   9.038  0.7193 -2.9331 -0.6870
   96MOL0     H12640   4.576  11.309   9.234 -0.9843 -0.0579  1.0732
   96MOL0     H12641   4.621  11.138   9.272 -0.2209 -0.7510  0.4278
   96MOL0     H12642   4.387  11.074   9.321 -2.3593  0.4604  2.8623
   96MOL0     H12643   4.329  11.230   9.272  0.9754  0.6542  1.1724
   96MOL0     H12644   4.508  11.284   9.484 -4.0144  3.7765  1.2055
   96MOL0     H12645   4.336  11.246   9.498  0.3835  0.9254  2.3269
   96MOL0     H12646   4.562  11.080   9.545  0.0426  2.2355 -1.4539
   96MOL0     H12647   4.415  10.997   9.508  0.9216 -0.0655  0.1128
   96MOL0     H12648   4.300  11.123   9.693 -0.0294 -3.8764 -2.0688
   96MOL0     H12649   4.451  11.212   9.728  3.8122 -0.4859 -0.9053
   96MOL0     H12650   4.419  10.913   9.751  0.0556 -0.9521  3.1201
   96MOL0     H12651   4.568  11.007   9.792  0.2945 -0.7012  0.6765
   96MOL0     H12652   4.298  11.028   9.940  0.5660  2.0259 -0.9847
   96MOL0     H12653   4.460  11.098   9.985  2.6849  0.2025 -1.5272
   96MOL0     H12654   4.450  10.797   9.055  1.0165  4.3747  1.7076
   96MOL0     H12655   4.286  10.687   8.877 -1.5612  0.0192  1.8292
   96MOL0     H12656   4.122  10.531   8.576  0.4120 -1.3659 -1.5797
   96MOL0     H12657   4.000  10.410   8.397  3.6438  0.0187 -1.1152
   96MOL0     H12658   4.152  10.471   7.878 -0.6498  1.0867 -0.7685
   96MOL0     H12659   4.384  10.553   7.863  1.1586 -2.4860 -0.1737
   96MOL0     H12660   4.696  10.777   7.681 -1.9306 -1.8773  0.7125
   96MOL0     H12661   4.943  10.805   7.727  0.0763 -0.1904  1.1451
   96MOL0     H12662   5.187  10.439   7.821  0.5622 -0.0538  0.4128
   96MOL0     H12663   5.065  10.497   7.941 -0.5294  1.7331 -0.4048
   96MOL0     H12664   5.199  10.659   8.042  1.2714  2.2662 -0.7963
   96MOL0     H12665   5.274  10.510   8.044 -0.2517  1.8859  2.2566
   96MOL0     H12666   5.328  10.727   7.817 -2.5691 -2.2650 -2.5934
   96MOL0     H12667   5.416  10.582   7.832 -1.8421 -1.9277  1.4694
   96MOL0     H12668   5.542  10.765   7.945  1.2983 -0.4219  1.4920
   96MOL0     H12669   5.421  10.765   8.078 -1.5368 -1.4660  0.8573
   96MOL0     H12670   5.637  10.397   8.135 -0.3929 -0.3119  0.0325
   96MOL0     H12671   4.999  10.389   7.703  0.5304  0.5942 -2.4097
   96MOL0     H12672   4.767  10.349   7.610  3.5669 -3.2505  1.7135
   97MOL0     O12673   0.904   7.266   7.153 -0.7447  0.5946  0.1633
   97MOL0     C12674   0.871   7.200   7.055  0.5603 -0.5506  0.1432
   97MOL0     O12675   0.759   7.122   7.047 -0.1666  0.0882 -0.0049
   97MOL0     C12676   0.643   7.157   7.107 -0.6943 -0.0350 -0.3423
   97MOL0     C12677   0.552   7.055   7.122  1.3159 -0.6515 -0.1721
   97MOL0     C12678   0.431   7.077   7.187  0.7394  0.5546 -0.6786
   97MOL0     C12679   0.406   7.198   7.258  0.5486 -0.8898 -0.9194
   97MOL0     O12680   0.291   7.239   7.321 -0.6741 -0.0980 -0.1530
   97MOL0     C12681   0.188   7.139   7.355 -0.2569 -0.7417 -0.6425
   97MOL0     C12682   0.053   7.191   7.404  0.7518 -0.6049  0.2561
   97MOL0     C12683  -0.033   7.265   7.293  0.1237  0.7206 -0.3801
   97MOL0     C12684  -0.117   7.170   7.205 -0.5415  0.3315  0.3743
   97MOL0     C12685  -0.219   7.250   7.126  0.5074 -0.4875  0.1956
   97MOL0     C12686  -0.268   7.174   7.005 -0.7976 -0.1599  0.6349
   97MOL0     C12687  -0.395   7.228   6.941 -0.1595  0.6381 -0.0851
   97MOL0     C12688  -0.513   7.211   7.034  0.7642 -0.0229 -0.1011
   97MOL0     N12689  -0.636   7.280   6.984 -0.0461 -0.1244 -0.5632
   97MOL0     C12690  -0.674   7.408   7.001 -0.0406  0.0344 -0.1594
   97MOL0     C12691  -0.791   7.426   6.945 -0.4231 -0.0128 -0.8961
   97MOL0     C12692  -0.885   7.555   6.961 -0.7382 -0.2048  0.3464
   97MOL0     C12693  -0.848   7.673   6.877  0.3795 -0.2163 -0.2968
   97MOL0     C12694  -0.841   7.654   6.715  0.6700  1.1986  0.6957
   97MOL0     C12695  -0.980   7.629   6.652  0.0801 -0.1690 -0.3176
   97MOL0     O12696  -1.056   7.740   6.691 -0.2312 -0.4412  0.1776
   97MOL0     C12697  -1.189   7.741   6.655  0.0779  0.6142  0.1184
   97MOL0     C12698  -1.270   7.833   6.721 -0.9491 -0.3236  1.2859
   97MOL0     C12699  -1.394   7.876   6.670  0.0963  0.1228 -0.6793
   97MOL0     C12700  -1.457   7.803   6.567 -1.4955 -0.0383 -0.0027
   97MOL0     C12701  -1.590   7.844   6.521 -0.6838  0.1116  0.1611
   97MOL0     O12702  -1.674   7.906   6.617 -0.0705 -0.1424  0.1916
   97MOL0     C12703  -1.805   7.938   6.578  1.7163 -0.6346  0.5547
   97MOL0     C12704  -1.900   7.869   6.490 -0.5168  0.7084 -0.4268
   97MOL0     C12705  -2.026   7.919   6.467  0.8425 -0.5226 -0.4733
   97MOL0     C12706  -2.067   8.031   6.538 -0.7158 -0.4296 -0.1538
   97MOL0     O12707  -2.181   8.099   6.507  0.1470 -0.3225 -0.2664
   97MOL0     C12708  -2.299   8.011   6.527 -0.2225 -0.1342  0.6081
   97MOL0     C12709  -2.429   8.091   6.515 -0.6611  0.0154  0.3740
   97MOL0     C12710  -2.533   8.013   6.432 -0.3908  0.3906 -0.4107
   97MOL0     C12711  -2.655   8.108   6.424 -0.2250  0.3572 -0.0323
   97MOL0     C12712  -2.775   8.047   6.354 -0.3439 -0.5171 -0.2749
   97MOL0     C12713  -2.869   8.170   6.319  0.6814  0.1396 -0.1837
   97MOL0     C12714  -3.003   8.109   6.273  0.3598 -0.9578  0.3630
   97MOL0     C12715  -3.084   8.031   6.367  0.9412 -0.5115 -0.6940
   97MOL0    Cl12716  -3.255   8.068   6.351  0.2935 -0.1400 -0.3154
   97MOL0     C12717  -1.984   8.094   6.621  0.0420 -0.7980  0.0295
   97MOL0     C12718  -1.854   8.051   6.641 -0.0170  0.0503 -0.2365
   97MOL0     O12719  -1.620   7.815   6.403  0.5955 -0.4740 -0.3437
   97MOL0     C12720  -1.378   7.698   6.498 -0.0782  0.1446 -0.6527
   97MOL0     C12721  -1.252   7.665   6.553  0.2477 -0.2400  0.7097
   97MOL0     N12722  -0.826   7.302   6.895 -1.0468  0.0939  0.2484
   97MOL0     N12723  -0.731   7.213   6.916  0.0022 -0.1094 -0.0310
   97MOL0     C12724   0.500   7.299   7.235 -0.5359  0.6310 -0.5530
   97MOL0     C12725   0.614   7.282   7.158 -0.4773 -0.1539 -0.9070
   97MOL0     C12726   0.960   7.191   6.928  0.4697 -0.3905 -0.5790
   97MOL0     C12727   1.086   7.257   6.925  0.6773 -0.0582  0.2151
   97MOL0     C12728   1.159   7.252   6.812  0.3202  0.4549  0.9157
   97MOL0     C12729   1.114   7.190   6.693 -0.9978  0.5914  0.6444
   97MOL0     O12730   1.200   7.177   6.588 -0.2849 -0.3943  0.2622
   97MOL0     C12731   1.190   7.047   6.518  0.2778 -1.0181 -0.0568
   97MOL0     C12732   1.299   7.043   6.412  0.4911  0.0679 -0.5676
   97MOL0     C12733   1.438   7.006   6.471  0.1976  0.1250 -0.5819
   97MOL0     C12734   1.472   7.082   6.594  0.8716 -1.1023 -0.5480
   97MOL0     C12735   1.615   7.086   6.613 -0.2980 -0.7328  0.3239
   97MOL0     C12736   1.736   7.087   6.630 -0.4150 -0.8948  0.7213
   97MOL0     C12737   0.994   7.131   6.701  0.4499 -0.3172 -0.5489
   97MOL0     C12738   0.909   7.133   6.812  0.0290 -0.9542 -0.8569
   97MOL0     H12739   0.582   6.951   7.108  1.9598 -0.5612  0.4790
   97MOL0     H12740   0.353   7.002   7.197  1.2260 -0.0461 -1.2726
   97MOL0     H12741   0.234   7.089   7.441  2.4482  1.0826 -0.9026
   97MOL0     H12742   0.166   7.068   7.274 -0.4948  1.3916 -2.5484
   97MOL0     H12743   0.074   7.261   7.486  3.3832 -0.5293 -0.3759
   97MOL0     H12744  -0.005   7.105   7.440  1.9298 -1.1618  0.9114
   97MOL0     H12745   0.027   7.314   7.216  0.3848  1.3427  0.2020
   97MOL0     H12746  -0.096   7.336   7.347  2.2443  1.0537  1.8341
   97MOL0     H12747  -0.041   7.120   7.145  0.7048  3.9048 -1.2874
   97MOL0     H12748  -0.171   7.092   7.261 -2.3658 -1.3049 -3.3245
   97MOL0     H12749  -0.161   7.333   7.085 -0.0052 -0.0555  0.3388
   97MOL0     H12750  -0.297   7.292   7.191  0.2013  0.7929 -0.9510
   97MOL0     H12751  -0.298   7.077   7.045  2.2785 -1.0697  0.9515
   97MOL0     H12752  -0.186   7.164   6.933 -0.1445  0.4431  1.2757
   97MOL0     H12753  -0.390   7.337   6.930  1.9447  0.5942  0.0358
   97MOL0     H12754  -0.420   7.182   6.845 -2.0169  2.2641 -0.4505
   97MOL0     H12755  -0.493   7.249   7.134 -0.2783  0.3049 -0.0077
   97MOL0     H12756  -0.528   7.104   7.049  0.6728  0.1393  1.0415
   97MOL0     H12757  -0.618   7.490   7.044  0.7916 -0.0070 -1.1289
   97MOL0     H12758  -0.882   7.592   7.064 -0.6011  0.2770  0.1704
   97MOL0     H12759  -0.987   7.524   6.939 -0.5557 -1.0097  0.5750
   97MOL0     H12760  -0.745   7.694   6.909  0.1123 -0.9270  1.1238
   97MOL0     H12761  -0.907   7.762   6.902  2.6175  0.7905  1.8347
   97MOL0     H12762  -0.801   7.741   6.662  0.1615  2.5277  2.3844
   97MOL0     H12763  -0.792   7.559   6.696 -2.3109 -0.5730  1.1957
   97MOL0     H12764  -1.013   7.529   6.682 -1.7598 -0.3356 -2.5976
   97MOL0     H12765  -0.975   7.615   6.544  0.1529 -1.0867 -0.2014
   97MOL0     H12766  -1.224   7.884   6.805 -1.9467 -0.6137  2.0279
   97MOL0     H12767  -1.438   7.967   6.708  2.3387  0.8681  0.3121
   97MOL0     H12768  -1.864   7.780   6.440 -1.1521 -0.3433  0.9406
   97MOL0     H12769  -2.094   7.887   6.389 -0.9224  1.4347  0.1909
   97MOL0     H12770  -2.295   7.950   6.617 -0.6697 -0.8251  0.1654
   97MOL0     H12771  -2.306   7.941   6.444  4.2048  2.5026 -2.4782
   97MOL0     H12772  -2.407   8.188   6.469  0.2066 -0.5510 -0.4532
   97MOL0     H12773  -2.475   8.094   6.614 -1.8034  4.1452 -0.0898
   97MOL0     H12774  -2.554   7.916   6.478 -0.2896  1.0414  1.0773
   97MOL0     H12775  -2.490   7.990   6.334  1.0826 -0.8231  0.4759
   97MOL0     H12776  -2.671   8.129   6.531 -1.4437  0.4357 -0.2143
   97MOL0     H12777  -2.623   8.196   6.369 -1.0061 -0.0597 -1.1925
   97MOL0     H12778  -2.818   7.971   6.419 -2.7165 -1.0430 -2.2777
   97MOL0     H12779  -2.740   7.992   6.266  0.7078  2.1375 -1.6421
   97MOL0     H12780  -2.826   8.225   6.235  3.6044 -1.0647  0.4240
   97MOL0     H12781  -2.884   8.239   6.403  0.5955  0.0876 -0.1559
   97MOL0     H12782  -3.064   8.197   6.250  0.4993 -0.1167  2.8825
   97MOL0     H12783  -2.977   8.054   6.182 -0.4489  0.0954 -0.5354
   97MOL0     H12784  -3.059   8.059   6.470  1.6752 -0.9511 -0.7433
   97MOL0     H12785  -3.053   7.927   6.352  1.2721 -0.5247  0.0164
   97MOL0     H12786  -2.018   8.188   6.663 -0.5260 -1.4102  0.9717
   97MOL0     H12787  -1.789   8.103   6.711 -0.3840  0.2348 -0.0286
   97MOL0     H12788  -1.417   7.645   6.412 -1.2371  1.2948 -0.8646
   97MOL0     H12789  -1.187   7.594   6.502  2.6862  0.9419  1.9554
   97MOL0     H12790   0.480   7.400   7.269  0.6033  1.5784 -2.5322
   97MOL0     H12791   0.683   7.364   7.141 -0.1875  0.4764  2.5869
   97MOL0     H12792   1.124   7.318   7.006 -0.1908  0.8191 -0.0146
   97MOL0     H12793   1.258   7.297   6.805  0.4952 -0.0038  0.3656
   97MOL0     H12794   1.093   7.042   6.468 -0.0457  1.2738  0.2276
   97MOL0     H12795   1.197   6.964   6.589 -2.2317 -3.4291 -2.4159
   97MOL0     H12796   1.282   6.981   6.323  3.8458 -1.1080 -0.5193
   97MOL0     H12797   1.309   7.146   6.377  2.1070 -0.8012 -2.9781
   97MOL0     H12798   1.514   7.024   6.394  2.1897  1.8114  1.6221
   97MOL0     H12799   1.434   6.902   6.505 -0.7984 -0.0885 -1.3335
   97MOL0     H12800   1.440   7.187   6.595 -1.0384 -1.6587  0.2129
   97MOL0     H12801   1.438   7.035   6.686  0.8531 -1.7188 -0.8642
   97MOL0     H12802   1.840   7.086   6.658 -0.3176  0.9567  0.5790
   97MOL0     H12803   0.941   7.088   6.617 -1.0785 -1.9797  1.1788
   97MOL0     H12804   0.811   7.088   6.803  0.4174 -1.7168 -1.3428
   98MOL0     O12805   1.079  11.273   5.570  0.3549  0.5096  0.3936
   98MOL0     C12806   1.063  11.389   5.532  0.8310 -0.1203  0.8555
   98MOL0     O12807   0.942  11.439   5.481  0.1864 -0.7179  0.8682
   98MOL0     C12808   0.828  11.362   5.473 -0.0896 -0.4859 -0.4855
   98MOL0     C12809   0.813  11.223   5.487  0.1114  0.6959  0.6203
   98MOL0     C12810   0.685  11.158   5.499 -0.4310  0.2581 -0.0316
   98MOL0     C12811   0.565  11.240   5.492 -0.1447  0.0185 -0.0602
   98MOL0     O12812   0.444  11.184   5.512 -0.9747 -0.1729 -0.5976
   98MOL0     C12813   0.327  11.257   5.494  0.5868  0.1844 -0.4039
   98MOL0     C12814   0.210  11.158   5.490  0.4422 -0.9138 -0.1586
   98MOL0     C12815   0.084  11.239   5.493 -0.5163  0.3550 -0.1577
   98MOL0     C12816  -0.033  11.142   5.518  1.0047 -0.2445 -0.2423
   98MOL0     C12817  -0.170  11.215   5.522  0.9691 -0.2826 -0.1514
   98MOL0     C12818  -0.284  11.115   5.558 -0.8230  0.0328 -0.4613
   98MOL0     C12819  -0.421  11.184   5.548 -0.2436 -0.1097  0.0603
   98MOL0     C12820  -0.515  11.074   5.602 -0.8038  0.2126 -0.3423
   98MOL0     N12821  -0.646  11.127   5.632 -0.2103  0.0642 -0.1919
   98MOL0     C12822  -0.703  11.111   5.759 -0.7110  0.3789  0.1595
   98MOL0     C12823  -0.821  11.164   5.745 -0.2866 -0.3533 -0.1937
   98MOL0     C12824  -0.936  11.174   5.853 -0.3930 -0.9578  0.3930
   98MOL0     C12825  -1.026  11.038   5.862  0.4512  0.0156  0.2023
   98MOL0     C12826  -1.032  10.970   6.000  0.1882  0.2430  0.9365
   98MOL0     C12827  -1.129  11.050   6.097 -0.4386  0.1338  1.4112
   98MOL0     O12828  -1.227  10.955   6.141 -0.6111 -0.0042 -0.8747
   98MOL0     C12829  -1.309  10.985   6.249 -0.8687 -0.3620  0.2202
   98MOL0     C12830  -1.413  10.904   6.273  0.6451  0.5933  0.1231
   98MOL0     C12831  -1.510  10.945   6.367 -0.7352 -0.9830  0.4235
   98MOL0     C12832  -1.492  11.063   6.447 -0.7301 -0.1386  0.0084
   98MOL0     C12833  -1.600  11.117   6.538  0.2358 -0.6008 -0.3763
   98MOL0     O12834  -1.702  11.036   6.572  0.1383 -0.2549 -0.7884
   98MOL0     C12835  -1.788  11.080   6.669 -0.3337  0.2424 -0.0324
   98MOL0     C12836  -1.921  11.058   6.647  0.3838  0.1799 -0.4039
   98MOL0     C12837  -2.026  11.090   6.742 -0.1175 -0.2079  0.9591
   98MOL0     C12838  -1.988  11.142   6.864  0.5638 -0.1814 -0.2677
   98MOL0     O12839  -2.062  11.177   6.966 -0.1070 -0.3545 -0.1211
   98MOL0     C12840  -2.209  11.200   6.945 -0.3428 -0.4473  0.4109
   98MOL0     C12841  -2.260  11.259   7.084  0.5046  0.5725  1.1836
   98MOL0     C12842  -2.409  11.278   7.091  0.1341 -1.6087  0.2121
   98MOL0     C12843  -2.450  11.336   7.228 -0.8718 -0.4696  0.8672
   98MOL0     C12844  -2.585  11.381   7.240 -0.0056 -0.0849 -0.2068
   98MOL0     C12845  -2.605  11.413   7.390  0.7349  0.1829 -0.5839
   98MOL0     C12846  -2.679  11.298   7.471 -0.3931 -0.4131  0.4748
   98MOL0     C12847  -2.711  11.343   7.611  0.5884 -0.5816  1.2989
   98MOL0    Cl12848  -2.751  11.199   7.708  0.3724  0.4550 -0.5133
   98MOL0     C12849  -1.854  11.159   6.885 -0.0114 -0.8435  0.9846
   98MOL0     C12850  -1.754  11.137   6.794 -0.0749  0.4425 -0.3648
   98MOL0     O12851  -1.590  11.235   6.574  0.0157  0.1127 -0.5199
   98MOL0     C12852  -1.398  11.155   6.406  0.0961  0.3955  0.4606
   98MOL0     C12853  -1.306  11.110   6.312 -0.0674 -0.7356 -0.3137
   98MOL0     N12854  -0.842  11.203   5.616  0.0581 -0.1853 -0.1370
   98MOL0     N12855  -0.736  11.179   5.546 -0.8009  0.4419 -0.1020
   98MOL0     C12856   0.580  11.373   5.480 -1.5231 -0.7478 -0.0349
   98MOL0     C12857   0.709  11.434   5.469  0.1650 -0.2908  1.0225
   98MOL0     C12858   1.182  11.480   5.522 -0.2483  0.3673 -0.6554
   98MOL0     C12859   1.169  11.580   5.430 -0.2380  0.0366  0.1861
   98MOL0     C12860   1.269  11.664   5.420 -1.1953 -0.3276  0.1313
   98MOL0     C12861   1.395  11.657   5.482 -0.5508  0.0498  0.0851
   98MOL0     O12862   1.494  11.755   5.450  1.0964  0.7679 -0.1711
   98MOL0     C12863   1.614  11.758   5.535 -0.2911 -0.1397  0.1811
   98MOL0     C12864   1.702  11.873   5.494 -0.2591  0.8890  0.6206
   98MOL0     C12865   1.832  11.854   5.564 -0.1324 -0.7174 -0.4494
   98MOL0     C12866   1.919  11.981   5.549  0.9696 -0.8622  0.8911
   98MOL0     C12867   2.066  11.953   5.547 -0.6531 -0.8607 -0.3037
   98MOL0     C12868   2.183  11.921   5.549 -0.6912 -0.3521 -0.4138
   98MOL0     C12869   1.413  11.559   5.573  0.4653 -0.4564  1.2868
   98MOL0     C12870   1.311  11.455   5.584  0.0359  0.2886 -0.1130
   98MOL0     H12871   0.899  11.158   5.484  0.6457  1.4160 -0.6492
   98MOL0     H12872   0.678  11.055   5.531  2.8481 -0.0877 -0.0727
   98MOL0     H12873   0.325  11.320   5.405 -2.0307 -1.3404 -1.5267
   98MOL0     H12874   0.323  11.335   5.571  1.8625  3.4439 -3.3836
   98MOL0     H12875   0.209  11.095   5.580 -1.1923  1.0333  1.2842
   98MOL0     H12876   0.220  11.099   5.398 -0.5308 -0.3512 -0.6413
   98MOL0     H12877   0.076  11.303   5.405  0.7520  2.6112  1.2664
   98MOL0     H12878   0.084  11.307   5.579 -0.5035 -0.2541  0.3292
   98MOL0     H12879  -0.031  11.079   5.429  0.5249  3.3156 -3.0030
   98MOL0     H12880  -0.010  11.088   5.610  3.2638 -1.5988 -1.5039
   98MOL0     H12881  -0.192  11.256   5.423 -1.5386 -0.3246  0.3315
   98MOL0     H12882  -0.164  11.303   5.587  5.5888  1.3052 -2.3282
   98MOL0     H12883  -0.275  11.083   5.662  0.0408  3.0363  0.5034
   98MOL0     H12884  -0.289  11.034   5.485 -0.7619  1.0827 -1.6594
   98MOL0     H12885  -0.412  11.269   5.617  1.8612 -1.9156  2.1952
   98MOL0     H12886  -0.439  11.204   5.442  1.6901 -1.1250 -0.5039
   98MOL0     H12887  -0.478  11.020   5.690 -3.3435  0.5713  1.0635
   98MOL0     H12888  -0.534  10.998   5.526 -0.4898 -0.8163  0.5816
   98MOL0     H12889  -0.665  11.069   5.851 -0.0913  3.2438  1.3089
   98MOL0     H12890  -0.996  11.264   5.841  3.3175  1.5715 -1.1898
   98MOL0     H12891  -0.887  11.198   5.948  0.5072  2.4099 -0.7837
   98MOL0     H12892  -0.983  10.976   5.782  1.7183  0.1438  0.7642
   98MOL0     H12893  -1.131  11.056   5.834 -0.0516 -4.6194 -1.7949
   98MOL0     H12894  -1.070  10.868   5.992 -0.9571  0.5506  2.1250
   98MOL0     H12895  -0.934  10.965   6.049  0.9046  3.2187  0.0677
   98MOL0     H12896  -1.177  11.138   6.053 -0.8347 -0.5431  0.4522
   98MOL0     H12897  -1.065  11.093   6.175  4.2782 -1.0107 -1.4447
   98MOL0     H12898  -1.430  10.806   6.230 -1.9579  0.5641  1.0641
   98MOL0     H12899  -1.592  10.876   6.383 -0.6952 -1.2969 -0.6303
   98MOL0     H12900  -1.965  11.014   6.557  0.0110  2.9291 -1.6510
   98MOL0     H12901  -2.127  11.063   6.713  0.0838  1.9192 -2.2192
   98MOL0     H12902  -2.276  11.120   6.909 -1.0401  0.2888  0.0333
   98MOL0     H12903  -2.218  11.277   6.868 -3.1650 -0.5420  0.5358
   98MOL0     H12904  -2.210  11.354   7.107  3.7257 -0.0228 -2.3682
   98MOL0     H12905  -2.222  11.195   7.164  3.5293 -0.5376 -0.9639
   98MOL0     H12906  -2.463  11.183   7.085 -2.9319  0.0157 -0.0689
   98MOL0     H12907  -2.450  11.344   7.013 -1.3649 -2.0740  0.5709
   98MOL0     H12908  -2.422  11.263   7.304 -1.5619 -0.0468  1.5355
   98MOL0     H12909  -2.390  11.426   7.247 -1.6362 -0.1155  1.6978
   98MOL0     H12910  -2.648  11.296   7.210  1.1724  0.0671 -3.5038
   98MOL0     H12911  -2.601  11.472   7.181 -2.8299  0.1240  0.7387
   98MOL0     H12912  -2.656  11.508   7.404  2.6533  0.9353  2.2066
   98MOL0     H12913  -2.505  11.424   7.434  1.5334  0.0708 -2.2809
   98MOL0     H12914  -2.775  11.303   7.419  1.5090  3.5915 -3.4059
   98MOL0     H12915  -2.618  11.207   7.478  0.8799  0.4011  0.2999
   98MOL0     H12916  -2.806  11.397   7.610  0.0907 -1.4001 -0.5304
   98MOL0     H12917  -2.634  11.407   7.655  0.1177  0.4727  0.6160
   98MOL0     H12918  -1.824  11.195   6.983 -0.7539  2.6966  0.0441
   98MOL0     H12919  -1.648  11.160   6.807 -0.3814  2.5837 -1.1732
   98MOL0     H12920  -1.396  11.259   6.438 -0.4036  0.4716  0.2606
   98MOL0     H12921  -1.227  11.181   6.290 -0.1190 -1.0402 -1.5623
   98MOL0     H12922   0.510  11.454   5.496  1.3296  1.4355  2.7051
   98MOL0     H12923   0.719  11.541   5.454  0.2207 -0.7287 -3.3090
   98MOL0     H12924   1.092  11.589   5.355  1.1985  0.1418 -1.3316
   98MOL0     H12925   1.256  11.744   5.348 -1.3285 -2.3875 -2.2512
   98MOL0     H12926   1.672  11.666   5.517  2.9495  1.9111 -0.6786
   98MOL0     H12927   1.591  11.756   5.642  0.6332  0.0755  0.3954
   98MOL0     H12928   1.719  11.886   5.386 -0.8916  0.4183  0.4574
   98MOL0     H12929   1.653  11.965   5.526  0.8315  1.7517 -0.1146
   98MOL0     H12930   1.883  11.769   5.519 -0.3355 -0.7362 -0.6441
   98MOL0     H12931   1.813  11.840   5.671  2.8336 -2.0173 -0.0059
   98MOL0     H12932   1.898  12.023   5.450 -2.4080 -0.2367  1.7461
   98MOL0     H12933   1.888  12.053   5.625  0.0002 -1.0205  0.6492
   98MOL0     H12934   2.289  11.906   5.549 -0.5803  0.3664  0.0191
   98MOL0     H12935   1.505  11.555   5.631  1.6530  1.1247 -0.3860
   98MOL0     H12936   1.319  11.370   5.651  1.0378 -0.1916 -0.8085
   99MOL0     O12937   6.299   4.830   0.317  0.0862  0.0784  0.5745
   99MOL0     C12938   6.320   4.796   0.430 -0.2273 -0.5561  0.0135
   99MOL0     O12939   6.243   4.828   0.535 -0.0454  0.1692 -0.6902
   99MOL0     C12940   6.118   4.878   0.515 -0.7266 -0.7223  0.7244
   99MOL0     C12941   6.009   4.793   0.535  0.1224 -0.0759 -0.9499
   99MOL0     C12942   5.886   4.858   0.551 -0.8717 -0.1839 -0.6730
   99MOL0     C12943   5.869   4.997   0.525  0.7522  0.3656  0.6523
   99MOL0     O12944   5.738   5.032   0.538 -0.0804 -0.4711 -0.2427
   99MOL0     C12945   5.704   5.170   0.503  0.1544 -0.0496  0.5919
   99MOL0     C12946   5.693   5.200   0.347  0.0042  0.0393  0.0147
   99MOL0     C12947   5.661   5.354   0.314 -0.3881  0.9978  0.6616
   99MOL0     C12948   5.676   5.382   0.168 -0.1347  0.7716 -0.0156
   99MOL0     C12949   5.602   5.504   0.126  0.2119  0.1701  1.2636
   99MOL0     C12950   5.612   5.510  -0.029  0.0912 -0.2874  0.2108
   99MOL0     C12951   5.546   5.644  -0.079  0.0018  0.5976 -0.3750
   99MOL0     C12952   5.557   5.647  -0.231  0.8094  0.4040  0.8375
   99MOL0     N12953   5.483   5.765  -0.298 -1.4654 -0.3808 -1.0228
   99MOL0     C12954   5.481   5.784  -0.432 -0.9359  0.3008 -1.0452
   99MOL0     C12955   5.387   5.881  -0.445 -0.0846 -0.1163  0.7578
   99MOL0     C12956   5.349   5.942  -0.570 -0.1931 -0.4662  0.4811
   99MOL0     C12957   5.210   5.897  -0.630 -0.5135  0.0817  0.2883
   99MOL0     C12958   5.101   5.950  -0.539  0.4542  0.4832  0.1661
   99MOL0     C12959   4.958   5.933  -0.593  0.2385  0.9344  0.2992
   99MOL0     O12960   4.947   5.996  -0.713 -0.9518  0.0847  0.0880
   99MOL0     C12961   4.822   6.042  -0.755  0.1799  0.3822  0.5052
   99MOL0     C12962   4.711   6.065  -0.667 -0.1608  0.1333  0.3236
   99MOL0     C12963   4.590   6.114  -0.723  0.4327  0.0676 -0.5399
   99MOL0     C12964   4.577   6.144  -0.853  0.2186 -0.1018 -0.3852
   99MOL0     C12965   4.434   6.180  -0.902 -0.5504  0.3977  0.2386
   99MOL0     O12966   4.337   6.149  -0.816  0.5607 -0.0818  0.2776
   99MOL0     C12967   4.202   6.169  -0.850  0.0585 -0.0941  0.8403
   99MOL0     C12968   4.119   6.051  -0.850 -0.4096  0.2418 -0.0579
   99MOL0     C12969   3.981   6.072  -0.861  0.3340 -0.6065 -0.0793
   99MOL0     C12970   3.933   6.205  -0.875  0.2894 -0.4731  0.4296
   99MOL0     O12971   3.798   6.219  -0.911 -0.0869  0.0613 -0.4370
   99MOL0     C12972   3.726   6.294  -0.816  0.3676  0.0188  0.0329
   99MOL0     C12973   3.589   6.212  -0.768  0.5345 -0.6281 -0.2508
   99MOL0     C12974   3.598   6.073  -0.701  0.5130 -0.1075  0.7628
   99MOL0     C12975   3.462   5.995  -0.684  0.0245 -0.5843 -0.2919
   99MOL0     C12976   3.494   5.850  -0.654 -0.0596 -0.3031  0.6797
   99MOL0     C12977   3.525   5.839  -0.504 -0.4792 -0.7849 -0.0725
   99MOL0     C12978   3.519   5.694  -0.456  0.9597  0.7006 -0.9018
   99MOL0     C12979   3.531   5.673  -0.302 -1.0942 -0.1308 -1.2251
   99MOL0    Cl12980   3.480   5.515  -0.248  0.0720  0.1463  0.2486
   99MOL0     C12981   4.019   6.316  -0.878 -0.0509  0.0254 -0.7339
   99MOL0     C12982   4.157   6.297  -0.861  0.3311  0.2624  0.4521
   99MOL0     O12983   4.418   6.226  -1.013 -0.3711 -0.3402 -0.1044
   99MOL0     C12984   4.677   6.123  -0.943  0.0504  0.8670 -0.5155
   99MOL0     C12985   4.804   6.080  -0.891  0.3037 -0.0889 -0.5535
   99MOL0     N12986   5.330   5.897  -0.325  0.5487 -0.9110  0.3502
   99MOL0     N12987   5.387   5.833  -0.240 -0.1637  0.1179 -0.4096
   99MOL0     C12988   5.981   5.074   0.514  0.2714  0.2651  0.5923
   99MOL0     C12989   6.109   5.019   0.506  0.0671 -0.6723  0.4237
   99MOL0     C12990   6.437   4.718   0.469 -0.0215  0.2802 -0.8137
   99MOL0     C12991   6.545   4.695   0.376 -0.2052  0.3341  0.0539
   99MOL0     C12992   6.663   4.614   0.413  0.1375 -0.1796 -0.3095
   99MOL0     C12993   6.667   4.559   0.544  1.0021 -0.1026 -0.8073
   99MOL0     O12994   6.781   4.495   0.590 -0.4017 -0.1853 -0.2752
   99MOL0     C12995   6.893   4.485   0.501  0.1020 -0.0188 -0.8343
   99MOL0     C12996   7.016   4.435   0.580  0.2615 -0.2248  0.6002
   99MOL0     C12997   7.150   4.439   0.497 -0.1771  0.2536  0.3387
   99MOL0     C12998   7.257   4.367   0.581  0.9911  0.3043  0.0870
   99MOL0     C12999   7.388   4.364   0.521  0.0939  0.0982 -0.2794
   99MOL0     C13000   7.494   4.337   0.472 -0.1808  1.3355 -0.8195
   99MOL0     C13001   6.567   4.588   0.633 -0.2919 -0.2609 -0.0443
   99MOL0     C13002   6.456   4.669   0.603 -0.7158  0.3922 -0.7769
   99MOL0     H13003   6.034   4.692   0.566  0.4859  0.2825 -0.0395
   99MOL0     H13004   5.801   4.803   0.591 -1.3889 -0.3021 -1.8655
   99MOL0     H13005   5.760   5.249   0.554 -2.1753  3.1782 -1.4304
   99MOL0     H13006   5.600   5.198   0.525  0.2946  2.5866 -1.5335
   99MOL0     H13007   5.613   5.143   0.300 -1.6332  1.1294  1.3687
   99MOL0     H13008   5.792   5.170   0.311 -0.4441  0.0467 -1.2572
   99MOL0     H13009   5.729   5.412   0.377  2.1095 -0.0954 -0.8829
   99MOL0     H13010   5.558   5.364   0.349 -0.8751  1.7782 -0.8931
   99MOL0     H13011   5.784   5.382   0.153 -0.2260 -0.5132 -0.9070
   99MOL0     H13012   5.632   5.300   0.110  0.5964  0.9090 -0.7905
   99MOL0     H13013   5.644   5.596   0.168 -1.3969  1.2151  0.7179
   99MOL0     H13014   5.499   5.497   0.163  0.6327 -0.3056  2.3870
   99MOL0     H13015   5.563   5.419  -0.065  3.8095 -1.8943 -1.3631
   99MOL0     H13016   5.718   5.503  -0.055  0.3066 -0.3449  1.0627
   99MOL0     H13017   5.441   5.645  -0.046  0.0611 -1.8242  0.0983
   99MOL0     H13018   5.604   5.728  -0.039 -0.4513  0.3351  0.8894
   99MOL0     H13019   5.502   5.557  -0.261  0.2263  0.5013  1.5736
   99MOL0     H13020   5.658   5.645  -0.272 -0.1748  0.0987 -1.7829
   99MOL0     H13021   5.553   5.740  -0.500 -0.5388 -2.2954  0.9126
   99MOL0     H13022   5.425   5.936  -0.648 -2.4729  1.0053 -2.0625
   99MOL0     H13023   5.349   6.046  -0.536 -0.2446 -0.0378 -0.7427
   99MOL0     H13024   5.215   5.788  -0.629  0.6392  0.1251  0.9465
   99MOL0     H13025   5.194   5.938  -0.730  0.6165  2.3370  0.9487
   99MOL0     H13026   5.098   5.906  -0.439 -0.6097  0.0455 -0.0396
   99MOL0     H13027   5.117   6.058  -0.526  0.6398  0.4449  0.2516
   99MOL0     H13028   4.889   5.961  -0.513  1.4864  1.7063  1.1349
   99MOL0     H13029   4.938   5.825  -0.601  2.2361  0.3377  2.3674
   99MOL0     H13030   4.705   6.048  -0.560  1.2290  1.8926  0.7326
   99MOL0     H13031   4.505   6.114  -0.656  0.5985 -1.4128 -0.2798
   99MOL0     H13032   4.159   5.951  -0.839 -1.8659 -0.1297  3.3612
   99MOL0     H13033   3.910   5.991  -0.873 -1.5496  1.0472 -0.6723
   99MOL0     H13034   3.692   6.382  -0.871 -1.1111  1.2212  2.6745
   99MOL0     H13035   3.786   6.326  -0.730 -0.9184 -2.5737  2.0796
   99MOL0     H13036   3.525   6.197  -0.856  3.5335  1.4017 -2.9894
   99MOL0     H13037   3.536   6.273  -0.694 -1.5270 -0.7236 -1.5705
   99MOL0     H13038   3.638   6.087  -0.601  1.9992  1.8381 -0.0475
   99MOL0     H13039   3.670   6.016  -0.761  0.7607 -0.3047  1.2410
   99MOL0     H13040   3.404   6.048  -0.608  1.1792  1.2105 -0.5861
   99MOL0     H13041   3.408   6.004  -0.779 -2.2892 -1.9645  0.7919
   99MOL0     H13042   3.574   5.815  -0.719 -0.4136 -1.9223  1.0729
   99MOL0     H13043   3.406   5.790  -0.681 -1.1187  1.2339  0.5980
   99MOL0     H13044   3.458   5.901  -0.443  3.2711  2.5247  1.0720
   99MOL0     H13045   3.624   5.881  -0.484 -2.5721  3.1400  4.0312
   99MOL0     H13046   3.425   5.648  -0.488 -0.5161  3.0290 -0.2087
   99MOL0     H13047   3.602   5.642  -0.505 -0.7852 -0.7501 -2.4668
   99MOL0     H13048   3.475   5.744  -0.241  0.5048  1.0405 -1.0503
   99MOL0     H13049   3.636   5.674  -0.269 -0.8764 -0.7827 -1.8732
   99MOL0     H13050   3.981   6.413  -0.907 -1.4732  0.8886  3.4203
   99MOL0     H13051   4.219   6.382  -0.834  1.5242 -0.1029 -0.9590
   99MOL0     H13052   4.656   6.135  -1.049 -0.5470 -1.0353 -0.6626
   99MOL0     H13053   4.884   6.051  -0.958 -0.1369  2.9799 -2.6148
   99MOL0     H13054   5.975   5.183   0.518 -3.2600  0.2574 -0.9121
   99MOL0     H13055   6.202   5.075   0.506  0.2504 -0.9026 -1.9417
   99MOL0     H13056   6.544   4.723   0.271  0.6021  0.3415  0.0380
   99MOL0     H13057   6.745   4.616   0.341  1.9004  2.2333  1.5755
   99MOL0     H13058   6.914   4.586   0.465 -3.3131 -0.1619 -3.8465
   99MOL0     H13059   6.873   4.416   0.419  2.6039 -3.0810  0.9012
   99MOL0     H13060   7.026   4.493   0.672  2.3883  0.8087 -0.2205
   99MOL0     H13061   6.995   4.333   0.613  0.1855 -0.6361 -0.6591
   99MOL0     H13062   7.185   4.543   0.494 -2.0384  0.9888  1.9279
   99MOL0     H13063   7.138   4.382   0.404 -1.1877 -1.8187  1.6797
   99MOL0     H13064   7.248   4.419   0.677 -0.7863 -1.9615  1.2633
   99MOL0     H13065   7.225   4.267   0.611  3.0059 -0.3439  0.2159
   99MOL0     H13066   7.595   4.322   0.438 -0.5193  0.9289 -1.6738
   99MOL0     H13067   6.573   4.538   0.730  1.3439  0.4153  0.2337
   99MOL0     H13068   6.379   4.690   0.677 -0.8209  0.4753 -0.9086
  100MOL0     O13069  10.231   0.549   3.391  0.7199 -0.0818  0.4653
  100MOL0     C13070  10.277   0.636   3.313 -0.3767  0.3491 -0.0328
  100MOL0     O13071  10.210   0.742   3.265 -0.4520 -1.0896  0.3680
  100MOL0     C13072  10.079   0.748   3.246  0.8164  0.5361 -0.1310
  100MOL0     C13073  10.009   0.626   3.190 -0.2451 -0.6026 -0.0119
  100MOL0     C13074   9.867   0.638   3.152 -0.6185 -0.3913  0.0383
  100MOL0     C13075   9.798   0.757   3.195 -0.6164 -0.1801 -0.2214
  100MOL0     O13076   9.656   0.765   3.206  0.2507 -0.9497  0.1924
  100MOL0     C13077   9.579   0.673   3.130  0.3496  0.2100 -0.6272
  100MOL0     C13078   9.417   0.692   3.132 -0.7978  0.1068 -0.5390
  100MOL0     C13079   9.375   0.840   3.148 -0.1445 -0.5290  0.0222
  100MOL0     C13080   9.222   0.842   3.120 -0.0228 -0.6615 -0.0728
  100MOL0     C13081   9.179   0.985   3.126  0.6744 -0.5588  0.7303
  100MOL0     C13082   9.201   1.058   3.260  0.4392  0.0001 -0.5586
  100MOL0     C13083   9.147   1.199   3.243  0.3167  0.0160 -0.5225
  100MOL0     C13084   9.189   1.299   3.348 -0.4427 -0.5747 -0.2520
  100MOL0     N13085   9.152   1.257   3.477  0.7118 -0.1487 -0.0165
  100MOL0     C13086   9.251   1.228   3.567 -0.3697 -0.7622 -0.8019
  100MOL0     C13087   9.173   1.191   3.676 -0.0697 -0.1416 -0.2696
  100MOL0     C13088   9.234   1.171   3.812  0.5339  0.3016  0.0692
  100MOL0     C13089   9.262   1.027   3.835 -0.0271 -0.3008 -0.6410
  100MOL0     C13090   9.291   0.978   3.985  0.3785 -0.0387  0.9038
  100MOL0     C13091   9.426   1.002   4.035 -0.6959  0.0322  0.4881
  100MOL0     O13092   9.518   0.896   3.999  0.2305 -0.9265  0.3191
  100MOL0     C13093   9.638   0.888   4.051 -0.2735  0.2771 -0.2235
  100MOL0     C13094   9.709   0.779   3.997 -0.8985  0.0505 -0.1633
  100MOL0     C13095   9.842   0.766   4.050  0.6264  0.2197  0.3240
  100MOL0     C13096   9.901   0.844   4.155 -0.5884  0.8782 -1.1055
  100MOL0     C13097  10.038   0.808   4.211  0.3480 -0.3529 -0.4916
  100MOL0     O13098  10.102   0.699   4.163 -0.4676  0.0526  0.8053
  100MOL0     C13099  10.229   0.688   4.221 -0.3826 -0.4168  0.2319
  100MOL0     C13100  10.238   0.639   4.349 -0.9415 -0.1331 -0.1204
  100MOL0     C13101  10.373   0.650   4.407 -1.1397  1.8294  0.1282
  100MOL0     C13102  10.482   0.686   4.335 -0.9918  1.1561 -0.1424
  100MOL0     O13103  10.607   0.702   4.398  1.3458  0.4692  0.6409
  100MOL0     C13104  10.678   0.580   4.386 -0.1674  0.0596 -0.5648
  100MOL0     C13105  10.836   0.598   4.398  0.4216  0.3713  0.1970
  100MOL0     C13106  10.916   0.465   4.384  0.4762  0.4692  0.6544
  100MOL0     C13107  10.861   0.351   4.486  0.3476 -0.2148 -0.5691
  100MOL0     C13108  10.953   0.227   4.478  0.9996  0.4073  0.0045
  100MOL0     C13109  11.101   0.235   4.491  1.1510  0.6373 -0.7635
  100MOL0     C13110  11.142   0.269   4.635 -0.5462  0.3990 -0.5915
  100MOL0     C13111  11.296   0.259   4.667 -0.2200 -0.8251 -0.0580
  100MOL0    Cl13112  11.389   0.380   4.574 -0.0351  0.0889 -0.0944
  100MOL0     C13113  10.461   0.729   4.202 -0.5751 -0.6233  0.1513
  100MOL0     C13114  10.337   0.744   4.145  0.4441  0.3582 -0.6669
  100MOL0     O13115  10.089   0.889   4.284 -0.4995 -0.5747 -0.3421
  100MOL0     C13116   9.824   0.948   4.203  0.1043  0.2621  0.8817
  100MOL0     C13117   9.695   0.971   4.149  0.0879 -0.8463  0.4174
  100MOL0     N13118   9.041   1.202   3.650 -0.1082 -0.3984  0.1281
  100MOL0     N13119   9.030   1.250   3.527  0.2613  0.4776 -0.0664
  100MOL0     C13120   9.874   0.865   3.256  1.1017 -0.2395  0.5926
  100MOL0     C13121  10.006   0.863   3.286 -0.1995  0.4040 -0.0531
  100MOL0     C13122  10.415   0.614   3.263 -0.6109  0.4142  0.3360
  100MOL0     C13123  10.508   0.525   3.331 -0.0759 -0.5118 -1.0607
  100MOL0     C13124  10.635   0.503   3.277  0.0258 -0.3296  0.0945
  100MOL0     C13125  10.669   0.558   3.162  0.0363  0.3836 -1.0314
  100MOL0     O13126  10.786   0.537   3.098 -0.1701  0.3974  0.6793
  100MOL0     C13127  10.903   0.480   3.158 -0.1292 -0.6763 -0.3288
  100MOL0     C13128  10.964   0.580   3.265  0.3073 -0.7757  0.3834
  100MOL0     C13129  11.010   0.712   3.204 -0.1605 -0.3507  0.1614
  100MOL0     C13130  11.137   0.697   3.116  0.0647 -0.2879  0.0835
  100MOL0     C13131  11.089   0.670   2.978  0.0365  0.3373 -0.0977
  100MOL0     C13132  11.070   0.658   2.854  0.4696  0.6003  0.3368
  100MOL0     C13133  10.586   0.649   3.100  0.2482  1.0241 -0.5350
  100MOL0     C13134  10.468   0.686   3.148  0.6494  0.1130  0.7175
  100MOL0     H13135  10.067   0.537   3.166  0.4709 -0.0971 -0.2056
  100MOL0     H13136   9.820   0.550   3.110 -0.2911 -1.4462  1.7808
  100MOL0     H13137   9.594   0.568   3.158 -1.3394  0.3370  0.9293
  100MOL0     H13138   9.608   0.677   3.025 -1.4949  2.5656 -1.1266
  100MOL0     H13139   9.378   0.628   3.211  1.9815 -0.0892  0.7970
  100MOL0     H13140   9.379   0.667   3.032 -2.5390  2.9412 -0.6947
  100MOL0     H13141   9.405   0.905   3.065 -2.3406 -1.0957 -1.3000
  100MOL0     H13142   9.402   0.887   3.243 -0.2833  0.5096 -0.4305
  100MOL0     H13143   9.197   0.795   3.025  0.7854 -1.0052 -0.1279
  100MOL0     H13144   9.176   0.781   3.198  1.4887 -3.7957 -1.4597
  100MOL0     H13145   9.081   0.992   3.078  1.8870  1.3282 -1.7316
  100MOL0     H13146   9.233   1.037   3.046  0.0314 -1.7738 -0.5471
  100MOL0     H13147   9.306   1.058   3.291  0.6428 -0.9116 -1.2019
  100MOL0     H13148   9.136   1.019   3.338 -2.5952  2.5061 -1.5989
  100MOL0     H13149   9.183   1.251   3.154  0.1605  0.2632 -0.4406
  100MOL0     H13150   9.038   1.201   3.247  0.3255 -0.7523  1.0901
  100MOL0     H13151   9.162   1.402   3.321 -0.5121 -0.7126 -0.7182
  100MOL0     H13152   9.298   1.308   3.345 -0.4742  1.5024  1.6788
  100MOL0     H13153   9.359   1.235   3.561 -0.0386 -2.4231  1.5702
  100MOL0     H13154   9.167   1.198   3.894  1.3037  1.8592  0.2190
  100MOL0     H13155   9.327   1.228   3.820 -1.0797  2.9514  1.7900
  100MOL0     H13156   9.354   0.998   3.785 -0.5002  0.1674 -1.8082
  100MOL0     H13157   9.177   0.972   3.792  0.8216 -1.8359 -0.4195
  100MOL0     H13158   9.216   1.022   4.052 -1.9994  0.7978 -2.0903
  100MOL0     H13159   9.276   0.870   3.982 -0.3648  0.0927 -0.9599
  100MOL0     H13160   9.409   1.017   4.142 -0.9449 -1.0168  0.6048
  100MOL0     H13161   9.458   1.098   3.993 -0.3412 -0.9669 -1.6326
  100MOL0     H13162   9.663   0.709   3.929 -2.1453 -0.0875  0.7724
  100MOL0     H13163   9.895   0.682   4.007 -0.7802  0.2670 -1.6377
  100MOL0     H13164  10.149   0.606   4.401 -0.7158 -0.3181  0.1502
  100MOL0     H13165  10.401   0.613   4.505 -1.4390  0.2658 -0.3370
  100MOL0     H13166  10.657   0.520   4.297 -2.7363  1.8307 -1.2796
  100MOL0     H13167  10.639   0.530   4.475  0.4044  0.8913  0.1667
  100MOL0     H13168  10.852   0.644   4.496 -3.4291  2.0388  0.2361
  100MOL0     H13169  10.861   0.670   4.320  0.2590  1.6594  1.3017
  100MOL0     H13170  11.021   0.485   4.404  0.2612  0.5260  1.7659
  100MOL0     H13171  10.898   0.431   4.281  0.2414  1.5894  0.3089
  100MOL0     H13172  10.854   0.383   4.591 -0.4537 -1.8482 -0.0795
  100MOL0     H13173  10.758   0.326   4.457 -0.2286  2.3301 -0.9622
  100MOL0     H13174  10.927   0.181   4.382 -0.8066  1.0408  0.1332
  100MOL0     H13175  10.927   0.156   4.557 -0.2380  0.3814 -0.4051
  100MOL0     H13176  11.154   0.309   4.431  0.8368  1.1488 -0.4146
  100MOL0     H13177  11.129   0.132   4.465  1.2407 -0.6235  3.5036
  100MOL0     H13178  11.108   0.369   4.662  1.9124  1.9750 -2.7960
  100MOL0     H13179  11.091   0.196   4.699  2.3981  0.1390  1.6917
  100MOL0     H13180  11.327   0.157   4.646 -0.7990 -0.8353 -0.9248
  100MOL0     H13181  11.301   0.276   4.775  1.4712 -0.2387 -0.2000
  100MOL0     H13182  10.547   0.774   4.154 -0.2220 -0.3435  1.0281
  100MOL0     H13183  10.331   0.789   4.046  1.3292 -1.8219 -1.7961
  100MOL0     H13184   9.859   0.999   4.293  0.7109 -0.1563  0.8885
  100MOL0     H13185   9.638   1.054   4.190  2.2342  1.7519 -1.5648
  100MOL0     H13186   9.825   0.954   3.295 -1.5082 -0.8256 -1.1083
  100MOL0     H13187  10.059   0.953   3.316  0.6153 -0.2277  0.4466
  100MOL0     H13188  10.478   0.466   3.418 -0.2817  0.9871 -0.0647
  100MOL0     H13189  10.699   0.435   3.332  1.7227  2.7926  2.3132
  100MOL0     H13190  10.959   0.466   3.065 -1.7780  0.1048 -1.4918
  100MOL0     H13191  10.887   0.385   3.210 -1.2002 -1.8957 -2.7671
  100MOL0     H13192  10.878   0.602   3.330 -1.2156  1.6725 -2.2707
  100MOL0     H13193  11.049   0.538   3.320 -0.0001 -0.9233  0.7546
  100MOL0     H13194  11.044   0.774   3.287  3.2870 -0.2761 -1.1590
  100MOL0     H13195  10.925   0.763   3.156 -0.6687 -1.5619 -0.2703
  100MOL0     H13196  11.212   0.776   3.118 -1.1890  0.9650 -0.5852
  100MOL0     H13197  11.184   0.608   3.157 -2.1149 -1.2505  0.6618
  100MOL0     H13198  11.048   0.649   2.750  1.0529  0.0291  0.2501
  100MOL0     H13199  10.624   0.695   3.009  0.9034  0.5625 -0.5033
  100MOL0     H13200  10.413   0.761   3.092  0.5648 -0.1516  0.4447
  101MOL0     O13201   5.629  10.051   9.090 -0.1724  0.4315 -0.1732
  101MOL0     C13202   5.640   9.942   9.028  0.1475 -0.2701 -0.2476
  101MOL0     O13203   5.740   9.845   9.044  0.6607 -0.4208 -0.1547
  101MOL0     C13204   5.842   9.856   9.131  0.5402 -0.1163 -0.3893
  101MOL0     C13205   5.962   9.813   9.075 -0.2981  0.1149  0.6066
  101MOL0     C13206   6.081   9.807   9.157  1.0061 -0.8865 -0.4138
  101MOL0     C13207   6.074   9.852   9.288 -0.0130 -0.6669 -0.5310
  101MOL0     O13208   6.180   9.868   9.375 -0.3701  1.1411 -0.2484
  101MOL0     C13209   6.305   9.833   9.319 -0.6939 -0.7054 -0.1015
  101MOL0     C13210   6.428   9.895   9.401  0.2557 -0.3273 -0.5491
  101MOL0     C13211   6.555   9.911   9.317 -0.0733 -0.9890 -0.0385
  101MOL0     C13212   6.670   9.986   9.395  0.8093  1.1874  0.2369
  101MOL0     C13213   6.765   9.884   9.466  0.1455 -0.5357  0.0847
  101MOL0     C13214   6.867   9.954   9.551 -0.1684 -1.7017  0.1335
  101MOL0     C13215   6.945  10.065   9.484  0.0937  0.7460  0.1829
  101MOL0     C13216   7.034  10.008   9.374 -0.1628  0.0198 -0.5641
  101MOL0     N13217   7.154  10.084   9.359 -0.0275  0.6155 -0.4021
  101MOL0     C13218   7.269  10.074   9.432  0.0755 -0.0629 -0.3909
  101MOL0     C13219   7.343  10.182   9.388  0.8480  0.0810  1.1487
  101MOL0     C13220   7.474  10.230   9.431 -0.9260 -0.0207  0.0663
  101MOL0     C13221   7.481  10.256   9.580  0.8707  0.3062 -0.9003
  101MOL0     C13222   7.443  10.403   9.615 -0.6693 -0.5965  0.3212
  101MOL0     C13223   7.306  10.458   9.588  0.8740 -0.0217 -0.4930
  101MOL0     O13224   7.212  10.370   9.667 -0.1275 -0.2642 -0.6288
  101MOL0     C13225   7.078  10.385   9.656  0.1384 -0.0686 -0.0642
  101MOL0     C13226   7.008  10.452   9.555 -1.0911 -0.2339 -0.3173
  101MOL0     C13227   6.873  10.451   9.542  1.1565 -0.1162  0.3055
  101MOL0     C13228   6.795  10.364   9.630 -0.2604  0.3345  0.1402
  101MOL0     C13229   6.655  10.342   9.617  0.7606  0.6308 -0.0766
  101MOL0     O13230   6.592  10.288   9.723 -0.0303 -0.0045 -0.5940
  101MOL0     C13231   6.457  10.251   9.726 -0.6031 -0.9312  0.4184
  101MOL0     C13232   6.375  10.222   9.615  0.2227  0.7850 -0.4324
  101MOL0     C13233   6.250  10.155   9.646  0.6514  0.0063 -0.0031
  101MOL0     C13234   6.193  10.151   9.773 -0.7990  0.4142 -0.8241
  101MOL0     O13235   6.077  10.092   9.802  0.3580  0.4479  0.3016
  101MOL0     C13236   5.981  10.076   9.682 -0.4392 -0.0835 -0.1696
  101MOL0     C13237   5.846  10.070   9.729  0.2135 -0.4301  0.2161
  101MOL0     C13238   5.752  10.037   9.610  0.2277 -0.1962  0.5342
  101MOL0     C13239   5.605  10.037   9.655  0.0798 -1.2601 -0.2201
  101MOL0     C13240   5.499   9.970   9.560  0.8687  0.5843  0.0249
  101MOL0     C13241   5.359   9.981   9.627  0.7014  0.3086 -0.5093
  101MOL0     C13242   5.234   9.957   9.544  0.2259  0.1635  0.0010
  101MOL0     C13243   5.157   9.841   9.608  0.4494 -0.1124  0.1517
  101MOL0    Cl13244   5.026   9.805   9.499 -0.0903  0.2552 -0.8489
  101MOL0     C13245   6.287  10.177   9.883  0.1139  0.2306 -0.0616
  101MOL0     C13246   6.410  10.229   9.855  0.2625  0.6125 -0.8562
  101MOL0     O13247   6.591  10.379   9.517 -0.1194 -0.4428  0.5420
  101MOL0     C13248   6.870  10.297   9.732 -0.2238  0.3904 -0.4412
  101MOL0     C13249   7.006  10.305   9.739  0.0667 -0.1089  0.0090
  101MOL0     N13250   7.271  10.247   9.289 -0.1071 -0.1861 -0.0394
  101MOL0     N13251   7.164  10.181   9.271 -0.3526 -1.2631  0.5584
  101MOL0     C13252   5.948   9.885   9.343  0.3444  0.1547  1.1110
  101MOL0     C13253   5.834   9.892   9.269  0.1446  0.9449 -0.1733
  101MOL0     C13254   5.524   9.903   8.938 -0.4059  1.0638  0.2666
  101MOL0     C13255   5.495   9.772   8.911 -0.0776  0.4196 -0.7003
  101MOL0     C13256   5.383   9.736   8.842  0.3146 -0.6179  0.8817
  101MOL0     C13257   5.283   9.830   8.799  0.7962 -0.5880  0.2594
  101MOL0     O13258   5.176   9.805   8.723 -0.6140 -0.1998 -1.2667
  101MOL0     C13259   5.147   9.680   8.670 -0.1945  0.0119 -0.1059
  101MOL0     C13260   5.015   9.690   8.586 -0.4683 -0.5088  0.1132
  101MOL0     C13261   4.886   9.692   8.668  0.6465  0.0825  0.2906
  101MOL0     C13262   4.831   9.839   8.682  0.1194  0.0306  0.3232
  101MOL0     C13263   4.762   9.899   8.569  0.5484 -0.0336  0.0524
  101MOL0     C13264   4.708   9.948   8.472 -0.4744  0.3932 -0.2948
  101MOL0     C13265   5.312   9.960   8.832  0.7382 -0.2927  0.5013
  101MOL0     C13266   5.430   9.992   8.892  0.4803 -0.4873  1.0783
  101MOL0     H13267   5.959   9.767   8.977 -2.2200  0.5134  0.4387
  101MOL0     H13268   6.161   9.754   9.107  1.4283 -0.4557 -0.2012
  101MOL0     H13269   6.317   9.898   9.232  3.1385  1.8790  2.0528
  101MOL0     H13270   6.325   9.727   9.303 -2.7194 -1.1128 -0.1002
  101MOL0     H13271   6.446   9.828   9.486  0.1555  1.4640  0.9447
  101MOL0     H13272   6.397   9.989   9.448  1.9981 -1.6913  3.8953
  101MOL0     H13273   6.541   9.976   9.230 -0.3564  0.4438  1.0342
  101MOL0     H13274   6.592   9.819   9.271  1.5751  0.2118 -1.2460
  101MOL0     H13275   6.721  10.048   9.322  0.3890  2.3605  0.9024
  101MOL0     H13276   6.628  10.056   9.468 -4.2887 -1.8097  0.6713
  101MOL0     H13277   6.813   9.810   9.401 -0.9842  0.1398 -1.5777
  101MOL0     H13278   6.712   9.823   9.539  0.6133 -0.0859  0.8146
  101MOL0     H13279   6.933   9.884   9.602 -1.3271 -2.3057  0.8545
  101MOL0     H13280   6.810  10.001   9.632 -1.4898 -0.9081 -1.1981
  101MOL0     H13281   6.886  10.150   9.447  1.0069  1.6840  0.8112
  101MOL0     H13282   7.021  10.104   9.553  0.6609 -0.1301  0.0617
  101MOL0     H13283   6.967  10.003   9.288  0.1243  1.1028 -0.8681
  101MOL0     H13284   7.051   9.903   9.397  1.3015  0.0040 -1.5984
  101MOL0     H13285   7.285  10.018   9.523 -1.3070  2.3754  1.4887
  101MOL0     H13286   7.492  10.323   9.376 -0.2961 -0.4728 -0.5087
  101MOL0     H13287   7.548  10.156   9.398 -1.6251  0.6365 -3.3583
  101MOL0     H13288   7.585  10.244   9.612  0.5812 -0.7943 -0.2932
  101MOL0     H13289   7.412  10.193   9.638  0.3898 -0.7598 -2.5657
  101MOL0     H13290   7.457  10.418   9.722  0.0977 -0.5526  0.2238
  101MOL0     H13291   7.523  10.464   9.570 -1.1637 -0.8247 -0.9116
  101MOL0     H13292   7.271  10.463   9.485 -0.0025  0.3204 -0.1891
  101MOL0     H13293   7.290  10.563   9.614 -2.0440 -0.3172 -0.7957
  101MOL0     H13294   7.059  10.514   9.482  0.8682 -1.7797 -0.3706
  101MOL0     H13295   6.816  10.509   9.470  3.1227  0.8235 -0.5855
  101MOL0     H13296   6.408  10.222   9.511  3.1419  0.3975  0.4157
  101MOL0     H13297   6.192  10.109   9.566 -0.1871  2.1635 -0.6934
  101MOL0     H13298   6.011   9.978   9.644  1.5009  1.8881 -4.3115
  101MOL0     H13299   5.990  10.150   9.602 -0.9461 -0.9019 -0.9972
  101MOL0     H13300   5.823  10.168   9.772  2.9473 -0.1228  1.1893
  101MOL0     H13301   5.830   9.995   9.807 -1.0099  0.5863  0.9817
  101MOL0     H13302   5.772   9.936   9.571  3.8889  1.3135 -2.0302
  101MOL0     H13303   5.768  10.105   9.525  1.5059 -0.0848  0.8497
  101MOL0     H13304   5.604   9.984   9.751  1.4628  0.6898  0.9413
  101MOL0     H13305   5.571  10.141   9.655 -0.5542 -1.3689 -3.5471
  101MOL0     H13306   5.520   9.866   9.536 -0.4523  0.2984  0.0416
  101MOL0     H13307   5.487  10.005   9.456 -0.1462 -3.4857 -1.4054
  101MOL0     H13308   5.355  10.082   9.671 -1.7937 -0.7930  2.1062
  101MOL0     H13309   5.350   9.921   9.718 -2.3772 -0.4493 -1.2117
  101MOL0     H13310   5.173  10.046   9.556 -0.9168 -0.6518  0.4321
  101MOL0     H13311   5.254   9.939   9.438 -0.1595  5.9883 -1.4034
  101MOL0     H13312   5.125   9.866   9.710  1.1033  1.7109 -0.0393
  101MOL0     H13313   5.206   9.744   9.618 -0.7757 -0.8114 -0.4524
  101MOL0     H13314   6.271  10.149   9.987  2.4165  0.3068  0.3813
  101MOL0     H13315   6.470  10.255   9.942  0.9443 -2.3793 -0.3323
  101MOL0     H13316   6.834  10.222   9.803  1.9366  0.1492  0.5030
  101MOL0     H13317   7.059  10.239   9.806  1.1257  3.4797  3.0741
  101MOL0     H13318   5.939   9.924   9.443  2.0830  2.9446  0.2806
  101MOL0     H13319   5.740   9.922   9.315  0.8716  0.9756  1.3150
  101MOL0     H13320   5.560   9.696   8.955 -0.4920  1.8957  2.7929
  101MOL0     H13321   5.354   9.632   8.827 -0.6459  0.0423 -2.5984
  101MOL0     H13322   5.132   9.609   8.751 -3.6815  1.5132  0.7492
  101MOL0     H13323   5.228   9.653   8.601 -0.2597  0.7367 -0.4781
  101MOL0     H13324   5.014   9.778   8.522 -1.0567 -1.7896 -1.7103
  101MOL0     H13325   5.000   9.600   8.526 -1.4355  0.5207 -1.2550
  101MOL0     H13326   4.909   9.664   8.771  5.0201  0.5733 -0.3945
  101MOL0     H13327   4.812   9.626   8.622 -2.0207  1.3354  2.4572
  101MOL0     H13328   4.756   9.836   8.762 -0.7243 -1.9376 -0.4707
  101MOL0     H13329   4.918   9.901   8.707  1.0810 -0.8779 -0.6770
  101MOL0     H13330   4.669  10.001   8.387 -1.5603  2.3512  1.3387
  101MOL0     H13331   5.230  10.022   8.798  0.1246 -0.7923  1.0318
  101MOL0     H13332   5.451  10.097   8.908  0.9527 -0.3744 -0.1599
  102MOL0     O13333   3.975   7.403   0.521  0.2617  0.1496  1.1729
  102MOL0     C13334   4.071   7.352   0.466 -0.6915 -0.1164 -0.9596
  102MOL0     O13335   4.067   7.283   0.349 -0.0389  0.0489 -0.3700
  102MOL0     C13336   3.955   7.255   0.273  0.0483 -0.2324  0.4556
  102MOL0     C13337   3.968   7.178   0.161  0.0403  0.5602  1.1763
  102MOL0     C13338   3.855   7.145   0.084 -0.9016 -0.1305  0.6606
  102MOL0     C13339   3.728   7.183   0.109  0.2432  0.2082 -0.2401
  102MOL0     O13340   3.629   7.129   0.024  0.0270 -0.2365  0.3257
  102MOL0     C13341   3.495   7.172   0.059  0.7774  0.5630  0.8280
  102MOL0     C13342   3.377   7.147  -0.042 -0.5210  0.2364  0.0756
  102MOL0     C13343   3.401   7.181  -0.190  0.2001 -0.0148 -0.4938
  102MOL0     C13344   3.359   7.323  -0.242 -0.2136  0.1455 -0.7023
  102MOL0     C13345   3.206   7.344  -0.237 -0.3025 -0.5548  0.4808
  102MOL0     C13346   3.166   7.451  -0.338  0.3556  0.8222  0.6775
  102MOL0     C13347   3.032   7.437  -0.402  0.0480 -0.5582 -0.0420
  102MOL0     C13348   2.923   7.446  -0.297  0.0763 -0.1762  0.2419
  102MOL0     N13349   2.800   7.463  -0.367  0.5704 -0.4374  0.4476
  102MOL0     C13350   2.756   7.367  -0.450  0.1135  0.1862 -0.2865
  102MOL0     C13351   2.661   7.421  -0.525  0.0953  0.0427 -0.8022
  102MOL0     C13352   2.584   7.343  -0.621  0.3461 -0.0964  0.8897
  102MOL0     C13353   2.435   7.340  -0.594 -0.0174  0.2666  0.4454
  102MOL0     C13354   2.361   7.253  -0.692 -0.0007 -0.0175 -0.4288
  102MOL0     C13355   2.207   7.281  -0.682  0.6196 -0.2823 -0.4583
  102MOL0     O13356   2.171   7.218  -0.551  0.0962  0.3281  0.6134
  102MOL0     C13357   2.044   7.180  -0.525  0.1897  0.1233  0.6248
  102MOL0     C13358   2.017   7.074  -0.431 -0.1235 -0.4994  0.1028
  102MOL0     C13359   1.890   7.059  -0.375  0.0969  0.2942 -0.5127
  102MOL0     C13360   1.782   7.119  -0.442 -0.7362 -0.5737 -0.6482
  102MOL0     C13361   1.646   7.096  -0.401 -0.9536 -0.6209 -0.9702
  102MOL0     O13362   1.611   6.964  -0.383  0.6541  0.0594  0.8469
  102MOL0     C13363   1.480   6.925  -0.362 -0.2271 -0.5221  0.5103
  102MOL0     C13364   1.375   6.957  -0.456 -0.0815  0.2427 -0.0219
  102MOL0     C13365   1.247   6.906  -0.427 -0.4584  0.7771 -0.2381
  102MOL0     C13366   1.225   6.821  -0.316 -0.7375  0.0951  0.8545
  102MOL0     O13367   1.095   6.787  -0.301  0.0573  0.2838  0.3593
  102MOL0     C13368   1.075   6.696  -0.193 -0.6181 -0.3776 -0.1975
  102MOL0     C13369   0.929   6.655  -0.175  0.6423 -0.4849  0.2201
  102MOL0     C13370   0.906   6.594  -0.036  1.0910  0.6308  0.8747
  102MOL0     C13371   0.768   6.538  -0.034 -0.3019  0.2028 -0.5353
  102MOL0     C13372   0.660   6.650  -0.016 -0.3145  0.3316 -0.5017
  102MOL0     C13373   0.521   6.590  -0.009  0.2014 -0.1775  1.0273
  102MOL0     C13374   0.422   6.698   0.012 -0.0453 -0.2138  0.2093
  102MOL0     C13375   0.280   6.647   0.007  0.9315  0.3565 -0.4236
  102MOL0    Cl13376   0.224   6.588   0.170 -0.2882  0.1894 -0.0311
  102MOL0     C13377   1.334   6.798  -0.229 -0.0943  0.4741 -0.6733
  102MOL0     C13378   1.454   6.846  -0.256 -0.1885 -0.1505 -0.2870
  102MOL0     O13379   1.568   7.188  -0.386  0.7303  0.2420  0.0697
  102MOL0     C13380   1.803   7.216  -0.546 -0.8632 -0.2922  0.2084
  102MOL0     C13381   1.934   7.254  -0.582 -0.4765  0.1334  0.3345
  102MOL0     N13382   2.640   7.552  -0.487  0.5324 -0.0143 -1.0008
  102MOL0     N13383   2.731   7.581  -0.393  0.5927  0.5632 -0.9945
  102MOL0     C13384   3.715   7.263   0.221  0.0924 -0.4270 -0.1440
  102MOL0     C13385   3.823   7.295   0.306 -1.2158 -0.3788  0.3808
  102MOL0     C13386   4.202   7.364   0.538  0.2856 -0.6119  0.4083
  102MOL0     C13387   4.214   7.467   0.627 -0.6535 -0.3733  0.5793
  102MOL0     C13388   4.329   7.494   0.692 -0.1806 -0.2897 -0.1004
  102MOL0     C13389   4.433   7.405   0.675  0.4032  0.8857  0.0772
  102MOL0     O13390   4.558   7.421   0.736 -0.0359  1.1304  0.2631
  102MOL0     C13391   4.609   7.544   0.778 -0.0312  0.5483 -0.4396
  102MOL0     C13392   4.679   7.618   0.676 -0.1930  0.6219  0.0197
  102MOL0     C13393   4.812   7.549   0.646 -0.4275 -0.3990 -0.9238
  102MOL0     C13394   4.929   7.649   0.671 -0.0341  0.5323  0.0336
  102MOL0     C13395   5.070   7.605   0.662  0.0411  0.2739  0.1792
  102MOL0     C13396   5.190   7.598   0.678 -0.5808 -0.1816  0.0821
  102MOL0     C13397   4.418   7.293   0.580 -0.0419  0.3978 -0.3079
  102MOL0     C13398   4.306   7.273   0.510  0.7617  0.0224 -0.1660
  102MOL0     H13399   4.064   7.157   0.113  0.5813 -3.1300  3.4489
  102MOL0     H13400   3.867   7.080  -0.002  0.5395 -0.1213  0.8307
  102MOL0     H13401   3.493   7.281   0.064 -0.3532  0.9286 -3.6045
  102MOL0     H13402   3.460   7.125   0.151 -1.9530  0.4748 -0.1792
  102MOL0     H13403   3.293   7.205  -0.004 -1.9307 -0.7499 -1.4357
  102MOL0     H13404   3.357   7.040  -0.029  1.1945 -0.4306 -2.1329
  102MOL0     H13405   3.324   7.125  -0.244 -0.7620  0.6515  0.1625
  102MOL0     H13406   3.499   7.143  -0.223  0.2902  1.2794 -1.8005
  102MOL0     H13407   3.410   7.401  -0.183 -1.3023  1.7688 -1.8215
  102MOL0     H13408   3.394   7.331  -0.345  0.3510  0.2153 -0.5100
  102MOL0     H13409   3.170   7.372  -0.137 -1.6228 -1.0332  0.1648
  102MOL0     H13410   3.162   7.249  -0.267 -0.2105 -0.8921  1.3731
  102MOL0     H13411   3.237   7.460  -0.421  1.6521  2.0097  1.8559
  102MOL0     H13412   3.178   7.550  -0.292  1.5154  1.0043  0.0180
  102MOL0     H13413   3.017   7.504  -0.486  1.5245 -0.2382 -0.0734
  102MOL0     H13414   3.029   7.336  -0.445 -1.3478 -1.2851  1.6217
  102MOL0     H13415   2.923   7.541  -0.243 -1.9458  1.3071 -2.1123
  102MOL0     H13416   2.907   7.363  -0.227 -0.5159 -2.6600 -2.6122
  102MOL0     H13417   2.765   7.260  -0.439  2.1983  0.3730  0.1122
  102MOL0     H13418   2.622   7.241  -0.635  3.5475  1.1853 -0.7202
  102MOL0     H13419   2.601   7.392  -0.717 -0.1474  2.1311  1.8875
  102MOL0     H13420   2.384   7.436  -0.595 -4.0309 -1.6899 -0.1753
  102MOL0     H13421   2.414   7.291  -0.499 -2.7406  0.3522 -0.0302
  102MOL0     H13422   2.388   7.290  -0.792  0.5337  2.5806  0.5967
  102MOL0     H13423   2.390   7.149  -0.674 -0.9530 -0.0857  0.8528
  102MOL0     H13424   2.157   7.225  -0.762 -0.1771  0.6877 -0.6584
  102MOL0     H13425   2.190   7.387  -0.701  0.2958 -0.7235 -3.1226
  102MOL0     H13426   2.106   7.027  -0.393 -1.7131 -2.4593  1.6319
  102MOL0     H13427   1.878   7.000  -0.285 -1.9129  2.3371  0.6421
  102MOL0     H13428   1.385   7.014  -0.548 -0.2443  0.8051  0.3032
  102MOL0     H13429   1.159   6.936  -0.484 -0.3388 -0.0030 -0.8602
  102MOL0     H13430   1.103   6.732  -0.093  1.3353  0.7466 -1.1032
  102MOL0     H13431   1.132   6.606  -0.217 -0.6001  0.1268 -2.1922
  102MOL0     H13432   0.888   6.605  -0.263 -1.0771  2.3548 -0.7135
  102MOL0     H13433   0.864   6.743  -0.169 -1.2312 -1.7211 -0.9134
  102MOL0     H13434   0.921   6.666   0.045 -0.4949  1.6812  0.2588
  102MOL0     H13435   0.978   6.512  -0.031 -0.2012 -0.5120  1.6519
  102MOL0     H13436   0.759   6.483  -0.128 -0.3320  0.1380 -0.4943
  102MOL0     H13437   0.765   6.470   0.051 -0.5711 -0.5958 -1.1674
  102MOL0     H13438   0.665   6.729  -0.091  1.1122  2.3848  1.6081
  102MOL0     H13439   0.692   6.705   0.073 -1.0731 -2.4087  1.6001
  102MOL0     H13440   0.515   6.515   0.071 -2.7520 -1.9071 -0.6231
  102MOL0     H13441   0.492   6.544  -0.104  1.5529  0.9190  0.0477
  102MOL0     H13442   0.438   6.740   0.111  1.7950 -2.4062  0.9472
  102MOL0     H13443   0.435   6.776  -0.063  1.6491  1.0829  1.7618
  102MOL0     H13444   0.260   6.576  -0.074  0.6036  1.6609 -1.5041
  102MOL0     H13445   0.214   6.730  -0.018  0.1215 -0.8900 -2.6900
  102MOL0     H13446   1.330   6.730  -0.144  2.7252  0.1971 -0.6791
  102MOL0     H13447   1.542   6.817  -0.200  0.8594 -1.5539 -2.5012
  102MOL0     H13448   1.732   7.287  -0.587  1.6217  2.0663 -0.3697
  102MOL0     H13449   1.964   7.339  -0.643 -2.0448 -1.0285 -2.2508
  102MOL0     H13450   3.618   7.301   0.252  0.8800  3.1270 -1.5712
  102MOL0     H13451   3.792   7.349   0.394 -0.7537  0.5045  0.0070
  102MOL0     H13452   4.130   7.531   0.653  0.7589  0.4180  3.7356
  102MOL0     H13453   4.342   7.582   0.755  2.5292 -0.4437 -0.3267
  102MOL0     H13454   4.682   7.524   0.857 -1.3191 -0.0210  0.6427
  102MOL0     H13455   4.538   7.612   0.825  1.2701  1.3161  0.4936
  102MOL0     H13456   4.624   7.630   0.582 -1.7985 -1.7618  0.5701
  102MOL0     H13457   4.701   7.717   0.718  0.6810 -0.3720  2.0408
  102MOL0     H13458   4.820   7.527   0.539  1.0056 -1.3158 -0.6561
  102MOL0     H13459   4.831   7.462   0.709 -0.1393  0.9778  0.9474
  102MOL0     H13460   4.927   7.731   0.598  3.1034 -0.0063 -0.8034
  102MOL0     H13461   4.903   7.688   0.770  1.5988  0.3011  0.5852
  102MOL0     H13462   5.292   7.572   0.698 -0.0372  3.1323  2.4786
  102MOL0     H13463   4.506   7.230   0.572 -0.1050  0.4280 -1.3475
  102MOL0     H13464   4.297   7.207   0.424 -0.5691 -0.0911  0.0458
  103MOL0     O13465   0.542   6.468   1.631  0.7691 -0.0144 -0.7623
  103MOL0     C13466   0.528   6.574   1.690 -0.0279 -0.2532 -0.6796
  103MOL0     O13467   0.422   6.662   1.685  0.1285  0.2372  0.4051
  103MOL0     C13468   0.327   6.639   1.592  0.0487  0.8256 -0.3853
  103MOL0     C13469   0.305   6.732   1.493  0.5562  0.8448 -0.3256
  103MOL0     C13470   0.191   6.714   1.409  0.1687 -0.7967 -0.7346
  103MOL0     C13471   0.098   6.607   1.436 -0.2145  0.2091  0.3872
  103MOL0     O13472  -0.008   6.571   1.351  0.8542  1.3333 -0.2559
  103MOL0     C13473  -0.104   6.669   1.317 -0.7032 -0.1604 -0.5482
  103MOL0     C13474  -0.187   6.626   1.202 -0.3635  0.5488  0.8928
  103MOL0     C13475  -0.307   6.709   1.149 -0.2867  0.0170  0.0745
  103MOL0     C13476  -0.374   6.658   1.023 -0.0715 -0.3150 -0.0256
  103MOL0     C13477  -0.463   6.782   0.980  0.3327  0.4111 -0.2708
  103MOL0     C13478  -0.568   6.746   0.876  0.2880  0.9116  0.1123
  103MOL0     C13479  -0.681   6.669   0.931 -1.0548  0.4093 -0.5915
  103MOL0     C13480  -0.753   6.623   0.807  1.2771 -0.1576  0.5335
  103MOL0     N13481  -0.860   6.529   0.837  0.1788 -0.0583 -0.5282
  103MOL0     C13482  -0.972   6.544   0.913  0.2531  0.0667 -0.6738
  103MOL0     C13483  -1.041   6.425   0.909 -0.2907 -0.3703  0.8703
  103MOL0     C13484  -1.169   6.402   0.988  0.0537 -0.4280  0.5837
  103MOL0     C13485  -1.209   6.247   1.000 -0.0906 -0.6753 -0.5095
  103MOL0     C13486  -1.292   6.217   1.126 -0.1002  0.3964  0.7481
  103MOL0     C13487  -1.442   6.259   1.088 -0.0304  0.2464  0.0091
  103MOL0     O13488  -1.524   6.203   1.196  0.4482  0.0646  0.3145
  103MOL0     C13489  -1.663   6.220   1.204 -0.3918  0.8037 -0.0099
  103MOL0     C13490  -1.745   6.274   1.100  0.6099 -0.8314 -0.5748
  103MOL0     C13491  -1.886   6.275   1.109 -0.5400  0.0854  0.1946
  103MOL0     C13492  -1.947   6.233   1.235 -0.0544  0.4460  0.1179
  103MOL0     C13493  -2.097   6.234   1.253 -0.2098  1.1725 -0.5539
  103MOL0     O13494  -2.166   6.308   1.175  0.8901  0.7172  0.3158
  103MOL0     C13495  -2.299   6.281   1.205 -0.8643 -0.0850  0.5484
  103MOL0     C13496  -2.368   6.177   1.151 -0.0114 -0.1724  0.1515
  103MOL0     C13497  -2.503   6.168   1.167 -0.0080 -0.5372 -0.3231
  103MOL0     C13498  -2.576   6.249   1.248  0.6906  0.2870  0.4102
  103MOL0     O13499  -2.713   6.235   1.276  0.0673  0.0087  0.4657
  103MOL0     C13500  -2.795   6.146   1.197 -0.2131 -0.0287  0.2981
  103MOL0     C13501  -2.940   6.156   1.231 -0.1134  0.1017 -0.2028
  103MOL0     C13502  -2.963   6.120   1.380  0.2410  0.6347 -0.1938
  103MOL0     C13503  -3.116   6.130   1.418 -0.1055  0.0220 -0.6121
  103MOL0     C13504  -3.182   6.267   1.409 -0.6621  0.0372  0.1415
  103MOL0     C13505  -3.129   6.369   1.520  0.2561  0.0002  0.1678
  103MOL0     C13506  -3.241   6.471   1.555 -0.1874  0.3376  0.3044
  103MOL0     C13507  -3.182   6.612   1.584  0.2850  1.3382  0.1137
  103MOL0    Cl13508  -3.299   6.734   1.621 -0.0723 -0.2741 -0.3613
  103MOL0     C13509  -2.511   6.355   1.307  0.9976  1.0984 -0.3890
  103MOL0     C13510  -2.376   6.374   1.283  0.1461  0.3255  0.9869
  103MOL0     O13511  -2.138   6.150   1.337 -0.3017 -0.3505  0.8745
  103MOL0     C13512  -1.869   6.178   1.339 -0.6283  0.2306  0.0030
  103MOL0     C13513  -1.729   6.174   1.321  0.8267  0.8467  0.9328
  103MOL0     N13514  -0.970   6.332   0.840  0.1673  0.5539  0.7592
  103MOL0     N13515  -0.860   6.396   0.799  1.1686 -0.5971  0.2143
  103MOL0     C13516   0.137   6.514   1.527  0.1138  0.2931 -0.0346
  103MOL0     C13517   0.247   6.531   1.614 -0.6039  0.0768  0.4131
  103MOL0     C13518   0.653   6.606   1.767 -0.2774 -0.3450  0.0469
  103MOL0     C13519   0.677   6.735   1.815  0.3763 -0.3814  0.1874
  103MOL0     C13520   0.792   6.769   1.880 -0.0582 -0.0930  0.2316
  103MOL0     C13521   0.889   6.668   1.907 -0.0120  0.6064 -0.4955
  103MOL0     O13522   0.998   6.713   1.980  0.2242 -0.0144  0.9528
  103MOL0     C13523   1.119   6.629   1.968 -0.5230 -0.4987 -0.3992
  103MOL0     C13524   1.133   6.545   2.101  0.0749 -0.2642 -0.0553
  103MOL0     C13525   1.280   6.505   2.121  0.6542 -0.2617  0.2117
  103MOL0     C13526   1.386   6.607   2.156  0.2185  0.1794  0.2877
  103MOL0     C13527   1.454   6.661   2.030 -0.1236 -0.0562 -0.0728
  103MOL0     C13528   1.500   6.719   1.934 -0.1536  0.0155 -0.0949
  103MOL0     C13529   0.866   6.532   1.875  0.6782 -0.2831 -0.2134
  103MOL0     C13530   0.746   6.509   1.805 -0.7173 -0.1689  0.1351
  103MOL0     H13531   0.365   6.821   1.477 -0.1811  1.4179  0.0445
  103MOL0     H13532   0.178   6.785   1.328  1.3270  1.1372  0.6622
  103MOL0     H13533  -0.051   6.763   1.305 -1.1332  0.0926 -0.4885
  103MOL0     H13534  -0.179   6.671   1.397 -0.9056 -3.5487 -0.4967
  103MOL0     H13535  -0.215   6.522   1.226  1.0552  0.0474  0.4303
  103MOL0     H13536  -0.116   6.606   1.122 -0.2999 -1.8804  1.4831
  103MOL0     H13537  -0.279   6.813   1.132  0.5452 -0.6074 -3.1705
  103MOL0     H13538  -0.391   6.698   1.218 -0.3975 -1.2621 -0.2307
  103MOL0     H13539  -0.300   6.634   0.946  1.3180 -0.4828  1.3134
  103MOL0     H13540  -0.434   6.568   1.042  0.0075 -0.1201  1.2657
  103MOL0     H13541  -0.393   6.855   0.939 -1.1312  1.5402 -0.8744
  103MOL0     H13542  -0.524   6.817   1.064 -0.0755 -2.8093  0.9233
  103MOL0     H13543  -0.520   6.686   0.798  1.1499  0.5109  0.9227
  103MOL0     H13544  -0.599   6.842   0.835  1.1560  0.7502 -0.9747
  103MOL0     H13545  -0.641   6.585   0.988 -1.0059  2.3273  2.4318
  103MOL0     H13546  -0.743   6.729   0.998  3.0658  1.6081  2.6003
  103MOL0     H13547  -0.688   6.575   0.734  1.5106 -0.0630  0.6795
  103MOL0     H13548  -0.796   6.706   0.749  3.2282  0.0106 -0.7439
  103MOL0     H13549  -1.001   6.631   0.970  1.8520 -1.7104  3.2440
  103MOL0     H13550  -1.254   6.462   0.954  0.7506  0.2252 -0.0223
  103MOL0     H13551  -1.143   6.444   1.086  1.4064 -0.7120  0.3577
  103MOL0     H13552  -1.111   6.198   1.002 -0.2310 -0.9548 -0.3321
  103MOL0     H13553  -1.266   6.207   0.916 -1.4396 -2.2705  1.0811
  103MOL0     H13554  -1.287   6.108   1.133  1.1001  0.1423 -2.2934
  103MOL0     H13555  -1.249   6.263   1.215 -0.7351  0.7638  0.8702
  103MOL0     H13556  -1.469   6.217   0.991 -1.0355  1.6670 -0.3614
  103MOL0     H13557  -1.444   6.368   1.077  2.6934  0.2207 -1.3381
  103MOL0     H13558  -1.715   6.319   1.006  1.4680  1.3596  0.6669
  103MOL0     H13559  -1.938   6.316   1.023 -1.6696 -1.3040  0.1741
  103MOL0     H13560  -2.322   6.101   1.089 -0.8803 -0.4154 -0.2157
  103MOL0     H13561  -2.558   6.082   1.131 -0.5947 -1.3697  2.3660
  103MOL0     H13562  -2.758   6.044   1.209  3.0776  1.1700  1.5039
  103MOL0     H13563  -2.777   6.173   1.093 -0.7142 -0.9961 -0.0452
  103MOL0     H13564  -2.992   6.083   1.169 -0.1637 -1.4235  1.5429
  103MOL0     H13565  -2.971   6.258   1.208 -1.2136  0.0317  0.8583
  103MOL0     H13566  -2.894   6.185   1.435  0.0059  1.0258 -0.3502
  103MOL0     H13567  -2.942   6.014   1.393 -0.9014  0.5419  1.2347
  103MOL0     H13568  -3.172   6.064   1.351 -0.5260 -0.5120  0.2514
  103MOL0     H13569  -3.140   6.090   1.517 -1.5118  1.3055 -0.3946
  103MOL0     H13570  -3.290   6.254   1.419 -1.6152  6.2525  2.3242
  103MOL0     H13571  -3.175   6.312   1.309  1.9066 -1.4287 -0.4405
  103MOL0     H13572  -3.036   6.422   1.499  0.8740 -0.1482  2.3276
  103MOL0     H13573  -3.107   6.312   1.611 -0.0641  0.8337  0.7741
  103MOL0     H13574  -3.303   6.492   1.468  2.8842  2.3602 -1.5839
  103MOL0     H13575  -3.309   6.436   1.634  0.6972 -0.2033  0.8471
  103MOL0     H13576  -3.129   6.640   1.492  0.9055  0.3109  0.1392
  103MOL0     H13577  -3.103   6.604   1.659  0.9878  2.9084 -0.4259
  103MOL0     H13578  -2.558   6.426   1.375 -2.2880  1.2487 -2.6181
  103MOL0     H13579  -2.325   6.454   1.335  0.5569  0.0483  1.0177
  103MOL0     H13580  -1.903   6.124   1.426 -1.0299 -2.8710 -1.9276
  103MOL0     H13581  -1.663   6.123   1.390  0.9070 -2.3611 -1.2836
  103MOL0     H13582   0.090   6.417   1.539  1.1963 -0.7106 -2.9406
  103MOL0     H13583   0.252   6.456   1.692  1.3271 -2.0164 -1.5746
  103MOL0     H13584   0.604   6.815   1.814  2.4837  1.6592 -0.1957
  103MOL0     H13585   0.799   6.870   1.917 -1.0903  0.5178 -1.1433
  103MOL0     H13586   1.195   6.708   1.970  0.1240 -1.0860 -1.2586
  103MOL0     H13587   1.125   6.570   1.876 -2.3036 -0.3566 -0.6567
  103MOL0     H13588   1.106   6.592   2.196 -3.0588 -0.9570 -0.5058
  103MOL0     H13589   1.071   6.456   2.088 -2.0949  1.2950 -1.1007
  103MOL0     H13590   1.313   6.460   2.026 -0.7061 -0.6968 -0.0809
  103MOL0     H13591   1.287   6.424   2.194 -0.7317  1.4426  2.3656
  103MOL0     H13592   1.334   6.681   2.217 -1.6808 -0.5001 -0.4381
  103MOL0     H13593   1.454   6.553   2.223 -0.3292  0.0106  0.7085
  103MOL0     H13594   1.532   6.783   1.854 -4.0410  2.6292  0.1189
  103MOL0     H13595   0.946   6.462   1.900  0.4720 -0.8619 -1.1391
  103MOL0     H13596   0.726   6.407   1.773  1.2060 -1.1763  1.9256
  104MOL0     O13597   8.146   6.148   3.732 -0.0342  0.3630  0.0549
  104MOL0     C13598   8.193   6.124   3.843  0.7160  0.4751 -0.9569
  104MOL0     O13599   8.129   6.109   3.967  0.3280 -0.1348 -0.8071
  104MOL0     C13600   7.995   6.119   3.982  0.3402 -0.2813 -0.9440
  104MOL0     C13601   7.945   6.066   4.105  0.7355 -1.1234 -0.8783
  104MOL0     C13602   7.804   6.044   4.109 -0.0639  0.2821 -0.8569
  104MOL0     C13603   7.716   6.106   4.024  0.1757  0.0841  0.2138
  104MOL0     O13604   7.582   6.115   4.043 -0.1272  0.9265  0.6389
  104MOL0     C13605   7.544   6.122   4.187  0.1463  0.4290 -0.0781
  104MOL0     C13606   7.449   6.237   4.192  0.7963  0.8016 -0.9599
  104MOL0     C13607   7.499   6.380   4.164 -0.7335  0.7478 -0.5287
  104MOL0     C13608   7.381   6.474   4.160  0.3392  0.8748  0.3228
  104MOL0     C13609   7.419   6.608   4.095  0.5383  0.5614 -0.6257
  104MOL0     C13610   7.304   6.699   4.048  0.4582 -0.0589 -0.0739
  104MOL0     C13611   7.186   6.718   4.148 -0.3004 -0.3508  0.4994
  104MOL0     C13612   7.075   6.786   4.076 -0.2767 -0.4829  0.2915
  104MOL0     N13613   6.959   6.790   4.155 -0.3486 -0.6573 -0.1307
  104MOL0     C13614   6.876   6.687   4.195 -0.6541  0.3169  0.0544
  104MOL0     C13615   6.788   6.754   4.282 -0.7378 -0.8090  0.5485
  104MOL0     C13616   6.652   6.702   4.310 -0.4586  0.1635  0.7607
  104MOL0     C13617   6.628   6.674   4.462 -1.2276  0.4382  0.0198
  104MOL0     C13618   6.505   6.740   4.514 -0.8660  0.5312  0.3278
  104MOL0     C13619   6.450   6.705   4.661 -0.8873  0.4178 -0.3356
  104MOL0     O13620   6.443   6.561   4.676 -0.4020  0.5120  0.1527
  104MOL0     C13621   6.386   6.500   4.783  0.1209  0.2086  0.0747
  104MOL0     C13622   6.391   6.362   4.787 -0.6414 -0.0309 -0.7635
  104MOL0     C13623   6.337   6.293   4.896  1.0519  0.2681  0.1009
  104MOL0     C13624   6.277   6.362   5.000 -0.5658  0.6736  0.7602
  104MOL0     C13625   6.224   6.287   5.116 -0.5699 -0.0420 -1.2912
  104MOL0     O13626   6.141   6.349   5.206  0.0641 -0.4571  0.3207
  104MOL0     C13627   6.115   6.274   5.320 -0.6357 -0.3798 -0.9806
  104MOL0     C13628   6.003   6.196   5.351  0.2463 -0.1806  0.9701
  104MOL0     C13629   5.989   6.121   5.466  0.4367 -0.2323 -0.4433
  104MOL0     C13630   6.092   6.129   5.566 -0.0952  0.4911  0.2760
  104MOL0     O13631   6.091   6.069   5.683 -0.4343 -0.0641 -0.0244
  104MOL0     C13632   5.969   6.069   5.758  0.4819 -0.9618 -0.0442
  104MOL0     C13633   5.972   5.960   5.859  0.1876  0.0982  0.1674
  104MOL0     C13634   5.966   6.008   6.008 -0.1576  0.9595  0.2233
  104MOL0     C13635   5.994   5.891   6.102 -0.6411  0.2909 -0.0091
  104MOL0     C13636   5.878   5.796   6.111  0.5078  0.2408 -0.4575
  104MOL0     C13637   5.732   5.843   6.134 -0.5095 -0.7977 -0.4930
  104MOL0     C13638   5.709   5.952   6.249 -0.2346 -0.6486  0.3008
  104MOL0     C13639   5.565   5.975   6.286  0.0167  0.4383 -0.1707
  104MOL0    Cl13640   5.496   5.838   6.356 -0.5868 -0.0818 -0.2814
  104MOL0     C13641   6.201   6.200   5.537 -0.0944 -0.0501 -0.2244
  104MOL0     C13642   6.214   6.276   5.419 -0.4732  0.0039 -0.4883
  104MOL0     O13643   6.249   6.165   5.122 -0.1975 -0.1504 -0.9406
  104MOL0     C13644   6.282   6.498   4.999 -0.0065 -0.0502  0.3375
  104MOL0     C13645   6.332   6.568   4.889 -0.1258  0.1264 -0.2122
  104MOL0     N13646   6.820   6.891   4.291 -0.0742  0.5168  0.4149
  104MOL0     N13647   6.915   6.909   4.211 -0.5112  0.3878  0.9694
  104MOL0     C13648   7.774   6.173   3.921  0.5338  0.1016  0.2090
  104MOL0     C13649   7.907   6.174   3.891  0.0162  0.5926 -0.3710
  104MOL0     C13650   8.338   6.097   3.865 -0.4993 -0.9837 -0.5531
  104MOL0     C13651   8.380   6.071   3.996 -0.5703 -0.5972 -0.1991
  104MOL0     C13652   8.517   6.035   4.011 -1.4849 -0.8994 -0.5023
  104MOL0     C13653   8.608   6.053   3.907 -0.6490  0.1731  0.3325
  104MOL0     O13654   8.744   6.038   3.936 -0.1834  0.7022  0.4471
  104MOL0     C13655   8.803   5.935   3.851  0.4194 -0.5667  0.0798
  104MOL0     C13656   8.934   5.883   3.928 -0.1103  0.2079 -0.7252
  104MOL0     C13657   8.899   5.800   4.051  0.4288  0.2276  0.1619
  104MOL0     C13658   9.024   5.737   4.106  0.6194 -1.3242  0.0941
  104MOL0     C13659   9.121   5.824   4.169  0.5015  0.1845  0.3280
  104MOL0     C13660   9.190   5.902   4.228  0.2410 -1.1365  0.9354
  104MOL0     C13661   8.557   6.083   3.783  0.4559 -0.4814  0.5993
  104MOL0     C13662   8.429   6.097   3.760  1.0876 -0.2837  0.0326
  104MOL0     H13663   8.012   6.040   4.186  1.3492 -0.9601 -1.3287
  104MOL0     H13664   7.787   5.996   4.205 -0.4745  2.9721  0.5180
  104MOL0     H13665   7.633   6.140   4.247 -1.4617 -2.7036  3.6763
  104MOL0     H13666   7.500   6.028   4.224  0.5823 -0.8638 -2.6188
  104MOL0     H13667   7.410   6.245   4.294  3.0300  0.9406 -0.0671
  104MOL0     H13668   7.362   6.216   4.130 -0.0890 -2.7953  1.2288
  104MOL0     H13669   7.554   6.370   4.070 -0.5922 -0.8088 -0.3089
  104MOL0     H13670   7.573   6.406   4.240 -1.1032 -0.8301  0.4124
  104MOL0     H13671   7.300   6.426   4.104  2.5999 -1.4181 -1.1841
  104MOL0     H13672   7.344   6.482   4.263 -1.0257 -0.1177 -0.0624
  104MOL0     H13673   7.484   6.592   4.008  2.2313  2.1718  0.2853
  104MOL0     H13674   7.479   6.653   4.174  1.0585  1.7781 -1.6812
  104MOL0     H13675   7.263   6.652   3.959  1.4092  1.2204 -1.2217
  104MOL0     H13676   7.351   6.797   4.037  0.0210  0.2094  0.3979
  104MOL0     H13677   7.162   6.619   4.187 -0.8461 -0.9100 -1.1513
  104MOL0     H13678   7.231   6.770   4.232  0.4073  1.7985 -1.1233
  104MOL0     H13679   7.054   6.733   3.983 -1.3046 -2.6488  1.6644
  104MOL0     H13680   7.106   6.888   4.056 -0.3525  0.1380  2.9735
  104MOL0     H13681   6.862   6.586   4.157 -2.5698  0.1327  1.1165
  104MOL0     H13682   6.626   6.618   4.244  1.8753 -0.6294  0.7334
  104MOL0     H13683   6.599   6.792   4.278  0.5664 -0.3951 -3.0133
  104MOL0     H13684   6.719   6.695   4.519 -0.6631 -0.2070 -0.6251
  104MOL0     H13685   6.610   6.568   4.484 -0.8387  0.5075  0.6860
  104MOL0     H13686   6.525   6.848   4.523  0.4372  0.4799 -1.4270
  104MOL0     H13687   6.425   6.720   4.443  0.1311 -2.4920 -0.0841
  104MOL0     H13688   6.350   6.750   4.668 -1.2616 -0.6707  3.4131
  104MOL0     H13689   6.514   6.744   4.740 -1.0832  0.0371  0.0190
  104MOL0     H13690   6.432   6.294   4.713  0.0660 -0.5173  0.0589
  104MOL0     H13691   6.344   6.184   4.899 -0.6892  0.1414  0.5123
  104MOL0     H13692   5.927   6.194   5.273  1.4173 -1.0828 -0.2098
  104MOL0     H13693   5.893   6.073   5.483 -0.3604  2.3317  3.8402
  104MOL0     H13694   5.873   6.074   5.706 -0.5125 -0.5807  1.7389
  104MOL0     H13695   5.968   6.165   5.812 -2.2611 -0.3815 -0.9391
  104MOL0     H13696   6.068   5.906   5.854 -1.2478 -2.8824  1.6053
  104MOL0     H13697   5.905   5.877   5.836  0.4954  0.5063 -2.4541
  104MOL0     H13698   5.862   6.038   6.023 -0.7949 -1.3845  1.0003
  104MOL0     H13699   6.030   6.093   6.031 -2.9090  2.9996  0.8158
  104MOL0     H13700   6.087   5.842   6.073 -2.2824 -2.8994 -0.2775
  104MOL0     H13701   6.008   5.925   6.205  4.2957 -1.6660  0.1947
  104MOL0     H13702   5.899   5.716   6.183  0.8583  0.3334 -0.4546
  104MOL0     H13703   5.887   5.747   6.013  4.5044 -1.4738  0.5826
  104MOL0     H13704   5.677   5.750   6.156 -0.6408 -0.1886  2.1372
  104MOL0     H13705   5.688   5.891   6.046  0.3863 -2.6970 -2.0438
  104MOL0     H13706   5.756   5.919   6.342  0.4550 -0.1893  0.1159
  104MOL0     H13707   5.741   6.049   6.211 -2.1437 -0.5008 -1.0758
  104MOL0     H13708   5.516   6.013   6.196  0.9967 -0.3546 -1.0728
  104MOL0     H13709   5.564   6.048   6.367  0.6311 -0.4395  0.6589
  104MOL0     H13710   6.281   6.200   5.611  0.3969 -3.3049 -0.6367
  104MOL0     H13711   6.306   6.334   5.420 -0.4370  0.1866  3.6815
  104MOL0     H13712   6.234   6.555   5.078  0.2295  2.8654 -1.4552
  104MOL0     H13713   6.337   6.677   4.890 -3.3173  0.3765 -0.5068
  104MOL0     H13714   7.705   6.227   3.856  2.2401  2.5698  0.3161
  104MOL0     H13715   7.938   6.230   3.803  1.2423  2.2584  1.0421
  104MOL0     H13716   8.325   6.049   4.086 -1.5938 -1.8918 -1.0955
  104MOL0     H13717   8.558   6.019   4.110 -1.3273  2.5721  0.1404
  104MOL0     H13718   8.847   5.964   3.754  2.3839 -3.2525  0.0682
  104MOL0     H13719   8.733   5.853   3.840  0.9571 -1.1360  0.8239
  104MOL0     H13720   8.990   5.821   3.857 -1.4898 -1.3758 -0.4984
  104MOL0     H13721   8.989   5.970   3.963 -2.7166  1.5752  0.2364
  104MOL0     H13722   8.835   5.719   4.014 -0.6797  1.0399  0.2257
  104MOL0     H13723   8.842   5.846   4.133 -0.5124 -0.1507 -0.2662
  104MOL0     H13724   8.989   5.658   4.174  1.6301 -2.4152 -0.6134
  104MOL0     H13725   9.082   5.692   4.025  0.9972 -0.0725 -0.3527
  104MOL0     H13726   9.247   5.972   4.286 -1.3635  0.4826  0.6523
  104MOL0     H13727   8.622   6.084   3.696  0.1975 -0.7651  0.3999
  104MOL0     H13728   8.398   6.111   3.657 -0.9445 -2.8899  0.1990
  105MOL0     O13729   1.903   4.655   5.876 -0.1513  0.3931 -0.3478
  105MOL0     C13730   1.946   4.553   5.807 -0.2612 -1.6693 -1.5854
  105MOL0     O13731   1.867   4.478   5.732  0.0311 -0.8613 -0.0503
  105MOL0     C13732   1.731   4.461   5.736  0.8465  0.2832  0.2777
  105MOL0     C13733   1.634   4.558   5.736 -0.2520  0.5460  0.3346
  105MOL0     C13734   1.500   4.525   5.728  0.6187 -0.0425 -0.2584
  105MOL0     C13735   1.450   4.390   5.738  0.0341 -0.8327  0.5034
  105MOL0     O13736   1.317   4.363   5.762 -0.1147 -0.3513  0.5552
  105MOL0     C13737   1.256   4.450   5.862  0.2398 -0.9341  0.5055
  105MOL0     C13738   1.144   4.544   5.792 -0.4507 -0.0091  0.6905
  105MOL0     C13739   1.076   4.641   5.880  0.3284  0.1024  0.0994
  105MOL0     C13740   0.965   4.715   5.794 -0.2007  0.0541 -0.5287
  105MOL0     C13741   0.935   4.846   5.863  0.1598  0.2628 -1.2977
  105MOL0     C13742   0.821   4.925   5.798  0.9820 -1.3618  0.2306
  105MOL0     C13743   0.809   5.079   5.844  0.3073  0.5126  0.6495
  105MOL0     C13744   0.691   5.150   5.772 -0.1883 -1.3311 -0.3757
  105MOL0     N13745   0.680   5.297   5.799 -0.6746  0.0182  0.5457
  105MOL0     C13746   0.773   5.386   5.844 -0.1145  0.4377 -0.4354
  105MOL0     C13747   0.723   5.510   5.826  0.4661 -0.3649  0.3039
  105MOL0     C13748   0.788   5.635   5.858 -0.9895 -0.2652 -1.2995
  105MOL0     C13749   0.684   5.740   5.911 -0.5997  0.0541 -0.6274
  105MOL0     C13750   0.619   5.688   6.041  0.3773 -0.3687 -0.5485
  105MOL0     C13751   0.477   5.739   6.061 -0.2400  0.7200 -0.3074
  105MOL0     O13752   0.483   5.884   6.096 -0.1106 -0.0760 -0.4480
  105MOL0     C13753   0.366   5.954   6.138 -0.1929  0.8092 -0.4911
  105MOL0     C13754   0.236   5.901   6.149  0.1281 -0.0334 -0.5501
  105MOL0     C13755   0.122   5.979   6.162 -0.4796  1.1448  1.0001
  105MOL0     C13756   0.135   6.113   6.187 -0.9592  0.2847 -0.2033
  105MOL0     C13757   0.010   6.197   6.217 -0.9241 -0.6002  0.0867
  105MOL0     O13758  -0.113   6.156   6.174 -0.0038 -0.1448  1.0894
  105MOL0     C13759  -0.229   6.237   6.190  0.1398 -0.7289 -0.1573
  105MOL0     C13760  -0.295   6.243   6.313  1.2794 -0.5504 -0.1810
  105MOL0     C13761  -0.400   6.326   6.332  0.4989 -0.2018 -0.2446
  105MOL0     C13762  -0.445   6.409   6.224 -0.9483  0.3778  1.2479
  105MOL0     O13763  -0.558   6.482   6.228  0.3042  0.2943  0.4277
  105MOL0     C13764  -0.678   6.416   6.276  0.3727  0.2845  0.3464
  105MOL0     C13765  -0.796   6.464   6.186  0.2432  0.4081 -0.8639
  105MOL0     C13766  -0.923   6.494   6.265 -0.6789  0.6512 -0.9358
  105MOL0     C13767  -0.998   6.368   6.298 -0.4988 -0.1442  0.5842
  105MOL0     C13768  -1.115   6.390   6.398 -0.3620  0.0696 -0.2867
  105MOL0     C13769  -1.162   6.244   6.427  0.0561 -0.7063  0.9143
  105MOL0     C13770  -1.230   6.165   6.309 -0.0944 -1.3033 -0.3790
  105MOL0     C13771  -1.269   6.031   6.367 -0.2310 -0.5226 -0.2260
  105MOL0    Cl13772  -1.297   5.901   6.247 -0.1993  0.1094  0.0179
  105MOL0     C13773  -0.364   6.427   6.111  0.3208 -0.3598  0.5183
  105MOL0     C13774  -0.249   6.340   6.101 -0.2315 -0.5849 -0.1754
  105MOL0     O13775   0.030   6.304   6.280  0.0016 -0.2632  0.4427
  105MOL0     C13776   0.261   6.167   6.189 -0.4264 -0.0290 -0.7545
  105MOL0     C13777   0.375   6.092   6.166  0.1314  1.0490  0.4269
  105MOL0     N13778   0.594   5.494   5.779  0.2382  0.5866 -0.2132
  105MOL0     N13779   0.568   5.362   5.771 -0.4920  0.3024 -0.2334
  105MOL0     C13780   1.555   4.287   5.709  0.2053  1.1087 -0.5066
  105MOL0     C13781   1.685   4.328   5.711  0.3786  0.5316  0.0153
  105MOL0     C13782   2.092   4.539   5.794 -0.1218  0.2391 -0.0992
  105MOL0     C13783   2.180   4.628   5.855 -0.3890 -0.2672 -1.1521
  105MOL0     C13784   2.317   4.611   5.843  1.1553  0.6058  0.4409
  105MOL0     C13785   2.371   4.509   5.769 -0.0247 -1.4006 -0.2912
  105MOL0     O13786   2.501   4.493   5.752 -0.6852  0.2852 -0.4319
  105MOL0     C13787   2.595   4.573   5.811 -0.5947  0.2358 -0.6051
  105MOL0     C13788   2.732   4.532   5.773 -0.7825  0.2904  0.3299
  105MOL0     C13789   2.752   4.573   5.617 -0.6491  0.3222 -0.5597
  105MOL0     C13790   2.895   4.531   5.570 -1.0159  0.3594  0.1371
  105MOL0     C13791   2.899   4.392   5.516 -1.0352  0.0971  0.5328
  105MOL0     C13792   2.882   4.271   5.508  0.0469 -0.2112  0.3653
  105MOL0     C13793   2.286   4.414   5.711 -0.7758  0.3414 -0.6498
  105MOL0     C13794   2.151   4.430   5.723 -0.0816 -0.5648  0.0860
  105MOL0     H13795   1.675   4.659   5.735  0.0649  0.4270 -1.5032
  105MOL0     H13796   1.429   4.608   5.728 -0.3114 -0.8114 -0.5102
  105MOL0     H13797   1.313   4.528   5.913 -1.5284  2.2504 -1.9925
  105MOL0     H13798   1.215   4.391   5.945 -0.7970 -1.3266 -0.2470
  105MOL0     H13799   1.080   4.472   5.741  1.7845  0.7041 -3.5422
  105MOL0     H13800   1.189   4.600   5.710  1.1789 -2.2700 -0.0652
  105MOL0     H13801   1.134   4.726   5.918 -0.7949  1.3051 -0.7919
  105MOL0     H13802   1.026   4.591   5.964  1.6218 -0.9107  0.2898
  105MOL0     H13803   1.001   4.732   5.692 -2.0457 -1.0872 -1.4188
  105MOL0     H13804   0.876   4.653   5.783 -0.5464 -0.0317  2.1197
  105MOL0     H13805   1.026   4.905   5.876  0.3989 -0.5857  1.4201
  105MOL0     H13806   0.905   4.807   5.961 -1.9056 -1.3649 -2.5006
  105MOL0     H13807   0.723   4.877   5.808  0.1781  0.4935  1.9543
  105MOL0     H13808   0.839   4.934   5.690  0.6594  0.7129  0.3164
  105MOL0     H13809   0.789   5.086   5.952 -0.1320  0.3467  0.5794
  105MOL0     H13810   0.902   5.135   5.833 -0.8068  2.4131  0.3644
  105MOL0     H13811   0.601   5.095   5.800  0.0243 -0.9427  1.1909
  105MOL0     H13812   0.709   5.131   5.666 -0.0136 -2.1077 -0.2147
  105MOL0     H13813   0.867   5.362   5.892 -0.2797 -3.2044 -1.6311
  105MOL0     H13814   0.840   5.678   5.772  1.6485 -0.3834  0.1258
  105MOL0     H13815   0.860   5.622   5.940 -0.8613  0.8851 -1.2207
  105MOL0     H13816   0.610   5.746   5.830 -0.2293  3.3167 -0.8490
  105MOL0     H13817   0.739   5.834   5.921  1.1564 -0.9642 -0.3048
  105MOL0     H13818   0.606   5.581   6.025 -4.5279  0.1612 -1.5336
  105MOL0     H13819   0.678   5.696   6.133 -0.4271 -1.1019  0.0485
  105MOL0     H13820   0.431   5.685   6.144 -0.1209  1.1229  0.0280
  105MOL0     H13821   0.416   5.724   5.972 -2.2000 -0.7563  1.2013
  105MOL0     H13822   0.217   5.800   6.114 -0.3591  0.7913 -2.8256
  105MOL0     H13823   0.031   5.919   6.163  0.9409 -1.1408  2.0709
  105MOL0     H13824  -0.275   6.178   6.397  0.7518 -1.6855 -0.8951
  105MOL0     H13825  -0.454   6.322   6.426 -0.2351  3.1358 -0.4121
  105MOL0     H13826  -0.687   6.463   6.374  1.0569  2.2457 -0.4781
  105MOL0     H13827  -0.669   6.307   6.282 -0.0640  0.2824  1.0635
  105MOL0     H13828  -0.816   6.387   6.111 -0.7745  1.1743 -1.4053
  105MOL0     H13829  -0.771   6.561   6.142  0.7546  0.9918  0.6487
  105MOL0     H13830  -0.985   6.568   6.214 -2.0188 -0.1865 -0.5842
  105MOL0     H13831  -0.895   6.533   6.363 -2.8782 -1.6069  0.7266
  105MOL0     H13832  -1.040   6.333   6.204  0.6679  1.1540 -0.4612
  105MOL0     H13833  -0.933   6.291   6.340 -0.0139  0.4168  0.8772
  105MOL0     H13834  -1.190   6.460   6.361  1.0783  2.4638  1.0377
  105MOL0     H13835  -1.078   6.432   6.492 -0.9519  0.0950 -0.0629
  105MOL0     H13836  -1.246   6.263   6.495 -0.9937  3.5549 -1.1995
  105MOL0     H13837  -1.085   6.181   6.474 -0.6788 -1.2157  1.4749
  105MOL0     H13838  -1.307   6.229   6.265  0.7456  1.0545  1.3435
  105MOL0     H13839  -1.148   6.142   6.240  0.9093  2.6994 -0.8000
  105MOL0     H13840  -1.357   6.046   6.429 -0.9086 -0.2568 -1.2219
  105MOL0     H13841  -1.190   5.995   6.433  0.9681  3.5973  0.8892
  105MOL0     H13842  -0.398   6.498   6.036 -0.0313 -1.3492 -0.2761
  105MOL0     H13843  -0.199   6.331   6.005 -2.0310  0.1904 -1.2557
  105MOL0     H13844   0.274   6.271   6.219  0.9331 -0.6048  0.7937
  105MOL0     H13845   0.469   6.141   6.142  0.2659  0.3215 -0.5774
  105MOL0     H13846   1.547   4.181   5.684  2.5082  1.4607 -3.1568
  105MOL0     H13847   1.761   4.251   5.697  1.5694  1.2197  2.1028
  105MOL0     H13848   2.147   4.716   5.909  0.1159 -1.9305  2.1094
  105MOL0     H13849   2.386   4.671   5.901  0.1725  3.3570 -1.0250
  105MOL0     H13850   2.583   4.555   5.919  1.7553  2.7702  0.2189
  105MOL0     H13851   2.589   4.679   5.785  2.0070 -0.0615 -2.8964
  105MOL0     H13852   2.807   4.576   5.839 -1.5286 -0.8346  2.0022
  105MOL0     H13853   2.735   4.423   5.785 -2.3781  0.2648  0.6018
  105MOL0     H13854   2.733   4.681   5.618 -0.7239  0.3158 -1.2135
  105MOL0     H13855   2.683   4.523   5.548  0.5618  0.2222 -1.7283
  105MOL0     H13856   2.925   4.593   5.485  1.3886  0.4164  0.9486
  105MOL0     H13857   2.967   4.547   5.650 -1.0497 -0.2824  0.2982
  105MOL0     H13858   2.874   4.164   5.516  3.3035 -0.7772 -2.0329
  105MOL0     H13859   2.324   4.321   5.670 -2.7861 -0.1502 -1.5401
  105MOL0     H13860   2.093   4.348   5.682  1.6007 -2.4623  1.3513
  106MOL0     O13861   8.273   1.613   1.634 -0.5310  0.5439 -0.7291
  106MOL0     C13862   8.279   1.579   1.520  0.1576 -0.5238  0.1310
  106MOL0     O13863   8.174   1.547   1.442 -0.0198  0.7509  0.7768
  106MOL0     C13864   8.045   1.538   1.496 -0.7216 -0.4756 -1.3490
  106MOL0     C13865   8.011   1.433   1.585  0.4629  0.1537  0.3660
  106MOL0     C13866   7.882   1.393   1.616 -0.1030  0.7428 -0.2729
  106MOL0     C13867   7.772   1.470   1.569 -0.9019 -0.6061 -0.7057
  106MOL0     O13868   7.639   1.450   1.597  0.4980  0.5956  0.2146
  106MOL0     C13869   7.602   1.358   1.695  0.5458  0.3443  0.2860
  106MOL0     C13870   7.447   1.358   1.706  0.9167  0.5654 -0.6721
  106MOL0     C13871   7.391   1.278   1.579 -0.5677 -0.6094  0.6473
  106MOL0     C13872   7.234   1.264   1.555 -0.1798  0.3221 -1.2399
  106MOL0     C13873   7.209   1.138   1.460 -0.6324 -0.4204 -0.1407
  106MOL0     C13874   7.071   1.139   1.393  0.0576  0.6409  0.6490
  106MOL0     C13875   7.048   1.023   1.298  0.8951 -0.1371  0.9769
  106MOL0     C13876   6.898   1.021   1.256  1.3833 -0.6999  0.4056
  106MOL0     N13877   6.858   0.890   1.205 -0.0744 -0.0627  0.0219
  106MOL0     C13878   6.786   0.787   1.267 -0.1980  0.1564 -0.0337
  106MOL0     C13879   6.792   0.675   1.185  1.0353 -0.3826  0.3081
  106MOL0     C13880   6.747   0.535   1.231 -0.3225 -0.6002  0.1198
  106MOL0     C13881   6.676   0.462   1.121 -0.0658  0.6275 -0.0792
  106MOL0     C13882   6.626   0.329   1.176  0.7442 -0.9199  0.4152
  106MOL0     C13883   6.483   0.332   1.208  0.7824 -0.1389  0.6486
  106MOL0     O13884   6.403   0.352   1.087  0.7936  0.1637  0.0846
  106MOL0     C13885   6.264   0.334   1.111  0.4536  0.0551  0.6433
  106MOL0     C13886   6.189   0.442   1.140 -0.7318  0.3369 -0.6840
  106MOL0     C13887   6.052   0.427   1.155  0.2066  0.5798  0.0369
  106MOL0     C13888   5.994   0.300   1.179  0.5967 -0.2917  0.2815
  106MOL0     C13889   5.846   0.282   1.216 -0.0871 -1.0092  0.4047
  106MOL0     O13890   5.777   0.396   1.246  0.8799 -0.3209 -0.5258
  106MOL0     C13891   5.660   0.377   1.308  0.0301  0.8865 -0.4337
  106MOL0     C13892   5.646   0.349   1.449 -0.0754  0.1496  0.0263
  106MOL0     C13893   5.511   0.342   1.500 -0.7747  0.8641 -0.0423
  106MOL0     C13894   5.403   0.352   1.415  0.1682  0.4319  0.0301
  106MOL0     O13895   5.289   0.313   1.476 -0.2235 -0.3433  0.0429
  106MOL0     C13896   5.173   0.280   1.397  0.0293 -0.4325  0.7610
  106MOL0     C13897   5.097   0.405   1.361 -0.5742  0.0942  0.8831
  106MOL0     C13898   5.053   0.481   1.483  0.5556  0.0236  0.2945
  106MOL0     C13899   4.962   0.592   1.449  0.2929  0.0011 -0.1618
  106MOL0     C13900   4.917   0.655   1.574  0.6465  0.3422 -0.3767
  106MOL0     C13901   4.851   0.793   1.546  0.6093 -0.5089  0.1737
  106MOL0     C13902   4.728   0.804   1.441 -0.2753 -0.6962 -1.2281
  106MOL0     C13903   4.615   0.705   1.469 -0.2437  0.7682 -0.4172
  106MOL0    Cl13904   4.523   0.751   1.617  0.3483  0.1893  0.4824
  106MOL0     C13905   5.426   0.387   1.277  0.1101  0.6167  0.0107
  106MOL0     C13906   5.548   0.409   1.231  0.0764 -1.2867 -0.3320
  106MOL0     O13907   5.801   0.172   1.203  0.3467  0.1883  0.0068
  106MOL0     C13908   6.073   0.186   1.155 -0.1244  0.0607  0.3526
  106MOL0     C13909   6.211   0.202   1.113  0.9295  0.5276  0.3505
  106MOL0     N13910   6.869   0.714   1.079  0.4672  0.0831  0.0887
  106MOL0     N13911   6.910   0.836   1.091 -1.2194  0.4949  1.1231
  106MOL0     C13912   7.801   1.584   1.495  0.2538  0.3123 -0.8484
  106MOL0     C13913   7.939   1.621   1.456 -0.0172  0.7860  0.2706
  106MOL0     C13914   8.407   1.579   1.458 -0.1031 -0.1056 -1.1377
  106MOL0     C13915   8.414   1.577   1.320 -0.6121  0.0232 -0.6944
  106MOL0     C13916   8.537   1.589   1.257  0.9388 -0.1882  0.2299
  106MOL0     C13917   8.659   1.614   1.323  0.7870 -0.0872 -0.8696
  106MOL0     O13918   8.774   1.613   1.251  0.1297 -0.1440 -0.8649
  106MOL0     C13919   8.817   1.739   1.195 -0.2453 -0.2347 -0.1479
  106MOL0     C13920   8.771   1.756   1.060  1.2513 -0.2291 -0.4208
  106MOL0     C13921   8.820   1.897   1.017 -0.3953  1.3191  1.0470
  106MOL0     C13922   8.770   1.935   0.872  0.3177  0.1128  0.1203
  106MOL0     C13923   8.626   1.967   0.857 -0.7681 -0.9970  0.7778
  106MOL0     C13924   8.514   1.988   0.832 -0.5417  0.8143  0.8909
  106MOL0     C13925   8.648   1.618   1.462  0.6772 -0.0852 -0.2566
  106MOL0     C13926   8.522   1.601   1.532 -0.2279 -0.2628  0.1681
  106MOL0     H13927   8.088   1.376   1.637 -0.2951 -1.8007 -0.5395
  106MOL0     H13928   7.870   1.299   1.670  0.6868 -0.8631 -2.7456
  106MOL0     H13929   7.643   1.392   1.790  2.3031  0.5592 -0.5079
  106MOL0     H13930   7.641   1.259   1.668  2.3319  1.5926 -2.0895
  106MOL0     H13931   7.401   1.457   1.697 -1.9175  0.1600  4.7446
  106MOL0     H13932   7.411   1.323   1.804  0.4549  4.7124  0.8488
  106MOL0     H13933   7.439   1.181   1.572  0.3385 -0.1052 -0.6039
  106MOL0     H13934   7.436   1.324   1.490  1.4000 -0.0891  1.8497
  106MOL0     H13935   7.180   1.234   1.645  2.7623 -1.1395  0.1710
  106MOL0     H13936   7.204   1.362   1.517  0.4278  2.4524  3.1183
  106MOL0     H13937   7.226   1.045   1.515  4.1053 -1.4062 -2.6768
  106MOL0     H13938   7.292   1.151   1.390  0.9357  0.3612  1.7367
  106MOL0     H13939   7.050   1.238   1.352  0.9302  1.7186  2.6886
  106MOL0     H13940   6.996   1.110   1.468 -0.3934 -2.0483 -0.7028
  106MOL0     H13941   7.105   1.020   1.205  0.5277 -1.4159  0.7616
  106MOL0     H13942   7.074   0.929   1.349 -2.8069 -1.6426  0.3986
  106MOL0     H13943   6.878   1.096   1.179  0.8908 -1.8294 -0.6034
  106MOL0     H13944   6.844   1.039   1.349 -0.2180  0.0905 -0.6292
  106MOL0     H13945   6.725   0.786   1.357  2.4141  1.5114  1.8681
  106MOL0     H13946   6.678   0.550   1.314 -0.3943  3.2094 -0.4539
  106MOL0     H13947   6.830   0.480   1.276 -0.0497 -0.4577 -0.2013
  106MOL0     H13948   6.752   0.446   1.044  1.4958  2.1085  1.0516
  106MOL0     H13949   6.599   0.519   1.069 -0.2733 -1.0433 -1.7002
  106MOL0     H13950   6.649   0.255   1.099  0.1632  0.5371 -1.2290
  106MOL0     H13951   6.680   0.305   1.268  0.2583  0.4772  1.0798
  106MOL0     H13952   6.467   0.414   1.278 -2.0671  0.9637 -1.1249
  106MOL0     H13953   6.455   0.233   1.245 -3.7577  0.0588 -1.5637
  106MOL0     H13954   6.230   0.543   1.148  0.1545 -0.1166  1.2580
  106MOL0     H13955   5.989   0.514   1.168 -4.1321 -2.5560  2.7062
  106MOL0     H13956   5.734   0.327   1.509 -0.7821  1.6816  1.6853
  106MOL0     H13957   5.495   0.300   1.598  1.0314  2.4525  1.0028
  106MOL0     H13958   5.101   0.228   1.461  0.8819 -2.6028  0.0378
  106MOL0     H13959   5.203   0.222   1.309 -2.8221 -1.2725  0.2332
  106MOL0     H13960   5.009   0.387   1.298  0.3296 -2.1739  0.1674
  106MOL0     H13961   5.173   0.466   1.312  0.1106 -1.1531  0.3467
  106MOL0     H13962   5.139   0.516   1.542  0.8020 -1.1701  0.6741
  106MOL0     H13963   5.003   0.403   1.540 -1.2753  1.0397  0.1527
  106MOL0     H13964   5.018   0.669   1.395  0.5098 -0.1768 -0.1933
  106MOL0     H13965   4.880   0.549   1.391  0.6117 -0.6147 -0.1573
  106MOL0     H13966   5.000   0.664   1.645 -0.4282 -2.0111  1.3140
  106MOL0     H13967   4.846   0.582   1.615  1.1356  0.2564  0.3448
  106MOL0     H13968   4.939   0.848   1.512  2.3195 -3.9166 -1.4978
  106MOL0     H13969   4.813   0.835   1.639 -1.7586 -1.0094 -0.4913
  106MOL0     H13970   4.699   0.910   1.440 -0.4571 -0.6159  2.0113
  106MOL0     H13971   4.764   0.777   1.342  2.5692 -1.1375 -0.1877
  106MOL0     H13972   4.660   0.607   1.487 -0.0856  0.5491 -1.8360
  106MOL0     H13973   4.550   0.693   1.381 -0.1635 -1.2400 -0.2404
  106MOL0     H13974   5.340   0.396   1.211 -0.2232 -0.6533  0.2357
  106MOL0     H13975   5.564   0.461   1.137  1.9069  1.5111  1.4073
  106MOL0     H13976   6.039   0.085   1.176  2.3460 -1.1119 -0.9556
  106MOL0     H13977   6.268   0.111   1.096 -2.6528 -1.8337 -0.1699
  106MOL0     H13978   7.722   1.655   1.474  0.3455  1.0959  1.1872
  106MOL0     H13979   7.956   1.700   1.383  1.5255 -0.9771 -1.4333
  106MOL0     H13980   8.325   1.536   1.274 -0.6177 -2.1776  1.1052
  106MOL0     H13981   8.528   1.580   1.149 -1.8037  1.8270  0.1899
  106MOL0     H13982   8.925   1.741   1.213 -0.5834  1.0880  2.2298
  106MOL0     H13983   8.774   1.821   1.254  2.0122  0.9975 -0.1257
  106MOL0     H13984   8.796   1.677   0.989  2.0741  0.0182 -0.4151
  106MOL0     H13985   8.664   1.767   1.076  1.3966 -0.5860  0.8804
  106MOL0     H13986   8.928   1.888   1.000 -0.2159  1.8345  1.8910
  106MOL0     H13987   8.792   1.979   1.083 -1.1142  3.4926 -1.7610
  106MOL0     H13988   8.816   2.028   0.838  1.2045 -1.6815 -4.2347
  106MOL0     H13989   8.786   1.854   0.800 -2.7338  0.5637 -1.2142
  106MOL0     H13990   8.412   2.000   0.803  0.2967  0.5971 -2.6506
  106MOL0     H13991   8.732   1.617   1.531 -0.1722 -0.0121  0.8113
  106MOL0     H13992   8.529   1.590   1.640  1.4086  0.5015  0.1822
  107MOL0     O13993   6.610   4.119   3.065  0.2143 -0.8409  0.7024
  107MOL0     C13994   6.635   4.230   3.107 -0.7574 -0.6672  0.2220
  107MOL0     O13995   6.555   4.328   3.116 -0.0824  0.1571 -0.4198
  107MOL0     C13996   6.427   4.322   3.062  0.1584 -0.6759 -0.6496
  107MOL0     C13997   6.394   4.289   2.933  0.1636 -0.4950 -0.6984
  107MOL0     C13998   6.265   4.306   2.883 -0.6582 -0.1862  0.1908
  107MOL0     C13999   6.165   4.348   2.966 -0.4232  0.2904  0.6265
  107MOL0     O14000   6.040   4.362   2.909 -0.6260  0.2603 -0.6651
  107MOL0     C14001   5.927   4.370   2.987 -0.2756 -0.7661 -0.5485
  107MOL0     C14002   5.802   4.334   2.899  0.1177 -0.0919  0.3502
  107MOL0     C14003   5.678   4.387   2.978 -0.1010 -0.1711  0.4698
  107MOL0     C14004   5.551   4.339   2.907 -0.6147 -0.1414  0.8314
  107MOL0     C14005   5.433   4.402   2.986 -0.0621 -0.9792  0.0529
  107MOL0     C14006   5.301   4.339   2.938  0.0140 -0.0564  0.0228
  107MOL0     C14007   5.173   4.403   2.985  0.7549  1.0719 -0.4066
  107MOL0     C14008   5.136   4.523   2.891 -0.8191  0.5939  0.2798
  107MOL0     N14009   5.010   4.591   2.911  0.4894  0.4811  0.5032
  107MOL0     C14010   4.878   4.536   2.917  0.6500  0.1734 -0.0909
  107MOL0     C14011   4.794   4.645   2.920  0.6933  0.2909  0.2188
  107MOL0     C14012   4.644   4.635   2.918  0.7014  0.3079  1.0831
  107MOL0     C14013   4.570   4.769   2.939  0.7037  0.0742  0.3631
  107MOL0     C14014   4.424   4.757   2.952  0.9854 -0.4624 -0.0879
  107MOL0     C14015   4.355   4.709   2.824  0.0613  0.3296  0.0201
  107MOL0     O14016   4.210   4.701   2.841  0.4014 -0.3435 -0.1357
  107MOL0     C14017   4.153   4.589   2.901 -0.8808 -0.3447  0.7449
  107MOL0     C14018   4.022   4.599   2.938  0.3692 -0.0931 -0.8637
  107MOL0     C14019   3.947   4.490   2.981 -0.5427 -0.6118  0.0431
  107MOL0     C14020   4.008   4.365   3.011  0.0979 -0.3883 -0.4920
  107MOL0     C14021   3.928   4.249   3.057  0.1830  0.4068  0.6995
  107MOL0     O14022   3.792   4.268   3.050  0.4679 -0.4115  0.2751
  107MOL0     C14023   3.704   4.154   3.064 -0.6647  0.1512 -0.0618
  107MOL0     C14024   3.736   4.017   3.046 -0.8534  1.0258  0.3126
  107MOL0     C14025   3.632   3.924   3.065 -0.7898  0.5650 -0.1265
  107MOL0     C14026   3.502   3.959   3.097 -0.3204 -0.4078  0.1264
  107MOL0     O14027   3.408   3.851   3.093  0.0668 -0.3514 -0.5603
  107MOL0     C14028   3.299   3.861   3.007  0.5953  0.3128 -0.0564
  107MOL0     C14029   3.171   3.788   3.047  0.2794  0.4646 -0.4092
  107MOL0     C14030   3.096   3.866   3.151 -0.3227 -0.1479 -0.3795
  107MOL0     C14031   2.992   3.954   3.099 -0.0348  0.2831 -0.1335
  107MOL0     C14032   2.891   3.993   3.204 -0.0670 -0.6295 -0.2289
  107MOL0     C14033   2.786   4.086   3.160  0.4180  0.6368  0.1239
  107MOL0     C14034   2.683   4.106   3.273 -0.4393 -0.4744 -0.6133
  107MOL0     C14035   2.738   4.146   3.416 -0.2512  0.0620  1.3337
  107MOL0    Cl14036   2.591   4.186   3.512  0.2755 -0.1500 -0.3498
  107MOL0     C14037   3.475   4.093   3.117  0.0381  0.5513  0.0695
  107MOL0     C14038   3.573   4.191   3.098  0.1166  0.3077 -0.4046
  107MOL0     O14039   3.982   4.146   3.092  0.0425 -0.8097  0.3368
  107MOL0     C14040   4.149   4.368   2.994 -0.4069 -0.4201  0.4024
  107MOL0     C14041   4.220   4.472   2.938 -0.3454  0.6415  0.3198
  107MOL0     N14042   4.868   4.754   2.891 -0.2348 -0.3601 -0.5556
  107MOL0     N14043   4.990   4.724   2.876  0.2814  0.4170  0.5098
  107MOL0     C14044   6.201   4.394   3.100 -0.0942 -0.5120  0.5950
  107MOL0     C14045   6.329   4.377   3.151 -0.8574  0.1468 -0.1490
  107MOL0     C14046   6.776   4.254   3.146 -0.2222  0.0809 -0.1964
  107MOL0     C14047   6.862   4.148   3.163  0.0574  0.2506  1.2086
  107MOL0     C14048   6.998   4.170   3.202 -0.1660 -0.5643 -0.0287
  107MOL0     C14049   7.044   4.294   3.235  0.8788 -1.9483 -0.2426
  107MOL0     O14050   7.174   4.331   3.268  1.0947  0.5022  0.0001
  107MOL0     C14051   7.276   4.228   3.285  0.3277  0.4216 -0.5986
  107MOL0     C14052   7.374   4.225   3.162  0.2565 -0.2344  0.3354
  107MOL0     C14053   7.432   4.365   3.123  0.9635  0.7277 -0.0378
  107MOL0     C14054   7.584   4.355   3.079 -0.1482 -0.4210 -0.1444
  107MOL0     C14055   7.609   4.276   2.953  0.8698 -0.6153 -0.4599
  107MOL0     C14056   7.644   4.235   2.844 -0.0138  0.6450  0.4330
  107MOL0     C14057   6.951   4.406   3.231 -0.2303  0.7592  0.8559
  107MOL0     C14058   6.824   4.378   3.182  0.3550 -0.1618 -0.0394
  107MOL0     H14059   6.471   4.265   2.860  0.8462 -2.0600  0.4867
  107MOL0     H14060   6.258   4.293   2.775  2.6525 -1.4193  0.0139
  107MOL0     H14061   5.914   4.471   3.026  0.6561 -1.2388  1.0767
  107MOL0     H14062   5.919   4.303   3.073 -0.0235 -2.6142 -1.9057
  107MOL0     H14063   5.794   4.227   2.878 -2.3512  0.1003  0.0233
  107MOL0     H14064   5.814   4.384   2.803 -0.4110 -0.6273  0.0032
  107MOL0     H14065   5.688   4.496   2.984  3.0320 -0.0954 -2.8682
  107MOL0     H14066   5.670   4.345   3.079  1.7515 -0.4588  0.5466
  107MOL0     H14067   5.549   4.371   2.802 -0.5663  0.1342  0.9142
  107MOL0     H14068   5.548   4.230   2.914  1.3492 -0.4048 -1.1928
  107MOL0     H14069   5.421   4.508   2.960 -1.7278 -1.8142 -2.9427
  107MOL0     H14070   5.444   4.388   3.094  3.1030 -0.1630 -0.0673
  107MOL0     H14071   5.289   4.243   2.989 -1.4221  1.0073  1.8060
  107MOL0     H14072   5.302   4.316   2.831 -1.7703  0.0437 -0.0416
  107MOL0     H14073   5.089   4.332   2.978  1.2578  0.2536  1.2226
  107MOL0     H14074   5.189   4.427   3.091 -1.5206 -1.2621  0.6102
  107MOL0     H14075   5.122   4.473   2.795 -0.8183  1.8418 -0.3966
  107MOL0     H14076   5.223   4.589   2.881 -0.7735  0.2489 -2.1220
  107MOL0     H14077   4.860   4.430   2.908  0.6743  0.1848 -0.2960
  107MOL0     H14078   4.601   4.566   2.991 -0.0692  0.4941  0.8127
  107MOL0     H14079   4.614   4.596   2.820 -0.4265 -1.2690  2.0048
  107MOL0     H14080   4.608   4.843   2.868  0.3373 -0.7120 -0.6875
  107MOL0     H14081   4.596   4.800   3.040  3.3367 -2.1047  0.4761
  107MOL0     H14082   4.395   4.703   3.043 -1.6264 -1.1147 -1.2112
  107MOL0     H14083   4.383   4.857   2.971 -0.4444 -0.9878 -0.2975
  107MOL0     H14084   4.391   4.609   2.797 -0.2862  0.7090 -2.0314
  107MOL0     H14085   4.381   4.773   2.740 -4.9177  0.0177 -2.0914
  107MOL0     H14086   3.984   4.697   2.913  3.2379  0.7591 -2.2729
  107MOL0     H14087   3.841   4.496   3.003  0.1822  0.7343  3.9642
  107MOL0     H14088   3.833   3.979   3.016  0.1486  1.8385  2.2788
  107MOL0     H14089   3.639   3.816   3.057 -1.1412  0.6528 -1.9713
  107MOL0     H14090   3.325   3.820   2.909 -1.5221 -1.5527  0.0662
  107MOL0     H14091   3.263   3.961   2.985  1.0213  0.2655 -0.9999
  107MOL0     H14092   3.203   3.694   3.092  0.3351  0.4385 -0.5017
  107MOL0     H14093   3.108   3.773   2.959  0.5534 -1.5877 -0.2925
  107MOL0     H14094   3.176   3.921   3.203  0.0854  1.6143 -2.7016
  107MOL0     H14095   3.066   3.790   3.224  2.0291 -0.6342  0.1802
  107MOL0     H14096   3.032   4.047   3.058 -2.0252  0.5764 -1.5083
  107MOL0     H14097   2.945   3.898   3.018  0.8199 -0.2219 -0.2952
  107MOL0     H14098   2.941   4.050   3.283  0.2931 -0.5993 -0.4711
  107MOL0     H14099   2.845   3.905   3.249 -1.1826 -0.3670 -0.8307
  107MOL0     H14100   2.737   4.043   3.072  1.7779 -0.2583 -0.2270
  107MOL0     H14101   2.811   4.183   3.115  0.3084  1.2534  1.3415
  107MOL0     H14102   2.613   4.179   3.232  1.0216  0.4879 -1.4461
  107MOL0     H14103   2.620   4.016   3.282 -0.2254 -0.7241 -1.4910
  107MOL0     H14104   2.808   4.230   3.419 -0.6508  0.4367  0.5328
  107MOL0     H14105   2.776   4.053   3.458  0.9811 -0.0984 -0.0921
  107MOL0     H14106   3.376   4.128   3.143 -0.3503 -0.1301 -0.4619
  107MOL0     H14107   3.552   4.298   3.100 -0.7887  0.2163 -2.4753
  107MOL0     H14108   4.206   4.281   3.026  1.9430  1.9107  3.0070
  107MOL0     H14109   4.326   4.449   2.928 -0.1672  1.4998  0.1786
  107MOL0     H14110   6.118   4.423   3.163 -1.2636 -0.6553 -0.8319
  107MOL0     H14111   6.339   4.416   3.252  0.1884  0.8113 -0.4901
  107MOL0     H14112   6.836   4.044   3.148  1.7199 -0.1720  1.0651
  107MOL0     H14113   7.070   4.089   3.201  0.7051  0.1852  0.6191
  107MOL0     H14114   7.239   4.131   3.322  3.5721 -0.4996  0.5176
  107MOL0     H14115   7.331   4.265   3.371  0.5687 -0.1055 -0.5185
  107MOL0     H14116   7.457   4.155   3.174  0.6928  0.1939 -0.1537
  107MOL0     H14117   7.318   4.190   3.075 -0.0773 -3.0106  1.5404
  107MOL0     H14118   7.417   4.433   3.207 -1.1417 -0.7513  0.8563
  107MOL0     H14119   7.376   4.412   3.042 -0.0274  0.1545  0.2937
  107MOL0     H14120   7.620   4.457   3.070 -2.0513  0.2477 -0.7452
  107MOL0     H14121   7.641   4.312   3.162  0.7835 -0.8262 -0.9797
  107MOL0     H14122   7.690   4.209   2.752 -1.4612  1.8877 -0.7023
  107MOL0     H14123   6.972   4.510   3.253  1.7186  0.4695  0.4800
  107MOL0     H14124   6.764   4.468   3.180  0.5194 -0.0723 -1.4048
  108MOL0     O14125   7.038   0.116   4.277  0.2103 -0.0860 -0.2419
  108MOL0     C14126   7.092   0.090   4.387 -0.1831 -0.1640 -0.4847
  108MOL0     O14127   7.032   0.083   4.502  0.8932  0.1236  0.5316
  108MOL0     C14128   6.906   0.132   4.519 -0.1686 -0.0987 -1.0048
  108MOL0     C14129   6.845   0.249   4.468 -0.6427 -0.9071 -0.0136
  108MOL0     C14130   6.715   0.293   4.500  0.9829  0.8382  0.0791
  108MOL0     C14131   6.643   0.217   4.591  0.2103  0.9938  0.1986
  108MOL0     O14132   6.522   0.250   4.620  0.3307 -0.3986  0.0713
  108MOL0     C14133   6.430   0.229   4.513 -0.1080  0.4209 -0.3554
  108MOL0     C14134   6.402   0.077   4.485  0.9742 -0.2840 -0.0634
  108MOL0     C14135   6.269   0.047   4.427  0.7100  0.6438  0.6364
  108MOL0     C14136   6.208   0.138   4.318 -0.0501 -0.2304 -0.0320
  108MOL0     C14137   6.055   0.105   4.289 -0.6269  0.7384 -0.4073
  108MOL0     C14138   6.051  -0.039   4.219  0.0106  0.0240 -0.0191
  108MOL0     C14139   5.902  -0.078   4.187 -1.0681 -0.0778 -0.5661
  108MOL0     C14140   5.902  -0.199   4.092  0.0195 -0.0008  0.6461
  108MOL0     N14141   5.764  -0.251   4.071  0.3644  0.0841  0.4726
  108MOL0     C14142   5.714  -0.361   4.134 -0.1161 -0.1387 -0.4048
  108MOL0     C14143   5.600  -0.395   4.072  0.3271  1.2695  0.8443
  108MOL0     C14144   5.514  -0.510   4.104  0.2642  0.0254  0.4033
  108MOL0     C14145   5.553  -0.628   4.021  0.9892  0.1709 -0.2808
  108MOL0     C14146   5.455  -0.744   4.046  0.9594  0.4523  0.9163
  108MOL0     C14147   5.446  -0.802   4.188 -0.8544  0.2481  0.0791
  108MOL0     O14148   5.420  -0.947   4.188 -0.2519 -0.2491 -0.4085
  108MOL0     C14149   5.299  -0.994   4.140  0.0936  1.4891  1.2090
  108MOL0     C14150   5.303  -1.110   4.051 -0.1882 -0.1104 -0.4322
  108MOL0     C14151   5.194  -1.178   4.016 -0.0447 -0.5306 -0.4406
  108MOL0     C14152   5.065  -1.139   4.072 -0.6232 -0.3326 -0.5170
  108MOL0     C14153   4.946  -1.206   4.023 -0.0911 -0.1565 -1.3797
  108MOL0     O14154   4.827  -1.168   4.079  0.5618  0.1264 -0.7529
  108MOL0     C14155   4.711  -1.240   4.070 -0.2629 -0.0500 -0.3630
  108MOL0     C14156   4.696  -1.376   4.061  0.0513  0.3204 -0.6979
  108MOL0     C14157   4.572  -1.428   4.044  0.1599 -0.3241  0.2502
  108MOL0     C14158   4.455  -1.355   4.037  0.2085 -0.9158  0.9738
  108MOL0     O14159   4.325  -1.395   4.014 -0.1688 -0.5889 -0.5571
  108MOL0     C14160   4.298  -1.526   3.968 -0.6829 -0.5278  0.3573
  108MOL0     C14161   4.145  -1.542   3.968 -0.2491 -0.4771 -0.9913
  108MOL0     C14162   4.092  -1.521   4.117 -0.9097 -0.8976  0.8009
  108MOL0     C14163   3.945  -1.569   4.127  0.0614  0.3155 -0.5684
  108MOL0     C14164   3.869  -1.501   4.248 -0.4480  0.8483 -0.4780
  108MOL0     C14165   3.928  -1.573   4.379  0.4519 -0.2382 -0.4694
  108MOL0     C14166   3.897  -1.490   4.506 -0.1376  0.4277  1.0269
  108MOL0     C14167   3.979  -1.366   4.521 -0.0712 -0.7618 -0.1037
  108MOL0    Cl14168   3.975  -1.299   4.681  0.2215 -0.2770 -0.2051
  108MOL0     C14169   4.470  -1.214   4.047 -0.6446 -0.1130 -0.2035
  108MOL0     C14170   4.599  -1.156   4.071  0.2059 -0.4632  0.3118
  108MOL0     O14171   4.960  -1.296   3.949 -0.4529 -0.0665  0.1676
  108MOL0     C14172   5.065  -1.025   4.151 -0.2130  0.0671 -0.5148
  108MOL0     C14173   5.179  -0.950   4.185 -0.3791 -0.2937  0.6747
  108MOL0     N14174   5.568  -0.299   3.983  0.6314 -0.4671  0.5071
  108MOL0     N14175   5.669  -0.215   3.976  0.4462 -0.2482 -1.1094
  108MOL0     C14176   6.702   0.100   4.647  0.5224  0.8862 -0.0414
  108MOL0     C14177   6.829   0.062   4.611 -0.5356  0.2912  0.1614
  108MOL0     C14178   7.240   0.065   4.404 -0.0734 -0.2994  0.8625
  108MOL0     C14179   7.304   0.042   4.524 -0.3367  0.3447 -0.8261
  108MOL0     C14180   7.440   0.008   4.531 -1.1353 -0.2295 -0.1566
  108MOL0     C14181   7.522   0.015   4.417  0.5156  0.0618 -0.4120
  108MOL0     O14182   7.656  -0.004   4.429 -0.5386 -0.0554 -0.6318
  108MOL0     C14183   7.746  -0.012   4.312  0.3629  0.4010  0.3226
  108MOL0     C14184   7.886  -0.072   4.351 -0.4226 -0.1387  0.3361
  108MOL0     C14185   7.986   0.032   4.407  0.6667  0.3353  0.3303
  108MOL0     C14186   8.032   0.128   4.294 -0.4271  0.2087  0.2395
  108MOL0     C14187   8.139   0.223   4.337  0.2596  0.3344  0.2265
  108MOL0     C14188   8.222   0.305   4.361 -0.3991  0.1807 -0.0576
  108MOL0     C14189   7.459   0.027   4.292  1.2739 -0.7472  0.2193
  108MOL0     C14190   7.318   0.053   4.282 -0.8279  0.0335  0.2140
  108MOL0     H14191   6.890   0.310   4.391  0.7594 -0.9972  0.7085
  108MOL0     H14192   6.680   0.390   4.468 -2.5648 -0.1253  0.6575
  108MOL0     H14193   6.451   0.289   4.424 -0.2280  5.3859  2.5644
  108MOL0     H14194   6.333   0.265   4.549 -1.5805 -1.8624 -1.7923
  108MOL0     H14195   6.423   0.016   4.573  0.5179 -0.4181 -0.0450
  108MOL0     H14196   6.477   0.049   4.410  0.3076  0.3730 -0.9911
  108MOL0     H14197   6.194   0.038   4.506 -1.1092 -1.3435 -1.1670
  108MOL0     H14198   6.284  -0.051   4.379 -2.9814 -0.9957  2.4589
  108MOL0     H14199   6.204   0.238   4.361 -1.3096  1.0617 -2.8841
  108MOL0     H14200   6.273   0.149   4.230  2.7240 -1.0153  1.8099
  108MOL0     H14201   6.010   0.167   4.211  1.6442 -1.5639 -3.8591
  108MOL0     H14202   5.994   0.103   4.380  0.5237 -2.8201  0.4697
  108MOL0     H14203   6.084  -0.115   4.290 -0.1937  2.8406  3.3723
  108MOL0     H14204   6.126  -0.030   4.140  1.3899  1.5009  1.3740
  108MOL0     H14205   5.849  -0.105   4.279  1.7101 -1.0075  0.8722
  108MOL0     H14206   5.852   0.007   4.140 -1.4721 -0.0479 -0.0851
  108MOL0     H14207   5.971  -0.277   4.123 -3.2208 -2.9684  1.0651
  108MOL0     H14208   5.941  -0.169   3.994  0.9310 -2.6049  0.1411
  108MOL0     H14209   5.759  -0.422   4.213  0.7910 -0.0174 -0.8172
  108MOL0     H14210   5.407  -0.490   4.088 -0.6170 -1.9938  3.0746
  108MOL0     H14211   5.518  -0.529   4.212  0.6679  0.6607  0.5079
  108MOL0     H14212   5.656  -0.660   4.034  0.1184 -1.9576  2.0678
  108MOL0     H14213   5.526  -0.595   3.920 -0.9064 -0.6955 -0.0933
  108MOL0     H14214   5.355  -0.707   4.021 -0.4934 -3.2014  0.7174
  108MOL0     H14215   5.479  -0.831   3.984  2.7426  0.6344  1.3160
  108MOL0     H14216   5.382  -0.751   4.261 -1.0050 -0.6720  0.6045
  108MOL0     H14217   5.545  -0.787   4.233 -0.8448  1.4887 -0.3316
  108MOL0     H14218   5.403  -1.148   4.032  0.0084  0.1516  0.0443
  108MOL0     H14219   5.214  -1.266   3.956 -3.1995 -0.8163 -1.2436
  108MOL0     H14220   4.782  -1.443   4.062 -0.3008 -0.3275  3.4865
  108MOL0     H14221   4.563  -1.537   4.044  0.3414 -0.3988 -2.3294
  108MOL0     H14222   4.353  -1.591   4.037  2.3209  2.0393  0.6242
  108MOL0     H14223   4.320  -1.541   3.863  0.0636  0.8531  0.2874
  108MOL0     H14224   4.114  -1.645   3.947  0.2770 -0.5656 -1.3326
  108MOL0     H14225   4.084  -1.470   3.912 -0.1846 -0.6989 -1.3492
  108MOL0     H14226   4.089  -1.415   4.141 -0.1490 -1.1850  2.2938
  108MOL0     H14227   4.159  -1.568   4.189 -0.2116  1.0218  1.4488
  108MOL0     H14228   3.892  -1.527   4.041 -0.5460  1.4761  0.3388
  108MOL0     H14229   3.941  -1.678   4.133  1.2327  0.3512  1.7066
  108MOL0     H14230   3.761  -1.512   4.236 -0.6357  2.4173 -0.4412
  108MOL0     H14231   3.884  -1.394   4.262 -1.5726  0.7741  1.9245
  108MOL0     H14232   4.034  -1.599   4.376  0.9071  1.4551 -0.0715
  108MOL0     H14233   3.878  -1.669   4.397  0.6705 -0.0563  1.2666
  108MOL0     H14234   3.789  -1.476   4.511 -1.3477 -4.9728 -2.0499
  108MOL0     H14235   3.924  -1.549   4.594  0.7756  0.0497  0.5008
  108MOL0     H14236   3.959  -1.286   4.450  2.0229  0.1216  0.2437
  108MOL0     H14237   4.079  -1.401   4.496  1.5615  3.6669 -0.4894
  108MOL0     H14238   4.384  -1.149   4.064 -0.9005 -0.8714  1.5709
  108MOL0     H14239   4.593  -1.047   4.071  0.7493 -0.4197 -0.7199
  108MOL0     H14240   4.967  -0.994   4.186  0.3058  0.3481  0.7553
  108MOL0     H14241   5.156  -0.875   4.261 -3.3814  0.8700 -1.1684
  108MOL0     H14242   6.639   0.054   4.722 -0.1984 -1.7538 -2.0980
  108MOL0     H14243   6.865  -0.028   4.660 -2.0438 -1.4789 -1.7615
  108MOL0     H14244   7.243   0.028   4.613 -1.2798 -0.8913 -1.6205
  108MOL0     H14245   7.476  -0.020   4.629 -0.9270 -1.8612 -0.6776
  108MOL0     H14246   7.752   0.086   4.264  1.3362  0.7384  1.0753
  108MOL0     H14247   7.703  -0.098   4.260  1.0974 -0.6712  1.4118
  108MOL0     H14248   7.874  -0.166   4.405  0.3150 -1.4647 -1.7074
  108MOL0     H14249   7.943  -0.112   4.266  0.9131 -0.8507  1.5137
  108MOL0     H14250   8.064  -0.027   4.455  1.0005 -0.9468 -1.7098
  108MOL0     H14251   7.940   0.084   4.492  2.2017 -1.6915  2.5493
  108MOL0     H14252   8.083   0.065   4.221  1.6911  0.2554  1.5664
  108MOL0     H14253   7.951   0.188   4.251 -0.2355  1.0415  0.9968
  108MOL0     H14254   8.306   0.367   4.385  0.2361 -0.5064 -0.4733
  108MOL0     H14255   7.518   0.031   4.201  0.5890 -1.7320 -0.2814
  108MOL0     H14256   7.271   0.056   4.185  1.7790 -1.6239 -1.2186
  109MOL0     O14257   9.230   9.137   6.913  0.0708 -0.0629 -0.1654
  109MOL0     C14258   9.188   9.106   7.021  1.1168 -0.2007 -0.2148
  109MOL0     O14259   9.254   9.030   7.113  0.1776  0.2398 -0.1880
  109MOL0     C14260   9.384   8.993   7.095  0.5085  0.1476  0.0930
  109MOL0     C14261   9.424   8.875   7.157  1.1198 -0.2649 -0.0368
  109MOL0     C14262   9.554   8.825   7.161 -0.9984  0.1923  0.5779
  109MOL0     C14263   9.657   8.877   7.083 -0.4166 -0.2906 -0.2674
  109MOL0     O14264   9.784   8.826   7.093 -0.0293  0.4523  0.8735
  109MOL0     C14265   9.881   8.875   7.012 -0.1205  0.0557 -0.5459
  109MOL0     C14266  10.005   8.786   7.039  0.0952  0.0193 -0.3117
  109MOL0     C14267   9.986   8.636   6.995  0.4507 -0.6974 -0.8082
  109MOL0     C14268   9.990   8.640   6.841  0.3844  0.5609 -0.6068
  109MOL0     C14269   9.988   8.501   6.785 -0.9358 -0.2389 -0.2519
  109MOL0     C14270   9.851   8.428   6.788 -0.6566 -0.5739 -0.7044
  109MOL0     C14271   9.867   8.277   6.773  0.2262 -0.0299  0.1732
  109MOL0     C14272   9.907   8.195   6.896  0.4110 -0.7025 -0.4520
  109MOL0     N14273   9.797   8.171   6.987  0.5665 -0.6913  0.3746
  109MOL0     C14274   9.719   8.262   7.050 -0.5037 -0.0092 -0.7831
  109MOL0     C14275   9.632   8.187   7.120 -0.2732  0.0073 -0.5591
  109MOL0     C14276   9.537   8.231   7.222 -0.2266  0.2106  0.3999
  109MOL0     C14277   9.388   8.208   7.210 -0.1951  0.5402 -0.1914
  109MOL0     C14278   9.304   8.294   7.300 -0.1725  0.1908  0.0188
  109MOL0     C14279   9.230   8.219   7.396  0.3258 -0.1239 -0.0378
  109MOL0     O14280   9.112   8.160   7.321 -0.1473  0.6958  0.0490
  109MOL0     C14281   9.011   8.254   7.295 -0.6704  0.1410  0.1040
  109MOL0     C14282   8.997   8.381   7.355 -0.7600  0.4648  0.5525
  109MOL0     C14283   8.876   8.453   7.345 -0.7514  0.1568  0.4124
  109MOL0     C14284   8.771   8.400   7.280  1.0072  0.1987 -0.1847
  109MOL0     C14285   8.642   8.470   7.250 -0.6011 -0.3262  1.1382
  109MOL0     O14286   8.545   8.394   7.203 -0.3141  0.2067 -0.6747
  109MOL0     C14287   8.417   8.428   7.216 -0.1186 -0.2464  0.4998
  109MOL0     C14288   8.351   8.526   7.135 -0.0829  0.2442 -0.2792
  109MOL0     C14289   8.219   8.553   7.157 -0.8805  0.0369 -0.0521
  109MOL0     C14290   8.142   8.467   7.245  0.0213  0.4817 -0.0737
  109MOL0     O14291   8.004   8.477   7.238  0.1319 -0.3611  0.0786
  109MOL0     C14292   7.924   8.452   7.350  1.0442 -0.1873 -0.5534
  109MOL0     C14293   7.782   8.434   7.311  0.6701  0.7700  0.8045
  109MOL0     C14294   7.700   8.390   7.429 -0.9396 -0.6540 -0.2451
  109MOL0     C14295   7.554   8.380   7.383 -0.1004 -0.3463 -0.4776
  109MOL0     C14296   7.464   8.362   7.508 -0.2571 -0.3599  0.0981
  109MOL0     C14297   7.315   8.381   7.466 -0.1832  0.2258  0.2516
  109MOL0     C14298   7.245   8.242   7.436 -0.2213  0.2275 -0.3941
  109MOL0     C14299   7.135   8.280   7.339  0.7064 -0.4437 -0.4828
  109MOL0    Cl14300   7.011   8.155   7.317  0.0599 -0.2626 -0.1545
  109MOL0     C14301   8.208   8.371   7.327  0.2062  0.6049  0.0489
  109MOL0     C14302   8.346   8.355   7.309 -0.6594 -0.0328 -0.0872
  109MOL0     O14303   8.636   8.590   7.264 -0.3768  0.0609  0.2013
  109MOL0     C14304   8.784   8.275   7.211  0.2360  0.3563 -0.4289
  109MOL0     C14305   8.895   8.201   7.229  0.2411  0.5046 -1.0397
  109MOL0     N14306   9.659   8.059   7.086 -0.2641  0.4184  0.0789
  109MOL0     N14307   9.759   8.046   7.011 -0.4571  0.0534 -0.3145
  109MOL0     C14308   9.621   8.990   7.018  0.1803 -0.6517 -0.2262
  109MOL0     C14309   9.492   9.049   7.010 -0.2362  0.5061  0.7466
  109MOL0     C14310   9.037   9.138   7.052 -0.5424 -0.0671  0.3202
  109MOL0     C14311   8.951   9.176   6.948  1.1574  0.5690  1.0166
  109MOL0     C14312   8.810   9.192   6.958  0.5542  0.5672 -0.3437
  109MOL0     C14313   8.758   9.179   7.086  0.2390  1.1069  0.1883
  109MOL0     O14314   8.627   9.203   7.106 -0.8724 -0.0505 -0.5189
  109MOL0     C14315   8.564   9.313   7.037  0.4419  0.1584  0.4008
  109MOL0     C14316   8.461   9.384   7.132  0.0379  0.4502  0.9149
  109MOL0     C14317   8.330   9.303   7.162  0.3418  0.2985  0.5057
  109MOL0     C14318   8.207   9.370   7.220 -0.0488  0.5168  0.5643
  109MOL0     C14319   8.242   9.435   7.346 -0.1547 -0.3080 -0.0137
  109MOL0     C14320   8.252   9.487   7.451  0.6439 -0.8912 -0.5197
  109MOL0     C14321   8.839   9.137   7.192 -0.5515  0.3137  1.0336
  109MOL0     C14322   8.977   9.116   7.170  0.7730  0.5242 -0.5450
  109MOL0     H14323   9.355   8.830   7.227  0.6721  0.8262  0.2547
  109MOL0     H14324   9.573   8.734   7.218 -0.0460  1.4847  2.4395
  109MOL0     H14325   9.917   8.976   7.037  2.8457 -0.6143 -1.6084
  109MOL0     H14326   9.852   8.879   6.907 -0.1607  2.4801 -0.4992
  109MOL0     H14327  10.031   8.794   7.145 -1.5867 -0.8703  0.1924
  109MOL0     H14328  10.094   8.823   6.986  1.7622 -1.6794  1.1500
  109MOL0     H14329   9.895   8.590   7.035  0.1034  0.7681  0.1736
  109MOL0     H14330  10.068   8.576   7.036  2.2939  0.8402 -2.0572
  109MOL0     H14331   9.904   8.692   6.798  0.1782 -0.1237 -1.0372
  109MOL0     H14332  10.083   8.688   6.810  2.4343 -2.6529  0.1419
  109MOL0     H14333  10.059   8.451   6.852 -1.4793  3.0569  3.1026
  109MOL0     H14334  10.030   8.488   6.684  0.1597 -2.7329  0.4310
  109MOL0     H14335   9.797   8.447   6.695 -0.7243 -0.9129 -0.7352
  109MOL0     H14336   9.796   8.463   6.876  0.7564  3.8248 -1.3343
  109MOL0     H14337   9.778   8.223   6.736  0.5296 -0.6504  0.3375
  109MOL0     H14338   9.934   8.266   6.687  0.6066  1.3794  0.2645
  109MOL0     H14339   9.989   8.255   6.936 -1.4399  2.4707 -1.0967
  109MOL0     H14340   9.954   8.115   6.837  0.2407 -0.1936 -1.3089
  109MOL0     H14341   9.734   8.368   7.066 -0.9835  0.0914 -0.9899
  109MOL0     H14342   9.552   8.338   7.241 -2.7948  0.3107  2.4305
  109MOL0     H14343   9.578   8.181   7.311 -0.4278  3.5015  2.5191
  109MOL0     H14344   9.357   8.104   7.228 -2.4808  0.8966 -1.6972
  109MOL0     H14345   9.372   8.220   7.103  0.0539 -0.7308 -0.3887
  109MOL0     H14346   9.370   8.362   7.355 -0.6047 -0.7610  1.7874
  109MOL0     H14347   9.238   8.359   7.241  0.1161  3.0905  2.6106
  109MOL0     H14348   9.197   8.283   7.479  2.3155  0.2067  0.5318
  109MOL0     H14349   9.284   8.140   7.449 -3.8126 -3.7505 -0.6411
  109MOL0     H14350   9.086   8.421   7.401  0.5042 -1.1120 -0.4418
  109MOL0     H14351   8.863   8.552   7.388 -3.2106  0.9129 -1.7949
  109MOL0     H14352   8.401   8.588   7.062 -0.0288 -1.2157 -1.5349
  109MOL0     H14353   8.171   8.620   7.085  0.6942  2.7338  1.2844
  109MOL0     H14354   7.930   8.545   7.406 -0.6031  0.2059 -0.9498
  109MOL0     H14355   7.951   8.364   7.409 -0.7716  0.5129  1.4568
  109MOL0     H14356   7.773   8.353   7.238 -1.0953 -1.7840  3.6319
  109MOL0     H14357   7.738   8.522   7.263 -1.8057  0.3114  2.0836
  109MOL0     H14358   7.716   8.452   7.517  2.3585 -2.5900  0.7208
  109MOL0     H14359   7.735   8.296   7.474 -1.9569  0.3787  2.9975
  109MOL0     H14360   7.518   8.469   7.330 -0.7582 -1.7667 -2.5575
  109MOL0     H14361   7.552   8.291   7.321  3.6298 -1.7123  1.0477
  109MOL0     H14362   7.495   8.427   7.590 -0.3615  1.5649 -1.3135
  109MOL0     H14363   7.470   8.267   7.561 -3.2350 -0.0980  1.0943
  109MOL0     H14364   7.298   8.460   7.393 -2.5790  0.6325  1.1697
  109MOL0     H14365   7.265   8.420   7.555  1.3707  0.1620  1.1987
  109MOL0     H14366   7.314   8.162   7.407 -0.8431 -1.0072  1.3840
  109MOL0     H14367   7.206   8.220   7.535  2.0777  1.4012  0.8695
  109MOL0     H14368   7.161   8.308   7.237  0.0750  1.9810 -0.0375
  109MOL0     H14369   7.092   8.368   7.389  4.0335  0.7385  0.5672
  109MOL0     H14370   8.169   8.299   7.399  1.4223  0.0594  0.1708
  109MOL0     H14371   8.401   8.289   7.375 -2.9401 -0.7907  1.1502
  109MOL0     H14372   8.703   8.222   7.162  0.4226  0.2521 -0.6311
  109MOL0     H14373   8.895   8.098   7.194 -0.3908  0.3310 -0.5356
  109MOL0     H14374   9.703   9.033   6.961 -1.6738  3.1290 -0.3534
  109MOL0     H14375   9.474   9.141   6.955 -1.3562  2.2477  3.7615
  109MOL0     H14376   8.983   9.174   6.844  0.9844  3.3887  0.8220
  109MOL0     H14377   8.760   9.215   6.865  4.3669  1.5848 -2.3539
  109MOL0     H14378   8.507   9.277   6.951 -0.7601 -1.1503  1.7009
  109MOL0     H14379   8.624   9.395   6.995  0.4779 -0.2736 -0.4073
  109MOL0     H14380   8.512   9.410   7.225  1.6234  0.0444  0.1961
  109MOL0     H14381   8.429   9.482   7.096 -0.1031  0.4666  1.0784
  109MOL0     H14382   8.356   9.221   7.230  0.6898  0.6868  0.8407
  109MOL0     H14383   8.300   9.250   7.071  3.1852 -0.4430 -0.0996
  109MOL0     H14384   8.159   9.435   7.146  1.4811  0.5373 -0.4546
  109MOL0     H14385   8.144   9.289   7.257 -1.9205  1.3808 -0.5986
  109MOL0     H14386   8.272   9.536   7.544 -1.2421 -0.5258 -0.2660
  109MOL0     H14387   8.797   9.122   7.291 -1.4199  1.7715  0.9158
  109MOL0     H14388   9.034   9.083   7.256  2.7368  0.1445 -1.9281
  110MOL0     O14389   9.556   6.616   6.336 -0.2169  0.5150 -0.0535
  110MOL0     C14390   9.607   6.586   6.446 -0.6470 -0.8159 -0.6269
  110MOL0     O14391   9.680   6.478   6.470  0.3243 -0.2538  0.1558
  110MOL0     C14392   9.634   6.359   6.415  0.7977 -0.8175 -0.2271
  110MOL0     C14393   9.515   6.304   6.457 -0.5925 -0.5608 -0.2708
  110MOL0     C14394   9.483   6.179   6.404 -0.8711 -0.1654 -0.1454
  110MOL0     C14395   9.572   6.110   6.317  0.0109  0.6213  0.2812
  110MOL0     O14396   9.542   5.993   6.261  0.0538  0.3398  0.5509
  110MOL0     C14397   9.419   5.922   6.277  0.1644 -0.0794 -0.1250
  110MOL0     C14398   9.416   5.798   6.184  0.3549 -0.7134 -0.6682
  110MOL0     C14399   9.495   5.687   6.258 -0.3704  0.1850 -0.1710
  110MOL0     C14400   9.527   5.574   6.164  0.2436  0.6165  1.1661
  110MOL0     C14401   9.643   5.478   6.217 -0.9992  0.4302  0.3412
  110MOL0     C14402   9.676   5.384   6.102 -0.5059 -0.4609 -0.4802
  110MOL0     C14403   9.757   5.277   6.166 -0.1683  1.0824 -0.1722
  110MOL0     C14404   9.871   5.218   6.068  0.4456 -0.0220 -1.0915
  110MOL0     N14405   9.979   5.322   6.035  0.4648 -0.5366 -0.6967
  110MOL0     C14406  10.008   5.423   6.117  0.0771 -0.1990  0.3859
  110MOL0     C14407  10.086   5.502   6.042  0.4492 -0.2945 -0.9381
  110MOL0     C14408  10.143   5.632   6.084  0.0125  0.0413 -0.8044
  110MOL0     C14409  10.287   5.623   6.107  0.0714 -0.7647 -0.5406
  110MOL0     C14410  10.332   5.735   6.189  0.5122 -0.1668  0.3959
  110MOL0     C14411  10.478   5.766   6.166 -1.2321 -0.4642 -0.1054
  110MOL0     O14412  10.527   5.858   6.266 -0.2460 -0.0522 -0.1775
  110MOL0     C14413  10.657   5.874   6.292 -0.2821 -0.2034 -0.5172
  110MOL0     C14414  10.701   5.919   6.415  0.1969 -0.1596  1.2248
  110MOL0     C14415  10.831   5.920   6.446 -0.0195 -0.3066  0.7334
  110MOL0     C14416  10.934   5.885   6.352 -0.1970 -0.0428  0.0453
  110MOL0     C14417  11.082   5.867   6.390  0.2213 -0.4381  1.1668
  110MOL0     O14418  11.125   5.893   6.517 -0.2914  0.6414 -0.4725
  110MOL0     C14419  11.262   5.879   6.544 -0.9816 -0.7168  0.0067
  110MOL0     C14420  11.313   5.776   6.620 -0.3860  0.4816 -0.0617
  110MOL0     C14421  11.446   5.772   6.660 -0.7035 -0.0098  0.0260
  110MOL0     C14422  11.533   5.875   6.619  0.0055 -0.2480  0.3422
  110MOL0     O14423  11.670   5.863   6.653  0.2623 -0.9538 -0.0980
  110MOL0     C14424  11.764   5.898   6.553  1.0393  0.5082  0.4000
  110MOL0     C14425  11.873   5.789   6.562 -0.0730  0.6276 -0.5583
  110MOL0     C14426  11.984   5.803   6.459  0.2731  0.5925 -0.4581
  110MOL0     C14427  12.097   5.695   6.491 -1.8121  0.0503 -0.0423
  110MOL0     C14428  12.061   5.562   6.433 -0.0279 -0.1217  0.8574
  110MOL0     C14429  12.184   5.469   6.429 -0.0728  0.1945  0.4456
  110MOL0     C14430  12.147   5.352   6.339 -0.1817  1.0396  1.1353
  110MOL0     C14431  12.151   5.372   6.183  0.3924 -0.4816 -0.6188
  110MOL0    Cl14432  12.308   5.421   6.124 -0.2343  0.4955  0.4843
  110MOL0     C14433  11.483   5.985   6.540  0.4947  1.2108  0.0811
  110MOL0     C14434  11.342   5.984   6.509  1.1956 -0.4864  1.0493
  110MOL0     O14435  11.162   5.817   6.306 -0.0491 -0.2827 -0.7802
  110MOL0     C14436  10.891   5.862   6.217 -1.1139 -0.1693  0.0155
  110MOL0     C14437  10.755   5.855   6.195  0.2555  0.2087  0.1343
  110MOL0     N14438  10.105   5.450   5.914  0.4982 -0.1843  0.2360
  110MOL0     N14439  10.031   5.344   5.906 -0.1647  1.1224  0.2556
  110MOL0     C14440   9.699   6.163   6.294  0.2444  0.5783  0.2738
  110MOL0     C14441   9.727   6.290   6.344  0.3362  0.0764  0.3094
  110MOL0     C14442   9.613   6.693   6.558 -0.3599 -0.2196 -0.6953
  110MOL0     C14443   9.669   6.663   6.680 -0.4780  0.1338 -0.6826
  110MOL0     C14444   9.673   6.746   6.789 -1.2344 -0.7322 -0.0585
  110MOL0     C14445   9.604   6.874   6.777  0.6618  0.2457  0.5509
  110MOL0     O14446   9.598   6.972   6.872  0.0585 -0.5814 -0.4012
  110MOL0     C14447   9.615   6.935   7.012  0.0644  0.0471  0.4041
  110MOL0     C14448   9.751   6.955   7.058 -0.3175  0.0943 -0.3096
  110MOL0     C14449   9.823   7.094   7.039  0.7479  0.4704 -0.4130
  110MOL0     C14450   9.978   7.086   7.063  0.2487 -0.4674  0.5057
  110MOL0     C14451  10.049   7.208   7.077 -0.0875  0.1122 -0.1889
  110MOL0     C14452  10.132   7.294   7.086  0.5317  0.4292  0.0479
  110MOL0     C14453   9.552   6.917   6.651  0.2440  0.6208  0.2436
  110MOL0     C14454   9.563   6.822   6.543 -0.8272 -0.2640  0.6797
  110MOL0     H14455   9.447   6.361   6.519 -0.2987  0.0005 -0.4624
  110MOL0     H14456   9.391   6.136   6.443 -0.3793  1.5371  3.2847
  110MOL0     H14457   9.338   5.991   6.251  1.6745  1.7532 -0.1713
  110MOL0     H14458   9.404   5.889   6.381  1.5592 -0.4388 -0.0253
  110MOL0     H14459   9.463   5.823   6.089 -3.2177  0.3266 -2.3550
  110MOL0     H14460   9.309   5.776   6.183  0.2955 -0.5184  0.2949
  110MOL0     H14461   9.437   5.657   6.345 -1.9300  1.3502 -0.7538
  110MOL0     H14462   9.586   5.738   6.291 -0.3149  1.3009 -1.9151
  110MOL0     H14463   9.435   5.516   6.155  0.2826  0.5532  1.1757
  110MOL0     H14464   9.560   5.608   6.065 -4.6507 -0.1575 -1.0112
  110MOL0     H14465   9.598   5.420   6.298  0.3638  0.9469  1.5185
  110MOL0     H14466   9.735   5.533   6.239 -1.3557  0.6435  1.3412
  110MOL0     H14467   9.734   5.438   6.027 -1.5084  0.9814 -0.2483
  110MOL0     H14468   9.586   5.348   6.050 -2.3908  2.1687  0.7749
  110MOL0     H14469   9.795   5.305   6.265 -0.3488 -3.1740  1.3146
  110MOL0     H14470   9.691   5.192   6.186 -0.4333  1.4640  0.6435
  110MOL0     H14471   9.818   5.185   5.978 -0.4013  0.9054 -0.9486
  110MOL0     H14472   9.918   5.133   6.119  2.2731 -0.2926 -3.0623
  110MOL0     H14473   9.983   5.440   6.221  0.8033  0.0129  0.5338
  110MOL0     H14474  10.088   5.662   6.173  1.4897  0.5261 -0.0261
  110MOL0     H14475  10.106   5.712   6.019  0.4576  0.8496 -0.0808
  110MOL0     H14476  10.347   5.615   6.016  0.8441 -1.2241  0.0016
  110MOL0     H14477  10.312   5.533   6.164  0.7183  0.3333  0.9787
  110MOL0     H14478  10.280   5.828   6.163  1.2703 -0.2244 -1.4481
  110MOL0     H14479  10.315   5.709   6.294  1.6965 -3.0570 -0.0379
  110MOL0     H14480  10.491   5.804   6.064 -1.7078 -1.5494 -0.5911
  110MOL0     H14481  10.524   5.667   6.175  1.5359  0.6978 -0.5331
  110MOL0     H14482  10.628   5.926   6.495  1.8066 -0.6036  2.8069
  110MOL0     H14483  10.866   5.947   6.545  3.3849 -0.1994 -0.3698
  110MOL0     H14484  11.254   5.689   6.649 -1.0387  0.9338 -0.0080
  110MOL0     H14485  11.481   5.686   6.716  0.7569 -1.8153 -3.3817
  110MOL0     H14486  11.801   5.998   6.579 -0.1420  0.7410  1.2129
  110MOL0     H14487  11.726   5.904   6.450  0.4479 -0.1071  0.5742
  110MOL0     H14488  11.832   5.688   6.569 -1.0829  1.1757  2.8449
  110MOL0     H14489  11.914   5.806   6.661 -2.1149 -0.3219  0.5095
  110MOL0     H14490  12.008   5.910   6.462  1.2732  0.3692  0.0266
  110MOL0     H14491  11.942   5.776   6.362 -0.0398 -0.1742 -0.1129
  110MOL0     H14492  12.183   5.737   6.438 -2.5277  1.4710 -0.1444
  110MOL0     H14493  12.109   5.678   6.599 -0.5297 -2.6008 -0.5253
  110MOL0     H14494  12.015   5.568   6.334  1.6304  1.5851  0.1224
  110MOL0     H14495  11.981   5.523   6.497  0.2549 -0.5469  0.9550
  110MOL0     H14496  12.215   5.436   6.528 -1.3714 -3.3537 -0.1731
  110MOL0     H14497  12.260   5.527   6.377 -0.4258  0.5544  0.3253
  110MOL0     H14498  12.204   5.261   6.363 -1.3682 -0.0558 -0.0115
  110MOL0     H14499  12.047   5.318   6.367 -2.3679  1.3776 -4.8547
  110MOL0     H14500  12.076   5.441   6.145 -0.9585 -1.4993  0.0905
  110MOL0     H14501  12.117   5.280   6.134 -0.6859 -1.1542  1.2697
  110MOL0     H14502  11.550   6.061   6.505 -1.0354  4.0090  2.7054
  110MOL0     H14503  11.310   6.065   6.443  2.3173 -0.6575  0.2600
  110MOL0     H14504  10.966   5.864   6.139 -0.3840  4.2018  0.5707
  110MOL0     H14505  10.725   5.833   6.093  1.1279 -0.7196  0.0696
  110MOL0     H14506   9.763   6.095   6.239  0.3519  1.0694 -0.2105
  110MOL0     H14507   9.823   6.334   6.319  0.4576 -0.1868  0.3148
  110MOL0     H14508   9.734   6.576   6.690  1.5489  1.7077  0.5034
  110MOL0     H14509   9.723   6.705   6.876 -0.8310 -0.1312  0.0033
  110MOL0     H14510   9.593   6.829   7.023  1.1416 -0.1244  1.0445
  110MOL0     H14511   9.539   6.987   7.072 -1.0658 -0.7821 -0.2674
  110MOL0     H14512   9.757   6.937   7.165 -1.0956 -0.5841 -0.3705
  110MOL0     H14513   9.817   6.880   7.012  0.9645  1.0913 -0.1362
  110MOL0     H14514   9.772   7.157   7.113 -1.4221 -0.5757 -0.9406
  110MOL0     H14515   9.788   7.137   6.944 -2.4264 -0.0688  0.3980
  110MOL0     H14516  10.013   7.017   7.141  3.1471 -0.7833 -0.9572
  110MOL0     H14517  10.021   7.028   6.982  1.4521 -0.1664  0.9116
  110MOL0     H14518  10.215   7.362   7.084  2.1509 -1.4517  0.2094
  110MOL0     H14519   9.508   7.015   6.636  0.7482  0.9038  0.5756
  110MOL0     H14520   9.534   6.844   6.441  1.0015 -0.5063  0.0730
  111MOL0     O14521   6.060   8.768   6.235  0.0739 -0.3464 -0.1281
  111MOL0     C14522   6.081   8.664   6.304 -0.3943 -0.8826 -0.7234
  111MOL0     O14523   6.016   8.541   6.305 -0.9065 -0.1190 -0.0335
  111MOL0     C14524   5.898   8.567   6.239  0.5203 -0.2556 -0.0277
  111MOL0     C14525   5.799   8.638   6.316 -0.0111 -0.9204 -0.0858
  111MOL0     C14526   5.669   8.662   6.263  0.3610 -0.1222 -0.5633
  111MOL0     C14527   5.648   8.636   6.131  0.9393 -0.6298 -0.1786
  111MOL0     O14528   5.520   8.665   6.085  0.4016  0.3398 -0.0823
  111MOL0     C14529   5.506   8.663   5.937 -0.2101 -0.7493 -0.5487
  111MOL0     C14530   5.352   8.687   5.910  0.7729  0.6521  0.4901
  111MOL0     C14531   5.331   8.701   5.755  0.9578 -0.8956  0.0905
  111MOL0     C14532   5.380   8.572   5.679 -0.6572 -0.3980 -0.3793
  111MOL0     C14533   5.314   8.544   5.551 -0.0102 -0.1381 -0.1841
  111MOL0     C14534   5.174   8.489   5.571 -0.0237  0.3450  0.2509
  111MOL0     C14535   5.109   8.489   5.437 -0.3464  0.1265  0.3009
  111MOL0     C14536   4.964   8.450   5.451 -0.3079 -0.1572  0.5921
  111MOL0     N14537   4.887   8.432   5.329 -0.7187 -0.4121 -0.3074
  111MOL0     C14538   4.937   8.376   5.216  0.4507  0.2227 -0.1095
  111MOL0     C14539   4.858   8.413   5.115  0.2094  0.5594  0.0004
  111MOL0     C14540   4.870   8.395   4.963 -0.5012 -1.0276 -0.7597
  111MOL0     C14541   5.010   8.429   4.914  0.0097 -0.5635 -0.6877
  111MOL0     C14542   5.029   8.581   4.900  0.1910 -0.0224 -0.4381
  111MOL0     C14543   5.089   8.643   5.026 -0.2070  0.3696  0.6390
  111MOL0     O14544   5.225   8.601   5.039 -0.0325  0.0460  0.2311
  111MOL0     C14545   5.305   8.666   5.123  0.4426  0.4138 -0.5594
  111MOL0     C14546   5.442   8.641   5.118  0.2026 -0.0992  0.2465
  111MOL0     C14547   5.535   8.716   5.197 -0.0714  1.2211 -0.1432
  111MOL0     C14548   5.486   8.805   5.291 -0.2721  0.4588 -0.5826
  111MOL0     C14549   5.579   8.865   5.380 -0.3204 -0.0426 -0.7361
  111MOL0     O14550   5.538   8.880   5.511 -0.4837  0.5883  0.0413
  111MOL0     C14551   5.635   8.926   5.596 -0.2962 -0.6596  0.0299
  111MOL0     C14552   5.728   8.826   5.644 -0.9893  0.4923  0.1609
  111MOL0     C14553   5.804   8.860   5.762 -0.1523  0.8503  0.9421
  111MOL0     C14554   5.801   8.990   5.811  0.3810 -0.0186 -0.3518
  111MOL0     O14555   5.873   9.001   5.923 -0.6246 -0.1202 -0.0224
  111MOL0     C14556   5.798   9.049   6.044 -0.1220  0.4374  1.0526
  111MOL0     C14557   5.899   9.080   6.154 -0.2832  0.0307  0.3455
  111MOL0     C14558   6.012   9.168   6.109  0.4415 -0.4166  1.1280
  111MOL0     C14559   6.131   9.158   6.211  0.9151  1.0111  0.0650
  111MOL0     C14560   6.242   9.249   6.186 -0.7709  0.8580  0.5651
  111MOL0     C14561   6.375   9.182   6.226  0.4234  0.0981 -0.3000
  111MOL0     C14562   6.386   9.176   6.372 -0.4177  0.2357 -0.1747
  111MOL0     C14563   6.533   9.152   6.402 -0.1277  0.5064  0.4267
  111MOL0    Cl14564   6.668   9.266   6.351 -0.0179  0.1428  0.1786
  111MOL0     C14565   5.726   9.090   5.739 -0.4887  0.0682 -0.6519
  111MOL0     C14566   5.646   9.055   5.627 -1.3887  0.2249  0.8212
  111MOL0     O14567   5.693   8.889   5.334 -0.8328  0.8698 -0.0061
  111MOL0     C14568   5.348   8.824   5.299  0.5453 -0.6827 -0.3573
  111MOL0     C14569   5.256   8.756   5.217  0.5860 -0.7217 -0.8669
  111MOL0     N14570   4.752   8.472   5.173 -0.1945 -0.6545 -0.2433
  111MOL0     N14571   4.767   8.488   5.298 -0.0183  0.4940 -0.2244
  111MOL0     C14572   5.753   8.573   6.051  0.3488 -0.9709  0.0464
  111MOL0     C14573   5.874   8.534   6.102 -0.5598  0.6820  0.1555
  111MOL0     C14574   6.187   8.674   6.410 -0.3823  0.3455  1.0872
  111MOL0     C14575   6.244   8.565   6.478  0.4183 -0.4572  0.8498
  111MOL0     C14576   6.346   8.585   6.572  0.6398 -1.2728  0.8316
  111MOL0     C14577   6.410   8.710   6.592  1.0781  0.0419 -0.3692
  111MOL0     O14578   6.502   8.747   6.686  0.4635 -0.3044  0.1436
  111MOL0     C14579   6.564   8.651   6.769 -0.0050 -0.1131 -0.5689
  111MOL0     C14580   6.717   8.652   6.743 -0.1916  0.4023  0.1665
  111MOL0     C14581   6.786   8.777   6.792  0.6257  0.0203 -0.3173
  111MOL0     C14582   6.933   8.762   6.799  0.3748 -0.3932  0.3397
  111MOL0     C14583   6.998   8.887   6.825 -0.4901  0.0064 -0.5364
  111MOL0     C14584   7.029   9.006   6.832  0.3750  0.2580  0.5713
  111MOL0     C14585   6.356   8.825   6.524  0.9349  0.5479  0.7670
  111MOL0     C14586   6.246   8.806   6.437 -0.2655  1.1345  0.5631
  111MOL0     H14587   5.814   8.656   6.422 -1.4710  1.6146 -0.2156
  111MOL0     H14588   5.591   8.697   6.330  2.2501  2.4572  0.4831
  111MOL0     H14589   5.538   8.567   5.896 -0.3902 -1.3891  0.7729
  111MOL0     H14590   5.559   8.748   5.893 -1.1121 -0.5385 -1.2605
  111MOL0     H14591   5.315   8.783   5.948  0.4843  2.4409 -3.7779
  111MOL0     H14592   5.312   8.601   5.964  3.9328 -1.6632 -0.5609
  111MOL0     H14593   5.371   8.793   5.713  0.0262  0.0536  1.1996
  111MOL0     H14594   5.223   8.719   5.759  1.3152  1.9149 -0.5264
  111MOL0     H14595   5.489   8.578   5.673 -0.6080 -1.1677 -0.3316
  111MOL0     H14596   5.349   8.490   5.744  3.2569 -0.3363  1.8708
  111MOL0     H14597   5.387   8.475   5.507  2.1557  0.5340  2.0737
  111MOL0     H14598   5.303   8.628   5.482 -1.7212 -1.4572 -1.6127
  111MOL0     H14599   5.113   8.551   5.638 -0.7624  0.1628 -0.2367
  111MOL0     H14600   5.189   8.388   5.612 -2.7370 -1.1880 -2.1516
  111MOL0     H14601   5.116   8.587   5.389 -0.9748 -0.7955 -1.7946
  111MOL0     H14602   5.165   8.423   5.370  0.0386  1.9521 -1.2678
  111MOL0     H14603   4.904   8.533   5.491  1.2878  1.9267 -1.0346
  111MOL0     H14604   4.948   8.354   5.501  1.7073 -2.6438 -3.0680
  111MOL0     H14605   5.028   8.318   5.204  0.7743  0.8961 -1.0291
  111MOL0     H14606   4.783   8.442   4.916 -0.9988  1.5543  2.3867
  111MOL0     H14607   4.870   8.289   4.935 -0.2044 -0.4350 -3.1718
  111MOL0     H14608   5.013   8.395   4.810 -0.9621  0.0191 -0.9165
  111MOL0     H14609   5.086   8.384   4.979 -0.0113 -1.1379 -1.0509
  111MOL0     H14610   5.094   8.587   4.812  1.8110 -3.9898  0.2529
  111MOL0     H14611   4.935   8.629   4.874  0.1926  0.3622  0.2477
  111MOL0     H14612   5.032   8.626   5.118  0.0122 -0.0459  0.7009
  111MOL0     H14613   5.091   8.752   5.013 -0.5738  0.2942 -0.0770
  111MOL0     H14614   5.475   8.564   5.049  0.0340  0.6947 -0.7448
  111MOL0     H14615   5.639   8.690   5.185 -0.9505 -2.2886 -1.2005
  111MOL0     H14616   5.708   8.728   5.602  0.2389  1.1616 -2.1868
  111MOL0     H14617   5.866   8.786   5.812 -2.2819 -2.0800 -0.3897
  111MOL0     H14618   5.729   8.968   6.068  0.4289 -0.3030  0.1968
  111MOL0     H14619   5.742   9.141   6.021 -2.3611 -1.0338  0.2737
  111MOL0     H14620   5.933   8.987   6.199  0.2631  0.9746  1.9672
  111MOL0     H14621   5.832   9.127   6.227 -1.2593  0.8387 -1.0127
  111MOL0     H14622   5.967   9.268   6.101 -1.2621 -1.2539 -1.0120
  111MOL0     H14623   6.042   9.144   6.007 -1.0666  1.2800  0.2349
  111MOL0     H14624   6.095   9.171   6.313  0.1444  2.6382 -0.3685
  111MOL0     H14625   6.162   9.054   6.209 -0.3220  0.5682  1.6847
  111MOL0     H14626   6.226   9.340   6.245  0.6904  0.2991  1.9021
  111MOL0     H14627   6.247   9.265   6.078 -0.4045  0.9142  0.5892
  111MOL0     H14628   6.453   9.247   6.185 -1.2433  2.6087  0.3122
  111MOL0     H14629   6.376   9.080   6.187 -0.0391  0.3322 -0.9492
  111MOL0     H14630   6.336   9.260   6.423 -1.6282 -0.2042 -0.6086
  111MOL0     H14631   6.333   9.085   6.402  1.9981 -0.8498  1.1160
  111MOL0     H14632   6.555   9.050   6.371  3.1295  0.9807  0.7564
  111MOL0     H14633   6.540   9.148   6.512  0.1160 -0.1581  0.3893
  111MOL0     H14634   5.733   9.193   5.773 -0.5746  0.3272 -1.4001
  111MOL0     H14635   5.582   9.131   5.583 -0.5879  1.3340  1.5039
  111MOL0     H14636   5.307   8.908   5.354 -1.6193 -1.1401 -1.1474
  111MOL0     H14637   5.154   8.790   5.231  0.9971  0.3541 -0.3871
  111MOL0     H14638   5.737   8.553   5.945  0.2296  2.0754 -0.5984
  111MOL0     H14639   5.940   8.476   6.038 -1.8787 -1.6509  0.7597
  111MOL0     H14640   6.201   8.466   6.470 -0.6197  0.0866 -0.5752
  111MOL0     H14641   6.367   8.507   6.644 -0.6956 -0.3964  2.2268
  111MOL0     H14642   6.515   8.553   6.772 -0.7271  0.2651  1.3818
  111MOL0     H14643   6.539   8.680   6.871 -0.8689  2.1124 -1.3394
  111MOL0     H14644   6.753   8.561   6.791 -1.4025 -0.9793 -1.4691
  111MOL0     H14645   6.734   8.630   6.638  3.0383  0.4390  0.5603
  111MOL0     H14646   6.747   8.799   6.891 -2.0799  2.2995 -1.7438
  111MOL0     H14647   6.753   8.864   6.734  2.9471  0.5869 -0.8560
  111MOL0     H14648   6.951   8.690   6.879  2.0465  0.6539  0.9673
  111MOL0     H14649   6.970   8.714   6.707 -1.5320  0.6912 -1.0510
  111MOL0     H14650   7.070   9.103   6.848  0.3876 -0.0457  2.7552
  111MOL0     H14651   6.392   8.927   6.529 -3.0894  2.2420 -0.8082
  111MOL0     H14652   6.210   8.894   6.385  3.2755  2.5308  0.1604
  112MOL0     O14653   8.555   4.159   1.236  0.1297 -0.1306 -0.5905
  112MOL0     C14654   8.572   4.038   1.224  0.1588 -0.4913  1.1775
  112MOL0     O14655   8.479   3.945   1.236  0.0359 -0.3889  0.3960
  112MOL0     C14656   8.346   3.975   1.243 -0.7403  0.7090 -0.2916
  112MOL0     C14657   8.260   3.864   1.242  0.2443 -0.1265 -0.1182
  112MOL0     C14658   8.124   3.873   1.264  0.2517 -0.2165  0.6486
  112MOL0     C14659   8.073   3.994   1.300  0.5170 -0.2886  0.4766
  112MOL0     O14660   7.939   4.002   1.322 -0.3563 -0.1820  0.9127
  112MOL0     C14661   7.870   4.115   1.377  0.2377 -1.0901  0.2299
  112MOL0     C14662   7.740   4.135   1.296 -1.1287  0.0216  0.1005
  112MOL0     C14663   7.651   4.249   1.353 -0.6120 -0.1619 -0.5625
  112MOL0     C14664   7.542   4.295   1.270  0.6030  1.1858  0.7659
  112MOL0     C14665   7.437   4.187   1.238 -0.1476 -0.3022  0.4276
  112MOL0     C14666   7.358   4.164   1.367  0.2926 -0.1134  0.1675
  112MOL0     C14667   7.254   4.051   1.360  0.3685  0.1636  0.0960
  112MOL0     C14668   7.183   4.008   1.492  0.5785  0.0162  0.4753
  112MOL0     N14669   7.057   4.078   1.508 -0.5204  0.4304  0.5045
  112MOL0     C14670   6.940   4.017   1.485 -0.1747 -0.3569  0.3034
  112MOL0     C14671   6.845   4.101   1.545 -0.0408 -0.5801 -0.4329
  112MOL0     C14672   6.693   4.080   1.554 -0.2335 -1.4621  0.3487
  112MOL0     C14673   6.628   4.129   1.428 -0.5276  1.3008 -0.4803
  112MOL0     C14674   6.479   4.100   1.443 -0.0828 -0.1408  0.0496
  112MOL0     C14675   6.401   4.145   1.313  0.4957 -0.3387  0.3770
  112MOL0     O14676   6.275   4.079   1.300 -0.6043 -0.2240  0.1442
  112MOL0     C14677   6.163   4.153   1.292  0.1249  0.1857 -0.5975
  112MOL0     C14678   6.076   4.142   1.179 -0.5819  0.0654  0.1027
  112MOL0     C14679   5.968   4.227   1.162 -0.2539  0.4453 -0.6354
  112MOL0     C14680   5.936   4.323   1.265  0.0624 -0.3649  0.0872
  112MOL0     C14681   5.816   4.401   1.255 -0.3207  1.0508 -0.6918
  112MOL0     O14682   5.780   4.464   1.370  0.1055 -0.2351 -0.3399
  112MOL0     C14683   5.670   4.550   1.380 -0.5525  0.8114  1.3055
  112MOL0     C14684   5.680   4.652   1.480  0.6472 -0.7925  0.2836
  112MOL0     C14685   5.569   4.732   1.507  0.3364 -0.8951 -0.2642
  112MOL0     C14686   5.450   4.712   1.435 -0.2457  0.7216  0.4277
  112MOL0     O14687   5.337   4.790   1.465 -0.3766 -0.6664 -0.3927
  112MOL0     C14688   5.322   4.887   1.354  0.6219  0.3928 -0.0444
  112MOL0     C14689   5.177   4.895   1.325  0.1890  0.2976 -0.0990
  112MOL0     C14690   5.136   4.965   1.202  0.5587  0.0107  0.8800
  112MOL0     C14691   5.188   4.892   1.067  0.8547 -0.1421  0.6511
  112MOL0     C14692   5.129   4.946   0.931  0.4761 -0.1090  0.1709
  112MOL0     C14693   5.189   4.887   0.807 -0.2109  0.2825 -0.0016
  112MOL0     C14694   5.153   4.961   0.687  0.4201 -0.6352  1.2824
  112MOL0     C14695   5.274   4.984   0.590  0.0085 -0.4927 -0.0511
  112MOL0    Cl14696   5.200   5.046   0.442 -0.3548  0.3669 -0.2598
  112MOL0     C14697   5.440   4.609   1.343  0.0177  0.1889  0.1624
  112MOL0     C14698   5.547   4.530   1.315 -0.3690  0.1907 -0.1916
  112MOL0     O14699   5.754   4.399   1.146  0.2869  0.1347 -0.4444
  112MOL0     C14700   6.019   4.331   1.380  0.1550 -1.0905  0.2774
  112MOL0     C14701   6.135   4.246   1.386 -0.2499 -0.0350 -0.6993
  112MOL0     N14702   6.913   4.216   1.586  0.5212 -0.7434  0.4846
  112MOL0     N14703   7.038   4.207   1.559  0.1750  0.3541  0.1191
  112MOL0     C14704   8.147   4.107   1.304 -0.3977  0.4714  0.0212
  112MOL0     C14705   8.288   4.105   1.272  0.2470  0.0255  0.1397
  112MOL0     C14706   8.711   3.994   1.186 -1.1070  0.2739  0.3746
  112MOL0     C14707   8.817   4.084   1.168  0.5596 -0.0898  0.4111
  112MOL0     C14708   8.939   4.041   1.126 -0.7505 -0.3863  0.8600
  112MOL0     C14709   8.969   3.897   1.127  0.3419  0.6502 -0.3708
  112MOL0     O14710   9.087   3.840   1.103 -0.1094  1.0839  0.7086
  112MOL0     C14711   9.198   3.927   1.097 -0.2030 -0.0571  0.0821
  112MOL0     C14712   9.328   3.855   1.088 -0.5796  0.5029  0.6674
  112MOL0     C14713   9.368   3.783   1.214  0.4294 -0.4633 -0.1713
  112MOL0     C14714   9.502   3.704   1.180  0.1434 -1.2701 -0.8080
  112MOL0     C14715   9.542   3.629   1.299  0.6196 -0.3225 -0.2171
  112MOL0     C14716   9.577   3.570   1.398 -0.7041  0.3334 -0.7034
  112MOL0     C14717   8.859   3.809   1.146  0.3742 -0.0404 -0.3580
  112MOL0     C14718   8.739   3.860   1.175 -0.1040 -0.7734  0.3552
  112MOL0     H14719   8.303   3.764   1.232  2.7762  0.7388  1.2890
  112MOL0     H14720   8.061   3.784   1.267 -1.7899  1.1770  2.5366
  112MOL0     H14721   7.918   4.210   1.353 -4.0576  0.6362 -2.6069
  112MOL0     H14722   7.834   4.109   1.480 -2.6233  3.3188 -0.2475
  112MOL0     H14723   7.682   4.044   1.280  1.6566 -1.6523 -1.3596
  112MOL0     H14724   7.776   4.156   1.194 -3.9371 -1.6650 -1.3551
  112MOL0     H14725   7.721   4.333   1.365  1.3177 -1.8905  1.2697
  112MOL0     H14726   7.631   4.203   1.450  1.9525  1.4732  0.8637
  112MOL0     H14727   7.493   4.388   1.302  0.2741  2.1163 -2.1374
  112MOL0     H14728   7.587   4.312   1.172  1.4452 -1.7064  0.5506
  112MOL0     H14729   7.487   4.095   1.207 -0.3539 -0.4484  0.5265
  112MOL0     H14730   7.365   4.218   1.161 -1.6962 -1.8129  1.1996
  112MOL0     H14731   7.308   4.256   1.399  0.5398 -0.7562  2.6842
  112MOL0     H14732   7.420   4.148   1.456 -2.0337 -1.6858  1.6203
  112MOL0     H14733   7.186   4.086   1.282  0.5249  0.6333  0.1652
  112MOL0     H14734   7.310   3.967   1.317  1.8060  0.9608  0.3501
  112MOL0     H14735   7.244   4.030   1.581 -1.9580  1.0368  2.0622
  112MOL0     H14736   7.160   3.902   1.489  0.3901  0.0111  1.6202
  112MOL0     H14737   6.923   3.919   1.441  0.7146 -0.4552  0.1455
  112MOL0     H14738   6.637   4.131   1.633 -2.4620 -1.7275 -0.9570
  112MOL0     H14739   6.680   3.971   1.564 -0.6621 -1.2888  2.2028
  112MOL0     H14740   6.677   4.082   1.343  1.1247  1.7280  0.2017
  112MOL0     H14741   6.643   4.237   1.431  0.7041  1.1213  0.5010
  112MOL0     H14742   6.464   4.000   1.485  0.0512  0.2604  1.0748
  112MOL0     H14743   6.442   4.167   1.521 -0.2269  0.4551 -0.5268
  112MOL0     H14744   6.446   4.110   1.219 -2.1373 -0.3440 -0.9809
  112MOL0     H14745   6.396   4.254   1.311  1.9636 -0.2285  1.1661
  112MOL0     H14746   6.098   4.068   1.103  0.5632  2.7539 -2.3376
  112MOL0     H14747   5.906   4.206   1.075  1.7246 -3.2558 -1.3386
  112MOL0     H14748   5.773   4.673   1.531  1.7841 -0.8633 -1.6542
  112MOL0     H14749   5.585   4.811   1.580 -0.6699 -1.3444  0.4805
  112MOL0     H14750   5.364   4.853   1.259 -0.1094  0.7334 -0.4982
  112MOL0     H14751   5.358   4.987   1.378 -0.4177  0.2813  2.2027
  112MOL0     H14752   5.129   4.946   1.410  3.4731  2.8264  0.4279
  112MOL0     H14753   5.149   4.790   1.320  1.8021 -0.0944 -1.8458
  112MOL0     H14754   5.166   5.070   1.204 -0.5771  0.4109 -0.8487
  112MOL0     H14755   5.027   4.963   1.201  0.4835 -2.8625 -1.8947
  112MOL0     H14756   5.295   4.910   1.051  0.6115 -1.7034 -4.7249
  112MOL0     H14757   5.172   4.786   1.086  1.6248 -0.1778  1.1547
  112MOL0     H14758   5.158   5.051   0.925  0.8654 -0.2667 -1.0560
  112MOL0     H14759   5.020   4.932   0.930  0.7296 -2.4065  0.1673
  112MOL0     H14760   5.173   4.779   0.792 -1.7168  0.2744  1.3682
  112MOL0     H14761   5.298   4.890   0.808 -0.2188  1.4225  2.3654
  112MOL0     H14762   5.076   4.905   0.633 -0.8107  2.1074 -0.0047
  112MOL0     H14763   5.107   5.058   0.709 -0.6795 -0.7160 -0.4674
  112MOL0     H14764   5.334   4.895   0.569  1.8074  1.0741 -1.9179
  112MOL0     H14765   5.343   5.055   0.637  0.1919 -0.8098  0.1622
  112MOL0     H14766   5.340   4.592   1.304  0.4379 -2.6871  0.1258
  112MOL0     H14767   5.540   4.454   1.238  2.7192  1.9072 -2.3723
  112MOL0     H14768   6.005   4.410   1.454 -0.8622  0.3668 -1.4045
  112MOL0     H14769   6.208   4.258   1.465  0.8662 -4.2946 -0.8623
  112MOL0     H14770   8.116   4.204   1.341  1.6195  0.3139  2.3812
  112MOL0     H14771   8.346   4.196   1.261  3.0204 -1.6389  0.0021
  112MOL0     H14772   8.803   4.191   1.157  0.1592 -0.2713 -1.1656
  112MOL0     H14773   9.019   4.106   1.092 -1.8510  0.1181 -0.9338
  112MOL0     H14774   9.203   3.977   1.195  3.0391  0.0941 -0.0602
  112MOL0     H14775   9.191   4.005   1.021 -0.8656  0.6333  0.8294
  112MOL0     H14776   9.320   3.787   1.002  1.4877  1.1071 -0.0704
  112MOL0     H14777   9.410   3.920   1.056  2.7953 -3.8362 -0.6425
  112MOL0     H14778   9.286   3.719   1.249 -1.1059  0.6112 -1.6670
  112MOL0     H14779   9.397   3.856   1.290 -1.2266  2.2879 -1.9966
  112MOL0     H14780   9.473   3.629   1.105 -1.5468 -3.0004  1.4168
  112MOL0     H14781   9.582   3.771   1.146 -0.5046  0.8126  1.5368
  112MOL0     H14782   9.610   3.516   1.484 -1.7310  1.2669  0.3058
  112MOL0     H14783   8.880   3.703   1.138  0.4918 -0.2000  1.6082
  112MOL0     H14784   8.655   3.793   1.194  1.3274 -3.0889 -0.9988
  113MOL0     O14785   8.727   9.216   6.572 -0.3195 -0.9878  0.0714
  113MOL0     C14786   8.735   9.094   6.540  0.3331 -0.1151 -0.1249
  113MOL0     O14787   8.635   9.016   6.486 -0.6333  0.3506  0.7354
  113MOL0     C14788   8.510   9.071   6.458  0.2803  0.9865 -0.9544
  113MOL0     C14789   8.428   9.127   6.560 -0.3619 -0.5755 -0.2268
  113MOL0     C14790   8.293   9.150   6.536  0.1976  0.5670 -0.2403
  113MOL0     C14791   8.232   9.117   6.407  0.5498 -0.7268 -0.8314
  113MOL0     O14792   8.100   9.132   6.380  0.6486 -0.3316 -0.3928
  113MOL0     C14793   8.006   9.157   6.487  0.0026  0.3849 -0.2414
  113MOL0     C14794   7.867   9.142   6.422  0.0169 -0.0113 -0.0613
  113MOL0     C14795   7.751   9.136   6.518  0.3341  0.5180 -0.3707
  113MOL0     C14796   7.643   9.229   6.474 -0.1291  0.2984  0.8187
  113MOL0     C14797   7.531   9.247   6.572 -0.0436  0.5937  0.9102
  113MOL0     C14798   7.415   9.353   6.545 -0.2748 -0.4329 -0.7241
  113MOL0     C14799   7.464   9.491   6.499 -0.4235 -0.0165  0.4018
  113MOL0     C14800   7.550   9.578   6.587 -0.5462 -0.3811  0.3196
  113MOL0     N14801   7.586   9.706   6.518  0.7792  0.1605  0.2695
  113MOL0     C14802   7.709   9.735   6.461 -0.0957 -0.9058 -0.8660
  113MOL0     C14803   7.695   9.862   6.419  0.3981  0.0622 -0.0328
  113MOL0     C14804   7.804   9.961   6.384  0.5494  0.0182 -0.0340
  113MOL0     C14805   7.903   9.905   6.279 -0.6866  0.7780 -0.6238
  113MOL0     C14806   8.034   9.992   6.275  0.1212 -0.4637  0.4757
  113MOL0     C14807   8.149   9.925   6.196  0.4728  0.2222  0.0961
  113MOL0     O14808   8.252  10.017   6.186 -0.2854 -0.5000  0.2584
  113MOL0     C14809   8.359   9.985   6.102  0.4743 -0.0638  0.8765
  113MOL0     C14810   8.403   9.860   6.057 -0.5895 -0.6937  0.0822
  113MOL0     C14811   8.521   9.849   5.980 -1.1786 -0.2798 -0.5873
  113MOL0     C14812   8.594   9.962   5.947  0.8083  0.7152 -0.0286
  113MOL0     C14813   8.721   9.942   5.878  0.2533 -0.3578  0.4824
  113MOL0     O14814   8.803  10.057   5.876  0.2565 -0.2505  0.5465
  113MOL0     C14815   8.935  10.055   5.840 -0.4281  1.0546  0.0897
  113MOL0     C14816   9.021  10.087   5.941  0.5177 -0.7931 -0.4416
  113MOL0     C14817   9.164  10.090   5.923  0.1711  0.0351  0.0524
  113MOL0     C14818   9.213  10.044   5.800  0.0130  0.4658  0.3329
  113MOL0     O14819   9.351  10.040   5.769 -0.4256 -0.0054 -1.0626
  113MOL0     C14820   9.446  10.000   5.872  0.7129 -0.6429  0.0745
  113MOL0     C14821   9.585   9.985   5.826 -0.1660  0.2517  0.7286
  113MOL0     C14822   9.663   9.934   5.942  0.1243 -0.7158  0.8029
  113MOL0     C14823   9.807   9.902   5.918 -0.7374 -0.2303  0.2722
  113MOL0     C14824   9.909  10.009   5.863  0.3959 -0.6815  0.3748
  113MOL0     C14825  10.054   9.973   5.834 -0.5761 -0.0739  0.1917
  113MOL0     C14826  10.107   9.858   5.920  0.0708  0.2256  1.1952
  113MOL0     C14827  10.240   9.812   5.885  0.1373 -0.0757  0.5468
  113MOL0    Cl14828  10.301   9.717   6.017 -0.2304  0.0976  0.0775
  113MOL0     C14829   9.126  10.013   5.698  0.1871 -0.4092 -0.3527
  113MOL0     C14830   8.987  10.016   5.719 -0.3041  0.6742  0.6299
  113MOL0     O14831   8.755   9.827   5.848 -0.3400 -0.1629  0.4163
  113MOL0     C14832   8.549  10.083   5.987  0.6923 -0.4171 -0.0738
  113MOL0     C14833   8.429  10.107   6.064 -0.7461 -0.0900 -0.7245
  113MOL0     N14834   7.563   9.902   6.425 -0.0578  0.2718 -0.1343
  113MOL0     N14835   7.496   9.807   6.483 -0.3713  0.5676 -0.4690
  113MOL0     C14836   8.318   9.088   6.307  0.1375  0.1655 -0.3588
  113MOL0     C14837   8.461   9.060   6.334 -0.1385  0.0620 -0.5814
  113MOL0     C14838   8.864   9.034   6.568 -0.0107 -0.5272 -0.5172
  113MOL0     C14839   8.886   8.896   6.574 -0.4126  0.3154 -0.2041
  113MOL0     C14840   9.010   8.837   6.582  0.3267  0.4023  0.0308
  113MOL0     C14841   9.129   8.911   6.586  0.0372  0.2645 -0.1194
  113MOL0     O14842   9.247   8.845   6.609  0.1070  0.2709 -0.2177
  113MOL0     C14843   9.343   8.914   6.679 -0.6501 -0.1514  0.0462
  113MOL0     C14844   9.466   8.831   6.717 -0.4073  0.6584  0.7548
  113MOL0     C14845   9.428   8.718   6.813 -0.2246  0.4013  0.2253
  113MOL0     C14846   9.561   8.632   6.811  0.8014  0.5659  0.6557
  113MOL0     C14847   9.504   8.498   6.838  0.0074 -0.3070 -0.0084
  113MOL0     C14848   9.450   8.394   6.855 -0.1626  0.5405  0.6531
  113MOL0     C14849   9.106   9.050   6.568  0.2971  0.7732 -0.1213
  113MOL0     C14850   8.979   9.114   6.571  0.7894  0.0908  0.0945
  113MOL0     H14851   8.480   9.142   6.655 -0.6602 -0.5270 -0.0709
  113MOL0     H14852   8.236   9.182   6.623 -0.1742  0.3133 -0.3858
  113MOL0     H14853   8.013   9.259   6.524 -1.3492  0.6181 -0.5738
  113MOL0     H14854   8.028   9.084   6.566  0.9129  0.7396 -0.1622
  113MOL0     H14855   7.860   9.056   6.354  0.7603  0.4609 -0.7525
  113MOL0     H14856   7.848   9.223   6.352  0.2553  2.3866  2.4855
  113MOL0     H14857   7.782   9.160   6.620 -2.0515 -0.7839  0.7433
  113MOL0     H14858   7.706   9.038   6.535 -1.5351  1.5789  1.3314
  113MOL0     H14859   7.687   9.327   6.456  0.8104 -0.5078 -1.6123
  113MOL0     H14860   7.606   9.191   6.379  1.2176  0.9341  0.0158
  113MOL0     H14861   7.574   9.266   6.670 -1.3826 -0.0848  1.6554
  113MOL0     H14862   7.493   9.144   6.578 -0.4512  0.5464 -1.4460
  113MOL0     H14863   7.359   9.358   6.639  0.0045 -1.2869 -0.5057
  113MOL0     H14864   7.348   9.312   6.468 -1.4211 -0.9906  0.5226
  113MOL0     H14865   7.522   9.468   6.409 -1.5025 -2.4201  0.2354
  113MOL0     H14866   7.375   9.547   6.468 -1.4880  0.6714  4.1743
  113MOL0     H14867   7.638   9.514   6.596 -1.2584 -1.8577 -2.1200
  113MOL0     H14868   7.509   9.597   6.687  1.4436  0.5624  1.0024
  113MOL0     H14869   7.798   9.673   6.470 -1.2129 -2.3569  0.9680
  113MOL0     H14870   7.848   9.991   6.480 -1.4352  0.0489  0.9049
  113MOL0     H14871   7.750  10.048   6.346 -2.1356 -0.5702  2.1346
  113MOL0     H14872   7.851   9.903   6.183 -1.6314  0.5114 -0.1214
  113MOL0     H14873   7.941   9.804   6.300 -0.2853  1.2631  1.1740
  113MOL0     H14874   8.005  10.087   6.231 -3.6369 -1.4616  0.4495
  113MOL0     H14875   8.059  10.008   6.380  0.8016 -1.3446  0.4611
  113MOL0     H14876   8.118   9.884   6.100 -1.3502  1.3656  0.1511
  113MOL0     H14877   8.180   9.837   6.253  0.2459  1.4098  2.1662
  113MOL0     H14878   8.350   9.781   6.110 -2.5291  0.1522 -0.5120
  113MOL0     H14879   8.556   9.748   5.958  1.3918  0.7266 -1.5439
  113MOL0     H14880   8.981  10.118   6.036 -2.5854 -0.7466 -1.6502
  113MOL0     H14881   9.232  10.124   6.000 -1.6087  0.4485  1.4904
  113MOL0     H14882   9.402   9.922   5.934  0.2672 -0.9353 -0.6029
  113MOL0     H14883   9.463  10.081   5.944  1.3242  0.3713 -1.1535
  113MOL0     H14884   9.632  10.079   5.797  0.2094  0.0179  0.5645
  113MOL0     H14885   9.591   9.921   5.738  0.9084  1.1454  0.1243
  113MOL0     H14886   9.614   9.848   5.989 -1.0521  1.7388  4.5159
  113MOL0     H14887   9.645  10.013   6.016 -3.6714 -0.4859 -0.1777
  113MOL0     H14888   9.848   9.859   6.009  1.0303  0.0835 -0.3281
  113MOL0     H14889   9.787   9.829   5.839 -4.5038 -0.9131  1.6499
  113MOL0     H14890   9.911  10.097   5.928  0.3262  0.3362 -0.9620
  113MOL0     H14891   9.876  10.056   5.771 -0.2011  0.6721  1.2539
  113MOL0     H14892  10.110  10.064   5.854 -0.7317  0.5015 -1.7957
  113MOL0     H14893  10.049   9.929   5.734  0.7158 -2.6735  1.1788
  113MOL0     H14894  10.113   9.893   6.024 -2.5278  0.7780  1.2332
  113MOL0     H14895  10.038   9.774   5.909 -1.7402  1.9563 -5.4461
  113MOL0     H14896  10.310   9.895   5.872 -0.6165  0.6244  0.8673
  113MOL0     H14897  10.222   9.756   5.793 -1.3811 -0.3864  0.9966
  113MOL0     H14898   9.163   9.987   5.599  2.7941  0.1612  0.4015
  113MOL0     H14899   8.918   9.988   5.641  2.5158 -1.9945 -1.1351
  113MOL0     H14900   8.600  10.172   5.952 -1.1538  0.6520 -0.1711
  113MOL0     H14901   8.399  10.208   6.091  1.2346  0.6893 -1.2048
  113MOL0     H14902   8.264   9.086   6.213 -1.6641  1.3369  0.6014
  113MOL0     H14903   8.536   9.034   6.261  2.2038  0.1272  1.6463
  113MOL0     H14904   8.800   8.830   6.564 -0.5384  0.3658  0.5378
  113MOL0     H14905   9.010   8.729   6.596  0.4218  0.3633 -0.2681
  113MOL0     H14906   9.303   8.949   6.775  1.4973 -0.0856  0.9652
  113MOL0     H14907   9.366   8.993   6.607 -2.9205  1.1729  0.6572
  113MOL0     H14908   9.491   8.782   6.623 -1.4081 -0.2273  0.9314
  113MOL0     H14909   9.545   8.896   6.755 -0.4304  1.2068 -0.1100
  113MOL0     H14910   9.337   8.664   6.787  1.1207 -1.8824  0.0172
  113MOL0     H14911   9.428   8.760   6.914  0.6056  2.5204 -0.5742
  113MOL0     H14912   9.600   8.625   6.709 -2.3512  1.5019 -0.7528
  113MOL0     H14913   9.632   8.661   6.888 -0.5445 -1.2844  2.7011
  113MOL0     H14914   9.405   8.298   6.868  1.4999 -0.0700  2.5557
  113MOL0     H14915   9.197   9.107   6.585  1.3612 -1.3405  1.7312
  113MOL0     H14916   8.974   9.222   6.564  2.5427  0.5248  3.4753
  114MOL0     O14917   9.626   0.053   8.372 -0.2915  0.2634 -0.5101
  114MOL0     C14918   9.697   0.006   8.461 -1.2145 -0.0921  0.2106
  114MOL0     O14919   9.666  -0.021   8.589  0.4654 -0.7841  0.0507
  114MOL0     C14920   9.539  -0.029   8.648  0.5081  0.4467  0.6245
  114MOL0     C14921   9.417  -0.051   8.579 -0.9418 -0.4113 -0.3312
  114MOL0     C14922   9.294  -0.065   8.646  0.4285  0.5267  0.8611
  114MOL0     C14923   9.294  -0.069   8.784  0.3974 -0.2744  0.2549
  114MOL0     O14924   9.176  -0.109   8.845  0.2703  0.5915  1.4188
  114MOL0     C14925   9.122  -0.021   8.946  0.8641 -0.8641  0.3391
  114MOL0     C14926   8.986  -0.071   8.992 -0.7693 -0.2350 -0.5096
  114MOL0     C14927   8.996  -0.215   9.020 -0.1301  0.1581 -1.2849
  114MOL0     C14928   8.869  -0.264   9.093 -0.2546  0.1383 -0.4570
  114MOL0     C14929   8.869  -0.420   9.090  0.7866 -0.2715 -0.4309
  114MOL0     C14930   8.747  -0.455   9.169  0.0839 -1.4550 -0.7529
  114MOL0     C14931   8.734  -0.602   9.168 -0.0280 -0.0542  0.0100
  114MOL0     C14932   8.661  -0.651   9.044 -0.1477  0.1467 -0.3608
  114MOL0     N14933   8.519  -0.675   9.075  0.3645 -0.0682 -0.9343
  114MOL0     C14934   8.427  -0.576   9.094 -0.4749 -0.1840  0.1240
  114MOL0     C14935   8.312  -0.637   9.143 -0.2421  0.2642 -0.3796
  114MOL0     C14936   8.186  -0.575   9.178 -0.3013 -0.5005  0.7008
  114MOL0     C14937   8.191  -0.511   9.317  0.1268  0.6360 -0.6898
  114MOL0     C14938   8.206  -0.360   9.319 -0.5749  0.3601  0.2479
  114MOL0     C14939   8.181  -0.288   9.443  0.3821 -0.0229 -0.0075
  114MOL0     O14940   8.045  -0.317   9.493  0.6784  0.0666  0.4887
  114MOL0     C14941   7.932  -0.246   9.448 -0.3508  0.2701 -0.2123
  114MOL0     C14942   7.942  -0.139   9.358 -0.2531 -0.0931 -1.0066
  114MOL0     C14943   7.832  -0.060   9.310  0.2758  0.1096 -0.2881
  114MOL0     C14944   7.708  -0.104   9.354 -0.3665  0.1538  0.4258
  114MOL0     C14945   7.584  -0.028   9.320 -0.3660 -0.2165  0.4631
  114MOL0     O14946   7.464  -0.075   9.378  0.0142 -0.8011  0.2383
  114MOL0     C14947   7.342  -0.056   9.317  0.3185 -0.2348 -0.1581
  114MOL0     C14948   7.324  -0.067   9.179 -0.4914 -0.2414  0.8702
  114MOL0     C14949   7.202  -0.033   9.115 -0.7329 -0.9636 -1.1625
  114MOL0     C14950   7.083  -0.038   9.196 -0.9103 -1.1298  0.3602
  114MOL0     O14951   6.953  -0.022   9.154 -0.0055  0.2450  0.0283
  114MOL0     C14952   6.931  -0.030   9.016  0.1115 -0.2080 -0.1750
  114MOL0     C14953   6.872   0.103   8.975 -0.0943 -1.5567 -0.1918
  114MOL0     C14954   6.777   0.098   8.857  0.9446  0.0872 -0.1518
  114MOL0     C14955   6.849   0.040   8.737  0.7253  0.0151  0.3826
  114MOL0     C14956   6.763   0.052   8.611  0.5233  0.0911 -0.0176
  114MOL0     C14957   6.634  -0.027   8.603 -0.3199  0.4157  0.0030
  114MOL0     C14958   6.558   0.007   8.480  0.0707 -0.5025 -0.0154
  114MOL0     C14959   6.540  -0.107   8.392  0.0964  0.4017 -0.3518
  114MOL0    Cl14960   6.687  -0.084   8.286 -0.0395  0.2932 -0.4844
  114MOL0     C14961   7.098  -0.031   9.335  0.2472 -0.5661  0.0898
  114MOL0     C14962   7.223  -0.040   9.397 -0.8574 -0.2558  0.4322
  114MOL0     O14963   7.597   0.077   9.255 -0.7392 -0.4749  0.1989
  114MOL0     C14964   7.703  -0.214   9.450  0.0862 -0.1170 -0.3676
  114MOL0     C14965   7.811  -0.279   9.500  0.2901  0.2410 -0.0417
  114MOL0     N14966   8.340  -0.772   9.154  0.0180  1.1934  0.3715
  114MOL0     N14967   8.461  -0.792   9.107 -0.0888 -0.4143  0.9411
  114MOL0     C14968   9.423  -0.045   8.849  0.7432  0.6293 -0.2446
  114MOL0     C14969   9.537  -0.032   8.780 -0.3453  0.5749  0.0949
  114MOL0     C14970   9.832  -0.019   8.407 -0.3683  0.4232 -0.1081
  114MOL0     C14971   9.859  -0.037   8.271 -0.0550  0.5509 -0.2994
  114MOL0     C14972   9.985  -0.066   8.223 -0.1594 -0.0367 -0.0161
  114MOL0     C14973  10.085  -0.100   8.315 -0.2408  0.4040  0.5354
  114MOL0     O14974  10.208  -0.141   8.284  0.0936  0.4857  0.1988
  114MOL0     C14975  10.258  -0.102   8.159  0.5590 -0.7653  0.2205
  114MOL0     C14976  10.407  -0.159   8.145 -0.2660  0.2912 -0.6352
  114MOL0     C14977  10.468  -0.155   8.000  0.6702  0.3170 -0.0771
  114MOL0     C14978  10.490  -0.020   7.950 -0.6156 -0.7776 -0.1621
  114MOL0     C14979  10.610   0.048   8.005 -0.2018  0.1402  0.1831
  114MOL0     C14980  10.706   0.123   8.031 -0.4653 -0.9081 -0.2081
  114MOL0     C14981  10.062  -0.103   8.446  1.1480 -0.1576 -0.4016
  114MOL0     C14982   9.934  -0.057   8.494 -0.4929  0.7086 -0.2019
  114MOL0     H14983   9.438  -0.063   8.473  2.3848 -2.1494  0.3784
  114MOL0     H14984   9.213  -0.092   8.580  0.8190  2.1808 -0.3776
  114MOL0     H14985   9.118   0.083   8.911 -1.3493 -0.2288  2.2583
  114MOL0     H14986   9.191  -0.026   9.030  1.4849 -0.1539 -0.1082
  114MOL0     H14987   8.912  -0.049   8.915 -1.5043 -0.5364  0.1041
  114MOL0     H14988   8.952  -0.019   9.082  2.1347  1.8795 -0.4740
  114MOL0     H14989   9.082  -0.242   9.083 -1.2308 -1.0872 -0.2428
  114MOL0     H14990   9.004  -0.269   8.925  2.7801 -2.9567  0.4573
  114MOL0     H14991   8.866  -0.223   9.194  2.6909 -0.0406 -0.2035
  114MOL0     H14992   8.781  -0.229   9.037 -0.1405  2.6968  0.8406
  114MOL0     H14993   8.959  -0.467   9.131  0.0819 -0.7367  0.6184
  114MOL0     H14994   8.863  -0.454   8.986  0.9402  2.4697 -1.4158
  114MOL0     H14995   8.666  -0.403   9.117  2.2140  0.7078 -2.1205
  114MOL0     H14996   8.744  -0.427   9.275  1.4748 -1.3114 -0.7329
  114MOL0     H14997   8.831  -0.653   9.176  0.0602  0.3153  1.6052
  114MOL0     H14998   8.681  -0.635   9.258  0.5264  0.1800  0.4369
  114MOL0     H14999   8.700  -0.749   9.016 -3.6307 -1.6589  0.5009
  114MOL0     H15000   8.679  -0.593   8.953  1.5121  0.3364  0.0425
  114MOL0     H15001   8.448  -0.472   9.075 -0.9454  0.4584  2.7519
  114MOL0     H15002   8.112  -0.655   9.181 -0.5301 -0.2742  3.2348
  114MOL0     H15003   8.149  -0.500   9.107 -3.3779 -2.0098  0.5604
  114MOL0     H15004   8.278  -0.548   9.371  1.3727  1.1447 -2.2656
  114MOL0     H15005   8.099  -0.538   9.369  1.2959 -3.1670 -0.3517
  114MOL0     H15006   8.313  -0.349   9.303 -0.7102  1.1397 -0.1836
  114MOL0     H15007   8.140  -0.313   9.244 -0.4202 -1.0659 -0.8164
  114MOL0     H15008   8.195  -0.181   9.429 -0.0582 -0.1334 -1.3522
  114MOL0     H15009   8.250  -0.327   9.519  1.2538  1.9984  0.3027
  114MOL0     H15010   8.039  -0.109   9.318  0.0373  1.4626  0.7471
  114MOL0     H15011   7.843   0.013   9.230  4.1647 -0.8251 -0.8078
  114MOL0     H15012   7.415  -0.098   9.128 -0.0993 -1.3818  2.1864
  114MOL0     H15013   7.214  -0.016   9.009  3.3629 -0.0804 -0.7343
  114MOL0     H15014   6.853  -0.106   9.006  1.4868 -2.1573  2.6419
  114MOL0     H15015   7.016  -0.044   8.948 -1.2678  0.1787 -2.0687
  114MOL0     H15016   6.949   0.174   8.942 -2.6801  1.9525  0.6499
  114MOL0     H15017   6.820   0.139   9.064 -0.9795 -2.1116 -0.4776
  114MOL0     H15018   6.739   0.199   8.838 -1.6610 -0.5407  1.1934
  114MOL0     H15019   6.687   0.042   8.885  0.4074  0.5211 -0.9506
  114MOL0     H15020   6.948   0.086   8.732  1.4475 -1.5710 -0.4391
  114MOL0     H15021   6.863  -0.068   8.752 -3.4512 -0.8509 -0.5817
  114MOL0     H15022   6.822   0.011   8.529  0.9816  2.1221 -0.7770
  114MOL0     H15023   6.749   0.158   8.586 -0.5964  0.1058  0.6182
  114MOL0     H15024   6.563  -0.004   8.683 -0.1871  2.6349 -0.4430
  114MOL0     H15025   6.655  -0.134   8.599 -1.9659  0.0898 -1.1729
  114MOL0     H15026   6.457   0.036   8.510  0.7035  0.0648  1.7081
  114MOL0     H15027   6.588   0.097   8.424  0.1855 -0.1792  0.5524
  114MOL0     H15028   6.443  -0.091   8.345  0.5025  1.8100 -0.7427
  114MOL0     H15029   6.546  -0.204   8.444  2.9844 -0.9544 -2.8728
  114MOL0     H15030   7.015  -0.004   9.398 -0.1512 -1.9209  0.1758
  114MOL0     H15031   7.227  -0.040   9.505  1.8724  1.6152  0.4112
  114MOL0     H15032   7.611  -0.253   9.493  0.9381  0.2992  1.9762
  114MOL0     H15033   7.780  -0.356   9.570  0.2205  0.1813 -0.1387
  114MOL0     H15034   9.424  -0.037   8.958 -1.3783 -0.3356 -0.0867
  114MOL0     H15035   9.628  -0.040   8.838 -0.9846  0.1932  1.0673
  114MOL0     H15036   9.796  -0.004   8.188  2.0564  2.5796 -1.2156
  114MOL0     H15037  10.002  -0.079   8.116 -1.0455  1.3379 -0.3508
  114MOL0     H15038  10.251   0.008   8.157  1.1301 -0.7181 -2.3594
  114MOL0     H15039  10.186  -0.138   8.086  0.7409 -0.5149 -0.0867
  114MOL0     H15040  10.473  -0.114   8.220 -1.2800 -1.7826  1.6488
  114MOL0     H15041  10.423  -0.263   8.175 -0.8649 -0.2359 -2.0869
  114MOL0     H15042  10.392  -0.197   7.933  2.0097 -1.1988 -0.7296
  114MOL0     H15043  10.556  -0.220   7.995  0.0264 -0.5527 -0.6246
  114MOL0     H15044  10.505  -0.023   7.842 -0.1630  2.6595 -0.3194
  114MOL0     H15045  10.402   0.042   7.970  1.1071  1.7590  0.0709
  114MOL0     H15046  10.788   0.192   8.032  0.6136 -1.7420 -5.1196
  114MOL0     H15047  10.139  -0.127   8.518  0.0427  3.9443  2.5266
  114MOL0     H15048   9.909  -0.067   8.599  1.3592  0.5202  0.2514
  115MOL0     O15049   5.688   7.151   9.545  0.5126  0.9143 -0.5863
  115MOL0     C15050   5.715   7.130   9.425  0.3569  0.6692 -0.0826
  115MOL0     O15051   5.633   7.157   9.319  0.3177 -0.1153 -0.0548
  115MOL0     C15052   5.496   7.182   9.324  1.7385  1.1650 -0.4639
  115MOL0     C15053   5.429   7.201   9.201  0.7357  0.4095 -0.0616
  115MOL0     C15054   5.284   7.201   9.199  0.6295  0.4768  0.5701
  115MOL0     C15055   5.210   7.214   9.310  0.3126  0.2827  0.1649
  115MOL0     O15056   5.073   7.248   9.316 -0.9590 -1.0658 -0.2091
  115MOL0     C15057   4.990   7.226   9.195 -0.1522 -0.5241  0.8730
  115MOL0     C15058   4.847   7.255   9.238 -1.1805  0.1024 -0.9264
  115MOL0     C15059   4.784   7.157   9.336 -0.8890 -0.0627  0.4761
  115MOL0     C15060   4.709   7.049   9.264 -0.9015 -0.9057 -0.3900
  115MOL0     C15061   4.683   6.937   9.360 -0.4370 -0.3114 -0.3405
  115MOL0     C15062   4.590   6.969   9.482  0.1649 -0.6976  0.8445
  115MOL0     C15063   4.594   6.861   9.592  0.2628  0.1643  0.6184
  115MOL0     C15064   4.551   6.911   9.733  0.0948  0.2398  0.7959
  115MOL0     N15065   4.397   6.947   9.735 -0.2655  0.3796 -0.0404
  115MOL0     C15066   4.292   6.861   9.767  0.4853 -0.4827 -0.2980
  115MOL0     C15067   4.180   6.941   9.779 -0.2890 -0.3532 -1.3897
  115MOL0     C15068   4.044   6.905   9.806  1.1474  0.6088 -0.3695
  115MOL0     C15069   3.944   6.912   9.689  0.4570  0.1842  0.7242
  115MOL0     C15070   3.969   6.817   9.573 -0.2311  0.2187 -0.5690
  115MOL0     C15071   3.848   6.802   9.490  0.0751 -0.6107  0.4916
  115MOL0     O15072   3.786   6.930   9.447  0.1445  0.3553  0.3642
  115MOL0     C15073   3.670   6.923   9.370 -0.0417  0.1192  0.4894
  115MOL0     C15074   3.609   6.808   9.315 -0.6877  0.4452  0.2220
  115MOL0     C15075   3.494   6.817   9.237  0.7170  0.6238 -0.0490
  115MOL0     C15076   3.437   6.939   9.208  0.5350 -0.7449  0.1178
  115MOL0     C15077   3.313   6.954   9.119  0.8588  0.1383 -0.2848
  115MOL0     O15078   3.260   6.837   9.065  0.1137 -0.9827 -0.0211
  115MOL0     C15079   3.144   6.852   8.993 -0.5071  0.8754  0.0142
  115MOL0     C15080   3.155   6.867   8.849  0.1967  0.4562  0.5357
  115MOL0     C15081   3.036   6.855   8.769  0.6723  0.2904 -0.6472
  115MOL0     C15082   2.910   6.841   8.820  0.0374  1.0860 -0.2084
  115MOL0     O15083   2.796   6.833   8.743  0.0163 -0.2432 -0.1392
  115MOL0     C15084   2.683   6.758   8.796  0.2848 -0.7766  0.4875
  115MOL0     C15085   2.592   6.729   8.672  0.4962  1.2459 -0.0315
  115MOL0     C15086   2.657   6.639   8.570  0.2454  0.0544  0.2940
  115MOL0     C15087   2.586   6.658   8.428 -1.3740  0.2249 -0.8843
  115MOL0     C15088   2.448   6.588   8.434 -0.1150  0.3415  0.1064
  115MOL0     C15089   2.336   6.655   8.364  0.3560  0.3319 -0.2904
  115MOL0     C15090   2.262   6.759   8.443  0.0718  0.3623  0.0955
  115MOL0     C15091   2.210   6.861   8.338 -0.4210  0.3960  0.4556
  115MOL0    Cl15092   2.064   6.775   8.272  0.5876 -0.3812 -0.2988
  115MOL0     C15093   2.900   6.836   8.963 -0.2709 -0.7427  0.1885
  115MOL0     C15094   3.016   6.840   9.046 -0.3647  0.2459  0.1979
  115MOL0     O15095   3.260   7.071   9.108 -0.7290 -0.2266  0.0220
  115MOL0     C15096   3.489   7.056   9.271  0.0122 -0.6855 -0.0377
  115MOL0     C15097   3.610   7.045   9.341 -0.5017  0.4128  0.3007
  115MOL0     N15098   4.225   7.074   9.769 -0.2119 -0.8009 -0.1353
  115MOL0     N15099   4.345   7.068   9.724 -0.1520  0.1490  1.3285
  115MOL0     C15100   5.278   7.202   9.434  0.5173  0.5845 -0.2799
  115MOL0     C15101   5.417   7.173   9.437 -0.0098  0.0071 -0.5365
  115MOL0     C15102   5.843   7.060   9.403  0.5329 -0.2506  0.4882
  115MOL0     C15103   5.871   7.021   9.273  0.0403 -0.0810 -0.3457
  115MOL0     C15104   5.991   6.952   9.257  0.8116  0.8932 -0.3751
  115MOL0     C15105   6.087   6.945   9.357 -0.3154  1.2685 -0.2002
  115MOL0     O15106   6.199   6.885   9.312 -0.5397 -0.4353  0.0125
  115MOL0     C15107   6.328   6.927   9.363 -0.3660 -0.1405  0.9914
  115MOL0     C15108   6.441   6.872   9.284 -0.3996 -0.7324  0.7508
  115MOL0     C15109   6.433   6.719   9.268 -0.5847 -0.4999 -0.2080
  115MOL0     C15110   6.557   6.679   9.183  0.2591  0.0495  0.5162
  115MOL0     C15111   6.688   6.698   9.248 -0.3346 -0.3168  0.2663
  115MOL0     C15112   6.794   6.716   9.310  0.3689 -0.1553 -0.0909
  115MOL0     C15113   6.066   6.998   9.485  0.5847  0.0210 -0.9845
  115MOL0     C15114   5.937   7.036   9.508 -0.2609 -0.6433 -0.8057
  115MOL0     H15115   5.492   7.200   9.112  0.3098  1.8683 -0.4024
  115MOL0     H15116   5.242   7.204   9.099  1.7372  1.4013  0.1061
  115MOL0     H15117   4.998   7.121   9.169  2.6412 -0.5118  1.3148
  115MOL0     H15118   5.028   7.294   9.118 -2.0125 -1.2112 -0.7033
  115MOL0     H15119   4.788   7.245   9.147  0.4007 -1.9497 -1.8170
  115MOL0     H15120   4.843   7.355   9.280  0.9899 -0.1605  0.0596
  115MOL0     H15121   4.710   7.205   9.400  0.7347  0.9773  1.6406
  115MOL0     H15122   4.861   7.118   9.404 -0.3154 -0.1967 -0.2390
  115MOL0     H15123   4.622   7.095   9.216  0.8828  1.2672 -1.8058
  115MOL0     H15124   4.779   7.016   9.186  1.0878 -0.5035  1.1404
  115MOL0     H15125   4.780   6.912   9.402 -1.0974 -0.6047  1.0620
  115MOL0     H15126   4.653   6.849   9.303  1.9780 -2.7788  1.8729
  115MOL0     H15127   4.490   6.975   9.438  0.4940 -1.2070 -0.0036
  115MOL0     H15128   4.620   7.061   9.533  1.5303 -0.4297 -0.3676
  115MOL0     H15129   4.528   6.777   9.568 -0.8401  1.9673 -3.6070
  115MOL0     H15130   4.695   6.820   9.597 -0.9547 -2.9850  2.6690
  115MOL0     H15131   4.610   6.998   9.764  1.6766 -0.8507  0.9855
  115MOL0     H15132   4.569   6.827   9.802 -0.0478 -0.0972  0.4255
  115MOL0     H15133   4.292   6.753   9.763  1.1995 -0.5728  1.3446
  115MOL0     H15134   4.007   6.972   9.884  2.8949  1.3074 -0.1102
  115MOL0     H15135   4.055   6.804   9.846  2.3363  1.5070  1.6982
  115MOL0     H15136   3.932   7.011   9.645 -2.1279  0.9856  2.9783
  115MOL0     H15137   3.847   6.897   9.736  0.0652 -0.8183 -0.3664
  115MOL0     H15138   4.059   6.846   9.519  0.8280 -0.3534  0.8218
  115MOL0     H15139   3.985   6.714   9.605 -1.9885 -0.9586 -3.1526
  115MOL0     H15140   3.781   6.739   9.550  0.4590  0.3788  2.0261
  115MOL0     H15141   3.869   6.745   9.399  2.7892 -1.1263  1.3462
  115MOL0     H15142   3.661   6.713   9.321  1.1603  1.2026 -2.0426
  115MOL0     H15143   3.463   6.726   9.186  1.6818  0.5713 -0.5606
  115MOL0     H15144   3.251   6.882   8.800 -1.3376  1.0241 -2.5439
  115MOL0     H15145   3.045   6.855   8.661  0.0598  2.6666 -0.7584
  115MOL0     H15146   2.628   6.822   8.866  1.1038  1.3711 -0.7462
  115MOL0     H15147   2.717   6.672   8.855  1.7337  1.4249  3.0318
  115MOL0     H15148   2.563   6.819   8.618  2.0169  1.6214 -0.2819
  115MOL0     H15149   2.509   6.672   8.714  0.0876  1.4730 -0.5300
  115MOL0     H15150   2.653   6.537   8.609  2.4186 -0.7670 -1.4036
  115MOL0     H15151   2.760   6.674   8.567  0.8224 -1.5555  0.1706
  115MOL0     H15152   2.569   6.763   8.406  1.3690  0.4765 -2.2907
  115MOL0     H15153   2.644   6.613   8.347 -2.7514 -2.5529 -0.4642
  115MOL0     H15154   2.412   6.584   8.537  0.4382 -0.1567  0.2927
  115MOL0     H15155   2.471   6.485   8.405  0.0093  0.4928 -0.3387
  115MOL0     H15156   2.269   6.580   8.321 -0.4145 -0.7278  2.5467
  115MOL0     H15157   2.378   6.705   8.276 -0.2348 -0.9725 -1.3556
  115MOL0     H15158   2.177   6.710   8.491 -1.5417  2.3771 -0.5646
  115MOL0     H15159   2.325   6.810   8.516  2.0982 -0.2118 -1.1573
  115MOL0     H15160   2.278   6.887   8.256 -1.3953  2.8305  0.3457
  115MOL0     H15161   2.183   6.954   8.389  2.8588  2.2137 -0.8516
  115MOL0     H15162   2.800   6.824   9.003 -0.2722 -0.4703  0.2670
  115MOL0     H15163   3.006   6.836   9.154  0.1643  0.6581  0.2725
  115MOL0     H15164   3.451   7.155   9.245  0.3370 -0.8963 -1.3702
  115MOL0     H15165   3.655   7.134   9.383  1.3335  0.0750 -0.8277
  115MOL0     H15166   5.215   7.205   9.522 -0.4519  2.5871 -0.9786
  115MOL0     H15167   5.462   7.160   9.535 -0.8024  3.7200  0.4925
  115MOL0     H15168   5.804   7.032   9.189  1.8702  0.9516 -1.7672
  115MOL0     H15169   6.011   6.905   9.162 -0.6704 -0.6960  0.0521
  115MOL0     H15170   6.340   6.892   9.466 -0.3389 -0.1850  0.9729
  115MOL0     H15171   6.338   7.035   9.354  2.4960 -0.5005 -2.8611
  115MOL0     H15172   6.439   6.913   9.182 -1.1657 -2.7006 -0.0605
  115MOL0     H15173   6.539   6.905   9.321 -0.0081  0.9482 -1.5458
  115MOL0     H15174   6.343   6.674   9.224  0.3044 -1.8098 -0.7450
  115MOL0     H15175   6.444   6.679   9.370  1.1266  2.2494  0.7779
  115MOL0     H15176   6.558   6.571   9.164 -1.1183  0.1522 -0.2640
  115MOL0     H15177   6.557   6.716   9.080 -1.0491 -1.6833 -0.1627
  115MOL0     H15178   6.879   6.722   9.375 -0.5044 -0.8932  1.1632
  115MOL0     H15179   6.142   6.995   9.563 -0.1709 -1.5306 -0.2586
  115MOL0     H15180   5.922   7.078   9.608  1.9164  2.3522 -1.5778
  116MOL0     O15181   3.459   6.618  10.082 -0.0641  0.1437  0.4987
  116MOL0     C15182   3.554   6.557  10.125 -0.9893  0.7146 -0.8010
  116MOL0     O15183   3.536   6.429  10.178  0.9225  0.3471  0.3292
  116MOL0     C15184   3.401   6.401  10.204 -0.0833  0.7088  0.6012
  116MOL0     C15185   3.339   6.289  10.147 -0.0297  0.4244 -0.7351
  116MOL0     C15186   3.217   6.234  10.200  0.6080  0.2583 -0.7444
  116MOL0     C15187   3.151   6.295  10.311  0.3243 -1.0469  0.1252
  116MOL0     O15188   3.020   6.261  10.346 -0.0053  0.3668 -0.3805
  116MOL0     C15189   2.996   6.249  10.493  0.6567 -0.1637 -0.0544
  116MOL0     C15190   3.057   6.129  10.559  1.0178  0.3226  0.2404
  116MOL0     C15191   2.988   5.990  10.520  0.1728  0.1596 -0.6682
  116MOL0     C15192   3.080   5.882  10.574 -0.0305 -0.5569  0.4501
  116MOL0     C15193   3.012   5.750  10.553 -0.3136 -0.2776 -0.2568
  116MOL0     C15194   3.109   5.635  10.602 -0.3279 -0.8456 -0.4471
  116MOL0     C15195   3.084   5.590  10.747  0.3671 -0.5945  0.1917
  116MOL0     C15196   2.977   5.486  10.768  0.0387  0.5120  0.4755
  116MOL0     N15197   3.013   5.342  10.734 -0.0423  0.6670  0.2423
  116MOL0     C15198   3.011   5.269  10.612  0.7246 -0.7219 -0.3008
  116MOL0     C15199   3.036   5.139  10.650  0.5411 -0.3530  0.0317
  116MOL0     C15200   3.051   5.025  10.562 -0.3516  0.3280 -0.3297
  116MOL0     C15201   2.944   4.915  10.576  0.7437 -0.2331 -0.4124
  116MOL0     C15202   2.994   4.806  10.493  0.8300  0.5019 -0.2072
  116MOL0     C15203   2.904   4.674  10.507  0.6506  0.4891  0.8156
  116MOL0     O15204   2.778   4.692  10.436  0.8726  0.3686  0.2080
  116MOL0     C15205   2.684   4.591  10.443 -0.5353 -0.3906  0.4783
  116MOL0     C15206   2.572   4.593  10.360 -0.7488 -0.6373  0.5604
  116MOL0     C15207   2.481   4.489  10.354  0.3249  0.6281  0.1059
  116MOL0     C15208   2.494   4.375  10.437  0.2390  0.4922 -0.9805
  116MOL0     C15209   2.388   4.267  10.429  0.7058 -1.0376 -1.3545
  116MOL0     O15210   2.381   4.174  10.529 -0.2870  0.2661  0.2533
  116MOL0     C15211   2.286   4.076  10.521 -0.1068  0.8892  0.0561
  116MOL0     C15212   2.299   3.962  10.440 -1.3256  0.1722 -0.5066
  116MOL0     C15213   2.195   3.862  10.435  0.0179 -0.6310  0.5846
  116MOL0     C15214   2.085   3.882  10.520  0.0919  0.1366  0.6649
  116MOL0     O15215   2.002   3.775  10.538  0.0967  0.1492 -0.0918
  116MOL0     C15216   1.866   3.799  10.562  0.1338 -0.0381 -0.8675
  116MOL0     C15217   1.787   3.661  10.560 -0.7410 -0.6081 -0.1304
  116MOL0     C15218   1.640   3.681  10.572  0.5428 -0.0627  0.0184
  116MOL0     C15219   1.551   3.558  10.569  0.5094  1.1354  0.1876
  116MOL0     C15220   1.394   3.575  10.599  0.2614  0.1679  0.5034
  116MOL0     C15221   1.326   3.430  10.587  0.3275 -0.2380  1.4340
  116MOL0     C15222   1.172   3.439  10.554 -1.0868 -0.0600 -0.3767
  116MOL0     C15223   1.149   3.457  10.401 -0.1354  0.1782  0.8762
  116MOL0    Cl15224   0.968   3.487  10.380 -0.0333 -0.0433 -0.6771
  116MOL0     C15225   2.073   3.999  10.602 -1.0134  0.6424  0.2321
  116MOL0     C15226   2.174   4.092  10.598  1.0527  0.2317 -0.1827
  116MOL0     O15227   2.315   4.276  10.333  0.5494 -0.0046  0.4459
  116MOL0     C15228   2.617   4.369  10.513  0.7878  0.0610  0.7587
  116MOL0     C15229   2.705   4.473  10.508 -0.6668  0.3410 -0.3912
  116MOL0     N15230   3.046   5.133  10.788 -0.2069 -0.0808  0.0824
  116MOL0     N15231   3.027   5.248  10.833 -1.1179 -0.7838  0.4426
  116MOL0     C15232   3.211   6.413  10.356  0.0179 -0.1407  0.8023
  116MOL0     C15233   3.339   6.453  10.318 -0.1174  0.1278 -0.4329
  116MOL0     C15234   3.674   6.630  10.152  0.1606 -0.8133 -0.4380
  116MOL0     C15235   3.671   6.771  10.157  0.4847  0.0635 -0.2178
  116MOL0     C15236   3.788   6.848  10.171 -0.4896  0.2722  0.8974
  116MOL0     C15237   3.909   6.778  10.193 -1.3714 -0.5893  0.1950
  116MOL0     O15238   4.043   6.826  10.210 -0.1299 -0.7704 -0.1047
  116MOL0     C15239   4.053   6.969  10.241 -0.8694  0.8640  0.1371
  116MOL0     C15240   4.197   6.986  10.289  0.4440  0.1265 -0.1686
  116MOL0     C15241   4.222   6.927  10.421  0.5909  0.7601  0.0580
  116MOL0     C15242   4.365   6.988  10.468  0.9753  0.7900 -1.4001
  116MOL0     C15243   4.401   6.916  10.593 -0.7457  0.2557 -0.0190
  116MOL0     C15244   4.437   6.860  10.698  0.0579 -0.6084 -0.6659
  116MOL0     C15245   3.915   6.637  10.178  0.0172 -0.0610  0.2652
  116MOL0     C15246   3.794   6.561  10.172 -1.2273  0.1962 -0.2194
  116MOL0     H15247   3.384   6.257  10.054  1.3533 -0.4324  0.2040
  116MOL0     H15248   3.171   6.141  10.167 -0.5359  0.6089 -0.1898
  116MOL0     H15249   2.890   6.229  10.509  0.8094  0.6805  2.4843
  116MOL0     H15250   3.016   6.344  10.543 -1.9908  0.5964 -0.3101
  116MOL0     H15251   3.068   6.146  10.667 -0.5108 -2.3579  0.9141
  116MOL0     H15252   3.157   6.115  10.517  0.3839  0.7861 -1.5003
  116MOL0     H15253   2.962   5.979  10.415  0.2668 -2.4323 -0.4876
  116MOL0     H15254   2.896   5.987  10.579 -0.7959 -2.3527 -2.1250
  116MOL0     H15255   3.176   5.873  10.523  0.6298  4.3515  0.3620
  116MOL0     H15256   3.104   5.910  10.676  0.7769 -1.1070  0.4204
  116MOL0     H15257   3.004   5.724  10.447  0.1683  3.5316 -1.3647
  116MOL0     H15258   2.920   5.745  10.612 -0.2195 -1.8300 -0.2044
  116MOL0     H15259   3.216   5.648  10.580  0.8780 -1.8603  3.8961
  116MOL0     H15260   3.078   5.544  10.548 -2.1851 -1.6431  1.7900
  116MOL0     H15261   3.182   5.556  10.781  0.6179 -1.4914 -1.3170
  116MOL0     H15262   3.075   5.684  10.802  0.8134 -1.6482  2.1394
  116MOL0     H15263   2.882   5.512  10.721  0.0708 -1.6084 -0.9184
  116MOL0     H15264   2.946   5.490  10.873  0.1690 -0.7806  0.5764
  116MOL0     H15265   2.992   5.304  10.511 -2.7445 -1.4309 -0.0181
  116MOL0     H15266   3.148   4.977  10.578 -1.1144 -1.8168 -1.6877
  116MOL0     H15267   3.036   5.051  10.457  0.6347  0.8887 -0.3390
  116MOL0     H15268   2.841   4.942  10.553  0.4326  0.4825  1.6754
  116MOL0     H15269   2.946   4.879  10.679  3.5883 -1.6096 -0.8202
  116MOL0     H15270   2.990   4.838  10.389  1.6264  0.7242 -0.1832
  116MOL0     H15271   3.099   4.780  10.511  0.9030  0.3216 -0.8566
  116MOL0     H15272   2.880   4.652  10.611 -0.3821 -1.0677  0.2789
  116MOL0     H15273   2.963   4.592  10.467  0.7561  1.5192 -1.3160
  116MOL0     H15274   2.544   4.678  10.299 -1.2472 -1.3940 -0.2894
  116MOL0     H15275   2.403   4.506  10.281  0.0753 -0.3178  0.1331
  116MOL0     H15276   2.394   3.952  10.388 -1.9831  3.1360 -2.5729
  116MOL0     H15277   2.191   3.774  10.371 -0.3256 -0.0137 -0.2539
  116MOL0     H15278   1.826   3.873  10.492  0.4510 -0.3828 -1.4148
  116MOL0     H15279   1.862   3.844  10.662 -0.8093  1.0263 -1.3530
  116MOL0     H15280   1.814   3.598  10.646  0.7862  1.4381  0.9513
  116MOL0     H15281   1.803   3.601  10.470 -0.7245 -0.9157  0.0751
  116MOL0     H15282   1.621   3.747  10.486  4.0117  0.7115 -0.3255
  116MOL0     H15283   1.619   3.745  10.658  0.1841  1.3850 -1.1084
  116MOL0     H15284   1.567   3.501  10.476 -0.5329  0.7540  0.2325
  116MOL0     H15285   1.585   3.489  10.647  0.1199  1.6273  0.7888
  116MOL0     H15286   1.344   3.641  10.527  0.1066 -1.6500 -1.1144
  116MOL0     H15287   1.385   3.624  10.696  1.5740 -1.9565  1.7623
  116MOL0     H15288   1.329   3.372  10.680 -0.9557  0.2053  1.7655
  116MOL0     H15289   1.363   3.382  10.496 -5.6258  2.8385 -3.2860
  116MOL0     H15290   1.138   3.339  10.583 -0.8184  0.4927  2.0492
  116MOL0     H15291   1.127   3.513  10.621 -3.9282 -1.7457 -0.2351
  116MOL0     H15292   1.188   3.378  10.337 -0.3646  0.9328 -0.2328
  116MOL0     H15293   1.200   3.549  10.369  0.4824 -1.5162 -3.8685
  116MOL0     H15294   2.008   4.022  10.686  0.1900  4.6229  0.2873
  116MOL0     H15295   2.161   4.187  10.649 -0.7950 -0.2528  0.3454
  116MOL0     H15296   2.644   4.285  10.575 -1.7863  0.0773  2.0109
  116MOL0     H15297   2.805   4.456  10.547 -1.0929 -0.6425  0.3314
  116MOL0     H15298   3.146   6.462  10.428 -1.5775 -0.8823 -0.0845
  116MOL0     H15299   3.395   6.525  10.377 -0.7450 -1.6884  2.5846
  116MOL0     H15300   3.580   6.830  10.144 -0.2685 -0.4537  2.1496
  116MOL0     H15301   3.781   6.956  10.174 -2.0036  0.1808  1.6510
  116MOL0     H15302   3.976   7.000  10.312  0.2646 -1.7044  2.6720
  116MOL0     H15303   4.044   7.017  10.143 -3.6332 -0.2971 -0.2889
  116MOL0     H15304   4.262   6.942  10.214  2.0125  1.3783  0.4077
  116MOL0     H15305   4.213   7.094  10.290  1.5236 -0.0120  1.2100
  116MOL0     H15306   4.207   6.819  10.419 -0.0719  0.8473  0.2281
  116MOL0     H15307   4.146   6.950  10.496 -0.5120 -2.4480  0.0624
  116MOL0     H15308   4.446   6.970  10.397  2.2428  1.1253 -0.0953
  116MOL0     H15309   4.368   7.095  10.493 -1.0771  1.0584 -2.0789
  116MOL0     H15310   4.465   6.819  10.793 -0.4592  0.1183 -0.1880
  116MOL0     H15311   4.007   6.579  10.179 -0.1042 -0.2718  1.7522
  116MOL0     H15312   3.801   6.453  10.182 -4.5887  0.0416  2.4003
  117MOL0     O15313  10.594   9.719   6.794 -0.2008 -0.6750 -0.0674
  117MOL0     C15314  10.703   9.775   6.764 -0.4495  0.3574 -0.4295
  117MOL0     O15315  10.717   9.891   6.704 -0.3458  0.3379  0.3496
  117MOL0     C15316  10.603   9.963   6.680  0.1015 -0.3064 -0.0986
  117MOL0     C15317  10.587  10.032   6.561  0.8721  0.4051  0.0490
  117MOL0     C15318  10.464  10.091   6.524 -0.5421 -0.6452  0.7298
  117MOL0     C15319  10.356  10.099   6.618 -0.3462 -0.1282 -0.7230
  117MOL0     O15320  10.247  10.167   6.575  0.3445  0.1812  0.3273
  117MOL0     C15321  10.157  10.203   6.681 -0.0697  0.7039  0.1527
  117MOL0     C15322  10.032  10.272   6.609  0.4771 -0.1438 -0.6847
  117MOL0     C15323   9.916  10.307   6.711 -0.3133 -0.1170 -0.2373
  117MOL0     C15324   9.804  10.379   6.631 -0.1797  0.0337 -0.2446
  117MOL0     C15325   9.668  10.378   6.709 -0.5529 -0.5019  0.5085
  117MOL0     C15326   9.666  10.494   6.810  0.1618 -0.4367 -0.5287
  117MOL0     C15327   9.623  10.641   6.772  0.1659  0.7701  0.3545
  117MOL0     C15328   9.481  10.640   6.704 -0.6977 -1.0176 -0.4977
  117MOL0     N15329   9.378  10.629   6.810  0.0232 -0.2941 -0.3786
  117MOL0     C15330   9.342  10.725   6.903 -0.7612  0.8073 -0.2857
  117MOL0     C15331   9.244  10.673   6.972 -0.4443  0.7466 -0.4718
  117MOL0     C15332   9.180  10.740   7.095 -0.0104  0.3758  0.9016
  117MOL0     C15333   9.055  10.667   7.144 -0.3314  0.6374 -0.7905
  117MOL0     C15334   9.019  10.728   7.277 -0.5280 -0.2847  0.1712
  117MOL0     C15335   8.933  10.632   7.342  0.0304 -0.1675  0.0038
  117MOL0     O15336   8.864  10.698   7.442 -0.3677 -0.1391  0.3942
  117MOL0     C15337   8.775  10.624   7.526 -1.2702 -0.4365 -0.5904
  117MOL0     C15338   8.737  10.492   7.510  0.1123 -0.2848  0.9104
  117MOL0     C15339   8.642  10.436   7.598 -0.1900 -0.2372 -0.4550
  117MOL0     C15340   8.583  10.505   7.702 -0.2682 -0.9168  0.3786
  117MOL0     C15341   8.479  10.441   7.784  0.3131 -0.5705 -0.3197
  117MOL0     O15342   8.411  10.333   7.727 -1.1898  0.3038 -0.5905
  117MOL0     C15343   8.305  10.271   7.787  0.0272  0.4327  0.7873
  117MOL0     C15344   8.203  10.229   7.697  0.7158 -0.4065  0.2422
  117MOL0     C15345   8.086  10.171   7.751  0.0560  0.5403  0.8266
  117MOL0     C15346   8.065  10.162   7.888  0.0971 -1.4036  0.5484
  117MOL0     O15347   7.941  10.128   7.935 -0.3909 -0.1243  0.3710
  117MOL0     C15348   7.928  10.136   8.075  0.4103 -0.2015  1.0962
  117MOL0     C15349   7.785  10.108   8.134 -0.2107 -0.4224 -0.1793
  117MOL0     C15350   7.682  10.150   8.033 -0.2112 -0.3078 -0.6093
  117MOL0     C15351   7.534  10.117   8.075 -0.4150  0.2199  0.1222
  117MOL0     C15352   7.439  10.140   7.958  0.0860 -0.5546 -0.4915
  117MOL0     C15353   7.300  10.107   7.983 -0.3623 -0.5479  0.2731
  117MOL0     C15354   7.271   9.991   8.079 -0.6788 -0.0465 -0.5456
  117MOL0     C15355   7.137   9.928   8.075  0.5702  0.4584 -0.2632
  117MOL0    Cl15356   7.135   9.790   8.193  0.3615 -0.0344 -0.2029
  117MOL0     C15357   8.174  10.200   7.970 -1.4953 -0.6753 -0.2512
  117MOL0     C15358   8.290  10.249   7.922 -0.2937  0.2245  0.2154
  117MOL0     O15359   8.466  10.485   7.904  0.4081  0.1061  0.6333
  117MOL0     C15360   8.624  10.639   7.721  0.3641 -0.3052 -0.2123
  117MOL0     C15361   8.723  10.694   7.639 -0.3018  0.2275  0.8189
  117MOL0     N15362   9.225  10.537   6.940  0.5167  0.4771 -0.8596
  117MOL0     N15363   9.313  10.511   6.842  0.3936  0.0989  0.1949
  117MOL0     C15364  10.375  10.034   6.742 -0.3946 -0.9976 -0.2734
  117MOL0     C15365  10.497   9.974   6.770  0.5254  0.2506 -0.6167
  117MOL0     C15366  10.830   9.696   6.789  0.3384 -0.3021  1.1439
  117MOL0     C15367  10.946   9.738   6.720 -0.3505  0.6602  0.2504
  117MOL0     C15368  11.065   9.665   6.741  0.8828  0.0928 -0.2986
  117MOL0     C15369  11.073   9.556   6.830  0.7243  1.0828  0.0334
  117MOL0     O15370  11.196   9.493   6.839  0.0957  0.7742 -0.2395
  117MOL0     C15371  11.194   9.360   6.895 -0.7975  0.2931 -0.4528
  117MOL0     C15372  11.329   9.290   6.854 -0.1404  0.3501 -0.4681
  117MOL0     C15373  11.330   9.146   6.880 -0.0377  0.0595  0.0922
  117MOL0     C15374  11.241   9.057   6.796 -0.2467 -1.0447 -0.4471
  117MOL0     C15375  11.217   8.916   6.843  0.1662  0.3979 -0.1758
  117MOL0     C15376  11.224   8.801   6.880  0.7164 -0.1930 -0.1852
  117MOL0     C15377  10.949   9.509   6.887  0.1844 -0.0400 -0.2221
  117MOL0     C15378  10.830   9.585   6.869  0.3539  0.0140  0.5849
  117MOL0     H15379  10.673  10.036   6.495 -0.8987  1.1616 -2.3546
  117MOL0     H15380  10.452  10.124   6.421  1.2708 -0.3095  0.5941
  117MOL0     H15381  10.214  10.264   6.752  2.2179 -0.2793 -0.7807
  117MOL0     H15382  10.124  10.115   6.737  1.8163  0.3119  0.7201
  117MOL0     H15383   9.991  10.202   6.535 -1.3545 -1.7144  1.6423
  117MOL0     H15384  10.062  10.363   6.557 -0.2952  0.6164  0.1537
  117MOL0     H15385   9.960  10.372   6.787 -1.1146 -0.5304  0.5978
  117MOL0     H15386   9.880  10.214   6.757  0.9509 -2.7066 -3.9653
  117MOL0     H15387   9.831  10.480   6.599 -0.9557  0.9706  1.8666
  117MOL0     H15388   9.786  10.316   6.543  0.5774 -0.4518 -0.0590
  117MOL0     H15389   9.667  10.284   6.766  2.0632 -0.1549  1.2537
  117MOL0     H15390   9.584  10.393   6.641  0.2785  2.0560 -0.0676
  117MOL0     H15391   9.762  10.511   6.859  1.2548  0.2471 -2.7706
  117MOL0     H15392   9.594  10.479   6.890 -0.5625  1.3922 -0.7716
  117MOL0     H15393   9.612  10.711   6.856  1.5985 -1.0177  2.1006
  117MOL0     H15394   9.690  10.677   6.694 -0.7838  2.2761  0.1871
  117MOL0     H15395   9.483  10.565   6.624 -2.1027 -0.6249 -0.9373
  117MOL0     H15396   9.464  10.735   6.653 -2.6847 -0.9768  0.1345
  117MOL0     H15397   9.376  10.827   6.920  1.2234  0.0789  0.4032
  117MOL0     H15398   9.157  10.845   7.074  2.9197  0.7795 -0.8293
  117MOL0     H15399   9.257  10.732   7.172 -0.1353  1.5471  1.1660
  117MOL0     H15400   9.068  10.559   7.156 -1.1497  0.2074 -3.1391
  117MOL0     H15401   8.975  10.678   7.070  0.9115  1.2131 -2.0840
  117MOL0     H15402   9.101  10.738   7.348 -0.8075  3.3749  0.1227
  117MOL0     H15403   8.968  10.823   7.262  0.5759  0.1373 -1.0599
  117MOL0     H15404   8.988  10.551   7.390  0.4735 -0.0795 -0.3550
  117MOL0     H15405   8.858  10.594   7.271 -1.1797 -1.2434  1.7899
  117MOL0     H15406   8.778  10.437   7.426  2.3728  2.8051 -0.2193
  117MOL0     H15407   8.602  10.338   7.576  0.5597 -1.1200  1.8330
  117MOL0     H15408   8.205  10.246   7.590 -3.1176 -4.3539 -0.7744
  117MOL0     H15409   8.010  10.156   7.675  2.8304 -0.0505 -2.0605
  117MOL0     H15410   7.951  10.241   8.096  0.2234  0.3664 -1.2200
  117MOL0     H15411   8.003  10.072   8.123  1.2258  0.1106  0.2695
  117MOL0     H15412   7.769  10.162   8.228 -1.7340 -0.8528 -0.1657
  117MOL0     H15413   7.771  10.003   8.159 -4.8201 -0.2927 -1.2915
  117MOL0     H15414   7.690  10.088   7.943  1.1426  1.0656 -1.4727
  117MOL0     H15415   7.686  10.259   8.026 -0.6505 -0.1906  0.6693
  117MOL0     H15416   7.533  10.009   8.095  0.0255  0.1268 -0.3282
  117MOL0     H15417   7.504  10.169   8.166 -1.7526 -0.0084 -0.1718
  117MOL0     H15418   7.467  10.093   7.863  1.5867  1.1246 -0.9461
  117MOL0     H15419   7.450  10.245   7.930  1.1640 -0.2941  0.8207
  117MOL0     H15420   7.258  10.090   7.883  3.1516  0.0734 -1.4883
  117MOL0     H15421   7.251  10.192   8.031  0.6891  0.0034  0.4095
  117MOL0     H15422   7.342   9.908   8.066 -0.4604 -0.5742  2.9205
  117MOL0     H15423   7.280  10.032   8.180 -1.4848  1.9259 -1.2436
  117MOL0     H15424   7.116   9.901   7.971  3.3546  0.7316 -0.9865
  117MOL0     H15425   7.061  10.002   8.103  1.5115  0.8604  1.3640
  117MOL0     H15426   8.176  10.185   8.078  2.6582  0.3108 -0.0288
  117MOL0     H15427   8.366  10.278   7.993 -0.9267  0.1225  0.9458
  117MOL0     H15428   8.584  10.705   7.798 -2.2391 -1.4643 -0.4737
  117MOL0     H15429   8.771  10.788   7.664  2.3783 -0.0134 -2.5934
  117MOL0     H15430  10.295  10.030   6.815 -0.5219 -1.2770 -0.4270
  117MOL0     H15431  10.506   9.934   6.870 -0.1507  0.0160 -0.6417
  117MOL0     H15432  10.963   9.823   6.655  0.6058  0.6138  0.4181
  117MOL0     H15433  11.154   9.708   6.697 -0.1819 -1.0787 -3.9871
  117MOL0     H15434  11.108   9.310   6.849  0.3029 -4.8364  2.2541
  117MOL0     H15435  11.182   9.356   7.004 -0.7652 -1.4432 -0.4781
  117MOL0     H15436  11.358   9.294   6.749 -0.3528 -1.9647 -0.6511
  117MOL0     H15437  11.414   9.320   6.916  1.5292 -0.5759 -2.2146
  117MOL0     H15438  11.296   9.133   6.983  1.8269 -2.3394  0.5043
  117MOL0     H15439  11.430   9.103   6.887 -0.7598 -1.9909 -1.1754
  117MOL0     H15440  11.146   9.111   6.794  0.4589  0.5787  3.2670
  117MOL0     H15441  11.297   9.058   6.702  2.2390 -1.6960  0.9439
  117MOL0     H15442  11.221   8.699   6.912 -1.2348  0.3563  1.6371
  117MOL0     H15443  10.953   9.427   6.958 -0.0546 -0.0906 -0.2674
  117MOL0     H15444  10.732   9.552   6.904 -0.2240 -0.0833 -1.0504
  118MOL0     O15445   1.500   3.320   6.089  0.0504  0.2422  0.8309
  118MOL0     C15446   1.525   3.261   5.982 -1.2395 -0.6310 -0.7269
  118MOL0     O15447   1.439   3.237   5.884 -0.0478 -0.0644  0.3457
  118MOL0     C15448   1.307   3.273   5.890  0.4226  0.3947  0.5571
  118MOL0     C15449   1.245   3.284   5.762  1.1677 -0.3280 -0.3423
  118MOL0     C15450   1.119   3.329   5.733  0.7967  0.6788 -0.8209
  118MOL0     C15451   1.039   3.373   5.840  0.7178 -0.3377 -0.0273
  118MOL0     O15452   0.914   3.431   5.817  0.0237  0.1408 -0.0451
  118MOL0     C15453   0.867   3.535   5.900 -0.4535 -0.0148  1.2147
  118MOL0     C15454   0.728   3.584   5.856  0.0105 -0.0509 -0.5715
  118MOL0     C15455   0.657   3.687   5.944 -1.5183 -0.1367 -0.0533
  118MOL0     C15456   0.509   3.695   5.911 -0.3843  0.0857 -0.2705
  118MOL0     C15457   0.428   3.817   5.958  0.8946  0.1454  1.0227
  118MOL0     C15458   0.506   3.953   5.953  0.6451  0.1404 -0.1425
  118MOL0     C15459   0.406   4.059   5.988  0.0107 -0.5937 -0.1314
  118MOL0     C15460   0.483   4.187   5.979 -0.2973  0.0996  0.3906
  118MOL0     N15461   0.391   4.294   5.982  0.3795 -0.0995  0.1960
  118MOL0     C15462   0.339   4.361   5.876  0.6679 -0.1042  0.7122
  118MOL0     C15463   0.229   4.416   5.921  0.4417 -0.7254  0.6090
  118MOL0     C15464   0.143   4.499   5.827  0.1985 -0.6476 -0.7419
  118MOL0     C15465   0.005   4.537   5.888 -0.6241 -0.8799  0.0651
  118MOL0     C15466  -0.090   4.424   5.915 -0.2215  0.3704  0.3267
  118MOL0     C15467  -0.203   4.474   6.005  0.3080  0.7184 -1.1705
  118MOL0     O15468  -0.293   4.552   5.929  0.2746  0.1344 -0.1291
  118MOL0     C15469  -0.412   4.573   5.977  0.0196  0.4492 -0.3214
  118MOL0     C15470  -0.448   4.679   6.062  0.2689 -1.0540  0.8972
  118MOL0     C15471  -0.584   4.687   6.111 -0.1922 -0.3887  0.4781
  118MOL0     C15472  -0.682   4.592   6.084 -0.6331  0.4922  0.0024
  118MOL0     C15473  -0.817   4.590   6.137 -0.2938 -0.4102  0.1259
  118MOL0     O15474  -0.865   4.693   6.220  0.0765  0.2788 -0.0092
  118MOL0     C15475  -0.999   4.708   6.212  0.4008 -0.3311 -0.6736
  118MOL0     C15476  -1.064   4.735   6.334  0.3086  0.4818 -0.4893
  118MOL0     C15477  -1.203   4.746   6.336  0.1965  0.2434  0.1049
  118MOL0     C15478  -1.276   4.732   6.219  0.5089  0.3900 -0.4401
  118MOL0     O15479  -1.416   4.739   6.223 -0.1259  0.4344 -0.2471
  118MOL0     C15480  -1.483   4.736   6.091 -0.0769  0.5681 -0.4485
  118MOL0     C15481  -1.628   4.774   6.096  0.1159  0.0496  0.2527
  118MOL0     C15482  -1.655   4.917   6.139 -0.2886  0.9448 -0.1370
  118MOL0     C15483  -1.791   4.960   6.185  0.3382  0.3042 -0.0246
  118MOL0     C15484  -1.880   4.994   6.061  0.2753  0.2257 -0.0491
  118MOL0     C15485  -1.999   5.083   6.107  0.5058  0.1130  0.6488
  118MOL0     C15486  -2.117   5.094   6.001 -1.1530 -0.0496 -0.1785
  118MOL0     C15487  -2.248   5.175   6.038  0.0650 -0.0455  0.0783
  118MOL0    Cl15488  -2.383   5.101   5.946 -0.6432 -0.3834  0.0125
  118MOL0     C15489  -1.210   4.705   6.103 -0.6840 -0.3137 -0.3873
  118MOL0     C15490  -1.071   4.700   6.098  0.5104 -0.2919  0.1835
  118MOL0     O15491  -0.870   4.486   6.106  0.2629 -0.2926 -0.2636
  118MOL0     C15492  -0.637   4.486   5.997 -0.3580  0.0595 -0.0918
  118MOL0     C15493  -0.507   4.486   5.944 -0.3038  1.0032 -0.0620
  118MOL0     N15494   0.218   4.399   6.058 -0.5419 -0.6322  0.0550
  118MOL0     N15495   0.314   4.320   6.095 -0.4409  0.2010  0.2810
  118MOL0     C15496   1.084   3.352   5.968 -0.2471  0.3988  0.1950
  118MOL0     C15497   1.219   3.314   5.989 -0.3817  0.3846  0.1280
  118MOL0     C15498   1.672   3.221   5.965 -0.8848  0.7318 -0.5075
  118MOL0     C15499   1.723   3.155   5.855  0.5554 -0.6715  0.1233
  118MOL0     C15500   1.848   3.112   5.848  0.2278 -0.1439  0.7535
  118MOL0     C15501   1.939   3.148   5.952  0.5706  0.4216 -0.1347
  118MOL0     O15502   2.068   3.107   5.954  0.1648  0.3326 -0.2463
  118MOL0     C15503   2.096   2.997   5.869 -0.4634 -0.4468 -0.1963
  118MOL0     C15504   2.244   2.960   5.885 -0.6166 -0.7498 -0.0918
  118MOL0     C15505   2.339   3.080   5.888 -0.4487  0.1151 -1.1735
  118MOL0     C15506   2.469   3.046   5.959 -0.2120  0.4019 -0.2126
  118MOL0     C15507   2.553   3.167   5.965  0.6812 -0.0510 -0.8017
  118MOL0     C15508   2.630   3.262   5.997  0.5836  0.2034  0.7575
  118MOL0     C15509   1.890   3.214   6.065 -0.1502 -0.2013  0.1455
  118MOL0     C15510   1.755   3.240   6.071 -0.1104 -0.0443 -0.3535
  118MOL0     H15511   1.296   3.254   5.671 -1.9216 -2.6509 -1.4894
  118MOL0     H15512   1.083   3.356   5.634  1.5907  2.7379 -0.5879
  118MOL0     H15513   0.942   3.615   5.894 -1.5065  1.0042  1.1145
  118MOL0     H15514   0.858   3.505   6.004 -2.3393 -3.6008  0.1711
  118MOL0     H15515   0.662   3.497   5.858 -1.1215  0.8061 -0.0391
  118MOL0     H15516   0.738   3.611   5.750  1.3657  0.8608 -0.2474
  118MOL0     H15517   0.700   3.787   5.935  1.2690 -1.2810 -0.5249
  118MOL0     H15518   0.671   3.662   6.050  1.1352 -2.8350 -0.8864
  118MOL0     H15519   0.497   3.705   5.802 -0.5492  0.4298 -0.2218
  118MOL0     H15520   0.464   3.605   5.951 -0.9592  0.1949 -0.6644
  118MOL0     H15521   0.388   3.796   6.058  1.1075  0.3877  1.1595
  118MOL0     H15522   0.342   3.819   5.891  0.9541 -1.1570  0.8717
  118MOL0     H15523   0.547   3.955   5.852 -1.0504 -0.4762 -0.8747
  118MOL0     H15524   0.586   3.954   6.028  0.1982 -1.8722  0.4049
  118MOL0     H15525   0.323   4.061   5.917 -0.5917  0.5628  0.5766
  118MOL0     H15526   0.366   4.034   6.086 -2.6451  0.8391 -0.7627
  118MOL0     H15527   0.548   4.194   5.891  3.0692  1.4156  2.7659
  118MOL0     H15528   0.549   4.198   6.065  0.2028 -3.3166  0.5687
  118MOL0     H15529   0.366   4.354   5.771  2.0798 -3.7449  1.1560
  118MOL0     H15530   0.140   4.441   5.734 -0.0663 -2.8466  0.5632
  118MOL0     H15531   0.198   4.591   5.806 -0.4050  1.0052  3.8090
  118MOL0     H15532  -0.043   4.595   5.809  1.5699  0.7099 -0.1953
  118MOL0     H15533   0.014   4.605   5.973 -1.2544  2.1606 -2.1206
  118MOL0     H15534  -0.141   4.387   5.825  2.2234  1.7694 -1.7817
  118MOL0     H15535  -0.036   4.345   5.967 -0.5359  0.4702  0.8087
  118MOL0     H15536  -0.162   4.530   6.090  2.3751 -1.0759 -0.8844
  118MOL0     H15537  -0.262   4.392   6.046 -1.8898  2.2917 -1.0103
  118MOL0     H15538  -0.378   4.762   6.072 -0.5559 -0.2427  0.0820
  118MOL0     H15539  -0.612   4.776   6.166  1.6099  2.4832 -2.8307
  118MOL0     H15540  -1.009   4.739   6.428 -1.0824 -1.4434  0.4956
  118MOL0     H15541  -1.240   4.770   6.435  0.9252 -1.2909  0.7968
  118MOL0     H15542  -1.473   4.635   6.050 -1.7411  0.7631 -1.4150
  118MOL0     H15543  -1.433   4.810   6.028 -1.7825  1.8882 -0.3356
  118MOL0     H15544  -1.685   4.698   6.150  1.8478 -0.8911  0.8233
  118MOL0     H15545  -1.668   4.771   5.994  0.3025  0.7596  0.1533
  118MOL0     H15546  -1.629   4.980   6.053 -1.5706 -1.3278 -2.3507
  118MOL0     H15547  -1.594   4.933   6.227  0.0812 -0.8741 -0.0272
  118MOL0     H15548  -1.833   4.877   6.243 -0.9785 -0.0575 -1.4367
  118MOL0     H15549  -1.793   5.044   6.255 -1.7606 -0.8728  1.4170
  118MOL0     H15550  -1.925   4.906   6.014 -2.5853 -0.6658  3.8479
  118MOL0     H15551  -1.823   5.056   5.991 -0.9747  0.5357 -0.8470
  118MOL0     H15552  -1.975   5.189   6.119  0.5214  0.2109 -0.1847
  118MOL0     H15553  -2.037   5.042   6.201 -3.5788 -2.4502 -1.8119
  118MOL0     H15554  -2.077   5.138   5.909  0.0858 -1.2951 -0.2512
  118MOL0     H15555  -2.137   4.987   5.995 -0.7017 -0.1285 -0.2663
  118MOL0     H15556  -2.246   5.283   6.024 -1.9442  0.4849  3.0770
  118MOL0     H15557  -2.288   5.150   6.136 -0.7701 -2.2709 -0.7615
  118MOL0     H15558  -1.258   4.683   6.008  0.4449 -2.0774 -0.6087
  118MOL0     H15559  -1.028   4.689   5.999  3.8105  0.8039  1.3473
  118MOL0     H15560  -0.698   4.399   5.974 -1.6039 -0.0547  3.1337
  118MOL0     H15561  -0.476   4.415   5.868 -0.2895  2.9243 -1.9468
  118MOL0     H15562   1.027   3.384   6.055 -0.4278  0.3992  0.0772
  118MOL0     H15563   1.253   3.322   6.092 -0.7558  0.0399  0.2813
  118MOL0     H15564   1.652   3.128   5.778 -2.1074  0.3680  2.0172
  118MOL0     H15565   1.870   3.043   5.767  1.8799  1.1092  0.0779
  118MOL0     H15566   2.082   3.027   5.764  2.4108  2.7807  0.1602
  118MOL0     H15567   2.028   2.914   5.891 -1.0956  0.3530  0.9738
  118MOL0     H15568   2.259   2.903   5.977 -0.9369 -0.9365 -0.1522
  118MOL0     H15569   2.277   2.901   5.800  1.2125 -0.4366  0.3600
  118MOL0     H15570   2.296   3.165   5.942 -0.9911 -1.2804  0.6947
  118MOL0     H15571   2.351   3.102   5.781 -2.6027  1.6284 -1.1793
  118MOL0     H15572   2.450   3.012   6.061 -2.6487  0.3035 -0.6398
  118MOL0     H15573   2.518   2.972   5.895 -2.2873 -0.4616 -0.9118
  118MOL0     H15574   2.709   3.331   6.022 -0.4156  0.2745  4.3611
  118MOL0     H15575   1.956   3.228   6.150 -0.5566 -1.5819  0.7180
  118MOL0     H15576   1.717   3.265   6.170 -1.5372 -2.4326 -0.2199
  119MOL0     O15577   5.705   4.899   2.781 -0.3434  0.5541 -0.1899
  119MOL0     C15578   5.768   4.802   2.739  0.1591  0.5234  0.7378
  119MOL0     O15579   5.720   4.692   2.676 -0.3795 -0.7568 -0.3746
  119MOL0     C15580   5.598   4.647   2.649  0.5889 -1.1676 -0.4001
  119MOL0     C15581   5.478   4.722   2.677 -0.2478  0.1348  0.0465
  119MOL0     C15582   5.354   4.670   2.644 -0.3406  0.3310  0.4437
  119MOL0     C15583   5.337   4.551   2.573 -0.3241  0.8393 -0.6571
  119MOL0     O15584   5.217   4.503   2.534 -0.0314  0.1555 -0.5763
  119MOL0     C15585   5.100   4.586   2.521 -1.1956  0.0701  0.2065
  119MOL0     C15586   4.974   4.515   2.472 -0.5526  0.0918 -0.4796
  119MOL0     C15587   4.943   4.379   2.534  0.2164  0.8699  0.1818
  119MOL0     C15588   4.820   4.318   2.457 -1.0635 -0.7178  0.0500
  119MOL0     C15589   4.681   4.399   2.467  1.0926 -0.4798  0.3819
  119MOL0     C15590   4.583   4.304   2.393 -0.0724  0.1912  0.2486
  119MOL0     C15591   4.451   4.364   2.343 -0.3434 -1.1419 -0.1254
  119MOL0     C15592   4.369   4.247   2.302 -0.7454 -0.4436  0.1517
  119MOL0     N15593   4.244   4.295   2.245 -0.6657 -0.1889 -0.2304
  119MOL0     C15594   4.125   4.255   2.294 -0.2937  0.0346 -0.1634
  119MOL0     C15595   4.040   4.284   2.201  0.9703 -0.1449  0.4565
  119MOL0     C15596   3.891   4.269   2.229  0.7066  0.7999  0.1069
  119MOL0     C15597   3.836   4.398   2.286 -0.1209  0.0976  0.8842
  119MOL0     C15598   3.689   4.395   2.258  0.3829  0.3424 -1.0333
  119MOL0     C15599   3.614   4.518   2.313 -0.4159  0.9464  0.4774
  119MOL0     O15600   3.524   4.476   2.416  0.3616 -0.3322 -0.5438
  119MOL0     C15601   3.395   4.436   2.385  0.5536  0.1215 -0.8664
  119MOL0     C15602   3.344   4.408   2.255  0.0199 -1.2488 -0.0727
  119MOL0     C15603   3.215   4.355   2.244  1.3632  0.0545  0.5301
  119MOL0     C15604   3.132   4.340   2.353  0.4082  0.0591 -0.2053
  119MOL0     C15605   2.995   4.288   2.331 -0.4864 -0.6571 -0.3497
  119MOL0     O15606   2.967   4.240   2.205  0.0060  0.1695  0.0759
  119MOL0     C15607   2.824   4.244   2.176 -0.4293  0.3015 -0.5020
  119MOL0     C15608   2.754   4.363   2.187  0.4249  0.1873 -1.1099
  119MOL0     C15609   2.614   4.358   2.183 -0.8110  0.2690  0.0329
  119MOL0     C15610   2.543   4.235   2.157  0.2262 -0.7343 -0.3935
  119MOL0     O15611   2.402   4.224   2.153 -0.0292  0.1059 -0.0826
  119MOL0     C15612   2.316   4.349   2.174 -0.2484  0.3192  0.3688
  119MOL0     C15613   2.181   4.327   2.091 -0.6486 -0.5861 -0.2792
  119MOL0     C15614   2.096   4.219   2.161 -0.1225 -0.7088  0.9934
  119MOL0     C15615   1.956   4.224   2.102 -0.4673  0.7552 -0.3187
  119MOL0     C15616   1.884   4.116   2.179  0.5306  0.2670 -0.5616
  119MOL0     C15617   1.767   4.076   2.089 -0.0218  0.0450  0.7224
  119MOL0     C15618   1.674   3.955   2.137 -0.1022 -0.4795 -0.2492
  119MOL0     C15619   1.645   3.986   2.287 -0.0351  0.1023  0.2512
  119MOL0    Cl15620   1.528   3.867   2.345  0.0602 -0.3492  0.1489
  119MOL0     C15621   2.617   4.121   2.136 -0.7498  0.2128  0.0725
  119MOL0     C15622   2.761   4.121   2.150  0.4074 -0.1017  0.4580
  119MOL0     O15623   2.914   4.321   2.426 -0.9063  1.0819  0.1283
  119MOL0     C15624   3.177   4.380   2.481 -0.0841  0.2316  0.3720
  119MOL0     C15625   3.309   4.426   2.494 -0.3606 -0.7053 -0.4453
  119MOL0     N15626   4.106   4.360   2.096 -0.0520 -0.3532 -0.2614
  119MOL0     N15627   4.234   4.353   2.125  0.4482 -0.9401  0.2166
  119MOL0     C15628   5.450   4.476   2.543 -0.7903  0.3033 -0.3207
  119MOL0     C15629   5.575   4.522   2.580 -1.0585 -0.4849 -0.2737
  119MOL0     C15630   5.913   4.815   2.742  1.1223  0.0127 -0.9557
  119MOL0     C15631   5.967   4.943   2.771  0.0918 -0.3069 -0.2540
  119MOL0     C15632   6.103   4.966   2.752 -0.2716 -0.1203  0.3352
  119MOL0     C15633   6.185   4.853   2.716  0.7121 -0.0206 -0.2665
  119MOL0     O15634   6.327   4.874   2.704  0.1401 -0.8640 -0.6789
  119MOL0     C15635   6.418   4.766   2.729  0.1141 -0.3088  0.2183
  119MOL0     C15636   6.409   4.705   2.873 -0.1454 -0.7373 -0.2549
  119MOL0     C15637   6.498   4.783   2.977 -0.4285 -0.3614 -0.0799
  119MOL0     C15638   6.646   4.735   2.957 -0.0719  0.1944  0.0246
  119MOL0     C15639   6.734   4.806   3.051  0.9884 -1.0182  0.3791
  119MOL0     C15640   6.808   4.849   3.135  0.4775  0.7961 -0.6553
  119MOL0     C15641   6.130   4.731   2.694  0.1206 -0.0964 -0.1055
  119MOL0     C15642   5.996   4.711   2.703  0.5804 -0.5498 -0.1412
  119MOL0     H15643   5.489   4.824   2.714  3.0138 -0.6939  1.7394
  119MOL0     H15644   5.262   4.722   2.670 -1.3623 -0.7948 -0.7646
  119MOL0     H15645   5.117   4.672   2.456 -0.6148  0.2404  0.5777
  119MOL0     H15646   5.078   4.618   2.623 -0.0395 -2.3194  1.2737
  119MOL0     H15647   5.001   4.510   2.366  1.3597  2.9234 -0.2167
  119MOL0     H15648   4.880   4.568   2.493 -1.1595 -1.2996  0.4891
  119MOL0     H15649   4.911   4.380   2.639 -0.8779 -0.9117 -0.0956
  119MOL0     H15650   5.029   4.313   2.521  0.0705  0.4040  1.4755
  119MOL0     H15651   4.865   4.308   2.358  4.0713  0.7804  1.8621
  119MOL0     H15652   4.815   4.217   2.501 -0.8431 -0.1095  1.5342
  119MOL0     H15653   4.677   4.496   2.416 -0.2547 -1.6994 -2.0001
  119MOL0     H15654   4.643   4.409   2.569 -0.5246  2.1690 -0.3810
  119MOL0     H15655   4.554   4.225   2.463  2.6260  0.8588  2.2742
  119MOL0     H15656   4.637   4.257   2.311 -0.7291  2.5646 -1.6306
  119MOL0     H15657   4.400   4.411   2.427  0.0391 -0.6014 -0.1866
  119MOL0     H15658   4.475   4.442   2.271  0.6457  1.1919  2.5397
  119MOL0     H15659   4.334   4.187   2.387 -2.9794  2.2290  1.2703
  119MOL0     H15660   4.427   4.185   2.232 -0.5888 -0.2497  0.1081
  119MOL0     H15661   4.110   4.213   2.393 -1.3751  0.8964  0.0583
  119MOL0     H15662   3.849   4.184   2.284 -3.7403 -0.7963 -4.9090
  119MOL0     H15663   3.846   4.243   2.133  0.5183  0.0855  0.3736
  119MOL0     H15664   3.872   4.491   2.241 -0.0804  1.5363  3.6767
  119MOL0     H15665   3.857   4.398   2.394 -0.0892 -3.1190  0.9644
  119MOL0     H15666   3.667   4.403   2.151 -1.5098  0.9913 -0.6343
  119MOL0     H15667   3.640   4.311   2.308  0.1423  2.3519  2.4637
  119MOL0     H15668   3.552   4.571   2.240  0.9782  1.0639 -0.6666
  119MOL0     H15669   3.687   4.589   2.354  1.6844  0.0306 -1.4751
  119MOL0     H15670   3.410   4.432   2.172  0.4518  2.7616  1.2054
  119MOL0     H15671   3.180   4.328   2.145  0.7938 -1.4113  1.1057
  119MOL0     H15672   2.803   4.459   2.195 -1.8259  1.3988 -1.2404
  119MOL0     H15673   2.556   4.447   2.205  1.3782  2.0452 -1.0093
  119MOL0     H15674   2.360   4.442   2.137  0.0841 -0.2636 -0.7570
  119MOL0     H15675   2.296   4.373   2.279  1.6069  0.7349  0.6691
  119MOL0     H15676   2.203   4.281   1.995  2.1155 -0.9049  0.4263
  119MOL0     H15677   2.131   4.422   2.070 -0.8812 -0.4251  0.8795
  119MOL0     H15678   2.089   4.247   2.266 -0.8661  0.7650  0.5716
  119MOL0     H15679   2.151   4.125   2.145 -0.7508 -1.0994  1.1146
  119MOL0     H15680   1.908   4.321   2.119 -1.3199  0.6264 -1.8438
  119MOL0     H15681   1.965   4.208   1.995  2.4835  0.3923 -0.1158
  119MOL0     H15682   1.856   4.165   2.273 -0.8981  2.8878 -2.2219
  119MOL0     H15683   1.945   4.030   2.209 -0.1864 -0.0856 -0.0860
  119MOL0     H15684   1.787   4.046   1.985  0.2791 -3.2745  1.6248
  119MOL0     H15685   1.707   4.167   2.075  3.9288  2.5766 -1.8674
  119MOL0     H15686   1.587   3.949   2.072  0.5801  2.1060 -1.5117
  119MOL0     H15687   1.723   3.857   2.149 -1.7951 -1.1806  1.7011
  119MOL0     H15688   1.612   4.090   2.295 -0.5088  0.0212 -0.5278
  119MOL0     H15689   1.735   3.978   2.348 -0.5346 -1.1637  0.8647
  119MOL0     H15690   2.566   4.028   2.111 -0.7262 -0.0653  1.0068
  119MOL0     H15691   2.812   4.026   2.143 -0.7654 -0.6695 -0.5826
  119MOL0     H15692   3.121   4.363   2.572  0.6954 -0.7282  0.6966
  119MOL0     H15693   3.346   4.469   2.587  0.0660  0.7648 -1.2804
  119MOL0     H15694   5.444   4.382   2.489  2.3951 -0.9164  1.1847
  119MOL0     H15695   5.662   4.462   2.553 -1.4659 -1.3213  0.2321
  119MOL0     H15696   5.908   5.032   2.793 -1.3220 -0.9675 -1.1985
  119MOL0     H15697   6.159   5.058   2.758 -1.2056  0.3793  1.8701
  119MOL0     H15698   6.517   4.808   2.709  0.5204  0.8924  4.0662
  119MOL0     H15699   6.399   4.684   2.659 -2.3846  0.0175  0.4496
  119MOL0     H15700   6.307   4.703   2.913  0.5800 -5.4001  1.9350
  119MOL0     H15701   6.428   4.599   2.859 -2.0117 -1.1360 -0.0142
  119MOL0     H15702   6.460   4.762   3.077  0.5555 -0.6533  0.2398
  119MOL0     H15703   6.486   4.890   2.961  0.7289 -0.2153 -0.0267
  119MOL0     H15704   6.660   4.628   2.971  3.0719  0.7035  1.7573
  119MOL0     H15705   6.679   4.747   2.853 -1.7371 -1.3890 -0.7298
  119MOL0     H15706   6.874   4.889   3.210  2.2317 -1.4086 -0.8910
  119MOL0     H15707   6.178   4.640   2.658  0.7819 -0.2236  1.0372
  119MOL0     H15708   5.959   4.613   2.671 -2.3935  0.1176  0.8786
  120MOL0     O15709   3.811   3.558   6.991  0.2754  0.7999 -0.3253
  120MOL0     C15710   3.843   3.459   7.066 -0.7882  0.3915  0.1129
  120MOL0     O15711   3.778   3.330   7.085 -0.3150  0.0578 -0.2670
  120MOL0     C15712   3.665   3.306   7.015  1.0361  0.6206  0.6452
  120MOL0     C15713   3.571   3.219   7.075  1.1104  0.5673  0.1601
  120MOL0     C15714   3.448   3.183   7.018 -1.4845 -0.8494 -0.3919
  120MOL0     C15715   3.413   3.230   6.893 -1.0188  0.4052  1.0094
  120MOL0     O15716   3.286   3.193   6.844  0.5475  0.1717  0.3742
  120MOL0     C15717   3.268   3.207   6.703  0.1740  0.1419  0.3609
  120MOL0     C15718   3.148   3.118   6.666 -0.5130  0.1878 -0.2936
  120MOL0     C15719   3.087   3.145   6.530  0.6675  0.3577 -0.3253
  120MOL0     C15720   2.938   3.087   6.540  0.2711 -0.2326 -0.1282
  120MOL0     C15721   2.930   2.939   6.590  0.6802 -0.1459  0.0445
  120MOL0     C15722   2.788   2.877   6.566 -0.0526  0.0859  0.7546
  120MOL0     C15723   2.783   2.722   6.596 -0.0301 -0.6807  0.1633
  120MOL0     C15724   2.802   2.695   6.739 -0.4967  0.4708 -0.1504
  120MOL0     N15725   2.762   2.562   6.789  0.1795 -0.2919  0.6009
  120MOL0     C15726   2.630   2.539   6.820 -0.0454  0.3913 -0.1463
  120MOL0     C15727   2.626   2.411   6.860  0.4088  0.3917 -0.4869
  120MOL0     C15728   2.500   2.336   6.895 -0.6212  0.0044 -0.2528
  120MOL0     C15729   2.390   2.421   6.970  0.1629  0.3268  0.8586
  120MOL0     C15730   2.434   2.518   7.079  0.3558  0.2949 -1.0000
  120MOL0     C15731   2.328   2.537   7.195  0.2078  0.2940 -0.2865
  120MOL0     O15732   2.226   2.624   7.126  0.1552 -0.7242 -0.5702
  120MOL0     C15733   2.136   2.706   7.191 -1.2839  0.6309  0.1299
  120MOL0     C15734   2.111   2.695   7.330 -0.3035  0.7041  1.0577
  120MOL0     C15735   2.017   2.781   7.386 -1.3291  0.1869  0.0777
  120MOL0     C15736   1.949   2.878   7.304  0.4297  0.1705 -0.8403
  120MOL0     C15737   1.857   2.972   7.373  0.2589 -0.1143  0.8984
  120MOL0     O15738   1.867   2.978   7.511 -0.0734  0.8368 -0.1801
  120MOL0     C15739   1.750   3.002   7.576  0.1975  0.0817 -0.5463
  120MOL0     C15740   1.674   2.897   7.607 -0.3928  0.2346 -0.0359
  120MOL0     C15741   1.562   2.905   7.692  0.0452  0.0095 -0.1377
  120MOL0     C15742   1.533   3.024   7.754  0.4630 -0.1428 -0.0976
  120MOL0     O15743   1.428   3.046   7.849 -0.6466  0.2159  0.3673
  120MOL0     C15744   1.295   3.072   7.788  0.4248  1.1431  0.0583
  120MOL0     C15745   1.179   3.007   7.863  0.0028 -0.2384  0.1206
  120MOL0     C15746   1.043   3.060   7.821 -0.5779 -0.1234 -0.8748
  120MOL0     C15747   0.930   2.994   7.900  0.4158  0.1277 -0.0141
  120MOL0     C15748   0.785   3.025   7.865  0.1815  0.0263 -0.3223
  120MOL0     C15749   0.740   3.162   7.888  0.2119  0.0405  0.1936
  120MOL0     C15750   0.597   3.183   7.831  0.3960  0.3812 -0.0545
  120MOL0     C15751   0.549   3.328   7.830 -0.0063 -0.0707 -0.2900
  120MOL0    Cl15752   0.551   3.390   8.003  0.0605 -0.1696  0.0247
  120MOL0     C15753   1.614   3.137   7.715 -0.6987 -0.7165 -0.0737
  120MOL0     C15754   1.723   3.123   7.633  0.3404  0.2088  0.3676
  120MOL0     O15755   1.778   3.029   7.306 -0.0096 -0.2247 -0.4887
  120MOL0     C15756   1.975   2.885   7.165 -0.0547  0.0883 -0.9006
  120MOL0     C15757   2.072   2.801   7.110 -0.0662  1.0232 -0.3185
  120MOL0     N15758   2.758   2.366   6.865  0.3097 -0.3243  0.0529
  120MOL0     N15759   2.837   2.457   6.831 -0.6777  1.0721  0.6788
  120MOL0     C15760   3.508   3.307   6.825 -0.0312 -0.2484 -0.1297
  120MOL0     C15761   3.626   3.344   6.890  0.0519  0.9539  0.6400
  120MOL0     C15762   3.952   3.492   7.163  0.3450 -0.1357 -0.0656
  120MOL0     C15763   4.008   3.392   7.238 -0.1309  0.0452 -0.2779
  120MOL0     C15764   4.123   3.420   7.320  0.9563  0.3046 -0.7869
  120MOL0     C15765   4.156   3.546   7.345 -0.2933 -0.1465 -0.1026
  120MOL0     O15766   4.241   3.565   7.459  0.1607  0.6958 -0.3555
  120MOL0     C15767   4.317   3.687   7.461  0.1604 -0.7214  0.2902
  120MOL0     C15768   4.458   3.663   7.517 -0.1402  0.0971  0.0390
  120MOL0     C15769   4.553   3.783   7.534 -0.1810 -0.7882 -0.0168
  120MOL0     C15770   4.560   3.854   7.671  1.0260 -0.5230  0.1087
  120MOL0     C15771   4.649   3.974   7.667  0.4799 -0.6975  0.0814
  120MOL0     C15772   4.718   4.072   7.666  0.3669  0.1407  0.1748
  120MOL0     C15773   4.101   3.653   7.266 -0.2091  0.1639  0.8241
  120MOL0     C15774   4.010   3.624   7.167  0.1767 -0.4086 -0.0961
  120MOL0     H15775   3.617   3.190   7.169  0.4611 -1.3146 -0.0700
  120MOL0     H15776   3.389   3.119   7.082  1.0746  0.0130  3.1750
  120MOL0     H15777   3.351   3.162   6.649 -1.6795 -3.6755  0.3616
  120MOL0     H15778   3.255   3.310   6.669  1.0039 -0.0625 -0.6314
  120MOL0     H15779   3.069   3.133   6.740 -2.0267 -1.3855 -1.5022
  120MOL0     H15780   3.181   3.015   6.682  1.8541  1.0879  1.1451
  120MOL0     H15781   3.146   3.097   6.452  0.4992  0.3328 -0.4383
  120MOL0     H15782   3.095   3.252   6.509  1.9827  0.6300  1.2783
  120MOL0     H15783   2.879   3.146   6.611 -1.9090 -0.2147 -1.8421
  120MOL0     H15784   2.888   3.107   6.445 -1.5710  0.7935  1.0045
  120MOL0     H15785   2.947   2.934   6.698  1.3867  1.3439  0.0346
  120MOL0     H15786   3.005   2.873   6.546  1.7487  0.9826  0.1244
  120MOL0     H15787   2.777   2.892   6.458 -0.6555 -0.7193  0.6971
  120MOL0     H15788   2.713   2.940   6.615 -0.0967 -0.4207  1.3467
  120MOL0     H15789   2.684   2.685   6.567 -0.1518 -0.8454  0.7749
  120MOL0     H15790   2.847   2.673   6.522 -0.1703 -2.3727  1.1043
  120MOL0     H15791   2.749   2.770   6.798  1.9754  2.0125  0.2738
  120MOL0     H15792   2.909   2.715   6.755 -0.1440 -0.7137 -0.8821
  120MOL0     H15793   2.549   2.611   6.811 -1.1202 -0.6365  0.8702
  120MOL0     H15794   2.528   2.244   6.948  1.5093  0.6240 -0.2047
  120MOL0     H15795   2.464   2.301   6.798  1.9088  0.1118 -1.3131
  120MOL0     H15796   2.316   2.349   7.008 -1.7883  0.3479 -2.4432
  120MOL0     H15797   2.337   2.471   6.889  2.0037 -1.1392 -1.3838
  120MOL0     H15798   2.523   2.477   7.129  1.1846  2.9694 -0.0728
  120MOL0     H15799   2.471   2.612   7.037 -0.1759 -0.0149 -2.2020
  120MOL0     H15800   2.360   2.595   7.282 -3.5346  2.4681 -0.1526
  120MOL0     H15801   2.283   2.445   7.234  1.5734 -0.0439  0.5713
  120MOL0     H15802   2.157   2.617   7.390 -1.0783 -3.0394 -2.7344
  120MOL0     H15803   1.990   2.777   7.491 -1.7690 -4.5292 -0.0095
  120MOL0     H15804   1.709   2.800   7.573  0.1506 -0.6798  2.8524
  120MOL0     H15805   1.516   2.809   7.711 -4.5699  1.7275 -1.3683
  120MOL0     H15806   1.289   3.037   7.684  0.4060 -1.2368  0.8048
  120MOL0     H15807   1.285   3.181   7.791  2.2621  1.4513 -1.9633
  120MOL0     H15808   1.187   3.035   7.968 -0.4295  3.1500 -0.6274
  120MOL0     H15809   1.183   2.897   7.863  1.3773 -0.2041  0.4306
  120MOL0     H15810   1.035   3.043   7.713  1.5363  1.6163 -1.3793
  120MOL0     H15811   1.051   3.167   7.841 -1.5390 -0.4198  1.3420
  120MOL0     H15812   0.949   2.886   7.903  1.3473  0.2991  0.8739
  120MOL0     H15813   0.944   3.032   8.001  0.5980  0.2580 -0.0875
  120MOL0     H15814   0.713   2.961   7.915 -2.7674 -1.4507 -5.6856
  120MOL0     H15815   0.771   3.000   7.759 -2.0816 -1.5024  0.2877
  120MOL0     H15816   0.802   3.238   7.839 -0.3990 -0.0440 -0.7334
  120MOL0     H15817   0.737   3.191   7.993  2.9667  0.9868  0.0879
  120MOL0     H15818   0.590   3.139   7.731  0.2122 -1.3565  0.6873
  120MOL0     H15819   0.534   3.116   7.889  0.4221  0.2975 -0.1218
  120MOL0     H15820   0.446   3.339   7.795  0.3950  1.0477 -1.2035
  120MOL0     H15821   0.606   3.400   7.770 -0.1975  0.2140 -0.1327
  120MOL0     H15822   1.584   3.232   7.756 -1.3289 -0.4974 -1.0042
  120MOL0     H15823   1.794   3.201   7.610  1.0770 -0.7167 -0.6282
  120MOL0     H15824   1.933   2.963   7.102 -0.7037 -0.1399 -0.7603
  120MOL0     H15825   2.102   2.820   7.007 -2.8206  0.6821 -1.2575
  120MOL0     H15826   3.493   3.357   6.729  3.1622 -1.4191 -1.3573
  120MOL0     H15827   3.691   3.420   6.848 -1.5986  0.9319 -2.2360
  120MOL0     H15828   3.974   3.289   7.241 -2.9188  0.9066  2.2246
  120MOL0     H15829   4.171   3.347   7.384  0.1662 -1.7530 -2.4440
  120MOL0     H15830   4.260   3.756   7.524  0.8256 -0.6747  0.8527
  120MOL0     H15831   4.335   3.727   7.361 -0.4588 -1.4594 -0.1281
  120MOL0     H15832   4.450   3.611   7.612 -1.6669 -0.5710 -0.4278
  120MOL0     H15833   4.508   3.600   7.443 -1.1259 -1.3812  0.5891
  120MOL0     H15834   4.535   3.864   7.462  1.2755 -0.4008  0.0233
  120MOL0     H15835   4.653   3.740   7.521  0.0120 -0.0938 -0.9333
  120MOL0     H15836   4.458   3.881   7.700  1.3411 -0.0256  0.7858
  120MOL0     H15837   4.596   3.783   7.746 -0.1631 -1.9985 -0.6541
  120MOL0     H15838   4.772   4.163   7.647  2.2437 -0.3912  2.4409
  120MOL0     H15839   4.131   3.756   7.278 -0.7260  0.4644 -0.3324
  120MOL0     H15840   3.976   3.707   7.106  0.9512 -0.9377 -1.2635
  121MOL0     O15841   8.290   7.135   0.182  0.1246  0.6977 -0.1082
  121MOL0     C15842   8.291   7.014   0.169  0.1565  0.9270 -0.1715
  121MOL0     O15843   8.213   6.925   0.250 -0.4312  0.4583 -0.4246
  121MOL0     C15844   8.136   6.977   0.347 -0.4996  0.7599  0.1249
  121MOL0     C15845   8.182   7.037   0.458  0.6283  0.5149  0.1327
  121MOL0     C15846   8.095   7.070   0.564 -0.2240 -0.4250  0.4561
  121MOL0     C15847   7.962   7.055   0.554  0.0799  0.3518 -0.3024
  121MOL0     O15848   7.866   7.096   0.647  0.0341  0.5921  0.2489
  121MOL0     C15849   7.903   7.192   0.742  0.2144  1.1008  0.2732
  121MOL0     C15850   7.794   7.177   0.854  0.7335  0.0740 -0.3458
  121MOL0     C15851   7.660   7.235   0.810 -0.4674  1.2577 -0.3668
  121MOL0     C15852   7.567   7.257   0.928 -0.9070 -0.8367 -0.1247
  121MOL0     C15853   7.432   7.319   0.900 -0.7462 -0.3685  0.0554
  121MOL0     C15854   7.337   7.200   0.868 -0.7844 -0.0569 -0.7100
  121MOL0     C15855   7.186   7.227   0.880  0.3302  0.3106 -0.0557
  121MOL0     C15856   7.098   7.110   0.820 -0.2671  0.2818  0.2935
  121MOL0     N15857   6.957   7.142   0.827  0.0753 -0.5938 -0.2736
  121MOL0     C15858   6.887   7.243   0.770 -0.1432 -0.7757 -0.1303
  121MOL0     C15859   6.758   7.225   0.823 -0.0976 -0.3789  0.6098
  121MOL0     C15860   6.639   7.326   0.822  0.9459  0.4956 -0.6006
  121MOL0     C15861   6.533   7.315   0.708 -0.1010 -0.0215  1.1182
  121MOL0     C15862   6.412   7.408   0.721 -0.2218  0.1757 -0.7125
  121MOL0     C15863   6.304   7.396   0.615 -0.0597  0.4323  0.2112
  121MOL0     O15864   6.349   7.365   0.482 -0.1570 -0.1948  0.4215
  121MOL0     C15865   6.247   7.320   0.398 -0.6029  0.0595  0.5232
  121MOL0     C15866   6.210   7.394   0.295  0.1228 -0.6583  0.8283
  121MOL0     C15867   6.107   7.357   0.202 -0.4453  0.3130 -0.1439
  121MOL0     C15868   6.034   7.237   0.220  0.1611 -1.4423 -0.0568
  121MOL0     C15869   5.927   7.197   0.125  0.9910 -0.0306  0.8934
  121MOL0     O15870   5.886   7.283   0.026 -0.6830  0.0335 -0.5614
  121MOL0     C15871   5.783   7.254  -0.060  0.0332  0.2773 -0.0230
  121MOL0     C15872   5.669   7.179  -0.026 -0.5969  0.4139  0.4403
  121MOL0     C15873   5.561   7.160  -0.114  0.0177 -0.5580 -0.0877
  121MOL0     C15874   5.572   7.206  -0.246 -1.1884  0.6959  0.4999
  121MOL0     O15875   5.477   7.162  -0.337  0.5048  0.2858 -0.1554
  121MOL0     C15876   5.487   7.187  -0.472  0.5282 -0.8797 -0.5339
  121MOL0     C15877   5.364   7.133  -0.545 -0.2981  0.0540  0.3593
  121MOL0     C15878   5.241   7.204  -0.500  0.4061  0.3841 -0.3781
  121MOL0     C15879   5.104   7.160  -0.558 -0.1175 -0.0745 -1.0157
  121MOL0     C15880   4.994   7.261  -0.535  0.5567  1.3435 -0.3447
  121MOL0     C15881   4.865   7.207  -0.596 -0.1791 -0.7189  0.1519
  121MOL0     C15882   4.877   7.176  -0.751 -0.1388  0.5254  0.1289
  121MOL0     C15883   4.737   7.138  -0.812 -0.2522  0.1577 -0.5257
  121MOL0    Cl15884   4.618   7.245  -0.753  0.2667  0.3552 -0.0173
  121MOL0     C15885   5.681   7.285  -0.277  0.7569 -0.3995  0.2611
  121MOL0     C15886   5.788   7.306  -0.189  0.3331 -0.8063  0.0033
  121MOL0     O15887   5.873   7.086   0.138  0.0969 -0.4306 -0.0238
  121MOL0     C15888   6.074   7.155   0.328 -0.2911 -0.3674 -0.1440
  121MOL0     C15889   6.173   7.198   0.417 -0.4175  0.3331  0.8735
  121MOL0     N15890   6.757   7.112   0.904 -0.5888  0.0746  0.4229
  121MOL0     N15891   6.880   7.074   0.913  0.0785 -0.5565 -0.1924
  121MOL0     C15892   7.911   7.005   0.427 -0.2331 -0.7362 -0.8752
  121MOL0     C15893   7.998   6.959   0.336  0.2699  0.1139 -0.9224
  121MOL0     C15894   8.383   6.940   0.074 -0.3737 -0.3367 -0.3875
  121MOL0     C15895   8.432   7.003  -0.041  0.1799 -1.1577  0.1836
  121MOL0     C15896   8.508   6.939  -0.131  0.1261  0.1929 -0.1756
  121MOL0     C15897   8.548   6.802  -0.114 -0.5811 -0.2205  0.4707
  121MOL0     O15898   8.636   6.737  -0.203 -0.1994  0.4520 -0.3332
  121MOL0     C15899   8.751   6.696  -0.143 -0.5111 -0.8174 -0.0227
  121MOL0     C15900   8.853   6.658  -0.254 -0.1659 -0.5922 -0.5200
  121MOL0     C15901   8.816   6.673  -0.400  1.5143 -0.0004  0.2605
  121MOL0     C15902   8.935   6.697  -0.488 -0.2540 -0.7689  0.8241
  121MOL0     C15903   8.899   6.703  -0.628  0.0610  1.0204  0.9135
  121MOL0     C15904   8.879   6.699  -0.746 -0.0594  1.4411 -0.0156
  121MOL0     C15905   8.504   6.735   0.000  1.1316  0.2735  0.0077
  121MOL0     C15906   8.428   6.807   0.102 -0.2394 -0.1233  0.2387
  121MOL0     H15907   8.286   7.068   0.455 -0.0988  3.3864 -4.2454
  121MOL0     H15908   8.139   7.100   0.659 -3.0348  2.8860  0.8690
  121MOL0     H15909   7.894   7.288   0.691 -0.8678 -0.1132 -1.9747
  121MOL0     H15910   8.000   7.170   0.788  0.2301 -2.2287 -1.0616
  121MOL0     H15911   7.832   7.242   0.933  0.8697 -0.2783 -0.1226
  121MOL0     H15912   7.781   7.072   0.879 -3.4401 -0.2567 -2.9696
  121MOL0     H15913   7.609   7.161   0.747  0.0568  1.1618 -0.6869
  121MOL0     H15914   7.678   7.327   0.753 -2.0077  0.6554 -1.9074
  121MOL0     H15915   7.555   7.175   1.000  2.5758  0.6903  2.5236
  121MOL0     H15916   7.616   7.331   0.992 -1.7514  0.1755 -0.6289
  121MOL0     H15917   7.438   7.385   0.812 -0.6290 -0.1239  0.2457
  121MOL0     H15918   7.382   7.373   0.981  1.7277  1.6671  0.3429
  121MOL0     H15919   7.356   7.120   0.940  2.1139  1.8193  0.7953
  121MOL0     H15920   7.367   7.165   0.769  4.3172 -0.0828  0.5789
  121MOL0     H15921   7.167   7.230   0.988  0.1565 -1.0570 -0.0370
  121MOL0     H15922   7.172   7.319   0.822  1.8492  0.7314  0.1994
  121MOL0     H15923   7.115   7.012   0.865  2.0643  0.6934  0.4344
  121MOL0     H15924   7.123   7.105   0.713 -0.3951 -2.8757  0.3231
  121MOL0     H15925   6.908   7.321   0.698 -1.5146  1.3085  1.5881
  121MOL0     H15926   6.672   7.429   0.802  0.8807  0.3975 -1.2611
  121MOL0     H15927   6.591   7.321   0.920  0.4906  1.8177 -0.7317
  121MOL0     H15928   6.504   7.213   0.683  0.7688  0.1395 -0.7330
  121MOL0     H15929   6.587   7.342   0.617  2.3707 -0.9757  2.2155
  121MOL0     H15930   6.375   7.383   0.820 -1.5234  1.2579 -0.8960
  121MOL0     H15931   6.439   7.514   0.722  2.4212 -0.4464  0.2171
  121MOL0     H15932   6.232   7.478   0.619  0.4936  0.8654  1.8686
  121MOL0     H15933   6.259   7.303   0.650 -1.3057 -0.4611 -3.3529
  121MOL0     H15934   6.266   7.482   0.266  0.5782 -1.8308 -2.2362
  121MOL0     H15935   6.099   7.422   0.116  1.7910  0.3202 -0.4170
  121MOL0     H15936   5.671   7.132   0.072  1.2080 -1.7132 -0.5256
  121MOL0     H15937   5.468   7.115  -0.083  0.8373 -1.9930  0.3625
  121MOL0     H15938   5.579   7.139  -0.505  0.2106 -0.2226 -2.5093
  121MOL0     H15939   5.500   7.293  -0.494  0.3515 -0.5233  0.9670
  121MOL0     H15940   5.361   7.024  -0.537 -1.3555  0.0639  0.2048
  121MOL0     H15941   5.377   7.153  -0.652  0.1836  0.0439  0.4140
  121MOL0     H15942   5.262   7.302  -0.543  1.9889 -0.7375 -2.3282
  121MOL0     H15943   5.228   7.210  -0.391 -2.2536  0.5245 -0.6433
  121MOL0     H15944   5.124   7.110  -0.653  2.0893 -2.6274  0.6478
  121MOL0     H15945   5.067   7.077  -0.498 -3.3621  1.1708 -1.1147
  121MOL0     H15946   5.032   7.347  -0.592  2.9267  0.0191 -0.8416
  121MOL0     H15947   4.988   7.281  -0.428  0.4331  3.0312 -0.6262
  121MOL0     H15948   4.790   7.283  -0.571  2.0539  1.8673 -0.4420
  121MOL0     H15949   4.847   7.110  -0.551  2.3366 -1.7491 -0.9002
  121MOL0     H15950   4.923   7.269  -0.785  2.9324 -0.0405  2.4004
  121MOL0     H15951   4.947   7.096  -0.776 -1.6899 -0.2207 -2.2128
  121MOL0     H15952   4.715   7.034  -0.785  4.6233 -1.5552 -2.1705
  121MOL0     H15953   4.735   7.144  -0.921 -0.2264 -0.4350 -0.5626
  121MOL0     H15954   5.698   7.337  -0.371  0.6503 -0.3553  0.2668
  121MOL0     H15955   5.881   7.359  -0.205  0.1102 -0.1417  0.8293
  121MOL0     H15956   6.033   7.054   0.334  2.2140 -1.3769  1.4982
  121MOL0     H15957   6.182   7.134   0.504 -1.1851  1.0655  1.5167
  121MOL0     H15958   7.804   6.990   0.416 -0.0822 -3.0711  0.2892
  121MOL0     H15959   7.962   6.912   0.245 -2.3369  1.8527 -0.9089
  121MOL0     H15960   8.423   7.111  -0.042 -0.5630 -1.1946  1.1412
  121MOL0     H15961   8.563   6.987  -0.211  1.0877  0.3547  0.5564
  121MOL0     H15962   8.737   6.605  -0.085 -0.2974 -0.4662  0.5942
  121MOL0     H15963   8.799   6.776  -0.086  1.1793 -2.0473  0.3385
  121MOL0     H15964   8.941   6.718  -0.231 -0.7193 -0.9965  3.2391
  121MOL0     H15965   8.889   6.555  -0.247  1.3352 -0.0148  0.7977
  121MOL0     H15966   8.748   6.758  -0.408  0.8463 -0.1433  3.2416
  121MOL0     H15967   8.770   6.586  -0.446  2.1822  0.9975 -2.4622
  121MOL0     H15968   8.977   6.793  -0.459 -2.3358  1.2068 -2.1006
  121MOL0     H15969   9.011   6.624  -0.459 -0.4655 -1.0867  0.5859
  121MOL0     H15970   8.860   6.688  -0.851 -2.9814 -4.4335  0.6835
  121MOL0     H15971   8.524   6.633   0.031 -0.8495 -0.3167 -0.5051
  121MOL0     H15972   8.390   6.762   0.193 -1.5611 -0.5495 -0.4864
  122MOL0     O15973   7.849   4.366   7.648  0.1793  0.1503 -0.1706
  122MOL0     C15974   7.877   4.438   7.747 -0.8146  0.0811  0.2719
  122MOL0     O15975   7.790   4.511   7.824 -0.6442 -0.4130  0.2757
  122MOL0     C15976   7.664   4.475   7.797  0.0376 -0.6155  0.4268
  122MOL0     C15977   7.590   4.534   7.694  0.3235  0.1703 -0.0381
  122MOL0     C15978   7.465   4.497   7.661  0.1413  0.1173 -0.6985
  122MOL0     C15979   7.409   4.381   7.721  0.0641 -0.5694 -0.1605
  122MOL0     O15980   7.288   4.332   7.697  0.4596  0.1256 -0.6980
  122MOL0     C15981   7.223   4.333   7.570 -0.6458 -0.9814  0.4533
  122MOL0     C15982   7.113   4.221   7.566  0.1173 -1.0340  0.5670
  122MOL0     C15983   7.046   4.205   7.429 -0.2030  0.3912  0.0363
  122MOL0     C15984   6.985   4.068   7.401  0.1382 -0.6903  0.0341
  122MOL0     C15985   6.925   4.072   7.256 -0.0255 -0.0294  1.1116
  122MOL0     C15986   7.008   4.013   7.140  1.5262 -1.4031 -0.3793
  122MOL0     C15987   7.089   3.892   7.190 -0.2691  0.5547  0.2251
  122MOL0     C15988   7.223   3.935   7.241 -0.5715  0.2714  0.2629
  122MOL0     N15989   7.307   3.987   7.134 -0.0860 -0.4263 -0.4256
  122MOL0     C15990   7.363   3.920   7.028 -0.3594  0.9159  0.3302
  122MOL0     C15991   7.450   4.001   6.974 -0.1140 -0.3196  1.1759
  122MOL0     C15992   7.555   3.970   6.860  1.0125 -0.1658 -0.0876
  122MOL0     C15993   7.690   4.046   6.888  0.0746  0.6053  0.0525
  122MOL0     C15994   7.796   3.984   6.783  0.8784  0.6398 -0.0845
  122MOL0     C15995   7.930   4.052   6.803 -0.0929  0.0759  0.2536
  122MOL0     O15996   8.012   3.981   6.707 -0.9785 -0.0189  0.3378
  122MOL0     C15997   8.148   4.017   6.714  0.7705 -0.8694  0.4461
  122MOL0     C15998   8.196   4.124   6.800 -0.6713  0.4465  0.0201
  122MOL0     C15999   8.333   4.135   6.824  0.4058 -0.2242  0.3677
  122MOL0     C16000   8.427   4.056   6.758 -0.4875  0.0428 -0.6800
  122MOL0     C16001   8.569   4.070   6.787  0.6226 -0.1000  0.6123
  122MOL0     O16002   8.608   4.128   6.905  0.7991  0.5944 -0.5498
  122MOL0     C16003   8.739   4.104   6.937  0.2190 -0.0174 -0.1913
  122MOL0     C16004   8.839   4.196   6.888  0.4181  0.4385 -0.7610
  122MOL0     C16005   8.973   4.166   6.911  0.1327  0.0372 -0.1077
  122MOL0     C16006   9.009   4.039   6.959 -0.8578  0.2423 -0.1635
  122MOL0     O16007   9.142   4.014   6.955  0.1879 -0.1058 -0.3247
  122MOL0     C16008   9.211   3.941   7.062 -0.3831  0.1116 -0.2371
  122MOL0     C16009   9.338   4.020   7.096 -0.3970 -0.8099  0.3444
  122MOL0     C16010   9.442   4.003   6.986  0.2061  0.2765  0.3306
  122MOL0     C16011   9.522   3.878   6.997 -0.0322  0.4005  0.0569
  122MOL0     C16012   9.592   3.844   6.860  0.5227 -0.1358  0.0261
  122MOL0     C16013   9.699   3.955   6.816 -0.7748  1.1421 -0.1004
  122MOL0     C16014   9.824   3.972   6.905 -0.4164 -0.2001  0.4989
  122MOL0     C16015   9.920   4.066   6.820 -0.1069 -0.2710 -0.8735
  122MOL0    Cl16016  10.054   4.125   6.920  0.2381 -0.0077  0.1064
  122MOL0     C16017   8.908   3.964   7.023  0.1008  0.7699  0.1353
  122MOL0     C16018   8.772   3.990   7.009  0.5431  0.2210 -0.8896
  122MOL0     O16019   8.642   4.036   6.688  1.0239  0.2684  0.2359
  122MOL0     C16020   8.375   3.962   6.668  0.3539 -0.2184 -0.4807
  122MOL0     C16021   8.237   3.943   6.643  0.2207 -0.3900  0.2944
  122MOL0     N16022   7.445   4.119   7.041 -1.1890 -0.1283 -0.2462
  122MOL0     N16023   7.363   4.109   7.141  1.2677  0.2310 -0.1371
  122MOL0     C16024   7.479   4.320   7.824 -0.2371  0.6774 -0.3171
  122MOL0     C16025   7.605   4.368   7.862  0.4712  0.1120 -0.8561
  122MOL0     C16026   8.021   4.434   7.796  0.1067 -0.6300  0.1223
  122MOL0     C16027   8.042   4.453   7.934 -0.3139 -0.6016  0.0322
  122MOL0     C16028   8.171   4.461   7.987  0.0237  0.1087 -0.7374
  122MOL0     C16029   8.287   4.427   7.901 -0.0503  0.0189  0.0153
  122MOL0     O16030   8.419   4.418   7.935 -0.3008  0.1466  0.5433
  122MOL0     C16031   8.467   4.464   8.059  0.4832  0.1778 -0.0161
  122MOL0     C16032   8.603   4.407   8.090 -0.0956  0.1972  0.4751
  122MOL0     C16033   8.597   4.257   8.079 -0.0333 -0.4968 -0.8701
  122MOL0     C16034   8.730   4.190   8.124  0.5472 -0.1433  0.9690
  122MOL0     C16035   8.836   4.195   8.029  0.2171 -0.5823 -0.1149
  122MOL0     C16036   8.920   4.204   7.949 -0.2098 -0.0159 -0.5524
  122MOL0     C16037   8.262   4.410   7.762 -0.2261  0.5114 -1.0264
  122MOL0     C16038   8.131   4.411   7.717 -0.4206 -0.2747 -0.8273
  122MOL0     H16039   7.631   4.620   7.642 -0.4856 -0.6937 -2.2229
  122MOL0     H16040   7.406   4.560   7.595 -0.9222 -0.2293 -0.1002
  122MOL0     H16041   7.287   4.328   7.481 -1.2400  0.6647 -0.0985
  122MOL0     H16042   7.179   4.433   7.574  0.4505 -0.4142 -1.0320
  122MOL0     H16043   7.036   4.248   7.639  0.3684  0.9370  0.1695
  122MOL0     H16044   7.153   4.122   7.589 -0.6449 -1.8709 -1.4639
  122MOL0     H16045   7.117   4.228   7.349 -0.3502  3.1525  0.6049
  122MOL0     H16046   6.964   4.277   7.430  1.1244  1.9683  1.1218
  122MOL0     H16047   7.045   3.981   7.430 -1.4105 -1.3197  1.5321
  122MOL0     H16048   6.901   4.054   7.470 -0.3451  0.2957 -0.3433
  122MOL0     H16049   6.889   4.174   7.241  2.5364  1.8691  5.6188
  122MOL0     H16050   6.841   4.003   7.262 -0.2788  0.3701  2.6456
  122MOL0     H16051   7.065   4.095   7.096 -2.0110  1.7137  0.3711
  122MOL0     H16052   6.946   3.981   7.056 -1.3304  0.4448  0.8596
  122MOL0     H16053   7.030   3.824   7.253  0.5540 -0.3247  0.0696
  122MOL0     H16054   7.095   3.825   7.104 -2.0462 -0.2742  0.6842
  122MOL0     H16055   7.273   3.844   7.274 -1.3334  0.0575  0.8810
  122MOL0     H16056   7.212   4.015   7.314 -1.1199 -1.2396  1.9072
  122MOL0     H16057   7.352   3.814   7.006 -1.4692  1.0078  0.3852
  122MOL0     H16058   7.515   4.009   6.766  0.1929  1.1407  0.7747
  122MOL0     H16059   7.567   3.862   6.859 -0.5845 -0.3842  0.8183
  122MOL0     H16060   7.724   4.031   6.991 -0.2294  4.1119  0.7904
  122MOL0     H16061   7.686   4.155   6.877 -0.1092  0.5075 -0.9739
  122MOL0     H16062   7.812   3.876   6.789  1.5287  0.6358 -1.5129
  122MOL0     H16063   7.764   3.993   6.678 -0.7704  2.2243  0.5037
  122MOL0     H16064   7.963   4.036   6.907  0.2637 -1.0911 -0.0273
  122MOL0     H16065   7.920   4.155   6.767 -1.0613 -0.1373 -0.1024
  122MOL0     H16066   8.128   4.190   6.853 -2.3121 -1.9445  1.0536
  122MOL0     H16067   8.368   4.211   6.894  1.2841  1.9386 -2.2241
  122MOL0     H16068   8.797   4.281   6.836  1.1352  1.1610 -0.1749
  122MOL0     H16069   9.044   4.243   6.882  0.2227  0.1323  0.3522
  122MOL0     H16070   9.235   3.847   7.011  0.9936  1.8654 -3.0916
  122MOL0     H16071   9.141   3.929   7.145 -2.2304 -2.8815 -2.0340
  122MOL0     H16072   9.380   3.995   7.194  2.5381  1.9541 -0.0421
  122MOL0     H16073   9.314   4.126   7.100  1.6971 -0.2604 -0.3793
  122MOL0     H16074   9.503   4.093   6.980  0.1240  0.2308 -2.0488
  122MOL0     H16075   9.389   3.997   6.890 -1.2862  4.2158  0.7127
  122MOL0     H16076   9.591   3.882   7.081 -1.0300 -1.2983  1.0132
  122MOL0     H16077   9.456   3.797   7.030 -0.9265  0.7829 -0.7351
  122MOL0     H16078   9.517   3.825   6.782 -0.9264 -1.6159  1.6869
  122MOL0     H16079   9.635   3.744   6.873  2.0366  0.5475  0.4101
  122MOL0     H16080   9.651   4.053   6.809 -4.9544 -0.4895  2.1736
  122MOL0     H16081   9.723   3.931   6.712 -1.9947  0.0256 -0.1506
  122MOL0     H16082   9.798   4.017   7.001 -2.8947  0.5180 -0.4503
  122MOL0     H16083   9.864   3.871   6.919  0.1146  0.0217  0.6070
  122MOL0     H16084   9.871   4.154   6.777 -1.0997 -0.5617 -0.3519
  122MOL0     H16085   9.971   4.015   6.738 -2.4549 -1.3088 -1.7672
  122MOL0     H16086   8.928   3.867   7.069 -3.2784 -0.9266 -1.6065
  122MOL0     H16087   8.696   3.919   7.039  1.0547 -0.2239 -0.6160
  122MOL0     H16088   8.442   3.918   6.595 -0.1052  0.4301 -1.3079
  122MOL0     H16089   8.196   3.873   6.571 -1.3727  1.3936 -0.6436
  122MOL0     H16090   7.437   4.229   7.866  1.4163  0.5949  1.2923
  122MOL0     H16091   7.646   4.315   7.948 -3.9401 -2.0001  0.1979
  122MOL0     H16092   7.959   4.467   8.004  0.0902 -0.0184  0.4087
  122MOL0     H16093   8.178   4.472   8.095 -0.4444  0.8084 -0.7722
  122MOL0     H16094   8.397   4.434   8.137  0.3866 -0.2060 -0.2478
  122MOL0     H16095   8.479   4.571   8.043  0.3131 -0.1280 -2.6138
  122MOL0     H16096   8.674   4.454   8.021  0.0715  2.6308  2.1372
  122MOL0     H16097   8.624   4.439   8.193 -1.4006 -1.8103  1.4141
  122MOL0     H16098   8.568   4.222   7.980  0.8272  0.0794 -1.3405
  122MOL0     H16099   8.522   4.214   8.146  0.2418 -0.7151 -0.6964
  122MOL0     H16100   8.765   4.237   8.216 -0.6080  1.7700  0.4893
  122MOL0     H16101   8.709   4.083   8.135 -0.6791  0.0389  0.6056
  122MOL0     H16102   8.977   4.238   7.865  2.0823  1.6572  1.5198
  122MOL0     H16103   8.344   4.384   7.696  1.7011  0.2310  1.3169
  122MOL0     H16104   8.109   4.394   7.612 -1.2571  3.5924 -1.4441
  123MOL0     O16105   5.468   0.305   9.224  0.1463 -0.4823 -0.2599
  123MOL0     C16106   5.469   0.221   9.131 -0.9717 -0.9785 -0.3929
  123MOL0     O16107   5.369   0.188   9.053 -0.0922  0.2570  0.1168
  123MOL0     C16108   5.235   0.224   9.073 -0.5771  0.4675  0.0304
  123MOL0     C16109   5.180   0.315   9.173  0.4018 -0.3348  0.1577
  123MOL0     C16110   5.040   0.339   9.190 -0.5591 -0.6317  0.6493
  123MOL0     C16111   4.948   0.278   9.101  0.3205 -0.0335  0.0536
  123MOL0     O16112   4.815   0.294   9.113  0.3800  0.7128 -0.2386
  123MOL0     C16113   4.772   0.378   9.005 -0.7171  0.1487  0.1176
  123MOL0     C16114   4.636   0.437   9.035 -0.5228  0.0859  0.4872
  123MOL0     C16115   4.532   0.331   9.071  0.1406 -0.5753 -0.8192
  123MOL0     C16116   4.400   0.413   9.081  0.6702 -0.7736 -0.5883
  123MOL0     C16117   4.286   0.324   9.124  0.5105  0.4326 -0.3414
  123MOL0     C16118   4.161   0.401   9.158 -0.1872  0.8578 -0.5336
  123MOL0     C16119   4.112   0.479   9.032  1.3325 -0.7237  0.0877
  123MOL0     C16120   3.958   0.501   9.041 -0.1939 -0.1018 -0.9505
  123MOL0     N16121   3.892   0.368   9.038  0.0392 -1.2096  0.1955
  123MOL0     C16122   3.820   0.318   9.143 -0.5373  0.7970 -0.3243
  123MOL0     C16123   3.777   0.194   9.106  0.5694 -0.0001 -0.6064
  123MOL0     C16124   3.692   0.094   9.199 -0.8935 -0.1318 -0.6474
  123MOL0     C16125   3.685  -0.044   9.126 -0.2305  0.0933 -0.0936
  123MOL0     C16126   3.657  -0.169   9.217  0.4976  0.0609  0.1740
  123MOL0     C16127   3.514  -0.174   9.249  1.3599  0.1475  0.5938
  123MOL0     O16128   3.438  -0.198   9.127  0.5291  0.2647  0.1633
  123MOL0     C16129   3.302  -0.220   9.131  0.7345  0.3557 -0.7212
  123MOL0     C16130   3.220  -0.199   9.242 -0.4132  1.1682  0.3145
  123MOL0     C16131   3.086  -0.227   9.237  0.2501  0.5136 -0.7508
  123MOL0     C16132   3.036  -0.284   9.119 -0.1530 -0.4612 -0.1242
  123MOL0     C16133   2.893  -0.314   9.109  0.8334 -0.1038  0.1110
  123MOL0     O16134   2.814  -0.300   9.229  0.4504 -0.0323  1.1184
  123MOL0     C16135   2.684  -0.346   9.231  0.2033  0.2471  0.1918
  123MOL0     C16136   2.610  -0.288   9.338 -0.7056  0.0887  0.2237
  123MOL0     C16137   2.482  -0.325   9.363 -0.9590  0.0843 -0.7614
  123MOL0     C16138   2.426  -0.434   9.286 -0.1434  0.5897  0.1590
  123MOL0     O16139   2.294  -0.457   9.299  0.4189  0.2432 -0.5088
  123MOL0     C16140   2.242  -0.497   9.422 -0.1700  0.5102 -0.0233
  123MOL0     C16141   2.100  -0.533   9.419  1.1681  0.4572 -0.5148
  123MOL0     C16142   2.023  -0.403   9.418  0.5792 -0.0757 -0.6528
  123MOL0     C16143   1.874  -0.419   9.395  0.5298 -0.9717 -0.6774
  123MOL0     C16144   1.800  -0.297   9.414 -0.1702 -0.0853 -0.1931
  123MOL0     C16145   1.646  -0.316   9.397 -0.1628 -0.0731  0.7274
  123MOL0     C16146   1.577  -0.428   9.483 -0.9710  0.2387 -0.4546
  123MOL0     C16147   1.429  -0.433   9.436  0.3554 -1.1302  0.5557
  123MOL0    Cl16148   1.318  -0.546   9.527  0.1621  0.3027  0.4342
  123MOL0     C16149   2.499  -0.495   9.179 -0.3023  0.1059 -0.1148
  123MOL0     C16150   2.629  -0.448   9.155  0.5926  0.5813 -0.0912
  123MOL0     O16151   2.846  -0.328   8.996  0.0236 -0.8295 -0.4125
  123MOL0     C16152   3.122  -0.310   9.012 -0.7897 -0.1910 -0.2257
  123MOL0     C16153   3.251  -0.282   9.018  0.6910  0.7678  0.6176
  123MOL0     N16154   3.799   0.190   8.965  0.1719 -0.1214  0.8007
  123MOL0     N16155   3.875   0.292   8.926  0.7272  0.0816  0.1626
  123MOL0     C16156   5.000   0.197   8.997  0.4561 -0.3401  0.4920
  123MOL0     C16157   5.136   0.177   8.983  0.3344  0.9229  0.3221
  123MOL0     C16158   5.603   0.162   9.107  0.4993  0.5480  0.3679
  123MOL0     C16159   5.644   0.139   8.969 -0.5484 -0.2472 -0.4146
  123MOL0     C16160   5.780   0.102   8.948  0.1891  0.3894  0.5015
  123MOL0     C16161   5.875   0.090   9.050  0.0125 -0.4914  1.0368
  123MOL0     O16162   6.000   0.062   9.002 -0.2715  0.1333  0.5483
  123MOL0     C16163   6.107   0.146   9.051  0.0186  0.8187 -0.7304
  123MOL0     C16164   6.209   0.057   9.131  0.3890 -0.5172  0.1721
  123MOL0     C16165   6.322   0.146   9.186  0.1641 -0.4719 -1.0120
  123MOL0     C16166   6.445   0.061   9.228  0.0290 -0.1047 -0.2856
  123MOL0     C16167   6.563   0.149   9.242 -0.5797 -0.6352 -0.0511
  123MOL0     C16168   6.666   0.204   9.261  0.1188 -0.4037  0.6744
  123MOL0     C16169   5.832   0.110   9.181  0.0855  0.1475 -0.3896
  123MOL0     C16170   5.699   0.148   9.212  0.5824  0.6055  0.0594
  123MOL0     H16171   5.247   0.368   9.240  1.3091  1.7082 -2.2042
  123MOL0     H16172   5.006   0.406   9.269  0.5844  1.8126 -0.8023
  123MOL0     H16173   4.778   0.310   8.920  2.4157  0.5784 -0.1146
  123MOL0     H16174   4.836   0.454   8.961 -1.7704  0.7872 -0.3595
  123MOL0     H16175   4.604   0.482   8.941  0.4103 -0.2297  0.0036
  123MOL0     H16176   4.640   0.507   9.118 -2.5666 -0.6527  1.2667
  123MOL0     H16177   4.555   0.278   9.164  0.1109  0.3478 -0.2691
  123MOL0     H16178   4.527   0.250   8.998 -1.4625 -2.0543  0.8276
  123MOL0     H16179   4.401   0.490   9.158 -1.7202  0.2951 -1.5490
  123MOL0     H16180   4.387   0.462   8.984  0.3099 -2.3818 -1.3974
  123MOL0     H16181   4.317   0.259   9.206 -1.2860 -1.7001 -1.2291
  123MOL0     H16182   4.263   0.256   9.041  1.8134 -0.3469 -0.0901
  123MOL0     H16183   4.187   0.457   9.249  2.0999  0.8623 -1.1291
  123MOL0     H16184   4.091   0.322   9.187  1.1136 -0.0241  0.3175
  123MOL0     H16185   4.174   0.568   9.018 -1.0190  1.1441  0.8197
  123MOL0     H16186   4.137   0.429   8.938  2.0149  0.3155 -0.3047
  123MOL0     H16187   3.928   0.553   8.950 -0.6547  0.4002 -0.5179
  123MOL0     H16188   3.927   0.565   9.125 -1.9044  0.0256 -1.6325
  123MOL0     H16189   3.801   0.358   9.242  1.5119 -0.5745  0.6966
  123MOL0     H16190   3.593   0.133   9.223  0.1321  2.6136 -0.4985
  123MOL0     H16191   3.752   0.079   9.289  2.5417 -2.8001 -3.0805
  123MOL0     H16192   3.776  -0.056   9.065  2.6522 -2.8487  4.2698
  123MOL0     H16193   3.607  -0.038   9.049 -0.5833 -0.2571  0.2356
  123MOL0     H16194   3.679  -0.261   9.162  2.6163  1.0199 -0.7178
  123MOL0     H16195   3.710  -0.176   9.313  0.6694 -1.5122 -0.0161
  123MOL0     H16196   3.494  -0.069   9.273  1.8940  0.4987 -0.4507
  123MOL0     H16197   3.484  -0.233   9.337  0.6240 -0.0281  0.2358
  123MOL0     H16198   3.261  -0.159   9.334 -2.6718  1.8270  1.0905
  123MOL0     H16199   3.030  -0.203   9.327 -1.4194 -2.0274 -1.0007
  123MOL0     H16200   2.655  -0.205   9.391 -1.7914  0.9444 -0.1423
  123MOL0     H16201   2.421  -0.275   9.438  0.7725  1.0601  0.0505
  123MOL0     H16202   2.256  -0.421   9.499 -3.3181  0.6224  0.5663
  123MOL0     H16203   2.287  -0.587   9.466  1.1548 -0.1924 -2.6026
  123MOL0     H16204   2.069  -0.587   9.509 -3.8911  2.2276 -0.8782
  123MOL0     H16205   2.067  -0.595   9.335  1.1304  1.4012 -1.2104
  123MOL0     H16206   2.065  -0.329   9.349 -0.2177  1.5585  0.5408
  123MOL0     H16207   2.039  -0.360   9.517 -2.7037  1.7259 -0.7663
  123MOL0     H16208   1.859  -0.455   9.293 -0.7465 -1.1487 -0.4496
  123MOL0     H16209   1.836  -0.493   9.466  0.1798 -1.1349 -1.0320
  123MOL0     H16210   1.839  -0.219   9.349 -1.7784  2.4928  1.7430
  123MOL0     H16211   1.819  -0.262   9.516  3.0675 -1.9659 -0.0097
  123MOL0     H16212   1.627  -0.335   9.291  0.8487 -0.9231  0.6914
  123MOL0     H16213   1.600  -0.224   9.436  1.7288 -0.7029  5.0542
  123MOL0     H16214   1.626  -0.524   9.465  0.9557  0.9193  0.8643
  123MOL0     H16215   1.582  -0.402   9.589  1.0658  1.1189 -0.7279
  123MOL0     H16216   1.435  -0.461   9.331 -0.8071 -3.7449  1.1227
  123MOL0     H16217   1.386  -0.334   9.457  2.8088 -0.5070  3.3649
  123MOL0     H16218   2.447  -0.563   9.112 -3.1677  1.5283  0.4819
  123MOL0     H16219   2.692  -0.490   9.077  1.4835  0.6102  0.5971
  123MOL0     H16220   3.082  -0.346   8.918 -2.2171  3.7870 -1.3351
  123MOL0     H16221   3.323  -0.292   8.938 -1.3659 -0.1140 -1.2250
  123MOL0     H16222   4.936   0.153   8.921  0.5456 -1.4551  1.0407
  123MOL0     H16223   5.169   0.117   8.899 -0.2839  0.6353  0.2783
  123MOL0     H16224   5.571   0.151   8.889 -1.3092  0.5746  0.3698
  123MOL0     H16225   5.823   0.100   8.849  0.8199  1.1215  0.7508
  123MOL0     H16226   6.062   0.224   9.115 -1.8373  0.2894 -1.3110
  123MOL0     H16227   6.154   0.199   8.968  0.7903  0.0678 -0.7814
  123MOL0     H16228   6.153   0.005   9.209  1.8421 -0.6394  1.1767
  123MOL0     H16229   6.240  -0.016   9.055 -0.5130 -0.7408  0.0131
  123MOL0     H16230   6.282   0.207   9.268 -2.5553 -1.2042 -1.6960
  123MOL0     H16231   6.349   0.218   9.109 -0.6724  1.2593  0.2494
  123MOL0     H16232   6.440  -0.006   9.314  1.7680 -1.8292 -1.4432
  123MOL0     H16233   6.466   0.002   9.138  0.4931 -0.1558 -0.1433
  123MOL0     H16234   6.762   0.251   9.268 -0.4771  0.8291  0.8574
  123MOL0     H16235   5.891   0.085   9.269 -1.7062  2.9723  1.7825
  123MOL0     H16236   5.672   0.161   9.316 -0.0109  0.5597 -0.0839
  124MOL0     O16237   6.727  11.018   0.235  0.3279 -0.0523  0.2932
  124MOL0     C16238   6.791  11.010   0.336 -1.6164  0.4332  0.1097
  124MOL0     O16239   6.751  10.978   0.455 -1.4082 -0.3604 -0.6287
  124MOL0     C16240   6.620  10.961   0.462 -0.0760 -0.3989 -0.3850
  124MOL0     C16241   6.537  11.063   0.499  0.0848  0.8091  1.1038
  124MOL0     C16242   6.398  11.044   0.507  0.4538  0.3638  0.7818
  124MOL0     C16243   6.342  10.917   0.496 -0.3343 -0.9707 -0.4269
  124MOL0     O16244   6.212  10.899   0.520 -0.1954  0.0392  0.3127
  124MOL0     C16245   6.108  10.996   0.497  0.2195 -0.1628 -0.4073
  124MOL0     C16246   5.985  10.929   0.546 -0.1216 -0.3086 -0.2989
  124MOL0     C16247   5.863  11.014   0.507  0.6317  0.2440 -0.7084
  124MOL0     C16248   5.735  10.935   0.526 -0.1022  0.5759  0.4695
  124MOL0     C16249   5.608  11.002   0.473 -0.9369 -0.2153 -0.4390
  124MOL0     C16250   5.504  10.901   0.478 -0.1654  0.1173  0.2222
  124MOL0     C16251   5.370  10.968   0.456 -0.0608  1.1055  0.4890
  124MOL0     C16252   5.258  10.861   0.446  0.4295  0.2598  0.2602
  124MOL0     N16253   5.130  10.932   0.453 -0.6910  0.2888  0.7060
  124MOL0     C16254   5.078  11.008   0.551 -0.0246  0.3148 -0.4334
  124MOL0     C16255   4.944  11.005   0.547 -0.4345  0.4163  0.5998
  124MOL0     C16256   4.835  11.054   0.643  0.4409  0.3029 -0.6868
  124MOL0     C16257   4.710  10.963   0.650  0.6209 -0.5194  0.1755
  124MOL0     C16258   4.612  10.991   0.771 -0.5562  0.4758  0.6461
  124MOL0     C16259   4.466  10.936   0.763 -0.0836 -0.7490 -0.7904
  124MOL0     O16260   4.393  10.981   0.879 -0.3356  0.5577  0.1518
  124MOL0     C16261   4.252  10.960   0.880 -0.4826 -0.8485 -0.1650
  124MOL0     C16262   4.174  10.937   0.767  0.2817  0.0264 -0.2097
  124MOL0     C16263   4.035  10.918   0.782 -0.0547 -0.7288 -0.0555
  124MOL0     C16264   3.970  10.931   0.908 -0.1354  0.1077 -0.1499
  124MOL0     C16265   3.822  10.928   0.919  0.1382 -0.4969  0.2653
  124MOL0     O16266   3.758  10.899   1.046 -0.5203 -0.1565 -0.7662
  124MOL0     C16267   3.620  10.892   1.037  0.0580  0.1723  0.2284
  124MOL0     C16268   3.543  11.003   1.061  0.3634 -0.0486  0.1076
  124MOL0     C16269   3.402  11.003   1.061 -0.1627  0.6309  0.8770
  124MOL0     C16270   3.337  10.891   1.025  0.6165 -0.6253 -0.5142
  124MOL0     O16271   3.198  10.882   1.055 -0.5539 -0.1072 -0.3992
  124MOL0     C16272   3.145  10.752   1.073  0.6390 -0.2784 -0.1079
  124MOL0     C16273   2.996  10.760   1.113  0.3892 -0.5759 -0.5397
  124MOL0     C16274   2.900  10.849   1.032  0.9243  0.1301  0.2286
  124MOL0     C16275   2.765  10.859   1.104 -0.2808 -0.3165  0.1707
  124MOL0     C16276   2.673  10.969   1.062 -0.3074  0.7561 -0.3761
  124MOL0     C16277   2.537  10.968   1.141 -0.1642 -1.0912  0.6549
  124MOL0     C16278   2.475  11.106   1.128  0.3095 -0.0568 -0.9392
  124MOL0     C16279   2.328  11.090   1.160  0.5367  0.3084 -0.1250
  124MOL0    Cl16280   2.296  11.019   1.316 -0.2930 -0.2203  0.4453
  124MOL0     C16281   3.412  10.775   0.981  0.8460  0.6111  0.0570
  124MOL0     C16282   3.550  10.774   0.984  0.2056 -0.1957  0.4505
  124MOL0     O16283   3.756  10.946   0.810  0.1108 -0.2754 -0.2708
  124MOL0     C16284   4.052  10.972   1.017  0.4240  0.5445 -0.3141
  124MOL0     C16285   4.191  10.988   1.006 -0.2157 -0.1593 -0.0161
  124MOL0     N16286   4.912  10.932   0.435 -0.3849  0.1543  0.0827
  124MOL0     N16287   5.019  10.879   0.385  0.2353 -0.1283 -0.3209
  124MOL0     C16288   6.428  10.812   0.457 -0.3486 -0.1549  0.4850
  124MOL0     C16289   6.564  10.835   0.443 -0.0259  0.3650  0.3721
  124MOL0     C16290   6.936  11.026   0.313 -0.4212 -0.7858 -0.4671
  124MOL0     C16291   7.031  10.964   0.396 -0.2638  0.0043 -0.7113
  124MOL0     C16292   7.166  10.952   0.357 -0.0343 -0.1973 -0.2131
  124MOL0     C16293   7.213  11.025   0.247  0.0730  0.5318 -0.5540
  124MOL0     O16294   7.352  11.013   0.225  0.1309  0.2297 -0.5923
  124MOL0     C16295   7.391  11.075   0.099 -0.6260  0.2357 -0.2055
  124MOL0     C16296   7.526  11.020   0.062 -0.5052  0.0631  0.1225
  124MOL0     C16297   7.528  10.864   0.026  1.0756 -0.4845 -0.0770
  124MOL0     C16298   7.650  10.796  -0.029  0.2581 -0.2798  0.2906
  124MOL0     C16299   7.693  10.850  -0.158  0.2002  0.6295 -0.3671
  124MOL0     C16300   7.736  10.886  -0.264  0.3694  0.2223 -1.1191
  124MOL0     C16301   7.115  11.101   0.172  0.2926  0.4904  0.1416
  124MOL0     C16302   6.981  11.102   0.211  0.0850  0.1305  0.0906
  124MOL0     H16303   6.565  11.167   0.517 -1.0962  1.1521  1.0424
  124MOL0     H16304   6.331  11.127   0.526 -1.3607 -0.5345 -1.3213
  124MOL0     H16305   6.106  11.018   0.390 -2.0735 -0.6918 -0.5283
  124MOL0     H16306   6.127  11.086   0.556 -0.4209 -1.8318  2.5408
  124MOL0     H16307   5.999  10.908   0.653  1.5719  1.6991 -0.0558
  124MOL0     H16308   5.978  10.832   0.497 -3.6152 -0.9596  1.1652
  124MOL0     H16309   5.881  11.049   0.404 -0.2962 -0.5973 -1.1758
  124MOL0     H16310   5.865  11.099   0.576  1.6904  0.0545 -0.4894
  124MOL0     H16311   5.749  10.849   0.460  1.0812  0.9645  0.1859
  124MOL0     H16312   5.730  10.902   0.631 -1.1091 -1.0559 -0.0586
  124MOL0     H16313   5.624  11.040   0.372 -0.4085 -1.3422 -0.7970
  124MOL0     H16314   5.575  11.075   0.548  2.9760  1.2611  0.0613
  124MOL0     H16315   5.503  10.861   0.580 -0.8040 -0.8104 -0.1332
  124MOL0     H16316   5.526  10.826   0.403  0.0107  1.4037 -1.0529
  124MOL0     H16317   5.354  11.031   0.543  0.3359  0.1687  1.2633
  124MOL0     H16318   5.365  11.024   0.362 -2.6459 -0.1715 -0.2173
  124MOL0     H16319   5.259  10.787   0.526 -1.2887 -1.5856 -1.3130
  124MOL0     H16320   5.263  10.809   0.350 -2.2099 -1.0648  0.7475
  124MOL0     H16321   5.135  11.052   0.633 -1.1426  0.0325  0.5207
  124MOL0     H16322   4.809  11.155   0.608 -0.5678 -0.1101 -1.1808
  124MOL0     H16323   4.882  11.062   0.742  1.2440 -1.3687 -0.9011
  124MOL0     H16324   4.743  10.860   0.661  1.1381 -0.5869 -1.7049
  124MOL0     H16325   4.663  10.982   0.553  2.1993  0.1350 -0.4871
  124MOL0     H16326   4.657  10.950   0.862  1.7987 -4.4766 -2.2714
  124MOL0     H16327   4.621  11.099   0.787  1.4510  0.1770  1.9099
  124MOL0     H16328   4.460  10.826   0.766  3.0712 -0.9962 -0.1450
  124MOL0     H16329   4.424  10.976   0.670  1.5579 -0.7623 -1.5706
  124MOL0     H16330   4.204  10.928   0.663 -0.4960  0.3721 -0.4664
  124MOL0     H16331   3.972  10.880   0.702 -0.3367 -2.4375  0.9211
  124MOL0     H16332   3.589  11.099   1.084 -3.1369  1.3645  2.1251
  124MOL0     H16333   3.347  11.088   1.098  0.8692  2.0463 -0.6650
  124MOL0     H16334   3.200  10.703   1.154  1.4904  3.7233  1.9966
  124MOL0     H16335   3.145  10.691   0.982 -1.3453  1.8845 -1.6779
  124MOL0     H16336   2.992  10.794   1.217 -1.6745 -1.4019 -0.2836
  124MOL0     H16337   2.951  10.660   1.114 -0.6101 -0.1563 -1.8393
  124MOL0     H16338   2.877  10.823   0.929 -3.6354  1.4520  0.6978
  124MOL0     H16339   2.948  10.948   1.025 -1.1716  1.0631 -2.6780
  124MOL0     H16340   2.719  10.761   1.085  0.3090 -0.0430 -3.5056
  124MOL0     H16341   2.774  10.883   1.210  1.6299 -0.8670  0.1687
  124MOL0     H16342   2.645  10.959   0.956 -3.4232 -0.0066  0.4227
  124MOL0     H16343   2.736  11.057   1.074  2.8491 -1.5308  1.1776
  124MOL0     H16344   2.547  10.953   1.249 -0.7364  1.9041  1.2172
  124MOL0     H16345   2.469  10.889   1.106 -1.4677  0.1365  0.3388
  124MOL0     H16346   2.503  11.184   1.200 -1.7214  0.7261 -0.9274
  124MOL0     H16347   2.483  11.153   1.029 -2.6077  2.9346  0.0703
  124MOL0     H16348   2.276  11.024   1.090 -0.1148  0.6955 -0.0183
  124MOL0     H16349   2.267  11.181   1.149  0.7576  0.3209 -1.3782
  124MOL0     H16350   3.377  10.682   0.938  3.9405  0.4240 -2.3813
  124MOL0     H16351   3.605  10.688   0.947 -3.4731 -1.4276 -2.7741
  124MOL0     H16352   4.008  11.001   1.112  0.9931 -1.8484  0.7510
  124MOL0     H16353   4.249  11.000   1.097  1.7570  0.9255 -1.3556
  124MOL0     H16354   6.388  10.715   0.428 -2.3591  0.2580  1.6490
  124MOL0     H16355   6.631  10.755   0.414 -0.3588  0.8372 -1.8958
  124MOL0     H16356   7.009  10.909   0.487  0.1708  0.6382 -0.2163
  124MOL0     H16357   7.243  10.903   0.416  1.0534  1.9633  0.2266
  124MOL0     H16358   7.403  11.184   0.102  0.2384  0.1373  0.8583
  124MOL0     H16359   7.310  11.054   0.029 -3.6868 -0.3469  3.2410
  124MOL0     H16360   7.539  11.080  -0.029  3.6348  0.7725  1.0112
  124MOL0     H16361   7.605  11.048   0.132 -0.8695 -0.7347  0.8621
  124MOL0     H16362   7.445  10.844  -0.043  1.3302  1.7149 -1.0830
  124MOL0     H16363   7.512  10.808   0.119  1.5247 -1.8427 -0.7773
  124MOL0     H16364   7.740  10.823   0.027  1.6622  0.5865 -2.2021
  124MOL0     H16365   7.640  10.687  -0.038  0.7575 -0.2880 -0.3291
  124MOL0     H16366   7.765  10.920  -0.361 -0.2322  0.8135 -1.0958
  124MOL0     H16367   7.132  11.153   0.078 -0.1167 -2.0456 -1.4498
  124MOL0     H16368   6.915  11.159   0.147  0.8706  0.4955 -0.4102
  125MOL0     O16369   9.214   0.464   1.012  0.4427  0.1559 -0.0859
  125MOL0     C16370   9.293   0.382   0.964  0.6585 -0.8832 -0.1268
  125MOL0     O16371   9.264   0.265   0.900  0.3922  0.2854 -0.9390
  125MOL0     C16372   9.135   0.220   0.893  0.2493 -0.2819  0.1650
  125MOL0     C16373   9.092   0.168   0.776 -0.3986  0.9035 -0.6665
  125MOL0     C16374   8.959   0.124   0.772 -0.2228 -0.3955  0.7898
  125MOL0     C16375   8.860   0.127   0.875  0.7694  0.3572  0.2701
  125MOL0     O16376   8.733   0.086   0.838 -0.6208 -0.4254 -1.0378
  125MOL0     C16377   8.650   0.085   0.955  0.2140 -0.2828  0.2391
  125MOL0     C16378   8.666  -0.047   1.042 -0.2858 -0.7560  1.0553
  125MOL0     C16379   8.568  -0.048   1.153  0.3162  0.9338  0.0968
  125MOL0     C16380   8.421  -0.062   1.110  0.0690 -0.4292 -0.3167
  125MOL0     C16381   8.386  -0.208   1.081 -0.7327 -0.2796 -0.3116
  125MOL0     C16382   8.242  -0.224   1.066  0.2662  0.8323 -0.7857
  125MOL0     C16383   8.203  -0.367   1.043  2.0972  0.4038 -0.1913
  125MOL0     C16384   8.050  -0.372   1.075  0.2495 -0.3791 -0.1552
  125MOL0     N16385   7.965  -0.345   0.956 -0.8359 -0.3250  0.1184
  125MOL0     C16386   7.893  -0.234   0.929  0.3715  0.5299  0.1282
  125MOL0     C16387   7.819  -0.271   0.822  0.8690  0.1962 -1.1941
  125MOL0     C16388   7.731  -0.178   0.746 -0.0514  0.1727 -0.4461
  125MOL0     C16389   7.590  -0.175   0.796  0.0144  0.5356  0.1946
  125MOL0     C16390   7.505  -0.302   0.796 -0.0420 -0.5401  0.6249
  125MOL0     C16391   7.365  -0.272   0.845  0.6090  0.7507  0.1868
  125MOL0     O16392   7.270  -0.217   0.754  0.8289  0.2423 -0.1817
  125MOL0     C16393   7.145  -0.197   0.789  0.6394 -0.9670 -0.3343
  125MOL0     C16394   7.085  -0.206   0.921 -0.3363  1.1762 -0.7076
  125MOL0     C16395   6.955  -0.165   0.948 -0.2449  0.1113  0.3211
  125MOL0     C16396   6.879  -0.112   0.844  0.6613 -0.3796 -0.3673
  125MOL0     C16397   6.740  -0.059   0.879 -0.1500 -0.0041 -0.4654
  125MOL0     O16398   6.681  -0.107   0.993 -0.0154 -0.3464 -0.1420
  125MOL0     C16399   6.549  -0.123   1.016  0.7048 -1.0550  0.7605
  125MOL0     C16400   6.501  -0.117   1.152 -0.2463  0.2998  0.8712
  125MOL0     C16401   6.369  -0.137   1.183 -0.0085 -0.2315 -0.4450
  125MOL0     C16402   6.278  -0.155   1.078  0.1831 -0.5018  0.1160
  125MOL0     O16403   6.150  -0.168   1.117  0.2347  0.1023 -0.6477
  125MOL0     C16404   6.061  -0.219   1.012  0.4951  0.5294 -0.6049
  125MOL0     C16405   5.940  -0.249   1.090  0.2900 -0.1210  0.4442
  125MOL0     C16406   5.862  -0.357   1.018  0.4435 -0.3506 -0.7993
  125MOL0     C16407   5.712  -0.368   1.073  0.9638  0.2102  0.0827
  125MOL0     C16408   5.639  -0.470   0.980  0.9514  0.1800  0.1625
  125MOL0     C16409   5.488  -0.454   1.013  0.1655 -0.5229 -0.9289
  125MOL0     C16410   5.397  -0.519   0.901  0.4867 -0.5537  0.0151
  125MOL0     C16411   5.242  -0.504   0.913 -1.0144 -0.2658 -0.6767
  125MOL0    Cl16412   5.156  -0.594   0.784  0.4118  0.3827  0.5108
  125MOL0     C16413   6.319  -0.157   0.937  0.3471  0.9065 -0.6826
  125MOL0     C16414   6.456  -0.144   0.904  0.3478 -0.2877 -0.2252
  125MOL0     O16415   6.690   0.016   0.801  0.3830 -0.2236  0.1314
  125MOL0     C16416   6.930  -0.097   0.716 -0.0298  0.3735  0.8128
  125MOL0     C16417   7.061  -0.138   0.693  0.2133  0.2654 -0.5564
  125MOL0     N16418   7.835  -0.407   0.795 -0.1496 -0.5308 -0.2495
  125MOL0     N16419   7.931  -0.447   0.877 -0.4639  0.7568  0.7639
  125MOL0     C16420   8.915   0.173   1.004  0.5715 -0.4896 -0.2285
  125MOL0     C16421   9.049   0.215   1.014 -0.6635  0.5849  0.6396
  125MOL0     C16422   9.436   0.411   0.976 -0.2361  0.7899 -0.7008
  125MOL0     C16423   9.501   0.479   1.084 -0.6647 -0.6634  0.4065
  125MOL0     C16424   9.639   0.488   1.092  0.1780  1.1544  0.0573
  125MOL0     C16425   9.716   0.444   0.987 -0.4025 -0.4150  1.0083
  125MOL0     O16426   9.851   0.468   0.992  0.1858 -1.1738  0.5680
  125MOL0     C16427   9.893   0.604   0.965  0.1468  0.0810 -0.0641
  125MOL0     C16428  10.042   0.595   0.985  0.2574  0.2479 -0.5349
  125MOL0     C16429  10.110   0.729   0.964  0.8860 -0.3428  0.0628
  125MOL0     C16430  10.246   0.721   1.026  0.3012  1.1260  0.0380
  125MOL0     C16431  10.232   0.732   1.169  0.0103  0.6350 -0.0700
  125MOL0     C16432  10.236   0.748   1.288 -0.4928 -0.6979 -0.6865
  125MOL0     C16433   9.657   0.381   0.877 -0.5557 -0.3754  0.3714
  125MOL0     C16434   9.519   0.358   0.874 -0.3398  0.2779  0.5661
  125MOL0     H16435   9.149   0.171   0.684  1.3332  0.5512  0.3643
  125MOL0     H16436   8.935   0.107   0.667  1.8263 -0.0690  0.2386
  125MOL0     H16437   8.546   0.089   0.924  0.9688 -0.1263 -2.5816
  125MOL0     H16438   8.659   0.181   1.006 -4.2651  1.6782 -2.1119
  125MOL0     H16439   8.770  -0.060   1.075  0.8864  0.8224 -1.7516
  125MOL0     H16440   8.648  -0.132   0.976  1.6118  0.2601 -0.8860
  125MOL0     H16441   8.570   0.043   1.213 -0.2914  0.9546  0.0904
  125MOL0     H16442   8.593  -0.130   1.221 -4.4672 -2.4817 -1.7531
  125MOL0     H16443   8.345  -0.019   1.177 -0.4897  1.3503 -1.9939
  125MOL0     H16444   8.409   0.008   1.026  1.4746  0.2868  0.0539
  125MOL0     H16445   8.426  -0.267   1.164 -0.2306  1.1333  0.4800
  125MOL0     H16446   8.436  -0.246   0.991 -0.1628  1.0727 -0.5853
  125MOL0     H16447   8.204  -0.166   0.982 -1.2111 -0.7054 -1.2213
  125MOL0     H16448   8.196  -0.186   1.158 -0.6643 -3.5736  0.8161
  125MOL0     H16449   8.216  -0.404   0.941 -1.4043 -2.3175  0.1425
  125MOL0     H16450   8.253  -0.445   1.102 -0.6839 -1.4197 -0.0620
  125MOL0     H16451   8.026  -0.309   1.161  3.1170  0.5502  0.0825
  125MOL0     H16452   8.026  -0.475   1.100 -2.1039 -0.4889 -2.4385
  125MOL0     H16453   7.903  -0.130   0.957 -1.0076  1.0208 -1.0620
  125MOL0     H16454   7.743  -0.202   0.640  3.2911  2.6802 -0.7931
  125MOL0     H16455   7.765  -0.076   0.766 -2.4385  0.9373 -0.0038
  125MOL0     H16456   7.533  -0.098   0.743 -1.1374 -0.7498 -0.5034
  125MOL0     H16457   7.595  -0.151   0.903 -0.5660 -0.7019  0.5124
  125MOL0     H16458   7.498  -0.349   0.697  0.6965  0.2207  0.2029
  125MOL0     H16459   7.548  -0.380   0.859  1.6451 -1.3586 -1.4266
  125MOL0     H16460   7.376  -0.197   0.925 -2.0400 -1.0550  2.4368
  125MOL0     H16461   7.322  -0.358   0.896  3.9177 -0.4210  1.2401
  125MOL0     H16462   7.132  -0.250   1.009 -0.8439 -0.6947 -1.3390
  125MOL0     H16463   6.915  -0.177   1.048 -2.6106 -1.2015 -0.7039
  125MOL0     H16464   6.577  -0.098   1.226 -0.2189  2.5129  0.3332
  125MOL0     H16465   6.334  -0.137   1.285  0.6243 -0.6434 -0.2200
  125MOL0     H16466   6.101  -0.304   0.957 -0.2797  0.2890 -0.8129
  125MOL0     H16467   6.035  -0.141   0.940  2.1399  1.4646 -0.2409
  125MOL0     H16468   5.893  -0.152   1.111  1.0534  0.6849 -1.3733
  125MOL0     H16469   5.970  -0.301   1.182  2.0102 -0.4021 -0.2530
  125MOL0     H16470   5.909  -0.455   1.029 -1.6732 -1.6118 -2.0873
  125MOL0     H16471   5.865  -0.340   0.910  1.3582 -1.2912 -0.9312
  125MOL0     H16472   5.708  -0.401   1.177 -1.0295  0.3184  0.0898
  125MOL0     H16473   5.663  -0.271   1.058  2.1209  0.5648 -1.7274
  125MOL0     H16474   5.679  -0.571   0.989 -1.0185 -0.7727 -0.9616
  125MOL0     H16475   5.657  -0.445   0.875  1.2262 -0.2743  0.0994
  125MOL0     H16476   5.448  -0.352   1.013  1.1414 -0.1203 -2.0491
  125MOL0     H16477   5.470  -0.505   1.109 -0.9691  0.5676 -0.5366
  125MOL0     H16478   5.419  -0.481   0.801 -1.9815  1.9595  0.3002
  125MOL0     H16479   5.408  -0.628   0.901  0.3290 -0.5705  0.3011
  125MOL0     H16480   5.211  -0.399   0.914  0.4386  0.2001 -1.3507
  125MOL0     H16481   5.214  -0.552   1.008 -1.1844 -1.4736 -1.3122
  125MOL0     H16482   6.251  -0.154   0.852 -0.3526  1.1054 -0.1348
  125MOL0     H16483   6.498  -0.158   0.805  1.8237 -1.7782  0.5648
  125MOL0     H16484   6.866  -0.060   0.637 -0.1940 -0.7878  0.3767
  125MOL0     H16485   7.096  -0.151   0.590  2.2114 -0.0766  0.1187
  125MOL0     H16486   8.852   0.170   1.092 -0.0787  0.2446 -0.6589
  125MOL0     H16487   9.096   0.247   1.106  0.9591 -1.5109  0.6153
  125MOL0     H16488   9.436   0.531   1.154 -0.2547  0.0033  0.3026
  125MOL0     H16489   9.694   0.537   1.172  0.2437  3.0265 -1.0789
  125MOL0     H16490   9.844   0.684   1.021 -0.9055  1.0476 -2.2492
  125MOL0     H16491   9.880   0.625   0.858 -0.5712 -1.9012 -0.4113
  125MOL0     H16492  10.071   0.567   1.087  2.7693  3.9234 -0.0505
  125MOL0     H16493  10.085   0.516   0.922  1.1141  0.3556 -0.1071
  125MOL0     H16494  10.052   0.810   1.009  2.0124  0.0316  0.9095
  125MOL0     H16495  10.131   0.748   0.859  0.3946  2.5722  0.4260
  125MOL0     H16496  10.291   0.624   1.005  0.4771  1.4244 -0.9821
  125MOL0     H16497  10.306   0.797   0.974 -0.3141  0.0203 -2.4198
  125MOL0     H16498  10.241   0.760   1.395 -1.8761  0.4563 -0.7217
  125MOL0     H16499   9.721   0.363   0.791 -4.4510  0.5704 -3.0185
  125MOL0     H16500   9.482   0.318   0.780  1.1275 -0.5980  0.3294
  126MOL0     O16501   7.834   5.611  10.483 -0.2023 -0.2848 -0.2849
  126MOL0     C16502   7.805   5.648  10.368 -0.5273  0.4602  1.0454
  126MOL0     O16503   7.884   5.628  10.255 -0.2034 -0.3009 -0.1724
  126MOL0     C16504   7.998   5.557  10.277 -0.5837 -0.5414 -0.4498
  126MOL0     C16505   7.994   5.417  10.295 -0.1125  0.2026 -0.1655
  126MOL0     C16506   8.117   5.353  10.306 -0.9349 -0.0260 -0.0474
  126MOL0     C16507   8.239   5.413  10.294  0.1761  0.5705  0.7135
  126MOL0     O16508   8.350   5.334  10.315  0.1869  0.6472 -0.0071
  126MOL0     C16509   8.483   5.375  10.288  0.4920  0.3768  0.6868
  126MOL0     C16510   8.573   5.246  10.298  1.4305  0.3510  0.0862
  126MOL0     C16511   8.713   5.292  10.284 -0.6753  0.0159 -0.5239
  126MOL0     C16512   8.815   5.176  10.309 -0.1692 -0.5370 -0.1730
  126MOL0     C16513   8.952   5.243  10.279  0.5746  0.7600  0.5946
  126MOL0     C16514   9.050   5.159  10.356  0.2841 -0.6756 -0.3190
  126MOL0     C16515   9.191   5.174  10.304  0.1291  0.2120 -0.5141
  126MOL0     C16516   9.293   5.111  10.398 -0.0533 -0.0223 -1.1783
  126MOL0     N16517   9.431   5.127  10.359 -1.1630  0.4990  0.5389
  126MOL0     C16518   9.530   5.191  10.425 -1.0912 -0.4162  0.9280
  126MOL0     C16519   9.640   5.166  10.342 -0.1312 -0.2866 -0.7819
  126MOL0     C16520   9.765   5.260  10.351  0.0550 -0.1244  0.5701
  126MOL0     C16521   9.871   5.187  10.422 -0.3532  0.4746 -0.1386
  126MOL0     C16522   9.899   5.235  10.572 -0.0810 -0.3897  0.6010
  126MOL0     C16523   9.938   5.128  10.675 -0.0988 -0.2908 -0.3681
  126MOL0     O16524   9.869   5.012  10.648 -0.0193 -0.2228 -0.2911
  126MOL0     C16525   9.734   5.001  10.690 -0.4112 -0.7584 -0.0042
  126MOL0     C16526   9.693   5.042  10.811 -0.1563  0.0577 -0.0342
  126MOL0     C16527   9.551   5.031  10.848 -0.2808 -0.4782  0.0332
  126MOL0     C16528   9.463   4.969  10.753  0.0243  0.2657  0.7880
  126MOL0     C16529   9.322   4.956  10.779  0.2658  0.5190  0.3327
  126MOL0     O16530   9.291   4.981  10.911  0.1606  0.4161 -0.3479
  126MOL0     C16531   9.173   4.972  10.964  0.1794 -0.9656  0.0940
  126MOL0     C16532   9.044   4.983  10.899 -0.8051 -0.2725  0.2765
  126MOL0     C16533   8.928   4.976  10.982 -0.2515 -0.7778 -0.4147
  126MOL0     C16534   8.928   4.959  11.116 -0.1694  0.1985 -0.0624
  126MOL0     O16535   8.798   4.954  11.180 -0.3469 -0.2664  0.6371
  126MOL0     C16536   8.794   5.009  11.314 -0.6757  0.6652  0.5477
  126MOL0     C16537   8.652   4.979  11.376 -0.5309 -0.5892 -0.5349
  126MOL0     C16538   8.529   5.042  11.319  0.4224 -0.6466 -0.2560
  126MOL0     C16539   8.498   5.031  11.172  0.7305  0.1175  0.5058
  126MOL0     C16540   8.350   5.047  11.123 -0.6780 -0.5954 -0.1804
  126MOL0     C16541   8.244   4.969  11.212 -0.4088  0.6073 -0.8561
  126MOL0     C16542   8.100   4.963  11.160 -0.6100 -0.6364 -0.0672
  126MOL0     C16543   7.993   5.011  11.262  0.0778  0.5037 -0.7112
  126MOL0    Cl16544   8.032   4.947  11.425  0.4608 -0.2492  0.1043
  126MOL0     C16545   9.046   4.962  11.178 -0.0629 -0.7570  0.8194
  126MOL0     C16546   9.167   4.971  11.109  0.5350  0.1178 -0.3412
  126MOL0     O16547   9.242   4.930  10.687 -0.0659 -0.0216  0.1536
  126MOL0     C16548   9.508   4.927  10.630 -0.5631 -1.0549 -0.0779
  126MOL0     C16549   9.642   4.943  10.604  0.0202 -0.8681 -0.1142
  126MOL0     N16550   9.600   5.087  10.232  0.1901  0.6206  0.3873
  126MOL0     N16551   9.476   5.061  10.248  0.0078  0.6674 -0.7298
  126MOL0     C16552   8.246   5.547  10.287 -0.1162  0.3912 -0.3913
  126MOL0     C16553   8.127   5.618  10.281  0.7648 -0.7563 -0.2628
  126MOL0     C16554   7.684   5.731  10.355  0.1607  0.8658 -0.2651
  126MOL0     C16555   7.580   5.733  10.445 -0.0101  0.2491  0.1821
  126MOL0     C16556   7.474   5.825  10.439 -0.7770 -0.1581 -0.4556
  126MOL0     C16557   7.462   5.916  10.336  0.9611 -0.3410  1.1694
  126MOL0     O16558   7.365   6.017  10.309 -0.1654 -0.6276 -0.7435
  126MOL0     C16559   7.245   5.994  10.391  0.8718  0.5047  0.3957
  126MOL0     C16560   7.134   6.069  10.311 -0.1812 -0.2302  0.2323
  126MOL0     C16561   7.009   5.998  10.362  1.0431 -0.0584 -0.9233
  126MOL0     C16562   6.888   6.086  10.327  0.5457  0.0675  0.7678
  126MOL0     C16563   6.758   6.023  10.359 -0.1293 -0.4453  0.1567
  126MOL0     C16564   6.644   5.983  10.367  0.4512  0.0726 -0.4353
  126MOL0     C16565   7.568   5.924  10.242 -0.4812 -0.4988  0.5253
  126MOL0     C16566   7.678   5.827  10.245  1.0228 -0.6371 -1.2120
  126MOL0     H16567   7.902   5.360  10.300 -0.8610  1.4175  0.3161
  126MOL0     H16568   8.125   5.247  10.328 -1.7539  0.4859  3.3013
  126MOL0     H16569   8.508   5.449  10.366 -1.0765  3.1267 -1.2462
  126MOL0     H16570   8.492   5.431  10.194  2.7745  1.0747  1.2542
  126MOL0     H16571   8.545   5.174  10.221  0.1902  2.4771 -1.5582
  126MOL0     H16572   8.564   5.193  10.393 -1.2980 -5.3236 -2.8041
  126MOL0     H16573   8.726   5.374  10.355  0.5089 -0.7250  0.1467
  126MOL0     H16574   8.739   5.327  10.184  0.9645 -0.2748 -0.2138
  126MOL0     H16575   8.799   5.136  10.410  1.7325 -0.3274  0.2591
  126MOL0     H16576   8.797   5.100  10.233  1.3874  1.4436 -2.6974
  126MOL0     H16577   8.948   5.345  10.317 -0.0989 -0.0129  2.7293
  126MOL0     H16578   8.985   5.240  10.174  1.5380 -3.1203  0.8441
  126MOL0     H16579   9.020   5.054  10.348 -3.4335  0.2788 -0.6937
  126MOL0     H16580   9.039   5.181  10.463  1.9753 -1.0136 -0.0489
  126MOL0     H16581   9.201   5.147  10.198  0.4203 -1.2249 -0.1385
  126MOL0     H16582   9.207   5.282  10.297  0.2553  0.2042 -0.3323
  126MOL0     H16583   9.276   5.003  10.410  1.5599 -0.3475 -1.5522
  126MOL0     H16584   9.297   5.150  10.500  0.7901 -1.6040 -0.5731
  126MOL0     H16585   9.518   5.238  10.522 -1.4777  2.1347 -0.2657
  126MOL0     H16586   9.737   5.356  10.394 -2.8897  0.2558 -1.7983
  126MOL0     H16587   9.798   5.270  10.247 -1.6777 -1.5399 -0.1898
  126MOL0     H16588   9.965   5.190  10.365 -0.1220  0.5753  0.2424
  126MOL0     H16589   9.847   5.080  10.419 -1.1295  0.5755  1.2275
  126MOL0     H16590   9.974   5.315  10.566  0.5835 -1.0486  0.0915
  126MOL0     H16591   9.802   5.279  10.598 -0.4991 -1.4777  0.9096
  126MOL0     H16592   9.916   5.165  10.775  1.0853 -1.8106  0.4960
  126MOL0     H16593  10.040   5.089  10.660 -1.4390 -3.3061 -2.6497
  126MOL0     H16594   9.754   5.095  10.883 -3.7912  1.0355  2.6089
  126MOL0     H16595   9.503   5.077  10.934  0.8867 -0.9204  0.9345
  126MOL0     H16596   9.026   4.992  10.792 -5.7415 -2.1042  0.6562
  126MOL0     H16597   8.842   4.982  10.916 -0.0008 -0.6249 -0.7343
  126MOL0     H16598   8.805   5.118  11.314  0.2685  0.5781 -0.0337
  126MOL0     H16599   8.870   4.969  11.382 -1.2187 -1.9066 -0.2545
  126MOL0     H16600   8.667   5.015  11.478  1.4383  1.3564 -1.4334
  126MOL0     H16601   8.633   4.871  11.374  0.9419 -0.9524  1.5604
  126MOL0     H16602   8.556   5.146  11.337  0.5803 -0.4193 -1.6816
  126MOL0     H16603   8.445   5.028  11.388  1.4804  1.7216  1.6458
  126MOL0     H16604   8.574   5.092  11.122  1.6558  0.7381  2.5440
  126MOL0     H16605   8.528   4.930  11.144  0.4804  0.2023 -0.0790
  126MOL0     H16606   8.358   5.016  11.018  0.6983  2.7712 -1.1956
  126MOL0     H16607   8.320   5.152  11.132  5.2587  1.2739  2.1622
  126MOL0     H16608   8.248   5.012  11.313  0.2314 -1.5176  0.1017
  126MOL0     H16609   8.271   4.863  11.216  0.1864  0.7456  2.6999
  126MOL0     H16610   8.096   5.038  11.081 -1.8125 -0.2466  0.3384
  126MOL0     H16611   8.072   4.864  11.124 -2.5901  0.4021 -1.5621
  126MOL0     H16612   7.895   4.974  11.232  0.2150 -2.3966  1.9647
  126MOL0     H16613   8.009   5.119  11.256  0.2846  0.4851 -0.4928
  126MOL0     H16614   9.070   4.960  11.284  0.0329  0.8837  0.8553
  126MOL0     H16615   9.262   4.970  11.161  0.1987 -0.0432  0.2764
  126MOL0     H16616   9.437   4.888  10.558 -2.4436  2.3542 -0.2962
  126MOL0     H16617   9.668   4.899  10.508 -0.9333 -0.9648 -0.3361
  126MOL0     H16618   8.340   5.601  10.293 -0.7067  1.3814  0.3513
  126MOL0     H16619   8.137   5.726  10.279 -1.1072 -0.5255  0.7226
  126MOL0     H16620   7.591   5.676  10.537  0.5631 -2.5909 -1.5331
  126MOL0     H16621   7.397   5.824  10.515  0.5920  0.0973  1.0000
  126MOL0     H16622   7.255   6.027  10.495  0.0528  0.0370  0.6310
  126MOL0     H16623   7.207   5.892  10.384 -2.8268  1.8106 -0.7969
  126MOL0     H16624   7.122   6.174  10.338  0.2409 -0.5745  1.8893
  126MOL0     H16625   7.152   6.062  10.204 -0.3640  1.4536  0.0654
  126MOL0     H16626   7.015   5.981  10.470  0.7204 -0.5551 -0.9768
  126MOL0     H16627   6.991   5.897  10.323 -0.9662 -0.5047  0.9621
  126MOL0     H16628   6.887   6.186  10.371 -1.4908  0.4422 -0.0022
  126MOL0     H16629   6.888   6.104  10.219 -0.1120 -0.0894  0.7349
  126MOL0     H16630   6.540   5.958  10.370  0.2777  0.7106 -0.9038
  126MOL0     H16631   7.566   5.998  10.163  0.9807 -1.5600 -0.5628
  126MOL0     H16632   7.761   5.837  10.175  2.7126  0.7981  0.8605
  127MOL0     O16633   5.087   0.204   3.140 -0.4918 -0.0777 -0.0293
  127MOL0     C16634   5.161   0.148   3.222  0.0555  0.5753  0.2856
  127MOL0     O16635   5.117   0.067   3.322 -0.2808  0.1372 -0.8175
  127MOL0     C16636   4.983   0.045   3.339  1.3950  0.6120 -0.1326
  127MOL0     C16637   4.883   0.039   3.240  0.1057  0.2643  0.3234
  127MOL0     C16638   4.749   0.036   3.269  0.4394  0.3449  0.2451
  127MOL0     C16639   4.703   0.023   3.406  0.1110  0.4288  0.7927
  127MOL0     O16640   4.571   0.013   3.453 -0.3199  0.4905 -0.1860
  127MOL0     C16641   4.474  -0.037   3.365 -0.8501  0.0747 -0.0592
  127MOL0     C16642   4.353  -0.062   3.449 -0.2911 -0.2828  0.0803
  127MOL0     C16643   4.239  -0.127   3.364 -1.0565 -0.5702 -0.7060
  127MOL0     C16644   4.118  -0.135   3.453  0.3854  0.2502 -0.1428
  127MOL0     C16645   4.002  -0.223   3.411 -1.4255  0.4706 -0.3810
  127MOL0     C16646   3.870  -0.177   3.493  0.4443 -0.6694 -1.2088
  127MOL0     C16647   3.752  -0.257   3.461  0.6630  0.0157  0.1438
  127MOL0     C16648   3.619  -0.186   3.480 -1.2821 -0.6419 -0.1172
  127MOL0     N16649   3.512  -0.283   3.459  0.2752  0.3759  0.3463
  127MOL0     C16650   3.456  -0.299   3.330  0.4430 -0.0618  0.1201
  127MOL0     C16651   3.356  -0.386   3.350 -0.2247 -0.0500  0.0524
  127MOL0     C16652   3.270  -0.431   3.235  0.4976 -0.0618  0.0587
  127MOL0     C16653   3.337  -0.538   3.144  0.8618 -0.2799  0.2972
  127MOL0     C16654   3.368  -0.667   3.200 -0.5462 -0.5134 -0.3726
  127MOL0     C16655   3.255  -0.759   3.242  0.7129  0.0072  0.1605
  127MOL0     O16656   3.173  -0.778   3.130  0.0551 -0.0029 -0.0413
  127MOL0     C16657   3.039  -0.797   3.155 -0.7370  0.5128  0.0898
  127MOL0     C16658   2.946  -0.797   3.050  1.2848 -0.6400  0.3120
  127MOL0     C16659   2.809  -0.828   3.073  0.1653 -0.7371  0.0419
  127MOL0     C16660   2.761  -0.856   3.194  0.2028  0.0792 -1.1906
  127MOL0     C16661   2.609  -0.866   3.216  0.2962 -0.0945  0.5032
  127MOL0     O16662   2.523  -0.897   3.108  0.3687  0.6215  0.5648
  127MOL0     C16663   2.394  -0.937   3.128  0.7479  0.0280  0.8055
  127MOL0     C16664   2.319  -0.968   3.013  0.0762  1.2171  0.5200
  127MOL0     C16665   2.198  -1.036   3.015  0.3668 -0.0740 -0.3335
  127MOL0     C16666   2.146  -1.065   3.140  0.9528  1.1601  0.0225
  127MOL0     O16667   2.018  -1.108   3.162  0.4826  0.4625  0.3831
  127MOL0     C16668   1.902  -1.071   3.083  0.1950  0.3341 -0.3359
  127MOL0     C16669   1.772  -1.089   3.160  0.0640  0.2987 -0.1620
  127MOL0     C16670   1.649  -1.066   3.074 -0.5666 -0.5967 -0.7262
  127MOL0     C16671   1.523  -1.109   3.158  0.4697  0.0797 -0.0176
  127MOL0     C16672   1.395  -1.076   3.087  0.0366  0.1810 -1.0258
  127MOL0     C16673   1.279  -1.153   3.159  0.0258 -0.6243 -0.9587
  127MOL0     C16674   1.133  -1.119   3.110 -0.6095  0.3258 -0.6323
  127MOL0     C16675   1.040  -1.213   3.183  0.8444 -0.6798 -0.4422
  127MOL0    Cl16676   0.875  -1.181   3.118  0.0952 -0.0955  0.0476
  127MOL0     C16677   2.217  -1.043   3.251  0.3880  0.5448  0.0598
  127MOL0     C16678   2.338  -0.979   3.251  0.7275 -0.0020  0.1180
  127MOL0     O16679   2.567  -0.841   3.332 -0.2499 -0.1481 -0.3149
  127MOL0     C16680   2.845  -0.858   3.301  0.2205 -0.2370 -0.2585
  127MOL0     C16681   2.982  -0.828   3.281 -0.0312 -0.7002 -0.3620
  127MOL0     N16682   3.354  -0.428   3.485 -0.2068  0.2746  0.6320
  127MOL0     N16683   3.448  -0.366   3.549  0.3037 -0.1611 -0.1750
  127MOL0     C16684   4.807   0.012   3.496 -0.1956 -0.5251 -0.7725
  127MOL0     C16685   4.939   0.039   3.465 -0.2022 -0.2781 -0.3850
  127MOL0     C16686   5.307   0.175   3.208 -0.7300 -0.4690  0.1663
  127MOL0     C16687   5.389   0.152   3.321 -0.1062 -0.1303  0.2033
  127MOL0     C16688   5.517   0.203   3.324 -0.2793 -0.3262 -1.0036
  127MOL0     C16689   5.568   0.273   3.212 -0.0373 -0.1182 -0.0649
  127MOL0     O16690   5.683   0.339   3.216 -0.2102 -0.4626  0.3873
  127MOL0     C16691   5.799   0.264   3.242 -0.1754  0.0665 -0.9863
  127MOL0     C16692   5.848   0.185   3.122 -0.5248 -0.8994 -0.3374
  127MOL0     C16693   5.999   0.161   3.122  0.1732 -0.3248  0.1365
  127MOL0     C16694   6.055   0.063   3.231 -0.0763  0.0336 -0.6550
  127MOL0     C16695   5.965  -0.048   3.270 -0.3497  0.3261 -0.5676
  127MOL0     C16696   5.889  -0.134   3.302 -0.5087 -0.2547 -0.3923
  127MOL0     C16697   5.490   0.281   3.097  0.0458 -0.0466  0.0629
  127MOL0     C16698   5.361   0.230   3.088 -0.0052 -0.2047 -0.2693
  127MOL0     H16699   4.907   0.026   3.135 -1.4154  0.5465 -0.0883
  127MOL0     H16700   4.685   0.032   3.182  2.4011  3.3222 -1.5267
  127MOL0     H16701   4.510  -0.121   3.305 -1.7011 -0.1952 -0.2038
  127MOL0     H16702   4.454   0.030   3.281 -1.3024 -1.7585 -1.4742
  127MOL0     H16703   4.321   0.033   3.493 -1.3067 -1.3576  1.7920
  127MOL0     H16704   4.390  -0.134   3.523 -0.2732 -1.4585 -1.0398
  127MOL0     H16705   4.271  -0.228   3.336  1.5145 -0.0403 -0.0147
  127MOL0     H16706   4.215  -0.076   3.270  1.3315 -0.6026 -1.4059
  127MOL0     H16707   4.148  -0.172   3.552 -2.6313 -0.1562  0.7408
  127MOL0     H16708   4.070  -0.037   3.464 -2.1211 -0.9778  0.6626
  127MOL0     H16709   4.026  -0.325   3.441  1.5680  1.8783  2.8239
  127MOL0     H16710   3.999  -0.209   3.303 -0.5843 -0.0187 -0.4766
  127MOL0     H16711   3.858  -0.070   3.475 -2.5448 -0.8032 -0.4758
  127MOL0     H16712   3.890  -0.184   3.601  2.1044 -0.4135 -1.4803
  127MOL0     H16713   3.753  -0.297   3.359  0.5934 -2.0146  0.8803
  127MOL0     H16714   3.752  -0.351   3.517  0.6121 -0.4315 -0.5928
  127MOL0     H16715   3.623  -0.105   3.407 -0.1346 -2.4383 -2.1444
  127MOL0     H16716   3.618  -0.139   3.579 -0.1126 -0.2905 -0.2576
  127MOL0     H16717   3.486  -0.254   3.236  0.6527  0.6096  0.5083
  127MOL0     H16718   3.252  -0.338   3.180 -2.6572 -0.0183  0.9557
  127MOL0     H16719   3.175  -0.469   3.274  0.6394 -0.7567 -0.2497
  127MOL0     H16720   3.424  -0.486   3.105  0.3858  0.7227  0.5513
  127MOL0     H16721   3.271  -0.556   3.059  0.4742  0.7607  0.3737
  127MOL0     H16722   3.406  -0.728   3.117 -0.2607  0.5940 -1.0728
  127MOL0     H16723   3.444  -0.651   3.277  4.3008 -4.8939 -3.5354
  127MOL0     H16724   3.205  -0.706   3.323 -0.3123 -0.9807  0.2119
  127MOL0     H16725   3.292  -0.852   3.288 -3.1366 -1.6993  0.2286
  127MOL0     H16726   2.993  -0.775   2.955  1.7339  1.5046  0.9793
  127MOL0     H16727   2.739  -0.837   2.991  1.8085 -1.7888 -1.3155
  127MOL0     H16728   2.366  -0.947   2.918  2.3650 -2.4459  0.6655
  127MOL0     H16729   2.140  -1.055   2.926 -1.8224  0.2182  0.9636
  127MOL0     H16730   1.888  -1.141   3.000 -2.4898  0.0637  0.2500
  127MOL0     H16731   1.910  -0.966   3.054 -1.0932  0.0273 -1.9988
  127MOL0     H16732   1.790  -1.021   3.244  2.4699 -0.3414 -0.0906
  127MOL0     H16733   1.775  -1.193   3.192 -1.7823  0.2114 -0.1393
  127MOL0     H16734   1.652  -1.104   2.971  3.6822  2.5593 -2.0555
  127MOL0     H16735   1.634  -0.958   3.060 -2.5364 -1.1473 -3.5976
  127MOL0     H16736   1.534  -1.216   3.142  0.4002 -0.1287  1.2132
  127MOL0     H16737   1.540  -1.081   3.262  1.1516 -1.6672  0.3711
  127MOL0     H16738   1.386  -1.102   2.981  0.4622 -2.9395 -0.3994
  127MOL0     H16739   1.384  -0.967   3.097  3.2990  0.4845  0.5961
  127MOL0     H16740   1.283  -1.131   3.266  0.8917 -1.5896 -0.7879
  127MOL0     H16741   1.291  -1.260   3.141 -3.4005 -1.4411  0.6973
  127MOL0     H16742   1.107  -1.016   3.135  0.5039 -0.0706  2.6027
  127MOL0     H16743   1.125  -1.130   3.001  1.9779  2.3913 -1.1330
  127MOL0     H16744   1.040  -1.197   3.291  2.6661 -2.6668 -0.0818
  127MOL0     H16745   1.055  -1.315   3.148 -3.8707 -1.2473 -1.4080
  127MOL0     H16746   2.165  -1.063   3.344 -0.7857  4.0416  0.3037
  127MOL0     H16747   2.387  -0.968   3.347  1.1504  1.4619 -0.2401
  127MOL0     H16748   2.803  -0.864   3.401  1.6008  1.7725  0.5173
  127MOL0     H16749   3.040  -0.837   3.372  0.2783 -1.9197 -0.6659
  127MOL0     H16750   4.779   0.000   3.600 -0.4975 -0.6563 -0.8664
  127MOL0     H16751   5.010   0.050   3.546  1.2922 -1.6875 -1.4249
  127MOL0     H16752   5.360   0.084   3.401 -0.1644 -3.9663 -2.8174
  127MOL0     H16753   5.584   0.183   3.407  1.4315 -1.6576 -2.6026
  127MOL0     H16754   5.794   0.175   3.305  0.0189 -0.7134 -2.0267
  127MOL0     H16755   5.876   0.333   3.277  0.6493 -1.7678  1.0944
  127MOL0     H16756   5.784   0.098   3.104 -1.4302 -0.2391 -0.4126
  127MOL0     H16757   5.826   0.249   3.036 -0.4098 -0.3614  0.0231
  127MOL0     H16758   6.050   0.256   3.135 -2.3072  1.1750 -0.4857
  127MOL0     H16759   6.026   0.114   3.027 -2.1163 -0.2247 -0.6307
  127MOL0     H16760   6.155   0.022   3.212  0.0161 -1.9340  3.1713
  127MOL0     H16761   6.071   0.118   3.324  2.3746 -2.2201  0.4076
  127MOL0     H16762   5.827  -0.217   3.330  0.7542 -0.7160  1.2240
  127MOL0     H16763   5.543   0.313   3.008 -0.2208  3.4790  1.0377
  127MOL0     H16764   5.298   0.218   3.000 -3.2055 -0.8488  1.9129
  128MOL0     O16765   4.632   4.783   6.828  0.2087  0.4115 -0.3889
  128MOL0     C16766   4.655   4.830   6.944  0.4734  0.0507  1.4158
  128MOL0     O16767   4.555   4.869   7.029 -0.1647 -0.1866  0.0728
  128MOL0     C16768   4.422   4.851   7.017  0.5270 -0.2559  0.0178
  128MOL0     C16769   4.358   4.812   7.138 -0.7102  0.2706  0.5529
  128MOL0     C16770   4.225   4.773   7.138  0.7453 -1.2216  0.5367
  128MOL0     C16771   4.148   4.774   7.024 -0.1123 -0.3483 -0.6061
  128MOL0     O16772   4.018   4.744   7.031  0.6146 -0.3782 -0.3799
  128MOL0     C16773   3.954   4.698   7.154  0.1192  0.9782  0.7486
  128MOL0     C16774   3.802   4.685   7.145  0.8609 -0.4995  0.4315
  128MOL0     C16775   3.732   4.665   7.284  0.5882  0.6505  0.2903
  128MOL0     C16776   3.583   4.670   7.269  0.6743  0.5011  0.9818
  128MOL0     C16777   3.523   4.653   7.410  0.5668  0.5240  0.3704
  128MOL0     C16778   3.367   4.673   7.394 -0.2387  0.5442  0.3205
  128MOL0     C16779   3.291   4.653   7.525  0.6418  0.2031 -0.6315
  128MOL0     C16780   3.138   4.649   7.493 -0.3558  0.5059  0.2124
  128MOL0     N16781   3.064   4.627   7.619 -0.0827  0.3032  0.5711
  128MOL0     C16782   3.085   4.535   7.720 -0.1454 -0.4106 -1.2832
  128MOL0     C16783   2.971   4.532   7.790 -0.5677 -0.0662  0.9133
  128MOL0     C16784   2.935   4.452   7.910 -0.0202  0.8734 -0.2520
  128MOL0     C16785   2.902   4.311   7.850 -0.0757  0.2022  0.4878
  128MOL0     C16786   2.842   4.207   7.954  0.3734 -0.4318  0.2488
  128MOL0     C16787   2.751   4.263   8.071  0.4127  0.4114  0.7671
  128MOL0     O16788   2.623   4.309   8.032  0.2313  0.1700  0.1983
  128MOL0     C16789   2.519   4.222   8.019 -0.5635  0.2882 -0.3872
  128MOL0     C16790   2.441   4.233   7.908  0.3308  0.6180  0.0745
  128MOL0     C16791   2.315   4.169   7.906  0.2075 -0.3403  0.8448
  128MOL0     C16792   2.261   4.107   8.006 -0.2660  0.6666 -0.3180
  128MOL0     C16793   2.130   4.041   7.987 -0.4541 -0.0444 -0.7550
  128MOL0     O16794   2.084   4.010   7.861 -0.5639 -0.0577 -0.5627
  128MOL0     C16795   1.952   3.974   7.858  0.0898  0.2760 -0.8901
  128MOL0     C16796   1.879   4.043   7.760 -0.6038  0.1814  0.5608
  128MOL0     C16797   1.741   4.017   7.741 -0.4277 -0.5666 -0.4189
  128MOL0     C16798   1.677   3.921   7.825  0.2245 -0.7944  0.6312
  128MOL0     O16799   1.551   3.876   7.809 -0.4507  0.0151  0.3634
  128MOL0     C16800   1.456   3.983   7.794 -1.4738  0.1780  0.6145
  128MOL0     C16801   1.364   3.953   7.904  0.2362 -0.0981 -0.0132
  128MOL0     C16802   1.384   4.041   8.032  0.1676  0.3515  0.4576
  128MOL0     C16803   1.299   4.002   8.146  0.7872  0.1253  0.3407
  128MOL0     C16804   1.152   4.052   8.115 -0.0239 -0.4383 -0.5405
  128MOL0     C16805   1.071   4.041   8.236  0.1801 -0.1451 -0.5734
  128MOL0     C16806   0.943   4.122   8.225  0.7829 -0.5696 -0.8844
  128MOL0     C16807   0.892   4.166   8.369  0.3253  0.2099 -0.6913
  128MOL0    Cl16808   0.734   4.258   8.397  0.1404 -0.2247 -0.0875
  128MOL0     C16809   1.758   3.862   7.922  0.0018  0.0298 -0.5306
  128MOL0     C16810   1.895   3.878   7.937 -0.4217  0.2166  0.2286
  128MOL0     O16811   2.081   4.008   8.098  0.5566 -0.9003 -0.5005
  128MOL0     C16812   2.338   4.104   8.123  0.1696 -0.1779 -0.1100
  128MOL0     C16813   2.464   4.155   8.132  1.1801 -0.6616  0.4670
  128MOL0     N16814   2.881   4.624   7.739  0.0782 -0.1599 -0.5091
  128MOL0     N16815   2.938   4.672   7.635 -0.7144 -0.5168 -0.7814
  128MOL0     C16816   4.209   4.809   6.904 -0.1930  0.2725 -0.4252
  128MOL0     C16817   4.344   4.854   6.899 -0.2504  0.5049  0.0066
  128MOL0     C16818   4.793   4.822   7.001  0.9159  0.6385  0.4894
  128MOL0     C16819   4.817   4.846   7.138  0.5527 -0.4337 -0.4886
  128MOL0     C16820   4.935   4.823   7.205  0.5621 -0.6045  0.4519
  128MOL0     C16821   5.039   4.765   7.131 -0.1174 -0.6499  0.0740
  128MOL0     O16822   5.153   4.753   7.202  0.8271 -0.4210 -0.1766
  128MOL0     C16823   5.277   4.696   7.149 -0.2841  0.6101  0.1859
  128MOL0     C16824   5.394   4.741   7.229 -0.3214 -0.6683 -0.0853
  128MOL0     C16825   5.522   4.669   7.188  0.4325 -0.1168  0.0005
  128MOL0     C16826   5.641   4.748   7.229 -0.2777  0.0713 -0.0632
  128MOL0     C16827   5.752   4.655   7.241 -0.3855  0.4322 -0.2136
  128MOL0     C16828   5.843   4.583   7.273 -0.4796 -0.2870 -0.3193
  128MOL0     C16829   5.023   4.751   6.991 -0.7041 -0.2999  0.3925
  128MOL0     C16830   4.903   4.787   6.923 -0.6653  0.8491 -0.2285
  128MOL0     H16831   4.421   4.820   7.226  2.2358 -0.4108 -1.3335
  128MOL0     H16832   4.176   4.762   7.234 -0.3775  0.4505  0.2087
  128MOL0     H16833   3.964   4.777   7.230  0.9698 -1.1540  3.0219
  128MOL0     H16834   4.005   4.607   7.190  2.2609  1.1474 -1.5944
  128MOL0     H16835   3.765   4.616   7.069 -4.3496 -0.7187  2.7054
  128MOL0     H16836   3.765   4.778   7.102 -1.5724 -1.2643  0.7366
  128MOL0     H16837   3.763   4.746   7.351  0.8416  0.6323  0.1954
  128MOL0     H16838   3.767   4.578   7.339  0.5488  1.4544  1.6299
  128MOL0     H16839   3.546   4.765   7.230  0.8343  1.0429  2.1245
  128MOL0     H16840   3.549   4.593   7.198 -1.8946  1.8710  0.6194
  128MOL0     H16841   3.568   4.723   7.480 -1.0052 -0.6445  2.6676
  128MOL0     H16842   3.544   4.553   7.449  1.1487  0.2324 -0.6333
  128MOL0     H16843   3.329   4.612   7.312 -0.7213  2.1874 -0.7338
  128MOL0     H16844   3.356   4.776   7.358  1.7954  1.5598  2.3578
  128MOL0     H16845   3.330   4.563   7.574 -0.2298 -0.4848 -1.1657
  128MOL0     H16846   3.315   4.727   7.601  3.1608 -3.0033  2.0093
  128MOL0     H16847   3.099   4.576   7.422 -0.3762  0.4229  0.3082
  128MOL0     H16848   3.112   4.747   7.451  2.2051  0.1123 -2.6281
  128MOL0     H16849   3.161   4.459   7.735 -0.4402 -0.3209  1.1857
  128MOL0     H16850   2.844   4.496   7.951 -1.0506 -0.7155 -0.7253
  128MOL0     H16851   3.020   4.450   7.979  0.0792  1.6064 -0.3471
  128MOL0     H16852   2.987   4.263   7.801  0.6588  2.6988 -0.9132
  128MOL0     H16853   2.818   4.325   7.780 -0.6600  1.7834  1.4506
  128MOL0     H16854   2.788   4.140   7.887 -2.2197 -0.2896  2.0670
  128MOL0     H16855   2.917   4.157   8.016  0.9406  0.5481  0.3866
  128MOL0     H16856   2.804   4.343   8.124  2.9550 -0.1993 -0.7366
  128MOL0     H16857   2.735   4.189   8.150  0.7854  0.7041  1.1256
  128MOL0     H16858   2.489   4.280   7.823 -2.5558  0.7713 -1.5892
  128MOL0     H16859   2.265   4.183   7.811 -2.0454 -0.7523  1.8966
  128MOL0     H16860   1.945   4.118   7.717  2.6414 -2.4148  0.5987
  128MOL0     H16861   1.684   4.068   7.663 -2.6889 -1.7092  0.4015
  128MOL0     H16862   1.406   3.979   7.697 -1.5527  0.8984  0.6203
  128MOL0     H16863   1.480   4.088   7.816 -0.7890  0.5132 -1.4777
  128MOL0     H16864   1.373   3.850   7.938 -3.8719 -0.8937 -0.7965
  128MOL0     H16865   1.257   3.956   7.880  0.1227  1.1837  0.5572
  128MOL0     H16866   1.368   4.144   8.000 -2.1688 -0.5242 -1.5351
  128MOL0     H16867   1.487   4.033   8.069  0.8321  0.7623 -1.2385
  128MOL0     H16868   1.299   3.893   8.153  0.1257  0.0676 -0.3750
  128MOL0     H16869   1.340   4.050   8.235 -0.9573  0.8006  0.8249
  128MOL0     H16870   1.105   3.987   8.040 -0.3121  0.1207 -0.8491
  128MOL0     H16871   1.157   4.154   8.076  1.0170 -0.5364 -0.6962
  128MOL0     H16872   1.121   4.077   8.326 -3.3398  3.1688  0.3685
  128MOL0     H16873   1.046   3.937   8.258 -1.9826  0.6473  1.2101
  128MOL0     H16874   0.954   4.222   8.183 -1.2056 -0.6136 -1.6338
  128MOL0     H16875   0.869   4.068   8.164  0.0121 -0.9236  0.3180
  128MOL0     H16876   0.972   4.233   8.405  1.2570  0.0145 -2.3085
  128MOL0     H16877   0.889   4.076   8.430  1.5647  1.3763  1.2076
  128MOL0     H16878   1.713   3.786   7.985  0.8417  0.6505  0.8645
  128MOL0     H16879   1.945   3.825   8.017 -0.7006  0.4420  0.5550
  128MOL0     H16880   2.298   4.049   8.208 -0.7458  2.6784  1.4432
  128MOL0     H16881   2.508   4.152   8.232 -0.4187 -0.9307  1.1936
  128MOL0     H16882   4.154   4.788   6.812 -0.4355 -0.8455 -0.0369
  128MOL0     H16883   4.397   4.875   6.806  0.1948 -2.1140 -0.4180
  128MOL0     H16884   4.734   4.881   7.198  1.0727 -2.3658  1.4917
  128MOL0     H16885   4.937   4.851   7.310 -0.4985  2.2579 -0.1875
  128MOL0     H16886   5.277   4.703   7.040  0.7936 -0.2719  0.1144
  128MOL0     H16887   5.278   4.589   7.171 -3.2200  0.4287 -0.1530
  128MOL0     H16888   5.395   4.847   7.201 -1.4981 -0.6751 -0.2121
  128MOL0     H16889   5.383   4.730   7.337  1.8337 -0.9573  0.1409
  128MOL0     H16890   5.530   4.645   7.082  0.1290 -3.1823  0.5736
  128MOL0     H16891   5.517   4.575   7.244 -0.1629 -0.1261 -0.0596
  128MOL0     H16892   5.652   4.823   7.150 -0.8058 -0.8532 -1.0287
  128MOL0     H16893   5.641   4.794   7.328  2.4909 -2.9854  1.5650
  128MOL0     H16894   5.927   4.522   7.299 -1.2175 -0.7643  1.0452
  128MOL0     H16895   5.111   4.725   6.933  0.7520  0.7925  2.0141
  128MOL0     H16896   4.907   4.761   6.818  2.3029 -0.9720  0.2148
  129MOL0     O16897  10.510   0.796   2.560  0.1931  0.5448  0.2298
  129MOL0     C16898  10.540   0.835   2.673 -0.2650 -0.2945 -0.0498
  129MOL0     O16899  10.445   0.848   2.769  0.2369  0.1020 -0.3215
  129MOL0     C16900  10.324   0.789   2.747  0.2102  0.0497  0.7033
  129MOL0     C16901  10.219   0.862   2.681  0.3944 -0.1708 -0.2767
  129MOL0     C16902  10.092   0.808   2.679 -0.9893 -0.1868  0.2485
  129MOL0     C16903  10.064   0.687   2.734 -0.4992  0.2989 -0.4162
  129MOL0     O16904   9.939   0.633   2.734  0.2712  0.0715  0.6158
  129MOL0     C16905   9.827   0.726   2.763 -1.0739  0.3241 -0.5999
  129MOL0     C16906   9.701   0.665   2.740  1.5944  1.1198  0.8928
  129MOL0     C16907   9.590   0.760   2.732  0.6997  0.2219  0.1454
  129MOL0     C16908   9.465   0.682   2.690  0.7305  0.4068  0.0131
  129MOL0     C16909   9.328   0.744   2.739 -0.2114  0.3027  0.5186
  129MOL0     C16910   9.222   0.634   2.743 -0.4617 -0.1206  0.5564
  129MOL0     C16911   9.082   0.688   2.756  0.5101 -0.4790 -0.7247
  129MOL0     C16912   8.982   0.565   2.721 -0.6573 -0.5811  0.4191
  129MOL0     N16913   8.841   0.607   2.712 -0.0004  0.2464  0.1734
  129MOL0     C16914   8.731   0.571   2.795 -0.0574  1.0155 -0.4722
  129MOL0     C16915   8.628   0.657   2.769 -0.5181  0.4963  0.0102
  129MOL0     C16916   8.483   0.670   2.810 -0.2396 -0.8188  0.7542
  129MOL0     C16917   8.400   0.577   2.726  0.6144  0.6453  0.5127
  129MOL0     C16918   8.253   0.581   2.766 -0.1845 -0.6085 -0.2437
  129MOL0     C16919   8.175   0.453   2.736  0.3202  0.1317 -0.4096
  129MOL0     O16920   8.185   0.350   2.842 -0.0649  0.0074  0.7766
  129MOL0     C16921   8.079   0.261   2.853  0.1428 -0.3089 -0.2733
  129MOL0     C16922   7.957   0.259   2.792 -0.7365 -0.1692  0.0323
  129MOL0     C16923   7.868   0.154   2.815  0.4541  0.0677  0.6510
  129MOL0     C16924   7.894   0.060   2.908 -0.5712 -0.0288 -0.5931
  129MOL0     C16925   7.789  -0.042   2.945  0.2511  0.6580 -0.0874
  129MOL0     O16926   7.672  -0.032   2.874  0.4965 -0.0402 -0.0751
  129MOL0     C16927   7.575  -0.122   2.906  0.3299  0.1581 -1.0660
  129MOL0     C16928   7.519  -0.185   2.795 -0.3265  0.2794 -0.2947
  129MOL0     C16929   7.406  -0.257   2.811 -0.3189  0.5153 -0.5671
  129MOL0     C16930   7.340  -0.273   2.935 -0.2090  0.7191 -0.2085
  129MOL0     O16931   7.222  -0.344   2.930 -0.6252  0.2890  0.4425
  129MOL0     C16932   7.155  -0.393   3.052 -0.0226 -0.1170 -0.6681
  129MOL0     C16933   7.075  -0.275   3.117  0.0271  0.0456 -0.4219
  129MOL0     C16934   6.945  -0.312   3.190  1.0539  0.4324  0.2490
  129MOL0     C16935   6.860  -0.439   3.153 -0.4232  0.2384 -0.2086
  129MOL0     C16936   6.715  -0.429   3.212  0.1512 -0.8022  0.2815
  129MOL0     C16937   6.615  -0.540   3.171  0.9376 -0.3571  0.1204
  129MOL0     C16938   6.543  -0.501   3.047  1.0555  0.1508  0.2249
  129MOL0     C16939   6.460  -0.627   3.001  0.0044  0.1057 -1.1799
  129MOL0    Cl16940   6.300  -0.640   3.083 -0.0082  0.0705  0.0668
  129MOL0     C16941   7.396  -0.203   3.045  0.6776 -0.9129 -0.2797
  129MOL0     C16942   7.512  -0.132   3.037 -0.4394 -0.0825  0.0254
  129MOL0     O16943   7.810  -0.126   3.040 -0.2390 -0.3163  0.0157
  129MOL0     C16944   8.011   0.068   2.987  0.0477 -0.1553  0.2422
  129MOL0     C16945   8.103   0.171   2.958  0.8975 -0.3647 -0.3917
  129MOL0     N16946   8.672   0.725   2.657  0.5529  0.4787  0.4383
  129MOL0     N16947   8.798   0.704   2.627 -0.2747 -0.2041 -0.1172
  129MOL0     C16948  10.164   0.614   2.791 -1.1099  0.0603 -0.1369
  129MOL0     C16949  10.287   0.667   2.802 -0.6734 -0.0693 -0.2446
  129MOL0     C16950  10.674   0.880   2.700  0.1805 -0.2477  0.2264
  129MOL0     C16951  10.700   0.936   2.831  0.0487 -0.1611 -0.1987
  129MOL0     C16952  10.833   0.989   2.861  0.4541 -0.2641 -0.2667
  129MOL0     C16953  10.932   1.001   2.763  0.1757  0.1142 -0.3039
  129MOL0     O16954  11.056   1.064   2.793 -0.0851  0.1092 -0.0461
  129MOL0     C16955  11.161   1.066   2.701  0.8153  0.8300  0.4248
  129MOL0     C16956  11.266   0.955   2.713 -0.0800  0.0005  0.3690
  129MOL0     C16957  11.370   0.953   2.828  0.1757 -0.8679 -0.9803
  129MOL0     C16958  11.485   0.865   2.797 -0.0475 -0.5906  0.5196
  129MOL0     C16959  11.589   0.865   2.898 -0.2542 -0.1507 -0.6184
  129MOL0     C16960  11.686   0.857   2.970 -0.2031  0.1416 -1.2106
  129MOL0     C16961  10.897   0.940   2.638 -0.6047 -0.1325  0.2865
  129MOL0     C16962  10.779   0.868   2.610 -0.0197  0.9202 -0.1408
  129MOL0     H16963  10.233   0.964   2.645 -2.1873 -1.1478 -4.9229
  129MOL0     H16964  10.007   0.864   2.641 -1.2620 -1.6691 -1.4280
  129MOL0     H16965   9.835   0.820   2.708 -0.7563  0.1874 -0.7890
  129MOL0     H16966   9.839   0.752   2.869  0.6645 -0.1918 -0.6367
  129MOL0     H16967   9.674   0.581   2.806 -3.3210 -1.0109 -3.1685
  129MOL0     H16968   9.703   0.623   2.639  1.2027 -1.9447  2.0481
  129MOL0     H16969   9.613   0.846   2.669  2.3464 -0.1667  0.1714
  129MOL0     H16970   9.573   0.804   2.831  1.5051  0.3445  0.2369
  129MOL0     H16971   9.456   0.671   2.581 -1.5412  1.1019  0.0716
  129MOL0     H16972   9.469   0.581   2.730 -1.8073  0.8828  1.6762
  129MOL0     H16973   9.301   0.829   2.676  0.6122 -1.2862 -2.1123
  129MOL0     H16974   9.350   0.777   2.841  1.4711  2.2846 -0.4046
  129MOL0     H16975   9.241   0.555   2.816  0.9656  0.4046  0.7800
  129MOL0     H16976   9.218   0.588   2.644 -0.1020  0.2058  0.3886
  129MOL0     H16977   9.064   0.719   2.860 -4.4270 -0.8735 -1.2309
  129MOL0     H16978   9.064   0.773   2.690 -4.3384  0.3998  1.2968
  129MOL0     H16979   8.970   0.484   2.794 -2.5247  0.2722  1.1305
  129MOL0     H16980   9.002   0.519   2.624  0.5665 -0.3945  0.5707
  129MOL0     H16981   8.732   0.494   2.872 -2.4410  0.1114 -1.2296
  129MOL0     H16982   8.436   0.767   2.793  0.6451 -0.0268  2.5481
  129MOL0     H16983   8.467   0.626   2.909  2.0557 -2.5708  0.4562
  129MOL0     H16984   8.437   0.475   2.737  0.8850  0.9808  3.3053
  129MOL0     H16985   8.417   0.612   2.623 -0.1022  0.9079  0.4796
  129MOL0     H16986   8.242   0.605   2.872  0.6143  2.1346 -0.6959
  129MOL0     H16987   8.208   0.660   2.705  0.5300 -0.8395 -1.0919
  129MOL0     H16988   8.211   0.418   2.639  0.1415 -1.3811  0.0510
  129MOL0     H16989   8.070   0.481   2.724 -0.6819 -1.4069  3.3256
  129MOL0     H16990   7.931   0.337   2.722  3.0903  1.7582  0.4744
  129MOL0     H16991   7.775   0.160   2.759  0.7542  0.8426  0.2251
  129MOL0     H16992   7.566  -0.177   2.697  0.6529 -1.5470 -0.0380
  129MOL0     H16993   7.381  -0.311   2.720  2.4238  0.1626 -1.2008
  129MOL0     H16994   7.206  -0.460   3.122 -0.0560 -0.8466 -1.3257
  129MOL0     H16995   7.079  -0.461   3.012  0.4770 -1.5224  0.6792
  129MOL0     H16996   7.044  -0.219   3.028  2.0678 -2.0834 -2.6049
  129MOL0     H16997   7.147  -0.220   3.179  0.4057 -1.0132  0.0935
  129MOL0     H16998   6.882  -0.222   3.196 -0.0001 -0.1569 -1.2654
  129MOL0     H16999   6.970  -0.335   3.294  2.0799 -1.6944 -0.4152
  129MOL0     H17000   6.849  -0.454   3.045  0.7789 -2.8671 -0.0231
  129MOL0     H17001   6.917  -0.529   3.178 -3.4547 -1.7030  0.3231
  129MOL0     H17002   6.665  -0.335   3.188 -0.4773 -1.6367 -1.9712
  129MOL0     H17003   6.728  -0.439   3.320 -2.5275 -3.5246  0.5092
  129MOL0     H17004   6.545  -0.578   3.246 -1.3152  1.8220 -0.7366
  129MOL0     H17005   6.667  -0.635   3.155 -0.8798 -1.5515  0.9674
  129MOL0     H17006   6.467  -0.425   3.066 -0.1184 -1.6079  3.2007
  129MOL0     H17007   6.612  -0.487   2.963  2.9212 -3.0325  1.0620
  129MOL0     H17008   6.515  -0.720   3.019 -0.3649  0.1084  0.1103
  129MOL0     H17009   6.447  -0.610   2.894  1.3488  2.6891 -1.0041
  129MOL0     H17010   7.348  -0.212   3.141 -2.0107  0.7882 -1.3544
  129MOL0     H17011   7.546  -0.072   3.120  1.3759 -1.9525  0.7130
  129MOL0     H17012   8.034  -0.007   3.062  0.5987  1.5183  1.8230
  129MOL0     H17013   8.194   0.165   3.016 -0.2748  0.4101  1.6521
  129MOL0     H17014  10.154   0.512   2.827  3.6735 -1.0810 -1.3701
  129MOL0     H17015  10.362   0.610   2.855 -1.5180 -2.3501 -1.3687
  129MOL0     H17016  10.617   0.951   2.899  0.9236 -0.5825  1.0170
  129MOL0     H17017  10.850   1.041   2.955 -0.1980 -0.3603 -0.0841
  129MOL0     H17018  11.211   1.160   2.722 -0.6010  0.9209  4.0820
  129MOL0     H17019  11.124   1.060   2.598  1.7050 -0.1353  0.1435
  129MOL0     H17020  11.212   0.860   2.712  0.4210 -0.3030 -1.2384
  129MOL0     H17021  11.327   0.957   2.622 -0.6292 -0.4432 -0.0173
  129MOL0     H17022  11.313   0.915   2.913 -0.8961  1.3103 -0.6552
  129MOL0     H17023  11.394   1.059   2.842 -0.9399 -0.3927 -2.3376
  129MOL0     H17024  11.450   0.762   2.788 -2.4176  0.2672 -0.8119
  129MOL0     H17025  11.531   0.902   2.705 -2.7955  1.0089 -0.3155
  129MOL0     H17026  11.762   0.852   3.046 -1.1701  0.6341 -0.1820
  129MOL0     H17027  10.961   0.936   2.551  0.4403  0.6219  0.9942
  129MOL0     H17028  10.770   0.816   2.515  0.5207  0.8181 -0.1419
  130MOL0     O17029   4.642   3.156   8.155  0.1648  0.4021 -0.2900
  130MOL0     C17030   4.693   3.060   8.213  0.3089 -0.0719  0.9528
  130MOL0     O17031   4.662   2.922   8.208 -0.0853  0.2870 -0.3304
  130MOL0     C17032   4.555   2.896   8.126 -0.0352  0.0121  0.3936
  130MOL0     C17033   4.575   2.866   7.988  0.2815  0.5333  0.9006
  130MOL0     C17034   4.479   2.801   7.913 -0.6168 -1.1334  0.0705
  130MOL0     C17035   4.350   2.775   7.975  0.4472  0.4192  0.2121
  130MOL0     O17036   4.232   2.739   7.914  0.0656 -1.2103 -0.0719
  130MOL0     C17037   4.241   2.644   7.807  0.3055  0.0799  0.3499
  130MOL0     C17038   4.144   2.525   7.845 -0.8033  0.3906 -0.0276
  130MOL0     C17039   4.168   2.403   7.754  0.5288  1.2173  0.1528
  130MOL0     C17040   4.110   2.413   7.605 -0.4789 -0.6922  0.8288
  130MOL0     C17041   3.966   2.445   7.592  1.0397  0.1239 -0.3190
  130MOL0     C17042   3.872   2.334   7.649 -0.1657  0.0796 -0.0330
  130MOL0     C17043   3.730   2.350   7.600 -0.0531 -0.8102  0.4496
  130MOL0     C17044   3.636   2.393   7.719  0.2686  0.4221  0.6040
  130MOL0     N17045   3.586   2.260   7.766  0.1912  0.9933 -0.2329
  130MOL0     C17046   3.470   2.216   7.721 -0.1310  0.3773 -0.0111
  130MOL0     C17047   3.456   2.096   7.782 -0.1954 -0.1866  0.4901
  130MOL0     C17048   3.324   2.015   7.768  0.0991  1.1374  0.8029
  130MOL0     C17049   3.344   1.926   7.643  0.3310  0.1937 -0.1039
  130MOL0     C17050   3.277   1.979   7.509  0.8836 -0.1595  0.1867
  130MOL0     C17051   3.272   1.860   7.407  0.1974  0.8329 -0.1927
  130MOL0     O17052   3.233   1.730   7.469 -0.3839 -0.1571  0.6688
  130MOL0     C17053   3.100   1.708   7.489 -1.1560 -0.6876 -0.1884
  130MOL0     C17054   2.997   1.755   7.413 -0.5463 -0.4133 -0.6417
  130MOL0     C17055   2.865   1.726   7.441  0.6282 -0.6373  0.0767
  130MOL0     C17056   2.831   1.651   7.553  0.1273  0.0306  0.1034
  130MOL0     C17057   2.687   1.623   7.589  0.5274  0.4495  0.1478
  130MOL0     O17058   2.672   1.563   7.721 -0.1242 -0.6752  0.6987
  130MOL0     C17059   2.559   1.542   7.789 -0.8401  0.3337 -0.2588
  130MOL0     C17060   2.437   1.602   7.758 -1.1670 -0.2898  0.1027
  130MOL0     C17061   2.328   1.572   7.844  0.4787  0.6636 -1.0078
  130MOL0     C17062   2.334   1.482   7.946 -0.2070 -0.1420 -0.6428
  130MOL0     O17063   2.228   1.464   8.028 -0.1145 -0.6562 -0.7643
  130MOL0     C17064   2.230   1.553   8.139 -0.6390 -0.3686 -0.0180
  130MOL0     C17065   2.113   1.505   8.227  0.3928 -0.5212  0.3952
  130MOL0     C17066   2.051   1.611   8.309 -0.0089 -0.5135  0.0607
  130MOL0     C17067   1.929   1.578   8.390 -0.6234  0.4674 -0.0229
  130MOL0     C17068   1.860   1.695   8.472 -0.5080 -0.1017  0.1259
  130MOL0     C17069   1.730   1.658   8.537 -0.7052 -0.0367 -0.1565
  130MOL0     C17070   1.611   1.677   8.445  0.1895 -0.1395 -0.1782
  130MOL0     C17071   1.486   1.693   8.522 -0.0200  0.7494 -0.0089
  130MOL0    Cl17072   1.448   1.540   8.606  0.2388 -0.1201 -0.2671
  130MOL0     C17073   2.456   1.426   7.983  0.1970  0.2684  0.2903
  130MOL0     C17074   2.568   1.466   7.911  0.1075  0.0627  0.6103
  130MOL0     O17075   2.599   1.639   7.501  0.3904 -0.7399 -0.2997
  130MOL0     C17076   2.934   1.597   7.631 -0.1263 -0.3856 -0.1101
  130MOL0     C17077   3.067   1.632   7.594  0.0352  0.2348 -1.0664
  130MOL0     N17078   3.555   2.078   7.872 -0.4270  0.7558  0.3907
  130MOL0     N17079   3.641   2.183   7.858  0.7795 -0.2807 -0.0297
  130MOL0     C17080   4.333   2.802   8.112  0.2631  0.3480  0.0927
  130MOL0     C17081   4.438   2.861   8.184 -0.3925 -1.1415  0.1528
  130MOL0     C17082   4.797   3.106   8.307 -0.3445 -0.3058 -0.0891
  130MOL0     C17083   4.854   3.237   8.292  0.1359 -0.0020  0.1359
  130MOL0     C17084   4.961   3.276   8.373  0.1563  0.5816 -0.3450
  130MOL0     C17085   5.032   3.183   8.453 -0.1123  0.4275  0.4084
  130MOL0     O17086   5.143   3.205   8.524 -0.0256 -0.4456 -0.0732
  130MOL0     C17087   5.210   3.333   8.500 -0.5940 -0.2459 -0.1562
  130MOL0     C17088   5.319   3.358   8.596 -0.1476 -0.5541  0.0876
  130MOL0     C17089   5.393   3.491   8.545  0.1644 -0.5078 -0.4780
  130MOL0     C17090   5.498   3.543   8.642  0.4409 -0.0263  0.0638
  130MOL0     C17091   5.567   3.440   8.721  1.5640 -0.3770 -1.0490
  130MOL0     C17092   5.626   3.363   8.792 -0.3113 -0.3796  0.2006
  130MOL0     C17093   4.962   3.060   8.476  0.5918  0.2895 -0.4386
  130MOL0     C17094   4.851   3.016   8.407 -0.2725 -0.0667 -0.1049
  130MOL0     H17095   4.670   2.888   7.939  1.7237  1.7810  4.0237
  130MOL0     H17096   4.485   2.775   7.808 -0.1333  0.6933 -0.3918
  130MOL0     H17097   4.341   2.600   7.792 -0.4371 -0.8835 -2.3360
  130MOL0     H17098   4.219   2.685   7.708  2.3027 -0.7952 -0.5123
  130MOL0     H17099   4.042   2.561   7.855 -0.1140  1.9174  2.3373
  130MOL0     H17100   4.177   2.492   7.944 -0.4325  0.4983 -0.1126
  130MOL0     H17101   4.116   2.322   7.806  2.2532  0.8477  1.3662
  130MOL0     H17102   4.273   2.375   7.744  0.0664 -0.3490 -0.6666
  130MOL0     H17103   4.178   2.470   7.541 -0.6078 -3.2528 -1.8062
  130MOL0     H17104   4.129   2.313   7.565 -0.3183 -0.8954  1.3973
  130MOL0     H17105   3.959   2.456   7.484  0.5212  1.2111 -0.1930
  130MOL0     H17106   3.955   2.546   7.633 -0.3908  0.9622 -2.5957
  130MOL0     H17107   3.871   2.324   7.758 -2.2562  0.5526  0.0522
  130MOL0     H17108   3.902   2.235   7.612  1.1253 -0.6484  2.7340
  130MOL0     H17109   3.728   2.433   7.529 -0.4873 -1.3029 -0.1249
  130MOL0     H17110   3.704   2.265   7.536  0.4474  2.2258 -4.3010
  130MOL0     H17111   3.555   2.453   7.676  1.4447  2.3243  0.8973
  130MOL0     H17112   3.677   2.455   7.799 -0.1814  1.1921  0.2485
  130MOL0     H17113   3.388   2.247   7.658 -0.5584 -0.4219  0.1383
  130MOL0     H17114   3.233   2.074   7.759 -1.1416 -0.8933 -1.0446
  130MOL0     H17115   3.325   1.951   7.856 -0.4289 -0.7969 -0.5442
  130MOL0     H17116   3.309   1.827   7.674 -0.7062  0.2468 -1.0665
  130MOL0     H17117   3.450   1.910   7.622  0.0719 -1.4926 -0.2880
  130MOL0     H17118   3.174   2.016   7.522  0.1456 -2.1485  0.3062
  130MOL0     H17119   3.316   2.070   7.461  0.1388  0.3316  0.4816
  130MOL0     H17120   3.373   1.837   7.372 -0.7008 -0.4588 -2.0878
  130MOL0     H17121   3.213   1.894   7.322 -1.9644 -0.9144  0.4964
  130MOL0     H17122   3.019   1.816   7.325 -3.0894 -0.4478 -1.3906
  130MOL0     H17123   2.792   1.770   7.375  1.4218  0.4581 -0.1002
  130MOL0     H17124   2.427   1.684   7.688  1.7374  1.7565  1.8486
  130MOL0     H17125   2.227   1.608   7.825  0.0009  0.6433  1.2382
  130MOL0     H17126   2.205   1.658   8.116  1.2214  1.1712  3.9801
  130MOL0     H17127   2.329   1.563   8.186  0.0129 -2.8393 -0.7296
  130MOL0     H17128   2.141   1.416   8.283  1.0366 -0.3230  0.3910
  130MOL0     H17129   2.036   1.470   8.158  3.6526 -1.4819 -3.1088
  130MOL0     H17130   2.014   1.691   8.245 -3.3998 -0.6902  1.5464
  130MOL0     H17131   2.126   1.653   8.377  0.6688 -1.1035 -0.3151
  130MOL0     H17132   1.850   1.532   8.330 -0.7535 -1.5493  1.5849
  130MOL0     H17133   1.948   1.497   8.461 -2.5877 -3.3425 -3.4662
  130MOL0     H17134   1.842   1.768   8.393 -1.5223 -0.2680  0.1889
  130MOL0     H17135   1.934   1.733   8.543  1.4021  0.2709 -1.9438
  130MOL0     H17136   1.708   1.722   8.624 -2.3013  0.0359 -0.5818
  130MOL0     H17137   1.735   1.556   8.575 -1.2620  1.0582  3.2744
  130MOL0     H17138   1.627   1.763   8.379 -0.5637  0.4354  0.3683
  130MOL0     H17139   1.604   1.589   8.382  4.9563 -1.4797  0.7237
  130MOL0     H17140   1.397   1.717   8.463  1.6103  1.6004 -2.2436
  130MOL0     H17141   1.494   1.776   8.593  0.1924  0.3528  0.4381
  130MOL0     H17142   2.465   1.368   8.074 -0.0494  1.7616  1.3196
  130MOL0     H17143   2.660   1.423   7.947  0.1696 -0.1768  0.1749
  130MOL0     H17144   2.919   1.536   7.720 -2.9379 -0.5738 -0.6383
  130MOL0     H17145   3.143   1.580   7.652 -1.7768  0.7728  2.0541
  130MOL0     H17146   4.241   2.786   8.168 -0.2638  2.1380 -0.1879
  130MOL0     H17147   4.426   2.873   8.291 -2.4971 -0.4554 -0.1010
  130MOL0     H17148   4.812   3.303   8.216 -0.9574 -0.3686  0.4061
  130MOL0     H17149   4.994   3.374   8.340  1.6070  0.4813  0.7314
  130MOL0     H17150   5.142   3.416   8.523  3.1423  2.2492  2.9703
  130MOL0     H17151   5.243   3.353   8.397 -1.6616  2.3328 -0.0676
  130MOL0     H17152   5.269   3.366   8.693  0.0684  0.5575  0.1208
  130MOL0     H17153   5.390   3.276   8.604 -0.8670 -1.0596  1.5096
  130MOL0     H17154   5.322   3.572   8.528  0.7360 -0.2385 -1.7076
  130MOL0     H17155   5.444   3.473   8.450  1.9321  1.1493  0.0888
  130MOL0     H17156   5.570   3.605   8.588 -0.2520  0.4209 -0.3691
  130MOL0     H17157   5.451   3.614   8.710 -1.4942  0.7442 -1.9312
  130MOL0     H17158   5.677   3.306   8.867  2.8439  0.5839 -1.0536
  130MOL0     H17159   5.005   2.984   8.540 -1.7440 -0.4344  0.3738
  130MOL0     H17160   4.825   2.911   8.418  0.6830 -0.1351  1.9268
  131MOL0     O17161   6.523   9.635   4.117  0.1173  0.3293  0.0271
  131MOL0     C17162   6.552   9.620   4.237 -0.0684  0.0401 -0.2027
  131MOL0     O17163   6.472   9.647   4.343 -0.3133  1.0656 -0.4212
  131MOL0     C17164   6.341   9.688   4.328  0.3824 -0.2088 -0.5499
  131MOL0     C17165   6.280   9.796   4.399 -0.9196 -0.7585  0.2126
  131MOL0     C17166   6.144   9.799   4.400 -0.4949  1.0194 -0.7962
  131MOL0     C17167   6.064   9.709   4.342  0.6072  0.0578  1.5405
  131MOL0     O17168   5.927   9.730   4.355  0.5616  0.5571 -0.4259
  131MOL0     C17169   5.830   9.630   4.346  0.5347 -0.7109  0.4610
  131MOL0     C17170   5.703   9.701   4.308 -0.3468  0.8095 -0.7204
  131MOL0     C17171   5.590   9.605   4.297 -0.5496  0.0292 -0.8265
  131MOL0     C17172   5.454   9.664   4.279  0.3047  0.5246 -1.2728
  131MOL0     C17173   5.348   9.561   4.237  0.7893  0.4271  0.4189
  131MOL0     C17174   5.205   9.604   4.262  0.4158 -0.0132  0.7960
  131MOL0     C17175   5.157   9.714   4.158  0.5293  1.4742  0.9171
  131MOL0     C17176   5.166   9.659   4.012  0.1924  0.0840 -0.0881
  131MOL0     N17177   5.089   9.527   3.992 -1.3027 -0.0223  0.4182
  131MOL0     C17178   4.959   9.498   3.996 -0.2657 -0.1030  0.2012
  131MOL0     C17179   4.940   9.360   4.001  0.1125 -0.0652 -0.2642
  131MOL0     C17180   4.808   9.290   4.000  0.6206 -0.7265  0.3749
  131MOL0     C17181   4.833   9.143   3.969  0.7168  0.1190  0.2147
  131MOL0     C17182   4.706   9.064   3.963  0.4966  0.4483 -0.1086
  131MOL0     C17183   4.609   9.100   3.851  0.9718 -0.0608 -0.4352
  131MOL0     O17184   4.534   8.975   3.834 -0.8987 -0.0192 -0.2696
  131MOL0     C17185   4.424   8.932   3.904  0.5617 -0.2799 -0.4615
  131MOL0     C17186   4.379   9.008   4.009  0.1162 -0.0631  1.1160
  131MOL0     C17187   4.261   8.968   4.079  0.6572  0.5165 -0.2228
  131MOL0     C17188   4.190   8.852   4.050  0.1492  0.8033 -0.6912
  131MOL0     C17189   4.066   8.813   4.126 -0.5279  1.1184  0.5726
  131MOL0     O17190   3.975   8.728   4.064 -0.0041  0.1177 -0.0293
  131MOL0     C17191   3.875   8.678   4.147 -0.1915 -0.1706  0.5959
  131MOL0     C17192   3.744   8.680   4.091  0.0757 -0.0620 -0.6032
  131MOL0     C17193   3.633   8.627   4.169  0.0965 -0.0886  0.3976
  131MOL0     C17194   3.658   8.559   4.289 -0.3318  0.1917 -0.5583
  131MOL0     O17195   3.547   8.482   4.344 -0.6368 -0.4305  0.2987
  131MOL0     C17196   3.549   8.442   4.481 -0.1235  0.3635  1.0274
  131MOL0     C17197   3.442   8.330   4.502 -0.5482 -0.2676 -0.0519
  131MOL0     C17198   3.310   8.374   4.444  0.5763  0.0175 -0.8015
  131MOL0     C17199   3.226   8.480   4.527 -0.3432  0.7326 -0.4647
  131MOL0     C17200   3.216   8.454   4.681  0.0769 -0.3011  0.8527
  131MOL0     C17201   3.155   8.571   4.757 -0.9707 -0.2875  1.4038
  131MOL0     C17202   3.014   8.607   4.720 -0.0649 -0.0118 -0.6542
  131MOL0     C17203   2.956   8.711   4.817 -0.2907  0.6222 -0.1646
  131MOL0    Cl17204   3.045   8.856   4.795  0.3281 -0.0086 -0.1912
  131MOL0     C17205   3.789   8.557   4.342  0.1997 -0.4437  0.2040
  131MOL0     C17206   3.893   8.623   4.275  0.2925 -0.3014  0.4388
  131MOL0     O17207   4.045   8.876   4.230 -0.8424  0.0939  0.1441
  131MOL0     C17208   4.226   8.782   3.940  0.0513  0.1948 -0.4809
  131MOL0     C17209   4.344   8.823   3.860  1.0217 -0.6978 -0.4054
  131MOL0     N17210   5.071   9.304   3.972  0.1480 -0.3478 -0.5578
  131MOL0     N17211   5.154   9.406   3.965  0.9025  0.1821 -0.2692
  131MOL0     C17212   6.112   9.605   4.271 -0.3536 -0.2349 -0.0540
  131MOL0     C17213   6.253   9.589   4.275  0.4908  0.0313 -0.4187
  131MOL0     C17214   6.691   9.565   4.271  1.1014 -1.3027 -0.0885
  131MOL0     C17215   6.794   9.570   4.174 -0.6783  0.1427 -0.5772
  131MOL0     C17216   6.916   9.503   4.204  0.0904 -0.2332 -0.0300
  131MOL0     C17217   6.940   9.449   4.331  0.7930  1.0510 -0.1801
  131MOL0     O17218   7.057   9.398   4.354 -0.0890 -0.4816 -0.0384
  131MOL0     C17219   7.181   9.451   4.300  0.5157 -0.2487  0.4870
  131MOL0     C17220   7.229   9.362   4.178  1.2745  0.1190  0.3108
  131MOL0     C17221   7.311   9.439   4.072 -0.7433 -0.5347  0.0917
  131MOL0     C17222   7.369   9.351   3.961 -0.2359 -0.6976 -0.5686
  131MOL0     C17223   7.263   9.324   3.868  1.0223  0.7781  0.9214
  131MOL0     C17224   7.191   9.279   3.777  0.0125 -1.2460  0.3913
  131MOL0     C17225   6.831   9.436   4.421 -0.1090 -0.1235 -0.1126
  131MOL0     C17226   6.709   9.495   4.394 -0.4101  0.3514  0.4126
  131MOL0     H17227   6.348   9.873   4.434  0.0042 -0.4373 -2.0814
  131MOL0     H17228   6.093   9.888   4.436 -2.1924 -0.1152 -0.2225
  131MOL0     H17229   5.817   9.584   4.445  0.5684  1.6771  1.6566
  131MOL0     H17230   5.852   9.550   4.275 -0.1512 -0.3004 -0.2347
  131MOL0     H17231   5.708   9.752   4.212 -2.6548  1.5008 -0.5397
  131MOL0     H17232   5.684   9.780   4.382  1.2866  0.6281 -0.0829
  131MOL0     H17233   5.602   9.531   4.378  1.9689 -2.8076 -3.5243
  131MOL0     H17234   5.606   9.558   4.199  1.3990  4.4740 -2.8795
  131MOL0     H17235   5.426   9.701   4.378  3.0687  0.4792 -0.3824
  131MOL0     H17236   5.455   9.747   4.207 -0.6906  5.2478  3.5111
  131MOL0     H17237   5.360   9.468   4.294 -0.0869  1.8281  3.0531
  131MOL0     H17238   5.368   9.545   4.131  0.1000  2.0378  0.0143
  131MOL0     H17239   5.208   9.639   4.365 -1.4600 -2.5387  1.8291
  131MOL0     H17240   5.133   9.522   4.273 -0.6064  0.9017  1.1266
  131MOL0     H17241   5.053   9.746   4.168  0.0380  0.9575 -1.8753
  131MOL0     H17242   5.219   9.804   4.160 -0.7401  2.4019 -0.1063
  131MOL0     H17243   5.269   9.639   3.984 -0.7575 -0.7134 -3.5180
  131MOL0     H17244   5.125   9.732   3.941  0.1389 -0.9839 -1.1867
  131MOL0     H17245   4.874   9.564   3.989  0.0564  0.2093 -1.3624
  131MOL0     H17246   4.749   9.339   3.921 -0.4934  0.5537  1.9375
  131MOL0     H17247   4.743   9.294   4.088  2.4300 -2.1526  1.8616
  131MOL0     H17248   4.899   9.100   4.045  0.1146 -3.5186 -1.1375
  131MOL0     H17249   4.885   9.130   3.874  0.1326 -0.6121 -0.0133
  131MOL0     H17250   4.736   8.960   3.946  1.4526  0.9871 -1.9375
  131MOL0     H17251   4.655   9.070   4.060  1.5907 -0.3075  0.5290
  131MOL0     H17252   4.666   9.112   3.758 -0.2505 -0.3867 -1.2430
  131MOL0     H17253   4.544   9.185   3.875 -2.1663 -1.7801 -2.2938
  131MOL0     H17254   4.431   9.099   4.038 -1.2715  1.5853 -1.2107
  131MOL0     H17255   4.240   9.029   4.166  1.3829  1.4210 -0.6610
  131MOL0     H17256   3.737   8.708   3.986  0.4360  0.3384 -0.5219
  131MOL0     H17257   3.537   8.608   4.123  1.3018 -1.9073 -1.5656
  131MOL0     H17258   3.522   8.530   4.540 -0.8194 -0.1551  1.5015
  131MOL0     H17259   3.649   8.404   4.504  1.0236  2.3989 -0.3639
  131MOL0     H17260   3.447   8.292   4.605 -1.1039 -0.4076 -0.0757
  131MOL0     H17261   3.471   8.251   4.432 -1.8272  0.0416 -0.9642
  131MOL0     H17262   3.251   8.282   4.454  2.0498 -0.7185  2.7119
  131MOL0     H17263   3.315   8.399   4.338 -2.2432 -0.2979 -1.0970
  131MOL0     H17264   3.277   8.575   4.513  1.8471 -0.6320 -2.7119
  131MOL0     H17265   3.122   8.480   4.493 -0.6284 -0.1500  0.3504
  131MOL0     H17266   3.320   8.442   4.713  2.0446 -0.2078 -4.4502
  131MOL0     H17267   3.155   8.364   4.692 -0.6534 -0.1115 -1.1770
  131MOL0     H17268   3.210   8.663   4.738 -0.2277 -1.0903 -0.5732
  131MOL0     H17269   3.154   8.539   4.861 -2.7900 -2.6347  0.7591
  131MOL0     H17270   3.004   8.640   4.616  0.9224 -1.7065 -1.3346
  131MOL0     H17271   2.941   8.525   4.728 -1.3009  1.0146 -1.0538
  131MOL0     H17272   2.970   8.679   4.921  1.4894 -0.7414 -0.7729
  131MOL0     H17273   2.851   8.718   4.786 -0.3930 -0.7721 -0.1883
  131MOL0     H17274   3.827   8.518   4.436 -1.4106 -1.2634  0.5633
  131MOL0     H17275   3.995   8.614   4.310 -0.4775 -0.6063  2.7687
  131MOL0     H17276   4.167   8.699   3.900 -1.2815  2.6549 -4.1367
  131MOL0     H17277   4.361   8.767   3.769 -1.5999 -1.2570 -0.6347
  131MOL0     H17278   6.046   9.550   4.204  1.4994  0.9466 -3.0837
  131MOL0     H17279   6.278   9.491   4.236 -3.1155 -1.0852 -0.2735
  131MOL0     H17280   6.786   9.619   4.078 -2.2587  1.5375  0.2191
  131MOL0     H17281   6.992   9.501   4.127  1.7265  0.4947  1.5149
  131MOL0     H17282   7.250   9.448   4.385  3.1963  2.2587 -1.4350
  131MOL0     H17283   7.167   9.549   4.255  1.8506 -0.6746 -0.9205
  131MOL0     H17284   7.286   9.278   4.218  3.3626  1.4897  0.4056
  131MOL0     H17285   7.141   9.320   4.128 -1.5281  1.7363  3.4938
  131MOL0     H17286   7.402   9.485   4.112 -0.2362  1.4996 -3.0963
  131MOL0     H17287   7.254   9.521   4.029  0.6720  0.0867 -0.6799
  131MOL0     H17288   7.454   9.400   3.913  0.7767 -1.7290  0.1275
  131MOL0     H17289   7.399   9.253   4.000  2.1361  0.5190  0.8709
  131MOL0     H17290   7.128   9.258   3.693 -0.4794 -0.7403  0.6249
  131MOL0     H17291   6.866   9.399   4.516  1.6972 -1.4649 -1.2258
  131MOL0     H17292   6.635   9.493   4.474  0.7168  2.0236  1.5779
  132MOL0     O17293   9.621   0.505   4.554 -0.7472  0.2463  0.2778
  132MOL0     C17294   9.687   0.611   4.528  0.6650  0.8594 -0.5924
  132MOL0     O17295   9.681   0.678   4.407 -0.0991  0.2550  0.2162
  132MOL0     C17296   9.577   0.638   4.331 -0.7985 -0.2244 -0.8291
  132MOL0     C17297   9.617   0.566   4.225  0.1398  0.3655  0.5130
  132MOL0     C17298   9.521   0.519   4.131  0.3647 -0.1492  0.0274
  132MOL0     C17299   9.385   0.561   4.139 -0.1048  0.3578  1.1279
  132MOL0     O17300   9.302   0.524   4.042 -1.0039 -0.0187  0.0493
  132MOL0     C17301   9.166   0.558   4.059 -0.4172 -0.0980  0.8033
  132MOL0     C17302   9.103   0.476   3.952  0.2093  0.3572  0.2483
  132MOL0     C17303   9.141   0.519   3.809  0.4125  0.5378 -0.4256
  132MOL0     C17304   9.046   0.455   3.701  0.0864 -0.0656  0.2312
  132MOL0     C17305   9.056   0.530   3.566 -0.4624 -0.2910 -0.6554
  132MOL0     C17306   8.976   0.656   3.557 -0.2275 -0.4315  0.0167
  132MOL0     C17307   9.002   0.728   3.421  1.1145 -0.2711 -0.0745
  132MOL0     C17308   8.876   0.793   3.357  0.2562  0.8394  0.0261
  132MOL0     N17309   8.796   0.859   3.456  1.1791  0.1265 -0.5636
  132MOL0     C17310   8.824   0.988   3.504 -0.0039  0.2576  0.3151
  132MOL0     C17311   8.706   1.033   3.553  0.3694 -0.3680  0.0310
  132MOL0     C17312   8.692   1.180   3.598  0.0603  0.4278 -0.2007
  132MOL0     C17313   8.551   1.217   3.633 -0.2867  0.6311 -0.2927
  132MOL0     C17314   8.561   1.343   3.721 -0.0671  0.1815 -0.1011
  132MOL0     C17315   8.581   1.319   3.877 -0.3136 -0.3588 -0.0569
  132MOL0     O17316   8.716   1.327   3.923 -0.1768 -0.0730  0.2761
  132MOL0     C17317   8.748   1.220   4.004 -0.8498 -1.1139  0.4085
  132MOL0     C17318   8.807   1.098   3.948  0.1128 -0.6741 -0.4158
  132MOL0     C17319   8.854   0.994   4.027  0.5534  0.2586 -0.4642
  132MOL0     C17320   8.854   1.007   4.171 -0.1227 -0.2758  0.6780
  132MOL0     C17321   8.916   0.916   4.264  1.1286 -0.5880 -0.5116
  132MOL0     O17322   8.930   0.954   4.396  0.1375  0.0373 -0.3208
  132MOL0     C17323   9.020   0.886   4.481  0.2076 -0.2234  0.0828
  132MOL0     C17324   9.121   0.958   4.541  0.4267  0.3680 -0.1300
  132MOL0     C17325   9.208   0.898   4.625  0.1017  1.6593 -0.6810
  132MOL0     C17326   9.197   0.764   4.650 -0.6964  0.0517  0.5400
  132MOL0     O17327   9.285   0.720   4.743  0.6001 -1.2785 -0.1410
  132MOL0     C17328   9.309   0.582   4.764 -0.2774 -0.2888 -0.7581
  132MOL0     C17329   9.430   0.578   4.865  1.1935 -0.5486  0.9199
  132MOL0     C17330   9.398   0.660   4.982 -0.8502  0.5034  0.0186
  132MOL0     C17331   9.517   0.647   5.083  0.2519 -0.3555  0.3736
  132MOL0     C17332   9.488   0.703   5.229  0.3657  0.0199 -0.1884
  132MOL0     C17333   9.605   0.692   5.332 -0.1492  0.3824 -0.0488
  132MOL0     C17334   9.559   0.735   5.480 -0.6463 -0.2353  0.1268
  132MOL0     C17335   9.654   0.703   5.591 -0.3217 -0.7389 -0.0826
  132MOL0    Cl17336   9.817   0.783   5.552  0.4337  0.1052 -0.2366
  132MOL0     C17337   9.101   0.688   4.594  0.5485  0.0232  0.7415
  132MOL0     C17338   9.001   0.749   4.512 -0.1707  0.0005 -0.7643
  132MOL0     O17339   8.972   0.824   4.206  0.2744 -0.0210 -0.9828
  132MOL0     C17340   8.773   1.117   4.220 -0.0120  1.0463  0.0197
  132MOL0     C17341   8.727   1.227   4.143  0.3391  0.0835 -0.0836
  132MOL0     N17342   8.615   0.933   3.556  0.0731  0.9313  0.1941
  132MOL0     N17343   8.665   0.828   3.491  0.1132 -0.4239 -0.6355
  132MOL0     C17344   9.349   0.648   4.251 -0.2927  0.7541 -0.4248
  132MOL0     C17345   9.444   0.683   4.347 -0.8900  0.1768 -0.6428
  132MOL0     C17346   9.791   0.637   4.620 -0.0232 -0.1058  1.7474
  132MOL0     C17347   9.883   0.742   4.594 -0.6096  0.3157  0.7105
  132MOL0     C17348   9.999   0.756   4.682  0.7435  0.3018  0.3695
  132MOL0     C17349  10.004   0.681   4.797  0.8012  0.1570  0.8055
  132MOL0     O17350  10.109   0.684   4.886 -0.2575 -0.3721  0.4221
  132MOL0     C17351  10.223   0.755   4.861  0.0051 -0.5477  0.1977
  132MOL0     C17352  10.324   0.666   4.784 -1.0499 -0.0254 -0.2932
  132MOL0     C17353  10.380   0.555   4.871  0.3667 -0.3802  0.6194
  132MOL0     C17354  10.482   0.468   4.800 -0.7340  0.1469  0.5930
  132MOL0     C17355  10.618   0.528   4.798  0.3144 -0.2246  0.3632
  132MOL0     C17356  10.732   0.570   4.791 -0.0438  0.0045 -1.0690
  132MOL0     C17357   9.905   0.586   4.823 -0.0707 -0.2236  0.0981
  132MOL0     C17358   9.788   0.571   4.747 -0.6026 -1.3027  0.1901
  132MOL0     H17359   9.722   0.548   4.204  0.3590  2.3890 -0.3802
  132MOL0     H17360   9.562   0.462   4.049  1.2527 -2.6780  2.0925
  132MOL0     H17361   9.146   0.664   4.045  1.7360  0.2476 -0.1001
  132MOL0     H17362   9.119   0.542   4.157 -1.3999 -0.1587  0.3294
  132MOL0     H17363   8.995   0.487   3.968  0.1277  0.2818 -0.2526
  132MOL0     H17364   9.115   0.369   3.970  0.0500  0.7291  3.0531
  132MOL0     H17365   9.234   0.481   3.766  1.5668 -1.1879  3.1582
  132MOL0     H17366   9.122   0.626   3.798 -2.0670  0.5103  2.1772
  132MOL0     H17367   9.079   0.351   3.689 -0.7825 -0.7297  2.8863
  132MOL0     H17368   8.944   0.448   3.741  0.4150  0.4906  1.1912
  132MOL0     H17369   9.040   0.462   3.483 -2.8360 -1.5872  0.7830
  132MOL0     H17370   9.163   0.553   3.554 -0.4498  3.2751  3.6598
  132MOL0     H17371   9.012   0.725   3.634  0.9308  3.3699 -3.5855
  132MOL0     H17372   8.869   0.635   3.559 -0.5556  0.2416 -3.5361
  132MOL0     H17373   9.069   0.813   3.441  0.2848  1.0705 -2.5167
  132MOL0     H17374   9.058   0.669   3.348  0.6353 -0.1908 -0.5084
  132MOL0     H17375   8.824   0.707   3.315  0.6223  0.7900 -0.3366
  132MOL0     H17376   8.895   0.867   3.279  0.2975 -0.7770 -1.5561
  132MOL0     H17377   8.915   1.044   3.481  0.3872 -0.1852  0.7561
  132MOL0     H17378   8.735   1.243   3.519  0.5663  0.0951 -0.1961
  132MOL0     H17379   8.760   1.198   3.683  1.5420  0.9629 -1.4495
  132MOL0     H17380   8.497   1.131   3.674 -1.1511  1.4013  0.2231
  132MOL0     H17381   8.501   1.238   3.538 -1.4830  0.8777  0.3734
  132MOL0     H17382   8.627   1.420   3.679  2.5790 -0.1407  3.0689
  132MOL0     H17383   8.458   1.380   3.725 -0.0464  0.2643  3.9561
  132MOL0     H17384   8.541   1.220   3.898 -0.8818 -0.4538 -1.4929
  132MOL0     H17385   8.527   1.393   3.936 -1.1066  1.4894 -2.8919
  132MOL0     H17386   8.817   1.092   3.841  0.6634  2.6647 -0.6575
  132MOL0     H17387   8.878   0.901   3.977 -0.1842 -0.0204 -0.3133
  132MOL0     H17388   9.132   1.064   4.519  2.1181  0.2996  0.2691
  132MOL0     H17389   9.288   0.951   4.676  1.7000  0.7203 -2.1095
  132MOL0     H17390   9.335   0.519   4.677 -1.2777 -0.1000 -1.1979
  132MOL0     H17391   9.219   0.543   4.811 -0.3789 -0.9067 -1.4307
  132MOL0     H17392   9.528   0.613   4.831  1.6078  0.9694  3.4261
  132MOL0     H17393   9.447   0.476   4.903 -0.8986 -0.6964  1.6002
  132MOL0     H17394   9.306   0.629   5.033 -1.3193 -0.4025 -1.2993
  132MOL0     H17395   9.396   0.764   4.948  0.7482  0.3290 -0.7212
  132MOL0     H17396   9.546   0.542   5.093  3.0853  0.0150 -2.4320
  132MOL0     H17397   9.607   0.696   5.045  0.6509  0.7835  2.6088
  132MOL0     H17398   9.402   0.649   5.270 -0.2771 -0.0137 -1.5216
  132MOL0     H17399   9.462   0.808   5.212 -2.0817 -0.5834 -0.5963
  132MOL0     H17400   9.687   0.754   5.295 -0.1097 -0.7811 -2.0536
  132MOL0     H17401   9.633   0.586   5.339 -0.2180  0.1811 -2.0874
  132MOL0     H17402   9.541   0.842   5.475  2.6020  0.3580 -1.2245
  132MOL0     H17403   9.456   0.706   5.501  0.0284 -0.6333  3.4565
  132MOL0     H17404   9.665   0.595   5.602 -3.1515 -0.9511  1.5448
  132MOL0     H17405   9.613   0.743   5.684  2.2392 -1.5900  1.5507
  132MOL0     H17406   9.095   0.588   4.634 -2.4554 -0.6800 -1.0789
  132MOL0     H17407   8.929   0.694   4.452 -1.5386  1.3545 -0.4098
  132MOL0     H17408   8.752   1.118   4.327  1.8105 -0.0578  0.4429
  132MOL0     H17409   8.678   1.311   4.190  1.5322  0.8764 -0.2189
  132MOL0     H17410   9.249   0.674   4.282 -0.5760 -2.9798  2.6135
  132MOL0     H17411   9.424   0.755   4.425  2.0597  0.3898  0.0589
  132MOL0     H17412   9.887   0.799   4.502  0.2647  1.8172  1.6405
  132MOL0     H17413  10.084   0.814   4.647  1.1554 -0.4804  0.0461
  132MOL0     H17414  10.270   0.780   4.956 -0.0222  2.6020 -0.5110
  132MOL0     H17415  10.197   0.846   4.806  2.0196  0.6923  1.1786
  132MOL0     H17416  10.281   0.612   4.699  0.7769 -0.4054 -1.0223
  132MOL0     H17417  10.412   0.723   4.752 -0.5674 -0.1605  0.7517
  132MOL0     H17418  10.289   0.497   4.889  0.9048 -0.7432  2.3760
  132MOL0     H17419  10.419   0.599   4.963  1.2189 -1.0892  0.6157
  132MOL0     H17420  10.500   0.372   4.850 -0.4193 -0.4219 -0.5899
  132MOL0     H17421  10.451   0.444   4.698  2.1192 -1.8063  0.0581
  132MOL0     H17422  10.834   0.594   4.771  0.0388  0.0672 -0.5750
  132MOL0     H17423   9.916   0.534   4.918 -0.4786 -0.8897 -0.2160
  132MOL0     H17424   9.715   0.506   4.793 -1.4453 -2.1183 -2.1709
  133MOL0     O17425   0.835   8.200   5.184 -0.7780 -0.2812 -0.1945
  133MOL0     C17426   0.788   8.164   5.081 -0.1797  0.6525 -0.5786
  133MOL0     O17427   0.653   8.144   5.067  0.0506 -0.0989 -0.1937
  133MOL0     C17428   0.554   8.161   5.168 -0.2668  0.0061  0.0743
  133MOL0     C17429   0.421   8.164   5.122  0.2015  0.2829  0.2160
  133MOL0     C17430   0.308   8.173   5.207  0.1964  0.7039 -1.3558
  133MOL0     C17431   0.337   8.191   5.350 -0.1517  0.5445 -0.0342
  133MOL0     O17432   0.228   8.205   5.435  0.4645 -0.1785 -0.0603
  133MOL0     C17433   0.228   8.300   5.536  0.7350  0.6385 -0.6865
  133MOL0     C17434   0.085   8.337   5.586 -0.4350 -0.2328  0.1326
  133MOL0     C17435   0.008   8.418   5.480  1.1107  1.0596  0.3764
  133MOL0     C17436  -0.127   8.464   5.538 -0.1215 -0.2849  0.5711
  133MOL0     C17437  -0.214   8.524   5.430  0.3237 -0.6091  0.3403
  133MOL0     C17438  -0.353   8.570   5.474 -1.3630  0.8073 -0.7320
  133MOL0     C17439  -0.439   8.626   5.354  0.6225  0.0436  0.4157
  133MOL0     C17440  -0.578   8.651   5.412  0.4812 -0.8559  0.5110
  133MOL0     N17441  -0.675   8.695   5.313  0.1051  0.2166  0.3135
  133MOL0     C17442  -0.670   8.758   5.191 -0.4949 -0.2953 -0.3712
  133MOL0     C17443  -0.796   8.790   5.170  0.2637 -1.3010  0.2616
  133MOL0     C17444  -0.836   8.851   5.035 -0.7138 -1.0285 -0.0931
  133MOL0     C17445  -0.979   8.837   4.981  0.1120  0.0411 -0.7165
  133MOL0     C17446  -1.006   8.939   4.874 -1.5843 -0.2082 -0.8154
  133MOL0     C17447  -1.153   8.941   4.819  0.2623  0.2816  0.7270
  133MOL0     O17448  -1.204   9.073   4.793  0.1100 -0.2623 -0.6217
  133MOL0     C17449  -1.335   9.066   4.748 -0.1416 -0.5414 -0.3248
  133MOL0     C17450  -1.386   9.188   4.722 -0.1473 -0.6184 -0.7965
  133MOL0     C17451  -1.517   9.210   4.682 -0.5021  0.7443 -0.4054
  133MOL0     C17452  -1.592   9.102   4.640 -0.4170 -0.0959 -0.3796
  133MOL0     C17453  -1.725   9.123   4.581  0.8259  0.3587  0.5121
  133MOL0     O17454  -1.772   9.252   4.577 -0.0862 -0.5571  0.3633
  133MOL0     C17455  -1.889   9.295   4.525 -0.2677  0.9878  0.9285
  133MOL0     C17456  -1.898   9.430   4.501 -0.7760 -0.7007 -0.0285
  133MOL0     C17457  -2.008   9.497   4.463  0.1429 -0.6944  0.5109
  133MOL0     C17458  -2.124   9.419   4.458  0.2369 -0.0088 -0.5665
  133MOL0     O17459  -2.247   9.463   4.420  0.2713  0.1060  0.0151
  133MOL0     C17460  -2.252   9.550   4.303 -0.1949  0.4028  0.0184
  133MOL0     C17461  -2.313   9.677   4.346  0.9079 -0.5397  0.3086
  133MOL0     C17462  -2.459   9.665   4.375 -0.6497 -0.0042 -0.1188
  133MOL0     C17463  -2.540   9.785   4.327  0.3582  0.4834  0.5532
  133MOL0     C17464  -2.687   9.764   4.341  0.0133  0.3155 -0.0500
  133MOL0     C17465  -2.740   9.747   4.486  0.6746  0.3724 -0.2531
  133MOL0     C17466  -2.891   9.725   4.492  1.3231  0.3526  0.2428
  133MOL0     C17467  -2.939   9.714   4.631  0.2053 -0.1213 -0.1355
  133MOL0    Cl17468  -2.892   9.553   4.695 -0.2894 -0.0128 -0.3149
  133MOL0     C17469  -2.126   9.286   4.496 -0.9131 -1.1770  0.3630
  133MOL0     C17470  -2.002   9.225   4.526  0.5611  0.1940  0.2293
  133MOL0     O17471  -1.772   9.029   4.518 -0.4392 -0.2942  0.0274
  133MOL0     C17472  -1.536   8.969   4.660  1.3782 -0.7294 -0.0402
  133MOL0     C17473  -1.416   8.950   4.722  0.4854 -0.6981 -0.9108
  133MOL0     N17474  -0.878   8.737   5.269 -0.8538  0.3706  0.2897
  133MOL0     N17475  -0.806   8.685   5.356  0.7137 -0.4679 -0.0899
  133MOL0     C17476   0.476   8.180   5.393 -0.7895 -0.4243  0.9115
  133MOL0     C17477   0.577   8.167   5.308  0.0420 -0.4509  0.7448
  133MOL0     C17478   0.881   8.121   4.978 -0.0482 -0.1099 -0.7843
  133MOL0     C17479   0.864   8.017   4.887 -0.1925  0.1935 -0.0744
  133MOL0     C17480   0.960   7.975   4.792  1.0473 -0.2412 -0.6747
  133MOL0     C17481   1.092   8.029   4.787  0.7286  0.9991  0.1567
  133MOL0     O17482   1.193   7.981   4.713  0.3708 -0.1086 -0.1697
  133MOL0     C17483   1.173   7.857   4.634 -0.6717  0.5536 -0.2472
  133MOL0     C17484   1.291   7.839   4.535 -0.2217 -0.6294 -0.0699
  133MOL0     C17485   1.267   7.738   4.418  0.5422 -0.7092 -1.0783
  133MOL0     C17486   1.151   7.798   4.326 -0.5816  0.3865 -1.0845
  133MOL0     C17487   1.153   7.692   4.218  0.4870 -0.1155 -0.6606
  133MOL0     C17488   1.164   7.609   4.133  0.1827  0.3521 -0.3853
  133MOL0     C17489   1.113   8.129   4.887  0.6320 -0.3249  0.4849
  133MOL0     C17490   1.013   8.176   4.977  0.1735  0.1061 -0.0963
  133MOL0     H17491   0.396   8.154   5.016 -1.4772 -0.3661  0.6346
  133MOL0     H17492   0.206   8.158   5.172  0.4197 -1.3958 -1.2609
  133MOL0     H17493   0.295   8.380   5.506  0.7410  0.7231 -0.4522
  133MOL0     H17494   0.280   8.263   5.625 -1.1292 -0.3963  0.0482
  133MOL0     H17495   0.112   8.411   5.662 -1.0804  0.9362 -0.7458
  133MOL0     H17496   0.023   8.255   5.622 -2.1106  0.1486 -1.7011
  133MOL0     H17497  -0.015   8.358   5.391 -1.6377 -0.0471  1.7144
  133MOL0     H17498   0.066   8.505   5.447 -0.1012  2.1428  0.9914
  133MOL0     H17499  -0.189   8.380   5.570  0.1016 -0.2928  0.9863
  133MOL0     H17500  -0.101   8.530   5.621  1.1440  2.9191 -2.1652
  133MOL0     H17501  -0.221   8.465   5.338  1.0883  3.4497 -2.6381
  133MOL0     H17502  -0.161   8.615   5.401 -0.3154 -0.0999  0.7541
  133MOL0     H17503  -0.347   8.643   5.556  1.0917  1.3115 -1.2542
  133MOL0     H17504  -0.402   8.481   5.512  1.7690 -0.2503  1.1570
  133MOL0     H17505  -0.408   8.717   5.300 -2.0666 -0.6699 -2.6495
  133MOL0     H17506  -0.463   8.536   5.296 -0.6212  0.6013  0.0167
  133MOL0     H17507  -0.571   8.729   5.488  1.0175 -3.0191  2.8041
  133MOL0     H17508  -0.612   8.561   5.464 -2.6827 -0.4662 -0.6480
  133MOL0     H17509  -0.578   8.770   5.134  1.4315 -5.0019  1.2180
  133MOL0     H17510  -0.758   8.821   4.964  2.3428  2.1762  1.5974
  133MOL0     H17511  -0.814   8.957   5.046  0.8242 -1.3526  0.2042
  133MOL0     H17512  -1.058   8.843   5.057  0.8617 -1.7543  0.2607
  133MOL0     H17513  -0.997   8.740   4.932 -0.9205  0.3765 -1.0323
  133MOL0     H17514  -0.985   9.034   4.923 -1.7354 -1.0105  0.8512
  133MOL0     H17515  -0.939   8.927   4.788 -3.1381 -1.5033 -1.9153
  133MOL0     H17516  -1.213   8.887   4.893 -0.2009  2.5619  2.1461
  133MOL0     H17517  -1.150   8.884   4.726 -0.5256  1.3223  0.0338
  133MOL0     H17518  -1.324   9.274   4.747 -4.0883  2.3536 -0.1278
  133MOL0     H17519  -1.555   9.312   4.679 -2.0850  0.2428 -4.2796
  133MOL0     H17520  -1.811   9.495   4.500 -3.1386  2.7540 -1.7084
  133MOL0     H17521  -1.998   9.604   4.449  1.1159 -0.2463  3.7915
  133MOL0     H17522  -2.312   9.496   4.229 -0.6499  0.5794  0.2511
  133MOL0     H17523  -2.153   9.565   4.259 -0.3584  1.3483 -0.0561
  133MOL0     H17524  -2.306   9.747   4.262 -0.2687 -1.4263 -0.5563
  133MOL0     H17525  -2.274   9.718   4.440 -0.3192  0.7370  0.3054
  133MOL0     H17526  -2.464   9.650   4.484 -0.8012  3.2162  0.4079
  133MOL0     H17527  -2.496   9.571   4.333 -1.3557 -0.5309  1.5871
  133MOL0     H17528  -2.516   9.883   4.369  0.6453 -0.2386  2.1396
  133MOL0     H17529  -2.531   9.776   4.218 -0.1735 -4.6478  0.6573
  133MOL0     H17530  -2.717   9.677   4.283  0.5659 -0.1917  0.4055
  133MOL0     H17531  -2.741   9.842   4.286 -1.6843 -0.0557  1.0068
  133MOL0     H17532  -2.710   9.832   4.548  2.9888  0.8806 -1.9488
  133MOL0     H17533  -2.692   9.655   4.519 -0.7898 -1.3362 -2.5194
  133MOL0     H17534  -2.940   9.811   4.447  1.4779  0.5508  0.4473
  133MOL0     H17535  -2.918   9.628   4.449  0.2193  1.2925 -1.2539
  133MOL0     H17536  -3.046   9.734   4.638  0.6840  2.0611  2.3731
  133MOL0     H17537  -2.901   9.797   4.690 -1.4875 -0.0910  0.9785
  133MOL0     H17538  -2.227   9.247   4.489 -1.4220  0.3422 -3.5618
  133MOL0     H17539  -2.004   9.122   4.559 -1.4811  0.6892  1.8924
  133MOL0     H17540  -1.586   8.880   4.624 -1.3196  0.6378  0.0139
  133MOL0     H17541  -1.389   8.846   4.731 -2.2452 -1.9020 -4.2937
  133MOL0     H17542   0.510   8.192   5.495 -1.6351  1.4797  1.0058
  133MOL0     H17543   0.677   8.162   5.351  0.2255  0.1612  0.3956
  133MOL0     H17544   0.767   7.968   4.882  1.1805 -2.5947 -2.7128
  133MOL0     H17545   0.942   7.899   4.716 -0.4274 -0.1136 -0.4831
  133MOL0     H17546   1.087   7.867   4.566  2.3000  1.5869 -4.2660
  133MOL0     H17547   1.160   7.766   4.693 -0.2269  0.5750 -0.1172
  133MOL0     H17548   1.317   7.937   4.494 -1.8509  0.5795  1.6133
  133MOL0     H17549   1.373   7.803   4.598 -1.4051 -1.3434  1.1301
  133MOL0     H17550   1.246   7.643   4.468  3.9086 -2.6555 -2.9893
  133MOL0     H17551   1.362   7.717   4.367  0.6553  1.0248 -1.6489
  133MOL0     H17552   1.050   7.802   4.367 -0.5067  3.2953 -1.0334
  133MOL0     H17553   1.177   7.900   4.296 -1.0414  2.1452  3.7076
  133MOL0     H17554   1.161   7.538   4.052  0.4076  0.7043 -0.7114
  133MOL0     H17555   1.212   8.173   4.898  0.2872  0.1341  1.8968
  133MOL0     H17556   1.028   8.264   5.038 -0.6366  0.2964 -0.1656
  134MOL0     O17557   3.699   4.331   7.282 -0.1960  0.5318  0.5643
  134MOL0     C17558   3.679   4.251   7.192 -0.5800  0.3558  0.0297
  134MOL0     O17559   3.554   4.202   7.153 -0.2553  0.8811 -0.0859
  134MOL0     C17560   3.451   4.249   7.227 -0.8217 -0.0463 -0.9843
  134MOL0     C17561   3.356   4.329   7.172 -0.8221  0.2442  0.2268
  134MOL0     C17562   3.232   4.347   7.242 -0.3222 -0.4042  0.2243
  134MOL0     C17563   3.218   4.293   7.369 -0.0864 -0.1101 -0.7889
  134MOL0     O17564   3.096   4.297   7.438 -0.0236  0.0208  0.4270
  134MOL0     C17565   2.984   4.225   7.385 -0.6430 -0.1974  0.0809
  134MOL0     C17566   2.854   4.261   7.449 -0.1223  0.7570  0.0676
  134MOL0     C17567   2.749   4.152   7.410  0.1318  0.1529  0.4303
  134MOL0     C17568   2.615   4.203   7.466  0.6801  0.5486 -0.3873
  134MOL0     C17569   2.512   4.095   7.467  0.5875  0.4509 -0.0711
  134MOL0     C17570   2.402   4.127   7.572  0.5794 -0.5580 -0.8595
  134MOL0     C17571   2.283   4.034   7.559  0.4214 -0.2223  1.0708
  134MOL0     C17572   2.328   3.897   7.616  0.1118 -0.0696 -0.0138
  134MOL0     N17573   2.214   3.800   7.582  0.2035 -0.3650  0.5915
  134MOL0     C17574   2.140   3.740   7.681 -0.0335  0.5339  0.1868
  134MOL0     C17575   2.082   3.641   7.612 -0.0398  0.2100  0.1214
  134MOL0     C17576   1.987   3.538   7.673  1.0666  0.1067 -0.4789
  134MOL0     C17577   1.853   3.587   7.739 -0.6067 -0.1696  0.3877
  134MOL0     C17578   1.763   3.468   7.770  0.3069 -0.0363  1.0712
  134MOL0     C17579   1.648   3.530   7.867  0.4916  0.0199  0.6655
  134MOL0     O17580   1.552   3.421   7.889  0.0975 -0.6930 -0.1443
  134MOL0     C17581   1.463   3.458   7.997 -0.3008  0.8532  0.2940
  134MOL0     C17582   1.387   3.346   8.028  0.0791  1.6027  0.1896
  134MOL0     C17583   1.290   3.356   8.131  0.2026  0.5032  0.2577
  134MOL0     C17584   1.269   3.474   8.204 -0.4179  0.0961  0.3471
  134MOL0     C17585   1.166   3.482   8.314 -0.5034  0.2553 -0.6367
  134MOL0     O17586   1.119   3.604   8.349 -0.1688  0.2058  0.3489
  134MOL0     C17587   1.027   3.610   8.451  0.2437  0.2826 -0.6452
  134MOL0     C17588   0.896   3.556   8.449  1.1339 -0.8217 -0.5735
  134MOL0     C17589   0.798   3.573   8.542  0.0308 -0.8435 -0.9784
  134MOL0     C17590   0.829   3.657   8.658  0.5448  0.3067  0.0033
  134MOL0     O17591   0.747   3.661   8.772 -0.1297 -0.2200  0.4207
  134MOL0     C17592   0.615   3.719   8.749  0.1749 -0.0871  0.5966
  134MOL0     C17593   0.596   3.858   8.807  0.8924  0.9812  0.0294
  134MOL0     C17594   0.586   3.859   8.960  0.4347  0.7794  0.6076
  134MOL0     C17595   0.568   4.003   9.008  0.3174  0.8435  0.0756
  134MOL0     C17596   0.535   4.004   9.155  0.6997  1.1185 -0.2921
  134MOL0     C17597   0.535   4.142   9.217 -0.6106 -0.4308  0.6341
  134MOL0     C17598   0.544   4.129   9.375  0.0665  0.3263  0.6836
  134MOL0     C17599   0.550   4.262   9.439 -0.3053 -0.9528 -0.2310
  134MOL0    Cl17600   0.375   4.339   9.467  0.1513  0.2261  0.0232
  134MOL0     C17601   0.959   3.695   8.675 -0.8524 -1.7668  0.7227
  134MOL0     C17602   1.056   3.673   8.574  0.1548 -0.3749 -0.5945
  134MOL0     O17603   1.126   3.373   8.361 -0.1675 -0.0400  0.1534
  134MOL0     C17604   1.355   3.587   8.166 -0.1942  0.2202 -0.8923
  134MOL0     C17605   1.444   3.586   8.056 -0.5602  1.2396 -0.5219
  134MOL0     N17606   2.142   3.625   7.491  0.1073  0.1480 -0.3195
  134MOL0     N17607   2.219   3.717   7.473 -0.4495  0.2479  0.1392
  134MOL0     C17608   3.306   4.199   7.416  0.1906  0.0724 -0.0815
  134MOL0     C17609   3.427   4.181   7.347 -0.1614  0.0722 -0.1501
  134MOL0     C17610   3.801   4.208   7.113  0.9510 -0.3707 -0.5612
  134MOL0     C17611   3.792   4.111   7.016 -0.5758  0.2822 -0.4422
  134MOL0     C17612   3.904   4.071   6.940 -0.0261 -0.3240  0.0302
  134MOL0     C17613   4.027   4.123   6.960 -0.1663  0.0553 -0.4948
  134MOL0     O17614   4.125   4.076   6.873 -0.1809  0.2480  0.3242
  134MOL0     C17615   4.261   4.120   6.895  0.0806  0.2145 -0.2841
  134MOL0     C17616   4.318   4.071   7.025  0.4324  0.1739  0.3298
  134MOL0     C17617   4.451   4.130   7.050 -0.4084 -0.1398  0.0429
  134MOL0     C17618   4.507   4.094   7.189  0.5637 -0.8298  0.1736
  134MOL0     C17619   4.649   4.105   7.212 -0.2317  0.5173  0.6403
  134MOL0     C17620   4.773   4.077   7.220 -0.3236  0.3500 -0.4323
  134MOL0     C17621   4.039   4.230   7.053  0.7992 -0.1210  0.2794
  134MOL0     C17622   3.924   4.273   7.129 -0.5513 -0.6191  0.5124
  134MOL0     H17623   3.369   4.362   7.070 -0.6924 -0.9325 -0.1493
  134MOL0     H17624   3.154   4.410   7.200 -1.1566  0.1154  2.3870
  134MOL0     H17625   3.000   4.123   7.420 -3.7101  0.1864  3.1623
  134MOL0     H17626   2.972   4.233   7.277 -5.3432 -1.3807  0.3198
  134MOL0     H17627   2.814   4.358   7.416  0.7419  0.5967 -1.5438
  134MOL0     H17628   2.865   4.263   7.558 -1.7019  3.5332  0.2711
  134MOL0     H17629   2.774   4.060   7.465  1.6696  2.1962  3.4599
  134MOL0     H17630   2.744   4.142   7.301 -0.5974  1.4421  0.3256
  134MOL0     H17631   2.628   4.237   7.569 -1.3756 -1.4777  0.6376
  134MOL0     H17632   2.572   4.287   7.411  0.8879  0.8882 -0.0374
  134MOL0     H17633   2.559   3.997   7.485  0.6958  0.8601  2.0762
  134MOL0     H17634   2.469   4.081   7.367  0.7853  0.0376 -0.1008
  134MOL0     H17635   2.374   4.233   7.569  0.5799 -0.5383 -0.3672
  134MOL0     H17636   2.435   4.115   7.676  0.9853 -0.6444 -0.9969
  134MOL0     H17637   2.196   4.079   7.609 -1.3160  1.8054 -3.1979
  134MOL0     H17638   2.257   4.020   7.454  3.4483 -0.5312  0.2830
  134MOL0     H17639   2.341   3.906   7.724 -1.5324 -2.3223  0.4508
  134MOL0     H17640   2.421   3.857   7.576  1.7836  2.7624  0.7113
  134MOL0     H17641   2.114   3.769   7.782 -1.9372 -0.6728  0.1017
  134MOL0     H17642   2.038   3.473   7.745  2.4833 -1.4004 -2.7018
  134MOL0     H17643   1.952   3.479   7.588 -2.9295  1.0981  0.2732
  134MOL0     H17644   1.806   3.654   7.667 -0.1275  0.6221  0.8001
  134MOL0     H17645   1.882   3.642   7.829  2.5428 -1.3123  0.1831
  134MOL0     H17646   1.718   3.430   7.677  0.3346  3.4224 -0.4976
  134MOL0     H17647   1.825   3.389   7.814  3.4628  1.6617 -0.0541
  134MOL0     H17648   1.603   3.618   7.820  0.0034 -1.1078 -1.0736
  134MOL0     H17649   1.700   3.561   7.958  3.2704  1.3797 -1.2217
  134MOL0     H17650   1.401   3.249   7.981 -1.5721 -1.4202  5.1962
  134MOL0     H17651   1.225   3.273   8.155 -1.8222  1.7633 -0.6240
  134MOL0     H17652   0.865   3.498   8.363 -1.2214 -2.6407  1.3514
  134MOL0     H17653   0.700   3.526   8.538 -0.3218 -0.4780  1.4199
  134MOL0     H17654   0.539   3.655   8.795 -2.1113  1.9624 -0.1166
  134MOL0     H17655   0.593   3.720   8.642 -0.2862 -2.5844  0.5911
  134MOL0     H17656   0.508   3.909   8.767 -0.4005  0.5987  2.2237
  134MOL0     H17657   0.686   3.909   8.770  0.8733 -0.3349 -1.9797
  134MOL0     H17658   0.681   3.816   8.993  0.7039  2.0296  1.5258
  134MOL0     H17659   0.509   3.789   8.996 -0.8980  0.0074 -3.3169
  134MOL0     H17660   0.663   4.056   9.002 -0.1949  1.9627  1.2048
  134MOL0     H17661   0.500   4.068   8.950 -0.0837  2.2016  1.9588
  134MOL0     H17662   0.611   3.941   9.202  1.9545  1.1953 -2.1261
  134MOL0     H17663   0.443   3.952   9.187  1.1033  0.6700  0.1702
  134MOL0     H17664   0.444   4.193   9.184  1.5532  2.0325 -1.9849
  134MOL0     H17665   0.622   4.189   9.171  0.4514 -3.0494 -0.2630
  134MOL0     H17666   0.456   4.084   9.422  0.7355 -1.6141  0.1622
  134MOL0     H17667   0.635   4.074   9.399  0.8516  1.1804 -0.2236
  134MOL0     H17668   0.613   4.327   9.376 -0.0716 -0.7177  0.2426
  134MOL0     H17669   0.601   4.258   9.536 -1.6472  1.6466  0.6692
  134MOL0     H17670   0.998   3.747   8.762  0.5996  0.1679 -0.9782
  134MOL0     H17671   1.153   3.722   8.581 -0.1193  0.0413  0.3601
  134MOL0     H17672   1.355   3.683   8.217  3.0249  1.1043 -2.3244
  134MOL0     H17673   1.500   3.676   8.029 -1.9138  2.2145 -0.1971
  134MOL0     H17674   3.286   4.140   7.505 -2.9642 -0.6353 -1.1402
  134MOL0     H17675   3.503   4.112   7.383  0.5758  0.8511 -0.1932
  134MOL0     H17676   3.700   4.054   7.021  0.0100 -0.6864 -0.4238
  134MOL0     H17677   3.909   3.999   6.858  2.3799  0.7639 -0.8579
  134MOL0     H17678   4.259   4.229   6.885  0.3365  0.3800  1.2732
  134MOL0     H17679   4.338   4.086   6.825  3.2667  2.3127  1.9300
  134MOL0     H17680   4.243   4.101   7.099 -0.8716 -0.1980 -0.8205
  134MOL0     H17681   4.325   3.962   7.026  2.7661  0.2145 -1.7232
  134MOL0     H17682   4.452   4.239   7.041 -2.0454 -0.1630 -0.6425
  134MOL0     H17683   4.521   4.096   6.974 -1.0936 -1.2551 -0.1070
  134MOL0     H17684   4.457   4.142   7.274  1.9692  2.3261 -0.6548
  134MOL0     H17685   4.482   3.987   7.183  0.8465 -0.8150 -2.0553
  134MOL0     H17686   4.876   4.048   7.229 -0.8270 -0.7953  4.9133
  134MOL0     H17687   4.133   4.279   7.076  2.5698 -2.3620 -1.6441
  134MOL0     H17688   3.934   4.352   7.202 -1.0299  2.0833 -2.1330
  135MOL0     O17689  10.503   3.904   9.185 -0.1583 -0.0898 -0.1064
  135MOL0     C17690  10.546   3.967   9.086  0.4044  0.8629  0.3981
  135MOL0     O17691  10.542   4.105   9.071  0.1836 -0.1596 -0.1558
  135MOL0     C17692  10.497   4.193   9.168  0.2840 -0.1588 -0.1190
  135MOL0     C17693  10.499   4.158   9.302 -0.3229  0.0531 -1.0461
  135MOL0     C17694  10.433   4.230   9.396  0.6108 -0.1112 -0.0138
  135MOL0     C17695  10.372   4.351   9.358  0.4737 -0.8082  0.2578
  135MOL0     O17696  10.309   4.438   9.442  0.1047  0.2792 -0.1506
  135MOL0     C17697  10.301   4.410   9.584 -0.4511 -1.1013 -0.5509
  135MOL0     C17698  10.249   4.521   9.667 -0.5155 -0.5801 -0.6781
  135MOL0     C17699  10.124   4.577   9.603 -0.5858 -0.0989 -0.4153
  135MOL0     C17700  10.036   4.642   9.712 -0.9738  0.2198  0.1678
  135MOL0     C17701   9.911   4.719   9.681 -0.3750  0.3207  1.6557
  135MOL0     C17702   9.825   4.741   9.802  0.3443  0.0299 -0.2682
  135MOL0     C17703   9.735   4.867   9.788  0.2644  0.4509  0.2703
  135MOL0     C17704   9.804   5.001   9.781  0.2085 -0.1725  0.4578
  135MOL0     N17705   9.720   5.120   9.794  0.0672  0.2984  0.3081
  135MOL0     C17706   9.685   5.164   9.920 -0.6577 -0.5178 -0.1372
  135MOL0     C17707   9.584   5.244   9.899 -1.1963 -0.0840 -0.0632
  135MOL0     C17708   9.519   5.326   9.999  0.6979  0.3999  0.3708
  135MOL0     C17709   9.367   5.329  10.006 -0.8312  0.7795 -0.6588
  135MOL0     C17710   9.286   5.393   9.893 -0.1901  0.0223 -0.7898
  135MOL0     C17711   9.137   5.382   9.918 -0.1086 -1.0839 -0.1092
  135MOL0     O17712   9.094   5.245   9.915  0.3587 -0.2952  0.2307
  135MOL0     C17713   8.956   5.215   9.904  0.2019  0.3371  0.8907
  135MOL0     C17714   8.864   5.322   9.899  0.5163  0.2069  0.7739
  135MOL0     C17715   8.726   5.290   9.892 -1.1855 -0.0905 -0.6797
  135MOL0     C17716   8.678   5.157   9.885 -0.1782  0.5595 -0.2433
  135MOL0     C17717   8.533   5.133   9.891 -0.0343 -0.2083  0.6053
  135MOL0     O17718   8.461   5.252   9.906  0.0375 -0.2339 -0.1469
  135MOL0     C17719   8.319   5.254   9.913 -0.9265 -0.3280  0.4326
  135MOL0     C17720   8.260   5.375   9.956 -1.0417  0.3794  0.8511
  135MOL0     C17721   8.118   5.381   9.946  0.0292  0.7144  0.2596
  135MOL0     C17722   8.035   5.271   9.913 -0.4714  0.1429  0.4886
  135MOL0     O17723   7.896   5.271   9.898  0.3223 -0.8486 -0.8285
  135MOL0     C17724   7.838   5.391   9.955  0.2464 -0.4563 -0.6756
  135MOL0     C17725   7.689   5.398   9.932  0.4959  0.9196 -0.4758
  135MOL0     C17726   7.613   5.293  10.029  0.1349  0.6595  0.0231
  135MOL0     C17727   7.457   5.310  10.018 -0.9657  0.0241  0.4532
  135MOL0     C17728   7.404   5.431  10.088  0.1067  0.0064 -0.9977
  135MOL0     C17729   7.289   5.505  10.010  0.4508  0.1020 -0.2850
  135MOL0     C17730   7.239   5.624  10.086 -0.3982  0.3907 -0.4504
  135MOL0     C17731   7.121   5.676  10.004  0.0456 -0.1538  0.1053
  135MOL0    Cl17732   7.068   5.846  10.061  0.2653  0.0344 -0.2059
  135MOL0     C17733   8.099   5.153   9.885  0.0286 -0.7677 -0.6245
  135MOL0     C17734   8.235   5.148   9.878  0.5089  0.0292  0.3594
  135MOL0     O17735   8.489   5.017   9.874 -0.1950 -0.8322 -0.5054
  135MOL0     C17736   8.766   5.051   9.886 -0.8408 -0.7408  0.2410
  135MOL0     C17737   8.909   5.082   9.900 -0.1303  0.2395  1.3406
  135MOL0     N17738   9.567   5.252   9.766  1.1036 -0.0447 -0.2010
  135MOL0     N17739   9.645   5.174   9.693  0.6872  0.4298 -0.4018
  135MOL0     C17740  10.378   4.393   9.227  0.0412  0.2082 -0.0645
  135MOL0     C17741  10.445   4.312   9.129  0.3650 -0.8820  0.4202
  135MOL0     C17742  10.604   3.887   8.973  0.9077 -0.4614  0.0736
  135MOL0     C17743  10.608   3.753   8.973  0.3999 -1.1302  0.2139
  135MOL0     C17744  10.669   3.680   8.865 -0.1724  0.0640  0.8666
  135MOL0     C17745  10.723   3.743   8.758  0.5765  0.4346 -0.5584
  135MOL0     O17746  10.789   3.666   8.665 -0.1019  0.2539 -0.3399
  135MOL0     C17747  10.809   3.708   8.528 -0.3183 -0.2844 -0.2289
  135MOL0     C17748  10.686   3.687   8.433 -0.0730  0.5081  0.3268
  135MOL0     C17749  10.568   3.787   8.465  0.5313  0.2960 -0.2994
  135MOL0     C17750  10.443   3.754   8.380 -0.4677 -0.3072  1.5244
  135MOL0     C17751  10.401   3.615   8.390  0.8005  0.2029  0.5283
  135MOL0     C17752  10.362   3.503   8.388 -0.7574  1.1387  0.1479
  135MOL0     C17753  10.708   3.884   8.757 -0.0199 -0.7063  0.7925
  135MOL0     C17754  10.666   3.953   8.868  0.5010  0.3348  0.0561
  135MOL0     H17755  10.558   4.073   9.335  2.4552  1.6076 -1.6753
  135MOL0     H17756  10.441   4.191   9.497 -3.8603 -0.8712  0.2500
  135MOL0     H17757  10.400   4.385   9.624  0.5366  3.8223  0.6925
  135MOL0     H17758  10.230   4.329   9.601  0.7676 -1.7947  1.6016
  135MOL0     H17759  10.321   4.600   9.693  0.5298 -1.8238  0.3372
  135MOL0     H17760  10.224   4.471   9.761  2.7520 -1.8617 -0.3721
  135MOL0     H17761  10.067   4.496   9.558 -0.5479 -0.0456 -0.5592
  135MOL0     H17762  10.140   4.649   9.522 -0.7452  0.8094  0.3299
  135MOL0     H17763  10.005   4.565   9.783  0.8156 -1.2786 -0.5947
  135MOL0     H17764  10.099   4.714   9.763 -0.1096  2.8108 -4.0455
  135MOL0     H17765   9.860   4.673   9.597  1.6767 -2.1818  1.6452
  135MOL0     H17766   9.952   4.813   9.643 -1.3456  1.4925  3.3695
  135MOL0     H17767   9.884   4.761   9.892  1.9149  3.4980 -1.8363
  135MOL0     H17768   9.762   4.654   9.821  0.2323  0.0035 -0.7524
  135MOL0     H17769   9.681   4.852   9.694  0.0480  1.9172  0.1412
  135MOL0     H17770   9.664   4.886   9.869  0.3588 -1.9514  0.9974
  135MOL0     H17771   9.843   5.023   9.681  0.7430  0.0082  0.7037
  135MOL0     H17772   9.888   5.006   9.850  1.2873 -1.6518 -0.6933
  135MOL0     H17773   9.721   5.129  10.016  0.9143 -0.2222 -0.5788
  135MOL0     H17774   9.550   5.428   9.975  3.8349  0.3797  3.6215
  135MOL0     H17775   9.559   5.300  10.097 -1.8847  0.0951  1.4292
  135MOL0     H17776   9.333   5.368  10.103  0.7533  2.0800 -0.5980
  135MOL0     H17777   9.338   5.223  10.011  2.1002 -0.1022 -0.3351
  135MOL0     H17778   9.316   5.498   9.890 -0.4872  0.3368  2.7933
  135MOL0     H17779   9.316   5.346   9.800  3.3305  0.2481  0.0988
  135MOL0     H17780   9.092   5.452   9.846  2.2812 -0.1614 -0.8112
  135MOL0     H17781   9.116   5.415  10.020 -1.9679 -0.1054 -0.7661
  135MOL0     H17782   8.888   5.427   9.888 -0.1694  0.3226  0.3609
  135MOL0     H17783   8.662   5.377   9.907 -0.5424  0.0225  1.6923
  135MOL0     H17784   8.319   5.454  10.001  1.4244 -0.1235 -1.2689
  135MOL0     H17785   8.066   5.468   9.986 -0.0939  0.4799  0.6199
  135MOL0     H17786   7.881   5.477   9.903 -1.9583  0.0908 -1.6847
  135MOL0     H17787   7.856   5.392  10.063  0.8027 -1.2309 -0.7451
  135MOL0     H17788   7.666   5.384   9.826 -0.3022 -1.2883 -0.0664
  135MOL0     H17789   7.646   5.497   9.948  0.0068  0.5972  0.2256
  135MOL0     H17790   7.642   5.308  10.133  2.0082 -0.9234 -0.2138
  135MOL0     H17791   7.645   5.194   9.996  0.5391  0.7823  0.0411
  135MOL0     H17792   7.434   5.313   9.911 -1.7946  1.9823  0.6267
  135MOL0     H17793   7.410   5.220  10.057  1.3581 -2.0682 -1.3080
  135MOL0     H17794   7.481   5.504  10.115  1.9013 -2.4330  0.9462
  135MOL0     H17795   7.375   5.390  10.185  1.3220  0.7567 -0.2987
  135MOL0     H17796   7.210   5.432   9.994 -0.3005  0.6822  0.7046
  135MOL0     H17797   7.328   5.531   9.911 -0.0468  0.0438 -0.5003
  135MOL0     H17798   7.202   5.587  10.183  0.4263  1.1586  0.1785
  135MOL0     H17799   7.316   5.702  10.087 -0.3133  0.3126  0.6402
  135MOL0     H17800   7.033   5.612  10.008  1.0292 -1.5960 -0.1935
  135MOL0     H17801   7.161   5.690   9.902  1.0957  2.0195  0.7659
  135MOL0     H17802   8.039   5.065   9.865  0.3180 -0.6979 -1.8325
  135MOL0     H17803   8.274   5.055   9.838  3.1358  0.8187  0.8584
  135MOL0     H17804   8.738   4.948   9.870  4.5463 -2.4663  0.1091
  135MOL0     H17805   8.987   5.007   9.892  0.3429  0.8979 -2.3968
  135MOL0     H17806  10.341   4.492   9.201 -1.2882  0.4505  2.4738
  135MOL0     H17807  10.440   4.343   9.025 -0.1436  1.3045  1.0437
  135MOL0     H17808  10.569   3.698   9.058  0.2915 -0.8662  0.3346
  135MOL0     H17809  10.672   3.572   8.867 -2.2259 -0.0381  0.8215
  135MOL0     H17810  10.893   3.650   8.490  1.1682  1.5043  0.1862
  135MOL0     H17811  10.848   3.810   8.535  0.4806 -0.7080  2.3886
  135MOL0     H17812  10.698   3.697   8.325 -0.7671  0.7430  0.2646
  135MOL0     H17813  10.650   3.589   8.465  0.7956 -0.3223 -1.1894
  135MOL0     H17814  10.603   3.890   8.457  2.9458 -0.5196 -0.9161
  135MOL0     H17815  10.533   3.766   8.567 -0.8645 -1.4377 -1.0591
  135MOL0     H17816  10.364   3.822   8.414 -0.2995  1.3607 -1.1516
  135MOL0     H17817  10.474   3.777   8.278 -1.9426  0.3671  1.2059
  135MOL0     H17818  10.335   3.401   8.371  0.7588  0.6420  0.6040
  135MOL0     H17819  10.743   3.945   8.675 -1.6732 -0.7303  0.0343
  135MOL0     H17820  10.686   4.060   8.864  0.8563  0.3219  1.2961
  136MOL0     O17821   6.599   9.555   2.164  0.6675  0.0149  0.2040
  136MOL0     C17822   6.590   9.571   2.282 -0.3119 -0.4790  0.3304
  136MOL0     O17823   6.484   9.539   2.355  0.9075 -0.0403  0.3778
  136MOL0     C17824   6.374   9.470   2.308 -0.3561  0.2786  0.2202
  136MOL0     C17825   6.329   9.376   2.397 -0.0168  0.0768  0.0228
  136MOL0     C17826   6.225   9.288   2.351 -0.7201 -0.6405  0.2887
  136MOL0     C17827   6.157   9.309   2.226  0.1925  1.3820 -0.0205
  136MOL0     O17828   6.049   9.232   2.193  0.0781 -0.4429  0.0087
  136MOL0     C17829   5.925   9.245   2.270 -1.1730  0.1553 -0.0637
  136MOL0     C17830   5.799   9.190   2.189 -0.7702  0.5004  0.9133
  136MOL0     C17831   5.752   9.276   2.074  0.5687  0.8029  0.3382
  136MOL0     C17832   5.649   9.204   1.981 -0.4066 -0.2769  0.5448
  136MOL0     C17833   5.523   9.150   2.037  0.5272 -0.0288 -0.4784
  136MOL0     C17834   5.412   9.141   1.939 -0.0251 -0.0496  0.2518
  136MOL0     C17835   5.288   9.076   1.986  0.3843 -0.2295  0.7357
  136MOL0     C17836   5.178   9.059   1.872  0.0222 -0.4848 -0.3054
  136MOL0     N17837   5.132   9.195   1.832 -0.0515  0.6039 -1.6127
  136MOL0     C17838   5.041   9.262   1.903 -0.6563  0.0185  1.1289
  136MOL0     C17839   5.031   9.379   1.825  0.0769  0.2077  0.1270
  136MOL0     C17840   4.923   9.486   1.851  0.6081 -0.4595  0.3328
  136MOL0     C17841   4.872   9.555   1.731 -0.9140  0.5615  0.3474
  136MOL0     C17842   4.783   9.678   1.759 -0.0965  0.0480 -0.5664
  136MOL0     C17843   4.639   9.673   1.689  0.3937 -0.4430 -0.1358
  136MOL0     O17844   4.559   9.568   1.747 -0.0985  0.7792 -0.0016
  136MOL0     C17845   4.439   9.547   1.683 -0.9287  1.0884  0.2840
  136MOL0     C17846   4.374   9.427   1.702 -0.3621  0.2039  0.4481
  136MOL0     C17847   4.250   9.413   1.648  0.4126 -0.0184 -0.3320
  136MOL0     C17848   4.189   9.507   1.562  0.5955 -0.3264  0.5691
  136MOL0     C17849   4.056   9.473   1.496 -0.3081  0.2106  0.6147
  136MOL0     O17850   4.019   9.537   1.384 -0.2502  0.1930  0.1715
  136MOL0     C17851   3.902   9.496   1.324 -0.1178 -1.3492 -1.1786
  136MOL0     C17852   3.924   9.390   1.234  0.5726  0.0611 -0.0385
  136MOL0     C17853   3.805   9.343   1.168 -1.1355 -0.2203 -0.0829
  136MOL0     C17854   3.681   9.388   1.204  0.1219  0.2177 -0.4512
  136MOL0     O17855   3.568   9.356   1.140  0.1836  0.3863 -0.1723
  136MOL0     C17856   3.575   9.296   1.008 -0.1922 -0.2437 -0.0071
  136MOL0     C17857   3.443   9.295   0.927  0.4726 -0.9378  0.7482
  136MOL0     C17858   3.340   9.193   0.966  0.2606 -0.2869  0.2448
  136MOL0     C17859   3.208   9.211   0.898  0.2804 -0.0014 -0.2306
  136MOL0     C17860   3.106   9.118   0.969 -0.2801 -0.2581 -0.2282
  136MOL0     C17861   2.980   9.120   0.879  0.3813  0.5145  0.6885
  136MOL0     C17862   2.875   9.027   0.938 -0.3152 -0.2833  0.4093
  136MOL0     C17863   2.732   9.045   0.878 -0.0817 -0.3230  0.3157
  136MOL0    Cl17864   2.678   9.217   0.904 -0.0976  0.2955 -0.6713
  136MOL0     C17865   3.668   9.479   1.313  0.1731  0.0158  0.4691
  136MOL0     C17866   3.777   9.544   1.363  0.1163 -0.4194  0.6504
  136MOL0     O17867   3.988   9.389   1.550 -0.2993  0.0418 -0.2366
  136MOL0     C17868   4.254   9.625   1.545 -0.1506 -0.8355  0.4461
  136MOL0     C17869   4.376   9.645   1.607 -0.4936 -0.8223  0.5695
  136MOL0     N17870   5.116   9.380   1.720 -0.1134  0.2302 -0.0706
  136MOL0     N17871   5.182   9.266   1.728 -0.5371 -0.2687  0.7188
  136MOL0     C17872   6.194   9.425   2.151 -0.7696  0.7239 -0.0833
  136MOL0     C17873   6.308   9.495   2.190  1.1033 -0.7288  0.3665
  136MOL0     C17874   6.718   9.612   2.346  0.0966 -0.6841 -0.6126
  136MOL0     C17875   6.829   9.642   2.265  0.4009 -0.0096 -0.3299
  136MOL0     C17876   6.943   9.691   2.327 -0.0001 -0.8676 -0.9618
  136MOL0     C17877   6.950   9.723   2.464 -1.1262 -0.0128 -1.1202
  136MOL0     O17878   7.059   9.770   2.533 -0.3160 -0.3557  0.3905
  136MOL0     C17879   7.183   9.729   2.490  0.0417  0.4728 -0.0099
  136MOL0     C17880   7.290   9.743   2.594  0.4581 -0.3926 -0.1413
  136MOL0     C17881   7.339   9.886   2.626 -0.2711 -0.0088  1.0961
  136MOL0     C17882   7.415   9.893   2.761 -0.1829 -0.2370 -1.0806
  136MOL0     C17883   7.441  10.032   2.793 -0.8463 -0.0947 -0.6911
  136MOL0     C17884   7.491  10.139   2.813 -0.1507 -0.2092 -0.1247
  136MOL0     C17885   6.833   9.713   2.544 -0.5291  0.7978  0.2278
  136MOL0     C17886   6.722   9.652   2.488  0.5477 -0.7981  0.7730
  136MOL0     H17887   6.390   9.359   2.486 -0.8401  2.9109  1.2592
  136MOL0     H17888   6.197   9.205   2.416  3.8964 -1.6822  1.3558
  136MOL0     H17889   5.906   9.351   2.289  0.4216  0.6144 -0.8341
  136MOL0     H17890   5.932   9.188   2.363 -3.0088 -1.0330 -0.6067
  136MOL0     H17891   5.721   9.183   2.265 -2.6421  2.0405 -0.7553
  136MOL0     H17892   5.808   9.089   2.146 -4.8695  0.9721 -1.6072
  136MOL0     H17893   5.840   9.300   2.013  1.3402 -1.7564  0.3389
  136MOL0     H17894   5.700   9.367   2.108 -1.8887  0.2303 -1.5792
  136MOL0     H17895   5.627   9.268   1.896 -1.1601 -1.2335  0.0015
  136MOL0     H17896   5.702   9.115   1.946  0.3293 -1.1133  3.4966
  136MOL0     H17897   5.492   9.212   2.122 -0.5821 -3.4322  1.7904
  136MOL0     H17898   5.548   9.051   2.077  1.9428  1.0440  1.4803
  136MOL0     H17899   5.438   9.079   1.853  0.9708 -1.6395  1.6366
  136MOL0     H17900   5.400   9.243   1.901  1.7225 -0.5593 -1.8698
  136MOL0     H17901   5.310   8.978   2.030 -0.0450  0.2529  2.0955
  136MOL0     H17902   5.234   9.134   2.062 -1.0129  1.0602 -1.1523
  136MOL0     H17903   5.088   9.009   1.911  0.0140  0.0813  0.4181
  136MOL0     H17904   5.218   9.009   1.784  2.3871  1.2254 -0.2824
  136MOL0     H17905   4.990   9.237   1.996 -0.8269  0.8258  1.2570
  136MOL0     H17906   4.972   9.558   1.917  1.2703  0.5444 -1.1782
  136MOL0     H17907   4.837   9.438   1.897 -0.2358 -3.2116 -3.6043
  136MOL0     H17908   4.810   9.487   1.671  0.9786 -1.3091  0.3944
  136MOL0     H17909   4.957   9.575   1.665 -1.2451 -0.6894 -0.5022
  136MOL0     H17910   4.756   9.690   1.864 -1.0989 -1.0231 -0.6830
  136MOL0     H17911   4.838   9.766   1.723  0.2358 -0.2021 -0.6650
  136MOL0     H17912   4.658   9.659   1.582 -0.9280 -2.9255 -0.1248
  136MOL0     H17913   4.595   9.772   1.705 -1.0944 -0.3484 -3.8050
  136MOL0     H17914   4.428   9.355   1.762 -2.2428 -0.6184  1.2253
  136MOL0     H17915   4.212   9.314   1.671  3.4042 -0.8416  1.5428
  136MOL0     H17916   4.027   9.357   1.225  1.0676  2.0508 -4.4589
  136MOL0     H17917   3.826   9.263   1.098  2.1512  0.0729  0.3827
  136MOL0     H17918   3.605   9.191   1.016  0.8975 -0.2459 -2.9643
  136MOL0     H17919   3.649   9.357   0.956  0.0863 -1.8186 -1.5276
  136MOL0     H17920   3.466   9.279   0.821 -1.8987 -2.0775  0.3410
  136MOL0     H17921   3.399   9.393   0.943 -0.7387 -0.4364 -4.1215
  136MOL0     H17922   3.332   9.192   1.075 -3.2637  1.0941  0.1059
  136MOL0     H17923   3.385   9.101   0.928 -1.8699 -0.6231 -1.6980
  136MOL0     H17924   3.175   9.315   0.909 -0.3084 -0.0922 -1.0261
  136MOL0     H17925   3.217   9.174   0.795 -1.4934 -0.7241 -0.1543
  136MOL0     H17926   3.100   9.163   1.068 -0.5678 -1.5549  0.3640
  136MOL0     H17927   3.153   9.019   0.963 -0.8265 -0.5726  0.5307
  136MOL0     H17928   2.998   9.113   0.771  0.5085  1.3130  0.6525
  136MOL0     H17929   2.932   9.218   0.878 -0.2929  0.2757 -2.5966
  136MOL0     H17930   2.910   8.924   0.929  0.8125  0.0995  0.2346
  136MOL0     H17931   2.875   9.051   1.045  0.9173  1.7954  0.0144
  136MOL0     H17932   2.670   8.964   0.918  0.6348 -0.8597  0.3420
  136MOL0     H17933   2.746   9.020   0.772 -2.7033 -2.4640  0.3682
  136MOL0     H17934   3.565   9.504   1.339 -0.5841  0.8272 -2.7925
  136MOL0     H17935   3.774   9.614   1.445 -1.1740  0.9117 -0.4835
  136MOL0     H17936   4.221   9.694   1.467  0.3220 -1.0564  0.0412
  136MOL0     H17937   4.426   9.739   1.585 -1.5723 -0.3492  0.0629
  136MOL0     H17938   6.162   9.467   2.056  0.8212  3.6038  0.5564
  136MOL0     H17939   6.337   9.582   2.133  0.4439 -2.7889 -3.4922
  136MOL0     H17940   6.834   9.623   2.158  1.4165 -0.2868 -0.2464
  136MOL0     H17941   7.025   9.719   2.262 -0.3000  2.3579 -0.1299
  136MOL0     H17942   7.209   9.778   2.395 -0.0675 -2.0403 -1.4267
  136MOL0     H17943   7.186   9.621   2.475  1.0836  0.6637 -1.4349
  136MOL0     H17944   7.252   9.707   2.691 -0.5351 -0.7486 -0.6434
  136MOL0     H17945   7.377   9.686   2.561 -0.0498 -2.2368  1.4598
  136MOL0     H17946   7.253   9.953   2.630  1.2535  2.3807 -1.8121
  136MOL0     H17947   7.407   9.921   2.548  0.7276  0.2051  2.0275
  136MOL0     H17948   7.358   9.842   2.839  0.3909 -1.4549 -1.4372
  136MOL0     H17949   7.508   9.835   2.762  0.6868  0.9912  2.2372
  136MOL0     H17950   7.530  10.234   2.842 -2.0882  0.9388 -1.0867
  136MOL0     H17951   6.831   9.743   2.648 -3.8388  1.6038  0.0222
  136MOL0     H17952   6.637   9.652   2.555  0.2016  0.9750  0.3959
  137MOL0     O17953   2.413   6.391   5.340  1.2433  0.2142  0.7042
  137MOL0     C17954   2.362   6.498   5.295 -0.8982  0.0827  1.1327
  137MOL0     O17955   2.231   6.529   5.308  0.2316 -0.3707 -0.0662
  137MOL0     C17956   2.150   6.444   5.371  0.2359  0.8485  0.5043
  137MOL0     C17957   2.173   6.391   5.495 -0.8307 -0.5397  0.3174
  137MOL0     C17958   2.074   6.324   5.559  0.2805  0.2870  0.1049
  137MOL0     C17959   1.951   6.286   5.490 -0.2134 -0.2119 -0.2481
  137MOL0     O17960   1.858   6.221   5.573 -0.4391  0.1218 -0.6398
  137MOL0     C17961   1.731   6.186   5.520 -0.0195  0.4264  0.2426
  137MOL0     C17962   1.646   6.113   5.624  0.8364 -0.1570 -0.4749
  137MOL0     C17963   1.504   6.071   5.571 -0.5754 -0.3427  0.5904
  137MOL0     C17964   1.422   6.198   5.528 -1.2939  0.6790 -0.0989
  137MOL0     C17965   1.402   6.204   5.373 -0.2803 -0.1409 -1.0951
  137MOL0     C17966   1.287   6.117   5.322 -0.3320  0.3390 -0.5569
  137MOL0     C17967   1.249   6.155   5.178 -0.8515  0.1017 -0.1721
  137MOL0     C17968   1.186   6.293   5.157  0.8786 -0.0614 -0.1363
  137MOL0     N17969   1.179   6.328   5.016 -0.3124  1.0511 -1.3614
  137MOL0     C17970   1.078   6.284   4.935 -0.6757  0.5616 -0.1708
  137MOL0     C17971   1.067   6.373   4.831  0.2494  0.5838 -0.6833
  137MOL0     C17972   0.975   6.370   4.707  0.3572 -0.1527 -0.1797
  137MOL0     C17973   0.839   6.442   4.730 -0.0844  0.8708  0.3601
  137MOL0     C17974   0.764   6.449   4.600 -0.2590 -0.5154  0.0445
  137MOL0     C17975   0.616   6.456   4.614  0.1664 -0.4817 -0.1701
  137MOL0     O17976   0.562   6.446   4.477  1.3475  0.1071  0.8435
  137MOL0     C17977   0.417   6.444   4.475 -0.4304  0.4944 -0.4017
  137MOL0     C17978   0.336   6.432   4.593 -0.8264 -0.2488 -0.0040
  137MOL0     C17979   0.203   6.411   4.581  0.3959 -0.5906 -0.5937
  137MOL0     C17980   0.140   6.397   4.457  0.4278 -0.3908 -0.0007
  137MOL0     C17981  -0.005   6.373   4.447 -0.1483 -0.4053 -0.2652
  137MOL0     O17982  -0.065   6.369   4.319 -0.2688 -0.5434 -0.7031
  137MOL0     C17983  -0.197   6.336   4.310 -0.2877  0.8549 -0.4603
  137MOL0     C17984  -0.307   6.386   4.386 -0.8689  0.2769 -0.1424
  137MOL0     C17985  -0.437   6.344   4.367  0.3378 -0.0568  0.3522
  137MOL0     C17986  -0.480   6.241   4.272 -0.3432  0.3048  0.3688
  137MOL0     O17987  -0.605   6.193   4.269  0.3725  0.2832  0.2468
  137MOL0     C17988  -0.628   6.065   4.221 -0.1335 -0.3828  0.6889
  137MOL0     C17989  -0.772   6.042   4.201  0.0477 -0.3822 -0.3502
  137MOL0     C17990  -0.860   6.045   4.325 -0.1099  1.0106  0.9929
  137MOL0     C17991  -0.904   6.187   4.358 -0.0524 -1.3780  0.9277
  137MOL0     C17992  -0.948   6.181   4.507  0.6896 -0.5603 -0.4275
  137MOL0     C17993  -0.982   6.326   4.545 -0.3485  0.4677 -1.2078
  137MOL0     C17994  -0.999   6.341   4.697  0.6168  0.0879 -0.2742
  137MOL0     C17995  -0.989   6.487   4.728  1.0906 -1.0645  0.2417
  137MOL0    Cl17996  -1.121   6.583   4.657  0.0681  0.2495  0.4844
  137MOL0     C17997  -0.361   6.196   4.198  0.4805  0.2443  0.0118
  137MOL0     C17998  -0.232   6.244   4.213 -0.1970 -0.4505 -0.6379
  137MOL0     O17999  -0.065   6.346   4.554 -0.1103 -0.1492 -0.6572
  137MOL0     C18000   0.209   6.418   4.340  0.2691  0.1510 -0.2421
  137MOL0     C18001   0.343   6.444   4.352  0.4239  0.4424  0.6653
  137MOL0     N18002   1.164   6.475   4.849 -0.6404  0.0911 -0.5356
  137MOL0     N18003   1.218   6.449   4.967 -0.5844 -0.5386 -0.9298
  137MOL0     C18004   1.936   6.321   5.360 -0.6081  0.2176 -0.9396
  137MOL0     C18005   2.034   6.404   5.302  0.3470  0.9149 -0.3870
  137MOL0     C18006   2.456   6.596   5.226 -0.0086  0.9487 -0.5102
  137MOL0     C18007   2.409   6.659   5.108  1.0279 -0.9040 -0.7394
  137MOL0     C18008   2.503   6.718   5.028 -0.2511 -0.5438 -1.3837
  137MOL0     C18009   2.637   6.730   5.060  0.4680  0.3778  0.2228
  137MOL0     O18010   2.717   6.792   4.974 -0.1425 -0.5184 -0.2901
  137MOL0     C18011   2.786   6.902   5.039  0.0326 -0.2930  0.8237
  137MOL0     C18012   2.943   6.874   5.041 -0.0212 -0.6217 -0.0585
  137MOL0     C18013   3.028   6.957   4.950 -0.6429 -0.5925 -0.5461
  137MOL0     C18014   3.175   6.898   4.925  0.1722  0.3923 -0.5952
  137MOL0     C18015   3.266   6.919   5.044  0.2552  0.4880 -0.3458
  137MOL0     C18016   3.333   6.944   5.133 -0.5999 -0.3800 -0.6693
  137MOL0     C18017   2.683   6.675   5.182 -0.1354  0.6723  0.0110
  137MOL0     C18018   2.591   6.602   5.262 -0.1983  1.1112 -0.5738
  137MOL0     H18019   2.263   6.423   5.547 -0.7134 -2.4034  1.3347
  137MOL0     H18020   2.087   6.293   5.663  2.8090 -0.0441 -0.2441
  137MOL0     H18021   1.751   6.118   5.437 -3.5065  2.2456 -2.4056
  137MOL0     H18022   1.676   6.273   5.481  0.6198  1.3523  1.3238
  137MOL0     H18023   1.628   6.174   5.713 -1.9966 -1.2951 -0.1878
  137MOL0     H18024   1.708   6.028   5.655  0.3724 -1.1343 -2.0944
  137MOL0     H18025   1.448   6.035   5.658 -0.2145  1.2208  1.5132
  137MOL0     H18026   1.514   5.995   5.493  0.6376 -0.2701  0.6632
  137MOL0     H18027   1.324   6.205   5.577 -0.6822  2.0798  1.0190
  137MOL0     H18028   1.486   6.281   5.558  0.9921 -0.9011 -0.4152
  137MOL0     H18029   1.501   6.184   5.331  0.7730 -0.6334  1.4053
  137MOL0     H18030   1.377   6.309   5.357 -1.8897 -0.3579 -0.1487
  137MOL0     H18031   1.203   6.149   5.385  0.3094  3.6264 -1.1948
  137MOL0     H18032   1.307   6.010   5.331 -1.2459  0.3417  4.2645
  137MOL0     H18033   1.337   6.142   5.114 -0.5517 -4.7244  0.7679
  137MOL0     H18034   1.187   6.074   5.137 -0.3983 -1.3812  1.8736
  137MOL0     H18035   1.241   6.372   5.208  1.2116 -0.6065  0.3627
  137MOL0     H18036   1.091   6.292   5.211  1.6672 -1.2573  1.2909
  137MOL0     H18037   1.013   6.196   4.941 -2.1187  1.4587 -1.7373
  137MOL0     H18038   0.965   6.267   4.673 -0.7183 -0.6472  1.4741
  137MOL0     H18039   1.025   6.423   4.626  1.2484 -1.6977 -0.6734
  137MOL0     H18040   0.852   6.542   4.772 -0.3103  0.3535  1.7232
  137MOL0     H18041   0.785   6.384   4.806  0.4955 -0.2613 -0.0629
  137MOL0     H18042   0.796   6.531   4.535 -0.6747 -0.3216  0.0791
  137MOL0     H18043   0.786   6.355   4.549  0.0796 -0.0696 -0.6433
  137MOL0     H18044   0.591   6.548   4.667  0.6272 -0.4065 -0.0856
  137MOL0     H18045   0.587   6.366   4.669  1.7315 -0.6503  0.4338
  137MOL0     H18046   0.378   6.430   4.693 -1.7271 -1.5362  0.3786
  137MOL0     H18047   0.142   6.414   4.671  2.7996 -0.7750  1.1342
  137MOL0     H18048  -0.292   6.450   4.473  1.2060 -0.2794 -0.0367
  137MOL0     H18049  -0.512   6.381   4.436  0.6118  1.8438 -0.3045
  137MOL0     H18050  -0.596   5.989   4.292  2.1759 -2.3710 -2.2380
  137MOL0     H18051  -0.575   6.060   4.125 -0.2986 -1.2490  0.6346
  137MOL0     H18052  -0.767   5.942   4.158  1.8641 -1.2102  1.6570
  137MOL0     H18053  -0.791   6.113   4.119  0.7670 -1.9854 -1.9722
  137MOL0     H18054  -0.796   6.000   4.402 -0.2357 -2.1017 -0.5386
  137MOL0     H18055  -0.948   5.979   4.319  1.6817 -1.6459  1.8909
  137MOL0     H18056  -0.820   6.256   4.346 -1.4508  0.1883 -0.3235
  137MOL0     H18057  -0.974   6.231   4.286  0.1489 -0.9143  1.0106
  137MOL0     H18058  -0.863   6.153   4.569  1.1070  3.6747  1.3127
  137MOL0     H18059  -1.034   6.114   4.519 -0.2550  0.0287 -3.1120
  137MOL0     H18060  -1.080   6.341   4.501 -0.3992 -1.0999 -1.7068
  137MOL0     H18061  -0.897   6.383   4.506 -0.5057  0.4864 -1.5274
  137MOL0     H18062  -1.092   6.300   4.738  0.3734 -0.0627 -0.9576
  137MOL0     H18063  -0.919   6.292   4.752  3.4877  3.7667 -0.7788
  137MOL0     H18064  -0.893   6.524   4.692 -0.5162  1.4146 -1.9199
  137MOL0     H18065  -0.995   6.511   4.835  2.3545 -4.1891  1.1119
  137MOL0     H18066  -0.363   6.127   4.115  1.5897  0.3987 -0.1566
  137MOL0     H18067  -0.156   6.195   4.152  1.3429 -0.4216  1.1510
  137MOL0     H18068   0.166   6.418   4.241 -4.1232  3.4230  1.3570
  137MOL0     H18069   0.408   6.447   4.265  1.0585  0.0171  1.1159
  137MOL0     H18070   1.849   6.309   5.297 -1.0312  1.4206 -0.6162
  137MOL0     H18071   2.015   6.439   5.201  1.0700  2.6246  0.0394
  137MOL0     H18072   2.307   6.639   5.076  1.8598 -0.7497 -3.8564
  137MOL0     H18073   2.472   6.769   4.937 -0.1780 -1.0474 -1.6909
  137MOL0     H18074   2.760   6.919   5.144  0.3837 -0.5076  0.9459
  137MOL0     H18075   2.765   6.999   4.993 -0.5572 -0.2501  1.1747
  137MOL0     H18076   2.975   6.900   5.142  1.4756  1.9661 -1.0916
  137MOL0     H18077   2.967   6.769   5.024  1.5912 -0.3942  0.5712
  137MOL0     H18078   3.034   7.058   4.992  1.6933 -0.4026 -1.1823
  137MOL0     H18079   2.974   6.977   4.857 -2.2984  2.3803  0.8929
  137MOL0     H18080   3.164   6.791   4.907 -1.0047  0.3236  0.3959
  137MOL0     H18081   3.216   6.942   4.834 -1.2255 -0.8356 -1.8816
  137MOL0     H18082   3.414   6.956   5.203  0.8585  1.7721 -2.5634
  137MOL0     H18083   2.786   6.682   5.217  0.5820 -0.8759 -1.6132
  137MOL0     H18084   2.627   6.549   5.349 -2.6517  0.0206 -0.1266
  138MOL0     O18085   4.523   5.247   2.781 -0.6850 -0.1701 -0.2148
  138MOL0     C18086   4.540   5.235   2.657 -0.1221 -0.1842 -0.6120
  138MOL0     O18087   4.448   5.192   2.563 -0.8824 -0.7116 -0.0147
  138MOL0     C18088   4.328   5.141   2.601  0.0464  0.3095  0.8355
  138MOL0     C18089   4.303   5.059   2.714  0.0128 -0.1642  0.7225
  138MOL0     C18090   4.172   5.036   2.752 -1.0720  0.5592  0.0995
  138MOL0     C18091   4.060   5.091   2.701  0.4376 -0.4382  0.6338
  138MOL0     O18092   3.940   5.077   2.767  0.0421  0.8257 -0.1960
  138MOL0     C18093   3.812   5.114   2.703 -0.1820  0.1313  0.2931
  138MOL0     C18094   3.689   5.047   2.757 -0.0189  0.2718 -1.2774
  138MOL0     C18095   3.577   5.055   2.648 -0.4152  0.5249 -0.8025
  138MOL0     C18096   3.447   5.023   2.720  0.4946  0.0538  0.3310
  138MOL0     C18097   3.332   5.038   2.617  0.0946 -0.0465 -0.3690
  138MOL0     C18098   3.204   4.970   2.668  0.4420  0.5996 -0.4058
  138MOL0     C18099   3.085   4.992   2.572  0.5996 -0.2614 -0.8729
  138MOL0     C18100   3.026   5.133   2.573 -0.3992  0.9519 -0.2085
  138MOL0     N18101   2.990   5.171   2.710  0.3205  0.4868 -0.0797
  138MOL0     C18102   2.870   5.181   2.774 -0.4130  0.3126  0.0350
  138MOL0     C18103   2.885   5.269   2.875  0.1387 -0.5053  0.7855
  138MOL0     C18104   2.780   5.328   2.956  0.2669  0.0021  0.3569
  138MOL0     C18105   2.808   5.328   3.106  0.0298  0.1574 -0.4739
  138MOL0     C18106   2.680   5.354   3.191  0.4015 -0.4533 -0.0898
  138MOL0     C18107   2.617   5.220   3.230  0.0254 -0.3863  0.7456
  138MOL0     O18108   2.483   5.230   3.275 -0.4280 -0.4619  0.9240
  138MOL0     C18109   2.376   5.196   3.195  0.2461  0.3375 -1.4027
  138MOL0     C18110   2.385   5.167   3.055  1.3625  1.2028 -0.2400
  138MOL0     C18111   2.272   5.128   2.985  0.0435  0.6389 -0.1763
  138MOL0     C18112   2.144   5.138   3.049 -0.1959  0.2835  0.3206
  138MOL0     C18113   2.022   5.109   2.970  0.0887  0.5757 -0.0749
  138MOL0     O18114   1.909   5.145   3.025 -0.6306  0.1251 -0.0533
  138MOL0     C18115   1.796   5.101   2.959  0.3517  0.6278 -0.4015
  138MOL0     C18116   1.759   5.148   2.830  0.3006  0.5978  0.0264
  138MOL0     C18117   1.639   5.100   2.774  0.7380 -0.6307  0.8152
  138MOL0     C18118   1.562   5.014   2.846 -0.4071  0.0564 -0.2950
  138MOL0     O18119   1.459   4.944   2.801 -0.0830  0.3306  0.0356
  138MOL0     C18120   1.373   5.016   2.712  0.8426  0.5879 -0.7255
  138MOL0     C18121   1.247   4.937   2.726  0.2988 -0.3490 -0.8524
  138MOL0     C18122   1.130   4.994   2.654  0.0177  0.0828  0.1593
  138MOL0     C18123   1.024   4.886   2.635  0.3609  0.6503 -0.1016
  138MOL0     C18124   0.893   4.938   2.577 -0.3585 -0.6322  0.2072
  138MOL0     C18125   0.799   4.825   2.535 -0.1485  0.6235 -0.1929
  138MOL0     C18126   0.666   4.873   2.477  0.1322  0.0568 -0.0100
  138MOL0     C18127   0.585   4.937   2.578 -0.5284  0.1243 -0.5767
  138MOL0    Cl18128   0.422   4.974   2.526  0.2517  0.1040 -0.1373
  138MOL0     C18129   1.591   4.978   2.977 -0.7275  0.9084  0.1032
  138MOL0     C18130   1.710   5.016   3.032  0.1792 -0.0006  0.6841
  138MOL0     O18131   2.038   5.064   2.861  0.8138  0.2189 -0.3888
  138MOL0     C18132   2.135   5.170   3.185 -0.4573  0.2666 -0.0694
  138MOL0     C18133   2.249   5.198   3.261  1.0714  0.6650 -0.1789
  138MOL0     N18134   3.017   5.301   2.892 -0.8899 -0.5991  0.4475
  138MOL0     N18135   3.077   5.233   2.797 -0.1694  0.0344  0.3106
  138MOL0     C18136   4.080   5.178   2.592  0.9700  0.4876  0.5557
  138MOL0     C18137   4.210   5.188   2.536  0.9618  0.9064  0.3561
  138MOL0     C18138   4.664   5.299   2.614 -1.0915  0.0323  0.6451
  138MOL0     C18139   4.736   5.381   2.698 -0.3437 -0.5922 -0.4531
  138MOL0     C18140   4.851   5.459   2.656  0.4895  0.1653 -0.4122
  138MOL0     C18141   4.886   5.456   2.524 -0.1715 -0.0161 -0.1651
  138MOL0     O18142   4.994   5.541   2.487  0.7562 -0.3530 -0.4902
  138MOL0     C18143   5.070   5.497   2.373  0.1358  0.5350 -0.8839
  138MOL0     C18144   5.162   5.379   2.418  0.0389  0.2590  0.5426
  138MOL0     C18145   5.276   5.359   2.317 -0.9246  0.3633 -0.0896
  138MOL0     C18146   5.230   5.265   2.198 -0.4589 -0.1389 -0.3709
  138MOL0     C18147   5.331   5.200   2.120 -0.4253  0.5782  0.2567
  138MOL0     C18148   5.414   5.142   2.049  0.3960  0.0505 -1.0137
  138MOL0     C18149   4.820   5.367   2.440 -0.4625 -0.1953  0.8119
  138MOL0     C18150   4.710   5.294   2.488 -0.4090 -0.2679 -0.1961
  138MOL0     H18151   4.385   5.013   2.767 -0.6182  1.6736  3.5480
  138MOL0     H18152   4.154   4.964   2.831 -1.0284  0.4018 -0.0321
  138MOL0     H18153   3.817   5.089   2.597 -3.7118 -3.1954  0.6713
  138MOL0     H18154   3.805   5.223   2.715 -0.3002  0.1159  0.3682
  138MOL0     H18155   3.665   5.101   2.849  1.3868 -0.3085 -0.5368
  138MOL0     H18156   3.711   4.942   2.780 -0.2642 -0.4174 -3.8102
  138MOL0     H18157   3.586   4.981   2.568 -2.6308  1.5879 -2.1538
  138MOL0     H18158   3.574   5.158   2.614 -0.2831  0.6122 -0.5502
  138MOL0     H18159   3.449   4.921   2.759  3.6287  0.2430  0.9071
  138MOL0     H18160   3.429   5.084   2.809 -2.6244 -1.8470  1.1574
  138MOL0     H18161   3.367   4.997   2.522  1.5291 -0.7155  0.4160
  138MOL0     H18162   3.306   5.145   2.611 -2.4403 -0.4440  1.4935
  138MOL0     H18163   3.178   5.000   2.770  1.0555 -1.2009  0.3181
  138MOL0     H18164   3.215   4.862   2.679 -0.4610  0.0387 -3.8475
  138MOL0     H18165   3.117   4.966   2.471  1.3563 -2.8653 -0.0487
  138MOL0     H18166   3.009   4.923   2.611  1.1538  0.4890  1.7728
  138MOL0     H18167   2.934   5.125   2.516 -0.1204 -0.5716 -0.4933
  138MOL0     H18168   3.095   5.210   2.537 -0.6060  0.4823 -1.6592
  138MOL0     H18169   2.775   5.143   2.737 -0.5944 -0.3288  1.1351
  138MOL0     H18170   2.686   5.277   2.934 -0.3308  1.2651 -0.1106
  138MOL0     H18171   2.760   5.435   2.939 -1.5216 -0.4289 -0.4732
  138MOL0     H18172   2.882   5.405   3.128 -1.2686  0.6353  2.7147
  138MOL0     H18173   2.858   5.238   3.144 -0.9338 -1.2266 -2.2991
  138MOL0     H18174   2.710   5.401   3.286 -1.0640  0.7087 -0.1658
  138MOL0     H18175   2.613   5.424   3.139  1.9713  1.8276  0.7849
  138MOL0     H18176   2.677   5.184   3.315  1.0359  2.1016  1.1707
  138MOL0     H18177   2.631   5.146   3.151 -1.4733 -3.5603  3.1693
  138MOL0     H18178   2.477   5.165   2.997  1.0699 -0.4766 -0.7122
  138MOL0     H18179   2.284   5.093   2.883  1.5972  0.6139 -0.0138
  138MOL0     H18180   1.828   5.219   2.787  1.0044 -1.1248 -1.8617
  138MOL0     H18181   1.610   5.130   2.674  1.6327 -0.4984  0.5933
  138MOL0     H18182   1.410   5.010   2.609  0.6536  1.8605 -0.8857
  138MOL0     H18183   1.356   5.119   2.745  2.6030  0.4563  0.7234
  138MOL0     H18184   1.220   4.948   2.831 -0.3781 -0.1560 -1.0414
  138MOL0     H18185   1.267   4.832   2.701  3.1389 -0.5667  1.7932
  138MOL0     H18186   1.166   5.034   2.558  0.2709 -2.1129 -0.7319
  138MOL0     H18187   1.084   5.076   2.710  0.4325  0.6901 -0.3768
  138MOL0     H18188   1.064   4.828   2.551  1.7133  1.4482 -0.0359
  138MOL0     H18189   1.000   4.829   2.725 -0.1674  0.4092 -0.3918
  138MOL0     H18190   0.915   5.005   2.494 -0.3394  1.6365  1.9306
  138MOL0     H18191   0.842   5.003   2.648 -1.0978  1.2954 -2.0060
  138MOL0     H18192   0.774   4.750   2.610  0.2074  0.3145 -0.3777
  138MOL0     H18193   0.854   4.769   2.459  0.8556  0.6968  0.4715
  138MOL0     H18194   0.673   4.939   2.390 -0.4913 -1.6431 -1.4190
  138MOL0     H18195   0.602   4.793   2.437 -2.0001  1.3504  0.6580
  138MOL0     H18196   0.641   5.025   2.610  0.6995 -0.8109 -0.0616
  138MOL0     H18197   0.571   4.869   2.663 -3.0856  3.7122  2.1754
  138MOL0     H18198   1.534   4.905   3.034  2.2498 -1.4673  0.2661
  138MOL0     H18199   1.731   4.979   3.131 -0.2828 -2.7155 -0.1296
  138MOL0     H18200   2.033   5.158   3.219 -2.1305  0.8325 -4.3909
  138MOL0     H18201   2.254   5.210   3.368 -0.7880 -0.3052  0.0589
  138MOL0     H18202   3.993   5.219   2.541  1.5041  1.1811  0.1844
  138MOL0     H18203   4.221   5.247   2.446  3.1542 -0.1239 -0.1323
  138MOL0     H18204   4.702   5.384   2.801  2.3048 -0.6816  0.4894
  138MOL0     H18205   4.895   5.525   2.730 -1.8687  1.3739  0.0277
  138MOL0     H18206   5.129   5.585   2.346  0.2795  1.3523  1.7661
  138MOL0     H18207   5.007   5.471   2.288 -0.0032  2.4287 -1.4247
  138MOL0     H18208   5.207   5.393   2.517 -1.3718 -0.7779  1.3613
  138MOL0     H18209   5.104   5.287   2.420  0.9925 -0.4967 -2.0407
  138MOL0     H18210   5.365   5.310   2.359 -1.1287  0.3923  0.3728
  138MOL0     H18211   5.323   5.450   2.278  2.0085 -0.7715  0.4803
  138MOL0     H18212   5.170   5.187   2.245 -0.0573  0.5879  1.4100
  138MOL0     H18213   5.174   5.320   2.121 -0.3764 -0.6248 -0.7875
  138MOL0     H18214   5.495   5.120   1.983 -1.4734 -0.7635 -3.1888
  138MOL0     H18215   4.840   5.351   2.334 -0.1637 -2.4366  1.1693
  138MOL0     H18216   4.664   5.230   2.413 -2.1154 -0.2183  0.7602
  139MOL0     O18217   4.077   8.565   7.619 -0.2293 -0.0189  0.0537
  139MOL0     C18218   4.115   8.664   7.682  0.0708  0.2466  0.1267
  139MOL0     O18219   4.036   8.747   7.754  0.5205  0.3033 -0.3791
  139MOL0     C18220   3.905   8.710   7.759  0.0686 -1.0510  1.0066
  139MOL0     C18221   3.845   8.697   7.879  0.1209  0.0320  0.5026
  139MOL0     C18222   3.709   8.650   7.889 -0.5065 -0.1579 -0.1349
  139MOL0     C18223   3.634   8.627   7.771 -0.0946  0.1467 -0.2167
  139MOL0     O18224   3.504   8.586   7.780  0.6636  0.8987 -0.4567
  139MOL0     C18225   3.416   8.648   7.687 -0.0445  0.5233  0.5909
  139MOL0     C18226   3.274   8.614   7.745 -0.2268 -1.0097  1.1779
  139MOL0     C18227   3.167   8.642   7.642 -0.1497  0.5162  0.2614
  139MOL0     C18228   3.035   8.584   7.693 -0.3159 -0.1954  0.1814
  139MOL0     C18229   2.918   8.628   7.601  0.0796  1.0287 -0.9010
  139MOL0     C18230   2.810   8.522   7.594 -0.9209  0.8050 -0.3491
  139MOL0     C18231   2.680   8.581   7.542 -0.3042  0.4427 -0.7972
  139MOL0     C18232   2.604   8.645   7.660 -0.0268  0.6867 -0.0771
  139MOL0     N18233   2.459   8.650   7.640 -0.6104 -0.6130 -0.0331
  139MOL0     C18234   2.394   8.730   7.547  0.3091 -0.4169  0.5117
  139MOL0     C18235   2.261   8.713   7.564 -0.4005  0.2231  0.5770
  139MOL0     C18236   2.153   8.783   7.484 -0.3051 -0.5499  0.1067
  139MOL0     C18237   2.107   8.711   7.357  0.3205  0.0131  0.0683
  139MOL0     C18238   2.223   8.642   7.280  0.0634  0.1454 -0.4793
  139MOL0     C18239   2.296   8.724   7.180  0.4920  0.3068  0.0759
  139MOL0     O18240   2.392   8.647   7.102 -0.7994 -0.2644 -0.2310
  139MOL0     C18241   2.527   8.683   7.106  0.2483  0.1753  0.9351
  139MOL0     C18242   2.622   8.600   7.165  0.9387 -0.2828  0.0164
  139MOL0     C18243   2.749   8.650   7.189  0.3047  0.2035 -0.8963
  139MOL0     C18244   2.781   8.786   7.165 -0.0452  0.3190  1.3626
  139MOL0     C18245   2.920   8.834   7.190 -0.8284 -1.1586 -0.2304
  139MOL0     O18246   3.007   8.742   7.254 -0.3763 -1.3399 -0.3263
  139MOL0     C18247   3.125   8.787   7.306 -0.4717 -0.2359 -0.0453
  139MOL0     C18248   3.147   8.902   7.382 -0.2893 -0.2019  0.2712
  139MOL0     C18249   3.278   8.929   7.428 -0.2420 -0.4518  0.3950
  139MOL0     C18250   3.390   8.845   7.403  0.7078  0.8427 -0.2918
  139MOL0     O18251   3.523   8.862   7.421  0.7206  1.2006  0.6020
  139MOL0     C18252   3.570   8.991   7.410 -0.3320 -0.3996 -0.1939
  139MOL0     C18253   3.724   8.996   7.384  0.6629 -0.8846 -0.3509
  139MOL0     C18254   3.770   9.137   7.376 -0.3717 -0.5351  0.3442
  139MOL0     C18255   3.925   9.148   7.355 -0.2013 -0.0259  0.4951
  139MOL0     C18256   4.013   9.078   7.460 -0.4082  0.3583  0.5419
  139MOL0     C18257   4.154   9.132   7.439 -0.4991 -0.1978  0.9338
  139MOL0     C18258   4.268   9.038   7.503 -0.2080 -0.2183 -0.1582
  139MOL0     C18259   4.400   9.100   7.457 -0.6614 -0.3204 -0.0704
  139MOL0    Cl18260   4.448   9.251   7.549  0.0087  0.6590 -0.5489
  139MOL0     C18261   3.356   8.725   7.343  0.8233 -0.5932  0.2359
  139MOL0     C18262   3.235   8.695   7.301  0.0543 -0.8371  0.2905
  139MOL0     O18263   2.941   8.953   7.163  0.0078 -0.1301 -0.4331
  139MOL0     C18264   2.692   8.863   7.093 -0.1138  0.4639  0.2067
  139MOL0     C18265   2.565   8.808   7.061  0.7622 -0.2858 -0.6671
  139MOL0     N18266   2.250   8.632   7.673  0.5360  0.2534  0.0754
  139MOL0     N18267   2.368   8.589   7.723 -0.0237  0.3300 -0.5584
  139MOL0     C18268   3.697   8.648   7.648  0.5501  0.3037  0.1213
  139MOL0     C18269   3.824   8.687   7.640 -0.2101 -0.1311  0.0167
  139MOL0     C18270   4.263   8.684   7.702 -0.0101  0.3378  0.1248
  139MOL0     C18271   4.306   8.794   7.779  0.6219  0.0040  0.2005
  139MOL0     C18272   4.439   8.803   7.804  0.0491 -0.3147 -1.2568
  139MOL0     C18273   4.537   8.718   7.747 -0.0534  0.0019 -0.0640
  139MOL0     O18274   4.678   8.732   7.778 -0.1159  0.0510 -0.1066
  139MOL0     C18275   4.724   8.809   7.881 -0.3175  0.1001  0.4241
  139MOL0     C18276   4.697   8.769   8.030  0.4680 -1.0638  1.1325
  139MOL0     C18277   4.732   8.623   8.050 -0.7014  0.2278  0.7889
  139MOL0     C18278   4.739   8.577   8.198  0.7461 -0.4815  0.3540
  139MOL0     C18279   4.805   8.450   8.205 -0.0334  0.2830 -0.3423
  139MOL0     C18280   4.857   8.340   8.212  0.9460  0.4293 -0.1340
  139MOL0     C18281   4.495   8.633   7.647  0.2405 -0.2962  0.2091
  139MOL0     C18282   4.359   8.612   7.627  0.4970  0.2755  0.3108
  139MOL0     H18283   3.895   8.723   7.972  0.5192  1.0937  0.0012
  139MOL0     H18284   3.665   8.643   7.988  1.8744  0.5914  1.0641
  139MOL0     H18285   3.420   8.602   7.587 -0.2303 -0.5812  1.0691
  139MOL0     H18286   3.433   8.755   7.674 -0.4151  0.5970  0.6872
  139MOL0     H18287   3.257   8.679   7.831 -0.8980 -0.7481  0.8500
  139MOL0     H18288   3.263   8.512   7.783  1.5410 -1.6592  0.0658
  139MOL0     H18289   3.201   8.593   7.551  0.9208 -2.1294  1.9594
  139MOL0     H18290   3.169   8.751   7.631  2.8391  0.7331  1.7101
  139MOL0     H18291   3.041   8.475   7.699  2.0436 -0.0880  0.6142
  139MOL0     H18292   3.015   8.614   7.796  0.2407  1.0009 -0.0433
  139MOL0     H18293   2.954   8.647   7.499  1.1212 -2.6159 -1.3785
  139MOL0     H18294   2.874   8.714   7.651 -0.1970  0.5375 -0.2980
  139MOL0     H18295   2.796   8.466   7.686 -0.3026 -0.5917 -1.0829
  139MOL0     H18296   2.850   8.452   7.520  2.5388  1.1626  0.9884
  139MOL0     H18297   2.692   8.653   7.461  1.3512  1.0756 -0.0425
  139MOL0     H18298   2.624   8.496   7.500  2.3143 -2.0965  0.4418
  139MOL0     H18299   2.626   8.751   7.644 -1.4149  0.6693 -2.8508
  139MOL0     H18300   2.636   8.591   7.749 -1.1059 -2.2768 -1.3589
  139MOL0     H18301   2.441   8.782   7.464 -1.5672 -0.5211 -0.6842
  139MOL0     H18302   2.174   8.888   7.462 -1.5858 -0.0364  1.1951
  139MOL0     H18303   2.063   8.787   7.547 -1.0678 -0.3304 -0.9544
  139MOL0     H18304   2.060   8.780   7.285  3.3488  1.3361 -0.7975
  139MOL0     H18305   2.031   8.637   7.384  0.8754 -0.5435  0.1380
  139MOL0     H18306   2.297   8.589   7.341 -1.2625 -0.1495  0.9236
  139MOL0     H18307   2.189   8.554   7.226  2.4892 -2.2933  1.6656
  139MOL0     H18308   2.337   8.810   7.234 -0.2726  1.3411 -0.9385
  139MOL0     H18309   2.228   8.760   7.102  0.0877  1.3268  0.8802
  139MOL0     H18310   2.588   8.502   7.197  0.8055 -0.3148 -0.2149
  139MOL0     H18311   2.824   8.588   7.238 -1.7063  1.1576  3.9753
  139MOL0     H18312   3.075   8.980   7.403 -2.9396 -2.4775  0.1464
  139MOL0     H18313   3.304   9.024   7.474  0.3499 -0.3594 -0.1288
  139MOL0     H18314   3.541   9.046   7.500 -2.7253 -1.0856 -0.4558
  139MOL0     H18315   3.525   9.039   7.322  0.7118  0.7220 -0.1450
  139MOL0     H18316   3.762   8.945   7.295  2.0724  1.0964 -0.9379
  139MOL0     H18317   3.752   8.935   7.471 -1.9985  0.0407  1.2639
  139MOL0     H18318   3.749   9.185   7.472  1.3272 -0.2163  0.5772
  139MOL0     H18319   3.722   9.189   7.291 -0.2525 -0.7465  0.1481
  139MOL0     H18320   3.939   9.115   7.252 -1.5367  1.4489 -0.1988
  139MOL0     H18321   3.940   9.256   7.357 -1.3618  0.1366  1.5101
  139MOL0     H18322   4.005   8.969   7.452 -1.0908  0.5344 -3.5240
  139MOL0     H18323   3.964   9.110   7.552 -3.1652 -0.2438 -0.6203
  139MOL0     H18324   4.166   9.233   7.478  0.0393 -0.5441  1.6896
  139MOL0     H18325   4.172   9.140   7.331 -0.9054 -0.8597  0.8085
  139MOL0     H18326   4.261   9.032   7.612  3.0040 -1.7424  0.0792
  139MOL0     H18327   4.259   8.940   7.455 -2.8960 -0.4142  0.5763
  139MOL0     H18328   4.408   9.118   7.349  2.1147  4.8940  0.7245
  139MOL0     H18329   4.480   9.031   7.484  0.1337  1.5537  2.8263
  139MOL0     H18330   3.427   8.649   7.314  1.7249  1.2916 -2.9580
  139MOL0     H18331   3.206   8.603   7.252 -0.0750 -0.2955 -0.6737
  139MOL0     H18332   2.712   8.966   7.065 -2.1761  1.2131  1.2694
  139MOL0     H18333   2.484   8.862   7.012 -0.0996 -2.0499 -1.2997
  139MOL0     H18334   3.654   8.618   7.553 -0.3209  2.0309 -0.0542
  139MOL0     H18335   3.866   8.705   7.542  1.8919  1.2690  1.1175
  139MOL0     H18336   4.227   8.855   7.823 -1.5510  0.2196 -3.6096
  139MOL0     H18337   4.472   8.880   7.874  1.2377 -1.9895  0.1305
  139MOL0     H18338   4.689   8.913   7.875 -1.4414 -0.2968 -0.2533
  139MOL0     H18339   4.832   8.814   7.867 -0.5175  1.1333 -0.9166
  139MOL0     H18340   4.752   8.829   8.104 -0.5975  0.1681  0.9644
  139MOL0     H18341   4.590   8.791   8.040  1.1111  3.2154  0.7449
  139MOL0     H18342   4.835   8.616   8.012 -1.1723 -0.9859 -0.3451
  139MOL0     H18343   4.666   8.556   7.995 -1.1869 -0.4325  2.1480
  139MOL0     H18344   4.790   8.655   8.256 -1.1804  1.0780  0.0752
  139MOL0     H18345   4.644   8.576   8.252  2.9597 -1.5183  4.6365
  139MOL0     H18346   4.916   8.259   8.249  0.3546 -0.3669 -0.9112
  139MOL0     H18347   4.574   8.587   7.588  2.4309  0.7099  2.1558
  139MOL0     H18348   4.332   8.526   7.567  1.1153 -0.4761  1.0868
  140MOL0     O18349   4.609   0.495  11.170 -0.3324  0.6603  0.7641
  140MOL0     C18350   4.681   0.458  11.263 -0.6742  0.0920 -0.5587
  140MOL0     O18351   4.650   0.469  11.398 -0.1623  0.9990 -0.3592
  140MOL0     C18352   4.532   0.528  11.443 -0.4241 -0.0915  0.3737
  140MOL0     C18353   4.476   0.644  11.394 -0.0092 -0.3179  0.0211
  140MOL0     C18354   4.368   0.703  11.461 -0.7248  0.9557  0.0976
  140MOL0     C18355   4.303   0.650  11.576 -0.9317  0.0219 -0.5644
  140MOL0     O18356   4.220   0.726  11.654 -0.5992 -0.3988 -0.3195
  140MOL0     C18357   4.099   0.779  11.592  0.1969 -0.1794 -0.5154
  140MOL0     C18358   4.050   0.907  11.670  0.6702  0.0821  0.6377
  140MOL0     C18359   3.915   0.965  11.604 -0.0126 -0.2851  0.0161
  140MOL0     C18360   3.894   1.103  11.683  0.4910  0.3039 -0.3384
  140MOL0     C18361   3.740   1.118  11.673  0.1874  0.1649 -0.1998
  140MOL0     C18362   3.678   1.241  11.725  0.3910  0.0475  0.2760
  140MOL0     C18363   3.522   1.235  11.675 -0.2806 -0.0833  0.2272
  140MOL0     C18364   3.431   1.134  11.755  0.1708 -0.1715 -1.2023
  140MOL0     N18365   3.290   1.150  11.747  0.6052 -0.3278  0.2660
  140MOL0     C18366   3.217   1.206  11.648  0.2589  0.5740  0.2094
  140MOL0     C18367   3.093   1.228  11.706 -0.3977  0.3801 -0.2914
  140MOL0     C18368   2.974   1.291  11.640 -0.5149 -0.3870  1.3349
  140MOL0     C18369   2.834   1.264  11.707 -0.7596  0.7016  0.2896
  140MOL0     C18370   2.782   1.120  11.708  0.4380  0.5285  0.3220
  140MOL0     C18371   2.656   1.113  11.778  0.8341  0.1566 -0.9578
  140MOL0     O18372   2.563   1.202  11.708  0.5176  0.3987 -0.8879
  140MOL0     C18373   2.423   1.188  11.732 -0.5039  0.3778  1.0510
  140MOL0     C18374   2.364   1.098  11.828 -0.2230 -0.7383  0.4915
  140MOL0     C18375   2.225   1.100  11.852  0.8878 -0.2729  0.3150
  140MOL0     C18376   2.141   1.158  11.754  1.1584 -0.3975  0.1061
  140MOL0     C18377   1.990   1.138  11.759 -0.4645  0.0164 -1.1254
  140MOL0     O18378   1.923   1.213  11.667  0.8650  0.7628  0.3321
  140MOL0     C18379   1.788   1.216  11.687 -0.5152 -0.7949 -0.1536
  140MOL0     C18380   1.709   1.109  11.658 -0.3738  0.9873 -0.6523
  140MOL0     C18381   1.571   1.104  11.676  0.3234  0.4138 -0.0867
  140MOL0     C18382   1.512   1.215  11.743 -0.0224  0.4243  0.7144
  140MOL0     O18383   1.377   1.197  11.771 -0.5468 -0.0375 -0.1396
  140MOL0     C18384   1.301   1.307  11.826  0.4082  0.5932 -0.0136
  140MOL0     C18385   1.152   1.291  11.799 -0.0491 -0.0620 -0.4745
  140MOL0     C18386   1.064   1.317  11.926 -0.3698 -0.4544  0.0852
  140MOL0     C18387   0.916   1.318  11.883  0.2492 -0.1168  0.3040
  140MOL0     C18388   0.822   1.334  12.000 -0.8861 -0.7319  0.0883
  140MOL0     C18389   0.755   1.212  12.051  0.1415 -0.6023  0.1303
  140MOL0     C18390   0.641   1.175  11.958 -0.3601  1.4291  0.2230
  140MOL0     C18391   0.534   1.099  12.043 -0.8207  0.3950 -0.2502
  140MOL0    Cl18392   0.441   1.222  12.140  0.2317  0.1253  0.0387
  140MOL0     C18393   1.591   1.323  11.776  0.1226  0.4173  0.2442
  140MOL0     C18394   1.728   1.325  11.754 -0.4408 -0.5052  0.3576
  140MOL0     O18395   1.939   1.049  11.836 -0.9343 -0.2745 -0.0174
  140MOL0     C18396   2.202   1.236  11.653  0.2307  0.1917 -0.3882
  140MOL0     C18397   2.337   1.264  11.648 -0.4193 -0.1792  0.1192
  140MOL0     N18398   3.098   1.183  11.842  0.1636 -0.7143  0.4788
  140MOL0     N18399   3.219   1.146  11.868 -0.9482  0.2297  0.5575
  140MOL0     C18400   4.364   0.533  11.624  0.6697  0.2499  0.9154
  140MOL0     C18401   4.476   0.474  11.561  0.2592  0.2787  1.3211
  140MOL0     C18402   4.809   0.387  11.236  0.0557 -0.3667 -0.3897
  140MOL0     C18403   4.852   0.343  11.102  0.6640  0.3691 -0.5805
  140MOL0     C18404   4.977   0.281  11.090 -0.1910  0.1005 -0.3477
  140MOL0     C18405   5.057   0.263  11.203  0.3687 -1.1433  0.4106
  140MOL0     O18406   5.183   0.215  11.199  0.1004 -0.1145  0.1147
  140MOL0     C18407   5.226   0.114  11.102  0.1971  0.2520 -0.6830
  140MOL0     C18408   5.290   0.162  10.967 -0.3543  0.2676 -0.2711
  140MOL0     C18409   5.321   0.044  10.881 -0.3447 -0.0272  0.2478
  140MOL0     C18410   5.199  -0.026  10.823  0.1872  0.0705  0.1801
  140MOL0     C18411   5.093   0.049  10.756 -0.1846 -1.0850  0.2980
  140MOL0     C18412   4.998   0.118  10.711 -0.2818 -0.4679  0.2192
  140MOL0     C18413   5.018   0.320  11.330 -0.3482 -0.3441 -0.1522
  140MOL0     C18414   4.893   0.372  11.348 -0.8032  0.0108 -0.3398
  140MOL0     H18415   4.521   0.695  11.309  1.9932 -1.7036  0.1839
  140MOL0     H18416   4.340   0.802  11.426 -0.6022 -0.2039 -3.7358
  140MOL0     H18417   4.016   0.708  11.590  0.4920 -0.5113 -1.3719
  140MOL0     H18418   4.111   0.785  11.483 -0.4020  0.2304 -0.5640
  140MOL0     H18419   4.128   0.983  11.666  0.9083 -0.1947 -0.2917
  140MOL0     H18420   4.039   0.886  11.777  1.8546 -0.8973  0.5804
  140MOL0     H18421   3.840   0.886  11.607 -1.1746  0.6097 -2.6734
  140MOL0     H18422   3.932   0.988  11.499  0.6612  0.3059  0.2443
  140MOL0     H18423   3.938   1.108  11.783 -1.0765  1.4333  0.3336
  140MOL0     H18424   3.937   1.191  11.637  1.4670  1.0654  1.8849
  140MOL0     H18425   3.692   1.036  11.727  1.0360  1.7853  3.2912
  140MOL0     H18426   3.723   1.102  11.566 -0.8304 -4.2474  0.4100
  140MOL0     H18427   3.734   1.326  11.685  0.0916 -0.6739 -1.8210
  140MOL0     H18428   3.695   1.230  11.833  0.0967 -2.3355  0.1281
  140MOL0     H18429   3.485   1.338  11.683 -1.2134 -0.1812 -2.0409
  140MOL0     H18430   3.525   1.220  11.567  3.0148  0.8624  0.0816
  140MOL0     H18431   3.468   1.131  11.858  1.8703  0.9777 -1.7380
  140MOL0     H18432   3.440   1.029  11.725 -1.2035 -0.5886 -0.2316
  140MOL0     H18433   3.260   1.241  11.555  0.0945  2.7556  0.8879
  140MOL0     H18434   2.973   1.262  11.535 -0.2036  1.5322  0.7564
  140MOL0     H18435   3.002   1.397  11.639  0.9228 -0.7286 -0.8852
  140MOL0     H18436   2.763   1.334  11.662 -3.3450 -1.1346  1.2289
  140MOL0     H18437   2.834   1.291  11.813  1.5589 -2.5326  1.2755
  140MOL0     H18438   2.780   1.083  11.605 -0.7794 -0.1444  0.5717
  140MOL0     H18439   2.859   1.060  11.758 -0.2603  1.5374  2.7591
  140MOL0     H18440   2.659   1.132  11.886  1.0419 -0.8515 -0.7772
  140MOL0     H18441   2.629   1.009  11.756 -1.3553  0.0971  1.4775
  140MOL0     H18442   2.432   1.036  11.884  1.1939 -0.2687 -0.6511
  140MOL0     H18443   2.183   1.036  11.929  0.7535  0.9911  1.3213
  140MOL0     H18444   1.755   1.022  11.612  0.6023  0.4204  1.2708
  140MOL0     H18445   1.524   1.009  11.649 -0.9620  0.3885  1.9944
  140MOL0     H18446   1.337   1.398  11.777  1.3375 -0.2884 -1.0435
  140MOL0     H18447   1.323   1.299  11.933 -0.0034 -1.1523 -0.0277
  140MOL0     H18448   1.131   1.191  11.762 -0.5916 -1.4720  3.1898
  140MOL0     H18449   1.116   1.362  11.724  2.5428  1.1047 -0.7460
  140MOL0     H18450   1.100   1.414  11.963  3.0340 -2.4329  2.5477
  140MOL0     H18451   1.098   1.234  11.987  0.5074 -1.6607 -1.9413
  140MOL0     H18452   0.882   1.392  11.809  1.7855 -1.4142 -1.7932
  140MOL0     H18453   0.897   1.221  11.836 -2.3850  0.9439 -1.0576
  140MOL0     H18454   0.745   1.411  11.993  1.1670  1.9818  3.7977
  140MOL0     H18455   0.891   1.369  12.078 -3.0412  1.3204  1.1937
  140MOL0     H18456   0.719   1.238  12.151 -1.6949  1.1425 -0.9020
  140MOL0     H18457   0.831   1.134  12.063  0.1299 -0.4079  1.6469
  140MOL0     H18458   0.599   1.263  11.908 -1.1341  1.8934  1.6605
  140MOL0     H18459   0.671   1.103  11.881 -3.2466  0.2088  0.1072
  140MOL0     H18460   0.579   1.031  12.116  0.7323  1.8833  0.2664
  140MOL0     H18461   0.471   1.042  11.974 -1.6036  0.6833  0.2136
  140MOL0     H18462   1.554   1.413  11.824  0.1655  0.7516 -0.3487
  140MOL0     H18463   1.791   1.410  11.779 -0.7679 -0.5024  1.1952
  140MOL0     H18464   2.139   1.282  11.577  0.6192 -2.5226 -2.4986
  140MOL0     H18465   2.378   1.337  11.579 -0.7346 -1.1490 -1.1280
  140MOL0     H18466   4.321   0.479  11.708  0.3365 -2.4635 -0.8597
  140MOL0     H18467   4.520   0.385  11.605  0.0103  0.9931  3.1093
  140MOL0     H18468   4.792   0.369  11.015  0.7976 -0.8529 -1.0613
  140MOL0     H18469   5.001   0.247  10.990 -3.6885 -0.2547 -1.1855
  140MOL0     H18470   5.138   0.050  11.092  0.7113 -0.7408  0.8790
  140MOL0     H18471   5.298   0.056  11.160 -0.7015 -1.5017 -1.2710
  140MOL0     H18472   5.218   0.225  10.914  0.6176  0.4808 -1.3751
  140MOL0     H18473   5.385   0.210  10.992  0.3479 -2.1484  2.1922
  140MOL0     H18474   5.390  -0.026  10.928  0.0703 -1.6907 -2.5962
  140MOL0     H18475   5.372   0.074  10.789  0.5382 -0.2241  0.6660
  140MOL0     H18476   5.236  -0.102  10.753 -1.0427  0.4730 -0.9600
  140MOL0     H18477   5.157  -0.080  10.907 -1.3689 -0.9248 -1.1835
  140MOL0     H18478   4.925   0.177  10.660  0.1800 -1.7655 -2.0731
  140MOL0     H18479   5.075   0.306  11.422 -0.0383 -1.9478 -0.5577
  140MOL0     H18480   4.866   0.390  11.452  1.6079 -2.2221  0.8037
  141MOL0     O18481   7.412   5.052   5.769 -0.4186  0.3392  0.5381
  141MOL0     C18482   7.411   5.083   5.645 -0.0243  0.0268 -0.0475
  141MOL0     O18483   7.311   5.074   5.560  0.2307 -0.0642  0.4258
  141MOL0     C18484   7.184   5.059   5.603  0.1969  0.8117 -0.6811
  141MOL0     C18485   7.138   4.947   5.680  0.9797 -0.5788 -0.6967
  141MOL0     C18486   6.996   4.937   5.703 -0.1407  0.1716  0.1585
  141MOL0     C18487   6.903   5.039   5.673 -0.5950  0.2703 -0.3032
  141MOL0     O18488   6.775   5.008   5.702  0.3003 -0.3158  0.1396
  141MOL0     C18489   6.672   5.106   5.646 -0.5080  0.8856  0.0610
  141MOL0     C18490   6.527   5.045   5.644 -0.4292  0.2654  0.5053
  141MOL0     C18491   6.445   5.109   5.523 -0.1691 -0.0659  0.4642
  141MOL0     C18492   6.300   5.045   5.524 -1.1480 -1.5208  0.0755
  141MOL0     C18493   6.286   4.912   5.452 -0.3995  0.5557  0.5784
  141MOL0     C18494   6.141   4.855   5.445 -0.5806 -0.1387  0.3956
  141MOL0     C18495   6.042   4.953   5.399  0.0294 -0.6500 -0.1774
  141MOL0     C18496   5.912   4.881   5.375 -0.3290 -0.3514 -1.0386
  141MOL0     N18497   5.855   4.810   5.495  0.1791 -0.0176 -0.5969
  141MOL0     C18498   5.748   4.848   5.576  0.0810 -0.8082 -0.1515
  141MOL0     C18499   5.736   4.743   5.659 -0.2889 -0.7553 -0.2896
  141MOL0     C18500   5.629   4.724   5.766 -0.3850 -0.2325 -0.9017
  141MOL0     C18501   5.479   4.704   5.718  0.1214  0.4779 -0.0587
  141MOL0     C18502   5.407   4.838   5.705  0.2324 -0.2519  0.3016
  141MOL0     C18503   5.256   4.818   5.694  0.1883 -0.4351 -0.5697
  141MOL0     O18504   5.209   4.755   5.811 -0.3783 -0.4234 -1.0291
  141MOL0     C18505   5.074   4.745   5.835  0.7070 -0.6317  0.0614
  141MOL0     C18506   4.971   4.783   5.751  0.3571  0.0597 -0.7531
  141MOL0     C18507   4.833   4.773   5.784 -1.1794 -0.6257  0.3671
  141MOL0     C18508   4.797   4.712   5.902 -0.6662 -0.2267  0.7784
  141MOL0     C18509   4.655   4.685   5.934  0.0344 -0.1036 -0.4017
  141MOL0     O18510   4.626   4.638   6.056  0.3556 -0.8002  0.2905
  141MOL0     C18511   4.496   4.598   6.078 -0.5341  0.2473  0.1322
  141MOL0     C18512   4.468   4.462   6.061  0.2228  0.0026 -0.2876
  141MOL0     C18513   4.334   4.416   6.084  0.3436 -0.5431  0.3669
  141MOL0     C18514   4.235   4.514   6.113  0.2738  0.1451 -0.4236
  141MOL0     O18515   4.107   4.465   6.128 -0.1868 -0.2958 -0.5775
  141MOL0     C18516   4.043   4.490   6.253 -0.2290  0.2205 -0.3813
  141MOL0     C18517   3.932   4.392   6.282 -0.3539 -0.4622 -0.4275
  141MOL0     C18518   3.969   4.249   6.262  0.3629 -0.0607 -0.1949
  141MOL0     C18519   3.870   4.154   6.316  0.5590  0.6094 -0.5922
  141MOL0     C18520   3.873   4.023   6.236 -0.4664 -0.8714  0.0008
  141MOL0     C18521   3.737   3.957   6.268 -0.6623  0.0389  0.3211
  141MOL0     C18522   3.738   3.823   6.198 -0.1274  0.5914  1.6951
  141MOL0     C18523   3.605   3.743   6.202  0.8444  0.2299  0.2220
  141MOL0    Cl18524   3.610   3.616   6.087 -0.0493 -0.0941  0.3019
  141MOL0     C18525   4.277   4.644   6.143  1.6915 -0.2983  0.1407
  141MOL0     C18526   4.404   4.693   6.118 -0.2171 -0.1134 -0.5085
  141MOL0     O18527   4.572   4.694   5.842  0.4564 -0.0649 -0.3818
  141MOL0     C18528   4.899   4.659   5.988  0.4949 -0.3175  0.9427
  141MOL0     C18529   5.031   4.684   5.956 -0.6573 -0.9242 -1.3760
  141MOL0     N18530   5.827   4.644   5.635  0.8194 -0.9271  0.7843
  141MOL0     N18531   5.883   4.677   5.525 -0.5426 -0.5994 -0.4022
  141MOL0     C18532   6.957   5.142   5.583  0.2097 -0.6877 -0.3524
  141MOL0     C18533   7.093   5.149   5.555 -0.4536  0.3105  0.1943
  141MOL0     C18534   7.546   5.119   5.599 -0.3353  0.3921  0.2949
  141MOL0     C18535   7.666   5.105   5.675 -0.3969  0.5124 -0.1390
  141MOL0     C18536   7.793   5.153   5.636  0.5791 -0.2335  0.2209
  141MOL0     C18537   7.801   5.220   5.516 -0.7035 -0.2161 -0.1418
  141MOL0     O18538   7.920   5.273   5.483 -0.7200  0.1683  0.3908
  141MOL0     C18539   7.989   5.231   5.364 -0.4107  1.0147  0.3153
  141MOL0     C18540   7.978   5.322   5.243 -0.0500 -0.4283 -0.4915
  141MOL0     C18541   8.003   5.476   5.260  0.3912  0.8217 -1.5593
  141MOL0     C18542   8.123   5.494   5.343 -0.9698 -1.0211 -0.7405
  141MOL0     C18543   8.159   5.640   5.336 -0.2668  0.0796 -0.0492
  141MOL0     C18544   8.163   5.765   5.318  0.5696  0.3159  0.0271
  141MOL0     C18545   7.685   5.234   5.441 -0.6581  0.0432  0.0674
  141MOL0     C18546   7.559   5.185   5.473  0.7400  0.6901 -0.6443
  141MOL0     H18547   7.207   4.869   5.708 -0.4996 -1.4656  0.6185
  141MOL0     H18548   6.954   4.854   5.759  2.2480  0.1367  2.0675
  141MOL0     H18549   6.708   5.139   5.548  3.7040 -0.6117  0.8436
  141MOL0     H18550   6.672   5.194   5.710  2.5615 -0.8687  2.8142
  141MOL0     H18551   6.477   5.066   5.739  0.4341  1.0891  0.8043
  141MOL0     H18552   6.524   4.937   5.634  1.1778 -0.0006  2.3262
  141MOL0     H18553   6.504   5.103   5.431  3.6565  1.9503  2.5490
  141MOL0     H18554   6.426   5.214   5.549  1.4127 -0.6009  4.4939
  141MOL0     H18555   6.262   5.054   5.626 -0.7300  0.6277  0.1046
  141MOL0     H18556   6.248   5.125   5.470  1.4277  0.6161  0.5562
  141MOL0     H18557   6.341   4.838   5.510  0.6832  3.7044  4.0169
  141MOL0     H18558   6.328   4.920   5.352  0.5804  1.3593  1.0377
  141MOL0     H18559   6.113   4.833   5.548  0.8302 -2.2247  0.4022
  141MOL0     H18560   6.146   4.772   5.374 -0.0121 -0.4605  0.8016
  141MOL0     H18561   6.022   5.031   5.473  0.7703 -1.0537  0.4625
  141MOL0     H18562   6.082   5.005   5.311 -0.3773  0.7817  0.4491
  141MOL0     H18563   5.925   4.816   5.288  2.9664  1.8913 -2.4029
  141MOL0     H18564   5.838   4.956   5.346 -1.6234 -1.5832 -1.0452
  141MOL0     H18565   5.695   4.943   5.571  1.5015  0.3306  3.1229
  141MOL0     H18566   5.635   4.814   5.828  1.0516 -1.2170  0.4719
  141MOL0     H18567   5.662   4.656   5.845 -0.9695  0.5648  0.0458
  141MOL0     H18568   5.417   4.644   5.785  0.7873 -0.9405 -0.6777
  141MOL0     H18569   5.489   4.654   5.622  0.6503  0.6171 -0.0791
  141MOL0     H18570   5.420   4.894   5.798 -2.1808 -1.8184  1.6889
  141MOL0     H18571   5.445   4.901   5.624  0.7799 -1.2138 -0.2087
  141MOL0     H18572   5.230   4.756   5.608 -0.4877  0.7651 -1.2516
  141MOL0     H18573   5.204   4.912   5.675  0.0024 -0.8641 -2.3480
  141MOL0     H18574   4.996   4.834   5.659 -1.2910 -2.1773 -2.5643
  141MOL0     H18575   4.760   4.815   5.715 -0.4879 -0.7082 -0.4329
  141MOL0     H18576   4.539   4.386   6.030 -0.6988 -0.3799 -1.5448
  141MOL0     H18577   4.338   4.308   6.088  2.8545 -0.5280  0.0913
  141MOL0     H18578   4.003   4.591   6.256  0.5006  0.4911  0.6468
  141MOL0     H18579   4.114   4.483   6.336 -0.9692 -0.8246  0.1756
  141MOL0     H18580   3.855   4.420   6.209  2.4458 -1.8047 -4.2183
  141MOL0     H18581   3.890   4.413   6.381  1.5415  1.3618  0.0645
  141MOL0     H18582   4.066   4.235   6.310  2.6443 -0.0262 -4.3328
  141MOL0     H18583   3.979   4.241   6.154  0.9037 -2.4197 -0.0182
  141MOL0     H18584   3.895   4.126   6.419  1.0396  0.8737 -0.6338
  141MOL0     H18585   3.765   4.185   6.310 -0.5270 -2.9711 -2.3891
  141MOL0     H18586   3.962   3.965   6.263  0.6003  0.6768 -0.0820
  141MOL0     H18587   3.878   4.047   6.129  2.3507 -0.7584  0.1055
  141MOL0     H18588   3.648   4.017   6.248  0.1969  1.0109 -0.6948
  141MOL0     H18589   3.726   3.940   6.376 -1.2514  0.1961  0.2880
  141MOL0     H18590   3.767   3.830   6.093 -1.0697 -1.4993  1.2344
  141MOL0     H18591   3.815   3.767   6.252  0.5780  1.2214  1.3523
  141MOL0     H18592   3.514   3.801   6.184 -0.4308 -0.9635  2.3700
  141MOL0     H18593   3.586   3.693   6.298  2.4950 -0.6404  0.1449
  141MOL0     H18594   4.195   4.714   6.154  2.8584  1.5837 -2.1329
  141MOL0     H18595   4.420   4.800   6.123 -0.6152 -0.0955  0.4732
  141MOL0     H18596   4.878   4.624   6.088  2.5120 -0.1637  1.4675
  141MOL0     H18597   5.113   4.668   6.025 -2.1621  2.6813  1.5629
  141MOL0     H18598   6.883   5.211   5.543 -0.3389 -1.1875 -0.2250
  141MOL0     H18599   7.130   5.222   5.484  0.0077 -1.0030 -0.9626
  141MOL0     H18600   7.654   5.057   5.772  1.6245  0.9785  0.3948
  141MOL0     H18601   7.884   5.157   5.695  2.1236  2.0688 -2.0972
  141MOL0     H18602   7.960   5.128   5.345  0.7447  0.2494  2.3345
  141MOL0     H18603   8.096   5.213   5.382 -0.8041 -2.1746 -0.0093
  141MOL0     H18604   8.049   5.284   5.170  0.8931  1.8248 -0.8317
  141MOL0     H18605   7.883   5.300   5.192  0.4097 -0.0637 -1.5336
  141MOL0     H18606   7.925   5.525   5.319  0.0961 -0.2824 -0.9954
  141MOL0     H18607   8.024   5.524   5.164  3.5672  3.1033  0.0639
  141MOL0     H18608   8.098   5.483   5.449  1.4587  1.2701  0.1963
  141MOL0     H18609   8.211   5.432   5.323 -1.1914 -1.1075 -1.4730
  141MOL0     H18610   8.161   5.872   5.316 -2.7161  0.3623 -1.8351
  141MOL0     H18611   7.705   5.310   5.367  4.7121 -1.2828 -0.2736
  141MOL0     H18612   7.475   5.217   5.413 -0.2008 -0.0560  0.2456
  142MOL0     O18613   9.672   4.088   5.328  0.8881 -0.4213  0.3023
  142MOL0     C18614   9.717   3.975   5.304  0.4926  0.3375  0.4252
  142MOL0     O18615   9.652   3.857   5.346 -0.6343 -0.3594  0.0601
  142MOL0     C18616   9.528   3.857   5.406  0.8041  1.1587  0.2173
  142MOL0     C18617   9.505   3.779   5.520  0.4187  0.7379  0.6176
  142MOL0     C18618   9.372   3.757   5.570 -0.0877  0.5135  0.0725
  142MOL0     C18619   9.267   3.825   5.506  0.1413  0.0408 -0.5538
  142MOL0     O18620   9.134   3.798   5.534  0.5243  0.5719 -0.6344
  142MOL0     C18621   9.089   3.669   5.581 -0.3149  0.3045 -0.3604
  142MOL0     C18622   8.944   3.682   5.611  0.2619 -0.0599  0.1112
  142MOL0     C18623   8.889   3.544   5.637  0.1392  0.0517 -0.6363
  142MOL0     C18624   8.757   3.556   5.716  0.0141 -0.9036 -0.0550
  142MOL0     C18625   8.692   3.421   5.744  1.2273 -0.1059 -0.2511
  142MOL0     C18626   8.563   3.443   5.830  0.7258 -0.5025 -0.2416
  142MOL0     C18627   8.444   3.472   5.742 -0.5876  0.1015  0.3653
  142MOL0     C18628   8.317   3.384   5.741 -0.5184  0.3267  0.9927
  142MOL0     N18629   8.246   3.385   5.866 -0.4377 -0.6141  0.4262
  142MOL0     C18630   8.180   3.278   5.932 -0.6994 -0.6342 -0.2650
  142MOL0     C18631   8.122   3.336   6.038  0.3094 -0.6973 -0.2583
  142MOL0     C18632   8.038   3.273   6.146  1.1726  0.1578 -0.2708
  142MOL0     C18633   8.110   3.231   6.279 -0.0586  0.1843  0.2933
  142MOL0     C18634   8.107   3.343   6.379 -1.2451  0.2691 -0.8170
  142MOL0     C18635   7.968   3.363   6.438 -0.7254  0.4707  0.2564
  142MOL0     O18636   7.994   3.482   6.514  0.4722  0.1916  0.8770
  142MOL0     C18637   7.909   3.504   6.627  0.5558 -0.0813  0.3225
  142MOL0     C18638   7.793   3.436   6.652 -0.0564  0.2778 -0.3966
  142MOL0     C18639   7.723   3.458   6.761 -0.0547 -0.6778 -0.9410
  142MOL0     C18640   7.759   3.562   6.861  0.2732 -0.4331  0.4540
  142MOL0     C18641   7.655   3.612   6.964 -1.5570 -0.6825 -0.6798
  142MOL0     O18642   7.550   3.541   6.968  0.2134  0.7406 -0.1038
  142MOL0     C18643   7.466   3.562   7.085 -0.6176  0.2305  0.4629
  142MOL0     C18644   7.331   3.538   7.063  0.5364 -0.0315  0.4913
  142MOL0     C18645   7.236   3.550   7.158 -0.6955  0.4442  0.0561
  142MOL0     C18646   7.280   3.582   7.283 -0.8087  0.3592  0.4968
  142MOL0     O18647   7.181   3.609   7.369 -0.1413  0.5982  0.2429
  142MOL0     C18648   7.178   3.543   7.490  0.4799  0.4411 -0.7695
  142MOL0     C18649   7.046   3.539   7.559  1.0149  0.4809 -0.1715
  142MOL0     C18650   7.002   3.675   7.623 -0.0889  0.3616 -0.3288
  142MOL0     C18651   6.854   3.672   7.648 -0.4915  0.1025  0.3405
  142MOL0     C18652   6.808   3.809   7.698  0.4095 -0.1659  0.6026
  142MOL0     C18653   6.655   3.793   7.707  1.2505 -0.2556 -0.4974
  142MOL0     C18654   6.609   3.913   7.774  0.6734 -0.0457  0.2687
  142MOL0     C18655   6.456   3.903   7.775 -0.1084 -0.5301  0.0358
  142MOL0    Cl18656   6.387   3.939   7.611 -0.0552  0.0494 -0.2617
  142MOL0     C18657   7.415   3.601   7.313 -0.6482  1.0103 -0.3652
  142MOL0     C18658   7.504   3.590   7.214 -0.0346  0.3678 -0.6056
  142MOL0     O18659   7.680   3.722   7.021  0.5974  0.6499  0.1275
  142MOL0     C18660   7.874   3.638   6.824  0.2791 -0.4628 -0.4934
  142MOL0     C18661   7.945   3.602   6.712 -0.9734 -0.3425 -0.0361
  142MOL0     N18662   8.149   3.473   6.047 -0.3735  0.7345  0.3346
  142MOL0     N18663   8.227   3.500   5.940 -0.5604  1.3020  0.6546
  142MOL0     C18664   9.297   3.913   5.402 -0.4224 -1.4499  0.4369
  142MOL0     C18665   9.427   3.930   5.352  0.5224 -0.1742 -0.4646
  142MOL0     C18666   9.838   3.962   5.220  0.1844 -0.6928  0.2163
  142MOL0     C18667   9.922   3.847   5.226  0.5904  0.3592 -0.1445
  142MOL0     C18668  10.025   3.843   5.139 -0.6332  0.3415 -0.4983
  142MOL0     C18669  10.067   3.951   5.060 -0.0968 -0.0103  0.3389
  142MOL0     O18670  10.179   3.944   4.988  0.6167  0.3049 -0.0528
  142MOL0     C18671  10.280   4.042   5.012 -0.5186 -0.8930 -0.2501
  142MOL0     C18672  10.419   3.979   4.981 -0.3524 -1.6122  1.0067
  142MOL0     C18673  10.467   3.884   5.092 -0.6710 -0.2914 -0.1175
  142MOL0     C18674  10.602   3.816   5.052  0.5167  0.0940  0.3043
  142MOL0     C18675  10.575   3.718   4.942 -0.4151  0.3948  0.6210
  142MOL0     C18676  10.557   3.623   4.871  0.4865  0.2854 -0.0341
  142MOL0     C18677   9.986   4.070   5.056  0.9517 -0.1982  0.4425
  142MOL0     C18678   9.863   4.067   5.127 -0.5944  0.5973  0.5629
  142MOL0     H18679   9.586   3.708   5.535 -0.0777 -0.4073 -1.7289
  142MOL0     H18680   9.361   3.694   5.658  0.0082 -0.8639 -0.8661
  142MOL0     H18681   9.154   3.656   5.668 -0.0968 -1.2455 -0.7306
  142MOL0     H18682   9.117   3.593   5.508 -1.0085 -0.3124  0.0120
  142MOL0     H18683   8.888   3.726   5.529 -1.4860 -0.3839  1.0868
  142MOL0     H18684   8.937   3.753   5.694  2.2863 -0.0260  0.2977
  142MOL0     H18685   8.950   3.478   5.700  2.1214 -1.8463 -4.2227
  142MOL0     H18686   8.869   3.492   5.544 -0.7106 -2.8908  1.0587
  142MOL0     H18687   8.776   3.611   5.809 -3.6496  1.7987 -0.7323
  142MOL0     H18688   8.687   3.621   5.665  0.8953 -0.8927 -1.3090
  142MOL0     H18689   8.767   3.372   5.808  0.9944  1.1178  1.0163
  142MOL0     H18690   8.669   3.358   5.658  0.2314 -1.9133  1.2721
  142MOL0     H18691   8.580   3.521   5.905  1.3997 -0.6361 -0.2466
  142MOL0     H18692   8.556   3.348   5.885  0.7926  0.2448  1.1005
  142MOL0     H18693   8.415   3.576   5.762 -2.3196 -0.1648 -0.5042
  142MOL0     H18694   8.481   3.474   5.639 -0.0607  3.6299  0.4763
  142MOL0     H18695   8.357   3.283   5.735  2.7673  1.5420  0.4040
  142MOL0     H18696   8.250   3.395   5.655 -2.4515 -3.4032  1.8094
  142MOL0     H18697   8.175   3.172   5.911  0.9255 -0.7232 -0.3386
  142MOL0     H18698   8.006   3.180   6.098 -0.8245  1.3175 -1.3200
  142MOL0     H18699   7.945   3.327   6.164  1.2966 -0.0003  0.9304
  142MOL0     H18700   8.214   3.205   6.256 -0.4534  0.5419 -2.1403
  142MOL0     H18701   8.062   3.147   6.329  0.8258  1.0680  2.7642
  142MOL0     H18702   8.172   3.309   6.460  0.0740  1.4156 -1.3494
  142MOL0     H18703   8.139   3.439   6.336 -2.2257  1.7246  1.4526
  142MOL0     H18704   7.951   3.276   6.503 -1.0156 -0.1986 -0.7040
  142MOL0     H18705   7.891   3.371   6.362 -0.5604  1.0856  0.1538
  142MOL0     H18706   7.748   3.359   6.590 -0.4348  1.3617 -1.4888
  142MOL0     H18707   7.637   3.396   6.786 -1.2544  1.0853 -0.5351
  142MOL0     H18708   7.308   3.525   6.957  1.0265 -0.0091  0.3798
  142MOL0     H18709   7.129   3.541   7.148 -0.7419  0.7198  0.2633
  142MOL0     H18710   7.256   3.592   7.550 -1.6333  1.9856  0.8485
  142MOL0     H18711   7.207   3.438   7.478 -1.0901 -0.0166 -0.6938
  142MOL0     H18712   7.055   3.456   7.629  1.3948  0.9770  0.3815
  142MOL0     H18713   6.969   3.509   7.488  2.9977 -1.8281 -1.5001
  142MOL0     H18714   7.013   3.752   7.546 -1.9404  1.2824  0.2570
  142MOL0     H18715   7.062   3.696   7.712 -0.1232 -4.2469  1.0437
  142MOL0     H18716   6.810   3.648   7.551 -1.3835 -0.4740  0.8739
  142MOL0     H18717   6.828   3.596   7.722  0.9148 -0.8545 -0.1061
  142MOL0     H18718   6.831   3.889   7.626 -2.2532  0.5387  0.4184
  142MOL0     H18719   6.852   3.833   7.796 -1.8296  2.5369  1.0821
  142MOL0     H18720   6.626   3.709   7.770 -0.1223  0.3730 -0.2623
  142MOL0     H18721   6.613   3.780   7.607 -1.5410 -0.3734  0.6075
  142MOL0     H18722   6.661   3.917   7.870  3.5535 -2.1653 -1.0667
  142MOL0     H18723   6.638   4.005   7.722  2.5337  0.8672  2.7172
  142MOL0     H18724   6.416   3.981   7.841 -0.9303 -2.3522  1.8071
  142MOL0     H18725   6.427   3.808   7.821 -0.0115  0.6614  2.7358
  142MOL0     H18726   7.446   3.620   7.416  0.8059 -2.3209 -0.0472
  142MOL0     H18727   7.602   3.609   7.258  0.2098  1.5379 -1.5884
  142MOL0     H18728   7.915   3.719   6.884 -0.3876 -0.9264  0.6069
  142MOL0     H18729   8.029   3.662   6.680 -1.0732  0.8591  1.7645
  142MOL0     H18730   9.207   3.952   5.356  0.3523 -0.2991 -0.1381
  142MOL0     H18731   9.439   4.003   5.273  0.6731  1.1192  0.7113
  142MOL0     H18732   9.902   3.768   5.298 -1.0338 -0.2295 -1.1742
  142MOL0     H18733  10.092   3.758   5.152  0.4051  1.3991  1.5317
  142MOL0     H18734  10.284   4.078   5.116 -4.9955 -0.7180  0.0634
  142MOL0     H18735  10.270   4.123   4.939  0.0350 -0.0131  0.6203
  142MOL0     H18736  10.398   3.930   4.885  0.1571  0.8343 -0.4502
  142MOL0     H18737  10.502   4.048   4.962 -2.1668  0.2731 -0.7022
  142MOL0     H18738  10.389   3.810   5.108  1.9476 -3.5902 -1.3043
  142MOL0     H18739  10.486   3.943   5.182 -2.2935 -0.1803  0.1739
  142MOL0     H18740  10.670   3.895   5.021  0.0855  0.3862  0.0926
  142MOL0     H18741  10.641   3.769   5.143  0.2356  0.5449  0.6611
  142MOL0     H18742  10.561   3.552   4.790 -1.5019 -2.5025  2.1190
  142MOL0     H18743  10.015   4.152   4.991 -0.2709 -0.3302 -0.3044
  142MOL0     H18744   9.803   4.157   5.114  2.7544  3.0807  0.7351
  143MOL0     O18745   1.282   4.984   8.912  0.2713  0.4551  0.3339
  143MOL0     C18746   1.316   4.894   8.836  0.0019 -0.8787 -0.0628
  143MOL0     O18747   1.442   4.851   8.821 -0.7813  0.5410 -0.9633
  143MOL0     C18748   1.537   4.931   8.894  0.2244 -0.1894 -0.5756
  143MOL0     C18749   1.573   4.887   9.017  0.2391 -0.2270 -0.7563
  143MOL0     C18750   1.658   4.961   9.096 -0.2177 -0.7563 -1.1365
  143MOL0     C18751   1.709   5.081   9.052  0.8188  0.2114 -0.9329
  143MOL0     O18752   1.801   5.151   9.133 -0.5961  0.2735 -0.0847
  143MOL0     C18753   1.810   5.298   9.124  0.8618 -0.0052 -0.7485
  143MOL0     C18754   1.873   5.358   9.248 -0.7903 -0.6021  0.5496
  143MOL0     C18755   1.968   5.478   9.218 -0.3106  0.2341 -0.3499
  143MOL0     C18756   2.107   5.430   9.172 -1.3126 -0.3540  0.0186
  143MOL0     C18757   2.175   5.320   9.238 -0.0057  0.8463 -0.5389
  143MOL0     C18758   2.192   5.357   9.393  1.1769  0.6310  0.6486
  143MOL0     C18759   2.273   5.240   9.453  0.3215 -0.6127 -0.1696
  143MOL0     C18760   2.302   5.262   9.597 -0.4239  0.1179 -0.9588
  143MOL0     N18761   2.197   5.251   9.702 -0.0804 -0.0153 -0.0847
  143MOL0     C18762   2.084   5.170   9.680  0.9870  0.6154 -0.1557
  143MOL0     C18763   1.981   5.220   9.760  0.4659 -0.4349  0.1922
  143MOL0     C18764   1.848   5.150   9.778  0.4908 -0.2198 -0.5356
  143MOL0     C18765   1.731   5.254   9.790 -0.6982  0.2089 -0.4851
  143MOL0     C18766   1.696   5.306   9.656  0.4864 -0.5832  0.1276
  143MOL0     C18767   1.559   5.368   9.664 -0.5358  0.1042  0.3784
  143MOL0     O18768   1.514   5.408   9.532 -0.3957 -0.4293  0.6682
  143MOL0     C18769   1.567   5.511   9.464  0.6639 -0.6389  0.9890
  143MOL0     C18770   1.576   5.491   9.322 -0.2991 -0.9730 -0.4157
  143MOL0     C18771   1.628   5.594   9.240 -0.1483  0.5161  0.2491
  143MOL0     C18772   1.667   5.719   9.295  0.2766  0.4219  0.5240
  143MOL0     C18773   1.725   5.811   9.201  0.1864  0.7316  0.4677
  143MOL0     O18774   1.677   5.822   9.076 -0.2414 -0.1848 -0.4523
  143MOL0     C18775   1.689   5.941   9.006  0.4730  0.7025 -0.2004
  143MOL0     C18776   1.684   5.947   8.866  0.8055  0.1080  0.4480
  143MOL0     C18777   1.702   6.064   8.796 -0.6687  0.7699  0.1864
  143MOL0     C18778   1.714   6.187   8.866 -0.1418 -0.4502  0.0097
  143MOL0     O18779   1.727   6.309   8.799  0.4548  0.4961 -0.8832
  143MOL0     C18780   1.715   6.433   8.880  0.5122  0.2751 -0.3366
  143MOL0     C18781   1.738   6.554   8.779 -0.1526  0.1719 -0.1234
  143MOL0     C18782   1.877   6.614   8.779 -0.0324  0.4211 -0.1394
  143MOL0     C18783   1.889   6.707   8.661 -0.7465 -0.3683  0.0355
  143MOL0     C18784   1.824   6.845   8.675  0.4740 -0.6603 -0.4286
  143MOL0     C18785   1.891   6.950   8.581  0.2552  0.7827 -1.0385
  143MOL0     C18786   2.018   7.015   8.639 -0.9445 -0.3907 -0.2707
  143MOL0     C18787   2.030   7.173   8.598 -0.1014  0.6841 -0.8676
  143MOL0    Cl18788   2.002   7.189   8.431  0.0571 -0.0654 -0.2021
  143MOL0     C18789   1.707   6.180   9.005 -0.3842  0.0937  0.8714
  143MOL0     C18790   1.697   6.063   9.077  0.0052 -0.7592 -0.3387
  143MOL0     O18791   1.823   5.865   9.250 -0.5171 -0.7572 -0.0897
  143MOL0     C18792   1.674   5.731   9.435 -0.0737  0.1214  0.1898
  143MOL0     C18793   1.625   5.630   9.518 -0.4885 -0.3219 -0.3179
  143MOL0     N18794   2.025   5.339   9.814  0.7063 -0.2579  0.0840
  143MOL0     N18795   2.153   5.359   9.781  0.5220  0.4418 -0.3670
  143MOL0     C18796   1.658   5.137   8.937  0.3500 -0.8983  0.0555
  143MOL0     C18797   1.574   5.064   8.852 -0.2566 -0.8433 -0.6168
  143MOL0     C18798   1.214   4.832   8.747  0.2263 -0.1240 -0.0343
  143MOL0     C18799   1.079   4.861   8.759 -0.5524 -0.1511 -0.5083
  143MOL0     C18800   0.987   4.795   8.693  1.3530 -0.7095  0.3947
  143MOL0     C18801   1.013   4.686   8.614 -1.5187  0.1416  0.0539
  143MOL0     O18802   0.929   4.592   8.574  0.1775  0.8229  0.4190
  143MOL0     C18803   0.786   4.599   8.599 -0.2540  0.2303 -0.8555
  143MOL0     C18804   0.714   4.693   8.502  0.5983  0.0199 -0.1740
  143MOL0     C18805   0.566   4.682   8.521  1.2610  0.0021  0.3969
  143MOL0     C18806   0.526   4.800   8.597  0.1630 -0.3491  0.0604
  143MOL0     C18807   0.379   4.802   8.637  1.2747 -0.6991  0.3823
  143MOL0     C18808   0.257   4.813   8.636  0.3537 -0.0970 -0.4707
  143MOL0     C18809   1.148   4.661   8.602  0.6521 -0.9682  0.7904
  143MOL0     C18810   1.254   4.731   8.658 -0.6138  0.1557 -1.3890
  143MOL0     H18811   1.536   4.788   9.041  0.0318 -0.0155 -0.1713
  143MOL0     H18812   1.699   4.918   9.187 -0.1190  0.7331 -0.4571
  143MOL0     H18813   1.709   5.338   9.115  1.2221  0.8277 -1.2190
  143MOL0     H18814   1.863   5.334   9.035 -0.1954 -0.2376 -1.4873
  143MOL0     H18815   1.920   5.278   9.306  0.3515  1.2456  2.3109
  143MOL0     H18816   1.798   5.393   9.320 -0.3344 -0.8593  1.1598
  143MOL0     H18817   1.984   5.543   9.305 -1.1005  2.5818 -1.8755
  143MOL0     H18818   1.908   5.542   9.153  0.1780  0.9050 -0.1498
  143MOL0     H18819   2.109   5.431   9.063  3.8584 -1.3425 -0.1121
  143MOL0     H18820   2.184   5.505   9.189  0.7709 -2.5770  0.9621
  143MOL0     H18821   2.266   5.296   9.183 -1.6041 -0.4853 -2.7750
  143MOL0     H18822   2.116   5.232   9.210 -1.6903  1.9021 -0.4912
  143MOL0     H18823   2.100   5.370   9.451  0.3266  0.1614 -0.5601
  143MOL0     H18824   2.255   5.446   9.391  1.3579  0.4891 -0.3013
  143MOL0     H18825   2.216   5.150   9.432 -0.9357  0.1927 -0.3530
  143MOL0     H18826   2.366   5.244   9.397  0.4129  0.8428  0.0445
  143MOL0     H18827   2.348   5.358   9.622  0.7841  0.0060 -2.6688
  143MOL0     H18828   2.377   5.189   9.627 -1.5660 -0.7444 -0.0777
  143MOL0     H18829   2.077   5.084   9.614  0.8195 -0.6440  1.4390
  143MOL0     H18830   1.850   5.107   9.879 -1.7850 -1.0554 -0.8117
  143MOL0     H18831   1.837   5.069   9.707  1.3670  0.9168 -2.0276
  143MOL0     H18832   1.755   5.338   9.855  0.3557  0.1907 -0.8305
  143MOL0     H18833   1.643   5.202   9.828  0.0883 -1.0154 -0.2669
  143MOL0     H18834   1.770   5.379   9.622 -1.4653  1.4608  0.0561
  143MOL0     H18835   1.701   5.231   9.577  2.7696  1.0962 -1.4485
  143MOL0     H18836   1.563   5.452   9.734  3.9761 -1.8575  2.9274
  143MOL0     H18837   1.483   5.296   9.698 -0.8771  0.8399  1.2176
  143MOL0     H18838   1.539   5.399   9.277 -1.8179 -0.7801  0.3934
  143MOL0     H18839   1.643   5.573   9.135  1.1342 -3.4943  1.0490
  143MOL0     H18840   1.658   5.860   8.807 -2.1390  0.1826  1.4872
  143MOL0     H18841   1.694   6.061   8.688 -1.1018 -0.2250  0.2282
  143MOL0     H18842   1.794   6.438   8.956  0.4038  1.8742 -0.3002
  143MOL0     H18843   1.614   6.438   8.921  0.9927  1.3447  0.7957
  143MOL0     H18844   1.662   6.629   8.804 -1.7015 -0.4570 -2.5676
  143MOL0     H18845   1.713   6.514   8.680  3.7476 -0.7025 -0.9287
  143MOL0     H18846   1.955   6.537   8.769 -0.8075 -0.2556 -1.2103
  143MOL0     H18847   1.899   6.664   8.874 -1.1190 -0.3124  0.5285
  143MOL0     H18848   1.995   6.733   8.654 -1.1894  2.3808  1.7722
  143MOL0     H18849   1.872   6.666   8.561  4.2840 -1.3652 -0.6647
  143MOL0     H18850   1.810   6.882   8.777  0.7736 -0.8784 -0.3069
  143MOL0     H18851   1.718   6.838   8.650 -0.2268 -0.5745  2.2694
  143MOL0     H18852   1.811   7.016   8.546 -1.5792  0.4075  2.0495
  143MOL0     H18853   1.907   6.892   8.490 -3.0465 -4.7203  1.3076
  143MOL0     H18854   2.005   7.012   8.748  0.2890  1.3514 -0.0382
  143MOL0     H18855   2.108   6.959   8.612 -1.3413 -2.3584  2.0558
  143MOL0     H18856   2.133   7.208   8.610 -0.0278  0.1065  0.3114
  143MOL0     H18857   1.961   7.233   8.657  0.6658  0.5502  0.1978
  143MOL0     H18858   1.704   6.260   9.078  2.6767 -0.2270  1.4619
  143MOL0     H18859   1.712   6.073   9.184  1.2971  2.2618 -0.6918
  143MOL0     H18860   1.710   5.830   9.459 -1.2182  0.3692  0.9808
  143MOL0     H18861   1.629   5.649   9.624 -0.5255  0.3124 -0.4235
  143MOL0     H18862   1.681   5.239   8.907 -2.5461  0.3174  1.5362
  143MOL0     H18863   1.545   5.104   8.756 -2.4478 -1.1395 -0.1310
  143MOL0     H18864   1.037   4.937   8.824 -2.5300 -1.7421  0.2092
  143MOL0     H18865   0.882   4.804   8.719  0.7105 -1.0900 -1.8536
  143MOL0     H18866   0.765   4.618   8.705  2.2728 -1.6263  0.0870
  143MOL0     H18867   0.743   4.500   8.583 -0.8183  0.3972 -0.4046
  143MOL0     H18868   0.744   4.798   8.504 -1.1000  0.7256 -3.6840
  143MOL0     H18869   0.739   4.659   8.401  2.4023 -2.7860  1.1119
  143MOL0     H18870   0.540   4.589   8.572  1.3260 -0.9715 -1.2623
  143MOL0     H18871   0.512   4.675   8.426 -1.6019 -3.9289  2.0057
  143MOL0     H18872   0.571   4.820   8.695 -0.1564  2.1445 -0.2452
  143MOL0     H18873   0.551   4.888   8.538  2.2766 -0.3199  0.8940
  143MOL0     H18874   0.152   4.835   8.626  0.5190  0.3698 -1.1823
  143MOL0     H18875   1.180   4.581   8.536  0.9981 -2.0072  2.1706
  143MOL0     H18876   1.355   4.693   8.648 -0.2493  0.6420  0.1770
  144MOL0     O18877   9.548   9.482   9.009 -0.0928 -0.1231  0.2701
  144MOL0     C18878   9.585   9.529   9.116  0.3002  0.0192 -0.6494
  144MOL0     O18879   9.502   9.584   9.210 -0.2991  0.4808  0.1280
  144MOL0     C18880   9.374   9.618   9.182  0.7436 -0.0077 -0.9907
  144MOL0     C18881   9.330   9.674   9.062 -0.0876 -0.3856  0.3747
  144MOL0     C18882   9.202   9.713   9.041 -0.1139 -0.4210  0.9144
  144MOL0     C18883   9.107   9.688   9.128 -0.5369 -0.2147 -0.4869
  144MOL0     O18884   8.980   9.706   9.093  0.0122  0.4688 -0.7546
  144MOL0     C18885   8.889   9.773   9.193 -0.5385  0.4910 -0.6752
  144MOL0     C18886   8.749   9.755   9.156  0.2849 -0.7655 -0.2853
  144MOL0     C18887   8.709   9.823   9.018 -0.0008  0.4558 -0.8384
  144MOL0     C18888   8.671   9.970   9.032  0.3886  0.1966  0.1086
  144MOL0     C18889   8.557  10.005   9.141  0.2267  0.0047 -0.1443
  144MOL0     C18890   8.507  10.153   9.113 -0.1020 -0.2166 -0.0172
  144MOL0     C18891   8.403  10.182   9.220  0.0318  0.3250  1.1318
  144MOL0     C18892   8.264  10.141   9.173 -0.8353  0.5421 -0.9200
  144MOL0     N18893   8.176  10.180   9.278  0.3330 -0.2221 -0.0440
  144MOL0     C18894   8.110  10.298   9.275  0.4604 -0.7320 -0.1569
  144MOL0     C18895   7.982  10.272   9.315 -0.4408  0.2086  0.6035
  144MOL0     C18896   7.860  10.368   9.309 -0.9263  0.4594 -0.4129
  144MOL0     C18897   7.886  10.503   9.383  0.5295 -1.1757 -0.1068
  144MOL0     C18898   7.764  10.596   9.385  0.5226  0.4084 -0.0878
  144MOL0     C18899   7.718  10.649   9.245  0.5218  0.5075  0.5611
  144MOL0     O18900   7.621  10.753   9.267  0.1002  0.9976 -0.4045
  144MOL0     C18901   7.494  10.746   9.235 -0.4509 -1.1664 -0.1568
  144MOL0     C18902   7.423  10.621   9.239  0.1481  0.1091  0.4789
  144MOL0     C18903   7.285  10.612   9.244  0.2539  0.7192 -0.1515
  144MOL0     C18904   7.207  10.733   9.233  0.6324  0.3951 -1.1171
  144MOL0     C18905   7.056  10.733   9.243 -0.7727  0.7377 -0.7752
  144MOL0     O18906   6.985  10.849   9.235 -0.6319 -0.1788 -0.2503
  144MOL0     C18907   6.845  10.845   9.249 -0.0706  0.4773 -0.1234
  144MOL0     C18908   6.762  10.736   9.292 -0.3100  0.3329 -0.4880
  144MOL0     C18909   6.628  10.755   9.320 -0.2670  0.8438 -1.0396
  144MOL0     C18910   6.567  10.881   9.312 -0.1348  0.4476  0.0440
  144MOL0     O18911   6.441  10.906   9.354 -0.2708 -0.1852  0.3032
  144MOL0     C18912   6.336  10.809   9.334 -0.1118 -1.0280 -0.2120
  144MOL0     C18913   6.200  10.878   9.328 -0.4498 -0.0618 -1.0318
  144MOL0     C18914   6.087  10.775   9.292 -0.2040  0.8179 -0.2404
  144MOL0     C18915   5.960  10.825   9.335 -0.3142  0.6791  0.1188
  144MOL0     C18916   5.845  10.724   9.299  0.1354  1.0807 -0.1912
  144MOL0     C18917   5.724  10.781   9.367 -0.3315  0.7650  0.4896
  144MOL0     C18918   5.585  10.705   9.327 -0.0276 -0.0388 -0.5515
  144MOL0     C18919   5.479  10.793   9.265  0.4478 -0.1630  0.2619
  144MOL0    Cl18920   5.358  10.674   9.207  0.2001  0.0249 -0.1582
  144MOL0     C18921   6.641  10.988   9.270 -0.8491  0.2267  0.3512
  144MOL0     C18922   6.778  10.970   9.248  0.9205 -0.0227  0.6854
  144MOL0     O18923   7.012  10.621   9.257  0.6934  1.1412 -0.3406
  144MOL0     C18924   7.277  10.854   9.235 -0.1102  0.3717  0.2787
  144MOL0     C18925   7.418  10.862   9.237 -0.1850 -0.7379 -0.2116
  144MOL0     N18926   7.980  10.138   9.359 -0.2185  0.2094  0.0024
  144MOL0     N18927   8.096  10.088   9.341 -0.0486  0.1746  0.5464
  144MOL0     C18928   9.142   9.633   9.256  0.2575  0.2439  0.7005
  144MOL0     C18929   9.277   9.611   9.283 -0.0752  0.4666 -0.2302
  144MOL0     C18930   9.726   9.533   9.143 -0.7856  0.2303 -0.0251
  144MOL0     C18931   9.813   9.431   9.089  0.0027 -0.3599 -0.3909
  144MOL0     C18932   9.948   9.436   9.120  0.2990  0.2267 -0.1957
  144MOL0     C18933   9.995   9.522   9.217  0.9507  0.6532 -0.4139
  144MOL0     O18934  10.131   9.516   9.242 -0.6137  0.0541  0.3221
  144MOL0     C18935  10.196   9.597   9.344 -0.2620  0.2685  0.0284
  144MOL0     C18936  10.254   9.724   9.308 -0.3578 -0.4236  0.4648
  144MOL0     C18937  10.363   9.708   9.207  0.1959  0.4007  0.0117
  144MOL0     C18938  10.393   9.847   9.133  0.4166  0.5659  0.5442
  144MOL0     C18939  10.449   9.936   9.234  0.6335  1.2690 -0.5575
  144MOL0     C18940  10.491  10.005   9.321 -0.0770 -0.1270  0.2967
  144MOL0     C18941   9.903   9.614   9.277 -0.2203 -0.8320  1.0437
  144MOL0     C18942   9.779   9.626   9.233  0.9707  0.6077 -0.7014
  144MOL0     H18943   9.398   9.688   8.978  0.0771  1.3478  0.7629
  144MOL0     H18944   9.169   9.752   8.945  3.0019 -0.2427 -0.1951
  144MOL0     H18945   8.925   9.876   9.189  1.2692 -0.1477 -2.6880
  144MOL0     H18946   8.897   9.737   9.296 -0.9263  0.0602 -0.7933
  144MOL0     H18947   8.675   9.799   9.224 -0.9967  0.5887 -2.4357
  144MOL0     H18948   8.730   9.647   9.150 -0.9414 -0.5070 -1.7588
  144MOL0     H18949   8.616   9.773   8.988 -2.3262  3.4902  0.8108
  144MOL0     H18950   8.779   9.808   8.935 -0.2821  0.6475 -1.1105
  144MOL0     H18951   8.763  10.023   9.057  1.0191 -1.3608  1.2496
  144MOL0     H18952   8.630   9.995   8.934 -0.1908 -2.1838 -0.3032
  144MOL0     H18953   8.598   9.997   9.242 -1.5805  2.6925  0.9320
  144MOL0     H18954   8.466   9.946   9.123 -1.4765  2.7080 -1.0989
  144MOL0     H18955   8.475  10.168   9.010  0.1632 -2.0586 -0.4088
  144MOL0     H18956   8.590  10.218   9.141 -1.9480  1.3472  2.2294
  144MOL0     H18957   8.425  10.126   9.311  0.4272 -0.4347  0.5787
  144MOL0     H18958   8.401  10.290   9.239 -0.5690  1.2707 -3.1746
  144MOL0     H18959   8.255  10.035   9.147 -0.7953  1.0261 -3.1507
  144MOL0     H18960   8.231  10.195   9.083 -1.5252 -1.8741 -2.1914
  144MOL0     H18961   8.137  10.397   9.240  0.4265 -0.9139 -0.7040
  144MOL0     H18962   7.777  10.314   9.357  0.9571 -3.6982 -1.3780
  144MOL0     H18963   7.831  10.395   9.207  1.9360 -0.7023 -1.6201
  144MOL0     H18964   7.968  10.546   9.325 -1.3425 -0.6729 -2.4853
  144MOL0     H18965   7.931  10.489   9.482  1.0127 -1.4673 -0.3610
  144MOL0     H18966   7.687  10.545   9.443  0.3811  1.3594  0.5853
  144MOL0     H18967   7.789  10.689   9.436  1.6425 -0.4021  0.8889
  144MOL0     H18968   7.675  10.559   9.198 -0.4871  0.6004  1.2674
  144MOL0     H18969   7.795  10.684   9.177 -1.0219  0.5105 -1.2795
  144MOL0     H18970   7.470  10.523   9.235 -0.8475 -0.3423 -1.7184
  144MOL0     H18971   7.239  10.514   9.254  0.8867  0.3580 -0.7152
  144MOL0     H18972   6.801  10.635   9.300 -1.5068 -0.2314 -1.4797
  144MOL0     H18973   6.587  10.669   9.372  2.1467  2.3052  3.9140
  144MOL0     H18974   6.341  10.745   9.423 -0.0194 -1.0240 -0.2140
  144MOL0     H18975   6.355  10.752   9.243 -1.8121  0.4427 -1.5417
  144MOL0     H18976   6.187  10.968   9.268 -0.3320  0.2587 -0.5883
  144MOL0     H18977   6.186  10.910   9.432  0.8609 -0.7104 -0.6261
  144MOL0     H18978   6.105  10.674   9.330  2.7842  1.0501 -0.8032
  144MOL0     H18979   6.086  10.762   9.184  1.2429  0.7487 -0.2620
  144MOL0     H18980   5.966  10.829   9.444  2.1291  1.9618  0.0005
  144MOL0     H18981   5.933  10.924   9.298 -0.6441  1.4323  2.2202
  144MOL0     H18982   5.859  10.619   9.326  1.8475  0.8183 -1.8474
  144MOL0     H18983   5.817  10.712   9.194 -2.8514 -2.6381  0.8024
  144MOL0     H18984   5.701  10.887   9.348 -4.5204 -0.1285 -0.4662
  144MOL0     H18985   5.740  10.759   9.473 -0.9391 -0.8174  0.2769
  144MOL0     H18986   5.611  10.648   9.238  0.5121 -0.1582 -0.3165
  144MOL0     H18987   5.542  10.652   9.412 -0.9925  3.2627  1.2186
  144MOL0     H18988   5.524  10.849   9.182  1.6250  1.2954  1.8159
  144MOL0     H18989   5.428  10.860   9.334 -0.3767 -1.3232  0.7914
  144MOL0     H18990   6.608  11.092   9.277  1.5792  1.4960 -3.7732
  144MOL0     H18991   6.825  11.064   9.221 -1.6648  0.7587 -1.5691
  144MOL0     H18992   7.226  10.947   9.216  0.5512  0.4710 -1.1618
  144MOL0     H18993   7.474  10.955   9.238  0.5223 -1.1525  1.1091
  144MOL0     H18994   9.059   9.596   9.314  0.4049  0.2675  0.9292
  144MOL0     H18995   9.296   9.571   9.382  0.7721 -2.9965 -1.6416
  144MOL0     H18996   9.776   9.363   9.013 -2.2517  0.0565  0.2498
  144MOL0     H18997  10.015   9.365   9.073  0.9871  1.0033 -0.4128
  144MOL0     H18998  10.272   9.530   9.384 -0.7230 -1.0925 -1.2887
  144MOL0     H18999  10.133   9.616   9.431 -0.2902 -0.3692  0.1503
  144MOL0     H19000  10.168   9.785   9.280 -1.4664 -2.0244  0.2652
  144MOL0     H19001  10.294   9.758   9.405 -1.7188 -1.6155  1.4877
  144MOL0     H19002  10.332   9.629   9.138 -1.7986 -3.2785  4.5924
  144MOL0     H19003  10.454   9.683   9.263 -1.3351 -2.2448  1.4766
  144MOL0     H19004  10.456   9.830   9.044  1.1611 -2.8706  1.5546
  144MOL0     H19005  10.295   9.892   9.113  0.4325  2.8284  4.6030
  144MOL0     H19006  10.524  10.074   9.397 -0.5887  0.1301  0.2845
  144MOL0     H19007   9.927   9.688   9.352  3.2502  0.8145 -1.4331
  144MOL0     H19008   9.715   9.688   9.295 -0.3949 -1.2372 -0.1929
  145MOL0     O19009   3.583   3.076   0.593 -0.4384  0.2413 -0.3155
  145MOL0     C19010   3.626   3.070   0.478 -0.1514  0.3882  0.0519
  145MOL0     O19011   3.551   3.106   0.367  0.2324  0.0789 -0.4064
  145MOL0     C19012   3.418   3.130   0.383  0.6413 -0.5404  0.0342
  145MOL0     C19013   3.351   3.246   0.404  0.3672 -0.3251 -0.1659
  145MOL0     C19014   3.213   3.248   0.421  0.3878 -0.6101  0.0450
  145MOL0     C19015   3.139   3.133   0.418  0.9304  0.3222  0.1995
  145MOL0     O19016   3.002   3.124   0.430 -0.2536 -0.3935  0.6094
  145MOL0     C19017   2.938   3.221   0.348  0.0354  0.2814 -0.5090
  145MOL0     C19018   2.792   3.214   0.353 -1.4185 -0.3871 -0.4784
  145MOL0     C19019   2.736   3.332   0.268 -0.2128  0.1418 -0.0016
  145MOL0     C19020   2.586   3.343   0.283 -0.2742 -0.2394  0.2575
  145MOL0     C19021   2.532   3.441   0.182  0.1385 -1.7895 -0.8511
  145MOL0     C19022   2.382   3.470   0.223 -0.2997 -0.7848  0.4495
  145MOL0     C19023   2.308   3.566   0.120 -0.1132  0.3139 -0.0240
  145MOL0     C19024   2.164   3.612   0.162  0.3401  0.2537 -0.2907
  145MOL0     N19025   2.080   3.489   0.171 -0.3924  0.0822 -0.6281
  145MOL0     C19026   2.044   3.435   0.293  0.8090 -1.1883  0.7201
  145MOL0     C19027   1.960   3.337   0.266  0.3862  0.7007  0.8362
  145MOL0     C19028   1.878   3.248   0.367 -0.4363 -0.1882  0.1188
  145MOL0     C19029   1.901   3.098   0.351 -0.0387  0.1706 -0.7548
  145MOL0     C19030   1.840   3.022   0.463  0.2855 -0.4429 -0.1851
  145MOL0     C19031   1.721   2.947   0.409  0.3477 -0.6182 -0.4300
  145MOL0     O19032   1.674   2.871   0.523  0.3210  0.1171 -0.1730
  145MOL0     C19033   1.571   2.929   0.598 -0.5012  0.4448  0.7517
  145MOL0     C19034   1.523   3.063   0.582 -0.9301 -0.3360 -1.6983
  145MOL0     C19035   1.420   3.114   0.667  0.3315  0.4366 -0.2116
  145MOL0     C19036   1.365   3.030   0.766  0.3141  1.0730 -0.5116
  145MOL0     C19037   1.241   3.076   0.837  0.5985 -0.1805 -0.3537
  145MOL0     O19038   1.205   2.987   0.934 -0.3684  0.6145  0.0282
  145MOL0     C19039   1.101   3.003   1.026  1.4250 -0.3049 -0.0647
  145MOL0     C19040   1.053   3.125   1.060 -0.0586  0.5205 -0.3166
  145MOL0     C19041   0.957   3.141   1.157 -0.3922  0.1431 -0.2753
  145MOL0     C19042   0.887   3.028   1.207 -0.5932  0.0764 -0.5809
  145MOL0     O19043   0.776   3.048   1.291  0.1949  0.2367 -0.2691
  145MOL0     C19044   0.733   2.931   1.357 -0.0743 -0.0395 -1.0571
  145MOL0     C19045   0.629   2.964   1.466 -0.0760  0.0220  0.0906
  145MOL0     C19046   0.678   3.005   1.606 -0.3108 -0.1993 -0.3701
  145MOL0     C19047   0.570   3.019   1.705 -0.1351 -0.4178 -0.2825
  145MOL0     C19048   0.614   3.088   1.833 -0.6877 -0.1016  0.1459
  145MOL0     C19049   0.745   3.038   1.894 -0.5460  0.0862  1.1083
  145MOL0     C19050   0.729   2.899   1.947  0.1167  1.0330  0.1067
  145MOL0     C19051   0.842   2.864   2.038  0.7662 -0.2352  0.0947
  145MOL0    Cl19052   0.778   2.729   2.139 -0.3993 -0.0333 -0.3545
  145MOL0     C19053   0.928   2.899   1.165 -0.3421 -0.1600 -0.2517
  145MOL0     C19054   1.033   2.886   1.077  0.1918  0.7312  0.6187
  145MOL0     O19055   1.184   3.172   0.804 -0.5828  0.3941 -0.7291
  145MOL0     C19056   1.415   2.897   0.781 -0.4658 -0.2248 -0.2360
  145MOL0     C19057   1.514   2.849   0.703 -0.5564 -0.3782  0.9278
  145MOL0     N19058   1.960   3.325   0.126 -0.1356  0.5407  0.3242
  145MOL0     N19059   2.031   3.413   0.073  0.5861 -0.9228  0.5772
  145MOL0     C19060   3.205   3.012   0.395  0.0668 -0.8643  0.4456
  145MOL0     C19061   3.344   3.010   0.376  1.4241 -0.4083 -0.2187
  145MOL0     C19062   3.766   3.015   0.464 -1.2233 -0.4949 -1.0296
  145MOL0     C19063   3.829   3.026   0.339  0.5967  0.5098  1.1058
  145MOL0     C19064   3.962   2.986   0.317 -0.0376  0.2682 -0.7676
  145MOL0     C19065   4.031   2.932   0.422  0.4670 -0.2798 -0.2638
  145MOL0     O19066   4.153   2.875   0.397 -0.7187  0.6628 -0.4985
  145MOL0     C19067   4.260   2.925   0.475  0.2136 -0.0772  0.5647
  145MOL0     C19068   4.384   2.883   0.401 -0.2878  0.1427  0.2633
  145MOL0     C19069   4.507   2.953   0.455  0.4385  0.4211 -0.6579
  145MOL0     C19070   4.618   2.850   0.479  0.4100 -0.5966 -0.6414
  145MOL0     C19071   4.653   2.782   0.361  0.2593  0.2832  0.6466
  145MOL0     C19072   4.674   2.721   0.252  0.0667  0.0424  0.7205
  145MOL0     C19073   3.961   2.913   0.544 -1.1851 -0.6457 -0.0216
  145MOL0     C19074   3.835   2.955   0.566 -0.3823 -0.2891  0.4824
  145MOL0     H19075   3.420   3.329   0.412 -0.1974  0.1235  0.1011
  145MOL0     H19076   3.168   3.343   0.447  0.8167 -0.7596  1.4361
  145MOL0     H19077   2.977   3.203   0.248  0.1901  0.4760 -0.4843
  145MOL0     H19078   2.968   3.323   0.376  0.5851  0.6734 -2.3775
  145MOL0     H19079   2.767   3.223   0.459  4.3937  3.1760  1.0728
  145MOL0     H19080   2.763   3.120   0.305  0.8850 -1.4195  0.0005
  145MOL0     H19081   2.762   3.310   0.164 -0.1731  1.2062 -0.2341
  145MOL0     H19082   2.789   3.425   0.294  2.1550 -1.1172 -0.0284
  145MOL0     H19083   2.543   3.245   0.260  0.6891 -1.9517  4.7613
  145MOL0     H19084   2.557   3.365   0.386 -2.0723 -1.0747 -0.0369
  145MOL0     H19085   2.529   3.396   0.082 -0.5976 -2.9415 -0.3285
  145MOL0     H19086   2.594   3.531   0.175  1.3670 -2.6510 -1.3823
  145MOL0     H19087   2.359   3.506   0.324 -1.1405  1.7317 -0.5596
  145MOL0     H19088   2.337   3.371   0.215  0.9396 -1.2885 -0.4799
  145MOL0     H19089   2.365   3.658   0.107 -1.4687  1.2450  0.3223
  145MOL0     H19090   2.304   3.511   0.026 -2.9443 -1.0538  0.7606
  145MOL0     H19091   2.109   3.683   0.099 -2.3733 -0.0283  1.5667
  145MOL0     H19092   2.173   3.662   0.259 -2.7821  0.5130 -0.0105
  145MOL0     H19093   2.071   3.483   0.386  0.4373 -0.1578  0.3131
  145MOL0     H19094   1.773   3.262   0.342 -0.3646 -2.3238 -1.6588
  145MOL0     H19095   1.909   3.282   0.467  0.8144 -0.3780 -0.1874
  145MOL0     H19096   2.009   3.089   0.367 -0.4244 -2.0081  1.2117
  145MOL0     H19097   1.870   3.082   0.247  0.0899  5.4465 -1.8698
  145MOL0     H19098   1.913   2.955   0.510 -0.8200 -0.8573  0.9766
  145MOL0     H19099   1.805   3.084   0.545 -1.5131  0.1787 -1.3510
  145MOL0     H19100   1.766   2.877   0.338 -1.5831 -1.2568 -1.0958
  145MOL0     H19101   1.643   3.008   0.363 -0.7949 -0.0779  2.0439
  145MOL0     H19102   1.557   3.134   0.507  0.0738 -0.7829 -1.6915
  145MOL0     H19103   1.370   3.210   0.653  1.4267  1.1797  0.8663
  145MOL0     H19104   1.106   3.217   1.039  3.5344 -1.6762 -1.8168
  145MOL0     H19105   0.942   3.245   1.184 -1.8142  0.5987 -2.5365
  145MOL0     H19106   0.818   2.892   1.414  0.4698  2.7882  0.2538
  145MOL0     H19107   0.691   2.862   1.284 -2.4472  0.0960  0.0838
  145MOL0     H19108   0.559   2.881   1.482  1.1666 -0.6772  2.4687
  145MOL0     H19109   0.570   3.042   1.419 -1.6654  0.0104  1.9257
  145MOL0     H19110   0.735   3.099   1.606  1.1569 -1.0622 -0.4573
  145MOL0     H19111   0.749   2.929   1.638 -0.4399 -1.4869 -2.8891
  145MOL0     H19112   0.484   3.069   1.657 -0.8389  1.7984  2.9450
  145MOL0     H19113   0.544   2.917   1.734 -2.0947  0.9145  3.2803
  145MOL0     H19114   0.531   3.078   1.904  0.6515  0.9093  1.9628
  145MOL0     H19115   0.634   3.194   1.815  0.9813 -0.3480  0.3489
  145MOL0     H19116   0.761   3.094   1.986 -1.6882 -0.6683  1.7859
  145MOL0     H19117   0.832   3.045   1.828 -0.2217 -0.0137  1.5178
  145MOL0     H19118   0.637   2.865   1.996  0.3245 -2.1330 -1.4346
  145MOL0     H19119   0.731   2.832   1.861 -2.0254 -1.7526  2.0536
  145MOL0     H19120   0.877   2.950   2.096 -0.4114  1.7452 -1.9762
  145MOL0     H19121   0.924   2.827   1.975 -1.4838 -4.4663 -0.7083
  145MOL0     H19122   0.871   2.813   1.197  1.7379 -1.6732 -0.4260
  145MOL0     H19123   1.060   2.781   1.066 -1.4814  0.1527  1.6983
  145MOL0     H19124   1.387   2.821   0.854  0.0363 -0.4228 -0.2422
  145MOL0     H19125   1.563   2.754   0.724 -1.4493 -0.6788  1.7046
  145MOL0     H19126   3.140   2.925   0.406  0.1909 -1.0581 -0.2718
  145MOL0     H19127   3.403   2.919   0.378  1.6380 -0.2810 -0.5911
  145MOL0     H19128   3.786   3.066   0.248  0.1064  0.3916  1.2845
  145MOL0     H19129   3.997   2.981   0.214 -2.1830  0.0379 -1.5427
  145MOL0     H19130   4.266   2.888   0.577  4.6123  1.9696  1.3021
  145MOL0     H19131   4.242   3.033   0.474 -2.1226 -0.3589  2.7542
  145MOL0     H19132   4.384   2.775   0.419 -2.7872  0.4487  2.6466
  145MOL0     H19133   4.367   2.899   0.294  1.9406  0.2597 -0.1273
  145MOL0     H19134   4.483   2.989   0.556 -0.0834  1.2649 -1.0710
  145MOL0     H19135   4.534   3.039   0.393 -1.8742  0.5789 -1.5723
  145MOL0     H19136   4.710   2.888   0.525  0.1685 -1.8299  0.9650
  145MOL0     H19137   4.586   2.781   0.558  0.3190  2.7767  2.5784
  145MOL0     H19138   4.689   2.659   0.166 -1.3538 -1.7762  1.7067
  145MOL0     H19139   4.007   2.858   0.626  1.7069  1.2372 -0.2572
  145MOL0     H19140   3.801   2.940   0.668  4.8643 -0.2508  2.5426
  146MOL0     O19141   0.934  11.281   2.071 -0.0856 -0.4435 -0.9447
  146MOL0     C19142   1.007  11.332   2.160  0.2124  0.4056 -0.6555
  146MOL0     O19143   0.966  11.408   2.268  0.5777  0.2083 -0.9393
  146MOL0     C19144   0.830  11.386   2.299  0.1147  0.1450 -0.6084
  146MOL0     C19145   0.774  11.266   2.341 -0.5899 -1.2099  0.2704
  146MOL0     C19146   0.640  11.252   2.365 -0.2877 -0.3082 -0.1579
  146MOL0     C19147   0.561  11.365   2.357  0.7299 -0.5985  0.8327
  146MOL0     O19148   0.425  11.349   2.359 -0.0504  0.3040  0.3564
  146MOL0     C19149   0.357  11.221   2.407 -0.3016 -0.0076  1.4221
  146MOL0     C19150   0.212  11.252   2.396  0.0597 -0.3521  0.1211
  146MOL0     C19151   0.165  11.280   2.258  0.2872 -0.1474 -0.2785
  146MOL0     C19152   0.029  11.348   2.252 -1.4726 -0.0285  0.9374
  146MOL0     C19153  -0.029  11.375   2.108 -0.2816  0.7570  0.1890
  146MOL0     C19154   0.079  11.429   2.007 -0.0308 -0.5475  0.1441
  146MOL0     C19155   0.008  11.463   1.880  0.4410 -0.7468  0.5520
  146MOL0     C19156   0.079  11.555   1.785 -0.6301  0.0454 -0.0512
  146MOL0     N19157   0.213  11.502   1.749  0.1931 -0.2938  0.3262
  146MOL0     C19158   0.322  11.513   1.824  0.1676 -0.4559  0.3542
  146MOL0     C19159   0.402  11.409   1.786 -0.3669  0.5057 -0.3623
  146MOL0     C19160   0.538  11.387   1.842  0.3194 -0.1548 -0.4178
  146MOL0     C19161   0.542  11.333   1.989  0.4506 -0.0993 -0.4887
  146MOL0     C19162   0.469  11.204   2.016  0.8386  0.1873  0.5136
  146MOL0     C19163   0.511  11.089   1.922 -0.0806  0.1624  0.1504
  146MOL0     O19164   0.447  10.957   1.947  0.2468  0.0999 -0.3730
  146MOL0     C19165   0.312  10.959   1.959  0.9592  0.2554  0.4018
  146MOL0     C19166   0.255  10.900   2.069 -0.8043 -0.6973 -0.0845
  146MOL0     C19167   0.117  10.888   2.097 -0.6447 -0.8563 -1.1942
  146MOL0     C19168   0.034  10.949   2.006  0.9329  0.5788  0.2077
  146MOL0     C19169  -0.111  10.954   2.023  0.3884 -0.1364 -0.2383
  146MOL0     O19170  -0.174  10.909   2.136 -0.9698  0.5578 -0.9751
  146MOL0     C19171  -0.306  10.892   2.142 -0.0245  0.7128 -0.5654
  146MOL0     C19172  -0.349  10.773   2.197  0.1864 -0.2290  1.1365
  146MOL0     C19173  -0.488  10.768   2.220 -0.6035 -0.3523  0.2190
  146MOL0     C19174  -0.580  10.870   2.197  0.3794 -0.8191  0.3988
  146MOL0     O19175  -0.708  10.842   2.234 -0.5920  0.4698 -0.4203
  146MOL0     C19176  -0.821  10.928   2.201 -0.7176  0.6635 -0.0243
  146MOL0     C19177  -0.932  10.876   2.293 -0.3648  0.0686  0.1473
  146MOL0     C19178  -1.050  10.969   2.298  0.6178  0.0986 -0.6943
  146MOL0     C19179  -1.052  11.073   2.408 -0.1228 -1.0283 -1.0602
  146MOL0     C19180  -1.128  11.025   2.535 -0.1689  0.7297  0.5287
  146MOL0     C19181  -1.132  11.128   2.647 -0.2103  1.1152  0.7593
  146MOL0     C19182  -0.999  11.120   2.729  0.6377  0.4479 -0.8001
  146MOL0     C19183  -0.935  11.261   2.740 -0.5233 -0.2334 -0.4310
  146MOL0    Cl19184  -0.771  11.248   2.806 -0.2424  0.1145  0.0127
  146MOL0     C19185  -0.526  10.991   2.156 -0.1921  0.0924  0.9979
  146MOL0     C19186  -0.389  11.011   2.143  0.4166 -0.1733  0.1062
  146MOL0     O19187  -0.171  10.995   1.925 -1.0246 -0.5643  0.2699
  146MOL0     C19188   0.089  11.023   1.900  0.4083  0.5626  0.8317
  146MOL0     C19189   0.224  11.024   1.871  0.3832 -0.4771  0.7800
  146MOL0     N19190   0.347  11.342   1.682 -0.3632 -0.3022  0.1212
  146MOL0     N19191   0.229  11.390   1.669  0.4432 -0.0178 -0.8074
  146MOL0     C19192   0.613  11.494   2.324 -0.0181 -0.4678  0.2735
  146MOL0     C19193   0.746  11.502   2.289  0.3983  0.4786  0.5142
  146MOL0     C19194   1.153  11.319   2.145 -0.5260  0.7558 -0.0528
  146MOL0     C19195   1.209  11.254   2.034  0.6332 -0.8228  0.3097
  146MOL0     C19196   1.344  11.242   2.022  1.0114 -0.3331 -0.2807
  146MOL0     C19197   1.430  11.304   2.112 -0.0523 -0.1773  0.4515
  146MOL0     O19198   1.566  11.293   2.081 -0.1962 -0.5737 -0.9161
  146MOL0     C19199   1.639  11.406   2.111 -0.1873 -0.1159 -0.2027
  146MOL0     C19200   1.779  11.405   2.043  0.5314 -0.0336 -0.3790
  146MOL0     C19201   1.767  11.465   1.900 -0.5354 -0.2074 -0.7647
  146MOL0     C19202   1.685  11.373   1.806  0.5403  0.4270  1.4224
  146MOL0     C19203   1.725  11.392   1.668  0.8919 -0.3241  0.1940
  146MOL0     C19204   1.758  11.421   1.555 -0.1402 -0.8575  0.2000
  146MOL0     C19205   1.379  11.348   2.232  0.0317 -0.9806  0.6107
  146MOL0     C19206   1.237  11.355   2.245 -0.5024 -0.2038 -0.6659
  146MOL0     H19207   0.833  11.180   2.372 -0.3022 -0.7651  0.9859
  146MOL0     H19208   0.592  11.155   2.375 -1.5866  0.0410 -2.2434
  146MOL0     H19209   0.377  11.191   2.511 -0.5029 -1.1998  1.1273
  146MOL0     H19210   0.379  11.133   2.346 -0.3258 -0.3871  1.9516
  146MOL0     H19211   0.185  11.340   2.454 -5.1367  0.2390 -2.5686
  146MOL0     H19212   0.150  11.172   2.438 -0.1703  0.1760  0.8093
  146MOL0     H19213   0.156  11.190   2.197 -1.1522  1.1100 -2.0418
  146MOL0     H19214   0.242  11.335   2.202  0.7926  0.4851  0.9862
  146MOL0     H19215  -0.036  11.277   2.304 -4.6403  0.4053 -2.0337
  146MOL0     H19216   0.028  11.441   2.309  2.7834  1.6472 -1.2575
  146MOL0     H19217  -0.103  11.454   2.096  1.2027  2.1617 -0.0431
  146MOL0     H19218  -0.064  11.276   2.076  0.6664  0.9594 -1.6106
  146MOL0     H19219   0.156  11.356   1.982  0.7452  0.2905  0.0308
  146MOL0     H19220   0.136  11.515   2.042  0.8899 -1.2180  0.3004
  146MOL0     H19221  -0.018  11.371   1.828  0.3566 -0.3239 -0.1663
  146MOL0     H19222  -0.092  11.500   1.903  0.2725 -0.8725  0.0364
  146MOL0     H19223   0.078  11.657   1.823  1.8615  0.2612 -0.3877
  146MOL0     H19224   0.026  11.554   1.690 -1.6132  2.3814  0.4215
  146MOL0     H19225   0.338  11.584   1.905 -3.4302  0.4167  0.4840
  146MOL0     H19226   0.597  11.479   1.851  3.0101 -1.8120  0.1926
  146MOL0     H19227   0.607  11.328   1.781 -1.1070 -0.4194 -1.8497
  146MOL0     H19228   0.490  11.407   2.050 -0.5150 -1.0431 -0.1328
  146MOL0     H19229   0.646  11.327   2.022  0.1431 -2.3876  0.2331
  146MOL0     H19230   0.502  11.173   2.116  1.2848 -0.9337  0.0352
  146MOL0     H19231   0.362  11.225   2.012  0.8083  0.1665  1.0566
  146MOL0     H19232   0.619  11.075   1.936 -0.4575 -1.3966  2.0039
  146MOL0     H19233   0.499  11.130   1.821 -0.3307  2.4307  1.0500
  146MOL0     H19234   0.322  10.854   2.140  2.3064  0.9189 -1.7406
  146MOL0     H19235   0.073  10.848   2.188 -3.1078  2.0856 -0.9034
  146MOL0     H19236  -0.283  10.690   2.215 -2.0660 -2.5708 -0.6086
  146MOL0     H19237  -0.537  10.686   2.272  1.5881 -1.1926  1.0930
  146MOL0     H19238  -0.841  10.927   2.094 -2.0248 -2.6732  0.1184
  146MOL0     H19239  -0.793  11.028   2.235  0.2801 -0.6093  3.3534
  146MOL0     H19240  -0.891  10.848   2.391 -0.9698 -1.0297  0.1123
  146MOL0     H19241  -0.968  10.785   2.243 -0.5295  1.3165 -2.1161
  146MOL0     H19242  -1.143  10.911   2.309  0.2579  1.1621  3.8243
  146MOL0     H19243  -1.071  11.027   2.208 -3.5428 -0.1244 -0.0858
  146MOL0     H19244  -0.953  11.106   2.438 -0.9275 -0.7371  1.5379
  146MOL0     H19245  -1.116  11.157   2.381 -0.3663  0.0166  2.3289
  146MOL0     H19246  -1.090  10.930   2.576  0.5654  0.1708 -1.3518
  146MOL0     H19247  -1.231  11.005   2.506 -0.6090 -2.3150  3.5216
  146MOL0     H19248  -1.213  11.105   2.717  1.4039 -3.6666  1.4580
  146MOL0     H19249  -1.143  11.226   2.601 -0.0415 -0.4832 -3.0666
  146MOL0     H19250  -1.018  11.079   2.829  1.2674  0.3872 -0.7009
  146MOL0     H19251  -0.932  11.049   2.680 -0.4741 -2.9661  2.2171
  146MOL0     H19252  -1.002  11.327   2.796  3.2124  3.9165 -0.3571
  146MOL0     H19253  -0.935  11.310   2.643 -1.6977 -0.0830 -0.3719
  146MOL0     H19254  -0.595  11.070   2.130 -0.6726 -1.2139 -2.1943
  146MOL0     H19255  -0.352  11.107   2.107 -1.1117  0.6143  0.5438
  146MOL0     H19256   0.022  11.081   1.838 -0.6195  0.5318  1.8815
  146MOL0     H19257   0.257  11.077   1.783 -2.1160  0.2525  0.2225
  146MOL0     H19258   0.554  11.584   2.315 -0.4245 -0.5360  1.9248
  146MOL0     H19259   0.783  11.597   2.252 -1.8779  0.6867 -1.5158
  146MOL0     H19260   1.141  11.205   1.964  0.0985  1.3050 -0.7574
  146MOL0     H19261   1.381  11.199   1.929  2.6184 -0.3537  0.3300
  146MOL0     H19262   1.652  11.395   2.219 -1.3030 -0.6244 -0.1042
  146MOL0     H19263   1.582  11.494   2.078 -1.0352 -1.2057 -1.7899
  146MOL0     H19264   1.837  11.484   2.092 -2.3864  0.4729  2.6596
  146MOL0     H19265   1.826  11.307   2.055 -0.4696 -0.3367  1.5906
  146MOL0     H19266   1.870  11.481   1.868  0.3828  1.0308  2.4273
  146MOL0     H19267   1.717  11.562   1.908  0.2454  0.0521  2.8892
  146MOL0     H19268   1.705  11.268   1.829 -0.1186  0.3963  1.8567
  146MOL0     H19269   1.578  11.385   1.824 -0.1146 -2.5987  0.2335
  146MOL0     H19270   1.805  11.435   1.459  1.8435  2.6652  1.5255
  146MOL0     H19271   1.438  11.379   2.318  1.5678 -5.1865  1.3107
  146MOL0     H19272   1.199  11.410   2.331  2.7513  3.0872 -1.0871
  147MOL0     O19273   3.160   1.126   1.794  0.0452 -0.6348  0.1673
  147MOL0     C19274   3.150   1.118   1.912 -1.3318 -0.6210 -0.1150
  147MOL0     O19275   3.200   1.013   1.984  0.2248  0.1333 -0.6497
  147MOL0     C19276   3.285   0.923   1.919  0.1550 -0.8331 -0.1054
  147MOL0     C19277   3.271   0.783   1.929  0.4854 -0.0997  0.3100
  147MOL0     C19278   3.369   0.699   1.882 -0.7712  0.8395  0.4638
  147MOL0     C19279   3.484   0.745   1.823 -0.2771 -0.1966  0.3767
  147MOL0     O19280   3.575   0.653   1.771 -0.2364  0.0586  0.8476
  147MOL0     C19281   3.716   0.668   1.795  0.3752  0.3984  1.2293
  147MOL0     C19282   3.792   0.612   1.675  0.2670 -0.6287  0.5688
  147MOL0     C19283   3.943   0.644   1.660 -0.4865  0.6569 -1.1844
  147MOL0     C19284   3.985   0.611   1.516 -1.0276 -0.9660 -0.4847
  147MOL0     C19285   4.132   0.665   1.502  0.8481  0.5659 -0.1347
  147MOL0     C19286   4.196   0.655   1.365 -0.1435  0.0091 -0.4860
  147MOL0     C19287   4.221   0.505   1.320  1.1076 -0.0243  0.5682
  147MOL0     C19288   4.272   0.496   1.174  0.3626  0.3266 -0.4593
  147MOL0     N19289   4.416   0.445   1.192  0.5362  0.4204 -0.1357
  147MOL0     C19290   4.456   0.324   1.241  0.4181  0.2475 -0.6357
  147MOL0     C19291   4.592   0.343   1.258  0.4237 -0.4397 -0.5633
  147MOL0     C19292   4.693   0.246   1.325 -0.2936  0.8757  0.1392
  147MOL0     C19293   4.646   0.219   1.470  1.0368 -0.0316 -0.7984
  147MOL0     C19294   4.607   0.069   1.497 -0.1821 -0.1731 -0.1236
  147MOL0     C19295   4.490   0.008   1.421  0.0450  0.0487  0.1126
  147MOL0     O19296   4.368   0.087   1.453 -0.3766 -0.2742  0.3552
  147MOL0     C19297   4.251   0.016   1.451 -0.0126 -0.5873 -0.3073
  147MOL0     C19298   4.214  -0.088   1.364  0.2710 -0.2831  0.6320
  147MOL0     C19299   4.088  -0.151   1.373  0.7149  0.4969 -0.0111
  147MOL0     C19300   3.999  -0.118   1.474  0.0401 -0.1222  0.1683
  147MOL0     C19301   3.859  -0.171   1.477  0.0463 -0.1980 -0.1048
  147MOL0     O19302   3.761  -0.117   1.561 -0.1009  0.1047  0.0507
  147MOL0     C19303   3.635  -0.156   1.554  0.4265 -0.4104 -0.1938
  147MOL0     C19304   3.564  -0.181   1.434 -0.1881  0.3767  0.0180
  147MOL0     C19305   3.449  -0.248   1.437  0.5240  0.0435  0.3896
  147MOL0     C19306   3.380  -0.275   1.553 -0.2342 -0.8731 -0.7412
  147MOL0     O19307   3.251  -0.317   1.543 -0.3092  0.2248 -0.5035
  147MOL0     C19308   3.157  -0.216   1.583  0.5534  1.1455  0.8950
  147MOL0     C19309   3.129  -0.111   1.466  0.4792  0.7128  0.0040
  147MOL0     C19310   3.086  -0.184   1.337 -0.1182 -1.0634  0.8584
  147MOL0     C19311   3.006  -0.091   1.242 -0.0455  0.6844 -1.1740
  147MOL0     C19312   2.880  -0.027   1.303 -0.0571 -0.5810  0.2369
  147MOL0     C19313   2.771   0.037   1.218  0.6594 -0.3038  0.2894
  147MOL0     C19314   2.833   0.148   1.122  0.4369  0.4832  0.8164
  147MOL0     C19315   2.724   0.217   1.043 -0.3751 -0.0411  0.5237
  147MOL0    Cl19316   2.645   0.097   0.927  0.1410  0.2460  0.7871
  147MOL0     C19317   3.439  -0.249   1.675  0.4311 -0.4191 -0.4440
  147MOL0     C19318   3.572  -0.188   1.675  0.4028  0.6235  0.1059
  147MOL0     O19319   3.834  -0.251   1.391 -0.0873  0.4203 -0.0898
  147MOL0     C19320   4.043  -0.030   1.578 -0.7373  0.0769  0.0623
  147MOL0     C19321   4.170   0.038   1.559  0.0905  0.4680  0.9710
  147MOL0     N19322   4.630   0.469   1.221  0.3777  0.6509  0.4098
  147MOL0     N19323   4.523   0.527   1.176  0.1576  0.4209  0.3269
  147MOL0     C19324   3.492   0.884   1.799  0.1344 -0.2671  0.9906
  147MOL0     C19325   3.402   0.979   1.856 -0.5774  0.4948  0.2529
  147MOL0     C19326   3.056   1.211   1.981  1.2632  0.1576 -1.6916
  147MOL0     C19327   2.949   1.268   1.912  0.3387  0.1800 -0.0379
  147MOL0     C19328   2.855   1.338   1.984 -0.2577  0.1830 -0.4082
  147MOL0     C19329   2.860   1.362   2.123 -0.4966  0.4784 -1.1722
  147MOL0     O19330   2.767   1.447   2.190 -1.2321 -0.0494 -0.0154
  147MOL0     C19331   2.664   1.501   2.116  0.2475  0.1523 -0.2125
  147MOL0     C19332   2.595   1.596   2.216 -0.4705 -0.5136  0.2807
  147MOL0     C19333   2.495   1.513   2.308  0.3195 -0.8040  0.0818
  147MOL0     C19334   2.437   1.599   2.415  0.1468 -0.3709  0.4860
  147MOL0     C19335   2.523   1.640   2.524 -0.6980 -1.7262  0.6549
  147MOL0     C19336   2.583   1.685   2.615 -0.3863  0.2898 -0.3927
  147MOL0     C19337   2.972   1.315   2.191 -0.0433 -0.2276  0.7578
  147MOL0     C19338   3.067   1.241   2.121  0.4671  0.6290 -0.5752
  147MOL0     H19339   3.189   0.752   1.994  1.3139  0.2430  1.5673
  147MOL0     H19340   3.364   0.591   1.888  1.8980  0.6264 -0.0044
  147MOL0     H19341   3.754   0.602   1.874 -0.2865  0.6431  1.7667
  147MOL0     H19342   3.733   0.774   1.819 -0.3362  1.0586 -0.9294
  147MOL0     H19343   3.737   0.660   1.594 -1.6160  1.0961  2.6961
  147MOL0     H19344   3.777   0.504   1.675  1.2902 -0.7874  1.1912
  147MOL0     H19345   3.999   0.598   1.742 -0.2747 -0.7813 -2.1001
  147MOL0     H19346   3.970   0.750   1.664 -0.6348  0.7783 -2.6546
  147MOL0     H19347   3.986   0.503   1.500  4.7840 -1.1573 -0.9879
  147MOL0     H19348   3.940   0.658   1.428  3.0972  1.9572 -1.3656
  147MOL0     H19349   4.196   0.615   1.575  1.7610  1.5800 -0.2137
  147MOL0     H19350   4.136   0.770   1.531  1.4556  0.9491 -1.5191
  147MOL0     H19351   4.287   0.716   1.369 -0.2205  0.1568 -0.9716
  147MOL0     H19352   4.133   0.709   1.294 -0.1090 -0.8267 -1.1560
  147MOL0     H19353   4.296   0.461   1.387 -0.3477 -0.2221  2.1453
  147MOL0     H19354   4.132   0.444   1.335  2.0638 -1.1817  1.7776
  147MOL0     H19355   4.275   0.598   1.134 -0.5203  1.2208  1.5812
  147MOL0     H19356   4.218   0.425   1.112  1.0509  0.0043 -0.6978
  147MOL0     H19357   4.403   0.230   1.251 -2.3685  1.7900 -0.0235
  147MOL0     H19358   4.795   0.285   1.329  0.3044 -0.6170  0.0080
  147MOL0     H19359   4.695   0.147   1.278 -0.2803  0.1810  1.5527
  147MOL0     H19360   4.569   0.292   1.496  0.3349 -0.3332 -1.9730
  147MOL0     H19361   4.725   0.231   1.545  2.1748 -3.2412 -1.3313
  147MOL0     H19362   4.697   0.008   1.490  0.2808  0.5340 -0.5137
  147MOL0     H19363   4.568   0.074   1.599  0.0017 -0.6494 -0.0265
  147MOL0     H19364   4.477  -0.098   1.442 -0.9196 -0.4691 -2.6854
  147MOL0     H19365   4.506   0.016   1.313  1.3631  1.2618  0.3659
  147MOL0     H19366   4.284  -0.116   1.285 -0.4331 -1.8439  0.5277
  147MOL0     H19367   4.057  -0.218   1.294 -4.4362  1.6467  0.7103
  147MOL0     H19368   3.620  -0.165   1.342  0.1602 -2.9150 -0.4597
  147MOL0     H19369   3.397  -0.276   1.346  0.2135 -2.5367  1.2503
  147MOL0     H19370   3.193  -0.174   1.677 -1.4419 -3.4116  4.0412
  147MOL0     H19371   3.064  -0.273   1.592  0.2020  1.3316 -1.0178
  147MOL0     H19372   3.222  -0.060   1.438 -0.3650  3.1747  1.3844
  147MOL0     H19373   3.062  -0.034   1.506  1.2757  1.0062  0.8110
  147MOL0     H19374   3.025  -0.267   1.374  2.6324 -3.1985  0.8790
  147MOL0     H19375   3.168  -0.225   1.278 -0.1876  2.2317 -1.8418
  147MOL0     H19376   3.076  -0.014   1.205 -0.1477  1.7680  0.7783
  147MOL0     H19377   2.976  -0.158   1.161 -1.8616 -2.2661  1.7441
  147MOL0     H19378   2.910   0.053   1.370  0.7902 -0.3402 -0.4116
  147MOL0     H19379   2.836  -0.101   1.371  0.4772  1.5455  3.0793
  147MOL0     H19380   2.697   0.081   1.285 -1.4853 -1.2358 -1.3917
  147MOL0     H19381   2.725  -0.040   1.156 -1.1607 -1.1692  2.5828
  147MOL0     H19382   2.881   0.213   1.196 -1.6680  1.7675  1.1441
  147MOL0     H19383   2.906   0.100   1.057  0.5094 -2.4900  2.8840
  147MOL0     H19384   2.771   0.298   0.985 -0.6665 -1.2257 -1.4552
  147MOL0     H19385   2.653   0.270   1.108  0.1836  2.5095 -0.7960
  147MOL0     H19386   3.394  -0.263   1.773  1.1011  1.6990  0.2156
  147MOL0     H19387   3.615  -0.177   1.774  1.2012 -1.5161  0.0451
  147MOL0     H19388   3.984  -0.021   1.669 -1.0552  2.7896 -0.3414
  147MOL0     H19389   4.200   0.109   1.635  3.3027  0.0850  0.1993
  147MOL0     H19390   3.579   0.910   1.740 -0.1304  0.1081  0.7571
  147MOL0     H19391   3.416   1.087   1.852 -0.6526  0.4999  0.1011
  147MOL0     H19392   2.923   1.248   1.808 -3.3300 -1.1057  0.9488
  147MOL0     H19393   2.766   1.367   1.929 -0.3122  1.7783  0.4785
  147MOL0     H19394   2.595   1.421   2.089  1.4372 -0.3699 -1.9701
  147MOL0     H19395   2.695   1.554   2.025 -3.0208  2.7092 -0.0066
  147MOL0     H19396   2.663   1.660   2.271 -0.5799  1.4924 -1.7618
  147MOL0     H19397   2.546   1.671   2.153  1.7412 -0.9864 -2.1975
  147MOL0     H19398   2.528   1.418   2.351  2.0411  0.2985  1.3494
  147MOL0     H19399   2.402   1.494   2.254 -0.2610  3.5867 -0.9133
  147MOL0     H19400   2.403   1.695   2.376  0.9957 -0.9390 -1.8074
  147MOL0     H19401   2.343   1.558   2.453 -0.5141 -0.3142 -1.0495
  147MOL0     H19402   2.639   1.718   2.701  3.0649 -2.3267 -1.4061
  147MOL0     H19403   2.996   1.347   2.292  1.4036  0.5829  0.1947
  147MOL0     H19404   3.145   1.190   2.176 -1.9748 -1.9838  0.7756
  148MOL0     O19405   0.876   7.168  11.223  0.4217 -0.4115  0.6195
  148MOL0     C19406   0.926   7.242  11.304  0.1998  0.5643  0.1659
  148MOL0     O19407   0.858   7.282  11.422  0.0413  0.1130 -0.0728
  148MOL0     C19408   0.753   7.210  11.467  0.1433  0.5488 -0.0200
  148MOL0     C19409   0.623   7.261  11.462 -0.6992  0.3653 -0.4914
  148MOL0     C19410   0.514   7.178  11.511 -0.2350  0.3350  1.0835
  148MOL0     C19411   0.534   7.057  11.573 -0.9119 -0.7249 -0.5069
  148MOL0     O19412   0.419   6.983  11.597 -0.5170 -0.1622 -0.0418
  148MOL0     C19413   0.415   6.877  11.694 -0.3013  0.4617  1.2991
  148MOL0     C19414   0.295   6.890  11.780  0.7875  0.3963 -0.3410
  148MOL0     C19415   0.170   6.931  11.714 -0.4006 -0.3755 -0.0390
  148MOL0     C19416   0.105   6.832  11.626 -0.3857 -0.1113 -0.0736
  148MOL0     C19417  -0.048   6.850  11.589 -0.5078  0.5279 -1.1180
  148MOL0     C19418  -0.132   6.823  11.713 -0.5615  0.7546 -0.0258
  148MOL0     C19419  -0.288   6.835  11.679 -0.4628 -0.1830  0.4907
  148MOL0     C19420  -0.364   6.759  11.786  0.7370 -0.2189 -0.1743
  148MOL0     N19421  -0.509   6.761  11.752  0.5916  0.1601 -0.3266
  148MOL0     C19422  -0.578   6.694  11.657  1.1857  0.2170 -0.3577
  148MOL0     C19423  -0.711   6.713  11.683 -0.1292 -0.1769  1.0070
  148MOL0     C19424  -0.823   6.665  11.599  1.0233  0.0191  0.1704
  148MOL0     C19425  -0.807   6.532  11.527 -0.0499 -0.9059 -0.4824
  148MOL0     C19426  -0.794   6.412  11.613  0.8109 -0.2563  0.1145
  148MOL0     C19427  -0.918   6.399  11.709  0.1929  0.1641  0.4666
  148MOL0     O19428  -1.043   6.417  11.628 -1.1324  0.4330  0.0993
  148MOL0     C19429  -1.157   6.404  11.695 -0.3575  0.8102  0.1777
  148MOL0     C19430  -1.273   6.369  11.635  0.3440 -0.4456  0.5033
  148MOL0     C19431  -1.388   6.354  11.707  0.0327 -0.2638 -0.1041
  148MOL0     C19432  -1.395   6.383  11.847 -0.1584  0.1452  0.3472
  148MOL0     C19433  -1.523   6.376  11.927 -0.1561  0.0117 -1.0981
  148MOL0     O19434  -1.647   6.380  11.865 -0.8268 -0.8943  0.5864
  148MOL0     C19435  -1.769   6.371  11.925  0.1486  0.2607 -0.4179
  148MOL0     C19436  -1.849   6.269  11.884 -0.2741 -0.9200  0.7296
  148MOL0     C19437  -1.976   6.259  11.931  0.6338 -0.7393  0.5221
  148MOL0     C19438  -2.026   6.344  12.025 -0.1096 -0.2480  0.1327
  148MOL0     O19439  -2.158   6.327  12.062 -0.6223 -0.8734 -0.1873
  148MOL0     C19440  -2.218   6.425  12.148 -0.4666 -0.5473 -0.5321
  148MOL0     C19441  -2.370   6.404  12.153  0.0986  1.1575  0.7624
  148MOL0     C19442  -2.446   6.507  12.221  0.0576  0.1174 -0.1589
  148MOL0     C19443  -2.603   6.478  12.219 -0.4431 -0.0507 -0.8979
  148MOL0     C19444  -2.688   6.582  12.302 -2.0398  0.5306  0.1326
  148MOL0     C19445  -2.835   6.581  12.270  0.1806  0.2724  0.0755
  148MOL0     C19446  -2.912   6.472  12.344 -0.2729  0.5821 -0.2750
  148MOL0     C19447  -3.046   6.457  12.282  0.5933  0.1773  0.3453
  148MOL0    Cl19448  -3.131   6.612  12.313  0.2081  0.0545  0.5435
  148MOL0     C19449  -1.945   6.450  12.066 -0.6725 -0.6705  0.4930
  148MOL0     C19450  -1.815   6.463  12.012 -0.2251  0.4606 -0.0416
  148MOL0     O19451  -1.509   6.373  12.047  0.3202  0.1151 -0.0583
  148MOL0     C19452  -1.273   6.399  11.915  0.6172 -0.5501  0.4181
  148MOL0     C19453  -1.154   6.412  11.841  0.6374 -0.0269  1.2019
  148MOL0     N19454  -0.722   6.784  11.795 -0.0984  0.0648 -0.0989
  148MOL0     N19455  -0.606   6.812  11.837 -0.1436 -0.2590 -0.1288
  148MOL0     C19456   0.667   7.012  11.588  1.2167  0.2837 -0.2167
  148MOL0     C19457   0.776   7.095  11.541 -0.7286  0.4350 -0.1257
  148MOL0     C19458   1.062   7.300  11.261 -0.1302  0.0826 -0.4278
  148MOL0     C19459   1.127   7.383  11.360  0.8979 -0.7581  0.2899
  148MOL0     C19460   1.250   7.431  11.335  0.6569  0.0723  0.4232
  148MOL0     C19461   1.323   7.395  11.232  0.8392  0.1481 -0.1802
  148MOL0     O19462   1.443   7.440  11.215  0.0049  0.1969 -0.0373
  148MOL0     C19463   1.546   7.351  11.175 -0.3848 -0.1237 -0.4776
  148MOL0     C19464   1.546   7.215  11.240  0.1755 -0.3773  0.9416
  148MOL0     C19465   1.685   7.146  11.234 -0.4589 -0.6396 -0.0433
  148MOL0     C19466   1.674   7.021  11.309  1.0549  0.6888  0.7557
  148MOL0     C19467   1.779   6.923  11.294  0.0812  0.0257 -0.5592
  148MOL0     C19468   1.873   6.860  11.275 -0.2855  0.6761  0.7151
  148MOL0     C19469   1.262   7.312  11.137  0.2913  0.2215  0.1881
  148MOL0     C19470   1.129   7.264  11.146 -0.1500 -0.6511 -0.2492
  148MOL0     H19471   0.603   7.354  11.410  0.2791  1.5556  1.1593
  148MOL0     H19472   0.410   7.208  11.495 -0.2376 -0.1856  0.0519
  148MOL0     H19473   0.499   6.889  11.763  3.5626 -0.5557 -2.8079
  148MOL0     H19474   0.406   6.779  11.645 -1.2300 -0.1323  2.5801
  148MOL0     H19475   0.318   6.968  11.854 -3.2287 -0.4652  2.1241
  148MOL0     H19476   0.283   6.791  11.825 -2.2705 -1.6466 -4.9315
  148MOL0     H19477   0.185   7.025  11.662  1.2665 -0.5412  0.1017
  148MOL0     H19478   0.103   6.945  11.800  0.4020  0.8388  0.3994
  148MOL0     H19479   0.154   6.849  11.529 -1.1367  0.3842 -0.3717
  148MOL0     H19480   0.130   6.730  11.656 -0.8088 -0.7105 -1.6406
  148MOL0     H19481  -0.058   6.779  11.507 -0.6486 -0.8513  0.0453
  148MOL0     H19482  -0.071   6.950  11.553 -3.4305  0.7410  1.0053
  148MOL0     H19483  -0.116   6.890  11.798 -1.8415  2.9769 -1.4404
  148MOL0     H19484  -0.116   6.717  11.737  0.3551  0.5394 -1.4896
  148MOL0     H19485  -0.310   6.942  11.677 -0.9656 -0.2550  1.6010
  148MOL0     H19486  -0.305   6.788  11.582 -2.0654 -1.6724  1.4315
  148MOL0     H19487  -0.347   6.805  11.884 -1.1768  1.5986 -0.6180
  148MOL0     H19488  -0.329   6.656  11.781 -0.9122 -0.8559  0.7693
  148MOL0     H19489  -0.538   6.651  11.566 -0.7583  0.8706 -1.5830
  148MOL0     H19490  -0.839   6.734  11.517  0.8343 -0.5883 -0.3084
  148MOL0     H19491  -0.907   6.665  11.670 -1.3218  1.5953 -2.4342
  148MOL0     H19492  -0.718   6.535  11.463  1.4812 -2.7372  1.4216
  148MOL0     H19493  -0.891   6.523  11.459 -0.0251  1.0069 -0.8386
  148MOL0     H19494  -0.798   6.324  11.548 -3.3951  0.2469 -0.5845
  148MOL0     H19495  -0.703   6.409  11.674  0.3755  1.7645  0.9623
  148MOL0     H19496  -0.916   6.484  11.779 -1.3354  0.1374  0.5862
  148MOL0     H19497  -0.925   6.307  11.768  0.5350 -0.3467 -0.2749
  148MOL0     H19498  -1.275   6.345  11.529  1.4150 -0.3930  0.4557
  148MOL0     H19499  -1.479   6.328  11.654 -2.1896 -0.0571  3.3502
  148MOL0     H19500  -1.822   6.207  11.800 -0.0818  3.0650 -2.4410
  148MOL0     H19501  -2.042   6.177  11.903 -0.7267  1.1709 -2.3297
  148MOL0     H19502  -2.190   6.519  12.098 -0.2359 -0.6765 -0.6469
  148MOL0     H19503  -2.169   6.424  12.246 -1.1376  0.6732 -0.1612
  148MOL0     H19504  -2.382   6.309  12.206  1.0952  1.1783  1.0462
  148MOL0     H19505  -2.403   6.384  12.050 -0.4155  0.7487  1.0023
  148MOL0     H19506  -2.424   6.597  12.163  0.1311 -0.7388 -1.5098
  148MOL0     H19507  -2.410   6.527  12.322  1.8808  0.0604 -0.7557
  148MOL0     H19508  -2.638   6.456  12.117  1.1619 -2.2278 -1.0640
  148MOL0     H19509  -2.622   6.385  12.272 -0.8166 -0.1672 -1.2301
  148MOL0     H19510  -2.657   6.681  12.268  2.9372  0.2856  3.0638
  148MOL0     H19511  -2.671   6.566  12.409 -3.2998 -1.3212  0.0994
  148MOL0     H19512  -2.851   6.549  12.167  0.6180  0.9872 -0.2180
  148MOL0     H19513  -2.871   6.682  12.296  1.5765  0.2281  2.5024
  148MOL0     H19514  -2.859   6.377  12.337  0.6838  0.9020  1.7752
  148MOL0     H19515  -2.916   6.474  12.454 -1.4538 -4.5022  0.0444
  148MOL0     H19516  -3.101   6.378  12.333 -0.4818  0.1298 -0.8288
  148MOL0     H19517  -3.040   6.431  12.175 -3.0109  0.8605 -0.1275
  148MOL0     H19518  -1.983   6.518  12.142  0.3361  0.9267 -0.3615
  148MOL0     H19519  -1.750   6.547  12.032  2.3107 -1.8170  2.1772
  148MOL0     H19520  -1.260   6.415  12.022 -0.6576 -1.0015  0.6593
  148MOL0     H19521  -1.059   6.426  11.891  2.1948 -1.3957 -1.1838
  148MOL0     H19522   0.684   6.918  11.641 -0.0997  1.0482  1.6530
  148MOL0     H19523   0.878   7.058  11.553 -1.1552 -0.9517 -0.5276
  148MOL0     H19524   1.070   7.396  11.451  0.0234 -3.8860  0.3192
  148MOL0     H19525   1.292   7.487  11.418  0.0417  1.6893 -0.2958
  148MOL0     H19526   1.638   7.400  11.210 -0.0280 -1.0934 -0.0162
  148MOL0     H19527   1.539   7.347  11.066 -1.7880  0.9112 -0.4507
  148MOL0     H19528   1.512   7.209  11.344 -1.3354 -1.4085  0.4196
  148MOL0     H19529   1.483   7.148  11.181 -2.0158  1.6464  0.8605
  148MOL0     H19530   1.759   7.212  11.278 -0.5958 -0.9115  0.6041
  148MOL0     H19531   1.704   7.130  11.127 -2.7308 -1.6859 -0.3564
  148MOL0     H19532   1.671   7.038  11.417 -1.1454  1.7544  0.5829
  148MOL0     H19533   1.587   6.960  11.286  2.6538 -1.8985  1.2184
  148MOL0     H19534   1.963   6.808  11.251  0.8749  2.6785  0.4624
  148MOL0     H19535   1.324   7.278  11.055 -0.9233 -2.7687  0.3518
  148MOL0     H19536   1.076   7.202  11.074 -1.7545 -0.0852  0.3868
  149MOL0     O19537   9.998   2.513   8.704 -0.7845 -0.4987  0.3512
  149MOL0     C19538  10.019   2.521   8.585 -0.9805 -1.0054 -0.2672
  149MOL0     O19539   9.921   2.526   8.488 -0.6077  0.4713  0.5336
  149MOL0     C19540   9.785   2.534   8.503  0.5955  0.4371 -0.6378
  149MOL0     C19541   9.718   2.567   8.620 -1.0974 -0.5681  0.1833
  149MOL0     C19542   9.577   2.567   8.629 -0.0359  0.5770 -0.7313
  149MOL0     C19543   9.501   2.539   8.520 -0.1271 -0.3212  0.6530
  149MOL0     O19544   9.363   2.539   8.512  0.0566 -0.5014 -0.2656
  149MOL0     C19545   9.294   2.586   8.625 -0.1303  0.2586  1.2280
  149MOL0     C19546   9.144   2.600   8.596  0.5963  1.1744  0.8799
  149MOL0     C19547   9.061   2.656   8.707 -0.1008  0.5659 -0.6558
  149MOL0     C19548   8.927   2.702   8.656 -0.4383  0.0191  0.8200
  149MOL0     C19549   8.824   2.713   8.757  0.2476  0.3121  0.3873
  149MOL0     C19550   8.707   2.772   8.692  0.6421 -0.9678  0.2023
  149MOL0     C19551   8.588   2.801   8.776 -0.4048 -0.3431  0.8122
  149MOL0     C19552   8.533   2.941   8.740  0.7955 -0.6115  0.0478
  149MOL0     N19553   8.430   2.983   8.843 -0.6887  0.9527  0.4026
  149MOL0     C19554   8.413   3.111   8.891 -0.2230 -0.0876 -0.2634
  149MOL0     C19555   8.292   3.123   8.942  0.4945 -0.0995  0.6352
  149MOL0     C19556   8.207   3.232   8.994  0.0052  0.1870 -0.4883
  149MOL0     C19557   8.186   3.331   8.886 -0.2440 -0.1824 -0.1770
  149MOL0     C19558   8.066   3.431   8.903  0.4039  0.3203 -0.5124
  149MOL0     C19559   8.019   3.486   8.781 -0.2969  0.8860  0.4401
  149MOL0     O19560   7.921   3.584   8.797 -0.4989 -0.6200 -0.1758
  149MOL0     C19561   7.790   3.559   8.802  1.0636  1.4626 -0.0892
  149MOL0     C19562   7.717   3.434   8.783 -0.8143  0.4236 -0.1659
  149MOL0     C19563   7.575   3.424   8.792  0.0441 -0.2312  0.1677
  149MOL0     C19564   7.503   3.541   8.834 -0.6412 -0.0614  0.5127
  149MOL0     C19565   7.356   3.527   8.866  0.4751 -0.2888 -0.3817
  149MOL0     O19566   7.306   3.626   8.950 -0.3144 -0.2383 -0.0936
  149MOL0     C19567   7.178   3.616   8.996 -0.3127 -0.3752 -0.5808
  149MOL0     C19568   7.152   3.575   9.126 -0.0728 -0.1699 -0.3264
  149MOL0     C19569   7.016   3.575   9.176 -0.3327  0.3790 -0.2492
  149MOL0     C19570   6.905   3.618   9.095 -0.2207  0.5072 -0.4073
  149MOL0     O19571   6.773   3.612   9.148  0.4043 -0.7903 -0.0360
  149MOL0     C19572   6.659   3.621   9.058 -0.0881  0.6814 -0.2199
  149MOL0     C19573   6.532   3.636   9.144  0.0394  0.1583 -0.2474
  149MOL0     C19574   6.400   3.609   9.054  0.0887  0.1420 -0.2190
  149MOL0     C19575   6.412   3.488   8.960 -0.0776 -0.1815  0.0325
  149MOL0     C19576   6.264   3.445   8.918  0.2473 -0.7647 -0.3853
  149MOL0     C19577   6.192   3.552   8.833 -0.3756  0.5187 -0.1236
  149MOL0     C19578   6.041   3.517   8.828 -0.1988 -0.0378 -1.2427
  149MOL0     C19579   5.965   3.638   8.769  0.0222 -0.1486  0.0771
  149MOL0    Cl19580   5.948   3.776   8.892 -0.4711 -0.4548 -0.1119
  149MOL0     C19581   6.943   3.650   8.962 -0.2104 -0.1700 -0.1468
  149MOL0     C19582   7.075   3.646   8.919 -0.8229 -0.1529  0.3175
  149MOL0     O19583   7.291   3.427   8.826 -1.0409 -0.0485 -0.4612
  149MOL0     C19584   7.574   3.664   8.856  0.8604  0.4749  0.1647
  149MOL0     C19585   7.710   3.666   8.841  1.5269 -0.1522 -0.3667
  149MOL0     N19586   8.236   3.001   8.939 -0.0967  0.2333  0.5714
  149MOL0     N19587   8.312   2.918   8.870  0.2857  0.1405 -0.3248
  149MOL0     C19588   9.565   2.500   8.397  1.2506  0.6157  0.1335
  149MOL0     C19589   9.709   2.491   8.393  0.0055 -0.5307 -0.4871
  149MOL0     C19590  10.157   2.542   8.547  0.1435  0.0301 -0.2510
  149MOL0     C19591  10.261   2.560   8.642  0.6876  0.5330 -0.4043
  149MOL0     C19592  10.394   2.588   8.592 -0.0381 -0.2842 -0.6301
  149MOL0     C19593  10.414   2.600   8.454 -1.3428  0.3628  1.0960
  149MOL0     O19594  10.531   2.626   8.390  0.4860 -0.7358  0.6360
  149MOL0     C19595  10.643   2.686   8.456  0.4751  0.2352  0.7304
  149MOL0     C19596  10.718   2.768   8.352  0.2875 -0.7641  0.3616
  149MOL0     C19597  10.668   2.918   8.353 -0.1529  0.9435 -0.9993
  149MOL0     C19598  10.536   2.942   8.281 -0.2374  0.8441  0.5052
  149MOL0     C19599  10.521   3.089   8.251  0.6865 -0.0283  0.4219
  149MOL0     C19600  10.518   3.208   8.225  0.2077 -0.2429  0.9424
  149MOL0     C19601  10.310   2.582   8.363 -0.0486 -0.3767 -0.6862
  149MOL0     C19602  10.184   2.551   8.411  0.0029 -0.2275 -0.0679
  149MOL0     H19603   9.774   2.595   8.709  0.0655 -1.7557 -0.1340
  149MOL0     H19604   9.531   2.592   8.724  2.8706  1.0513  0.6733
  149MOL0     H19605   9.338   2.681   8.657  0.9247  0.2924 -0.2163
  149MOL0     H19606   9.297   2.507   8.700  2.7220 -1.4283 -0.4565
  149MOL0     H19607   9.101   2.502   8.573  3.3453  0.1482 -0.4815
  149MOL0     H19608   9.126   2.655   8.503 -1.8792  1.0454  1.2222
  149MOL0     H19609   9.105   2.745   8.753 -0.2139 -0.3783  1.3773
  149MOL0     H19610   9.044   2.575   8.778 -4.4004 -1.2817 -3.3927
  149MOL0     H19611   8.955   2.792   8.600 -0.4024 -0.6721 -0.3021
  149MOL0     H19612   8.897   2.628   8.581  0.3393  1.0269 -0.5475
  149MOL0     H19613   8.861   2.790   8.824  0.0754 -0.4459  1.3806
  149MOL0     H19614   8.806   2.614   8.801 -2.7360  0.5912  0.0325
  149MOL0     H19615   8.681   2.699   8.614  1.5926 -0.9111 -0.1788
  149MOL0     H19616   8.741   2.864   8.643 -2.0172 -0.0226 -0.0371
  149MOL0     H19617   8.514   2.720   8.779  0.3857 -1.0759  1.0176
  149MOL0     H19618   8.623   2.821   8.878 -1.2507  1.7736  0.7424
  149MOL0     H19619   8.483   2.935   8.644  1.1870 -3.5167 -0.0706
  149MOL0     H19620   8.615   3.014   8.738  0.2669 -0.0015  0.1538
  149MOL0     H19621   8.488   3.187   8.871 -1.7513  1.0429 -2.1389
  149MOL0     H19622   8.264   3.282   9.074  0.4451  1.7180 -1.7144
  149MOL0     H19623   8.112   3.190   9.026 -0.0504 -0.8252 -1.9013
  149MOL0     H19624   8.170   3.284   8.789 -1.4827  0.9212 -0.5445
  149MOL0     H19625   8.263   3.408   8.883  0.8302 -1.2676 -1.7839
  149MOL0     H19626   7.984   3.375   8.949  0.3029  1.8093  1.2661
  149MOL0     H19627   8.095   3.503   8.981  0.6901 -0.1220 -0.2031
  149MOL0     H19628   7.987   3.407   8.713  0.1583  1.0785 -0.0001
  149MOL0     H19629   8.102   3.546   8.744 -0.3516  1.1031  0.6665
  149MOL0     H19630   7.771   3.340   8.773  2.2480  2.2488 -2.8051
  149MOL0     H19631   7.528   3.328   8.779  0.3507 -0.5627  1.3808
  149MOL0     H19632   7.229   3.534   9.190  3.3268  4.1836 -1.1424
  149MOL0     H19633   7.002   3.529   9.273  3.5757  0.9769  0.7565
  149MOL0     H19634   6.641   3.531   8.999 -3.7402  0.9525  0.2553
  149MOL0     H19635   6.672   3.704   8.987 -1.8014  1.9269  0.8369
  149MOL0     H19636   6.524   3.731   9.198  3.2457 -0.6984  2.0505
  149MOL0     H19637   6.529   3.560   9.223 -2.0611 -1.8540 -2.0918
  149MOL0     H19638   6.379   3.703   9.003  0.2385 -0.2951 -1.1113
  149MOL0     H19639   6.315   3.587   9.119 -0.2585 -1.8326 -1.2590
  149MOL0     H19640   6.468   3.521   8.872 -0.6399  1.1530  0.1583
  149MOL0     H19641   6.468   3.404   9.003 -0.9872 -2.0795 -2.2008
  149MOL0     H19642   6.203   3.420   9.005  0.1763 -0.8262 -0.4524
  149MOL0     H19643   6.267   3.350   8.864  1.5982  0.3045 -2.3214
  149MOL0     H19644   6.229   3.565   8.730  2.9645 -1.6630  0.6202
  149MOL0     H19645   6.220   3.643   8.887 -1.6219  0.9186 -0.1314
  149MOL0     H19646   6.023   3.424   8.774  0.0878 -0.5238 -0.5190
  149MOL0     H19647   6.002   3.508   8.930 -1.5419  3.8193 -1.2480
  149MOL0     H19648   5.865   3.614   8.731 -0.6327  1.3794  0.7689
  149MOL0     H19649   6.019   3.670   8.679  0.0070 -2.7098 -0.9498
  149MOL0     H19650   6.861   3.658   8.892  0.0745  0.2313 -0.4438
  149MOL0     H19651   7.102   3.662   8.815 -0.0689  0.0827  0.5422
  149MOL0     H19652   7.516   3.755   8.869  0.2254  0.1511 -0.3252
  149MOL0     H19653   7.760   3.759   8.867 -3.4142  2.6239  0.5481
  149MOL0     H19654   9.510   2.488   8.305 -1.2274  4.8372  0.7935
  149MOL0     H19655   9.757   2.473   8.298 -2.2466  1.3033 -2.0828
  149MOL0     H19656  10.245   2.561   8.749 -0.7046  1.8971 -0.5880
  149MOL0     H19657  10.475   2.607   8.662  0.4305 -2.3130 -0.5562
  149MOL0     H19658  10.714   2.609   8.490  0.9121  0.0816 -0.4588
  149MOL0     H19659  10.617   2.742   8.546  2.5163  0.3924  1.2876
  149MOL0     H19660  10.823   2.775   8.382  0.4966 -3.1795  0.4080
  149MOL0     H19661  10.708   2.736   8.248  2.6444 -1.7473  0.3798
  149MOL0     H19662  10.745   2.981   8.307  0.9433  1.6310  1.5915
  149MOL0     H19663  10.670   2.957   8.455  0.1691 -0.2717 -0.5292
  149MOL0     H19664  10.547   2.881   8.191 -0.7262  1.1576  0.2323
  149MOL0     H19665  10.450   2.906   8.339 -2.3487  5.1177  0.3809
  149MOL0     H19666  10.502   3.313   8.210 -0.5944 -0.6347 -1.5691
  149MOL0     H19667  10.339   2.594   8.259  2.3870 -2.4796 -0.3508
  149MOL0     H19668  10.121   2.529   8.325 -0.9037 -0.4885  0.6475
  150MOL0     O19669   9.813   9.250   8.801 -0.4758  0.3358  0.2835
  150MOL0     C19670   9.795   9.129   8.770 -0.4479  0.0888 -0.8397
  150MOL0     O19671   9.894   9.046   8.720  0.0350  0.3037  0.2771
  150MOL0     C19672  10.016   9.106   8.687  0.6738  0.3755  0.7366
  150MOL0     C19673  10.109   9.125   8.787  0.0551  0.2465 -0.0495
  150MOL0     C19674  10.240   9.169   8.754  0.5066  0.6889  0.5354
  150MOL0     C19675  10.272   9.220   8.626 -0.2800 -0.2642 -0.1660
  150MOL0     O19676  10.382   9.286   8.585  0.2181  0.6166  0.3408
  150MOL0     C19677  10.482   9.314   8.690 -0.1209 -0.6016  0.7027
  150MOL0     C19678  10.584   9.411   8.631  0.1702  0.5481 -0.7399
  150MOL0     C19679  10.531   9.553   8.590  0.3512 -0.3794 -0.5468
  150MOL0     C19680  10.475   9.622   8.720 -0.3448 -0.0908 -0.0520
  150MOL0     C19681  10.469   9.777   8.693  0.3554 -0.0220 -0.4634
  150MOL0     C19682  10.375   9.819   8.583 -0.3658  0.5870  0.1929
  150MOL0     C19683  10.367   9.968   8.555  0.7180  0.4091 -0.4195
  150MOL0     C19684  10.285   9.999   8.432 -0.3559 -0.2311 -0.6223
  150MOL0     N19685  10.141   9.995   8.438  0.4815  0.4288  0.7282
  150MOL0     C19686  10.057  10.052   8.534  0.8246 -0.0426  0.2670
  150MOL0     C19687   9.933  10.027   8.491  0.4457  0.2676 -0.3429
  150MOL0     C19688   9.798  10.058   8.567 -0.7403 -0.0756  0.5133
  150MOL0     C19689   9.729   9.927   8.606  0.0155 -0.4074  0.0472
  150MOL0     C19690   9.635   9.880   8.485  1.0445 -0.0595 -0.8802
  150MOL0     C19691   9.542   9.783   8.551 -0.2118  0.3861  1.0929
  150MOL0     O19692   9.454   9.729   8.455 -0.7364  0.3137 -0.3683
  150MOL0     C19693   9.365   9.634   8.496  1.1350  0.3629 -0.6669
  150MOL0     C19694   9.370   9.563   8.618  0.5706  0.8779 -0.7917
  150MOL0     C19695   9.270   9.473   8.652  0.6369  0.3969 -0.3008
  150MOL0     C19696   9.160   9.451   8.562 -0.5140 -0.4431 -0.9070
  150MOL0     C19697   9.047   9.377   8.618  0.2586 -0.5443  0.8249
  150MOL0     O19698   9.030   9.364   8.751 -0.2425  0.0017  0.0082
  150MOL0     C19699   8.904   9.311   8.789  0.0075 -0.5330 -0.6356
  150MOL0     C19700   8.848   9.193   8.743  0.7027 -0.1144  0.5625
  150MOL0     C19701   8.719   9.153   8.795  0.1747  0.2807  0.5969
  150MOL0     C19702   8.657   9.238   8.888 -0.3010 -0.0237  0.0302
  150MOL0     O19703   8.535   9.215   8.941 -0.2975 -0.3008  0.7874
  150MOL0     C19704   8.471   9.090   8.927 -0.1728  0.9198 -0.2593
  150MOL0     C19705   8.349   9.079   9.016  0.4249 -0.1401 -0.1803
  150MOL0     C19706   8.278   8.946   9.019  1.5341  0.2075 -0.0709
  150MOL0     C19707   8.205   8.919   8.884  0.3326  0.3922  0.8504
  150MOL0     C19708   8.112   8.795   8.889  0.5050 -0.1621 -0.2990
  150MOL0     C19709   7.965   8.851   8.889  0.8054 -0.2457 -0.2487
  150MOL0     C19710   7.852   8.747   8.912  0.0458 -0.4445  0.6499
  150MOL0     C19711   7.722   8.821   8.946  0.1753  0.7920 -0.1649
  150MOL0    Cl19712   7.661   8.927   8.809  0.2477  0.3772  0.4906
  150MOL0     C19713   8.716   9.358   8.920 -0.6690 -1.1698  1.5623
  150MOL0     C19714   8.840   9.391   8.875 -0.0882 -0.2287 -0.6654
  150MOL0     O19715   8.966   9.332   8.528 -0.1579  0.3915 -0.5287
  150MOL0     C19716   9.158   9.515   8.439 -0.6992 -1.2246 -0.1341
  150MOL0     C19717   9.261   9.601   8.403 -0.3044 -0.2574 -0.4110
  150MOL0     N19718   9.945   9.950   8.380  0.3527 -0.4102 -0.1955
  150MOL0     N19719  10.067   9.920   8.349  0.2784 -0.6003 -0.8655
  150MOL0     C19720  10.174   9.202   8.524 -0.7831 -0.0014  0.5143
  150MOL0     C19721  10.050   9.143   8.553 -0.5992  0.2292  0.2178
  150MOL0     C19722   9.656   9.082   8.791  0.3096  0.6219  0.5542
  150MOL0     C19723   9.560   9.153   8.861  0.4382  0.0176 -0.3326
  150MOL0     C19724   9.429   9.101   8.884 -0.1673  0.3336  0.0113
  150MOL0     C19725   9.398   8.968   8.832 -0.9111  0.2933 -0.7927
  150MOL0     O19726   9.277   8.916   8.852 -0.5183 -0.0000  0.0871
  150MOL0     C19727   9.168   8.994   8.894 -0.3546  1.1709 -0.0506
  150MOL0     C19728   9.045   8.900   8.915 -0.3053  0.8847 -0.2245
  150MOL0     C19729   9.014   8.825   8.783  0.6924 -0.2897 -0.3953
  150MOL0     C19730   8.911   8.710   8.788  1.1213  0.9904 -0.1370
  150MOL0     C19731   8.772   8.754   8.819 -0.5702  0.3657  0.4956
  150MOL0     C19732   8.654   8.777   8.839  0.5758  0.7614 -0.2849
  150MOL0     C19733   9.497   8.890   8.769  0.5526  0.3969 -0.5841
  150MOL0     C19734   9.620   8.952   8.737  0.3409  0.2172 -0.0099
  150MOL0     H19735  10.088   9.106   8.891 -3.3183 -0.5304 -0.7634
  150MOL0     H19736  10.306   9.185   8.838  2.0525 -0.2121 -0.4622
  150MOL0     H19737  10.531   9.221   8.720  1.7043  0.8388  2.4772
  150MOL0     H19738  10.441   9.359   8.781  1.7697 -2.8029  2.7715
  150MOL0     H19739  10.642   9.372   8.547 -0.0305 -0.4332 -0.4359
  150MOL0     H19740  10.664   9.427   8.703  0.5190  1.9416 -1.3930
  150MOL0     H19741  10.459   9.536   8.509  0.3218  0.5012 -0.7112
  150MOL0     H19742  10.604   9.618   8.542 -0.9284  1.7622  0.2628
  150MOL0     H19743  10.373   9.592   8.746  0.0176  0.4075  2.0718
  150MOL0     H19744  10.545   9.607   8.802 -0.8054  0.9771  0.5550
  150MOL0     H19745  10.564   9.824   8.668 -0.0832  1.6292  0.7911
  150MOL0     H19746  10.449   9.821   8.791  0.1119 -0.7551 -0.1771
  150MOL0     H19747  10.275   9.781   8.608 -0.9089  2.3279  0.8134
  150MOL0     H19748  10.411   9.772   8.491 -0.8939 -1.4615  0.9723
  150MOL0     H19749  10.318  10.017   8.640  2.5841  0.4461  0.6949
  150MOL0     H19750  10.465  10.009   8.531  0.2626  1.3267 -0.7684
  150MOL0     H19751  10.320   9.932   8.353  3.2933  0.9145 -0.1857
  150MOL0     H19752  10.326  10.097   8.405  3.3915 -1.6910 -0.9221
  150MOL0     H19753  10.073  10.102   8.629 -2.7733  3.5591 -0.7482
  150MOL0     H19754   9.731  10.114   8.501  2.3890  2.3096 -0.9085
  150MOL0     H19755   9.831  10.123   8.649  1.3110 -1.3822  0.7981
  150MOL0     H19756   9.672   9.963   8.691  0.1411  1.4332 -0.6096
  150MOL0     H19757   9.805   9.853   8.636 -0.6710 -1.2483 -0.2440
  150MOL0     H19758   9.571   9.954   8.437 -3.4526 -2.7942  0.2863
  150MOL0     H19759   9.695   9.837   8.405 -0.8189 -0.8653 -1.9151
  150MOL0     H19760   9.493   9.831   8.636 -2.3391 -0.6455  0.5163
  150MOL0     H19761   9.612   9.707   8.588 -0.5560 -1.4391 -1.6866
  150MOL0     H19762   9.455   9.580   8.684 -0.3648  0.6422  0.5006
  150MOL0     H19763   9.275   9.403   8.736  0.9727 -1.2691 -1.6509
  150MOL0     H19764   8.889   9.130   8.666 -2.6304  0.8263 -2.2532
  150MOL0     H19765   8.668   9.066   8.755 -0.9733  0.9931  0.4450
  150MOL0     H19766   8.545   9.012   8.948 -0.1510  1.6622  2.9323
  150MOL0     H19767   8.436   9.078   8.825 -2.8720  3.7832  0.1762
  150MOL0     H19768   8.274   9.153   8.987 -1.7241 -2.6398 -1.4784
  150MOL0     H19769   8.392   9.100   9.114 -1.3392  1.5245  0.2793
  150MOL0     H19770   8.205   8.952   9.100 -1.3340  0.0427 -2.5031
  150MOL0     H19771   8.349   8.864   9.034 -0.3261 -1.9197 -2.2405
  150MOL0     H19772   8.149   9.009   8.858  1.0838  0.6952  0.2166
  150MOL0     H19773   8.280   8.906   8.805  1.4528  0.8209  1.8166
  150MOL0     H19774   8.125   8.737   8.982 -0.6129 -2.3209 -1.4063
  150MOL0     H19775   8.132   8.719   8.813 -0.1320 -2.8801  2.0763
  150MOL0     H19776   7.953   8.892   8.788  1.6927  1.9126  0.4670
  150MOL0     H19777   7.954   8.923   8.970 -0.8622 -0.9410  0.1823
  150MOL0     H19778   7.835   8.685   8.823 -4.6806  3.2526 -1.5253
  150MOL0     H19779   7.881   8.674   8.988  0.4644 -1.9026 -0.8512
  150MOL0     H19780   7.740   8.872   9.041 -1.3746 -0.1969  0.6928
  150MOL0     H19781   7.644   8.747   8.967 -0.4467  0.9135 -1.9148
  150MOL0     H19782   8.668   9.428   8.988 -0.3168  2.2117 -1.3862
  150MOL0     H19783   8.893   9.480   8.908  1.3595 -2.3287  3.2003
  150MOL0     H19784   9.084   9.490   8.364 -2.1654 -0.2017  0.8945
  150MOL0     H19785   9.254   9.649   8.307  1.2685 -0.6323 -0.7430
  150MOL0     H19786  10.190   9.239   8.423  2.9247 -1.1829  0.5116
  150MOL0     H19787   9.985   9.125   8.467  1.9942 -4.5721 -1.1154
  150MOL0     H19788   9.590   9.243   8.912  1.3125 -1.0436  1.0976
  150MOL0     H19789   9.353   9.165   8.927  1.2269  0.5884  2.2326
  150MOL0     H19790   9.146   9.061   8.810 -0.7501 -0.7599 -1.5531
  150MOL0     H19791   9.192   9.045   8.988 -0.1547  2.3586 -0.7256
  150MOL0     H19792   9.062   8.825   8.992  0.9517  0.5848 -0.7593
  150MOL0     H19793   8.961   8.956   8.956  0.2387  0.5924  1.3665
  150MOL0     H19794   9.105   8.773   8.750  1.9155 -0.2401  2.5930
  150MOL0     H19795   8.975   8.902   8.716 -1.7596 -1.4474 -0.4264
  150MOL0     H19796   8.911   8.665   8.688  0.7423  4.2034 -1.6912
  150MOL0     H19797   8.948   8.637   8.860  4.3784  1.7115 -0.9034
  150MOL0     H19798   8.550   8.798   8.855  0.4543  0.9140 -1.2183
  150MOL0     H19799   9.469   8.797   8.722  3.0693 -0.4785 -0.5378
  150MOL0     H19800   9.690   8.901   8.672  1.8629 -2.1696  3.2188
  151MOL0     O19801   3.278   7.122   8.283 -0.2995  0.3158 -0.4203
  151MOL0     C19802   3.246   7.081   8.397  0.5036 -0.1064  0.1085
  151MOL0     O19803   3.134   7.010   8.428 -0.7322  0.0125 -0.6938
  151MOL0     C19804   3.048   6.974   8.325  0.1527  0.6440 -0.4836
  151MOL0     C19805   2.909   6.963   8.357 -0.2598 -0.0910  0.0231
  151MOL0     C19806   2.823   6.909   8.271  0.8440  0.5189 -0.4795
  151MOL0     C19807   2.861   6.875   8.138 -0.1973 -0.9997 -0.5310
  151MOL0     O19808   2.773   6.832   8.045 -0.1229  1.2869  0.3274
  151MOL0     C19809   2.632   6.825   8.073 -0.3730  0.1342 -0.1877
  151MOL0     C19810   2.565   6.760   7.952  0.5792  0.1562  1.2439
  151MOL0     C19811   2.414   6.734   7.966  1.2161 -0.5715 -0.2070
  151MOL0     C19812   2.338   6.876   7.970 -0.2468  0.4661 -0.5380
  151MOL0     C19813   2.191   6.846   7.947  0.0437  0.9144  0.4325
  151MOL0     C19814   2.112   6.966   7.997  0.1984 -0.4387 -0.1448
  151MOL0     C19815   1.960   6.942   7.997  0.5451  0.0794 -0.2687
  151MOL0     C19816   1.875   7.038   8.083 -0.2630  0.1914  0.3067
  151MOL0     N19817   1.911   7.169   8.047 -1.0822 -1.0118  0.0278
  151MOL0     C19818   1.999   7.261   8.103  0.4722 -0.8643 -0.5012
  151MOL0     C19819   1.963   7.375   8.063  0.6712 -0.5394  0.3542
  151MOL0     C19820   2.010   7.509   8.093 -0.1465  0.5835  0.5678
  151MOL0     C19821   2.021   7.542   8.235  0.1976  0.0536  0.0295
  151MOL0     C19822   2.075   7.688   8.240  0.3962  0.5099  0.1206
  151MOL0     C19823   2.077   7.737   8.379 -0.2310  0.1284 -0.1730
  151MOL0     O19824   2.154   7.858   8.387  0.1708  0.8887 -0.1054
  151MOL0     C19825   2.287   7.845   8.426 -0.6530 -0.3494  0.0555
  151MOL0     C19826   2.353   7.723   8.432  0.1914 -0.8664 -0.4220
  151MOL0     C19827   2.482   7.710   8.490  0.2028  0.0551 -0.4007
  151MOL0     C19828   2.545   7.816   8.553 -0.6872 -0.7099  0.1169
  151MOL0     C19829   2.679   7.789   8.607  0.0325  0.5374 -0.0845
  151MOL0     O19830   2.748   7.898   8.649  0.7520  0.4345  0.2723
  151MOL0     C19831   2.882   7.890   8.698  0.6536 -0.1895 -0.3620
  151MOL0     C19832   2.976   7.775   8.705  0.2084 -0.0261 -0.0608
  151MOL0     C19833   3.106   7.786   8.756  0.6785  0.0103 -0.3184
  151MOL0     C19834   3.147   7.907   8.811 -0.3825  0.7565  0.2948
  151MOL0     O19835   3.265   7.925   8.868 -0.0723 -0.8553 -0.0678
  151MOL0     C19836   3.335   7.843   8.951  0.1590  0.5628 -0.8051
  151MOL0     C19837   3.479   7.890   8.964 -0.2286 -0.3927 -0.8074
  151MOL0     C19838   3.542   7.788   9.056  0.3874 -0.5902 -0.1653
  151MOL0     C19839   3.688   7.817   9.062  0.2056 -0.4588 -0.0558
  151MOL0     C19840   3.765   7.697   9.109 -0.6401 -0.1054 -0.7814
  151MOL0     C19841   3.892   7.752   9.185 -0.2252 -0.0837  0.5570
  151MOL0     C19842   3.990   7.653   9.245  1.0648  0.1492  0.1860
  151MOL0     C19843   4.123   7.712   9.272 -0.4933 -0.0999  0.5084
  151MOL0    Cl19844   4.231   7.581   9.338 -0.0682 -0.6235 -0.0060
  151MOL0     C19845   3.061   8.016   8.804  0.2716 -0.4774  0.1079
  151MOL0     C19846   2.926   8.010   8.746 -0.1014  0.2414 -0.5803
  151MOL0     O19847   2.722   7.670   8.608 -0.5448  0.0531  0.1831
  151MOL0     C19848   2.484   7.944   8.539 -0.3827  0.3559  0.1946
  151MOL0     C19849   2.351   7.955   8.482 -0.3822 -0.6569  0.3119
  151MOL0     N19850   1.848   7.362   7.975 -0.4774  0.1648 -0.5762
  151MOL0     N19851   1.818   7.241   7.970  0.2609 -0.4789 -0.0154
  151MOL0     C19852   2.990   6.889   8.106  0.4104  0.1107  0.2105
  151MOL0     C19853   3.088   6.935   8.198 -0.3743  0.3862  0.6085
  151MOL0     C19854   3.347   7.106   8.503  0.7337  0.5152 -0.4449
  151MOL0     C19855   3.321   7.102   8.636 -0.5903 -0.4765 -0.2650
  151MOL0     C19856   3.418   7.114   8.738  0.4427 -0.2786  0.0816
  151MOL0     C19857   3.546   7.110   8.709  0.3371 -0.1844  0.2523
  151MOL0     O19858   3.653   7.085   8.790  0.4804  0.4076  0.3863
  151MOL0     C19859   3.627   7.057   8.926  0.5151 -0.5623 -0.0215
  151MOL0     C19860   3.752   7.041   9.002 -0.6093  0.0622 -0.1257
  151MOL0     C19861   3.780   7.183   9.063 -0.0291  0.2241  0.2486
  151MOL0     C19862   3.784   7.307   8.976 -0.1460  0.0818 -0.4777
  151MOL0     C19863   3.898   7.279   8.889 -0.1123 -0.8206  0.2067
  151MOL0     C19864   3.998   7.252   8.830  0.9713  0.1672  0.6389
  151MOL0     C19865   3.580   7.108   8.571 -0.6995 -0.2031  0.4600
  151MOL0     C19866   3.485   7.109   8.468  0.3236 -0.6896 -0.3322
  151MOL0     H19867   2.875   6.982   8.458 -1.5476  1.5497 -0.6636
  151MOL0     H19868   2.723   6.903   8.312  0.5105  0.8412 -1.2228
  151MOL0     H19869   2.592   6.926   8.084 -0.3194 -0.0287  1.9148
  151MOL0     H19870   2.614   6.768   8.165 -0.5996  2.0553  1.0179
  151MOL0     H19871   2.597   6.656   7.937 -0.5840 -0.0099 -0.3851
  151MOL0     H19872   2.585   6.828   7.868  2.2525 -1.3592  0.3394
  151MOL0     H19873   2.397   6.684   8.061  0.7615  0.6803  0.3855
  151MOL0     H19874   2.374   6.668   7.888 -0.5026  0.3734 -0.1713
  151MOL0     H19875   2.340   6.924   8.069 -0.5833 -1.0965  0.2609
  151MOL0     H19876   2.376   6.945   7.894 -0.8068  2.5025  0.9282
  151MOL0     H19877   2.162   6.758   8.006  0.0870 -0.3022 -1.2879
  151MOL0     H19878   2.164   6.838   7.841  1.3602  0.8481  0.0862
  151MOL0     H19879   2.147   7.048   7.933  0.8405 -1.1524 -0.7247
  151MOL0     H19880   2.141   6.987   8.101 -2.6201  2.5563  0.2197
  151MOL0     H19881   1.922   6.948   7.895 -1.9913  2.7610  0.6928
  151MOL0     H19882   1.937   6.845   8.042 -0.3061  0.0749 -0.6948
  151MOL0     H19883   1.889   7.007   8.187 -1.2530  2.3099  1.1211
  151MOL0     H19884   1.767   7.032   8.068 -0.1868  0.0915 -0.2140
  151MOL0     H19885   2.073   7.242   8.181 -0.1764 -0.2361  0.2790
  151MOL0     H19886   1.955   7.583   8.035  0.7800  0.4863 -0.4695
  151MOL0     H19887   2.108   7.501   8.045 -0.7595 -1.8925 -0.4302
  151MOL0     H19888   2.084   7.468   8.285  1.0909  1.2868  0.8043
  151MOL0     H19889   1.931   7.540   8.296  1.2870 -0.9721  1.6705
  151MOL0     H19890   2.177   7.689   8.200 -0.2159  3.3519 -1.6380
  151MOL0     H19891   2.007   7.759   8.193  0.5240  0.6353  0.1256
  151MOL0     H19892   2.109   7.667   8.457  1.9080  0.5360 -0.6210
  151MOL0     H19893   1.977   7.765   8.411  1.0691  3.1559  1.6235
  151MOL0     H19894   2.313   7.630   8.392 -0.8891  0.0185 -1.4859
  151MOL0     H19895   2.505   7.605   8.477  0.9402  0.3033 -1.1372
  151MOL0     H19896   2.945   7.680   8.662 -1.2314  0.2141  0.3939
  151MOL0     H19897   3.151   7.687   8.762 -1.3571 -0.9502 -0.0821
  151MOL0     H19898   3.328   7.743   8.906 -1.5432 -0.2026  1.0106
  151MOL0     H19899   3.285   7.837   9.048 -3.0482 -2.2916 -2.4168
  151MOL0     H19900   3.482   7.989   9.010 -1.6654 -0.2015 -1.0832
  151MOL0     H19901   3.529   7.885   8.867  0.9659 -0.5552 -0.1991
  151MOL0     H19902   3.519   7.688   9.017  0.4012  0.6495 -3.7314
  151MOL0     H19903   3.499   7.796   9.156 -0.5968 -0.5369 -0.5789
  151MOL0     H19904   3.725   7.845   8.963 -1.6433 -0.1320 -0.6837
  151MOL0     H19905   3.703   7.906   9.124  0.9672  1.1572 -2.4036
  151MOL0     H19906   3.786   7.625   9.030 -0.0436  0.9975 -1.6451
  151MOL0     H19907   3.710   7.641   9.186  2.9774  1.3583  3.2463
  151MOL0     H19908   3.861   7.813   9.269  1.7662 -0.6732  1.7992
  151MOL0     H19909   3.950   7.810   9.113 -2.8490  0.6636 -1.0777
  151MOL0     H19910   3.948   7.616   9.339  1.3225  1.0891  0.6910
  151MOL0     H19911   3.998   7.570   9.175  0.9701 -2.3431  2.9439
  151MOL0     H19912   4.096   7.792   9.342 -1.2560  2.6136 -2.6760
  151MOL0     H19913   4.160   7.746   9.175 -6.1147 -1.5890 -2.6130
  151MOL0     H19914   3.102   8.106   8.848  1.2432 -0.9161  0.1347
  151MOL0     H19915   2.859   8.094   8.730 -0.3478 -0.1500 -1.6857
  151MOL0     H19916   2.527   8.037   8.577 -0.3406  0.6604 -0.5754
  151MOL0     H19917   2.290   8.044   8.481 -1.3268 -1.1644 -3.2462
  151MOL0     H19918   3.019   6.866   8.004 -0.6465  1.4719 -0.4137
  151MOL0     H19919   3.190   6.936   8.162 -0.6765 -2.1731 -0.5134
  151MOL0     H19920   3.222   7.080   8.677  0.1687 -0.8319  1.4845
  151MOL0     H19921   3.380   7.102   8.838  2.0104 -2.7119  0.4916
  151MOL0     H19922   3.558   6.972   8.928 -3.9897  2.7224  0.1541
  151MOL0     H19923   3.570   7.137   8.975  0.9699 -2.0618  3.2757
  151MOL0     H19924   3.743   6.972   9.086 -2.7056  0.9688  0.4721
  151MOL0     H19925   3.833   7.018   8.932 -0.3536  1.3427 -0.2747
  151MOL0     H19926   3.871   7.185   9.124  0.2298  1.9544 -0.1305
  151MOL0     H19927   3.698   7.192   9.135 -0.3113  2.2633 -0.2706
  151MOL0     H19928   3.684   7.312   8.932 -0.6735  2.5723  0.8167
  151MOL0     H19929   3.800   7.398   9.033 -0.4083 -1.3979  2.0991
  151MOL0     H19930   4.091   7.229   8.783  0.1438 -2.9386  0.2481
  151MOL0     H19931   3.685   7.104   8.541 -0.5338 -0.3951  1.0582
  151MOL0     H19932   3.505   7.114   8.361  1.7564  0.8777 -0.0250
  152MOL0     O19933   2.453   2.588   2.793  0.0912  0.6028 -0.5791
  152MOL0     C19934   2.431   2.605   2.916  1.2780  0.0118  0.4931
  152MOL0     O19935   2.319   2.576   2.979 -0.7797  0.0639 -0.2719
  152MOL0     C19936   2.229   2.487   2.933  0.3554  0.3533  0.1747
  152MOL0     C19937   2.241   2.397   2.827 -0.4414  0.0917  1.2514
  152MOL0     C19938   2.131   2.326   2.769 -0.0980 -0.0637 -0.4631
  152MOL0     C19939   2.011   2.340   2.828  0.1609  0.9223 -1.5326
  152MOL0     O19940   1.904   2.276   2.771 -0.5176 -0.1923 -0.8501
  152MOL0     C19941   1.891   2.136   2.782 -0.1603  1.2736 -0.4415
  152MOL0     C19942   1.751   2.103   2.757  0.4018 -0.2206  0.5107
  152MOL0     C19943   1.658   2.155   2.874  0.1727  0.9994  1.3971
  152MOL0     C19944   1.668   2.074   3.009  0.0294 -0.5406  0.5046
  152MOL0     C19945   1.546   2.103   3.087  0.3316  0.0340  0.4954
  152MOL0     C19946   1.568   2.027   3.221  0.3371  0.6824  1.3328
  152MOL0     C19947   1.496   2.098   3.338  0.0090 -0.3382 -0.0154
  152MOL0     C19948   1.574   2.226   3.387  0.3628 -0.0498  0.5183
  152MOL0     N19949   1.708   2.185   3.433  0.0340 -0.3836 -0.0020
  152MOL0     C19950   1.830   2.244   3.399 -0.3418  0.5106  0.7572
  152MOL0     C19951   1.917   2.187   3.487 -0.6985 -0.9989  0.3869
  152MOL0     C19952   2.065   2.203   3.480 -0.0803 -0.0832 -0.0637
  152MOL0     C19953   2.128   2.268   3.349 -0.1858 -0.2129 -0.1638
  152MOL0     C19954   2.282   2.253   3.336  0.5031 -0.6980  0.8182
  152MOL0     C19955   2.335   2.299   3.203  0.0820 -0.5500  0.2983
  152MOL0     O19956   2.472   2.252   3.162  0.6508  0.4179 -0.5519
  152MOL0     C19957   2.586   2.286   3.233 -0.1607  0.2703 -1.0489
  152MOL0     C19958   2.597   2.408   3.304 -1.4199  0.1280 -0.3859
  152MOL0     C19959   2.715   2.428   3.377 -0.6525  1.0019  0.6768
  152MOL0     C19960   2.818   2.335   3.371 -1.1131 -0.2860  0.3890
  152MOL0     C19961   2.939   2.340   3.452 -0.4485  0.2016 -0.2737
  152MOL0     O19962   3.008   2.223   3.467 -0.0452 -0.2360  0.3332
  152MOL0     C19963   3.120   2.205   3.546  0.1444  0.3656  0.5908
  152MOL0     C19964   3.182   2.295   3.630  0.2328  0.0387 -0.3547
  152MOL0     C19965   3.301   2.267   3.696 -0.0787  0.4259 -0.0231
  152MOL0     C19966   3.363   2.141   3.678 -0.2655  0.8704 -0.3681
  152MOL0     O19967   3.470   2.104   3.765  0.4543 -0.3947  0.6811
  152MOL0     C19968   3.474   1.975   3.824  0.3784  0.5898 -0.8109
  152MOL0     C19969   3.605   1.953   3.903  0.0307 -0.3728 -0.0925
  152MOL0     C19970   3.731   1.964   3.811 -0.0608 -0.2138  1.0290
  152MOL0     C19971   3.717   1.894   3.678  0.5037 -0.3737 -0.4701
  152MOL0     C19972   3.848   1.881   3.592 -0.2038 -1.0458 -0.2162
  152MOL0     C19973   3.818   1.805   3.462 -0.2793 -0.1503  0.2207
  152MOL0     C19974   3.913   1.827   3.341  0.2623  0.5253 -1.2473
  152MOL0     C19975   4.054   1.861   3.384 -0.0544  0.4281  0.5406
  152MOL0    Cl19976   4.148   1.893   3.228  0.0859 -0.2655 -0.1862
  152MOL0     C19977   3.308   2.053   3.583  0.1393  0.7199 -0.9538
  152MOL0     C19978   3.189   2.082   3.521 -0.0125 -0.4579  0.5930
  152MOL0     O19979   2.975   2.449   3.482  0.5702 -0.0694 -1.0990
  152MOL0     C19980   2.809   2.227   3.285 -0.1992  1.0402 -0.9937
  152MOL0     C19981   2.690   2.195   3.228 -0.1133 -0.7860  0.5307
  152MOL0     N19982   1.849   2.101   3.572 -0.4742 -0.3346 -0.8587
  152MOL0     N19983   1.726   2.099   3.536 -0.8349 -0.9837 -0.1200
  152MOL0     C19984   1.992   2.417   2.948 -0.0012 -0.5943  0.2449
  152MOL0     C19985   2.104   2.486   2.995 -0.2375  0.3235 -0.4343
  152MOL0     C19986   2.538   2.677   2.992  0.9853 -0.3905  0.9741
  152MOL0     C19987   2.665   2.719   2.927 -0.6330 -0.1216  0.9079
  152MOL0     C19988   2.755   2.789   3.007 -0.1313  0.1668 -0.1064
  152MOL0     C19989   2.734   2.813   3.142  0.2892 -1.1005  0.1662
  152MOL0     O19990   2.840   2.880   3.205 -0.2407  1.2463  0.1062
  152MOL0     C19991   2.842   2.892   3.347  1.0471  0.5071 -0.8720
  152MOL0     C19992   2.976   2.941   3.393  0.2662  0.3647  0.2075
  152MOL0     C19993   3.095   2.852   3.336 -0.9336 -0.3194 -0.4411
  152MOL0     C19994   3.232   2.881   3.415 -0.5607 -0.0423  0.5556
  152MOL0     C19995   3.243   3.028   3.436 -0.3519  0.1974  0.0785
  152MOL0     C19996   3.235   3.148   3.441  0.4156 -0.3951 -0.6254
  152MOL0     C19997   2.613   2.774   3.195 -0.0607 -0.0221 -1.3501
  152MOL0     C19998   2.514   2.707   3.127  0.6564  0.0448 -0.1772
  152MOL0     H19999   2.338   2.367   2.788 -2.1697 -3.4423 -0.8776
  152MOL0     H20000   2.129   2.261   2.682  0.7742  0.4435 -0.8762
  152MOL0     H20001   1.905   2.088   2.879  0.5601  0.5199 -0.9132
  152MOL0     H20002   1.963   2.086   2.717 -0.8343  0.6387 -0.7127
  152MOL0     H20003   1.748   1.993   2.751  2.1304 -0.4754  2.8420
  152MOL0     H20004   1.724   2.143   2.659  4.0856  0.7505 -0.2515
  152MOL0     H20005   1.553   2.153   2.844  0.1403 -1.3153  1.5411
  152MOL0     H20006   1.677   2.263   2.874  0.0488  1.1887 -3.1412
  152MOL0     H20007   1.684   1.968   2.988  2.0525 -0.4295  1.1884
  152MOL0     H20008   1.762   2.104   3.057  1.4612 -1.6234 -1.4613
  152MOL0     H20009   1.457   2.077   3.028 -2.5043  2.0040  3.5206
  152MOL0     H20010   1.547   2.212   3.096  0.0441  0.3546 -2.4238
  152MOL0     H20011   1.670   2.013   3.257 -0.4938  1.5679  4.2686
  152MOL0     H20012   1.520   1.932   3.195  1.1600 -0.0032  2.2846
  152MOL0     H20013   1.395   2.129   3.309  0.8501  2.9780  0.2149
  152MOL0     H20014   1.478   2.029   3.421  2.3388  2.9085  3.5122
  152MOL0     H20015   1.527   2.273   3.474 -1.1776 -1.2573  0.3689
  152MOL0     H20016   1.569   2.299   3.306 -2.0219  0.7654  1.3045
  152MOL0     H20017   1.865   2.309   3.319  0.0900  1.9240  2.0478
  152MOL0     H20018   2.119   2.108   3.481  0.7440  0.3268 -1.4276
  152MOL0     H20019   2.106   2.271   3.555  3.7768  0.5152 -2.3996
  152MOL0     H20020   2.096   2.373   3.340 -2.8811 -1.0462 -1.5026
  152MOL0     H20021   2.073   2.217   3.270  0.7731  1.6019 -2.1038
  152MOL0     H20022   2.320   2.302   3.426  1.0806 -1.2611  0.8810
  152MOL0     H20023   2.295   2.144   3.334 -0.0255 -0.7587  0.2448
  152MOL0     H20024   2.339   2.409   3.210  2.5493 -0.6339  1.2923
  152MOL0     H20025   2.265   2.273   3.123 -1.2839  0.1301  1.2221
  152MOL0     H20026   2.517   2.478   3.324 -0.2535  1.3273  0.2453
  152MOL0     H20027   2.712   2.520   3.436  3.3099  2.4560 -1.0192
  152MOL0     H20028   3.129   2.387   3.653 -0.5186 -0.6080  0.6133
  152MOL0     H20029   3.350   2.333   3.766  2.4184 -1.7095  0.3702
  152MOL0     H20030   3.485   1.894   3.752  3.6693  0.5010 -0.3853
  152MOL0     H20031   3.390   1.957   3.891 -0.3823  2.4205 -1.1993
  152MOL0     H20032   3.601   1.855   3.952 -0.7972 -0.7235 -0.8219
  152MOL0     H20033   3.609   2.031   3.979 -0.3290 -0.1054 -0.3403
  152MOL0     H20034   3.814   1.928   3.873  0.7782 -0.7658 -0.3650
  152MOL0     H20035   3.762   2.063   3.776  3.1200 -2.0091 -1.8618
  152MOL0     H20036   3.675   1.795   3.699  2.8092 -1.5536 -1.0999
  152MOL0     H20037   3.648   1.953   3.617  2.6359  1.5160 -1.1940
  152MOL0     H20038   3.921   1.825   3.650 -0.6472 -0.5011  0.9023
  152MOL0     H20039   3.890   1.977   3.560  2.8396 -1.2011  2.7919
  152MOL0     H20040   3.720   1.833   3.422  0.2292 -1.8340 -2.3766
  152MOL0     H20041   3.836   1.701   3.489  0.8801  0.3723  1.6063
  152MOL0     H20042   3.917   1.742   3.272 -0.8463  1.5655 -2.6647
  152MOL0     H20043   3.872   1.916   3.293  3.2195  3.7043  1.6216
  152MOL0     H20044   4.103   1.785   3.447  0.1079 -1.6222 -1.8918
  152MOL0     H20045   4.062   1.956   3.438  0.7109 -0.0569  1.3129
  152MOL0     H20046   3.356   1.958   3.562 -0.7597 -0.3158  1.3461
  152MOL0     H20047   3.148   2.022   3.440 -0.8682  0.4852  0.3025
  152MOL0     H20048   2.888   2.155   3.268 -0.7888  0.3144 -0.7251
  152MOL0     H20049   2.682   2.105   3.168  0.5601 -0.1409 -0.5633
  152MOL0     H20050   1.892   2.427   2.988 -0.1777 -0.3678 -0.2419
  152MOL0     H20051   2.084   2.563   3.068  0.8897 -0.4700  0.7604
  152MOL0     H20052   2.682   2.701   2.821  0.2116  4.0048  0.1934
  152MOL0     H20053   2.857   2.798   2.972  0.2503  1.3518  1.2169
  152MOL0     H20054   2.818   2.796   3.394 -2.3475  1.4251 -0.4866
  152MOL0     H20055   2.767   2.960   3.387 -1.1146 -1.8348 -0.6541
  152MOL0     H20056   2.986   3.043   3.354  1.7857  1.2102  2.6096
  152MOL0     H20057   2.981   2.945   3.502  0.4908  1.5971  0.1670
  152MOL0     H20058   3.108   2.874   3.230  1.2968 -2.0766 -0.6194
  152MOL0     H20059   3.074   2.745   3.349 -1.3926  0.0534  2.5425
  152MOL0     H20060   3.225   2.824   3.508  3.2875  1.4539  1.9782
  152MOL0     H20061   3.315   2.840   3.356  0.4471  2.1885  0.3245
  152MOL0     H20062   3.226   3.254   3.442  2.6199 -0.1576 -0.3258
  152MOL0     H20063   2.593   2.797   3.299  1.8943  3.9524 -1.6330
  152MOL0     H20064   2.417   2.684   3.169  1.9707 -2.5730  1.7148
  153MOL0     O20065  10.737   7.567  10.286 -0.0019 -0.2518 -0.4353
  153MOL0     C20066  10.757   7.690  10.291 -0.3704  0.6165 -0.0638
  153MOL0     O20067  10.671   7.788  10.321  0.9637 -0.6291 -0.2929
  153MOL0     C20068  10.542   7.761  10.357 -0.2561  0.1756 -0.6901
  153MOL0     C20069  10.463   7.653  10.310 -1.1482 -0.4889  0.1637
  153MOL0     C20070  10.337   7.622  10.365 -0.3267  0.1387 -0.7860
  153MOL0     C20071  10.282   7.710  10.454  0.6229 -0.1825  0.1162
  153MOL0     O20072  10.164   7.700  10.521 -0.0286  0.2249  0.2008
  153MOL0     C20073  10.096   7.575  10.542 -0.5202  0.5106 -0.3284
  153MOL0     C20074   9.950   7.609  10.589 -0.6855 -0.0123 -0.2775
  153MOL0     C20075   9.882   7.476  10.644 -1.1363 -0.1527  0.6152
  153MOL0     C20076   9.731   7.497  10.647 -0.2931  0.4066  0.9650
  153MOL0     C20077   9.673   7.401  10.750  0.5216  0.6279  0.4757
  153MOL0     C20078   9.530   7.444  10.788  0.6426  0.8220 -0.0259
  153MOL0     C20079   9.465   7.362  10.909 -0.4737  0.2465 -0.3829
  153MOL0     C20080   9.455   7.213  10.866  0.0201 -0.8374 -1.0540
  153MOL0     N20081   9.377   7.123  10.951 -1.0118 -0.6399 -0.4044
  153MOL0     C20082   9.249   7.136  11.002 -0.4334 -0.7874  0.3372
  153MOL0     C20083   9.211   7.014  11.049 -0.7355 -0.7952  0.4139
  153MOL0     C20084   9.080   6.974  11.104 -0.2815 -0.0572  1.1495
  153MOL0     C20085   9.000   7.079  11.181 -0.2589 -0.6758 -0.3287
  153MOL0     C20086   8.939   7.012  11.304 -0.2305  0.0558 -0.7294
  153MOL0     C20087   8.801   7.076  11.354 -0.0252 -1.2576 -0.0482
  153MOL0     O20088   8.838   7.210  11.395 -0.1553 -0.1077  0.1171
  153MOL0     C20089   8.757   7.263  11.488  0.1995 -0.6209 -0.5805
  153MOL0     C20090   8.634   7.211  11.527 -0.4397  0.0257  0.0656
  153MOL0     C20091   8.558   7.278  11.619 -0.5034  0.0166 -0.2067
  153MOL0     C20092   8.595   7.395  11.686 -0.7514 -0.1052  0.1239
  153MOL0     C20093   8.495   7.460  11.776  0.0335  0.0624 -0.1699
  153MOL0     O20094   8.379   7.404  11.816  0.7699 -0.2166 -0.6002
  153MOL0     C20095   8.282   7.465  11.887  0.2949 -0.5599  0.7180
  153MOL0     C20096   8.306   7.510  12.016 -0.1771  0.2959  0.0571
  153MOL0     C20097   8.200   7.568  12.078  0.0680  0.4884 -0.1253
  153MOL0     C20098   8.070   7.568  12.024  0.2678  0.2972  0.0013
  153MOL0     O20099   7.971   7.625  12.101 -0.1868 -0.1874  0.3026
  153MOL0     C20100   7.861   7.545  12.137  0.3215 -0.5001 -0.6570
  153MOL0     C20101   7.773   7.648  12.212 -0.2605  0.0443  0.7501
  153MOL0     C20102   7.706   7.742  12.113  1.0225  0.1524 -0.1136
  153MOL0     C20103   7.617   7.851  12.189 -0.9638  1.1673 -0.1880
  153MOL0     C20104   7.694   7.976  12.235  0.3516  0.4375  0.4252
  153MOL0     C20105   7.810   7.965  12.335  0.1554 -0.6413  1.0820
  153MOL0     C20106   7.840   8.105  12.399  0.2654 -0.0824  0.5346
  153MOL0     C20107   7.909   8.202  12.297 -0.9127 -0.9359  0.2924
  153MOL0    Cl20108   8.064   8.136  12.226 -0.3572 -0.0012  0.5126
  153MOL0     C20109   8.042   7.521  11.892  0.1066 -0.0329 -0.5299
  153MOL0     C20110   8.153   7.464  11.824  0.7194 -0.2340  0.0434
  153MOL0     O20111   8.509   7.576  11.795 -0.0756 -0.9924 -0.3223
  153MOL0     C20112   8.725   7.447  11.647  0.8603  0.7923 -0.3751
  153MOL0     C20113   8.800   7.378  11.557 -0.4048  0.6764  0.0833
  153MOL0     N20114   9.311   6.925  11.023 -0.6660 -0.3096 -0.8457
  153MOL0     N20115   9.404   6.993  10.971 -0.1385 -0.2178  0.4828
  153MOL0     C20116  10.351   7.820  10.499  0.0932 -0.2949 -0.6196
  153MOL0     C20117  10.478   7.847  10.448 -0.4855 -1.0603  0.0371
  153MOL0     C20118  10.888   7.733  10.247 -0.2209  0.6237 -0.3330
  153MOL0     C20119  10.904   7.869  10.214 -0.0145  0.1952 -0.0320
  153MOL0     C20120  11.024   7.898  10.142  0.3275 -0.0772  0.2574
  153MOL0     C20121  11.130   7.812  10.138  0.8900 -0.0136  0.3647
  153MOL0     O20122  11.252   7.855  10.092  0.2664  0.1554 -0.4880
  153MOL0     C20123  11.260   7.971  10.011 -1.4227 -0.3035  0.3761
  153MOL0     C20124  11.394   7.976   9.933  1.0072  0.8782 -0.4087
  153MOL0     C20125  11.407   8.102   9.856 -0.5556  0.3754  0.5044
  153MOL0     C20126  11.542   8.099   9.775 -0.3634 -0.6713 -0.3696
  153MOL0     C20127  11.535   8.180   9.659  0.9395  0.3033  0.0307
  153MOL0     C20128  11.507   8.261   9.568  0.4429  0.0683  0.7913
  153MOL0     C20129  11.118   7.679  10.178 -1.2769 -0.0795  0.0313
  153MOL0     C20130  10.999   7.648  10.239 -0.2827 -0.1148 -0.0456
  153MOL0     H20131  10.513   7.584  10.243 -1.3079 -0.9214  0.4801
  153MOL0     H20132  10.287   7.531  10.335  0.3489  0.2506 -2.3738
  153MOL0     H20133  10.165   7.514  10.601 -0.2782  0.3790 -0.7462
  153MOL0     H20134  10.085   7.530  10.443  0.1679  2.9457 -1.5754
  153MOL0     H20135   9.898   7.653  10.503  0.4420  0.4498 -0.7411
  153MOL0     H20136   9.933   7.685  10.666 -2.1806 -0.6429  0.0502
  153MOL0     H20137   9.930   7.461  10.741  0.3301  1.4109  0.1676
  153MOL0     H20138   9.914   7.399  10.574 -0.1277 -0.2309  1.1480
  153MOL0     H20139   9.703   7.601  10.667  1.4107  1.2385 -0.6367
  153MOL0     H20140   9.693   7.470  10.547 -0.1716  0.3675  0.9291
  153MOL0     H20141   9.733   7.402  10.842  0.4839 -0.2009  0.5099
  153MOL0     H20142   9.675   7.301  10.707  1.7508  0.1740  1.5102
  153MOL0     H20143   9.466   7.437  10.700  4.2694 -0.4457 -2.7769
  153MOL0     H20144   9.549   7.545  10.825  3.2031  1.2815 -2.2997
  153MOL0     H20145   9.518   7.378  11.003  1.2865 -2.2609 -0.8409
  153MOL0     H20146   9.371   7.413  10.931  0.4900  2.9907 -2.1415
  153MOL0     H20147   9.556   7.178  10.840 -1.0275 -3.0082 -2.5206
  153MOL0     H20148   9.399   7.209  10.772  0.7297 -4.4872 -1.4720
  153MOL0     H20149   9.196   7.230  11.002  2.6064  1.0671  1.6056
  153MOL0     H20150   9.090   6.882  11.163 -2.5079 -1.2070 -0.1417
  153MOL0     H20151   9.030   6.946  11.011 -2.0930  1.5855  1.5749
  153MOL0     H20152   8.928   7.133  11.119  0.1620 -0.0387 -0.2651
  153MOL0     H20153   9.068   7.152  11.226 -1.9116  1.6707 -1.4414
  153MOL0     H20154   8.917   6.907  11.284 -0.5489 -0.1374  0.5271
  153MOL0     H20155   9.015   7.010  11.383 -1.5552  0.9333  0.6369
  153MOL0     H20156   8.771   7.012  11.437  0.3340 -1.6339 -0.2095
  153MOL0     H20157   8.727   7.073  11.274  0.3427 -2.7897 -0.3477
  153MOL0     H20158   8.585   7.124  11.485  1.7396 -0.5122 -1.5492
  153MOL0     H20159   8.459   7.245  11.648  0.5215 -0.6028  3.0919
  153MOL0     H20160   8.406   7.516  12.058 -0.1608 -1.0470  0.2377
  153MOL0     H20161   8.239   7.621  12.164  4.5291  0.9466 -2.1637
  153MOL0     H20162   7.897   7.467  12.205  1.4582 -0.5603 -1.3084
  153MOL0     H20163   7.808   7.508  12.048  1.7169 -0.1586 -1.6662
  153MOL0     H20164   7.825   7.701  12.293 -1.9449  1.0167  1.2337
  153MOL0     H20165   7.694   7.590  12.262 -1.4987  1.1273  0.1045
  153MOL0     H20166   7.642   7.684  12.045 -0.1640 -0.3067  1.3403
  153MOL0     H20167   7.778   7.797  12.052 -1.3232  0.3439 -2.9615
  153MOL0     H20168   7.542   7.897  12.124 -1.3876  1.8337  0.7355
  153MOL0     H20169   7.568   7.804  12.275 -0.7413  0.6518 -0.3407
  153MOL0     H20170   7.623   8.045  12.282  1.1728  0.4156  1.7421
  153MOL0     H20171   7.721   8.024  12.140  0.4906 -0.5656 -0.0537
  153MOL0     H20172   7.891   7.946  12.263 -1.2714 -1.6506 -0.3309
  153MOL0     H20173   7.791   7.883  12.404  2.5100 -1.6516  0.6426
  153MOL0     H20174   7.743   8.145  12.428 -0.6112 -1.6583 -0.1150
  153MOL0     H20175   7.903   8.102  12.489  0.4949 -1.0179  0.3451
  153MOL0     H20176   7.922   8.297  12.350  2.0311 -0.9720 -0.1639
  153MOL0     H20177   7.842   8.208  12.211 -0.1959 -0.3023 -0.2415
  153MOL0     H20178   7.941   7.509  11.855  0.1561 -1.8506 -0.1890
  153MOL0     H20179   8.145   7.422  11.724 -3.1750  0.8887 -0.2844
  153MOL0     H20180   8.768   7.535  11.695  1.3993 -0.9699  2.6048
  153MOL0     H20181   8.896   7.416  11.525  0.0135 -1.2667 -1.1575
  153MOL0     H20182  10.301   7.878  10.576 -1.1136 -2.9291  0.6885
  153MOL0     H20183  10.530   7.937  10.481 -1.3508 -0.0442 -1.2575
  153MOL0     H20184  10.824   7.941  10.227 -0.0583  0.0287  0.6691
  153MOL0     H20185  11.026   7.995  10.095 -0.7349 -1.0012 -1.7961
  153MOL0     H20186  11.274   8.068  10.059  0.8290 -0.7003  0.6298
  153MOL0     H20187  11.176   7.964   9.942 -2.6177 -1.5466  1.8783
  153MOL0     H20188  11.481   7.968   9.999  1.2292  1.6081 -0.6067
  153MOL0     H20189  11.401   7.898   9.856  0.7651  1.0299 -0.5869
  153MOL0     H20190  11.415   8.183   9.929 -2.4355  0.0729  1.0876
  153MOL0     H20191  11.324   8.120   9.787  0.9530 -0.9267 -1.7848
  153MOL0     H20192  11.622   8.131   9.841 -0.8944 -0.7489  0.3261
  153MOL0     H20193  11.554   7.994   9.747 -0.7582 -1.2921  1.6233
  153MOL0     H20194  11.512   8.337   9.492  3.2169 -0.6832  0.1274
  153MOL0     H20195  11.207   7.617  10.183 -1.9695 -1.0537  0.6428
  153MOL0     H20196  10.991   7.546  10.278  0.9689 -0.4225 -0.5516
  154MOL0     O20197   9.066   3.302   6.030  0.3061  0.1478  0.3076
  154MOL0     C20198   9.048   3.417   6.059  0.4587  0.3750  0.7421
  154MOL0     O20199   8.939   3.470   6.126 -0.5145  0.8785 -0.4471
  154MOL0     C20200   8.828   3.393   6.164  0.3347  0.1611 -0.0547
  154MOL0     C20201   8.832   3.261   6.216 -0.6687 -0.6451  0.5304
  154MOL0     C20202   8.709   3.196   6.258 -0.4406 -1.2888  0.5246
  154MOL0     C20203   8.580   3.263   6.228 -1.0612 -0.1363 -0.4232
  154MOL0     O20204   8.455   3.200   6.247  0.0000  0.0053  0.8677
  154MOL0     C20205   8.444   3.102   6.355 -0.3628 -0.3734 -0.4028
  154MOL0     C20206   8.437   2.956   6.305  0.0459  0.2832  0.4741
  154MOL0     C20207   8.378   2.858   6.412  0.7435  0.2029 -0.5026
  154MOL0     C20208   8.389   2.705   6.366 -0.5612  1.5357 -0.9150
  154MOL0     C20209   8.543   2.670   6.367  0.1946  0.6945  0.1559
  154MOL0     C20210   8.554   2.514   6.343  0.3638 -0.0425 -0.4702
  154MOL0     C20211   8.656   2.441   6.433 -0.5093  0.0198  0.7097
  154MOL0     C20212   8.728   2.328   6.349 -0.5105 -0.1740 -1.4401
  154MOL0     N20213   8.624   2.234   6.311  1.0359 -0.2821 -0.3884
  154MOL0     C20214   8.560   2.150   6.394 -0.1389  1.0613  0.2930
  154MOL0     C20215   8.495   2.072   6.304  0.2754 -0.4727 -0.8261
  154MOL0     C20216   8.395   1.964   6.344  0.0379 -0.5698 -0.0818
  154MOL0     C20217   8.246   2.012   6.376 -0.7221  0.8684 -0.5022
  154MOL0     C20218   8.178   2.041   6.245 -0.2242  0.6733  0.0478
  154MOL0     C20219   8.038   2.077   6.254 -0.2968  0.0033 -1.1585
  154MOL0     O20220   7.967   1.983   6.338  0.6442 -0.3388  0.8937
  154MOL0     C20221   7.849   2.025   6.390  0.1240 -0.3180  0.4635
  154MOL0     C20222   7.753   2.090   6.306 -0.3397 -0.8902 -0.3494
  154MOL0     C20223   7.630   2.108   6.380 -0.2927 -0.2106 -0.3094
  154MOL0     C20224   7.605   2.097   6.518 -1.2693 -0.5501  0.0069
  154MOL0     C20225   7.473   2.132   6.570  0.7199  0.3473  0.2919
  154MOL0     O20226   7.383   2.194   6.485 -0.1010  0.0377 -0.2219
  154MOL0     C20227   7.256   2.235   6.514  0.6094  0.5307 -0.0612
  154MOL0     C20228   7.163   2.163   6.585 -1.8897  0.0829  0.3821
  154MOL0     C20229   7.029   2.202   6.597 -0.1983 -0.6899 -0.0767
  154MOL0     C20230   6.991   2.326   6.537  0.1280  0.4449 -0.0709
  154MOL0     O20231   6.855   2.367   6.534  0.4943  0.1078 -0.0525
  154MOL0     C20232   6.848   2.488   6.610  0.0037 -0.9337 -1.2712
  154MOL0     C20233   6.699   2.523   6.642 -0.2169 -0.1036  0.6421
  154MOL0     C20234   6.696   2.614   6.773 -0.0654 -0.4543  0.3627
  154MOL0     C20235   6.560   2.659   6.805 -0.4371  0.0651  0.5405
  154MOL0     C20236   6.470   2.549   6.858  0.2092 -0.2342 -0.8257
  154MOL0     C20237   6.327   2.599   6.887 -0.6553  0.6710 -0.2239
  154MOL0     C20238   6.242   2.476   6.940 -0.1072 -0.9497 -0.0694
  154MOL0     C20239   6.095   2.492   6.905  0.3040 -0.3136 -0.2472
  154MOL0    Cl20240   6.040   2.620   7.020  0.2728  0.6488 -0.3457
  154MOL0     C20241   7.083   2.403   6.473  0.0049  0.9687  0.3049
  154MOL0     C20242   7.217   2.354   6.457  0.0241  0.0811 -0.4208
  154MOL0     O20243   7.453   2.113   6.693  0.1418 -0.7394 -0.2764
  154MOL0     C20244   7.716   2.046   6.593  0.2873  0.1713  0.2451
  154MOL0     C20245   7.831   1.994   6.531 -0.6523 -1.1141 -0.6826
  154MOL0     N20246   8.503   2.120   6.171  0.3627  0.1879  0.1874
  154MOL0     N20247   8.585   2.217   6.183  0.1887 -0.0433 -0.3110
  154MOL0     C20248   8.590   3.384   6.169  0.4183 -0.9852 -0.5100
  154MOL0     C20249   8.706   3.455   6.146 -0.4648  0.5081 -0.4617
  154MOL0     C20250   9.156   3.508   6.017 -0.0721 -0.3043 -0.2571
  154MOL0     C20251   9.262   3.471   5.936  0.4287  0.4021  0.3999
  154MOL0     C20252   9.377   3.543   5.921 -0.1311 -0.7494  0.6727
  154MOL0     C20253   9.389   3.666   5.983 -0.2555  0.0568  0.0242
  154MOL0     O20254   9.502   3.734   5.957  0.0176  0.0246  0.2436
  154MOL0     C20255   9.496   3.876   5.937 -0.3294 -0.1042  0.2931
  154MOL0     C20256   9.628   3.936   5.915 -0.8290 -0.2104 -0.3201
  154MOL0     C20257   9.736   3.853   5.834  0.2032 -0.8605 -0.4805
  154MOL0     C20258   9.858   3.939   5.805 -1.1967  0.9310 -0.2561
  154MOL0     C20259   9.850   4.064   5.723 -1.2013  0.3808 -0.9148
  154MOL0     C20260   9.847   4.171   5.652 -0.9376 -0.0396 -0.2778
  154MOL0     C20261   9.278   3.714   6.059  0.0058 -0.5028  0.4056
  154MOL0     C20262   9.166   3.635   6.078  0.0460 -0.2856  0.2306
  154MOL0     H20263   8.929   3.215   6.229  0.3408  0.8149 -1.3771
  154MOL0     H20264   8.707   3.094   6.297  0.2333 -1.0424  1.2153
  154MOL0     H20265   8.349   3.123   6.403 -1.1019 -1.1069 -1.4904
  154MOL0     H20266   8.517   3.118   6.435  0.3264 -0.1242 -1.0693
  154MOL0     H20267   8.540   2.925   6.284  0.5469  1.1981  1.5077
  154MOL0     H20268   8.380   2.954   6.212  1.0806  0.5615 -0.1848
  154MOL0     H20269   8.271   2.876   6.421  0.5076 -0.8161 -1.1376
  154MOL0     H20270   8.417   2.877   6.512 -0.1255 -0.1326 -0.0889
  154MOL0     H20271   8.355   2.648   6.453  0.6613 -0.6567 -1.8032
  154MOL0     H20272   8.339   2.669   6.276  2.3747 -2.6182 -1.1369
  154MOL0     H20273   8.588   2.697   6.463 -0.0442 -0.9764  0.7610
  154MOL0     H20274   8.606   2.724   6.295  3.0036  0.3370  2.1898
  154MOL0     H20275   8.588   2.502   6.240  0.7897  1.3727 -0.5147
  154MOL0     H20276   8.452   2.476   6.352  0.6132 -0.7380 -0.5674
  154MOL0     H20277   8.734   2.497   6.485  0.5975 -0.2750 -0.5886
  154MOL0     H20278   8.596   2.408   6.519  2.1062  1.3011  3.2162
  154MOL0     H20279   8.789   2.278   6.425 -5.2580  1.0287  3.8883
  154MOL0     H20280   8.782   2.378   6.269  0.0210  1.1854 -0.2832
  154MOL0     H20281   8.566   2.150   6.502 -0.5161  0.8291  0.3149
  154MOL0     H20282   8.445   1.922   6.432  2.8996  0.2689 -1.1959
  154MOL0     H20283   8.386   1.882   6.272 -0.0031 -0.1786 -0.5274
  154MOL0     H20284   8.243   2.094   6.449  1.0954  0.5003  0.0540
  154MOL0     H20285   8.202   1.924   6.424 -1.5545  1.9372  0.7842
  154MOL0     H20286   8.236   2.114   6.187  0.6475 -0.4807 -0.5953
  154MOL0     H20287   8.190   1.950   6.185 -0.2201 -1.3608  2.9187
  154MOL0     H20288   8.000   2.065   6.152  1.9793  2.5248 -2.4311
  154MOL0     H20289   8.031   2.178   6.293  1.1255  0.9099 -3.0656
  154MOL0     H20290   7.771   2.115   6.202  4.3127  1.8529  0.8442
  154MOL0     H20291   7.546   2.146   6.323  0.8281  0.9299 -1.2530
  154MOL0     H20292   7.195   2.078   6.645  1.1631  2.1713  1.9693
  154MOL0     H20293   6.960   2.126   6.633 -3.0911  1.8946  0.2160
  154MOL0     H20294   6.900   2.568   6.557  2.8222 -0.8532  1.3231
  154MOL0     H20295   6.915   2.477   6.696  1.3211  2.1110 -1.7741
  154MOL0     H20296   6.649   2.426   6.644  2.8705 -2.1167 -3.3981
  154MOL0     H20297   6.663   2.570   6.550 -4.2651 -2.8148  0.5843
  154MOL0     H20298   6.756   2.705   6.763  0.5937 -0.7592  1.3876
  154MOL0     H20299   6.740   2.566   6.861  2.5863  0.8349 -0.1549
  154MOL0     H20300   6.559   2.734   6.884  0.1987  0.0389  0.5763
  154MOL0     H20301   6.512   2.707   6.719  0.0364 -0.1380  0.1604
  154MOL0     H20302   6.506   2.511   6.954  2.5684  1.1752 -1.0715
  154MOL0     H20303   6.475   2.468   6.784 -0.8782 -0.4998 -0.6265
  154MOL0     H20304   6.285   2.620   6.788  1.5720 -0.1688 -1.4339
  154MOL0     H20305   6.327   2.686   6.953 -2.6110  1.4876 -1.2231
  154MOL0     H20306   6.288   2.382   6.909 -0.7739 -1.7926  1.3794
  154MOL0     H20307   6.249   2.477   7.049  2.0085  0.5841 -0.1652
  154MOL0     H20308   6.033   2.403   6.923 -2.5256  1.5995  0.0959
  154MOL0     H20309   6.084   2.525   6.802  0.8816  1.1236  0.1344
  154MOL0     H20310   7.055   2.501   6.434  0.4156  0.5780 -1.0431
  154MOL0     H20311   7.275   2.409   6.383 -3.6614 -1.3983 -4.8839
  154MOL0     H20312   7.707   2.026   6.699 -2.0787 -1.8167 -0.2305
  154MOL0     H20313   7.912   1.939   6.578 -1.7520 -2.3339 -0.1746
  154MOL0     H20314   8.502   3.446   6.156  1.8808  1.4568  0.6503
  154MOL0     H20315   8.698   3.559   6.115  0.8784  1.3339  1.7436
  154MOL0     H20316   9.271   3.374   5.887 -0.6828  0.3052  0.3566
  154MOL0     H20317   9.460   3.502   5.865  0.8731  2.3319 -0.3356
  154MOL0     H20318   9.453   3.930   6.022  1.7038 -1.6713  2.4537
  154MOL0     H20319   9.446   3.902   5.844  2.8086  0.2180 -1.4416
  154MOL0     H20320   9.616   4.033   5.867 -1.0890  1.0699  2.1722
  154MOL0     H20321   9.677   3.965   6.009  2.1506  4.1788 -2.8488
  154MOL0     H20322   9.685   3.822   5.743 -3.5862 -2.0004  1.8017
  154MOL0     H20323   9.766   3.763   5.888  1.9623 -1.3211 -2.1233
  154MOL0     H20324   9.891   3.968   5.905  1.0113  0.7806 -0.8933
  154MOL0     H20325   9.934   3.870   5.767 -1.5634 -0.9410  2.1342
  154MOL0     H20326   9.840   4.257   5.589  0.3401  0.4605  0.2360
  154MOL0     H20327   9.282   3.815   6.097 -1.1081 -0.0208 -0.7049
  154MOL0     H20328   9.094   3.664   6.153  0.0227 -2.9461  1.3653
  155MOL0     O20329   5.602   3.888  10.055 -0.6182  0.3919  0.2425
  155MOL0     C20330   5.660   3.785  10.083 -1.3813  0.0595  0.1245
  155MOL0     O20331   5.615   3.684  10.149 -0.2346 -0.2926 -0.2664
  155MOL0     C20332   5.483   3.682  10.178 -0.2873 -0.1880 -0.2171
  155MOL0     C20333   5.400   3.595  10.096 -0.2735  0.1465  0.1958
  155MOL0     C20334   5.258   3.586  10.121  0.5119 -0.4267  0.1142
  155MOL0     C20335   5.195   3.659  10.216  0.3727 -0.0320 -0.5652
  155MOL0     O20336   5.063   3.670  10.236 -0.3141 -0.2106 -0.3316
  155MOL0     C20337   4.956   3.638  10.142 -0.5729 -0.6930 -0.3535
  155MOL0     C20338   4.976   3.725  10.017  0.3515  0.4684 -0.0369
  155MOL0     C20339   4.848   3.761   9.942 -0.1982 -0.0160  0.3729
  155MOL0     C20340   4.757   3.639   9.901  0.1843  0.1238 -0.8225
  155MOL0     C20341   4.632   3.694   9.836 -0.1840  0.5901 -0.3786
  155MOL0     C20342   4.543   3.781   9.933  0.3070  0.5255  0.0311
  155MOL0     C20343   4.395   3.778   9.893 -0.4758  0.0214  0.0316
  155MOL0     C20344   4.375   3.827   9.754  0.7131  0.7329  0.3208
  155MOL0     N20345   4.239   3.824   9.709 -0.2002 -0.1204  0.0514
  155MOL0     C20346   4.159   3.712   9.683  0.2753 -0.0632  0.2230
  155MOL0     C20347   4.039   3.768   9.641 -0.7715  0.5791 -0.0809
  155MOL0     C20348   3.907   3.698   9.631 -0.2343 -0.5350  0.2619
  155MOL0     C20349   3.805   3.781   9.721 -0.4667  0.1997  0.2466
  155MOL0     C20350   3.759   3.711   9.852 -0.0087 -0.8407  1.0005
  155MOL0     C20351   3.859   3.711   9.959 -0.3942 -0.5475 -0.0747
  155MOL0     O20352   3.802   3.643  10.074 -0.0639  0.4793  0.5630
  155MOL0     C20353   3.882   3.629  10.183  0.0905  0.4095 -0.1125
  155MOL0     C20354   3.820   3.570  10.296  0.2791  0.4399  0.1717
  155MOL0     C20355   3.893   3.527  10.407 -0.8495 -0.6270 -0.6115
  155MOL0     C20356   4.034   3.556  10.409  0.4801 -0.3019 -0.6936
  155MOL0     C20357   4.111   3.531  10.530 -0.4746  1.0839  0.1961
  155MOL0     O20358   4.234   3.590  10.554 -0.5368 -0.5865  0.1260
  155MOL0     C20359   4.294   3.570  10.675  0.4731 -0.0417 -0.2606
  155MOL0     C20360   4.435   3.525  10.675  0.0726  0.4089 -0.7675
  155MOL0     C20361   4.493   3.505  10.805 -0.0128 -1.0926 -0.3225
  155MOL0     C20362   4.428   3.537  10.923 -0.6674 -0.7113  0.4109
  155MOL0     O20363   4.499   3.531  11.047  0.5838 -0.3002 -0.3205
  155MOL0     C20364   4.437   3.562  11.174  0.0843  0.1646  1.1878
  155MOL0     C20365   4.522   3.536  11.291  0.7780 -0.0178  0.9224
  155MOL0     C20366   4.666   3.593  11.271 -0.4939  0.4494 -1.0694
  155MOL0     C20367   4.755   3.542  11.392 -0.0131 -0.1340  0.7152
  155MOL0     C20368   4.899   3.586  11.397  0.1287 -0.2356 -0.3936
  155MOL0     C20369   4.986   3.537  11.522 -0.4446 -0.8103 -0.8609
  155MOL0     C20370   5.021   3.393  11.517 -0.1588  0.5524  0.3418
  155MOL0     C20371   5.086   3.351  11.644  0.6997  0.2473 -0.1895
  155MOL0    Cl20372   5.258   3.416  11.650 -0.4389 -0.3496  0.1947
  155MOL0     C20373   4.297   3.582  10.918  0.2414 -0.6975  0.2955
  155MOL0     C20374   4.235   3.594  10.799  0.4847  0.5639  1.3821
  155MOL0     O20375   4.059   3.445  10.603 -0.0044 -0.1742 -0.4066
  155MOL0     C20376   4.098   3.621  10.303  1.1168  0.6204 -0.1571
  155MOL0     C20377   4.017   3.660  10.190 -0.0593 -0.5121  0.3720
  155MOL0     N20378   4.055   3.905   9.641  0.8496 -0.6373  0.3269
  155MOL0     N20379   4.175   3.940   9.687 -0.8181 -0.0052  0.6385
  155MOL0     C20380   5.280   3.747  10.292 -0.0663 -0.2630 -0.6297
  155MOL0     C20381   5.421   3.758  10.271 -0.2698 -0.7165  0.2483
  155MOL0     C20382   5.808   3.784  10.067 -0.1800  0.7968 -0.6019
  155MOL0     C20383   5.865   3.671  10.005 -1.7223  0.4564 -0.2091
  155MOL0     C20384   6.002   3.662  10.016 -0.7669 -0.3133  0.2234
  155MOL0     C20385   6.084   3.749  10.082 -0.2408 -0.6257  0.2536
  155MOL0     O20386   6.210   3.726  10.124 -0.6653  0.2869 -0.2299
  155MOL0     C20387   6.273   3.598  10.085 -0.2996  0.4672 -0.7611
  155MOL0     C20388   6.387   3.599  10.183  0.2449 -0.3615  0.2974
  155MOL0     C20389   6.462   3.466  10.158  1.0891  0.6821 -0.5338
  155MOL0     C20390   6.562   3.452  10.279 -0.9324 -0.0250 -0.2470
  155MOL0     C20391   6.648   3.337  10.247  0.4485  0.3404  0.1051
  155MOL0     C20392   6.717   3.241  10.210  0.2175  0.0713  0.1249
  155MOL0     C20393   6.016   3.862  10.136 -0.9444  0.0206 -0.8550
  155MOL0     C20394   5.881   3.884  10.126 -0.8989  0.0454 -0.7091
  155MOL0     H20395   5.442   3.549  10.007  0.0752 -1.0857  0.9643
  155MOL0     H20396   5.195   3.520  10.062  0.2417  0.8239 -1.0474
  155MOL0     H20397   4.857   3.666  10.178  0.1637  0.9478  0.5142
  155MOL0     H20398   4.957   3.530  10.127  1.2522 -0.7178 -0.3232
  155MOL0     H20399   5.033   3.665   9.945 -1.5017 -0.7447 -0.5678
  155MOL0     H20400   5.033   3.813  10.045  2.1092 -0.2205 -1.2763
  155MOL0     H20401   4.892   3.800   9.850  2.5862 -2.8315  0.3204
  155MOL0     H20402   4.789   3.832  10.000  1.4528  0.9430  0.9303
  155MOL0     H20403   4.812   3.573   9.833  0.9340 -0.9632  0.7948
  155MOL0     H20404   4.733   3.575   9.986  3.2091 -1.7976 -1.2791
  155MOL0     H20405   4.573   3.609   9.799 -1.6247  0.9260  1.0368
  155MOL0     H20406   4.653   3.756   9.749  0.6022 -0.4155 -0.9308
  155MOL0     H20407   4.561   3.889   9.933  0.3763  0.5909  2.5491
  155MOL0     H20408   4.563   3.750  10.037  1.8650  1.7787  0.1322
  155MOL0     H20409   4.359   3.675   9.901  1.7053 -0.8743 -0.8582
  155MOL0     H20410   4.336   3.832   9.968 -1.5779 -0.0199 -0.7746
  155MOL0     H20411   4.426   3.761   9.683  0.8581  0.0433  1.0550
  155MOL0     H20412   4.423   3.925   9.744 -0.8285  1.4569 -0.3623
  155MOL0     H20413   4.177   3.609   9.711 -1.7468 -0.5792 -0.1461
  155MOL0     H20414   3.908   3.592   9.658  0.4478 -1.0366 -1.5774
  155MOL0     H20415   3.883   3.695   9.524  1.3731 -3.1432 -0.1247
  155MOL0     H20416   3.714   3.791   9.661  1.2820  2.2315 -2.3082
  155MOL0     H20417   3.847   3.879   9.745 -0.4817  0.0809  0.7809
  155MOL0     H20418   3.664   3.761   9.871  0.6634  0.4807  0.9626
  155MOL0     H20419   3.736   3.608   9.823 -0.4408 -0.4469 -0.1092
  155MOL0     H20420   3.894   3.811   9.985  0.5128 -1.4690  2.6108
  155MOL0     H20421   3.946   3.657   9.920  1.1729  1.3606  0.6158
  155MOL0     H20422   3.720   3.527  10.295  0.7666 -0.7490  0.5674
  155MOL0     H20423   3.846   3.482  10.494 -1.5933  0.8166 -0.2312
  155MOL0     H20424   4.491   3.511  10.583  1.8486 -0.7319  0.4146
  155MOL0     H20425   4.599   3.485  10.812  0.5876  2.0985  2.2061
  155MOL0     H20426   4.347   3.500  11.184 -0.1538  0.3865  0.4728
  155MOL0     H20427   4.405   3.667  11.183 -3.4158 -0.7024  0.5544
  155MOL0     H20428   4.531   3.427  11.298 -0.5986 -0.2046  0.1713
  155MOL0     H20429   4.472   3.573  11.380 -0.9352  2.2307 -0.8501
  155MOL0     H20430   4.663   3.702  11.271  2.3296  0.7415  2.7535
  155MOL0     H20431   4.703   3.555  11.176  1.7266  1.7460 -0.7795
  155MOL0     H20432   4.706   3.563  11.487 -1.4980  0.7472 -0.1888
  155MOL0     H20433   4.767   3.434  11.393 -0.2604 -0.1596  0.9558
  155MOL0     H20434   4.908   3.694  11.383  0.4909 -0.2824 -0.5312
  155MOL0     H20435   4.951   3.549  11.308  3.2302 -0.0741  1.2284
  155MOL0     H20436   4.950   3.555  11.624  2.4830  2.2334 -0.2099
  155MOL0     H20437   5.076   3.597  11.519 -0.7957 -0.3347 -2.4223
  155MOL0     H20438   4.929   3.340  11.492  0.9815 -1.0783 -0.5788
  155MOL0     H20439   5.084   3.373  11.429 -1.2141 -2.4990  0.1642
  155MOL0     H20440   5.085   3.243  11.662 -2.2317  0.0764 -0.8612
  155MOL0     H20441   5.027   3.388  11.729  2.8570 -0.9520  1.9821
  155MOL0     H20442   4.232   3.591  11.005 -0.8306  0.8670 -0.6199
  155MOL0     H20443   4.128   3.614  10.796  0.2164 -0.7076 -2.2825
  155MOL0     H20444   4.206   3.624  10.303  1.2453 -0.3672 -3.1187
  155MOL0     H20445   4.057   3.708  10.101 -0.5344 -2.3290 -0.8749
  155MOL0     H20446   5.239   3.819  10.362  1.1544 -1.8691  1.8764
  155MOL0     H20447   5.480   3.828  10.328 -1.9349 -0.7523  2.1653
  155MOL0     H20448   5.811   3.587   9.963  0.8413  0.2639 -3.5413
  155MOL0     H20449   6.030   3.565   9.976 -0.0838  0.6616 -1.7895
  155MOL0     H20450   6.297   3.605   9.979 -3.0646  1.0269 -1.4268
  155MOL0     H20451   6.208   3.512  10.105 -2.1452  2.1367  0.9680
  155MOL0     H20452   6.451   3.687  10.174  2.2236 -1.5965  1.4631
  155MOL0     H20453   6.352   3.597  10.287 -0.1798 -0.9402  0.1489
  155MOL0     H20454   6.517   3.456  10.064 -1.6129  0.7535 -2.2398
  155MOL0     H20455   6.386   3.387  10.162  0.7328  1.0045 -0.8522
  155MOL0     H20456   6.627   3.540  10.290  2.6002 -2.4454 -0.2387
  155MOL0     H20457   6.509   3.436  10.373 -1.2938  0.5920 -0.3358
  155MOL0     H20458   6.775   3.152  10.195 -1.8154 -1.6125  1.5405
  155MOL0     H20459   6.064   3.935  10.201  0.7487  0.5954 -2.6815
  155MOL0     H20460   5.833   3.966  10.179 -4.1183 -0.7636 -2.0873
  156MOL0     O20461  10.139   1.570   5.482 -0.1821 -0.6215  0.7956
  156MOL0     C20462  10.249   1.546   5.433 -0.4792 -0.4086  0.4729
  156MOL0     O20463  10.291   1.548   5.301 -0.1079 -0.6562  0.3687
  156MOL0     C20464  10.189   1.590   5.211  0.1823  0.0343 -0.4410
  156MOL0     C20465  10.158   1.726   5.192  0.3525  1.0289 -0.9373
  156MOL0     C20466  10.070   1.768   5.095 -0.0857  0.0803 -0.1448
  156MOL0     C20467   9.995   1.680   5.021 -0.3342 -0.2898 -0.7982
  156MOL0     O20468   9.920   1.729   4.917  0.7518  0.0314  0.2511
  156MOL0     C20469   9.803   1.650   4.874 -0.7662  0.2798  1.4076
  156MOL0     C20470   9.706   1.690   4.976  1.0817 -0.4939 -0.3694
  156MOL0     C20471   9.560   1.654   4.953 -0.2864  0.2776  0.3434
  156MOL0     C20472   9.454   1.688   5.062  0.2083 -0.4394  0.5601
  156MOL0     C20473   9.327   1.635   5.004 -0.0991 -0.1621 -0.7854
  156MOL0     C20474   9.205   1.641   5.094 -0.0924  0.5644 -0.6410
  156MOL0     C20475   9.207   1.529   5.198  0.4940  0.8518 -0.8350
  156MOL0     C20476   9.076   1.522   5.279 -0.0404 -0.0608  0.1034
  156MOL0     N20477   9.069   1.418   5.384  0.4147 -0.1371 -0.4305
  156MOL0     C20478   8.959   1.381   5.446  1.0636  0.7618 -1.1073
  156MOL0     C20479   8.996   1.281   5.521 -0.8757 -0.8880 -0.0049
  156MOL0     C20480   8.902   1.215   5.615  0.5799  0.0808  0.3776
  156MOL0     C20481   8.973   1.134   5.729 -0.5373  0.5529  0.5674
  156MOL0     C20482   9.002   1.215   5.850 -0.6897  0.2281  0.1713
  156MOL0     C20483   8.864   1.230   5.931 -0.0403  0.2667 -0.5990
  156MOL0     O20484   8.879   1.311   6.047  0.1962 -0.2965 -0.5592
  156MOL0     C20485   8.971   1.270   6.145  0.6866 -0.9428 -0.2990
  156MOL0     C20486   8.932   1.207   6.262 -0.1049 -0.0845  0.1441
  156MOL0     C20487   9.027   1.167   6.364  0.8237 -0.1529  1.0914
  156MOL0     C20488   9.159   1.194   6.349 -0.6913  0.0307 -0.7369
  156MOL0     C20489   9.252   1.156   6.463  0.5611 -0.4530 -0.5438
  156MOL0     O20490   9.376   1.198   6.460 -0.1609 -0.0314  0.3676
  156MOL0     C20491   9.467   1.148   6.557 -0.4370  0.6652 -0.5267
  156MOL0     C20492   9.524   1.230   6.653  0.4735  0.0738  1.0997
  156MOL0     C20493   9.612   1.182   6.749  0.2481  0.1112  0.1829
  156MOL0     C20494   9.654   1.046   6.749  0.0522  0.1091  0.1255
  156MOL0     O20495   9.740   1.005   6.847  0.6622 -0.2183  0.7413
  156MOL0     C20496   9.816   0.887   6.821 -0.1834 -0.4068  0.1643
  156MOL0     C20497   9.898   0.856   6.939 -0.6735  0.1645  0.2846
  156MOL0     C20498   9.982   0.960   7.011  0.0010 -0.4409  0.3364
  156MOL0     C20499  10.037   0.894   7.134 -0.7435 -0.5433  0.6823
  156MOL0     C20500  10.162   0.977   7.178 -0.4433  1.1326  0.4885
  156MOL0     C20501  10.207   0.931   7.317  0.4352  0.0331 -0.2767
  156MOL0     C20502  10.331   1.011   7.352 -0.1734 -0.3156 -0.2365
  156MOL0     C20503  10.454   1.005   7.253 -0.6192  0.2822  0.3316
  156MOL0    Cl20504  10.502   0.827   7.238 -0.3681  0.0132 -0.0458
  156MOL0     C20505   9.591   0.955   6.661  0.3227  0.0409  0.3424
  156MOL0     C20506   9.502   1.010   6.563  0.0945 -0.1783 -0.0694
  156MOL0     O20507   9.205   1.089   6.562  0.0269 -0.5894 -0.5637
  156MOL0     C20508   9.204   1.262   6.236 -0.0462  0.6552 -0.0020
  156MOL0     C20509   9.112   1.298   6.131  0.8316  0.1170 -0.8563
  156MOL0     N20510   9.126   1.252   5.509 -0.9797 -0.6087  0.3351
  156MOL0     N20511   9.171   1.333   5.420  0.2170 -0.6663  0.3413
  156MOL0     C20512  10.021   1.544   5.033 -0.1626  1.0839 -0.7326
  156MOL0     C20513  10.121   1.500   5.129 -0.1917 -0.9022  0.5466
  156MOL0     C20514  10.355   1.482   5.518 -0.4605  0.3227  0.0219
  156MOL0     C20515  10.483   1.450   5.468 -0.0924 -0.0153 -0.3710
  156MOL0     C20516  10.580   1.385   5.556  0.2460 -0.5630 -0.5028
  156MOL0     C20517  10.551   1.351   5.688  0.1939 -1.0902  0.4622
  156MOL0     O20518  10.645   1.274   5.744  0.2884  0.1285  0.0718
  156MOL0     C20519  10.608   1.181   5.846 -0.6124 -0.7659  0.0827
  156MOL0     C20520  10.737   1.112   5.890  0.8150  0.3606 -0.2935
  156MOL0     C20521  10.699   0.998   5.991 -0.0238 -0.6103  0.9198
  156MOL0     C20522  10.828   0.918   6.031 -0.3331 -0.4598 -0.6745
  156MOL0     C20523  10.931   1.006   6.082 -0.1203 -0.7879  0.6499
  156MOL0     C20524  11.020   1.070   6.123  0.3008 -0.0811  0.0817
  156MOL0     C20525  10.421   1.380   5.736 -0.2584 -0.2983  0.3206
  156MOL0     C20526  10.328   1.452   5.651 -0.4703  0.5627  0.1748
  156MOL0     H20527  10.184   1.792   5.274 -0.6528 -1.0115  1.1342
  156MOL0     H20528  10.037   1.871   5.101 -1.5519 -0.2906 -1.2267
  156MOL0     H20529   9.813   1.541   4.867 -0.1706  0.4058 -0.0771
  156MOL0     H20530   9.766   1.689   4.779  0.9519  1.8934  1.3425
  156MOL0     H20531   9.707   1.799   4.979 -0.9865 -0.4186 -0.8841
  156MOL0     H20532   9.737   1.639   5.068 -0.0732 -2.8640 -1.2176
  156MOL0     H20533   9.565   1.546   4.937 -0.9290  0.4254 -0.8895
  156MOL0     H20534   9.537   1.688   4.852  0.5520 -0.8168 -0.2384
  156MOL0     H20535   9.482   1.633   5.152  1.0448 -1.3270 -0.2236
  156MOL0     H20536   9.444   1.795   5.082  0.8467 -0.2119 -0.2843
  156MOL0     H20537   9.338   1.529   4.977 -1.7489 -0.6960  0.4031
  156MOL0     H20538   9.312   1.691   4.912  1.6819  0.8246 -0.5044
  156MOL0     H20539   9.115   1.623   5.035 -1.8881  0.2306  2.0240
  156MOL0     H20540   9.193   1.743   5.132 -1.3503 -0.2088  1.2296
  156MOL0     H20541   9.233   1.432   5.154  1.1017 -0.8078  2.8232
  156MOL0     H20542   9.288   1.549   5.268 -0.6291 -1.4596  1.2440
  156MOL0     H20543   8.997   1.498   5.207 -1.2340  0.1436  1.2978
  156MOL0     H20544   9.058   1.620   5.323 -1.9786 -0.7010  0.8512
  156MOL0     H20545   8.857   1.419   5.445  0.2020 -1.4096 -1.5907
  156MOL0     H20546   8.839   1.144   5.559  2.0600 -3.2886  2.6429
  156MOL0     H20547   8.835   1.283   5.668  0.7086 -0.9209  1.9099
  156MOL0     H20548   9.072   1.095   5.708 -0.1137  1.1020  1.4649
  156MOL0     H20549   8.907   1.049   5.750 -1.1544  0.6733 -0.7967
  156MOL0     H20550   9.079   1.159   5.905  2.0634  2.1750 -1.4103
  156MOL0     H20551   9.043   1.315   5.830 -0.7093  0.5059  1.4338
  156MOL0     H20552   8.831   1.129   5.957  0.5105  0.2278 -0.0499
  156MOL0     H20553   8.783   1.260   5.862  0.9173 -1.7743 -2.7765
  156MOL0     H20554   8.825   1.192   6.271 -0.2468 -0.0054 -1.1808
  156MOL0     H20555   8.989   1.102   6.441 -0.1902 -0.1016  0.6482
  156MOL0     H20556   9.487   1.332   6.650  4.2117  1.5634 -2.2548
  156MOL0     H20557   9.656   1.239   6.831  0.3660 -0.9276  0.8655
  156MOL0     H20558   9.871   0.911   6.729 -1.2149  2.7354  0.2471
  156MOL0     H20559   9.752   0.800   6.808 -2.0448  0.9503 -0.1773
  156MOL0     H20560   9.975   0.785   6.906  0.4199  1.0327  0.8882
  156MOL0     H20561   9.834   0.800   7.009 -2.3775 -0.4822 -1.6961
  156MOL0     H20562   9.920   1.044   7.046 -0.0479 -0.2954 -0.0871
  156MOL0     H20563  10.058   1.003   6.945 -1.1745  0.4633 -0.5000
  156MOL0     H20564   9.959   0.887   7.210  0.1141 -0.8354  1.5616
  156MOL0     H20565  10.072   0.794   7.110 -1.7533 -0.7147 -0.1117
  156MOL0     H20566  10.145   1.085   7.170 -1.3134  1.3200  3.5014
  156MOL0     H20567  10.231   0.941   7.101 -2.2786  2.2280 -1.7879
  156MOL0     H20568  10.231   0.824   7.323 -0.0422 -0.1723 -1.6781
  156MOL0     H20569  10.123   0.952   7.383 -0.9514 -1.7896 -1.3676
  156MOL0     H20570  10.306   1.117   7.363  1.2268  0.2308 -1.7968
  156MOL0     H20571  10.366   0.965   7.444  3.2515 -0.5050 -1.4873
  156MOL0     H20572  10.538   1.061   7.295  0.4509 -0.2256 -1.0791
  156MOL0     H20573  10.423   1.043   7.155  2.6717 -1.1814 -1.4481
  156MOL0     H20574   9.616   0.850   6.672 -1.1958 -0.1256  3.2154
  156MOL0     H20575   9.453   0.969   6.476  0.8639  2.4761 -1.8606
  156MOL0     H20576   9.310   1.285   6.224  0.0301 -0.4624 -1.9701
  156MOL0     H20577   9.150   1.352   6.044  1.0579  1.4430  0.0260
  156MOL0     H20578   9.970   1.475   4.967 -0.5780 -1.5071  2.1093
  156MOL0     H20579  10.150   1.396   5.118 -0.0885 -0.9274  1.0342
  156MOL0     H20580  10.511   1.457   5.363  3.7781  0.9315  0.5571
  156MOL0     H20581  10.671   1.347   5.513  0.3420 -0.1806 -0.6367
  156MOL0     H20582  10.544   1.111   5.792 -0.1835  0.9997 -2.9330
  156MOL0     H20583  10.559   1.223   5.935 -0.0812  1.5877 -0.6561
  156MOL0     H20584  10.784   1.077   5.797 -2.9556 -0.0697 -2.2294
  156MOL0     H20585  10.795   1.188   5.944  2.7625 -1.9904  1.1311
  156MOL0     H20586  10.628   0.926   5.949 -1.8403  0.7644  1.4917
  156MOL0     H20587  10.658   1.040   6.084  0.3500  0.7339  0.4994
  156MOL0     H20588  10.785   0.844   6.099 -1.7992  1.6975  0.8775
  156MOL0     H20589  10.883   0.862   5.955  0.5254  2.0077 -1.9798
  156MOL0     H20590  11.106   1.121   6.161  2.3062 -2.8015 -0.4818
  156MOL0     H20591  10.403   1.355   5.840  0.6066 -0.1977  0.5090
  156MOL0     H20592  10.227   1.468   5.686 -0.8149 -1.3686  0.1744
  157MOL0     O20593   6.692   3.802   2.261 -0.1469 -0.0239  0.0266
  157MOL0     C20594   6.744   3.733   2.173  0.4362 -0.8204  0.1036
  157MOL0     O20595   6.684   3.625   2.108  0.1550  0.3618  0.7305
  157MOL0     C20596   6.553   3.599   2.101  0.5031  0.2971 -0.1069
  157MOL0     C20597   6.519   3.467   2.069  0.0123 -0.7757 -0.2408
  157MOL0     C20598   6.385   3.428   2.070  0.4996 -0.5936 -0.6226
  157MOL0     C20599   6.284   3.522   2.110 -0.6023  1.2574  0.2952
  157MOL0     O20600   6.157   3.479   2.127  0.1154  0.7285  0.3817
  157MOL0     C20601   6.111   3.504   2.257 -0.8953  0.0070 -0.0164
  157MOL0     C20602   5.980   3.428   2.287  0.4011 -0.0654 -0.1987
  157MOL0     C20603   5.868   3.476   2.199  0.5225 -0.4126 -0.1062
  157MOL0     C20604   5.780   3.355   2.157  0.7951  0.6193  0.7946
  157MOL0     C20605   5.687   3.375   2.030  0.7267 -0.6645  0.1337
  157MOL0     C20606   5.766   3.427   1.907 -0.3257  0.8464 -0.1434
  157MOL0     C20607   5.886   3.345   1.878  0.6014  0.6318 -0.7032
  157MOL0     C20608   5.966   3.401   1.761 -0.2838  1.1534 -0.1624
  157MOL0     N20609   6.029   3.533   1.780 -0.0723 -0.7684  0.0548
  157MOL0     C20610   6.163   3.563   1.785 -0.1193 -0.1277  0.2950
  157MOL0     C20611   6.184   3.689   1.732 -0.2974  1.1008  0.5419
  157MOL0     C20612   6.317   3.755   1.698 -0.2952 -0.0109  0.4218
  157MOL0     C20613   6.420   3.762   1.817  0.1605 -0.1513  0.1185
  157MOL0     C20614   6.523   3.869   1.788 -0.8166 -0.8806  0.4356
  157MOL0     C20615   6.629   3.854   1.894 -0.0796 -0.2861 -0.4118
  157MOL0     O20616   6.733   3.948   1.868 -0.0098 -0.7047  0.2710
  157MOL0     C20617   6.850   3.909   1.816  0.1019  0.0246 -0.9738
  157MOL0     C20618   6.965   3.983   1.855 -0.4272 -0.4635  0.8810
  157MOL0     C20619   7.093   3.941   1.827 -0.0482  0.3974 -0.3594
  157MOL0     C20620   7.111   3.822   1.762 -0.3603  0.3395 -0.9776
  157MOL0     C20621   7.249   3.774   1.734  0.4940  0.6965 -0.5855
  157MOL0     O20622   7.352   3.863   1.722  0.2842 -1.1234  0.2591
  157MOL0     C20623   7.480   3.831   1.724 -0.4819  0.5714 -0.1394
  157MOL0     C20624   7.542   3.742   1.811  0.6649 -0.6254  0.4855
  157MOL0     C20625   7.669   3.700   1.789  0.5344  0.7623  1.0697
  157MOL0     C20626   7.751   3.766   1.700  0.4071 -0.5870 -0.2342
  157MOL0     O20627   7.875   3.713   1.676  0.2315 -0.1523  0.2172
  157MOL0     C20628   7.986   3.802   1.688  0.4131  0.1491 -0.6833
  157MOL0     C20629   8.096   3.737   1.618 -0.0957 -0.8052  0.1473
  157MOL0     C20630   8.145   3.615   1.701  0.8150 -0.5131 -0.2699
  157MOL0     C20631   8.233   3.530   1.608  0.0218  0.9155 -0.8300
  157MOL0     C20632   8.352   3.593   1.537  0.7028 -0.2300 -0.8903
  157MOL0     C20633   8.441   3.475   1.486 -0.3125 -0.6191  0.0667
  157MOL0     C20634   8.547   3.531   1.384  0.2758 -0.6522  0.3651
  157MOL0     C20635   8.624   3.412   1.325  0.1008 -0.4547  0.5173
  157MOL0    Cl20636   8.749   3.494   1.225 -0.2757 -0.4003 -0.2753
  157MOL0     C20637   7.703   3.873   1.624  0.2909  0.0783  0.4151
  157MOL0     C20638   7.561   3.899   1.631 -0.3018 -0.9055  0.2311
  157MOL0     O20639   7.262   3.657   1.716  1.0419  1.0116  0.5869
  157MOL0     C20640   6.999   3.747   1.719 -0.1086  0.0989  0.6775
  157MOL0     C20641   6.874   3.793   1.740  0.5376 -0.8580  0.7599
  157MOL0     N20642   6.057   3.745   1.720 -0.2597  0.5024 -0.7161
  157MOL0     N20643   5.972   3.657   1.739 -0.4270 -0.1407 -0.9510
  157MOL0     C20644   6.324   3.648   2.142  0.2396 -0.5747 -0.9697
  157MOL0     C20645   6.451   3.681   2.145 -0.1238 -0.9261  0.5371
  157MOL0     C20646   6.899   3.747   2.155  0.4591  0.0335  0.5165
  157MOL0     C20647   6.979   3.856   2.203 -0.2380  0.2327  0.0070
  157MOL0     C20648   7.117   3.864   2.186  0.0464  0.4003 -0.7894
  157MOL0     C20649   7.179   3.762   2.114 -0.1121 -0.0173  0.6803
  157MOL0     O20650   7.314   3.746   2.102  0.7530  0.3224  0.1251
  157MOL0     C20651   7.404   3.853   2.128  1.1293  0.1264 -0.3005
  157MOL0     C20652   7.534   3.785   2.181 -0.6331  0.6034 -0.4807
  157MOL0     C20653   7.647   3.884   2.159 -0.0808 -0.5664 -0.3890
  157MOL0     C20654   7.777   3.844   2.237  0.2674  0.9727 -0.0235
  157MOL0     C20655   7.874   3.777   2.143  0.7306 -0.6010  0.1470
  157MOL0     C20656   7.960   3.724   2.071 -0.0504 -0.3362  0.1749
  157MOL0     C20657   7.108   3.655   2.061 -0.2403 -0.2102  0.5591
  157MOL0     C20658   6.967   3.649   2.075 -0.3951 -0.8859 -0.6941
  157MOL0     H20659   6.595   3.393   2.047  0.2568  0.0429 -2.3546
  157MOL0     H20660   6.355   3.330   2.035  1.8398 -0.8237 -1.1575
  157MOL0     H20661   6.084   3.609   2.264  0.3225  0.3521 -0.3309
  157MOL0     H20662   6.183   3.477   2.335 -1.8656 -0.7421  0.6569
  157MOL0     H20663   5.939   3.453   2.386 -2.8882 -0.4148 -1.3410
  157MOL0     H20664   5.997   3.320   2.279  3.1569  0.0623  2.1330
  157MOL0     H20665   5.915   3.516   2.109  0.9639 -0.2890  0.1813
  157MOL0     H20666   5.809   3.559   2.239  2.1707  0.9163 -0.3438
  157MOL0     H20667   5.844   3.268   2.140  1.6918  0.9419  2.2961
  157MOL0     H20668   5.722   3.324   2.245  0.7114 -3.6301 -0.5103
  157MOL0     H20669   5.609   3.443   2.066 -0.4093 -1.3600 -0.9064
  157MOL0     H20670   5.635   3.282   2.005  0.5361 -0.9307  1.4290
  157MOL0     H20671   5.797   3.530   1.923  2.6830  0.1921 -1.0906
  157MOL0     H20672   5.697   3.415   1.822 -0.8280 -1.6116  0.5225
  157MOL0     H20673   5.950   3.346   1.967 -1.5755  0.5988  0.9430
  157MOL0     H20674   5.856   3.241   1.860  2.6822  0.0864 -1.2610
  157MOL0     H20675   5.900   3.402   1.674  1.7791  1.0547 -1.8293
  157MOL0     H20676   6.047   3.330   1.742 -0.3499  0.6209  1.4759
  157MOL0     H20677   6.244   3.500   1.820 -1.3436 -1.2931  1.0661
  157MOL0     H20678   6.302   3.855   1.657  2.8907 -0.9351 -3.6668
  157MOL0     H20679   6.373   3.689   1.631  2.3196  2.5478 -0.1138
  157MOL0     H20680   6.460   3.660   1.817  0.7763  0.0655 -1.3781
  157MOL0     H20681   6.372   3.766   1.915 -2.2286 -1.4207 -0.9205
  157MOL0     H20682   6.572   3.841   1.694 -0.2304  0.8728  0.1816
  157MOL0     H20683   6.482   3.971   1.781  2.3468  0.4037 -3.8013
  157MOL0     H20684   6.661   3.750   1.889 -1.8081 -0.8132 -2.5169
  157MOL0     H20685   6.593   3.868   1.996  3.8144 -1.1856  1.2375
  157MOL0     H20686   6.945   4.071   1.915 -0.6758  3.0315 -3.7457
  157MOL0     H20687   7.183   3.997   1.850  0.4133 -0.1409 -0.8147
  157MOL0     H20688   7.496   3.683   1.889 -0.1154 -0.4904  0.1350
  157MOL0     H20689   7.694   3.610   1.844 -2.5029 -1.2511 -0.5996
  157MOL0     H20690   8.016   3.812   1.792  0.9305 -3.1562 -0.4102
  157MOL0     H20691   7.953   3.900   1.654  0.3380  0.5216  0.4491
  157MOL0     H20692   8.178   3.806   1.595  0.1943 -1.5818 -1.3445
  157MOL0     H20693   8.061   3.720   1.516  0.5833  2.4104 -0.7339
  157MOL0     H20694   8.058   3.554   1.726  0.5326 -2.0452 -4.1632
  157MOL0     H20695   8.205   3.632   1.790  0.8507 -2.4414  0.1119
  157MOL0     H20696   8.275   3.447   1.665 -3.3049 -0.9730 -0.8946
  157MOL0     H20697   8.164   3.480   1.539 -1.4095 -1.7676  2.2675
  157MOL0     H20698   8.413   3.656   1.603 -0.2336  0.9403 -1.1058
  157MOL0     H20699   8.311   3.648   1.452 -2.9483 -4.5158 -2.2688
  157MOL0     H20700   8.384   3.401   1.428 -1.0764  1.2634 -1.6960
  157MOL0     H20701   8.496   3.429   1.569 -1.0801  0.2674  1.0910
  157MOL0     H20702   8.498   3.592   1.307 -0.5383 -0.3180  1.1404
  157MOL0     H20703   8.618   3.591   1.441  1.1690 -0.2769 -1.0936
  157MOL0     H20704   8.576   3.358   1.243  0.9930 -1.7385  0.8217
  157MOL0     H20705   8.657   3.359   1.415  2.5327  3.0697  1.9200
  157MOL0     H20706   7.760   3.907   1.538 -0.3173  1.3933  0.5180
  157MOL0     H20707   7.515   3.981   1.577 -0.7461 -1.9284 -0.9820
  157MOL0     H20708   7.019   3.652   1.670  0.5880 -0.4882  2.0611
  157MOL0     H20709   6.783   3.744   1.708 -0.1564  0.0024  1.3540
  157MOL0     H20710   6.247   3.717   2.175  0.0322  0.7892 -3.9770
  157MOL0     H20711   6.470   3.780   2.186  0.3378 -0.1717 -1.3642
  157MOL0     H20712   6.931   3.939   2.255  0.1499 -0.1456  0.9843
  157MOL0     H20713   7.168   3.950   2.228  0.2491 -0.9967  2.0216
  157MOL0     H20714   7.370   3.917   2.211  2.5361 -1.7997  1.8805
  157MOL0     H20715   7.425   3.918   2.043 -0.9018  1.1525 -0.0917
  157MOL0     H20716   7.526   3.765   2.288  1.0059  1.4878 -0.1657
  157MOL0     H20717   7.559   3.692   2.128  0.0674 -0.1395  1.0771
  157MOL0     H20718   7.617   3.978   2.207  1.8297 -0.6745  1.1416
  157MOL0     H20719   7.667   3.913   2.056  2.6468  2.3370  0.7741
  157MOL0     H20720   7.823   3.936   2.274  0.5910  2.5086 -3.7914
  157MOL0     H20721   7.767   3.770   2.317  1.6821 -0.1531 -0.8248
  157MOL0     H20722   8.039   3.674   2.019  0.1895  1.2906 -1.1023
  157MOL0     H20723   7.158   3.576   2.005  0.6073 -1.9901  3.5689
  157MOL0     H20724   6.913   3.563   2.036 -3.0554  0.8210 -1.0235
  158MOL0     O20725   0.810   5.837   8.535 -0.0182 -0.4699 -0.6002
  158MOL0     C20726   0.726   5.755   8.498  1.1819 -0.5886 -0.0921
  158MOL0     O20727   0.744   5.636   8.434 -0.1632 -0.0566 -0.1728
  158MOL0     C20728   0.869   5.617   8.385  0.0591  0.0855  0.3767
  158MOL0     C20729   0.927   5.697   8.293 -0.7321 -0.8819  0.0918
  158MOL0     C20730   1.057   5.683   8.255 -0.3324 -0.1542  0.9555
  158MOL0     C20731   1.147   5.606   8.333 -0.2967  0.3290  0.7023
  158MOL0     O20732   1.279   5.635   8.299 -0.1063 -0.8456 -0.0381
  158MOL0     C20733   1.363   5.512   8.310 -1.2474 -0.3970  0.5077
  158MOL0     C20734   1.471   5.517   8.210  0.3567  0.4907  0.2673
  158MOL0     C20735   1.587   5.428   8.248 -0.3496  0.6158 -0.1205
  158MOL0     C20736   1.714   5.468   8.168  0.3466  0.2543  0.7381
  158MOL0     C20737   1.837   5.388   8.202 -0.0777 -0.9028 -0.8592
  158MOL0     C20738   1.833   5.235   8.190 -0.9074 -0.2640 -0.4221
  158MOL0     C20739   1.978   5.185   8.225  0.8664  0.5278 -0.2559
  158MOL0     C20740   2.011   5.032   8.214  0.0362 -0.5718 -0.3119
  158MOL0     N20741   2.139   5.021   8.278  0.4958 -0.6646 -0.7561
  158MOL0     C20742   2.176   4.933   8.387  0.0808 -0.8378  0.2116
  158MOL0     C20743   2.303   4.957   8.415 -0.3640  0.9038  0.3962
  158MOL0     C20744   2.388   4.903   8.527  0.2874 -0.1333  0.3741
  158MOL0     C20745   2.387   4.997   8.645  0.5847 -0.5075 -0.4008
  158MOL0     C20746   2.245   5.012   8.715 -0.3566  1.6083 -1.0692
  158MOL0     C20747   2.256   5.054   8.862 -0.3389 -0.4048 -0.2782
  158MOL0     O20748   2.318   4.954   8.935 -0.6411 -0.4120 -0.4353
  158MOL0     C20749   2.294   4.941   9.070  0.4154 -0.6836 -0.5378
  158MOL0     C20750   2.405   4.911   9.149  0.0852  0.8389 -0.1679
  158MOL0     C20751   2.395   4.891   9.284  0.3785  0.0595 -0.6231
  158MOL0     C20752   2.263   4.882   9.343  0.0634 -0.0385  0.3604
  158MOL0     C20753   2.249   4.840   9.483 -0.3289 -0.1622  0.8465
  158MOL0     O20754   2.353   4.770   9.541 -0.1651 -0.2747  1.0126
  158MOL0     C20755   2.341   4.771   9.672 -0.2295  0.6832 -0.0255
  158MOL0     C20756   2.332   4.645   9.736  0.7001 -0.2008 -0.1835
  158MOL0     C20757   2.314   4.636   9.870  0.5234  0.1818 -0.6369
  158MOL0     C20758   2.307   4.754   9.949  1.0071 -0.6830 -0.0306
  158MOL0     O20759   2.278   4.752  10.082  0.2149 -0.6498 -0.7478
  158MOL0     C20760   2.168   4.672  10.117  0.3654 -0.7286  0.0074
  158MOL0     C20761   2.134   4.661  10.266 -0.2506 -0.0728  1.1021
  158MOL0     C20762   2.057   4.788  10.324 -0.3952  0.5238 -0.4006
  158MOL0     C20763   1.900   4.768  10.304  0.0608  0.5792 -0.5962
  158MOL0     C20764   1.805   4.866  10.382 -0.0325 -0.0329 -0.0658
  158MOL0     C20765   1.818   4.851  10.534 -0.7893 -0.9043  0.5669
  158MOL0     C20766   1.738   4.731  10.580  0.9515 -0.3121  0.2324
  158MOL0     C20767   1.708   4.760  10.721 -0.0460  0.4434 -0.5100
  158MOL0    Cl20768   1.627   4.621  10.796 -0.0851  0.4779  0.0519
  158MOL0     C20769   2.316   4.877   9.891  0.0089  0.0888 -0.9660
  158MOL0     C20770   2.325   4.888   9.755 -0.4611  0.3179  0.4078
  158MOL0     O20771   2.131   4.853   9.529  0.0109 -0.2747 -0.4748
  158MOL0     C20772   2.154   4.924   9.262 -0.2897  0.2130  1.0182
  158MOL0     C20773   2.170   4.945   9.128  0.0671 -0.1094 -0.2137
  158MOL0     N20774   2.346   5.054   8.322 -0.2318 -0.5972 -0.1871
  158MOL0     N20775   2.247   5.092   8.252  0.4880  0.3181  0.4871
  158MOL0     C20776   1.092   5.525   8.427  0.1352  0.4401 -0.5113
  158MOL0     C20777   0.950   5.519   8.448 -0.7036  0.4291 -0.2378
  158MOL0     C20778   0.588   5.795   8.537 -0.5198  0.2189 -0.0671
  158MOL0     C20779   0.559   5.924   8.582  0.4033 -1.3281  1.3612
  158MOL0     C20780   0.425   5.955   8.616 -0.6185 -0.4168 -0.3983
  158MOL0     C20781   0.322   5.866   8.607  0.1807 -0.0202  0.2414
  158MOL0     O20782   0.202   5.912   8.661 -0.2523  0.2178 -0.0667
  158MOL0     C20783   0.091   5.904   8.564  1.2546 -0.1694  0.6764
  158MOL0     C20784  -0.008   5.791   8.566 -0.4289 -0.6281  0.2640
  158MOL0     C20785  -0.102   5.792   8.691 -0.0528 -0.0220  0.6497
  158MOL0     C20786  -0.195   5.913   8.681  0.8409 -0.4754 -1.4449
  158MOL0     C20787  -0.278   5.935   8.559  0.4838  0.8777 -0.2022
  158MOL0     C20788  -0.334   5.959   8.456 -0.1791 -0.1292 -0.1155
  158MOL0     C20789   0.352   5.732   8.566  0.5986 -0.4094  0.2207
  158MOL0     C20790   0.482   5.698   8.528 -0.1110  0.2671 -0.4164
  158MOL0     H20791   0.871   5.780   8.252  3.8643 -0.1040 -5.9428
  158MOL0     H20792   1.095   5.753   8.181 -1.8136 -1.3191 -1.0083
  158MOL0     H20793   1.305   5.420   8.306  1.3006 -2.0973  0.4863
  158MOL0     H20794   1.408   5.515   8.410 -0.1189  0.5623 -0.0022
  158MOL0     H20795   1.515   5.616   8.199 -0.2937  0.7782  0.2362
  158MOL0     H20796   1.432   5.484   8.113 -0.2059 -3.1195  1.5474
  158MOL0     H20797   1.561   5.324   8.227 -2.6372  1.1168 -0.0125
  158MOL0     H20798   1.614   5.442   8.353 -0.4938  2.2089 -0.2662
  158MOL0     H20799   1.699   5.458   8.060 -0.7400  0.4632  0.8582
  158MOL0     H20800   1.750   5.570   8.177  2.6505 -0.3120 -1.1558
  158MOL0     H20801   1.852   5.419   8.305 -0.5421  0.9516 -1.3090
  158MOL0     H20802   1.922   5.433   8.150  0.6210 -2.4579 -1.1389
  158MOL0     H20803   1.816   5.202   8.087 -0.4782 -3.6153  0.4769
  158MOL0     H20804   1.759   5.177   8.246  0.4182 -1.2926  0.3240
  158MOL0     H20805   2.055   5.229   8.161  0.9186 -1.5511 -1.7534
  158MOL0     H20806   2.003   5.218   8.326  0.9400  0.5384 -0.2771
  158MOL0     H20807   2.018   5.000   8.110 -0.0173 -3.0313  0.3754
  158MOL0     H20808   1.929   4.980   8.265  1.9074 -0.5980  3.0141
  158MOL0     H20809   2.110   4.866   8.441  0.0402 -0.9795 -0.0126
  158MOL0     H20810   2.494   4.896   8.500  0.6069 -0.4225  1.6078
  158MOL0     H20811   2.356   4.803   8.559 -2.6132  0.9748  1.2410
  158MOL0     H20812   2.417   5.098   8.616  2.8098 -1.0622 -0.2385
  158MOL0     H20813   2.460   4.974   8.724  1.2700  1.8813 -0.2736
  158MOL0     H20814   2.182   5.087   8.666 -0.1740  2.1464 -0.5057
  158MOL0     H20815   2.182   4.923   8.704  0.0741  1.0536  0.6638
  158MOL0     H20816   2.157   5.078   8.902 -0.3277 -2.8482  1.4272
  158MOL0     H20817   2.316   5.144   8.879 -2.5320  1.5039 -1.9842
  158MOL0     H20818   2.501   4.908   9.098  0.0908  1.2695 -0.1891
  158MOL0     H20819   2.488   4.864   9.332  0.2519 -1.7834 -1.3227
  158MOL0     H20820   2.340   4.552   9.680 -1.1352 -0.4159 -0.1530
  158MOL0     H20821   2.334   4.541   9.920 -0.5242  0.8970  1.2591
  158MOL0     H20822   2.190   4.569  10.087 -0.3046 -0.3090 -2.0793
  158MOL0     H20823   2.083   4.727  10.074  1.9638  3.4480  1.6135
  158MOL0     H20824   2.230   4.652  10.317  0.7591 -4.0293 -1.0562
  158MOL0     H20825   2.093   4.561  10.287 -0.5470  0.6556  4.5509
  158MOL0     H20826   2.093   4.877  10.271 -1.7778  1.8170  0.7506
  158MOL0     H20827   2.078   4.800  10.431  1.4399 -0.5498 -0.5905
  158MOL0     H20828   1.873   4.786  10.200 -0.7678  5.3688  0.2122
  158MOL0     H20829   1.870   4.666  10.328 -3.0346  1.0578 -1.9684
  158MOL0     H20830   1.700   4.849  10.357  0.1657 -1.4432  0.0051
  158MOL0     H20831   1.827   4.972  10.361 -1.8088 -0.0760 -2.7072
  158MOL0     H20832   1.777   4.940  10.584 -1.0377 -0.4421 -0.4279
  158MOL0     H20833   1.923   4.843  10.564  0.0004  1.4852 -1.1920
  158MOL0     H20834   1.642   4.725  10.529 -0.9708  1.3383  3.4023
  158MOL0     H20835   1.798   4.642  10.559  0.6621 -1.0757  2.3773
  158MOL0     H20836   1.649   4.852  10.723  1.9080  1.8367 -2.4302
  158MOL0     H20837   1.800   4.785  10.776  0.0540  1.4983 -1.1340
  158MOL0     H20838   2.305   4.970   9.947 -4.0266  0.0715 -1.4171
  158MOL0     H20839   2.330   4.987   9.710  0.7059 -0.1017 -0.4450
  158MOL0     H20840   2.055   4.923   9.306  0.3880  1.2702  2.6299
  158MOL0     H20841   2.088   4.945   9.057 -0.3145  0.7917  0.2172
  158MOL0     H20842   1.156   5.468   8.494  0.9768 -0.4994 -2.0505
  158MOL0     H20843   0.908   5.447   8.518 -2.4576  0.3784 -1.2924
  158MOL0     H20844   0.638   5.998   8.595  0.4415 -1.5523  2.4785
  158MOL0     H20845   0.393   6.048   8.662  1.6002  0.0674  0.2849
  158MOL0     H20846   0.117   5.881   8.460 -0.6428  0.2999  0.0575
  158MOL0     H20847   0.046   6.003   8.565  1.2655 -0.1657  1.8476
  158MOL0     H20848  -0.057   5.784   8.468  1.3455  2.7515 -1.0200
  158MOL0     H20849   0.051   5.700   8.577 -0.5655 -0.7689 -0.1437
  158MOL0     H20850  -0.055   5.792   8.790 -0.4521  0.3788  0.8422
  158MOL0     H20851  -0.163   5.702   8.700  0.0995 -0.2150 -0.2159
  158MOL0     H20852  -0.274   5.898   8.755  1.0246  0.0394 -1.1402
  158MOL0     H20853  -0.146   6.006   8.711 -1.0183  0.9711 -2.6191
  158MOL0     H20854  -0.390   6.003   8.376 -2.8232 -1.0330  1.1131
  158MOL0     H20855   0.274   5.658   8.552 -0.5206  1.0263 -1.6891
  158MOL0     H20856   0.504   5.601   8.486  0.0957  0.8153 -1.6220
  159MOL0     O20857   4.518   4.295   3.005 -0.1755  0.1772  0.3059
  159MOL0     C20858   4.593   4.238   2.919  0.6115 -0.9910 -0.6072
  159MOL0     O20859   4.545   4.211   2.791 -0.7189  0.3541 -1.1313
  159MOL0     C20860   4.416   4.214   2.775 -0.2314  0.1002  0.6167
  159MOL0     C20861   4.336   4.111   2.822 -0.0074  0.7540  0.7501
  159MOL0     C20862   4.202   4.090   2.781  0.5703  0.3552  0.2754
  159MOL0     C20863   4.156   4.180   2.690  0.8968  0.6355 -0.2133
  159MOL0     O20864   4.038   4.176   2.624  0.0899  0.6936 -0.4579
  159MOL0     C20865   3.915   4.188   2.707 -0.6908 -0.6631 -0.1631
  159MOL0     C20866   3.799   4.166   2.616  0.9082  0.0861 -0.1447
  159MOL0     C20867   3.668   4.154   2.702 -0.4183 -0.2370 -0.0875
  159MOL0     C20868   3.542   4.134   2.610 -0.1610 -0.3830 -1.2657
  159MOL0     C20869   3.409   4.096   2.687 -0.0913  0.4744 -0.0643
  159MOL0     C20870   3.304   4.017   2.590 -0.3354  0.0649 -0.3652
  159MOL0     C20871   3.158   4.016   2.637  0.5745 -0.3637 -1.0380
  159MOL0     C20872   3.068   3.928   2.548  0.3465 -0.3100 -0.2210
  159MOL0     N20873   2.940   3.902   2.613 -1.1016  0.3131 -0.1667
  159MOL0     C20874   2.828   3.981   2.596  0.0066  0.9940 -0.4141
  159MOL0     C20875   2.736   3.936   2.681  0.3667 -0.1625 -0.0065
  159MOL0     C20876   2.590   3.971   2.690 -0.7353 -0.7477  0.2361
  159MOL0     C20877   2.519   4.028   2.570 -0.0375 -0.5779  0.6116
  159MOL0     C20878   2.380   4.066   2.607 -0.1767  0.0921  0.2958
  159MOL0     C20879   2.294   4.096   2.487  0.0170 -0.1655 -0.6047
  159MOL0     O20880   2.186   4.010   2.466 -0.0773 -0.4697  0.1786
  159MOL0     C20881   2.080   4.012   2.553 -0.1076  0.2995 -0.2654
  159MOL0     C20882   1.974   3.918   2.533 -0.9952 -0.7940  0.0046
  159MOL0     C20883   1.858   3.923   2.604  0.5543  0.5196  0.2014
  159MOL0     C20884   1.827   4.034   2.682 -0.4810 -0.3101 -0.6488
  159MOL0     C20885   1.703   4.041   2.756  0.5746  0.3062  0.1074
  159MOL0     O20886   1.604   3.951   2.721 -0.2128  0.0046 -0.0309
  159MOL0     C20887   1.473   3.952   2.771 -0.3810  0.8947 -1.3234
  159MOL0     C20888   1.401   3.833   2.736 -0.1953  0.8587 -0.0588
  159MOL0     C20889   1.264   3.823   2.763 -1.3444  0.0788  1.1307
  159MOL0     C20890   1.197   3.918   2.837  0.5351  0.0010 -0.8377
  159MOL0     O20891   1.068   3.925   2.873 -0.0715  0.3471  0.5467
  159MOL0     C20892   0.990   3.809   2.860 -0.1709  0.8938  0.0884
  159MOL0     C20893   0.872   3.821   2.951 -0.1827 -0.1425  0.1926
  159MOL0     C20894   0.770   3.702   2.947 -0.4974  0.0787  0.1051
  159MOL0     C20895   0.647   3.729   3.032  0.1739  1.1882  0.0497
  159MOL0     C20896   0.536   3.663   2.959  0.3198  0.1647  0.0770
  159MOL0     C20897   0.408   3.673   3.036 -0.5846 -0.0379 -0.2559
  159MOL0     C20898   0.281   3.641   2.949  0.4310  0.2955 -0.6509
  159MOL0     C20899   0.176   3.748   2.976  0.4234 -0.6137 -0.2043
  159MOL0    Cl20900   0.104   3.727   3.144 -0.8231  0.3084  0.2414
  159MOL0     C20901   1.268   4.030   2.874  0.2588  0.1935  0.0105
  159MOL0     C20902   1.405   4.051   2.842  0.1518 -0.1912  0.2008
  159MOL0     O20903   1.695   4.116   2.856  0.5292  0.2258  0.0403
  159MOL0     C20904   1.929   4.131   2.698  0.7077  0.2287 -0.0033
  159MOL0     C20905   2.054   4.119   2.640 -0.7730  0.7573 -0.1476
  159MOL0     N20906   2.801   3.831   2.749 -0.6747 -1.0889 -0.0694
  159MOL0     N20907   2.920   3.801   2.711 -0.4330 -0.1889  0.2053
  159MOL0     C20908   4.221   4.294   2.650  0.3437  0.7378 -1.6238
  159MOL0     C20909   4.355   4.308   2.692  0.1573 -0.5497  0.3899
  159MOL0     C20910   4.727   4.182   2.955  0.3945  0.0922 -0.2102
  159MOL0     C20911   4.823   4.161   2.860 -0.8129  0.3166 -0.0095
  159MOL0     C20912   4.947   4.101   2.894 -0.3808 -0.4117 -0.5229
  159MOL0     C20913   4.980   4.072   3.031 -0.2609 -0.0054 -0.1467
  159MOL0     O20914   5.114   4.028   3.037  0.2871 -0.5865 -0.5793
  159MOL0     C20915   5.171   4.011   3.164 -0.1814 -0.0741 -0.7071
  159MOL0     C20916   5.188   4.135   3.248 -0.4237  0.9656 -0.8188
  159MOL0     C20917   5.235   4.095   3.390  0.1947  0.0487 -0.4719
  159MOL0     C20918   5.319   4.200   3.441  0.3865 -0.2187 -0.1957
  159MOL0     C20919   5.455   4.188   3.386  0.4969  0.0551 -0.1341
  159MOL0     C20920   5.562   4.180   3.352  0.0424  0.3646  0.4106
  159MOL0     C20921   4.891   4.118   3.129  0.1981 -0.2454 -0.0516
  159MOL0     C20922   4.764   4.168   3.088 -0.1658  0.5055 -0.0177
  159MOL0     H20923   4.381   4.031   2.880 -0.0754  0.1686  0.0085
  159MOL0     H20924   4.160   3.997   2.817  3.4162 -0.9057  0.5943
  159MOL0     H20925   3.908   4.289   2.748 -0.5608 -0.3633 -0.8634
  159MOL0     H20926   3.910   4.117   2.790  1.1610 -0.8854 -0.1934
  159MOL0     H20927   3.824   4.081   2.553  2.7944 -0.9203  1.8079
  159MOL0     H20928   3.784   4.254   2.553  1.7531  0.0110 -0.4647
  159MOL0     H20929   3.670   4.250   2.754 -1.8517  0.2293 -0.8366
  159MOL0     H20930   3.680   4.067   2.766  1.2175  0.0877  0.0829
  159MOL0     H20931   3.545   4.219   2.542  1.3785  1.4760  0.9937
  159MOL0     H20932   3.560   4.045   2.549 -0.1674 -1.4281  0.1992
  159MOL0     H20933   3.365   4.191   2.720 -1.2362  0.0972 -0.4633
  159MOL0     H20934   3.428   4.043   2.781 -1.9273 -2.4229 -1.1933
  159MOL0     H20935   3.341   3.915   2.581  0.1093 -0.2634  3.5097
  159MOL0     H20936   3.306   4.073   2.496  1.2810  1.1053  0.2557
  159MOL0     H20937   3.156   3.966   2.734 -1.2785 -2.1978 -1.9419
  159MOL0     H20938   3.116   4.117   2.641  1.1887 -0.1162  2.4251
  159MOL0     H20939   3.109   3.829   2.526 -0.5942 -0.7870  0.0771
  159MOL0     H20940   3.064   3.979   2.451  2.4177 -2.6990 -1.6683
  159MOL0     H20941   2.822   4.054   2.516  1.3447  2.3306  0.6588
  159MOL0     H20942   2.579   4.039   2.776  1.6591 -1.1437  0.9304
  159MOL0     H20943   2.533   3.880   2.710  1.0405 -1.8641  0.4133
  159MOL0     H20944   2.524   3.968   2.478 -1.1455  1.3969 -0.8155
  159MOL0     H20945   2.569   4.123   2.550  3.8674 -2.5740 -0.1407
  159MOL0     H20946   2.339   3.978   2.658 -2.8342  1.0548  0.0213
  159MOL0     H20947   2.375   4.144   2.683 -1.3342 -0.8444  1.2332
  159MOL0     H20948   2.357   4.092   2.397 -0.1442 -2.1592 -0.6774
  159MOL0     H20949   2.257   4.199   2.482  2.3030  0.7306 -0.2268
  159MOL0     H20950   2.002   3.843   2.459  0.8500 -0.1920  0.0501
  159MOL0     H20951   1.789   3.842   2.583  0.4045  1.1104 -1.8616
  159MOL0     H20952   1.455   3.762   2.674  1.2568  1.6129  0.2990
  159MOL0     H20953   1.216   3.743   2.707  0.8521 -0.2084 -0.4698
  159MOL0     H20954   1.050   3.718   2.872 -1.2381  0.1870  0.2113
  159MOL0     H20955   0.953   3.805   2.758 -0.3061 -0.6181  0.1724
  159MOL0     H20956   0.822   3.912   2.918 -0.4420  0.0459  1.0964
  159MOL0     H20957   0.904   3.840   3.054 -2.5281 -2.2731  1.4203
  159MOL0     H20958   0.817   3.613   2.991  0.6213  0.5835 -0.0574
  159MOL0     H20959   0.745   3.685   2.842  0.2325  2.6523 -0.5505
  159MOL0     H20960   0.664   3.683   3.130  2.1192  0.0156 -0.7779
  159MOL0     H20961   0.620   3.832   3.058 -2.5683 -0.0036  2.6064
  159MOL0     H20962   0.564   3.563   2.927 -0.8285 -0.0442 -0.3251
  159MOL0     H20963   0.540   3.722   2.867  3.5564  1.2140  0.7730
  159MOL0     H20964   0.395   3.768   3.088  0.5477  1.0830 -1.9152
  159MOL0     H20965   0.410   3.602   3.119 -0.9864 -0.5653 -0.6887
  159MOL0     H20966   0.308   3.627   2.844  0.0345 -2.9593 -0.4162
  159MOL0     H20967   0.240   3.548   2.988  1.0456 -0.4796 -1.7735
  159MOL0     H20968   0.084   3.736   2.919 -0.1853 -1.6583  0.9418
  159MOL0     H20969   0.220   3.846   2.957  0.0834  0.3415  3.2734
  159MOL0     H20970   1.220   4.105   2.935  2.2223  1.3897  0.1820
  159MOL0     H20971   1.464   4.132   2.882 -0.7701  0.0790  1.0265
  159MOL0     H20972   1.908   4.215   2.763  3.0920 -1.8717  3.8708
  159MOL0     H20973   2.131   4.191   2.664 -0.0412 -0.2012  0.4556
  159MOL0     H20974   4.185   4.364   2.574  1.2849  3.2272  0.0758
  159MOL0     H20975   4.424   4.385   2.660  0.3333 -1.2778 -1.0363
  159MOL0     H20976   4.812   4.180   2.753  0.4184 -2.7434 -0.8055
  159MOL0     H20977   5.025   4.089   2.820 -0.3847 -0.8355 -0.4629
  159MOL0     H20978   5.268   3.962   3.152 -0.3831 -1.1686  1.6511
  159MOL0     H20979   5.109   3.948   3.228  1.0154 -0.2440  0.3352
  159MOL0     H20980   5.251   4.209   3.198 -0.1643  0.5858 -1.0658
  159MOL0     H20981   5.094   4.190   3.252 -0.8463  0.2314 -0.5038
  159MOL0     H20982   5.292   4.001   3.387  2.2759  1.2613 -1.2430
  159MOL0     H20983   5.139   4.093   3.442  0.3361 -2.4278 -0.1682
  159MOL0     H20984   5.275   4.297   3.416 -2.2877 -1.3747 -0.4104
  159MOL0     H20985   5.306   4.203   3.550 -3.7910  0.1452 -0.5429
  159MOL0     H20986   5.666   4.182   3.324 -0.8695 -1.6275 -3.8710
  159MOL0     H20987   4.905   4.105   3.236 -2.6814  0.0310  0.4627
  159MOL0     H20988   4.686   4.211   3.151 -0.0215  0.2288  0.3524
  160MOL0     O20989   9.586   2.168   0.047  0.1068 -0.0023  0.2196
  160MOL0     C20990   9.631   2.122   0.149  0.4389 -0.1843 -0.2931
  160MOL0     O20991   9.565   2.040   0.225  0.2843 -0.0711 -0.1857
  160MOL0     C20992   9.450   1.977   0.187 -0.2016 -0.8202 -0.4923
  160MOL0     C20993   9.335   2.035   0.232  0.0975 -0.1237 -0.4134
  160MOL0     C20994   9.213   1.984   0.179  0.4556 -0.3339  0.0344
  160MOL0     C20995   9.206   1.882   0.086  0.2095 -0.0961  0.0988
  160MOL0     O20996   9.098   1.833   0.021 -0.5337  0.0364 -0.5299
  160MOL0     C20997   8.988   1.919   0.029 -0.3684 -0.7981 -0.2635
  160MOL0     C20998   8.877   1.867  -0.062 -0.1270 -0.0600  0.1115
  160MOL0     C20999   8.838   1.722  -0.013  0.2245  0.4010  0.1435
  160MOL0     C21000   8.694   1.700  -0.074  0.0623 -0.1284 -0.5498
  160MOL0     C21001   8.654   1.552  -0.053  0.0448  0.0996  0.0584
  160MOL0     C21002   8.508   1.531  -0.092 -0.2831  0.2924 -0.0311
  160MOL0     C21003   8.484   1.378  -0.069 -0.2066  0.7045 -0.5261
  160MOL0     C21004   8.482   1.328   0.066  0.3444 -0.0121 -0.7861
  160MOL0     N21005   8.388   1.394   0.154  0.1592 -0.0044 -0.2460
  160MOL0     C21006   8.260   1.433   0.131  0.4561 -0.0110  0.5132
  160MOL0     C21007   8.223   1.504   0.245  0.7046 -0.6767  0.3022
  160MOL0     C21008   8.083   1.558   0.277 -0.0492 -0.8373 -0.5459
  160MOL0     C21009   7.990   1.452   0.342 -0.1693  0.0254  0.3116
  160MOL0     C21010   7.886   1.514   0.442  0.0852  0.0429  0.0447
  160MOL0     C21011   7.782   1.600   0.373  0.4633 -0.4143 -0.8089
  160MOL0     O21012   7.691   1.637   0.480 -0.5917 -0.6773 -0.1366
  160MOL0     C21013   7.587   1.722   0.454 -0.2238 -0.9342  0.6961
  160MOL0     C21014   7.589   1.820   0.349  0.7388 -0.2309 -0.0686
  160MOL0     C21015   7.475   1.885   0.308 -0.0114 -0.2927  0.1334
  160MOL0     C21016   7.352   1.872   0.376 -0.3206 -0.0819  0.1805
  160MOL0     C21017   7.232   1.942   0.339 -0.6537 -0.1686 -0.0679
  160MOL0     O21018   7.124   1.926   0.419 -0.1473 -0.3991  0.7170
  160MOL0     C21019   7.028   2.016   0.439  0.3773  0.4502  0.0058
  160MOL0     C21020   7.027   2.150   0.386 -0.4337 -0.0296 -0.5291
  160MOL0     C21021   6.914   2.226   0.414  0.1297 -0.2022  0.3601
  160MOL0     C21022   6.800   2.179   0.481  0.6626 -0.6162  0.1764
  160MOL0     O21023   6.691   2.256   0.507  0.0326  0.2394  0.0273
  160MOL0     C21024   6.650   2.333   0.391  0.1222  0.3573 -0.1627
  160MOL0     C21025   6.523   2.407   0.433 -0.2956  1.1821 -0.3358
  160MOL0     C21026   6.406   2.306   0.437 -0.2012  0.1529  0.0594
  160MOL0     C21027   6.271   2.377   0.493 -0.4975 -0.2803  0.2076
  160MOL0     C21028   6.151   2.288   0.470 -0.5498  0.3771 -0.1169
  160MOL0     C21029   6.053   2.320   0.580  0.5930  0.1593  1.1768
  160MOL0     C21030   5.923   2.235   0.556  0.3301 -0.1326 -0.2524
  160MOL0     C21031   5.818   2.251   0.672 -0.1006 -0.3215 -0.2767
  160MOL0    Cl21032   5.651   2.180   0.626 -0.2386 -0.1286 -0.2276
  160MOL0     C21033   6.798   2.047   0.520  0.4784 -0.2860  0.8216
  160MOL0     C21034   6.914   1.970   0.507  0.5013  0.5815  0.5047
  160MOL0     O21035   7.231   2.007   0.234  0.5245  0.4441 -0.1371
  160MOL0     C21036   7.345   1.776   0.481 -0.8081 -0.6513 -0.3153
  160MOL0     C21037   7.462   1.701   0.519 -0.5828 -0.6485 -1.0693
  160MOL0     N21038   8.336   1.517   0.328  0.9594 -0.0696 -0.1177
  160MOL0     N21039   8.432   1.454   0.270  0.6580  0.0960  0.0663
  160MOL0     C21040   9.324   1.820   0.052  0.2213  0.9047  0.9394
  160MOL0     C21041   9.444   1.868   0.101 -0.4734  0.6742  0.3848
  160MOL0     C21042   9.758   2.191   0.195  0.1851 -0.2866  0.6017
  160MOL0     C21043   9.782   2.219   0.329 -0.6215 -0.3273 -0.7382
  160MOL0     C21044   9.900   2.275   0.376 -0.8620 -0.4420 -0.1712
  160MOL0     C21045  10.008   2.311   0.290 -0.0814  0.2148  0.2713
  160MOL0     O21046  10.121   2.358   0.343  0.1956  0.2651  0.2732
  160MOL0     C21047  10.236   2.302   0.280 -0.2125 -0.1997 -0.7094
  160MOL0     C21048  10.352   2.337   0.373  0.3675 -0.7689 -0.5093
  160MOL0     C21049  10.387   2.486   0.364 -1.0191 -1.3093 -0.2091
  160MOL0     C21050  10.473   2.526   0.481  0.0813 -0.2519  0.1708
  160MOL0     C21051  10.535   2.660   0.468  0.5354  0.7967  0.3911
  160MOL0     C21052  10.592   2.761   0.442 -0.0747 -0.3483  0.0021
  160MOL0     C21053   9.984   2.281   0.149  0.4438 -0.6428 -0.9413
  160MOL0     C21054   9.862   2.228   0.106 -0.1252  0.5539 -0.2826
  160MOL0     H21055   9.343   2.103   0.316 -0.1424 -0.0314 -0.4656
  160MOL0     H21056   9.119   2.024   0.217 -1.6915 -4.1357 -0.7950
  160MOL0     H21057   9.020   2.019  -0.000  1.2041 -1.9259 -2.7197
  160MOL0     H21058   8.957   1.931   0.133 -1.3147  3.0616 -0.8471
  160MOL0     H21059   8.921   1.864  -0.162  1.4940 -1.0794  0.8001
  160MOL0     H21060   8.797   1.940  -0.047  2.4241  2.7936  0.8727
  160MOL0     H21061   8.826   1.718   0.096 -0.7195 -3.0128  0.0283
  160MOL0     H21062   8.912   1.643  -0.029  0.4856  0.6369  0.1558
  160MOL0     H21063   8.626   1.773  -0.030 -1.2865 -1.0334 -1.0482
  160MOL0     H21064   8.692   1.712  -0.183  1.5257  0.4124 -0.5424
  160MOL0     H21065   8.670   1.534   0.053  1.9641 -1.0138 -0.3889
  160MOL0     H21066   8.721   1.491  -0.113 -0.8827  0.0650 -0.9761
  160MOL0     H21067   8.481   1.576  -0.188 -0.2451 -0.2966 -0.3163
  160MOL0     H21068   8.441   1.590  -0.028  0.6580  0.7820  0.5453
  160MOL0     H21069   8.389   1.361  -0.119 -0.3353 -0.4247  0.0694
  160MOL0     H21070   8.552   1.312  -0.124 -1.8556 -0.6171 -1.0684
  160MOL0     H21071   8.585   1.334   0.102 -0.4750  1.3829  1.5075
  160MOL0     H21072   8.452   1.223   0.065  2.1012 -0.5703 -2.9398
  160MOL0     H21073   8.196   1.418   0.045 -1.4077  2.2878  1.3934
  160MOL0     H21074   8.036   1.580   0.180 -3.1711 -2.3781  0.4620
  160MOL0     H21075   8.076   1.647   0.340  1.1284 -0.3409 -1.0936
  160MOL0     H21076   8.052   1.379   0.394  1.7282  2.3459  1.5062
  160MOL0     H21077   7.944   1.393   0.262  2.0600  0.5536 -1.4485
  160MOL0     H21078   7.838   1.439   0.506  0.5057  2.1416  3.0416
  160MOL0     H21079   7.945   1.580   0.506 -0.9102  1.5934 -0.5636
  160MOL0     H21080   7.724   1.532   0.308 -1.2410 -0.2536  0.4685
  160MOL0     H21081   7.821   1.696   0.340  1.3270 -0.4069  0.1865
  160MOL0     H21082   7.679   1.844   0.293  0.3140  2.6759  0.3117
  160MOL0     H21083   7.476   1.959   0.230 -0.3755 -0.6774 -0.2439
  160MOL0     H21084   7.113   2.186   0.331  0.1846 -0.1050  0.3710
  160MOL0     H21085   6.913   2.328   0.375  0.2757 -0.8837 -1.5429
  160MOL0     H21086   6.627   2.267   0.307  2.1782  1.0936 -1.3772
  160MOL0     H21087   6.727   2.402   0.356 -1.1224  1.4497 -0.8142
  160MOL0     H21088   6.493   2.485   0.363 -1.7693  1.0679  0.1290
  160MOL0     H21089   6.517   2.453   0.533 -2.5004 -1.2048  0.7749
  160MOL0     H21090   6.426   2.213   0.492  2.2748 -1.9381 -3.9176
  160MOL0     H21091   6.395   2.290   0.330  0.9483  0.6439 -0.1474
  160MOL0     H21092   6.284   2.390   0.601  1.5484 -0.1874 -0.0031
  160MOL0     H21093   6.239   2.468   0.442 -2.2544 -2.0737 -2.1849
  160MOL0     H21094   6.176   2.183   0.489  0.6049  0.7218  0.3959
  160MOL0     H21095   6.101   2.321   0.379 -0.4357  3.2618  0.7686
  160MOL0     H21096   6.039   2.428   0.583 -0.0188  0.0816  1.3012
  160MOL0     H21097   6.093   2.289   0.677 -1.3992 -0.5668  1.8254
  160MOL0     H21098   5.878   2.269   0.463 -1.2593  0.3490  0.6505
  160MOL0     H21099   5.944   2.130   0.534 -1.6308 -0.1264 -2.4843
  160MOL0     H21100   5.796   2.356   0.696 -1.3270 -0.5930 -0.1358
  160MOL0     H21101   5.852   2.209   0.767  1.0675  1.9108  0.3781
  160MOL0     H21102   6.710   2.000   0.563  0.6245  0.9505  2.5794
  160MOL0     H21103   6.915   1.863   0.527 -1.8554 -0.2406 -2.8885
  160MOL0     H21104   7.257   1.767   0.545  0.4642  1.9036  2.0336
  160MOL0     H21105   7.454   1.636   0.606 -1.3071  2.7498  1.6330
  160MOL0     H21106   9.323   1.726  -0.002 -3.0107  0.8636  0.8550
  160MOL0     H21107   9.541   1.836   0.063  1.4989  3.4352  2.6211
  160MOL0     H21108   9.712   2.208   0.411  0.7044  2.4271  0.9040
  160MOL0     H21109   9.896   2.291   0.483 -0.7923  1.6707 -0.4601
  160MOL0     H21110  10.260   2.357   0.189  2.6150 -0.1680 -0.0202
  160MOL0     H21111  10.231   2.195   0.260 -1.6598 -0.4231  0.6912
  160MOL0     H21112  10.330   2.319   0.479  3.1559  2.8836  0.9226
  160MOL0     H21113  10.444   2.284   0.347  1.1997  0.4827 -0.2209
  160MOL0     H21114  10.310   2.564   0.373 -0.2737 -0.4737 -0.8483
  160MOL0     H21115  10.447   2.493   0.273 -0.1436  0.9829  0.4823
  160MOL0     H21116  10.427   2.528   0.580 -0.6773  0.0986 -0.1775
  160MOL0     H21117  10.547   2.446   0.491 -2.3623 -2.6651  0.2739
  160MOL0     H21118  10.619   2.864   0.431 -4.3334  0.6934 -3.2784
  160MOL0     H21119  10.068   2.293   0.082  0.4343  2.8279 -0.5024
  160MOL0     H21120   9.844   2.190   0.006  0.3103 -0.6857  0.0951
  161MOL0     O21121   3.708   1.475   9.487 -0.6733  0.7589 -0.7905
  161MOL0     C21122   3.641   1.571   9.473 -0.3262 -0.2436  0.5163
  161MOL0     O21123   3.508   1.578   9.496  0.5782 -0.5934 -1.0650
  161MOL0     C21124   3.454   1.485   9.575 -0.4423  0.2789 -0.3073
  161MOL0     C21125   3.387   1.519   9.698  0.3170 -0.3798  0.9571
  161MOL0     C21126   3.296   1.423   9.751  0.4783 -0.9231  0.0044
  161MOL0     C21127   3.274   1.296   9.695  0.1500 -0.1856  0.3052
  161MOL0     O21128   3.192   1.202   9.741  0.4645  0.5790  0.0451
  161MOL0     C21129   3.233   1.145   9.862 -0.5490  0.6964 -0.3444
  161MOL0     C21130   3.150   1.017   9.888 -0.2748  0.6184 -0.4183
  161MOL0     C21131   3.000   1.046   9.923 -0.0129  0.4844 -0.6495
  161MOL0     C21132   2.924   0.920   9.983  0.8474 -0.9342 -0.0787
  161MOL0     C21133   2.791   0.954  10.056  0.2522 -1.3853 -0.1220
  161MOL0     C21134   2.793   1.049  10.178 -1.0247 -0.8419 -0.0579
  161MOL0     C21135   2.854   0.984  10.299  0.0817  0.2046  0.9377
  161MOL0     C21136   2.757   0.887  10.371 -0.5253  0.5495 -0.2595
  161MOL0     N21137   2.816   0.751  10.386  0.5472 -0.8101 -0.3176
  161MOL0     C21138   2.936   0.720  10.452 -0.8120  0.6775  0.4036
  161MOL0     C21139   2.978   0.607  10.385 -0.4910  0.6475 -0.6400
  161MOL0     C21140   3.103   0.536  10.432 -0.3697 -0.2468  0.5542
  161MOL0     C21141   3.225   0.619  10.419  0.7649 -0.3870 -0.3636
  161MOL0     C21142   3.257   0.636  10.271 -0.1764  0.1370 -0.6447
  161MOL0     C21143   3.344   0.753  10.243 -0.5644 -0.0337 -0.5681
  161MOL0     O21144   3.268   0.869  10.257 -0.5765 -0.5434 -0.1211
  161MOL0     C21145   3.328   0.994  10.264  0.1754 -0.3813  0.0853
  161MOL0     C21146   3.440   1.013  10.340  0.8038 -0.0372 -0.9128
  161MOL0     C21147   3.499   1.146  10.353 -0.0007  0.2204  0.3075
  161MOL0     C21148   3.440   1.263  10.298 -0.4189 -0.4699 -0.0645
  161MOL0     C21149   3.490   1.403  10.307  0.0625 -0.0824 -0.6828
  161MOL0     O21150   3.591   1.421  10.394  0.2083 -0.3783  0.7129
  161MOL0     C21151   3.633   1.548  10.422 -0.2062 -0.7152  0.2727
  161MOL0     C21152   3.556   1.652  10.480  0.8378 -0.3222 -0.6375
  161MOL0     C21153   3.616   1.775  10.512  0.6927 -0.0510  0.4914
  161MOL0     C21154   3.755   1.796  10.480  0.1128 -0.2388 -0.4071
  161MOL0     O21155   3.828   1.904  10.514 -0.2284 -0.8172  0.0212
  161MOL0     C21156   3.758   2.033  10.507 -0.5099  1.1392  0.7790
  161MOL0     C21157   3.840   2.134  10.579  0.6984 -0.6847  0.6113
  161MOL0     C21158   3.977   2.168  10.517 -1.2309 -0.2888  1.1767
  161MOL0     C21159   4.025   2.312  10.556 -0.1597 -0.3418  0.5070
  161MOL0     C21160   4.049   2.330  10.704  0.0886  0.5168 -0.9959
  161MOL0     C21161   4.043   2.471  10.755 -0.7478  0.3848  0.4426
  161MOL0     C21162   4.185   2.533  10.754  0.2119 -0.4188  0.0902
  161MOL0     C21163   4.192   2.669  10.677 -0.5332  0.7841  0.0630
  161MOL0    Cl21164   4.113   2.795  10.770  0.4607 -0.6865  0.4057
  161MOL0     C21165   3.831   1.688  10.433 -0.2751 -0.0431 -1.0121
  161MOL0     C21166   3.769   1.566  10.406 -0.5322 -0.1415 -0.0381
  161MOL0     O21167   3.441   1.496  10.242 -0.4897  0.1565 -0.4561
  161MOL0     C21168   3.318   1.237  10.223 -0.7163 -0.1164  0.3588
  161MOL0     C21169   3.272   1.106  10.209  0.2047 -0.2302  1.1397
  161MOL0     N21170   2.900   0.580  10.281  0.2673 -0.2555 -0.4542
  161MOL0     N21171   2.795   0.657  10.288  0.0129  0.1780 -0.2325
  161MOL0     C21172   3.356   1.258   9.583  0.2452 -0.8018 -0.2123
  161MOL0     C21173   3.445   1.350   9.533 -0.0030  1.3156  0.0888
  161MOL0     C21174   3.699   1.685   9.383 -0.1227 -0.3119 -0.4977
  161MOL0     C21175   3.826   1.682   9.332 -0.4761 -0.9303  0.2411
  161MOL0     C21176   3.872   1.785   9.259 -0.4762  0.6169 -0.1653
  161MOL0     C21177   3.807   1.909   9.241  0.0053  0.7409 -0.1476
  161MOL0     O21178   3.869   2.015   9.177  0.3587  0.0345 -0.6844
  161MOL0     C21179   3.796   2.136   9.139 -1.4434  0.1271 -0.0645
  161MOL0     C21180   3.892   2.230   9.055  0.1495  0.0928  0.1046
  161MOL0     C21181   4.008   2.281   9.135 -0.4679 -0.0044 -0.1133
  161MOL0     C21182   4.131   2.183   9.116  0.3243 -0.5528  0.2200
  161MOL0     C21183   4.240   2.202   9.211 -0.0297  0.8653  0.7659
  161MOL0     C21184   4.334   2.212   9.285  0.2960 -0.4652 -0.6646
  161MOL0     C21185   3.678   1.914   9.295  0.1794  0.3763 -0.8234
  161MOL0     C21186   3.622   1.805   9.356 -0.0925  0.6258 -1.1467
  161MOL0     H21187   3.416   1.618   9.731  1.5147  0.4010 -2.0192
  161MOL0     H21188   3.238   1.454   9.838  0.7429 -0.5658  0.0500
  161MOL0     H21189   3.233   1.211   9.949  2.2818  1.3099 -0.7110
  161MOL0     H21190   3.340   1.121   9.863 -0.5422  0.7316  0.4587
  161MOL0     H21191   3.190   0.966   9.976 -2.7018 -0.3542  0.1967
  161MOL0     H21192   3.164   0.944   9.807  0.0888 -1.2433  1.2343
  161MOL0     H21193   2.946   1.087   9.837 -0.6621  1.2155  0.0878
  161MOL0     H21194   2.999   1.123  10.000  2.4193  1.0644 -1.1152
  161MOL0     H21195   2.903   0.854   9.898 -2.4463  1.5357 -1.3663
  161MOL0     H21196   2.991   0.865  10.050  2.4049  1.2039  0.2005
  161MOL0     H21197   2.744   0.864  10.097 -0.2665 -0.6855  0.8961
  161MOL0     H21198   2.732   1.001   9.977 -0.3884 -2.1048 -0.0833
  161MOL0     H21199   2.696   1.097  10.194  0.7186  3.0716 -0.0992
  161MOL0     H21200   2.843   1.143  10.152 -2.6986 -0.2860 -1.4640
  161MOL0     H21201   2.936   0.917  10.272 -0.6705 -0.7069  0.8713
  161MOL0     H21202   2.899   1.055  10.369  0.0385 -0.0201  1.1975
  161MOL0     H21203   2.667   0.888  10.308  1.4606 -2.3835 -3.5370
  161MOL0     H21204   2.723   0.914  10.472 -1.0147  1.0277 -0.5472
  161MOL0     H21205   2.994   0.764  10.533  2.3135 -2.0210 -0.1565
  161MOL0     H21206   3.127   0.442  10.381  4.0358  0.0290  1.7302
  161MOL0     H21207   3.085   0.514  10.537 -1.4620 -0.9090  0.2397
  161MOL0     H21208   3.312   0.576  10.469  1.2500  0.7157 -0.2267
  161MOL0     H21209   3.208   0.716  10.467 -2.3682 -0.1932 -1.6218
  161MOL0     H21210   3.304   0.540  10.247  0.8261  0.1053  1.2678
  161MOL0     H21211   3.166   0.651  10.211  0.0605 -0.1186 -1.0757
  161MOL0     H21212   3.377   0.730  10.141 -0.3158 -0.5267 -0.3821
  161MOL0     H21213   3.435   0.764  10.301 -2.0128  0.0735  1.8095
  161MOL0     H21214   3.478   0.941  10.412 -0.5869  0.6737  0.5934
  161MOL0     H21215   3.586   1.150  10.418  2.1513  1.9669 -2.4340
  161MOL0     H21216   3.450   1.632  10.492  0.5145  0.7192 -1.5694
  161MOL0     H21217   3.558   1.852  10.564  0.3251 -1.0831  1.6652
  161MOL0     H21218   3.658   2.027  10.552 -1.0185 -0.7635 -0.4879
  161MOL0     H21219   3.748   2.055  10.400 -1.2723  0.4037  0.6898
  161MOL0     H21220   3.859   2.103  10.683  2.8939 -0.1652  0.4307
  161MOL0     H21221   3.783   2.227  10.592  0.7726 -0.5012 -0.3261
  161MOL0     H21222   3.969   2.157  10.409 -1.3360  0.6552  1.0840
  161MOL0     H21223   4.056   2.098  10.544 -1.7337 -2.0044 -1.4028
  161MOL0     H21224   4.122   2.323  10.507 -0.4215  0.0388  0.0684
  161MOL0     H21225   3.951   2.380  10.514 -2.3403 -3.2043 -0.5760
  161MOL0     H21226   4.127   2.268  10.749  1.3767  2.0817 -0.9742
  161MOL0     H21227   3.955   2.297  10.748 -0.4605  1.8958 -1.0978
  161MOL0     H21228   4.021   2.469  10.862  0.9529 -1.2035  0.8255
  161MOL0     H21229   3.974   2.524  10.689  0.5793 -0.3890 -1.6629
  161MOL0     H21230   4.227   2.540  10.855  0.7199 -0.3992 -0.1174
  161MOL0     H21231   4.260   2.467  10.712  0.1173 -1.8018  1.9684
  161MOL0     H21232   4.135   2.662  10.584  0.7964 -1.0229 -0.6675
  161MOL0     H21233   4.296   2.697  10.661 -0.7154  0.0320 -3.0915
  161MOL0     H21234   3.939   1.699  10.422 -0.0439 -0.0675  0.9281
  161MOL0     H21235   3.839   1.483  10.396 -0.3986 -0.3039  1.9985
  161MOL0     H21236   3.271   1.331  10.197  1.0762  0.8181  0.3326
  161MOL0     H21237   3.171   1.087  10.176  1.1960  0.3792 -2.7444
  161MOL0     H21238   3.340   1.164   9.532 -0.9279 -0.9691  0.4290
  161MOL0     H21239   3.501   1.322   9.444 -1.9264  0.9847 -1.0592
  161MOL0     H21240   3.901   1.605   9.348  2.0497  0.7156 -2.5968
  161MOL0     H21241   3.977   1.778   9.230 -0.0750 -0.4473  1.3950
  161MOL0     H21242   3.759   2.184   9.230 -0.6090  2.1623 -0.7440
  161MOL0     H21243   3.710   2.110   9.076 -0.5607 -1.2881 -0.7285
  161MOL0     H21244   3.923   2.179   8.964  1.0251 -0.4884  0.7091
  161MOL0     H21245   3.833   2.317   9.025 -0.7642 -0.7403 -0.5764
  161MOL0     H21246   3.988   2.290   9.243  0.1364  3.3443 -0.1661
  161MOL0     H21247   4.034   2.383   9.104 -2.6539  0.0306 -2.1723
  161MOL0     H21248   4.099   2.080   9.132  0.7110 -0.5601  1.0234
  161MOL0     H21249   4.168   2.184   9.013 -0.4150 -1.7297 -0.0787
  161MOL0     H21250   4.418   2.224   9.350  1.6921 -0.0232 -2.4571
  161MOL0     H21251   3.607   1.994   9.275 -0.3135 -0.6848 -3.9864
  161MOL0     H21252   3.520   1.801   9.393  0.6023 -2.8812  0.8281
  162MOL0     O21253   7.396   5.491  10.663 -0.2268  0.1585  0.6995
  162MOL0     C21254   7.364   5.385  10.619  0.0355  0.5733 -0.2232
  162MOL0     O21255   7.231   5.343  10.621 -0.6141  0.4754  0.2647
  162MOL0     C21256   7.143   5.438  10.652 -0.6435 -0.5381  0.0277
  162MOL0     C21257   7.117   5.534  10.558 -1.1917 -0.9640  0.4293
  162MOL0     C21258   7.005   5.624  10.564 -0.0447  0.2920  1.2448
  162MOL0     C21259   6.939   5.627  10.679 -1.0072 -0.7838  0.0483
  162MOL0     O21260   6.840   5.727  10.681  0.4647  0.0997  0.2803
  162MOL0     C21261   6.835   5.789  10.809  0.8340  0.1269 -0.8468
  162MOL0     C21262   6.787   5.937  10.780  0.0599 -0.4551 -0.1993
  162MOL0     C21263   6.639   5.964  10.791 -0.4219  0.2374 -0.0665
  162MOL0     C21264   6.590   6.090  10.728  0.0743 -0.2071 -0.1715
  162MOL0     C21265   6.436   6.121  10.743 -0.6907  0.6912 -0.5020
  162MOL0     C21266   6.340   6.020  10.678 -0.3558 -0.3179  0.2205
  162MOL0     C21267   6.196   6.085  10.697 -0.2998  0.4181 -0.8975
  162MOL0     C21268   6.088   5.982  10.647 -0.2168 -0.4532 -0.0771
  162MOL0     N21269   5.952   6.033  10.669 -0.3156 -0.1370  1.0163
  162MOL0     C21270   5.923   6.145  10.733 -0.3934  0.3833  0.9285
  162MOL0     C21271   5.784   6.154  10.709 -0.6406 -0.3676  0.2282
  162MOL0     C21272   5.681   6.264  10.750  0.2951  1.1814 -0.6165
  162MOL0     C21273   5.620   6.203  10.881 -0.0838 -0.1967 -0.2327
  162MOL0     C21274   5.531   6.312  10.953 -0.5748  0.5434  0.1581
  162MOL0     C21275   5.388   6.314  10.902 -0.1501 -0.0437  0.3441
  162MOL0     O21276   5.301   6.369  11.000  0.8847  0.4741  0.4088
  162MOL0     C21277   5.168   6.328  10.988 -0.7671  0.1790  0.0763
  162MOL0     C21278   5.088   6.305  11.103 -0.1477  0.0537 -0.1866
  162MOL0     C21279   4.949   6.282  11.099  0.2303  0.8769  0.4295
  162MOL0     C21280   4.888   6.290  10.978 -0.2747  0.2451 -0.1103
  162MOL0     C21281   4.733   6.284  10.981 -0.4223 -0.6550  0.0156
  162MOL0     O21282   4.681   6.266  10.865 -1.0681  0.1122 -0.2285
  162MOL0     C21283   4.555   6.317  10.848 -0.1481 -0.4920  0.3019
  162MOL0     C21284   4.544   6.439  10.778 -0.5414  1.1563  0.3337
  162MOL0     C21285   4.421   6.496  10.730 -0.4562  0.7503  0.3383
  162MOL0     C21286   4.307   6.422  10.762 -0.0053 -0.2773 -0.6067
  162MOL0     O21287   4.177   6.470  10.749  0.5724 -0.4120  0.2088
  162MOL0     C21288   4.146   6.581  10.666 -0.0257  0.7485  0.5170
  162MOL0     C21289   3.994   6.591  10.665 -0.2526 -0.7098 -0.2832
  162MOL0     C21290   3.940   6.704  10.580 -0.0892  0.4597  0.1679
  162MOL0     C21291   3.790   6.701  10.550 -0.7618  0.5305  0.3724
  162MOL0     C21292   3.704   6.654  10.663  0.1675  0.5742  0.9039
  162MOL0     C21293   3.550   6.655  10.610  0.2741 -0.4926 -0.6514
  162MOL0     C21294   3.455   6.604  10.709 -0.5132  1.0178  0.9809
  162MOL0     C21295   3.311   6.639  10.669  0.3314 -0.7616  0.5001
  162MOL0    Cl21296   3.195   6.569  10.795  0.3226  0.0740  0.1052
  162MOL0     C21297   4.317   6.298  10.828  0.9719  0.4093 -0.4986
  162MOL0     C21298   4.436   6.245  10.866 -0.2472  0.5634 -0.2981
  162MOL0     O21299   4.671   6.310  11.086 -0.1886 -0.4742 -0.2376
  162MOL0     C21300   4.965   6.314  10.862 -0.2489 -0.0548 -0.3444
  162MOL0     C21301   5.100   6.339  10.867 -0.1475 -0.0351  0.5678
  162MOL0     N21302   5.743   6.049  10.624  0.7347 -0.6630 -0.7756
  162MOL0     N21303   5.847   5.983  10.595 -0.1957 -0.8428  0.0284
  162MOL0     C21304   6.961   5.529  10.780 -0.3512  0.6225  0.5526
  162MOL0     C21305   7.057   5.424  10.758 -0.5154  0.1069 -0.2112
  162MOL0     C21306   7.454   5.301  10.547  0.2112  0.4348 -0.3531
  162MOL0     C21307   7.594   5.314  10.579 -0.5849 -0.1859  0.4779
  162MOL0     C21308   7.692   5.234  10.518 -0.2204 -0.4360 -0.2151
  162MOL0     C21309   7.656   5.160  10.403  0.5975  0.0077  0.2819
  162MOL0     O21310   7.740   5.075  10.325 -0.5649 -0.0806 -0.1192
  162MOL0     C21311   7.861   5.036  10.385 -1.0484 -0.0984 -0.6711
  162MOL0     C21312   7.928   4.916  10.315 -0.0232  0.3971  0.2239
  162MOL0     C21313   7.978   4.954  10.173 -0.3281 -0.3525  0.0076
  162MOL0     C21314   8.073   4.842  10.107  0.9275 -0.4828  0.6738
  162MOL0     C21315   8.199   4.846  10.174 -0.0082  0.1257 -0.0493
  162MOL0     C21316   8.305   4.825  10.232 -0.0092  0.1552 -0.4023
  162MOL0     C21317   7.520   5.150  10.371 -0.5834 -0.4172  0.3588
  162MOL0     C21318   7.420   5.216  10.438  0.0589  0.0476  0.2613
  162MOL0     H21319   7.169   5.537  10.463 -1.2343 -0.1410  0.4214
  162MOL0     H21320   6.988   5.688  10.479 -0.7660 -1.8147 -0.2898
  162MOL0     H21321   6.928   5.796  10.867 -0.7871 -0.4013  1.9758
  162MOL0     H21322   6.768   5.737  10.879 -0.3640  1.4173 -1.0048
  162MOL0     H21323   6.813   5.949  10.674  0.1937  0.7687 -0.0450
  162MOL0     H21324   6.839   6.012  10.841 -0.6438  0.5316 -0.7853
  162MOL0     H21325   6.609   5.956  10.896 -0.2444 -0.7569 -0.0760
  162MOL0     H21326   6.588   5.877  10.748  2.4422 -2.7623  2.0579
  162MOL0     H21327   6.648   6.173  10.770 -0.3090  0.0405 -0.1266
  162MOL0     H21328   6.609   6.078  10.620  0.4655  1.2890 -0.2904
  162MOL0     H21329   6.415   6.221  10.704 -2.5261 -0.3823 -2.5350
  162MOL0     H21330   6.415   6.132  10.850 -1.6854 -1.3446 -0.4385
  162MOL0     H21331   6.348   5.931  10.740  2.9140  1.2833  2.4051
  162MOL0     H21332   6.363   5.995  10.574 -0.6203 -1.1423  0.3514
  162MOL0     H21333   6.166   6.096  10.802  0.6668 -3.1596 -0.1154
  162MOL0     H21334   6.204   6.185  10.653  0.4742  2.2524  2.9689
  162MOL0     H21335   6.100   5.885  10.694  0.6600 -0.5446 -0.4681
  162MOL0     H21336   6.113   5.971  10.541 -0.1232  0.7371 -0.2020
  162MOL0     H21337   5.989   6.202  10.797  0.7738 -3.8064  3.8504
  162MOL0     H21338   5.608   6.270  10.668 -0.6560 -0.7056  0.0222
  162MOL0     H21339   5.729   6.361  10.766  1.2745  0.5999  0.0391
  162MOL0     H21340   5.698   6.182  10.955 -0.0884 -2.1365 -0.7249
  162MOL0     H21341   5.552   6.121  10.857  0.0405 -0.1240 -0.8535
  162MOL0     H21342   5.521   6.281  11.057 -0.9635 -1.6332 -0.4799
  162MOL0     H21343   5.574   6.413  10.948 -0.8264  0.7088  1.1809
  162MOL0     H21344   5.357   6.214  10.869  0.1574 -0.0755  0.1471
  162MOL0     H21345   5.379   6.383  10.818  0.0141  0.6182  0.8565
  162MOL0     H21346   5.145   6.289  11.194 -0.8084  2.1597  0.6396
  162MOL0     H21347   4.887   6.267  11.186  0.1277 -1.6887 -0.0072
  162MOL0     H21348   4.634   6.492  10.750 -0.1575  0.6700  0.6442
  162MOL0     H21349   4.407   6.589  10.676 -2.5801 -0.7189 -1.8361
  162MOL0     H21350   4.168   6.552  10.563 -0.3488 -1.2512  0.9646
  162MOL0     H21351   4.197   6.672  10.697  0.2965  0.6084  0.4079
  162MOL0     H21352   3.960   6.619  10.765 -1.1202  1.9286 -1.2199
  162MOL0     H21353   3.955   6.493  10.637 -1.4293  0.6381 -4.1051
  162MOL0     H21354   3.981   6.708  10.478  0.2219  0.5118  0.2949
  162MOL0     H21355   3.957   6.796  10.635  0.4266 -0.1536  1.0589
  162MOL0     H21356   3.769   6.806  10.531  0.4878  1.0362  1.6755
  162MOL0     H21357   3.770   6.638  10.462 -0.7827  1.3119 -0.1964
  162MOL0     H21358   3.725   6.700  10.760 -0.8670 -1.6925  2.2915
  162MOL0     H21359   3.724   6.548  10.678  0.3388 -0.1244 -3.1708
  162MOL0     H21360   3.540   6.592  10.520  0.9099  1.3576 -2.0847
  162MOL0     H21361   3.532   6.761  10.590  0.6574  0.0842  1.8298
  162MOL0     H21362   3.468   6.496  10.717 -0.7783  1.0647  2.2325
  162MOL0     H21363   3.471   6.647  10.809 -2.8197 -0.5559  2.1061
  162MOL0     H21364   3.291   6.594  10.571  0.6655  2.7812 -1.3477
  162MOL0     H21365   3.297   6.747  10.677  0.6313 -0.7151  0.4102
  162MOL0     H21366   4.220   6.251  10.845  1.3765  0.2621  1.6566
  162MOL0     H21367   4.442   6.141  10.899 -3.1939  0.1310 -0.8564
  162MOL0     H21368   4.912   6.323  10.768 -0.3783 -0.7927 -0.3493
  162MOL0     H21369   5.145   6.344  10.768 -0.5180  3.1645  0.4567
  162MOL0     H21370   6.903   5.518  10.871 -0.2435  1.3780  0.7246
  162MOL0     H21371   7.078   5.348  10.832  2.7175  1.7567  0.7822
  162MOL0     H21372   7.624   5.393  10.648  0.9596  0.9870 -1.4364
  162MOL0     H21373   7.792   5.257  10.555 -1.3701  2.3822  1.4529
  162MOL0     H21374   7.833   4.993  10.482  0.3445  0.0930 -0.1697
  162MOL0     H21375   7.933   5.113  10.414 -0.9152 -0.6351  0.4694
  162MOL0     H21376   8.015   4.883  10.372  1.0129  6.3140  2.8183
  162MOL0     H21377   7.849   4.840  10.312 -0.5597  0.9635 -0.3276
  162MOL0     H21378   8.027   5.049  10.193 -1.5548 -0.1277  2.2636
  162MOL0     H21379   7.903   4.972  10.095  1.7230  0.5149 -1.8699
  162MOL0     H21380   8.024   4.745  10.099  0.3413 -0.0666 -1.2831
  162MOL0     H21381   8.086   4.882  10.005  0.0640  0.0812  0.7717
  162MOL0     H21382   8.401   4.803  10.273 -0.0302  1.6107  0.5199
  162MOL0     H21383   7.488   5.086  10.289 -3.0026  1.0434  0.0829
  162MOL0     H21384   7.322   5.198  10.396  0.3628 -1.4472  0.1570
  163MOL0     O21385   5.190   9.335   1.008  0.7154  0.4039  0.1028
  163MOL0     C21386   5.102   9.244   1.019  0.1522 -0.1064  0.3223
  163MOL0     O21387   5.082   9.153   0.918  0.3014 -0.2370  0.8953
  163MOL0     C21388   5.173   9.141   0.817  0.0856 -0.2358 -0.0804
  163MOL0     C21389   5.305   9.088   0.825  0.5459  0.1624 -0.7037
  163MOL0     C21390   5.375   9.096   0.715 -0.5294  0.2232 -0.2846
  163MOL0     C21391   5.328   9.144   0.596 -0.3961  0.2375 -0.6874
  163MOL0     O21392   5.433   9.157   0.510  0.1425 -0.8939  0.3578
  163MOL0     C21393   5.415   9.212   0.376  0.1671  0.4809  1.8805
  163MOL0     C21394   5.342   9.106   0.284 -0.5342  0.0118 -0.5243
  163MOL0     C21395   5.294   9.167   0.159 -0.6351 -0.8671  0.3332
  163MOL0     C21396   5.234   9.070   0.055 -0.4287  0.3164  0.5709
  163MOL0     C21397   5.178   9.138  -0.066 -0.4513  0.2120  0.1596
  163MOL0     C21398   5.288   9.206  -0.150  0.7243 -0.5269 -0.7345
  163MOL0     C21399   5.243   9.265  -0.281  0.2833 -0.5452 -0.5596
  163MOL0     C21400   5.346   9.354  -0.335  0.8229  0.8048  0.0555
  163MOL0     N21401   5.294   9.431  -0.447  0.0712  0.2730  0.6981
  163MOL0     C21402   5.230   9.550  -0.425  0.3308 -0.4045  0.2363
  163MOL0     C21403   5.158   9.570  -0.536  0.3893  0.8208 -0.0672
  163MOL0     C21404   5.042   9.665  -0.539 -1.1745 -0.0243  0.8040
  163MOL0     C21405   4.935   9.628  -0.445  0.2007 -0.2256 -0.1300
  163MOL0     C21406   4.854   9.506  -0.495  0.7109  0.7633  0.3806
  163MOL0     C21407   4.737   9.470  -0.410 -0.7533 -0.1493  1.1297
  163MOL0     O21408   4.623   9.412  -0.492 -0.3801 -0.2195 -0.9169
  163MOL0     C21409   4.513   9.344  -0.436  0.5575 -0.7785  0.1738
  163MOL0     C21410   4.469   9.227  -0.495 -0.4247 -0.6707 -0.6059
  163MOL0     C21411   4.352   9.167  -0.443 -0.1002 -0.6714  0.1471
  163MOL0     C21412   4.273   9.231  -0.345  0.0505 -0.0432 -0.0660
  163MOL0     C21413   4.135   9.181  -0.316  0.8751  0.3093 -0.5771
  163MOL0     O21414   4.101   9.066  -0.386 -1.0569 -0.3411  0.1971
  163MOL0     C21415   3.973   9.025  -0.371 -0.0172  0.0495 -0.0867
  163MOL0     C21416   3.931   8.930  -0.273  0.0598 -0.1454 -0.4096
  163MOL0     C21417   3.800   8.892  -0.265  0.6893 -0.3714 -0.2778
  163MOL0     C21418   3.707   8.942  -0.356  0.5193  0.0306  0.3328
  163MOL0     O21419   3.570   8.912  -0.359 -0.8461 -0.0530  0.2397
  163MOL0     C21420   3.524   8.797  -0.295  0.0749  0.5591  0.9173
  163MOL0     C21421   3.375   8.792  -0.316  0.0107  0.0981 -0.0052
  163MOL0     C21422   3.334   8.786  -0.457  0.1666 -0.0922  0.3558
  163MOL0     C21423   3.180   8.795  -0.473  0.4076  0.3167  0.6275
  163MOL0     C21424   3.138   8.704  -0.594  0.3323 -0.6033 -0.2737
  163MOL0     C21425   2.987   8.714  -0.625  0.3410 -1.1443  0.4785
  163MOL0     C21426   2.894   8.655  -0.524 -0.6305  0.1592  0.0633
  163MOL0     C21427   2.751   8.634  -0.580 -0.4649  1.2805  0.0869
  163MOL0    Cl21428   2.708   8.792  -0.652  0.1028  0.1965  0.4494
  163MOL0     C21429   3.749   9.025  -0.457 -0.2481 -0.0754 -0.0321
  163MOL0     C21430   3.881   9.055  -0.473  0.3921 -0.0670 -0.2539
  163MOL0     O21431   4.057   9.246  -0.253  0.6026 -0.1852  0.8156
  163MOL0     C21432   4.317   9.351  -0.293  0.6734 -0.4330 -0.5115
  163MOL0     C21433   4.436   9.411  -0.333  0.4361  0.6833 -0.6619
  163MOL0     N21434   5.181   9.462  -0.627  0.9663 -0.6876  0.0275
  163MOL0     N21435   5.265   9.378  -0.566 -0.1848 -0.5050 -0.5142
  163MOL0     C21436   5.193   9.185   0.583  0.4787  0.0589  0.2510
  163MOL0     C21437   5.120   9.173   0.691 -0.5506 -0.1188  0.1090
  163MOL0     C21438   5.035   9.204   1.145  0.1159 -0.3163 -0.3873
  163MOL0     C21439   5.077   9.250   1.270 -0.3651 -0.5166 -0.0130
  163MOL0     C21440   5.027   9.201   1.393 -0.4322  0.5669  0.9012
  163MOL0     C21441   4.928   9.104   1.392  0.3013  0.8136 -0.4811
  163MOL0     O21442   4.873   9.048   1.499 -0.0164  0.5362 -0.9173
  163MOL0     C21443   4.865   9.130   1.612  0.3385 -0.4309 -0.3626
  163MOL0     C21444   4.718   9.094   1.673 -0.4344  0.9114 -0.0960
  163MOL0     C21445   4.701   9.134   1.815 -0.2112  0.0723 -0.4814
  163MOL0     C21446   4.598   9.060   1.901 -0.3916  0.0646 -0.3360
  163MOL0     C21447   4.474   9.070   1.840 -0.9594  0.3817  0.6864
  163MOL0     C21448   4.364   9.077   1.804 -0.4862  0.4845  0.5369
  163MOL0     C21449   4.885   9.053   1.268 -0.0914 -0.0953  0.5078
  163MOL0     C21450   4.937   9.103   1.146  0.7306  0.1118 -0.3164
  163MOL0     H21451   5.335   9.070   0.928 -1.1096  1.5083  0.0831
  163MOL0     H21452   5.478   9.062   0.725 -0.2867  1.1859  0.8569
  163MOL0     H21453   5.515   9.236   0.340  0.3509  1.0359  2.7312
  163MOL0     H21454   5.341   9.293   0.380 -2.0247 -1.3236  0.6536
  163MOL0     H21455   5.250   9.070   0.332 -1.6727  3.1537 -0.1104
  163MOL0     H21456   5.402   9.021   0.250 -1.3552 -0.2069 -1.4460
  163MOL0     H21457   5.384   9.220   0.126 -0.2816 -0.1406  2.3323
  163MOL0     H21458   5.213   9.241   0.165 -1.7951 -1.7942 -2.3548
  163MOL0     H21459   5.315   9.005   0.021  0.7381  2.3186 -0.6917
  163MOL0     H21460   5.164   9.010   0.114  1.9209 -1.0279  2.1424
  163MOL0     H21461   5.102   9.214  -0.044  0.0455  2.2336 -3.9560
  163MOL0     H21462   5.130   9.070  -0.137  0.0246  1.5287 -1.5278
  163MOL0     H21463   5.375   9.143  -0.170  0.4193 -1.5424  0.9604
  163MOL0     H21464   5.317   9.283  -0.079 -2.3734 -0.2421  0.3677
  163MOL0     H21465   5.222   9.177  -0.342  1.5681 -0.1401 -1.6297
  163MOL0     H21466   5.159   9.334  -0.270  1.9450  1.9026 -2.1977
  163MOL0     H21467   5.428   9.292  -0.374  0.4626  1.4602 -1.8578
  163MOL0     H21468   5.389   9.416  -0.255  1.5452  0.4684 -0.0603
  163MOL0     H21469   5.227   9.617  -0.340 -0.5711  0.5813 -0.5556
  163MOL0     H21470   5.004   9.673  -0.641  0.0726  0.4937  0.3576
  163MOL0     H21471   5.091   9.761  -0.521 -0.5194 -0.5883  2.2010
  163MOL0     H21472   4.863   9.710  -0.437 -0.0239 -0.4354 -0.0177
  163MOL0     H21473   4.977   9.613  -0.345  2.3193  2.7804 -0.4226
  163MOL0     H21474   4.821   9.530  -0.596  0.4414  1.1700  0.5629
  163MOL0     H21475   4.906   9.410  -0.502  3.8459  2.3804 -0.3076
  163MOL0     H21476   4.695   9.562  -0.368 -2.1605  0.6026 -1.6085
  163MOL0     H21477   4.768   9.419  -0.319  1.2574 -0.0891  0.5115
  163MOL0     H21478   4.515   9.176  -0.579  1.6831  2.5863 -1.5789
  163MOL0     H21479   4.316   9.078  -0.494 -1.0872  0.0302 -0.4259
  163MOL0     H21480   4.011   8.890  -0.211  1.0710  2.4381  0.0891
  163MOL0     H21481   3.769   8.822  -0.188 -0.5904  0.6622  0.1902
  163MOL0     H21482   3.555   8.788  -0.191 -0.6264 -0.8339  1.0283
  163MOL0     H21483   3.563   8.717  -0.360 -0.8271 -0.3702  1.5094
  163MOL0     H21484   3.328   8.878  -0.268  1.1415  0.1949  0.9701
  163MOL0     H21485   3.346   8.702  -0.261 -1.6214 -0.5045 -1.7427
  163MOL0     H21486   3.378   8.698  -0.506  0.2215  0.2308 -0.1864
  163MOL0     H21487   3.374   8.879  -0.497 -1.7385  0.7942  0.3940
  163MOL0     H21488   3.135   8.750  -0.384  3.0663  0.7896  2.2979
  163MOL0     H21489   3.142   8.898  -0.477  6.2946  2.8723 -0.5371
  163MOL0     H21490   3.173   8.605  -0.564 -0.6600 -1.6973 -2.5196
  163MOL0     H21491   3.200   8.740  -0.677  0.0374  2.6994  0.7810
  163MOL0     H21492   2.976   8.663  -0.722 -0.5448  2.3427 -1.4398
  163MOL0     H21493   2.964   8.820  -0.639  1.0979 -1.2152 -1.8691
  163MOL0     H21494   2.938   8.556  -0.507  1.5540  1.1948  0.7810
  163MOL0     H21495   2.901   8.709  -0.429 -1.7843 -0.4127  0.4996
  163MOL0     H21496   2.677   8.605  -0.505 -0.4731 -1.0111 -0.7333
  163MOL0     H21497   2.752   8.559  -0.659  2.8609  0.1452  1.0706
  163MOL0     H21498   3.684   9.060  -0.537 -2.0207 -1.1007  0.9139
  163MOL0     H21499   3.915   9.122  -0.552 -0.2583  0.3399 -0.1972
  163MOL0     H21500   4.256   9.394  -0.213  1.5405 -2.0055  1.0468
  163MOL0     H21501   4.460   9.507  -0.288  0.4877 -0.2964  1.5189
  163MOL0     H21502   5.151   9.226   0.492 -2.2426 -5.0381 -1.1846
  163MOL0     H21503   5.016   9.203   0.681 -0.7244 -0.4552  0.8598
  163MOL0     H21504   5.154   9.326   1.259 -1.0277 -0.1507 -3.2957
  163MOL0     H21505   5.080   9.240   1.479  2.0130  2.5551 -1.3416
  163MOL0     H21506   4.877   9.238   1.601 -1.4185 -0.2441 -0.7916
  163MOL0     H21507   4.945   9.102   1.680  1.6047  1.0227 -1.2046
  163MOL0     H21508   4.653   9.149   1.605 -0.2644 -0.3684 -1.3328
  163MOL0     H21509   4.692   8.990   1.654 -2.1119  1.0360  1.2663
  163MOL0     H21510   4.683   9.242   1.820 -0.0389  0.0623  3.8969
  163MOL0     H21511   4.797   9.129   1.866 -1.3230  0.5195  1.7719
  163MOL0     H21512   4.632   8.957   1.909  0.9498  0.5138  0.0765
  163MOL0     H21513   4.592   9.100   2.003 -1.5443  0.9776 -0.7437
  163MOL0     H21514   4.257   9.082   1.791 -0.6381 -0.2088  1.3895
  163MOL0     H21515   4.809   8.976   1.258 -0.7207 -0.0049  3.6465
  163MOL0     H21516   4.900   9.047   1.060  1.3824  1.0594 -1.2419
  164MOL0     O21517   5.283   6.813   1.597  0.3307 -0.1744 -0.8975
  164MOL0     C21518   5.289   6.719   1.683 -0.5999 -0.5878  0.4530
  164MOL0     O21519   5.192   6.632   1.715 -0.1268 -0.3849  0.4813
  164MOL0     C21520   5.075   6.620   1.637  0.3197  0.3278 -0.4958
  164MOL0     C21521   5.073   6.621   1.501 -0.5737 -0.7887 -0.1268
  164MOL0     C21522   4.946   6.598   1.433 -0.1202  0.5481  0.3353
  164MOL0     C21523   4.832   6.568   1.506  0.4277  0.2904 -0.8401
  164MOL0     O21524   4.711   6.540   1.452  0.1681 -0.8984 -0.0460
  164MOL0     C21525   4.697   6.522   1.305  0.8180  0.0571 -0.1238
  164MOL0     C21526   4.548   6.483   1.280  0.3802 -0.6738  0.5766
  164MOL0     C21527   4.536   6.365   1.171 -0.6747 -0.6616  0.4842
  164MOL0     C21528   4.393   6.351   1.139  0.7792  0.3763  0.1658
  164MOL0     C21529   4.365   6.425   1.006  0.2416  0.2709 -0.2244
  164MOL0     C21530   4.217   6.424   0.956 -0.2512  0.6406  0.8933
  164MOL0     C21531   4.116   6.495   1.049 -0.1310 -0.0944  0.1112
  164MOL0     C21532   3.975   6.512   0.995  0.7669 -0.3617  0.2892
  164MOL0     N21533   3.919   6.639   1.031  0.4221  0.4235 -0.6522
  164MOL0     C21534   3.929   6.750   0.961 -0.2548  0.3638  0.1395
  164MOL0     C21535   3.863   6.851   1.023  0.3549 -0.2313  0.4150
  164MOL0     C21536   3.810   6.976   0.962 -0.0484  0.3288 -1.4704
  164MOL0     C21537   3.660   6.984   0.986 -0.0344  0.2534  0.2832
  164MOL0     C21538   3.588   6.885   0.906  0.0788  0.3769 -0.5892
  164MOL0     C21539   3.445   6.894   0.910  0.3389  0.3491 -0.4696
  164MOL0     O21540   3.394   6.800   0.824  0.5597  0.2796  0.6879
  164MOL0     C21541   3.263   6.797   0.780 -0.5858  0.5176  0.3593
  164MOL0     C21542   3.234   6.758   0.652 -0.1930 -0.9109 -0.0151
  164MOL0     C21543   3.101   6.771   0.618 -0.6259  0.5561  0.0673
  164MOL0     C21544   2.999   6.815   0.703 -0.6762  0.1665  1.0243
  164MOL0     C21545   2.858   6.841   0.656  0.0086  0.4672  1.1860
  164MOL0     O21546   2.784   6.912   0.741  0.3710 -0.1374 -0.1320
  164MOL0     C21547   2.661   6.953   0.706  0.1245 -0.1721 -0.3040
  164MOL0     C21548   2.617   7.076   0.742  0.0888  0.4382  0.3033
  164MOL0     C21549   2.494   7.133   0.718 -0.1338 -0.2111 -0.7913
  164MOL0     C21550   2.401   7.046   0.662  0.5478  0.2831  0.4487
  164MOL0     O21551   2.264   7.067   0.640  0.2978  0.4273 -0.2958
  164MOL0     C21552   2.240   7.194   0.583  0.7500 -0.3305  0.6700
  164MOL0     C21553   2.085   7.217   0.559 -0.6880  0.0521  0.3245
  164MOL0     C21554   2.034   7.114   0.465  0.5712 -0.0463  0.0674
  164MOL0     C21555   1.886   7.132   0.442  0.1124  0.2804 -0.6470
  164MOL0     C21556   1.844   7.260   0.366 -0.6501  1.0543 -0.0253
  164MOL0     C21557   1.696   7.272   0.361 -0.0147 -0.3734  0.1229
  164MOL0     C21558   1.637   7.349   0.483  0.0553 -0.2078 -0.3101
  164MOL0     C21559   1.499   7.406   0.456 -1.1399 -0.1142  0.2058
  164MOL0    Cl21560   1.380   7.276   0.411 -0.0636  0.4809  0.4174
  164MOL0     C21561   2.440   6.920   0.616  0.2255 -0.4821 -0.4685
  164MOL0     C21562   2.564   6.875   0.637 -0.4766  0.0312  0.3928
  164MOL0     O21563   2.836   6.818   0.540 -0.2366 -0.3855  0.0803
  164MOL0     C21564   3.034   6.848   0.831 -0.2536 -0.1152  0.0041
  164MOL0     C21565   3.166   6.844   0.866 -0.6686  0.5900  0.5110
  164MOL0     N21566   3.821   6.794   1.136  0.1560 -0.4997 -0.1217
  164MOL0     N21567   3.850   6.670   1.147  0.5621  0.1110  0.5517
  164MOL0     C21568   4.840   6.564   1.641  0.2872  0.0991  0.2423
  164MOL0     C21569   4.958   6.584   1.707  0.4964 -0.5413 -1.2301
  164MOL0     C21570   5.410   6.703   1.755  0.3453  0.6530  0.2049
  164MOL0     C21571   5.431   6.587   1.836  0.6426 -0.6745 -0.5515
  164MOL0     C21572   5.543   6.561   1.902 -0.1760  0.0511 -0.6728
  164MOL0     C21573   5.648   6.648   1.913 -0.9587  0.3756  0.1297
  164MOL0     O21574   5.760   6.627   1.987 -0.9171  0.1512 -0.5954
  164MOL0     C21575   5.744   6.601   2.129  0.3066  0.0544 -0.3126
  164MOL0     C21576   5.863   6.523   2.187  0.3491 -0.3191  0.0506
  164MOL0     C21577   6.004   6.575   2.155  0.9008  0.2702 -0.0198
  164MOL0     C21578   6.102   6.500   2.247 -0.4661 -0.9615  0.3862
  164MOL0     C21579   6.237   6.545   2.212 -0.7524  0.7096 -0.1641
  164MOL0     C21580   6.351   6.562   2.178  0.7287 -0.7489  0.1691
  164MOL0     C21581   5.635   6.761   1.836 -0.6680 -1.3623 -0.1187
  164MOL0     C21582   5.523   6.789   1.752  1.2936 -1.0947 -0.6435
  164MOL0     H21583   5.162   6.658   1.452 -1.9096  1.6501 -0.8799
  164MOL0     H21584   4.938   6.606   1.325 -2.9969 -0.7919  0.3460
  164MOL0     H21585   4.771   6.445   1.283  1.0382  0.8845 -2.5930
  164MOL0     H21586   4.714   6.617   1.253 -1.5410  0.4303 -0.3060
  164MOL0     H21587   4.494   6.570   1.242  2.8477  1.3767  1.4377
  164MOL0     H21588   4.501   6.452   1.373 -1.5197  2.0210  0.6462
  164MOL0     H21589   4.568   6.268   1.210 -3.6006 -1.3168  1.4891
  164MOL0     H21590   4.598   6.396   1.087 -3.7951  0.7137 -1.4792
  164MOL0     H21591   4.370   6.244   1.130  4.1818 -0.7833  2.7983
  164MOL0     H21592   4.328   6.395   1.215 -1.5480 -0.5037 -1.2147
  164MOL0     H21593   4.439   6.395   0.930  0.2746  0.8539 -0.4271
  164MOL0     H21594   4.368   6.532   1.025 -3.0655  1.0844 -3.1722
  164MOL0     H21595   4.176   6.323   0.949 -0.6517  0.8626 -0.1750
  164MOL0     H21596   4.224   6.474   0.859  3.8639  1.0148  1.2287
  164MOL0     H21597   4.116   6.442   1.145  1.2641  0.6353  0.5573
  164MOL0     H21598   4.160   6.595   1.063  0.9804 -0.4963 -0.4462
  164MOL0     H21599   3.904   6.433   1.024  0.3315 -0.6657 -1.5038
  164MOL0     H21600   3.972   6.513   0.886  0.2497  1.9150  0.2677
  164MOL0     H21601   3.973   6.749   0.862 -2.5128 -3.4002 -1.0669
  164MOL0     H21602   3.833   6.990   0.856  0.6991 -0.5730 -1.4397
  164MOL0     H21603   3.857   7.056   1.020 -0.2880 -1.2845  1.1511
  164MOL0     H21604   3.627   7.076   0.938 -0.1911 -1.0655 -2.3324
  164MOL0     H21605   3.639   6.975   1.093  0.7801  2.2566  0.6489
  164MOL0     H21606   3.611   6.915   0.804  1.1578 -0.0584 -0.4936
  164MOL0     H21607   3.617   6.781   0.925 -0.5303  0.1911 -0.6590
  164MOL0     H21608   3.406   6.994   0.889 -1.0629  0.4359  2.1722
  164MOL0     H21609   3.409   6.871   1.011 -0.9472 -0.9788 -1.1930
  164MOL0     H21610   3.308   6.716   0.585 -1.1156  1.1220 -2.4577
  164MOL0     H21611   3.076   6.741   0.517  1.4669 -3.7366  0.5696
  164MOL0     H21612   2.679   7.129   0.814  2.2304 -0.2957 -0.9114
  164MOL0     H21613   2.459   7.225   0.763  1.1258 -0.3059  0.4700
  164MOL0     H21614   2.292   7.213   0.489 -4.1294  0.8381 -2.1261
  164MOL0     H21615   2.275   7.270   0.655  2.5977 -1.6543  1.2368
  164MOL0     H21616   2.081   7.313   0.508  0.0728  0.1232  0.3769
  164MOL0     H21617   2.031   7.218   0.654  0.2637 -4.0007  1.1328
  164MOL0     H21618   2.040   7.017   0.516  1.6819  1.1507  2.3637
  164MOL0     H21619   2.097   7.101   0.377 -0.0392 -2.5756 -0.0817
  164MOL0     H21620   1.844   7.043   0.395 -0.2431  1.0435 -1.8027
  164MOL0     H21621   1.849   7.157   0.542 -2.2292 -1.8189 -0.9100
  164MOL0     H21622   1.886   7.236   0.268  0.4615  0.6022  0.5398
  164MOL0     H21623   1.890   7.352   0.404  2.9727  0.1291 -1.7495
  164MOL0     H21624   1.655   7.171   0.350 -1.1214  0.2764 -2.1286
  164MOL0     H21625   1.674   7.324   0.268 -0.8889 -0.1414  0.4438
  164MOL0     H21626   1.621   7.272   0.560 -2.5448 -0.4424 -1.0016
  164MOL0     H21627   1.696   7.434   0.518 -2.5911  0.9055  1.8007
  164MOL0     H21628   1.525   7.461   0.365  1.7819 -1.9178 -0.1998
  164MOL0     H21629   1.468   7.472   0.538 -1.6780  2.5528 -1.9754
  164MOL0     H21630   2.365   6.859   0.567 -0.7246  0.3455 -0.0875
  164MOL0     H21631   2.601   6.776   0.615  1.6477  0.2337  2.7119
  164MOL0     H21632   2.958   6.864   0.907 -0.3817  0.5380 -0.2501
  164MOL0     H21633   3.188   6.859   0.972  4.4032 -2.2858  0.1979
  164MOL0     H21634   4.751   6.531   1.695 -1.2314 -0.5121 -2.4777
  164MOL0     H21635   4.960   6.584   1.816 -2.6216 -0.7310 -1.1019
  164MOL0     H21636   5.345   6.522   1.843 -0.7860  0.7947 -3.1991
  164MOL0     H21637   5.562   6.472   1.961  2.6867  0.7220 -0.3968
  164MOL0     H21638   5.649   6.561   2.164  0.0506  1.5716  0.8564
  164MOL0     H21639   5.748   6.697   2.183  0.4850 -0.2098  0.1475
  164MOL0     H21640   5.850   6.514   2.295 -1.3895 -3.7214 -0.3109
  164MOL0     H21641   5.864   6.423   2.143  1.4610 -0.3519  0.1355
  164MOL0     H21642   6.014   6.682   2.178 -1.4503  0.5497 -0.0018
  164MOL0     H21643   6.024   6.566   2.048  1.3447  0.5933  0.0319
  164MOL0     H21644   6.062   6.510   2.348 -2.6375  2.2402 -0.6613
  164MOL0     H21645   6.086   6.392   2.235 -3.0577 -0.7372  1.3435
  164MOL0     H21646   6.449   6.587   2.142  1.1533 -2.2355  0.2400
  164MOL0     H21647   5.712   6.838   1.830 -0.9656 -1.0644 -0.1536
  164MOL0     H21648   5.523   6.888   1.708 -0.7051 -0.0765  1.3834
  165MOL0     O21649  11.247   5.375   9.269 -0.2881  0.3382  0.4024
  165MOL0     C21650  11.234   5.256   9.230 -0.3745  0.4357 -0.3829
  165MOL0     O21651  11.118   5.190   9.214 -0.5175  0.4257 -0.4139
  165MOL0     C21652  11.005   5.240   9.277 -0.2640  0.4405  0.0828
  165MOL0     C21653  10.930   5.357   9.241 -0.0063 -0.1144  0.3801
  165MOL0     C21654  10.825   5.405   9.312 -0.3848  0.5706 -0.6168
  165MOL0     C21655  10.787   5.332   9.422  0.8404  1.4450 -0.2421
  165MOL0     O21656  10.680   5.381   9.494  0.7854 -0.4906  0.6277
  165MOL0     C21657  10.646   5.333   9.623 -0.2699  0.8297  0.0663
  165MOL0     C21658  10.541   5.221   9.591 -0.4134 -0.3644 -0.5043
  165MOL0     C21659  10.402   5.257   9.640  0.0651  1.1934  0.2100
  165MOL0     C21660  10.346   5.395   9.589  0.4061 -0.6734  0.2394
  165MOL0     C21661  10.189   5.400   9.543 -0.4112  0.2814 -0.3952
  165MOL0     C21662  10.089   5.340   9.644 -0.3436 -0.5017 -0.3885
  165MOL0     C21663  10.084   5.425   9.772  0.6350  0.1105  1.0266
  165MOL0     C21664   9.958   5.386   9.848  0.0334 -0.4410 -0.4872
  165MOL0     N21665   9.924   5.462   9.966  0.2178  0.2589 -0.0357
  165MOL0     C21666   9.816   5.541   9.965 -0.0641  1.4581  0.5917
  165MOL0     C21667   9.808   5.594  10.089 -0.2953  0.9140 -0.2528
  165MOL0     C21668   9.706   5.705  10.138 -1.0028 -0.0969 -0.1252
  165MOL0     C21669   9.578   5.632  10.209  0.2837  0.7096  0.1350
  165MOL0     C21670   9.494   5.746  10.270  0.1689 -0.0213  0.1362
  165MOL0     C21671   9.350   5.697  10.302 -0.2731  0.1445  0.3768
  165MOL0     O21672   9.280   5.682  10.180 -0.1289  0.7084  1.1590
  165MOL0     C21673   9.147   5.682  10.178  0.2497 -0.4734 -0.9053
  165MOL0     C21674   9.059   5.617  10.267 -0.1587  0.0234  0.6041
  165MOL0     C21675   8.922   5.620  10.249 -0.5000 -0.5594  0.1071
  165MOL0     C21676   8.866   5.700  10.148 -0.2217  0.6918 -0.4982
  165MOL0     C21677   8.723   5.730  10.148  0.7297  0.5591 -0.9265
  165MOL0     O21678   8.659   5.794  10.050  0.2548  0.6812 -0.4734
  165MOL0     C21679   8.533   5.838  10.082 -0.6625  0.3029 -0.9132
  165MOL0     C21680   8.421   5.757  10.063  0.4073  0.1223  0.5240
  165MOL0     C21681   8.294   5.814  10.087  0.8675  0.0875  0.0947
  165MOL0     C21682   8.272   5.939  10.143  0.4202  0.0662 -0.0806
  165MOL0     O21683   8.145   5.981  10.170  0.2805  0.1444 -0.0722
  165MOL0     C21684   8.117   6.075  10.275 -0.2676  0.2998 -0.5590
  165MOL0     C21685   7.966   6.062  10.317  0.5179 -0.7900  0.1007
  165MOL0     C21686   7.922   6.182  10.394  0.0851  0.5287  0.3034
  165MOL0     C21687   7.781   6.152  10.452 -0.6025 -0.0817 -0.1584
  165MOL0     C21688   7.708   6.278  10.520 -0.4941 -0.0442 -0.6670
  165MOL0     C21689   7.560   6.246  10.525 -0.0043 -0.0213 -0.5302
  165MOL0     C21690   7.478   6.360  10.570 -0.1972 -0.1245 -0.6219
  165MOL0     C21691   7.327   6.353  10.557 -0.9336 -0.1251 -0.5046
  165MOL0    Cl21692   7.266   6.240  10.681 -0.4710 -0.6842  0.1192
  165MOL0     C21693   8.387   6.015  10.172  0.4255 -0.0836 -0.3485
  165MOL0     C21694   8.518   5.964  10.139  1.2851  0.8951 -0.2785
  165MOL0     O21695   8.663   5.690  10.248 -0.2320  0.0965 -0.1268
  165MOL0     C21696   8.951   5.766  10.055  0.1706  0.6186  0.7452
  165MOL0     C21697   9.094   5.753  10.068  0.2788  0.4452  0.4221
  165MOL0     N21698   9.911   5.536  10.156  0.3112 -0.4052 -0.4657
  165MOL0     N21699   9.978   5.455  10.089  0.2007  0.0457  0.7789
  165MOL0     C21700  10.851   5.213   9.458 -0.5513  0.3794 -0.0763
  165MOL0     C21701  10.967   5.175   9.389 -0.1150  0.1070 -0.1621
  165MOL0     C21702  11.358   5.180   9.181 -0.0976 -0.3091  0.6362
  165MOL0     C21703  11.346   5.047   9.115 -0.1127 -1.3315 -0.5642
  165MOL0     C21704  11.454   4.978   9.076 -0.6326  0.2151 -1.6279
  165MOL0     C21705  11.581   5.041   9.077 -0.1300  0.8835 -0.4858
  165MOL0     O21706  11.699   4.984   9.032  0.0488  0.2637  0.4274
  165MOL0     C21707  11.712   4.842   9.022 -0.3960  0.0475 -0.0072
  165MOL0     C21708  11.724   4.764   9.159 -0.4879 -0.3934  0.2096
  165MOL0     C21709  11.828   4.825   9.256 -1.0733  0.3953 -0.6302
  165MOL0     C21710  11.787   4.831   9.403 -0.0005 -1.0758  0.0665
  165MOL0     C21711  11.676   4.921   9.420  0.0400  0.2568 -0.5111
  165MOL0     C21712  11.597   5.007   9.427 -0.1268  0.5405 -0.9828
  165MOL0     C21713  11.588   5.174   9.125  0.0901  0.1190  0.1385
  165MOL0     C21714  11.483   5.236   9.181  0.8902 -0.7250 -0.4734
  165MOL0     H21715  10.984   5.410   9.164  1.6767  2.4756  3.1398
  165MOL0     H21716  10.769   5.497   9.296 -2.9104 -0.8175 -0.3871
  165MOL0     H21717  10.607   5.415   9.685  1.0258  2.3948 -1.0746
  165MOL0     H21718  10.727   5.291   9.683 -2.0013 -2.0894  0.5526
  165MOL0     H21719  10.583   5.127   9.629  0.9834  1.4678  2.9009
  165MOL0     H21720  10.540   5.213   9.482  1.0109  2.2518 -0.7760
  165MOL0     H21721  10.387   5.233   9.746 -0.7792 -0.0043 -0.1630
  165MOL0     H21722  10.337   5.185   9.591 -0.3814  0.4102  1.8623
  165MOL0     H21723  10.373   5.474   9.659 -0.8457  0.9046 -0.9528
  165MOL0     H21724  10.412   5.411   9.502 -0.2087  0.2666 -0.0740
  165MOL0     H21725  10.176   5.339   9.453 -3.4157  1.7546 -1.0872
  165MOL0     H21726  10.149   5.497   9.512 -2.6493 -0.7965 -1.1166
  165MOL0     H21727  10.113   5.235   9.666 -1.0502 -0.4448  0.7331
  165MOL0     H21728   9.987   5.351   9.607 -0.6141 -2.6434 -0.4010
  165MOL0     H21729  10.174   5.423   9.834  0.0417  0.4372  1.9183
  165MOL0     H21730  10.074   5.531   9.745  0.4784  0.0534  0.8578
  165MOL0     H21731   9.968   5.282   9.879 -0.5390 -0.1326  0.7898
  165MOL0     H21732   9.874   5.399   9.780  0.3114  0.5515 -0.6577
  165MOL0     H21733   9.747   5.570   9.886  1.3412  0.5492 -1.0397
  165MOL0     H21734   9.677   5.772  10.057 -2.3693  1.8012  1.8003
  165MOL0     H21735   9.758   5.769  10.211  0.9191 -2.0927  0.3708
  165MOL0     H21736   9.621   5.573  10.290  0.8198  0.2462 -0.4737
  165MOL0     H21737   9.516   5.582  10.134  0.9100  0.7714 -0.4339
  165MOL0     H21738   9.533   5.790  10.362  0.3521  0.8085 -0.3289
  165MOL0     H21739   9.481   5.824  10.195  1.5407 -0.1018 -0.2017
  165MOL0     H21740   9.304   5.779  10.358 -1.2036  0.8326 -1.3347
  165MOL0     H21741   9.343   5.598  10.349 -1.9454 -0.0228 -0.1659
  165MOL0     H21742   9.112   5.564  10.345  1.0029 -0.0437 -0.2080
  165MOL0     H21743   8.857   5.581  10.327 -0.2542  0.6685  0.9494
  165MOL0     H21744   8.450   5.661  10.021  1.5873 -0.1596  1.8832
  165MOL0     H21745   8.217   5.746  10.053  3.2421 -3.8125  1.8476
  165MOL0     H21746   8.141   6.181  10.256  1.2895  0.7647  3.0875
  165MOL0     H21747   8.186   6.058  10.359 -0.4854  3.5630  0.4424
  165MOL0     H21748   7.960   5.969  10.374 -0.0129 -1.4140 -0.9442
  165MOL0     H21749   7.896   6.042  10.235  2.7510 -1.0452 -1.8741
  165MOL0     H21750   7.924   6.272  10.333 -3.0290  0.9278  0.6740
  165MOL0     H21751   7.993   6.196  10.477 -0.4906 -2.7662  1.4964
  165MOL0     H21752   7.717   6.127  10.366 -1.2896  0.6208  0.1369
  165MOL0     H21753   7.782   6.074  10.528 -0.4777  1.6962  1.7505
  165MOL0     H21754   7.723   6.363  10.454 -0.3702  0.1301 -0.4161
  165MOL0     H21755   7.740   6.310  10.619 -2.6875 -2.1911  0.8702
  165MOL0     H21756   7.548   6.162  10.593  1.6918  1.3344  1.5803
  165MOL0     H21757   7.516   6.219  10.429 -1.6336 -1.1309  0.4850
  165MOL0     H21758   7.493   6.387  10.675 -3.8754 -0.1682  0.0313
  165MOL0     H21759   7.508   6.444  10.507 -1.4268  4.0159  3.7429
  165MOL0     H21760   7.298   6.317  10.458  0.1330 -1.1948 -0.4578
  165MOL0     H21761   7.276   6.450  10.561  0.0515  0.4065 -0.6596
  165MOL0     H21762   8.389   6.110  10.223  2.1871 -0.0582 -0.4061
  165MOL0     H21763   8.610   6.020  10.147  0.8280  1.9118 -1.6793
  165MOL0     H21764   8.902   5.817   9.973  1.4505 -0.3535 -0.6637
  165MOL0     H21765   9.161   5.791   9.992 -2.2927 -3.5665 -4.4936
  165MOL0     H21766  10.815   5.161   9.546 -0.4000 -2.0739 -1.3981
  165MOL0     H21767  11.019   5.086   9.425  1.4058  2.2907  3.6379
  165MOL0     H21768  11.246   5.006   9.100 -2.2140  2.1090  2.4036
  165MOL0     H21769  11.447   4.878   9.035 -1.2393 -1.6676  2.5218
  165MOL0     H21770  11.806   4.819   8.971  0.8773  1.9233  1.3512
  165MOL0     H21771  11.631   4.803   8.961 -2.0382  0.9247  1.5121
  165MOL0     H21772  11.624   4.770   9.203 -1.8015  2.1700 -2.7891
  165MOL0     H21773  11.747   4.660   9.132 -0.2291 -1.3788  3.6185
  165MOL0     H21774  11.855   4.926   9.224 -3.2527  1.6634  1.3120
  165MOL0     H21775  11.921   4.768   9.243 -0.9913  0.9716 -3.0883
  165MOL0     H21776  11.760   4.733   9.446 -2.2095 -0.7994 -0.5403
  165MOL0     H21777  11.867   4.875   9.463 -1.0356  0.0948  0.6412
  165MOL0     H21778  11.541   5.095   9.451 -1.0175  0.1084 -1.4120
  165MOL0     H21779  11.690   5.211   9.126 -0.6692  2.3339  0.6639
  165MOL0     H21780  11.505   5.328   9.236 -0.2814 -1.3710  1.1734
  166MOL0     O21781   6.267   7.399   2.721  0.6887 -0.3852  0.0480
  166MOL0     C21782   6.297   7.506   2.778 -0.6792 -0.5371  0.7881
  166MOL0     O21783   6.221   7.565   2.879 -0.0842  0.0864  0.3673
  166MOL0     C21784   6.084   7.563   2.868  0.3991  0.1256  0.6617
  166MOL0     C21785   6.005   7.519   2.767  0.6336  0.4361 -0.2864
  166MOL0     C21786   5.870   7.541   2.768 -0.3472 -0.2779  0.3635
  166MOL0     C21787   5.807   7.603   2.874 -0.2033 -0.2882  0.4784
  166MOL0     O21788   5.673   7.614   2.866 -0.3171 -0.0892  0.7837
  166MOL0     C21789   5.598   7.661   2.980  0.4637  0.2448  0.7077
  166MOL0     C21790   5.577   7.565   3.096 -0.7499  0.3765  0.3711
  166MOL0     C21791   5.435   7.580   3.157 -0.1027 -0.3786  0.4240
  166MOL0     C21792   5.416   7.718   3.228  0.9475 -0.0101  0.4523
  166MOL0     C21793   5.268   7.762   3.243  0.3877  0.1874  0.5831
  166MOL0     C21794   5.177   7.650   3.314  0.2285 -0.4573 -0.6021
  166MOL0     C21795   5.039   7.721   3.365  1.3151 -0.4006 -1.0900
  166MOL0     C21796   4.952   7.763   3.246 -0.4688  1.1017  0.8695
  166MOL0     N21797   4.813   7.796   3.260  0.3024 -0.7019 -0.2557
  166MOL0     C21798   4.734   7.754   3.361 -0.1866  0.7146  0.4584
  166MOL0     C21799   4.611   7.802   3.332  0.1229  0.2380 -0.3001
  166MOL0     C21800   4.485   7.787   3.412  0.5588  0.4341 -0.2744
  166MOL0     C21801   4.390   7.681   3.366  0.1084  0.6500 -0.2360
  166MOL0     C21802   4.415   7.556   3.455  0.5428  0.0805  0.7722
  166MOL0     C21803   4.387   7.428   3.376 -0.1324 -0.0641  0.6680
  166MOL0     O21804   4.259   7.444   3.311 -0.0510  0.6953 -0.1352
  166MOL0     C21805   4.157   7.442   3.400  0.0194  1.0590 -0.9360
  166MOL0     C21806   4.140   7.390   3.532  0.1460 -0.4787  0.5889
  166MOL0     C21807   4.015   7.399   3.598 -0.2126  0.2308  0.5264
  166MOL0     C21808   3.907   7.458   3.536  0.4621 -0.1482  0.4574
  166MOL0     C21809   3.780   7.471   3.609  0.5263 -0.4297  0.0353
  166MOL0     O21810   3.789   7.452   3.737  0.1405  0.0882 -0.6147
  166MOL0     C21811   3.697   7.453   3.837  0.5671 -0.0020  0.1797
  166MOL0     C21812   3.562   7.440   3.814 -0.1882 -0.2764  0.0154
  166MOL0     C21813   3.478   7.456   3.919  0.1164  0.4424 -0.3994
  166MOL0     C21814   3.521   7.480   4.049 -0.2763  0.0090 -0.0354
  166MOL0     O21815   3.432   7.495   4.150  0.1017  0.5903  0.2685
  166MOL0     C21816   3.465   7.560   4.269 -0.2107 -0.5464  0.0760
  166MOL0     C21817   3.345   7.606   4.359  0.2346  0.1963  0.1366
  166MOL0     C21818   3.260   7.492   4.409  1.2046  0.2846  0.5930
  166MOL0     C21819   3.319   7.416   4.522 -0.7848 -0.8235 -0.1893
  166MOL0     C21820   3.230   7.293   4.570  0.2929  0.3659 -0.0993
  166MOL0     C21821   3.099   7.327   4.643  0.0047  0.1659  0.0075
  166MOL0     C21822   2.977   7.323   4.550  0.4868 -0.2507  0.4958
  166MOL0     C21823   2.858   7.368   4.634  0.1125  0.4507 -1.0560
  166MOL0    Cl21824   2.841   7.253   4.771  0.5899 -0.2736 -0.1405
  166MOL0     C21825   3.663   7.484   4.072  0.1620  0.8450 -0.6024
  166MOL0     C21826   3.753   7.475   3.964  0.0792  0.3271  0.4804
  166MOL0     O21827   3.672   7.511   3.559  0.1038 -0.1471 -0.1241
  166MOL0     C21828   3.915   7.508   3.409  0.4230  0.2118 -0.0306
  166MOL0     C21829   4.039   7.501   3.347  0.2594 -0.1550 -0.3208
  166MOL0     N21830   4.616   7.858   3.207 -0.6652 -0.1102 -0.9052
  166MOL0     N21831   4.742   7.860   3.175  0.0591 -0.5504  0.0920
  166MOL0     C21832   5.885   7.660   2.974  1.0628  0.0702 -0.2751
  166MOL0     C21833   6.021   7.637   2.971 -0.4377  0.5808 -0.0025
  166MOL0     C21834   6.438   7.552   2.757 -0.4361  0.0941 -0.9499
  166MOL0     C21835   6.517   7.510   2.648 -0.1426 -0.3057 -0.8601
  166MOL0     C21836   6.656   7.538   2.640  0.2008 -0.3091 -0.7359
  166MOL0     C21837   6.710   7.625   2.733 -0.0516  0.1708  0.5149
  166MOL0     O21838   6.841   7.667   2.716  0.1448 -0.2652 -0.1295
  166MOL0     C21839   6.921   7.590   2.622 -0.1607  0.0549 -0.2535
  166MOL0     C21840   7.072   7.618   2.641  0.2714  0.4284  0.2277
  166MOL0     C21841   7.157   7.502   2.598 -0.1803 -0.0701  0.5592
  166MOL0     C21842   7.303   7.527   2.646  0.2961 -0.0449  1.3452
  166MOL0     C21843   7.381   7.408   2.630 -0.2994 -0.4469  0.9904
  166MOL0     C21844   7.438   7.306   2.584  0.1268 -0.8077 -0.8865
  166MOL0     C21845   6.632   7.675   2.831  0.5299 -0.4375 -0.7409
  166MOL0     C21846   6.495   7.636   2.848  0.5565  0.2732  0.4489
  166MOL0     H21847   6.046   7.468   2.680  0.1548  2.3727 -1.7224
  166MOL0     H21848   5.806   7.508   2.687 -1.4576  0.1602  1.0450
  166MOL0     H21849   5.501   7.691   2.938  1.0174 -1.1288 -1.6687
  166MOL0     H21850   5.640   7.757   3.012 -3.4679  2.0460  1.1035
  166MOL0     H21851   5.643   7.587   3.180 -0.8656  0.7970  0.3527
  166MOL0     H21852   5.596   7.461   3.069 -2.0893  0.1539  0.1942
  166MOL0     H21853   5.417   7.498   3.227 -0.0322  0.4385  1.4208
  166MOL0     H21854   5.363   7.587   3.075  2.0937  0.3555 -1.5391
  166MOL0     H21855   5.462   7.721   3.328  2.3592 -0.6666 -0.1399
  166MOL0     H21856   5.462   7.802   3.175 -0.6352  1.0096  0.6339
  166MOL0     H21857   5.225   7.780   3.144  2.0000 -0.3369 -0.2460
  166MOL0     H21858   5.256   7.856   3.298  2.5560  0.7432  0.1853
  166MOL0     H21859   5.227   7.596   3.395  0.5926 -0.6991 -0.9823
  166MOL0     H21860   5.154   7.568   3.245 -1.2685 -0.4937 -0.0823
  166MOL0     H21861   4.977   7.657   3.428  1.4750  1.0078  0.5380
  166MOL0     H21862   5.070   7.814   3.413 -1.1354  0.9964 -2.0147
  166MOL0     H21863   4.957   7.685   3.170 -0.9455  0.0434  1.8902
  166MOL0     H21864   4.996   7.856   3.208  2.5434 -0.2703  0.6914
  166MOL0     H21865   4.772   7.705   3.450 -0.7711 -1.3515 -0.3596
  166MOL0     H21866   4.430   7.880   3.393 -1.0657 -0.7463 -1.6450
  166MOL0     H21867   4.503   7.786   3.520  1.1369  1.7138 -0.3408
  166MOL0     H21868   4.400   7.656   3.260 -2.1476 -0.6830 -0.1903
  166MOL0     H21869   4.290   7.723   3.375  0.9217  3.1022 -1.5306
  166MOL0     H21870   4.519   7.549   3.487  1.7218 -0.3702 -2.7445
  166MOL0     H21871   4.357   7.568   3.547  0.2090 -0.6752  0.6673
  166MOL0     H21872   4.391   7.344   3.445 -0.9868  0.2951  1.1730
  166MOL0     H21873   4.449   7.404   3.290 -1.4463 -3.0693  0.4264
  166MOL0     H21874   4.224   7.332   3.571  1.1693 -2.1827 -3.6172
  166MOL0     H21875   4.003   7.358   3.698  4.3717  1.4255  1.7957
  166MOL0     H21876   3.515   7.421   3.717  0.3386 -0.4301 -0.2132
  166MOL0     H21877   3.370   7.451   3.913 -0.0627  0.0292  2.2211
  166MOL0     H21878   3.532   7.643   4.248  0.6686 -0.7152  2.0662
  166MOL0     H21879   3.523   7.486   4.325  1.1670  0.8506  0.5321
  166MOL0     H21880   3.292   7.685   4.305 -1.1639 -0.5191  0.4259
  166MOL0     H21881   3.384   7.649   4.452  1.1161 -0.3239  0.0271
  166MOL0     H21882   3.243   7.425   4.325 -3.4380 -0.2114  1.6931
  166MOL0     H21883   3.164   7.536   4.436  0.8764 -0.8486  1.2870
  166MOL0     H21884   3.414   7.374   4.488 -1.3773 -0.8231 -1.9248
  166MOL0     H21885   3.348   7.485   4.602  0.6331 -1.0713 -0.4601
  166MOL0     H21886   3.289   7.233   4.639  0.0911  1.0751  0.7113
  166MOL0     H21887   3.208   7.227   4.486 -1.0198  1.3004 -0.5304
  166MOL0     H21888   3.104   7.417   4.706 -1.5528  1.4770 -1.6457
  166MOL0     H21889   3.102   7.239   4.708 -3.4807  0.7836  1.1828
  166MOL0     H21890   2.996   7.394   4.469  1.1335  1.1813  1.8432
  166MOL0     H21891   2.962   7.218   4.522 -1.0193 -0.6566  2.5866
  166MOL0     H21892   2.763   7.371   4.580 -0.4779  1.7169 -0.0281
  166MOL0     H21893   2.886   7.468   4.670  2.4170 -0.3409 -0.4580
  166MOL0     H21894   3.709   7.506   4.168  1.0308 -1.3533 -0.4393
  166MOL0     H21895   3.859   7.494   3.979  0.1424  0.1844  0.2161
  166MOL0     H21896   3.837   7.563   3.359  1.8641  0.2202 -2.4134
  166MOL0     H21897   4.028   7.552   3.251 -0.4993 -1.0368 -0.7164
  166MOL0     H21898   5.865   7.719   3.063  1.2410 -2.3913  1.5065
  166MOL0     H21899   6.088   7.675   3.047  0.7851 -2.0889  0.3795
  166MOL0     H21900   6.475   7.448   2.571  0.5456 -0.8310 -0.8204
  166MOL0     H21901   6.711   7.497   2.556 -1.3972 -2.7336 -0.6950
  166MOL0     H21902   6.900   7.616   2.517  0.3372 -0.2030 -0.4230
  166MOL0     H21903   6.907   7.483   2.641 -0.3827  0.1548  0.1440
  166MOL0     H21904   7.113   7.705   2.588  3.7182 -2.2204 -1.8534
  166MOL0     H21905   7.082   7.640   2.747 -0.2233  0.3495  0.2949
  166MOL0     H21906   7.159   7.500   2.489 -0.8581  1.3232  0.4888
  166MOL0     H21907   7.123   7.402   2.626  0.6250 -1.3615 -2.6830
  166MOL0     H21908   7.348   7.608   2.588  0.5013  0.0313  1.6105
  166MOL0     H21909   7.297   7.547   2.753  0.3976 -0.9083  1.5190
  166MOL0     H21910   7.476   7.218   2.538  1.9283  0.1013 -1.2348
  166MOL0     H21911   6.665   7.752   2.900 -1.4611  0.0441 -0.2659
  166MOL0     H21912   6.435   7.682   2.927 -0.4779  1.6440 -1.0591
  167MOL0     O21913   7.156   1.846   8.864 -0.0422  0.0501  0.0795
  167MOL0     C21914   7.169   1.900   8.978  0.6283 -0.1692 -0.2825
  167MOL0     O21915   7.058   1.939   9.061  0.3369 -0.2480 -0.1729
  167MOL0     C21916   6.934   1.918   9.008  0.8997  0.6560  1.0014
  167MOL0     C21917   6.856   2.019   8.950 -1.2523  0.4387 -0.4522
  167MOL0     C21918   6.746   1.977   8.872  0.3843 -0.1611 -0.2418
  167MOL0     C21919   6.706   1.841   8.850  0.9791 -0.3882 -0.3044
  167MOL0     O21920   6.598   1.806   8.781 -0.0138  0.0619  0.7565
  167MOL0     C21921   6.549   1.905   8.691  0.7205  0.7833  0.7051
  167MOL0     C21922   6.458   1.823   8.600  0.2747 -0.1179  1.5208
  167MOL0     C21923   6.397   1.916   8.489 -1.5901 -0.4278 -0.2789
  167MOL0     C21924   6.271   1.866   8.427 -0.6793  0.0528  0.2265
  167MOL0     C21925   6.291   1.764   8.311 -0.8657 -0.0636 -0.5964
  167MOL0     C21926   6.156   1.690   8.274  1.0344  0.3290 -0.9231
  167MOL0     C21927   6.050   1.788   8.221 -0.4125  0.7884 -0.0371
  167MOL0     C21928   5.934   1.708   8.152  0.3984 -0.6781  0.3342
  167MOL0     N21929   5.860   1.795   8.063 -0.0972  0.1112 -0.3069
  167MOL0     C21930   5.730   1.831   8.076  0.4371 -0.2523  0.1258
  167MOL0     C21931   5.700   1.909   7.968 -0.2687 -0.1887  0.7043
  167MOL0     C21932   5.568   1.981   7.937  0.8564  0.8362  0.0515
  167MOL0     C21933   5.448   1.875   7.961  1.1117 -0.2435  0.0061
  167MOL0     C21934   5.432   1.789   7.840  0.6580  0.3488  0.4144
  167MOL0     C21935   5.322   1.688   7.847 -0.4068  0.8143  0.2857
  167MOL0     O21936   5.189   1.737   7.834  0.4154 -0.4623 -0.0369
  167MOL0     C21937   5.077   1.650   7.834 -0.8723 -0.4718  0.0025
  167MOL0     C21938   4.954   1.710   7.848 -0.3895 -0.1334 -0.1890
  167MOL0     C21939   4.842   1.635   7.867 -0.3693 -0.1180  0.1542
  167MOL0     C21940   4.845   1.497   7.855  0.9124  0.6959  0.0422
  167MOL0     C21941   4.718   1.415   7.883  0.0719  0.6339 -0.4432
  167MOL0     O21942   4.599   1.482   7.876  0.3282 -0.4936 -0.5675
  167MOL0     C21943   4.485   1.411   7.907 -0.2683  0.0681  0.0506
  167MOL0     C21944   4.393   1.450   8.009 -0.0107 -0.1293 -0.2212
  167MOL0     C21945   4.269   1.381   8.016  0.1530  1.2815 -0.1246
  167MOL0     C21946   4.239   1.265   7.938  0.0682 -0.0883 -0.3078
  167MOL0     O21947   4.113   1.206   7.946  0.2506 -0.3323 -0.1639
  167MOL0     C21948   4.054   1.191   8.075  0.0031  0.2873  0.2299
  167MOL0     C21949   3.964   1.069   8.091  0.9326 -0.2120 -0.1013
  167MOL0     C21950   3.893   1.076   8.225  0.6214  0.2170  0.2921
  167MOL0     C21951   3.833   0.933   8.274 -0.2758 -0.5696  0.0566
  167MOL0     C21952   3.696   0.917   8.211  0.5165 -0.6533  0.2098
  167MOL0     C21953   3.650   0.769   8.227  0.0289  0.1575 -0.9712
  167MOL0     C21954   3.505   0.756   8.183  0.4216  0.6192  0.3340
  167MOL0     C21955   3.444   0.613   8.200  0.1228  0.6165 -0.6829
  167MOL0    Cl21956   3.526   0.475   8.106  0.2247  0.1155 -0.1242
  167MOL0     C21957   4.331   1.236   7.840  0.5578  0.5324  0.6163
  167MOL0     C21958   4.455   1.297   7.825 -0.2576  0.5292  0.2139
  167MOL0     O21959   4.732   1.301   7.922  0.1737 -0.3447 -0.2541
  167MOL0     C21960   4.972   1.437   7.833 -0.1610  0.1993  0.2881
  167MOL0     C21961   5.088   1.517   7.816  0.1204  1.0666  0.1796
  167MOL0     N21962   5.813   1.915   7.887  0.0536  0.5844 -1.2428
  167MOL0     N21963   5.910   1.858   7.955 -0.2807 -0.2064 -0.4300
  167MOL0     C21964   6.787   1.745   8.898 -1.2171 -0.7588 -0.0231
  167MOL0     C21965   6.898   1.786   8.981  0.3067  0.4400 -0.7644
  167MOL0     C21966   7.304   1.920   9.041 -0.0875  0.6918 -0.5972
  167MOL0     C21967   7.420   1.921   8.963 -0.2112  0.7627 -0.2279
  167MOL0     C21968   7.546   1.936   9.016  0.3685 -0.6350 -0.3616
  167MOL0     C21969   7.569   1.952   9.149 -0.0767  0.1543 -0.9615
  167MOL0     O21970   7.694   1.962   9.202 -0.5874  0.0254  0.5478
  167MOL0     C21971   7.791   2.045   9.131  0.2773 -0.6518 -0.2235
  167MOL0     C21972   7.908   1.979   9.060 -0.7197  0.2703 -0.2775
  167MOL0     C21973   7.935   1.829   9.087  0.0833 -0.8976 -0.1667
  167MOL0     C21974   8.071   1.785   9.030 -0.0844  0.2144 -1.1322
  167MOL0     C21975   8.081   1.774   8.889 -0.4884  0.0824  0.3206
  167MOL0     C21976   8.087   1.749   8.774  0.1128  0.2636  0.9162
  167MOL0     C21977   7.454   1.943   9.228 -0.0273 -0.4574 -0.4689
  167MOL0     C21978   7.322   1.932   9.184 -0.3098  0.9835  0.8292
  167MOL0     H21979   6.887   2.122   8.967  2.6771  0.0750 -3.8766
  167MOL0     H21980   6.698   2.060   8.820  1.0672  1.1172  1.0974
  167MOL0     H21981   6.627   1.955   8.633 -0.9139  0.3710 -1.9911
  167MOL0     H21982   6.483   1.976   8.743 -2.3752 -0.0574 -1.7700
  167MOL0     H21983   6.384   1.762   8.654 -0.5355 -3.3520 -2.6938
  167MOL0     H21984   6.518   1.740   8.561  0.8351  0.6275  0.7741
  167MOL0     H21985   6.472   1.928   8.410 -2.9513 -0.7665 -1.6912
  167MOL0     H21986   6.390   2.018   8.527  1.6697  0.4755 -1.7827
  167MOL0     H21987   6.206   1.832   8.508 -0.0576 -2.0491 -0.0791
  167MOL0     H21988   6.234   1.957   8.380  0.2720  0.4872  0.2821
  167MOL0     H21989   6.361   1.693   8.354 -1.3168  1.4276  2.9880
  167MOL0     H21990   6.337   1.811   8.224  0.0540 -2.6472 -1.5831
  167MOL0     H21991   6.108   1.639   8.358  0.9851  0.6241 -0.7706
  167MOL0     H21992   6.178   1.619   8.194  0.4970 -0.0426 -0.7486
  167MOL0     H21993   6.015   1.857   8.299 -2.8518  1.3145 -1.5039
  167MOL0     H21994   6.089   1.858   8.146  1.8489 -1.8416 -1.5079
  167MOL0     H21995   5.873   1.660   8.229 -1.1383  2.4649  1.2641
  167MOL0     H21996   5.974   1.631   8.086 -1.4795 -0.8237 -0.7029
  167MOL0     H21997   5.666   1.815   8.162  2.0228 -0.3709  1.3357
  167MOL0     H21998   5.571   2.015   7.834  1.1521  0.1646 -0.1656
  167MOL0     H21999   5.546   2.071   7.996  0.7882  0.3254  0.8201
  167MOL0     H22000   5.352   1.928   7.957  1.4888  0.8039  2.6733
  167MOL0     H22001   5.441   1.814   8.052 -0.0829 -1.3057 -0.7572
  167MOL0     H22002   5.409   1.852   7.754  0.6089  0.3581  0.4343
  167MOL0     H22003   5.531   1.745   7.827  2.1503  3.9871 -1.9461
  167MOL0     H22004   5.342   1.634   7.941  0.8055  0.5590 -0.1053
  167MOL0     H22005   5.334   1.613   7.768  1.7008  1.1195  0.2537
  167MOL0     H22006   4.944   1.818   7.850  0.7109 -0.0097  2.1979
  167MOL0     H22007   4.751   1.693   7.878 -0.7787 -0.8033  0.4379
  167MOL0     H22008   4.412   1.538   8.070  3.0016  1.0652 -2.6182
  167MOL0     H22009   4.200   1.402   8.097  1.3252 -3.5109  2.4876
  167MOL0     H22010   3.989   1.275   8.100 -0.5545 -0.0006 -0.2124
  167MOL0     H22011   4.127   1.177   8.156 -0.4669 -1.4782  0.3853
  167MOL0     H22012   4.027   0.981   8.080  0.5586 -0.2418 -2.6714
  167MOL0     H22013   3.898   1.072   8.004  1.2714 -3.2326 -0.5855
  167MOL0     H22014   3.814   1.151   8.233 -0.9765 -1.4580  0.6999
  167MOL0     H22015   3.969   1.101   8.300  0.0021 -0.6519  1.2223
  167MOL0     H22016   3.892   0.848   8.238 -0.2073 -0.2981 -0.4770
  167MOL0     H22017   3.828   0.922   8.383 -3.0339  2.2225  0.3662
  167MOL0     H22018   3.701   0.941   8.105  1.8651 -1.1382  0.1484
  167MOL0     H22019   3.629   0.990   8.258  2.0967  1.9022 -1.2795
  167MOL0     H22020   3.663   0.725   8.326  1.7722 -2.2548 -2.1617
  167MOL0     H22021   3.711   0.705   8.162 -2.2019 -1.0924 -1.9447
  167MOL0     H22022   3.441   0.816   8.247 -4.0468 -2.9374 -0.3039
  167MOL0     H22023   3.491   0.771   8.075  1.9149 -0.9707 -0.1186
  167MOL0     H22024   3.337   0.626   8.180 -0.2339 -0.2985  0.5279
  167MOL0     H22025   3.442   0.585   8.306 -2.2959  0.3918 -0.7191
  167MOL0     H22026   4.295   1.156   7.775  0.3266  1.2025 -0.0917
  167MOL0     H22027   4.521   1.270   7.742  0.0367  1.1408  0.2465
  167MOL0     H22028   4.985   1.332   7.809  1.0043  0.6040 -0.9568
  167MOL0     H22029   5.179   1.462   7.796 -1.0861 -1.3528  0.9742
  167MOL0     H22030   6.768   1.639   8.883 -1.3315 -0.5482 -1.4581
  167MOL0     H22031   6.962   1.702   9.003  1.0029  1.5671  2.0041
  167MOL0     H22032   7.401   1.918   8.856 -3.4973 -0.2466  0.2581
  167MOL0     H22033   7.623   1.933   8.939  0.3223  0.1371 -0.4432
  167MOL0     H22034   7.835   2.115   9.202  0.5691  1.8287 -2.6814
  167MOL0     H22035   7.743   2.114   9.061  0.8357 -3.1544 -3.2996
  167MOL0     H22036   7.895   1.987   8.952  0.3251  0.5401 -0.3941
  167MOL0     H22037   8.000   2.035   9.081 -0.5188 -0.0244 -0.3768
  167MOL0     H22038   7.854   1.768   9.045 -1.0965  1.0800 -0.8853
  167MOL0     H22039   7.948   1.811   9.194  0.6397 -1.7792 -0.3711
  167MOL0     H22040   8.143   1.857   9.069 -0.8186 -0.3889  1.5056
  167MOL0     H22041   8.093   1.688   9.075  2.1585  0.5858 -1.3349
  167MOL0     H22042   8.081   1.742   8.667 -2.8754 -0.0223  1.0218
  167MOL0     H22043   7.475   1.939   9.335  0.2319 -0.6124 -0.5245
  167MOL0     H22044   7.247   1.932   9.262  1.1300 -0.8281  2.3229
  168MOL0     O22045   7.727   1.959   2.328 -0.9672  0.6962 -0.2406
  168MOL0     C22046   7.813   1.897   2.387  0.7574  0.5711 -0.5778
  168MOL0     O22047   7.819   1.759   2.407  0.0547 -0.1724 -0.2674
  168MOL0     C22048   7.711   1.678   2.379 -0.5397 -0.3087  0.0772
  168MOL0     C22049   7.624   1.624   2.483  0.1367 -0.4085  0.2486
  168MOL0     C22050   7.515   1.552   2.443  0.4567  0.2625 -0.1322
  168MOL0     C22051   7.479   1.527   2.307 -0.0990 -0.2902 -0.2813
  168MOL0     O22052   7.354   1.468   2.272  0.4187 -0.4049 -0.3058
  168MOL0     C22053   7.309   1.446   2.135  0.1166 -0.4877 -0.8552
  168MOL0     C22054   7.184   1.372   2.127  0.6105  0.6713  0.3080
  168MOL0     C22055   7.143   1.321   1.984  0.1406 -0.1552 -0.3447
  168MOL0     C22056   7.120   1.433   1.881 -0.1467 -1.0902  1.5269
  168MOL0     C22057   6.967   1.485   1.889 -0.0785 -1.1619  0.1760
  168MOL0     C22058   6.867   1.401   1.810 -0.0413 -0.6236  0.2372
  168MOL0     C22059   6.719   1.433   1.873  0.2567  0.3047  0.4706
  168MOL0     C22060   6.670   1.579   1.875 -0.8583  0.7072 -0.7162
  168MOL0     N22061   6.543   1.594   1.823  0.6098 -0.4270  0.2780
  168MOL0     C22062   6.423   1.613   1.891 -0.8085  0.9419 -0.2921
  168MOL0     C22063   6.325   1.599   1.794  0.2141 -0.2146 -0.1166
  168MOL0     C22064   6.175   1.605   1.824  0.1497  0.1356 -0.3876
  168MOL0     C22065   6.148   1.535   1.957 -0.0946  0.7972 -0.4102
  168MOL0     C22066   6.002   1.577   1.998  0.4705  1.0742  0.7696
  168MOL0     C22067   5.942   1.478   2.098  0.5984  0.0546  0.4140
  168MOL0     O22068   5.801   1.508   2.111 -0.1494  0.2410 -0.3405
  168MOL0     C22069   5.722   1.403   2.158 -0.3444 -0.7695 -0.0656
  168MOL0     C22070   5.759   1.301   2.235 -0.1671 -0.4635 -0.5644
  168MOL0     C22071   5.670   1.213   2.286  0.6018  0.2209  0.1239
  168MOL0     C22072   5.532   1.221   2.260  0.4768 -0.9256 -0.3229
  168MOL0     C22073   5.429   1.128   2.306 -0.4543  0.8361 -0.1992
  168MOL0     O22074   5.302   1.169   2.285  0.1062  1.0367  0.2371
  168MOL0     C22075   5.212   1.092   2.337  0.4736  0.9685  0.0618
  168MOL0     C22076   5.186   0.963   2.289  0.1508  0.0998  0.1940
  168MOL0     C22077   5.082   0.884   2.344 -0.8961  0.4654  0.0577
  168MOL0     C22078   4.994   0.925   2.445 -0.3936 -0.2261 -0.4717
  168MOL0     O22079   4.892   0.846   2.491 -0.4556  0.0785  0.1271
  168MOL0     C22080   4.863   0.864   2.628  0.3898 -0.0516 -0.6070
  168MOL0     C22081   4.738   0.949   2.632  0.7018  0.2717 -0.7367
  168MOL0     C22082   4.616   0.867   2.647 -0.5891 -0.6940  0.5513
  168MOL0     C22083   4.497   0.963   2.640  0.0949 -0.2462  0.7252
  168MOL0     C22084   4.368   0.886   2.672  0.3635 -0.0874 -0.7784
  168MOL0     C22085   4.366   0.800   2.796  0.6122 -0.2000 -0.7859
  168MOL0     C22086   4.219   0.759   2.826  0.0478  0.3978  0.0246
  168MOL0     C22087   4.163   0.650   2.733 -0.2771 -0.0268  0.4653
  168MOL0    Cl22088   4.259   0.504   2.759 -0.1246  0.4236  0.0738
  168MOL0     C22089   5.018   1.053   2.493  0.0544 -0.6177  0.5800
  168MOL0     C22090   5.123   1.143   2.438  0.1957 -0.4991 -0.0187
  168MOL0     O22091   5.472   1.032   2.368  0.2501 -0.4214 -0.4391
  168MOL0     C22092   5.494   1.332   2.187 -0.7913  0.0965  0.0702
  168MOL0     C22093   5.588   1.426   2.141  0.2029  0.0635  1.0408
  168MOL0     N22094   6.382   1.573   1.677 -0.7069  0.0396  0.1433
  168MOL0     N22095   6.514   1.574   1.690  0.2207 -0.0097 -0.1173
  168MOL0     C22096   7.571   1.582   2.214 -0.6830  0.4756 -0.6337
  168MOL0     C22097   7.681   1.655   2.250  1.1275 -0.2553  0.2429
  168MOL0     C22098   7.915   1.981   2.450  0.9904 -0.0206 -0.2551
  168MOL0     C22099   7.905   2.124   2.461 -0.3477 -0.2875  0.0886
  168MOL0     C22100   8.013   2.201   2.511  0.1548 -0.1398  0.1428
  168MOL0     C22101   8.136   2.137   2.548 -0.2829  0.7390 -0.7864
  168MOL0     O22102   8.250   2.208   2.590  0.2214  1.2778  0.1075
  168MOL0     C22103   8.254   2.345   2.548 -0.0907  0.3797 -0.5452
  168MOL0     C22104   8.381   2.410   2.599  0.2389  0.0554 -0.1532
  168MOL0     C22105   8.385   2.436   2.750 -0.5836  0.1595 -0.7344
  168MOL0     C22106   8.533   2.440   2.795  0.2019 -0.5225  0.0201
  168MOL0     C22107   8.535   2.436   2.944 -0.4034  0.9159 -0.2696
  168MOL0     C22108   8.516   2.428   3.063 -0.1760 -0.0060 -1.1689
  168MOL0     C22109   8.143   2.001   2.551  0.9755  0.6956 -0.6632
  168MOL0     C22110   8.033   1.923   2.506  1.0988 -0.1406 -0.3726
  168MOL0     H22111   7.648   1.645   2.587  0.7327  1.2067 -0.1819
  168MOL0     H22112   7.441   1.523   2.517  1.3550  2.8685  1.9568
  168MOL0     H22113   7.387   1.388   2.086  1.4163  1.0537 -0.6730
  168MOL0     H22114   7.301   1.546   2.091  3.1661  0.0715 -0.3739
  168MOL0     H22115   7.095   1.413   2.176 -2.5552 -3.6560 -1.1875
  168MOL0     H22116   7.192   1.289   2.197  0.3404 -0.9879 -1.5575
  168MOL0     H22117   7.058   1.256   2.004 -1.6300  2.0563 -0.2341
  168MOL0     H22118   7.225   1.258   1.950  0.6441  0.2496  0.0835
  168MOL0     H22119   7.186   1.519   1.896  1.1431 -1.8171  0.3107
  168MOL0     H22120   7.144   1.392   1.782  0.6568  1.2614  0.6682
  168MOL0     H22121   6.967   1.590   1.858  0.7075 -0.5830  2.0234
  168MOL0     H22122   6.927   1.487   1.991 -2.4122 -0.2455 -0.6668
  168MOL0     H22123   6.893   1.297   1.833  2.1245 -0.1777  0.0409
  168MOL0     H22124   6.868   1.419   1.702  0.3346  4.3779  0.8421
  168MOL0     H22125   6.639   1.375   1.825 -1.1746  1.5987  1.2364
  168MOL0     H22126   6.721   1.403   1.978  3.1663  1.8735  0.9815
  168MOL0     H22127   6.744   1.646   1.830 -0.8821  1.7966  0.7757
  168MOL0     H22128   6.689   1.608   1.979  1.9861 -0.6071 -0.7726
  168MOL0     H22129   6.401   1.649   1.991 -0.2404 -1.5032  0.7840
  168MOL0     H22130   6.132   1.552   1.738 -0.8927 -0.9934  0.7828
  168MOL0     H22131   6.133   1.705   1.811 -0.5204  0.1162  1.3824
  168MOL0     H22132   6.212   1.568   2.039 -0.8930 -0.8193  0.9455
  168MOL0     H22133   6.165   1.427   1.944  0.5250  0.8977 -0.4376
  168MOL0     H22134   6.006   1.677   2.042 -1.5994  2.3169 -1.6069
  168MOL0     H22135   5.936   1.577   1.910  0.3258 -1.9199  0.7845
  168MOL0     H22136   5.969   1.477   2.205 -1.3575 -0.2814  0.9370
  168MOL0     H22137   5.947   1.375   2.060 -2.1776  0.2265 -0.6301
  168MOL0     H22138   5.863   1.290   2.264 -0.5580 -2.7359  0.1423
  168MOL0     H22139   5.697   1.142   2.363  1.2416  1.6128  1.2339
  168MOL0     H22140   5.244   0.918   2.208  2.0654 -3.4816  3.2075
  168MOL0     H22141   5.058   0.789   2.296 -2.5491  0.9785 -0.2072
  168MOL0     H22142   4.945   0.911   2.683 -0.8311  1.5056 -0.0054
  168MOL0     H22143   4.852   0.772   2.687  0.6033  1.0473  1.2339
  168MOL0     H22144   4.730   1.026   2.555  0.0688  0.6903 -0.2687
  168MOL0     H22145   4.738   1.009   2.724  0.8265  3.4752 -2.6567
  168MOL0     H22146   4.621   0.817   2.744 -0.3454  1.5356  1.7371
  168MOL0     H22147   4.613   0.800   2.560  1.9684  1.8249 -1.6560
  168MOL0     H22148   4.510   1.041   2.716  2.6592  2.7765 -2.5031
  168MOL0     H22149   4.485   1.006   2.540  1.5036 -4.1433 -1.3009
  168MOL0     H22150   4.356   0.806   2.599 -3.2992 -2.1838  1.8185
  168MOL0     H22151   4.283   0.953   2.683  2.4631  2.4409  1.8032
  168MOL0     H22152   4.413   0.859   2.874  0.5153 -1.4027  0.2104
  168MOL0     H22153   4.431   0.714   2.776 -0.5047 -0.8711 -1.7387
  168MOL0     H22154   4.228   0.724   2.929  0.9448 -3.9369 -1.3003
  168MOL0     H22155   4.155   0.847   2.824  1.4146  1.4379  0.4945
  168MOL0     H22156   4.177   0.676   2.628 -1.6019  0.2714  0.3389
  168MOL0     H22157   4.057   0.629   2.752 -0.0350 -0.9550  0.8600
  168MOL0     H22158   4.973   1.087   2.586  0.3874 -0.2021  0.5937
  168MOL0     H22159   5.152   1.239   2.479  0.1975  0.7039 -2.6549
  168MOL0     H22160   5.394   1.348   2.149 -0.9754  0.1774  0.5942
  168MOL0     H22161   5.555   1.508   2.078  1.5504  0.1994  0.4717
  168MOL0     H22162   7.547   1.549   2.113 -4.6036 -0.9645  0.5682
  168MOL0     H22163   7.736   1.692   2.164  0.3668  0.3468 -0.0012
  168MOL0     H22164   7.823   2.178   2.415 -0.0436 -1.2859 -1.7089
  168MOL0     H22165   8.012   2.309   2.509  0.4326 -0.0275  2.4828
  168MOL0     H22166   8.168   2.390   2.599 -0.3714  1.0873 -1.5938
  168MOL0     H22167   8.258   2.350   2.438 -1.5794 -1.9831 -0.7794
  168MOL0     H22168   8.466   2.343   2.587  2.7383  2.8678  0.5212
  168MOL0     H22169   8.412   2.500   2.545  2.5084  0.8370  2.2478
  168MOL0     H22170   8.324   2.357   2.794  0.0290  0.1140  0.0721
  168MOL0     H22171   8.332   2.531   2.763  2.6416  2.3061 -1.9346
  168MOL0     H22172   8.587   2.355   2.752 -2.2027 -1.9413 -0.3741
  168MOL0     H22173   8.588   2.526   2.754  2.1919 -1.4079  0.7222
  168MOL0     H22174   8.495   2.443   3.167  1.2596 -0.3950 -0.8001
  168MOL0     H22175   8.234   1.949   2.578 -0.1910 -0.5034  1.2082
  168MOL0     H22176   8.043   1.816   2.494  2.0434  0.0397 -1.4382
  169MOL0     O22177   4.203   8.397  10.691 -0.0203 -0.1004 -0.0682
  169MOL0     C22178   4.273   8.442  10.599  0.1237 -0.9754 -0.3189
  169MOL0     O22179   4.231   8.486  10.482  0.0415 -0.2303  0.8236
  169MOL0     C22180   4.093   8.496  10.446  0.3295 -0.3416  0.5741
  169MOL0     C22181   4.062   8.500  10.308 -1.0411  0.1537 -1.0207
  169MOL0     C22182   3.936   8.486  10.264 -0.5257  0.7332  0.7100
  169MOL0     C22183   3.828   8.505  10.349  0.4023 -0.1357  0.4522
  169MOL0     O22184   3.702   8.499  10.301  0.4410 -0.2698 -0.2995
  169MOL0     C22185   3.605   8.556  10.390  0.2164 -0.6927 -0.7902
  169MOL0     C22186   3.480   8.585  10.304  0.4112  0.0999  0.0330
  169MOL0     C22187   3.358   8.607  10.397 -0.9396 -0.2102 -0.0142
  169MOL0     C22188   3.254   8.502  10.412 -0.0742  0.3816 -0.2142
  169MOL0     C22189   3.170   8.500  10.276  0.0889  0.4541 -0.2710
  169MOL0     C22190   3.029   8.555  10.275 -0.4918  0.4603 -0.5112
  169MOL0     C22191   2.931   8.447  10.329  0.0119  0.5593 -0.3864
  169MOL0     C22192   2.789   8.497  10.333 -0.1066  1.0820  0.6155
  169MOL0     N22193   2.704   8.385  10.373  0.4864 -0.1528 -0.6812
  169MOL0     C22194   2.651   8.292  10.290  0.0723 -0.7571 -0.1267
  169MOL0     C22195   2.628   8.184  10.364  0.5111  0.2322 -0.2074
  169MOL0     C22196   2.562   8.060  10.319  0.4675  0.5740  0.3051
  169MOL0     C22197   2.600   7.940  10.406  0.0999  0.1245 -0.2737
  169MOL0     C22198   2.555   7.810  10.325  0.0197 -0.2730 -0.6474
  169MOL0     C22199   2.551   7.700  10.431  0.3706  0.3758  0.7455
  169MOL0     O22200   2.489   7.581  10.363 -0.5197 -0.1758 -0.9415
  169MOL0     C22201   2.351   7.570  10.352 -0.6400  0.3023 -0.6167
  169MOL0     C22202   2.255   7.655  10.419 -0.9771 -0.1329 -0.1118
  169MOL0     C22203   2.115   7.635  10.397  0.5996  0.3426 -0.4524
  169MOL0     C22204   2.079   7.524  10.318  0.3738 -0.0660  0.3192
  169MOL0     C22205   1.936   7.495  10.299  0.0205  0.5752  0.0294
  169MOL0     O22206   1.845   7.606  10.312  0.3182  0.6946 -0.3045
  169MOL0     C22207   1.715   7.563  10.334 -0.0546  0.5716  0.6566
  169MOL0     C22208   1.671   7.473  10.433 -0.0725  1.1639 -0.1878
  169MOL0     C22209   1.543   7.474  10.477 -0.2358 -0.2314  0.3278
  169MOL0     C22210   1.435   7.546  10.403 -0.2074  0.5230  0.1141
  169MOL0     O22211   1.303   7.548  10.428  0.2688  0.2114  0.3533
  169MOL0     C22212   1.241   7.473  10.533  0.3301  1.0810  0.5860
  169MOL0     C22213   1.254   7.560  10.659  0.2629  0.7089 -0.4228
  169MOL0     C22214   1.186   7.506  10.777  0.0167 -0.3650 -0.6768
  169MOL0     C22215   1.031   7.500  10.765 -0.0682 -0.0862 -0.5488
  169MOL0     C22216   0.945   7.475  10.891 -0.5691  0.8918 -0.2041
  169MOL0     C22217   0.803   7.490  10.845 -0.0474  0.2397  0.2456
  169MOL0     C22218   0.705   7.424  10.939 -0.2649  0.1965 -0.1441
  169MOL0     C22219   0.638   7.529  11.035  0.3166 -0.3925  0.2588
  169MOL0    Cl22220   0.477   7.462  11.093 -0.1657  0.3794 -0.0540
  169MOL0     C22221   1.476   7.628  10.295  1.4139  0.3372  0.5528
  169MOL0     C22222   1.613   7.639  10.265  0.4497 -0.4389 -0.4038
  169MOL0     O22223   1.907   7.376  10.297 -0.6174 -0.2425  0.4159
  169MOL0     C22224   2.171   7.446  10.262 -0.7032  0.3436 -0.2348
  169MOL0     C22225   2.305   7.458  10.275 -0.5579  0.1228  0.7135
  169MOL0     N22226   2.682   8.203  10.496  0.7871  0.4360 -0.2429
  169MOL0     N22227   2.723   8.325  10.498  0.5288  0.4295 -0.1398
  169MOL0     C22228   3.855   8.501  10.483 -0.0966  1.1710  0.2410
  169MOL0     C22229   3.986   8.502  10.535 -0.3958  0.4694 -0.2653
  169MOL0     C22230   4.407   8.474  10.647 -0.3046  0.1896 -0.1142
  169MOL0     C22231   4.440   8.515  10.777  0.9171  0.1049  0.1520
  169MOL0     C22232   4.566   8.563  10.802  0.6034 -0.0101  0.0434
  169MOL0     C22233   4.661   8.563  10.700  0.9490  0.3413  0.5033
  169MOL0     O22234   4.783   8.616  10.733  0.2501  0.2133 -0.0854
  169MOL0     C22235   4.884   8.601  10.628  0.2082 -0.0990 -0.4809
  169MOL0     C22236   5.021   8.654  10.680  0.0887  0.9246  0.3055
  169MOL0     C22237   5.109   8.698  10.565 -0.0237 -1.1545  0.5770
  169MOL0     C22238   5.241   8.770  10.605  0.8947  0.3985  0.1576
  169MOL0     C22239   5.227   8.908  10.647 -0.6114 -0.1941  0.3341
  169MOL0     C22240   5.223   9.020  10.683 -0.5887 -1.4273 -0.4136
  169MOL0     C22241   4.626   8.512  10.569  0.7490  0.3000  0.3928
  169MOL0     C22242   4.502   8.464  10.546  0.3326  0.2284 -0.3087
  169MOL0     H22243   4.142   8.492  10.235 -0.1459 -1.2167  0.0495
  169MOL0     H22244   3.937   8.457  10.160 -0.7558  0.3942  0.8005
  169MOL0     H22245   3.641   8.650  10.433 -4.7442  1.3339 -0.4256
  169MOL0     H22246   3.576   8.479  10.463 -1.9288 -1.2437 -2.1437
  169MOL0     H22247   3.457   8.507  10.231 -0.1677 -0.0589  0.3793
  169MOL0     H22248   3.491   8.679  10.249 -1.6450 -0.1744 -0.9535
  169MOL0     H22249   3.307   8.692  10.351 -0.6435 -0.8041 -1.4851
  169MOL0     H22250   3.394   8.640  10.495  1.3275 -0.3214 -0.7594
  169MOL0     H22251   3.296   8.401  10.418 -0.9670 -0.1341 -1.7641
  169MOL0     H22252   3.185   8.528  10.493  0.6754  2.9529 -0.3346
  169MOL0     H22253   3.167   8.396  10.245  1.0547  1.3237 -3.7293
  169MOL0     H22254   3.226   8.550  10.197 -1.8759  1.9295 -0.8197
  169MOL0     H22255   3.003   8.581  10.172  1.2772 -0.3136 -1.1967
  169MOL0     H22256   3.022   8.640  10.343  4.4335 -0.4751  1.6162
  169MOL0     H22257   2.926   8.364  10.259 -2.7939 -0.6619  1.0851
  169MOL0     H22258   2.962   8.413  10.428 -2.4253 -2.6990 -0.5946
  169MOL0     H22259   2.758   8.531  10.233 -1.0707  0.1261  0.5775
  169MOL0     H22260   2.776   8.586  10.396 -0.1249 -0.1127  2.3481
  169MOL0     H22261   2.647   8.305  10.182 -0.9365 -0.5750 -0.0752
  169MOL0     H22262   2.575   8.040  10.213 -2.2693 -1.1269  0.1722
  169MOL0     H22263   2.453   8.066  10.317  0.3061 -1.6662 -0.3882
  169MOL0     H22264   2.548   7.938  10.502 -0.9418  1.1746 -0.7928
  169MOL0     H22265   2.706   7.927  10.433 -1.0493 -2.6862  3.8681
  169MOL0     H22266   2.449   7.824  10.300 -0.1310 -0.3654 -0.0820
  169MOL0     H22267   2.615   7.782  10.238  0.2426  0.4992 -0.7525
  169MOL0     H22268   2.487   7.723  10.517 -2.2942 -3.1919 -0.0451
  169MOL0     H22269   2.649   7.673  10.468  1.2959  2.5202  0.0535
  169MOL0     H22270   2.292   7.746  10.464  0.4284  0.1623 -1.7519
  169MOL0     H22271   2.041   7.696  10.448 -2.3339 -3.6590  0.5312
  169MOL0     H22272   1.740   7.411  10.489  0.7688 -1.2039 -3.5283
  169MOL0     H22273   1.512   7.415  10.563  0.9166 -0.7683  0.3864
  169MOL0     H22274   1.286   7.375  10.548 -1.6131  0.5029  3.5607
  169MOL0     H22275   1.135   7.462  10.509  0.8367  1.4972 -2.1184
  169MOL0     H22276   1.208   7.658  10.643  3.2997  2.7516  2.1162
  169MOL0     H22277   1.361   7.568  10.682  0.1000  1.9994 -0.0395
  169MOL0     H22278   1.209   7.563  10.867 -1.0128 -0.0206 -0.6148
  169MOL0     H22279   1.224   7.407  10.800 -1.5512 -0.8429 -0.0474
  169MOL0     H22280   1.001   7.596  10.721  3.1974  1.2913 -0.0876
  169MOL0     H22281   1.012   7.421  10.692  2.7193 -0.9778 -0.4368
  169MOL0     H22282   0.960   7.547  10.972  0.8412 -0.0154  0.3951
  169MOL0     H22283   0.967   7.376  10.933  0.3088  0.7815 -0.8845
  169MOL0     H22284   0.784   7.439  10.749 -1.5222  0.9999  0.1150
  169MOL0     H22285   0.777   7.592  10.817  1.4759  0.8469  0.9411
  169MOL0     H22286   0.633   7.376  10.872  0.4483  0.1591 -0.8884
  169MOL0     H22287   0.762   7.349  10.995 -0.8457  0.5291  0.9255
  169MOL0     H22288   0.630   7.626  10.984  3.1573  0.5731  1.4480
  169MOL0     H22289   0.715   7.543  11.111  2.9002 -2.0994 -1.8541
  169MOL0     H22290   1.399   7.676  10.235 -1.6958 -3.0115  1.4731
  169MOL0     H22291   1.635   7.721  10.198 -2.7925  1.5647  0.7289
  169MOL0     H22292   2.154   7.357  10.202  3.3964 -1.3531  0.7694
  169MOL0     H22293   2.385   7.391  10.243  0.4202  1.1577  0.9509
  169MOL0     H22294   3.777   8.496  10.559 -0.0983 -2.4606  0.1846
  169MOL0     H22295   3.998   8.491  10.642  1.9315  3.4271 -0.1016
  169MOL0     H22296   4.358   8.513  10.848 -0.0530  3.3784 -0.6917
  169MOL0     H22297   4.595   8.587  10.904 -2.0583 -2.0904  1.3921
  169MOL0     H22298   4.854   8.658  10.540 -1.4175 -2.2694 -1.4360
  169MOL0     H22299   4.892   8.497  10.596  2.2372 -0.7848  1.9530
  169MOL0     H22300   5.000   8.740  10.745  0.8323  1.7986 -0.5694
  169MOL0     H22301   5.068   8.577  10.741 -0.5429 -0.2219 -0.6204
  169MOL0     H22302   5.050   8.759  10.495  1.7262 -1.0308 -0.8702
  169MOL0     H22303   5.144   8.616  10.502  2.5809  1.5083 -1.7882
  169MOL0     H22304   5.285   8.705  10.681  1.4365 -0.6772 -1.0412
  169MOL0     H22305   5.313   8.761  10.523  0.2119 -3.4395 -0.1865
  169MOL0     H22306   5.216   9.119  10.722 -5.4542 -1.6478 -0.1262
  169MOL0     H22307   4.691   8.520  10.481 -1.0111  2.3926 -0.8335
  169MOL0     H22308   4.472   8.411  10.456 -2.0125  3.7594 -1.8194
  170MOL0     O22309   2.350   0.677   6.790 -0.2181  0.5474 -0.0456
  170MOL0     C22310   2.413   0.653   6.895 -0.0245  0.4532 -0.4854
  170MOL0     O22311   2.353   0.605   7.004 -0.1200  1.2344 -0.4135
  170MOL0     C22312   2.216   0.585   7.016 -0.1430 -0.1326  0.3396
  170MOL0     C22313   2.179   0.472   7.088 -0.0957 -0.0250  0.7956
  170MOL0     C22314   2.043   0.460   7.134 -0.5207 -0.3342 -0.6752
  170MOL0     C22315   1.939   0.546   7.088  0.0972  0.3461  0.0728
  170MOL0     O22316   1.805   0.525   7.115  0.7200  1.2561  0.5645
  170MOL0     C22317   1.767   0.385   7.152 -0.3058 -0.2248 -0.2528
  170MOL0     C22318   1.626   0.368   7.129 -0.0184 -0.8315  0.4175
  170MOL0     C22319   1.549   0.465   7.204 -0.5079  0.0344  0.2939
  170MOL0     C22320   1.399   0.453   7.172 -0.6566  0.0507 -0.3320
  170MOL0     C22321   1.328   0.359   7.269 -0.7132  0.3820 -0.2084
  170MOL0     C22322   1.187   0.332   7.226  0.1862 -0.1659 -0.2170
  170MOL0     C22323   1.092   0.459   7.235 -0.1864 -0.0031  0.0542
  170MOL0     C22324   0.946   0.428   7.204 -0.3594 -0.8455 -0.9721
  170MOL0     N22325   0.851   0.541   7.211  0.0687  0.0057  0.0866
  170MOL0     C22326   0.822   0.631   7.110 -0.9033  0.3339 -0.3006
  170MOL0     C22327   0.742   0.724   7.160 -0.0418 -0.6866  0.2173
  170MOL0     C22328   0.671   0.836   7.088 -0.0798  0.0537  0.0398
  170MOL0     C22329   0.540   0.789   7.016 -0.7190 -0.3974  0.1234
  170MOL0     C22330   0.426   0.784   7.113 -0.0092  0.0143 -0.0712
  170MOL0     C22331   0.325   0.675   7.063 -0.5790 -0.9433  0.9299
  170MOL0     O22332   0.209   0.658   7.128 -0.0521 -0.3139  0.5498
  170MOL0     C22333   0.103   0.740   7.102 -0.8197  0.9077  0.7918
  170MOL0     C22334   0.013   0.749   7.208  0.0551 -0.3619 -0.0579
  170MOL0     C22335  -0.105   0.831   7.199 -0.0920 -0.4032  0.9208
  170MOL0     C22336  -0.144   0.890   7.071 -0.3854  0.4807 -0.0156
  170MOL0     C22337  -0.277   0.951   7.050 -0.3904 -0.1180 -0.4104
  170MOL0     O22338  -0.352   0.981   7.158  0.0170  0.3723 -0.4404
  170MOL0     C22339  -0.460   1.067   7.126 -0.2639  0.7464 -0.2792
  170MOL0     C22340  -0.572   1.027   7.043 -0.1914  0.1960 -0.1946
  170MOL0     C22341  -0.679   1.121   7.018  0.0106 -0.2822  0.6369
  170MOL0     C22342  -0.673   1.252   7.086  0.2221 -0.1795  0.1037
  170MOL0     O22343  -0.761   1.346   7.036  0.0022 -0.1868 -0.4977
  170MOL0     C22344  -0.834   1.422   7.125  0.3236  0.4916 -1.3161
  170MOL0     C22345  -0.916   1.533   7.056 -0.3948  0.5866  0.2238
  170MOL0     C22346  -1.028   1.465   6.964  0.6196 -0.8986  0.7569
  170MOL0     C22347  -1.141   1.572   6.925 -0.5935 -0.1134  0.4339
  170MOL0     C22348  -1.257   1.520   6.832 -0.0368 -0.0734  0.4606
  170MOL0     C22349  -1.365   1.628   6.821 -0.1357 -0.1353 -0.0029
  170MOL0     C22350  -1.460   1.584   6.708 -0.8306 -0.3440 -0.2053
  170MOL0     C22351  -1.589   1.671   6.693  0.6260 -0.0313 -0.2152
  170MOL0    Cl22352  -1.540   1.847   6.667 -0.1029  0.5610 -0.0908
  170MOL0     C22353  -0.573   1.284   7.177  0.9872  0.0755 -0.0428
  170MOL0     C22354  -0.471   1.186   7.198 -0.3813 -0.2002  0.0818
  170MOL0     O22355  -0.306   0.980   6.936 -0.9481  0.0319  0.3653
  170MOL0     C22356  -0.050   0.879   6.965  0.1586  0.4189  0.0259
  170MOL0     C22357   0.071   0.814   6.983 -1.1430 -0.4053 -0.2365
  170MOL0     N22358   0.715   0.679   7.288  0.1706  0.4785 -0.2883
  170MOL0     N22359   0.774   0.567   7.312 -1.0234  0.2137  0.5590
  170MOL0     C22360   1.978   0.654   7.014 -0.1157 -0.3394  0.1469
  170MOL0     C22361   2.113   0.674   6.971 -0.3566  0.4257  0.6816
  170MOL0     C22362   2.563   0.666   6.892 -0.3343 -0.1024  0.4051
  170MOL0     C22363   2.635   0.626   7.003 -0.0838 -0.2172 -0.1291
  170MOL0     C22364   2.772   0.653   7.024  0.0137  0.3620  0.4953
  170MOL0     C22365   2.843   0.722   6.921 -0.2263 -0.2385  0.1879
  170MOL0     O22366   2.983   0.748   6.932 -0.1096 -0.7666  0.4738
  170MOL0     C22367   3.056   0.826   6.831  0.7866  0.0977  0.3010
  170MOL0     C22368   3.199   0.826   6.861 -0.8783 -0.6166 -0.4429
  170MOL0     C22369   3.281   0.914   6.768 -0.4955  0.5632 -0.6113
  170MOL0     C22370   3.405   0.976   6.817 -0.3306 -0.0887  0.2274
  170MOL0     C22371   3.489   0.876   6.882 -0.2979  0.1834  0.9345
  170MOL0     C22372   3.550   0.789   6.945  0.1664  0.1850 -0.4901
  170MOL0     C22373   2.765   0.763   6.799  0.6738 -0.2513 -0.5393
  170MOL0     C22374   2.624   0.731   6.785 -0.2974 -0.7062  0.4176
  170MOL0     H22375   2.250   0.394   7.113  1.6623  1.0128 -0.6834
  170MOL0     H22376   2.016   0.374   7.195 -0.9000 -0.7507 -1.4055
  170MOL0     H22377   1.786   0.373   7.259  0.6251  1.4920 -0.2017
  170MOL0     H22378   1.812   0.305   7.092 -0.2186  0.0052 -0.4932
  170MOL0     H22379   1.595   0.267   7.155  3.1425 -1.4461  2.3880
  170MOL0     H22380   1.607   0.388   7.023 -0.8363  1.2685  0.8889
  170MOL0     H22381   1.571   0.568   7.175 -0.3581  0.2260  1.0884
  170MOL0     H22382   1.569   0.460   7.311 -3.1990  0.6844  0.8865
  170MOL0     H22383   1.355   0.553   7.180  0.6409  0.9180 -2.8513
  170MOL0     H22384   1.376   0.438   7.066 -0.8053  3.7697 -0.9566
  170MOL0     H22385   1.321   0.404   7.369  0.9374  1.8981 -0.7190
  170MOL0     H22386   1.386   0.269   7.292  0.6268  1.3134  0.1865
  170MOL0     H22387   1.143   0.253   7.288  2.1565 -0.7014  0.5773
  170MOL0     H22388   1.176   0.288   7.126 -0.1400 -0.9929  0.1708
  170MOL0     H22389   1.090   0.495   7.338 -0.6543  2.8040 -0.8760
  170MOL0     H22390   1.127   0.533   7.163 -1.1247 -2.5261 -3.2565
  170MOL0     H22391   0.921   0.378   7.298  1.7404 -0.2596 -0.0267
  170MOL0     H22392   0.928   0.371   7.113  1.8974  0.1645 -2.1443
  170MOL0     H22393   0.851   0.630   7.005  2.2198  1.0265  0.4357
  170MOL0     H22394   0.738   0.873   7.010  1.8332 -0.5914  1.3127
  170MOL0     H22395   0.658   0.905   7.173  2.1638  0.4711  0.0979
  170MOL0     H22396   0.557   0.690   6.973  0.0130 -1.2700  2.2776
  170MOL0     H22397   0.520   0.849   6.927  4.0543  0.9157 -0.3269
  170MOL0     H22398   0.455   0.756   7.215  2.1385 -0.5035 -0.7653
  170MOL0     H22399   0.373   0.879   7.116 -0.2899 -0.0216 -2.3886
  170MOL0     H22400   0.380   0.580   7.065 -0.1817 -0.7060  1.4742
  170MOL0     H22401   0.307   0.691   6.956  0.3696  0.2082  0.9211
  170MOL0     H22402   0.029   0.688   7.296 -0.6814  3.3577  2.9040
  170MOL0     H22403  -0.169   0.847   7.285  0.2776 -0.1248  1.1502
  170MOL0     H22404  -0.571   0.927   7.000  3.3495  0.3696 -0.8183
  170MOL0     H22405  -0.754   1.080   6.951  0.4649 -3.6607  1.9779
  170MOL0     H22406  -0.771   1.469   7.201 -1.0960 -0.4203  0.5010
  170MOL0     H22407  -0.897   1.341   7.163  0.2803  1.6080  1.2187
  170MOL0     H22408  -0.844   1.579   6.988  0.8884  3.0577  3.0096
  170MOL0     H22409  -0.947   1.607   7.131 -0.3569 -0.2353  1.0681
  170MOL0     H22410  -1.077   1.384   7.018  1.9645 -0.3369  2.9290
  170MOL0     H22411  -0.988   1.421   6.872 -0.8593 -0.4661 -0.1199
  170MOL0     H22412  -1.170   1.626   7.015 -1.0526 -0.1005  0.2813
  170MOL0     H22413  -1.084   1.646   6.869 -0.4396 -0.1736  0.5101
  170MOL0     H22414  -1.292   1.422   6.867 -1.3913 -0.1990 -1.1199
  170MOL0     H22415  -1.216   1.499   6.733 -0.3836 -2.2007  0.7227
  170MOL0     H22416  -1.315   1.723   6.799 -1.0114 -0.0800 -1.9529
  170MOL0     H22417  -1.415   1.638   6.918  1.2339 -1.0380  0.8458
  170MOL0     H22418  -1.398   1.588   6.617  0.8080 -4.2502  0.5461
  170MOL0     H22419  -1.500   1.484   6.725  2.1625 -1.7842 -0.8971
  170MOL0     H22420  -1.642   1.659   6.788  0.4106 -1.7725 -0.5173
  170MOL0     H22421  -1.654   1.631   6.614  2.8874 -0.4583 -1.9844
  170MOL0     H22422  -0.572   1.385   7.217 -3.2709  0.6500 -0.9958
  170MOL0     H22423  -0.385   1.206   7.262 -0.7674 -1.1911  0.9406
  170MOL0     H22424  -0.076   0.923   6.869 -3.3838 -1.3502  0.0068
  170MOL0     H22425   0.132   0.820   6.894 -2.0642 -0.4656 -0.8800
  170MOL0     H22426   1.900   0.717   6.972 -0.4813 -0.6752  0.3268
  170MOL0     H22427   2.128   0.764   6.913  3.9330 -0.2902  0.3654
  170MOL0     H22428   2.566   0.585   7.076 -1.4096 -1.4178 -1.9270
  170MOL0     H22429   2.822   0.622   7.115  1.9097  0.2813 -0.5372
  170MOL0     H22430   3.019   0.928   6.844  1.2229  0.1464  1.3045
  170MOL0     H22431   3.044   0.787   6.730  2.9688 -0.8083  0.3433
  170MOL0     H22432   3.202   0.876   6.959  2.8196 -1.1377 -0.1269
  170MOL0     H22433   3.252   0.731   6.873  1.3605  0.6671  0.5516
  170MOL0     H22434   3.232   1.008   6.742  0.4973  0.6519 -2.2921
  170MOL0     H22435   3.297   0.855   6.678 -1.1224 -1.1500  0.3614
  170MOL0     H22436   3.459   1.025   6.736  0.0686  1.8990  1.6236
  170MOL0     H22437   3.381   1.054   6.890 -0.9972  0.8505 -0.9738
  170MOL0     H22438   3.618   0.732   7.004 -1.5482 -0.4519  0.9618
  170MOL0     H22439   2.817   0.814   6.719  0.5602 -2.3245 -2.0148
  170MOL0     H22440   2.577   0.745   6.689 -0.7462 -1.6019  0.4928
  171MOL0     O22441   7.719   6.394   7.085  0.1791 -0.4075 -0.0531
  171MOL0     C22442   7.600   6.364   7.099  0.1091 -0.1633  0.1410
  171MOL0     O22443   7.559   6.238   7.115  0.1587 -0.2349  0.0952
  171MOL0     C22444   7.644   6.139   7.117 -1.1735 -0.4936 -0.4808
  171MOL0     C22445   7.704   6.094   7.244 -0.1918  0.7281 -0.5495
  171MOL0     C22446   7.759   5.958   7.251  0.0365 -0.6798  0.8864
  171MOL0     C22447   7.762   5.874   7.135  0.0931 -0.0948  0.6047
  171MOL0     O22448   7.802   5.748   7.146 -0.6508 -0.3120 -0.5673
  171MOL0     C22449   7.775   5.677   7.268  0.3970  0.4655 -0.3770
  171MOL0     C22450   7.910   5.662   7.333  0.3020 -0.2786 -0.1531
  171MOL0     C22451   7.999   5.563   7.261  0.5081 -0.0244 -0.6188
  171MOL0     C22452   8.139   5.568   7.317 -0.3352 -0.1562  0.9061
  171MOL0     C22453   8.240   5.472   7.251 -1.0459  1.1653  0.0406
  171MOL0     C22454   8.215   5.316   7.300 -0.0866 -1.0044 -0.8832
  171MOL0     C22455   8.277   5.214   7.209  0.0016 -0.6726 -0.4232
  171MOL0     C22456   8.216   5.078   7.238 -0.1403 -0.5704  0.2577
  171MOL0     N22457   8.087   5.055   7.169 -0.0098 -0.0372 -0.7481
  171MOL0     C22458   8.066   4.959   7.076 -0.1106  0.1936 -0.4251
  171MOL0     C22459   7.937   4.949   7.068 -0.1095 -0.1305 -0.4678
  171MOL0     C22460   7.877   4.840   6.986  0.9042 -0.1198  0.2019
  171MOL0     C22461   7.718   4.837   6.991 -0.1833  0.9513  0.0314
  171MOL0     C22462   7.651   4.947   6.910  0.0213 -0.1469 -0.8402
  171MOL0     C22463   7.503   4.986   6.930  0.4906  0.6500  0.4375
  171MOL0     O22464   7.422   4.864   6.925  0.0012 -0.1123  0.1279
  171MOL0     C22465   7.289   4.885   6.935  0.0380  0.8169 -0.0190
  171MOL0     C22466   7.209   4.775   6.924  0.6512  0.4922 -0.3556
  171MOL0     C22467   7.068   4.782   6.931  0.5836  1.0437 -0.1684
  171MOL0     C22468   7.011   4.904   6.951  0.6012  0.6191  0.8452
  171MOL0     C22469   6.859   4.919   6.954  0.1901 -0.3587  1.0320
  171MOL0     O22470   6.812   5.048   6.957  0.4285  0.0733 -0.9406
  171MOL0     C22471   6.679   5.063   6.974  0.6791  0.4294 -0.3790
  171MOL0     C22472   6.634   5.183   6.916  0.4581  0.3340  0.3935
  171MOL0     C22473   6.502   5.227   6.941  0.2232  0.1828 -0.3197
  171MOL0     C22474   6.412   5.153   7.022  0.0689 -0.7921  0.5430
  171MOL0     O22475   6.287   5.199   7.051  0.0288  0.3860  0.0640
  171MOL0     C22476   6.274   5.338   7.089  0.1141  0.6734  0.6455
  171MOL0     C22477   6.174   5.331   7.206 -0.6949  0.2790  0.1976
  171MOL0     C22478   6.142   5.468   7.258 -0.4303  0.6509 -0.2920
  171MOL0     C22479   6.034   5.470   7.376 -0.4637  0.5982  0.3604
  171MOL0     C22480   5.998   5.605   7.418 -0.4757  0.0842 -0.2162
  171MOL0     C22481   5.914   5.611   7.547  1.3526 -0.3804 -0.6325
  171MOL0     C22482   5.974   5.555   7.683  0.1257 -0.5467  0.4040
  171MOL0     C22483   6.113   5.609   7.731  0.7165 -0.3907  0.1654
  171MOL0    Cl22484   6.078   5.793   7.748 -0.0800  0.3682 -0.3930
  171MOL0     C22485   6.462   5.033   7.081 -0.6925  0.1845  0.3491
  171MOL0     C22486   6.595   4.983   7.061 -0.4739 -0.4226 -0.1725
  171MOL0     O22487   6.788   4.818   6.944 -0.4115 -0.0025 -0.6765
  171MOL0     C22488   7.088   5.016   6.970  0.1063 -0.1062  0.1788
  171MOL0     C22489   7.226   5.007   6.958  0.0748 -0.2853  0.3871
  171MOL0     N22490   7.869   5.048   7.140 -0.2906  0.7441 -0.2682
  171MOL0     N22491   7.969   5.105   7.215  0.0611  0.3811 -0.3586
  171MOL0     C22492   7.707   5.933   7.014 -0.2637  0.4724  0.8393
  171MOL0     C22493   7.654   6.061   7.001 -0.0381  0.0858 -0.4086
  171MOL0     C22494   7.506   6.480   7.094 -0.2947 -0.6745  1.4242
  171MOL0     C22495   7.371   6.449   7.095 -0.8474 -0.0567  0.0507
  171MOL0     C22496   7.274   6.547   7.096  0.8413  0.5556 -0.4099
  171MOL0     C22497   7.299   6.680   7.073  0.8204  0.3632 -0.4822
  171MOL0     O22498   7.201   6.778   7.074 -0.5512  0.2354 -0.4141
  171MOL0     C22499   7.119   6.764   6.958  0.4889  0.2966 -0.5612
  171MOL0     C22500   7.194   6.807   6.836  0.8647  0.5561  0.0425
  171MOL0     C22501   7.109   6.789   6.709 -0.1875  0.2491 -0.9593
  171MOL0     C22502   7.159   6.865   6.587  1.5188  0.4682  0.4559
  171MOL0     C22503   7.284   6.818   6.546 -0.8849 -0.2508  1.0855
  171MOL0     C22504   7.391   6.770   6.509 -0.2056 -0.2263 -0.3783
  171MOL0     C22505   7.436   6.712   7.078 -1.1496  0.2556 -0.2754
  171MOL0     C22506   7.540   6.620   7.077  0.0899  0.0790  0.2116
  171MOL0     H22507   7.684   6.151   7.334  1.2501  1.3465 -0.5966
  171MOL0     H22508   7.802   5.932   7.348  0.4035  2.1483  1.5784
  171MOL0     H22509   7.727   5.581   7.247 -3.5935  2.2566 -0.3626
  171MOL0     H22510   7.719   5.719   7.351  0.0462 -1.4416  0.4072
  171MOL0     H22511   7.882   5.631   7.434 -3.2268  0.9816 -0.6228
  171MOL0     H22512   7.953   5.763   7.331  1.6795 -0.8111  0.6870
  171MOL0     H22513   8.002   5.595   7.157  0.9064  2.0099 -0.0227
  171MOL0     H22514   7.953   5.463   7.262 -5.1365  2.1608 -2.3192
  171MOL0     H22515   8.178   5.670   7.314  2.6945 -1.2162 -0.0390
  171MOL0     H22516   8.133   5.536   7.421 -0.9068  1.4106  1.3734
  171MOL0     H22517   8.342   5.496   7.281 -1.5873  2.7157  0.7504
  171MOL0     H22518   8.237   5.469   7.142  0.7922 -1.3302 -0.0270
  171MOL0     H22519   8.106   5.306   7.295 -1.0742  5.0400  0.7872
  171MOL0     H22520   8.247   5.306   7.404  0.7713 -0.6128 -1.0971
  171MOL0     H22521   8.250   5.246   7.108 -0.2595 -1.3079 -0.5589
  171MOL0     H22522   8.386   5.213   7.215  0.2239  3.2241 -1.1678
  171MOL0     H22523   8.182   5.074   7.342 -2.7852  2.3090 -0.3341
  171MOL0     H22524   8.290   5.005   7.204 -1.0270 -0.9840 -0.8513
  171MOL0     H22525   8.144   4.904   7.025  0.5229  0.0589  0.6505
  171MOL0     H22526   7.909   4.742   7.023 -0.4218 -0.8181 -0.4514
  171MOL0     H22527   7.922   4.847   6.886  1.5439 -0.4671  0.4566
  171MOL0     H22528   7.683   4.844   7.094 -2.6655  1.2376 -0.7626
  171MOL0     H22529   7.680   4.742   6.953 -1.6517  0.3668  2.7305
  171MOL0     H22530   7.708   5.039   6.929 -2.3304  1.4094 -0.9342
  171MOL0     H22531   7.648   4.928   6.802 -1.6597  2.4259 -1.3299
  171MOL0     H22532   7.463   5.064   6.864  1.6036 -0.9908 -2.3878
  171MOL0     H22533   7.501   5.024   7.032 -1.4323  0.2991  0.5593
  171MOL0     H22534   7.262   4.683   6.900  0.4851  1.0074 -3.0711
  171MOL0     H22535   7.006   4.694   6.915  1.6673 -0.1139  1.7174
  171MOL0     H22536   6.701   5.250   6.863 -2.7878  2.9278 -0.8699
  171MOL0     H22537   6.477   5.319   6.889 -0.5028 -0.1785 -0.6221
  171MOL0     H22538   6.244   5.401   7.005  1.4050  0.5672  0.0794
  171MOL0     H22539   6.366   5.378   7.133 -0.0311  0.8181  0.8186
  171MOL0     H22540   6.213   5.274   7.291 -0.5983 -0.2390 -0.1926
  171MOL0     H22541   6.083   5.290   7.161  0.3447  0.7230 -2.4981
  171MOL0     H22542   6.113   5.533   7.175  0.2892  3.0831  1.2799
  171MOL0     H22543   6.235   5.511   7.294  1.3502 -1.8193 -1.6220
  171MOL0     H22544   5.950   5.408   7.343  3.0874 -3.5458 -1.9804
  171MOL0     H22545   6.079   5.424   7.465  0.7923  0.6107 -0.2423
  171MOL0     H22546   5.950   5.655   7.333 -0.8884 -0.0993 -0.0905
  171MOL0     H22547   6.098   5.649   7.432  0.9043 -2.3419 -1.6649
  171MOL0     H22548   5.839   5.534   7.526 -0.2767  0.3650  1.9640
  171MOL0     H22549   5.872   5.711   7.561  0.3176 -1.1545  2.6758
  171MOL0     H22550   5.902   5.574   7.763  0.5714  0.7507  0.5088
  171MOL0     H22551   5.970   5.445   7.676  1.1427 -0.5856  0.1845
  171MOL0     H22552   6.189   5.586   7.656  1.5360  1.1532  0.4839
  171MOL0     H22553   6.141   5.554   7.821  3.1441 -0.6121 -0.6630
  171MOL0     H22554   6.399   4.975   7.148 -0.5352 -0.3038  0.0789
  171MOL0     H22555   6.624   4.889   7.107  3.8191  2.0571  2.9097
  171MOL0     H22556   7.043   5.114   6.979 -2.5603 -1.4140  3.5402
  171MOL0     H22557   7.280   5.101   6.947 -0.1731 -0.3439 -1.6685
  171MOL0     H22558   7.700   5.864   6.931  0.9580  1.9418 -0.5631
  171MOL0     H22559   7.601   6.097   6.913  2.2114  1.0504 -1.4490
  171MOL0     H22560   7.330   6.349   7.097  0.2320 -0.6092 -2.3326
  171MOL0     H22561   7.169   6.521   7.107  1.1162 -0.1191  0.9471
  171MOL0     H22562   7.032   6.828   6.977  1.0728  0.2418  3.0621
  171MOL0     H22563   7.082   6.661   6.955  2.8715 -0.6182 -0.9076
  171MOL0     H22564   7.227   6.911   6.844 -0.9344  1.1079  0.8639
  171MOL0     H22565   7.282   6.744   6.830  1.8030  1.7029  1.2273
  171MOL0     H22566   7.008   6.825   6.731  0.0671  1.8685 -2.2973
  171MOL0     H22567   7.108   6.684   6.681  2.5650  0.5242 -2.4786
  171MOL0     H22568   7.098   6.832   6.502  0.8616 -1.0445  1.4521
  171MOL0     H22569   7.149   6.973   6.591  4.6253  0.9018 -0.6589
  171MOL0     H22570   7.490   6.735   6.487 -0.7337 -2.3295  0.4255
  171MOL0     H22571   7.470   6.815   7.074 -1.5923  0.3891 -0.7459
  171MOL0     H22572   7.642   6.656   7.075  0.3327 -0.6055  0.2434
  172MOL0     O22573   1.692   2.790   4.506 -0.6593 -0.4682  0.0592
  172MOL0     C22574   1.757   2.744   4.415 -0.6611  0.0103 -0.0831
  172MOL0     O22575   1.708   2.679   4.310 -0.0789  0.6618 -0.2279
  172MOL0     C22576   1.572   2.646   4.299 -0.1209  0.5570 -0.2456
  172MOL0     C22577   1.486   2.722   4.216  0.0334  1.1509 -0.6911
  172MOL0     C22578   1.350   2.686   4.206 -0.5799  0.7720 -0.0068
  172MOL0     C22579   1.294   2.575   4.265 -0.0932 -0.0782 -0.1197
  172MOL0     O22580   1.157   2.549   4.260  0.0258 -0.1862  0.0466
  172MOL0     C22581   1.064   2.649   4.216 -0.0856 -0.0041  0.3234
  172MOL0     C22582   0.929   2.589   4.216  0.3368  0.1557 -0.6783
  172MOL0     C22583   0.839   2.667   4.120  0.2853  0.2007  0.4038
  172MOL0     C22584   0.699   2.609   4.136  0.5293  0.7590 -0.0059
  172MOL0     C22585   0.604   2.686   4.040  0.5530  0.0025  0.2314
  172MOL0     C22586   0.456   2.649   4.069 -0.3961  0.2471 -0.4312
  172MOL0     C22587   0.357   2.692   3.959  0.0852 -0.1628  0.2082
  172MOL0     C22588   0.215   2.658   4.008  0.2527 -0.5188  0.3063
  172MOL0     N22589   0.172   2.513   3.996  0.7110  0.0408  0.1030
  172MOL0     C22590   0.124   2.455   3.888  0.0881  0.0929 -0.0645
  172MOL0     C22591   0.141   2.319   3.914  0.1232 -0.1984  0.2153
  172MOL0     C22592   0.122   2.209   3.815 -0.4459 -0.7977  0.3436
  172MOL0     C22593   0.201   2.231   3.685 -0.3187  0.2114  0.4289
  172MOL0     C22594   0.353   2.193   3.706 -0.0722 -0.9781 -0.9553
  172MOL0     C22595   0.435   2.195   3.573  0.9482  0.0170 -0.2904
  172MOL0     O22596   0.576   2.178   3.595  0.2121  0.6327 -0.3455
  172MOL0     C22597   0.652   2.279   3.649 -0.0527  0.1201 -1.0923
  172MOL0     C22598   0.789   2.261   3.677 -0.3321 -0.7413 -0.4896
  172MOL0     C22599   0.861   2.366   3.726  0.0410 -0.3433 -0.2170
  172MOL0     C22600   0.810   2.499   3.718 -0.4334  0.4299 -0.9303
  172MOL0     C22601   0.901   2.614   3.742 -0.7844 -0.3043  0.0243
  172MOL0     O22602   1.029   2.574   3.775 -0.1947  0.1622  0.5015
  172MOL0     C22603   1.129   2.665   3.795  0.1972 -1.0892 -0.5035
  172MOL0     C22604   1.254   2.626   3.769 -0.6598  0.7094 -0.0357
  172MOL0     C22605   1.368   2.710   3.797 -0.6173 -0.3452  0.0298
  172MOL0     C22606   1.337   2.832   3.847 -0.4727  0.2314 -1.6412
  172MOL0     O22607   1.444   2.914   3.890 -0.6185  0.4706  0.2021
  172MOL0     C22608   1.508   2.971   3.773  0.1773 -0.8406  0.0052
  172MOL0     C22609   1.629   3.054   3.823  0.4952 -0.1037 -0.3205
  172MOL0     C22610   1.745   2.960   3.849 -0.3305  0.0519 -0.3384
  172MOL0     C22611   1.823   2.892   3.731 -0.0361  0.0723 -0.3725
  172MOL0     C22612   1.936   2.975   3.663 -0.2611 -0.0089 -0.6898
  172MOL0     C22613   2.052   3.016   3.760 -0.8120  0.6358  0.6287
  172MOL0     C22614   2.122   2.884   3.811  0.1518  0.0124 -0.4540
  172MOL0     C22615   2.250   2.928   3.879  0.0559  0.1117 -0.5021
  172MOL0    Cl22616   2.345   2.782   3.938  0.0226  0.3151  0.1565
  172MOL0     C22617   1.210   2.891   3.872  0.3803  0.2238  0.8817
  172MOL0     C22618   1.106   2.808   3.837  1.0249  0.0908  0.6090
  172MOL0     O22619   0.865   2.729   3.719 -0.4935 -0.1568  0.3448
  172MOL0     C22620   0.673   2.522   3.695  1.0814  0.4229 -0.2432
  172MOL0     C22621   0.596   2.412   3.657 -0.5757  0.5935 -0.2485
  172MOL0     N22622   0.197   2.303   4.041 -0.6495 -0.2774 -0.0642
  172MOL0     N22623   0.220   2.421   4.083  0.3408  1.3246 -0.3018
  172MOL0     C22624   1.381   2.493   4.338  0.4279 -0.6810 -0.3442
  172MOL0     C22625   1.516   2.532   4.358 -0.2662 -0.1513  0.6290
  172MOL0     C22626   1.898   2.778   4.412  0.2661 -0.0341 -0.2458
  172MOL0     C22627   1.975   2.824   4.522  0.7087  0.0976  0.4850
  172MOL0     C22628   2.107   2.857   4.514  0.5552  0.3448  0.5312
  172MOL0     C22629   2.170   2.870   4.390 -0.7786  0.3389 -0.0063
  172MOL0     O22630   2.300   2.916   4.386  0.1745 -0.6418 -0.0004
  172MOL0     C22631   2.365   2.963   4.265  0.6354  0.3547 -0.4225
  172MOL0     C22632   2.491   3.041   4.298 -0.4919 -0.1529 -0.7199
  172MOL0     C22633   2.538   3.132   4.182 -0.1288  0.9245  0.2735
  172MOL0     C22634   2.598   3.054   4.063  0.4569  0.1876 -0.4982
  172MOL0     C22635   2.735   3.020   4.095 -0.0875  1.2013  0.7815
  172MOL0     C22636   2.848   2.982   4.110  0.1534  1.1814  0.5466
  172MOL0     C22637   2.104   2.814   4.282 -0.0827 -0.4805  0.0415
  172MOL0     C22638   1.971   2.775   4.295  0.6788  0.0519  1.0498
  172MOL0     H22639   1.528   2.807   4.162  1.6588  1.1921  0.5362
  172MOL0     H22640   1.284   2.751   4.150  1.4250  1.4105 -1.8163
  172MOL0     H22641   1.105   2.675   4.118  0.2500 -0.3154  0.3811
  172MOL0     H22642   1.074   2.729   4.290  0.6940  2.1146 -1.9499
  172MOL0     H22643   0.882   2.580   4.314 -1.8071 -1.3827 -1.7724
  172MOL0     H22644   0.938   2.485   4.184  1.3775  0.0499 -0.0656
  172MOL0     H22645   0.870   2.671   4.015 -3.6950  3.1768 -0.8948
  172MOL0     H22646   0.836   2.768   4.162  2.4989  0.8537 -0.8397
  172MOL0     H22647   0.698   2.508   4.095 -1.8118  0.8574 -0.3010
  172MOL0     H22648   0.645   2.608   4.231 -0.2200  1.7760 -0.3974
  172MOL0     H22649   0.625   2.636   3.945 -2.8364  1.4138 -1.4431
  172MOL0     H22650   0.625   2.793   4.041  0.4492  0.0537 -0.9075
  172MOL0     H22651   0.431   2.696   4.165 -2.4860 -0.7172 -0.4454
  172MOL0     H22652   0.459   2.541   4.081 -0.7685  0.0631 -1.8794
  172MOL0     H22653   0.354   2.797   3.929 -1.7868 -0.2821 -0.1712
  172MOL0     H22654   0.383   2.627   3.875  1.9141 -0.2656  0.8118
  172MOL0     H22655   0.153   2.726   3.948  0.9721 -0.0783  0.0450
  172MOL0     H22656   0.200   2.691   4.111 -1.6045 -0.1675 -0.0320
  172MOL0     H22657   0.107   2.497   3.789 -1.0349 -0.3237 -0.0575
  172MOL0     H22658   0.016   2.216   3.790 -0.2369  2.2699 -0.0612
  172MOL0     H22659   0.123   2.108   3.859 -3.8630 -0.8052  0.6603
  172MOL0     H22660   0.195   2.332   3.642  1.2454  0.8916  1.6697
  172MOL0     H22661   0.153   2.163   3.614 -0.5891  1.1657 -0.3206
  172MOL0     H22662   0.397   2.267   3.774  0.1161 -0.9286 -1.1291
  172MOL0     H22663   0.360   2.094   3.751  0.4829 -0.7899 -0.6067
  172MOL0     H22664   0.414   2.286   3.515  0.0871  1.4481  2.0963
  172MOL0     H22665   0.401   2.118   3.503  1.1672 -1.6613  1.3799
  172MOL0     H22666   0.830   2.161   3.671  0.0207 -0.5127 -2.6719
  172MOL0     H22667   0.968   2.363   3.744  0.1759  0.5605 -0.8151
  172MOL0     H22668   1.274   2.526   3.732 -1.3708  0.5045  0.1305
  172MOL0     H22669   1.474   2.699   3.777  0.0989  4.0938  0.3583
  172MOL0     H22670   1.433   3.026   3.715 -0.3512 -0.4958  0.9938
  172MOL0     H22671   1.543   2.887   3.713 -2.7682 -1.6126 -0.8054
  172MOL0     H22672   1.605   3.102   3.918 -2.7995 -2.8521  0.4284
  172MOL0     H22673   1.662   3.130   3.751 -2.0364 -0.0753 -1.5857
  172MOL0     H22674   1.720   2.885   3.925 -0.7185  1.2934  0.7884
  172MOL0     H22675   1.813   3.031   3.897  0.7808  0.5032 -2.4535
  172MOL0     H22676   1.874   2.805   3.774  0.7274  1.3504  1.4360
  172MOL0     H22677   1.754   2.858   3.653  1.1727 -2.2587 -0.5195
  172MOL0     H22678   1.887   3.067   3.631 -1.3782 -0.5033 -0.4333
  172MOL0     H22679   1.977   2.913   3.583 -1.1126 -2.1844  0.4962
  172MOL0     H22680   2.021   3.076   3.846 -1.1369  1.6144 -0.1469
  172MOL0     H22681   2.128   3.071   3.704 -1.0784 -2.6538 -3.5256
  172MOL0     H22682   2.061   2.833   3.886 -2.5719 -2.0043 -3.7139
  172MOL0     H22683   2.140   2.802   3.741 -2.4263 -2.1580  1.2156
  172MOL0     H22684   2.214   2.983   3.966  0.3041 -0.4426 -0.0451
  172MOL0     H22685   2.305   2.988   3.806  0.6922 -0.4462 -0.4882
  172MOL0     H22686   1.210   2.993   3.908 -0.7030  1.0465 -1.2725
  172MOL0     H22687   1.009   2.855   3.851  0.2190 -0.8819 -1.2316
  172MOL0     H22688   0.644   2.626   3.691  1.9334  0.6384 -2.3633
  172MOL0     H22689   0.491   2.432   3.636 -0.4995  0.9271 -0.3257
  172MOL0     H22690   1.341   2.403   4.385 -0.8039  0.1121  0.1548
  172MOL0     H22691   1.579   2.471   4.422  0.3333 -1.1941 -0.8955
  172MOL0     H22692   1.928   2.819   4.620 -0.0659 -3.0720  0.0738
  172MOL0     H22693   2.162   2.885   4.604  2.7411  0.8715 -0.8772
  172MOL0     H22694   2.303   3.035   4.211 -1.4221 -1.4613 -0.6576
  172MOL0     H22695   2.379   2.878   4.196 -0.7434  0.3999 -0.7908
  172MOL0     H22696   2.472   3.107   4.383 -1.0801 -0.1470 -0.8538
  172MOL0     H22697   2.578   2.981   4.328 -1.5711 -1.6204 -0.4141
  172MOL0     H22698   2.601   3.216   4.210  2.5164 -0.3581 -1.3536
  172MOL0     H22699   2.451   3.174   4.132 -0.7848 -1.6806 -0.9436
  172MOL0     H22700   2.551   2.960   4.034 -2.0353  1.3042 -0.4110
  172MOL0     H22701   2.600   3.122   3.977  1.3490 -0.6827 -1.1832
  172MOL0     H22702   2.952   2.957   4.119 -0.5397 -1.6264  1.5899
  172MOL0     H22703   2.163   2.804   4.192  2.0083 -1.1882  1.4071
  172MOL0     H22704   1.928   2.729   4.206  1.1215 -1.5944  1.6533
  173MOL0     O22705   1.133   1.554   1.460 -0.3478  0.3080 -0.0816
  173MOL0     C22706   1.201   1.645   1.495 -0.1132 -1.6506  0.0906
  173MOL0     O22707   1.168   1.776   1.503 -0.2618  0.1872  0.3104
  173MOL0     C22708   1.045   1.811   1.451 -0.8405  1.4059  0.5608
  173MOL0     C22709   1.037   1.924   1.377 -0.6357 -0.4843  0.4350
  173MOL0     C22710   0.929   1.957   1.300 -0.6212  0.2899 -0.0410
  173MOL0     C22711   0.812   1.878   1.315  0.2290  0.1648 -0.6712
  173MOL0     O22712   0.700   1.920   1.252  0.1240 -0.1739  0.4785
  173MOL0     C22713   0.572   1.868   1.270 -0.0967 -0.5817 -0.3524
  173MOL0     C22714   0.467   1.979   1.228  0.3709  1.0156  0.2135
  173MOL0     C22715   0.328   1.927   1.255 -0.2561 -0.7800  0.5777
  173MOL0     C22716   0.221   2.042   1.213 -0.1368  0.3066  0.1195
  173MOL0     C22717   0.078   1.983   1.229  0.3138 -0.2555  0.2697
  173MOL0     C22718  -0.028   2.058   1.148 -0.5091  0.2987 -0.4195
  173MOL0     C22719  -0.171   1.981   1.140 -0.0735  0.2543 -0.9381
  173MOL0     C22720  -0.207   1.922   1.283 -0.2389  0.5030  0.2023
  173MOL0     N22721  -0.352   1.882   1.285  0.1942 -0.6363  0.6503
  173MOL0     C22722  -0.410   1.758   1.260  0.0570  0.4355 -0.3985
  173MOL0     C22723  -0.545   1.771   1.292 -1.1430  0.4686 -0.6436
  173MOL0     C22724  -0.647   1.666   1.284 -0.2776  0.1239 -1.1001
  173MOL0     C22725  -0.775   1.707   1.207  1.1122  0.4278 -0.0069
  173MOL0     C22726  -0.864   1.592   1.182 -0.7996  0.0604 -0.2525
  173MOL0     C22727  -0.962   1.634   1.071  0.5155 -0.4115 -0.4600
  173MOL0     O22728  -1.057   1.726   1.118 -0.1016  0.0224  0.7699
  173MOL0     C22729  -1.189   1.685   1.079 -0.4447  0.1697 -0.3341
  173MOL0     C22730  -1.228   1.703   0.951  0.8963  0.4814 -0.0714
  173MOL0     C22731  -1.361   1.680   0.910  0.0580 -0.0393 -0.1205
  173MOL0     C22732  -1.451   1.627   1.003  0.4322  0.2587  0.2532
  173MOL0     C22733  -1.591   1.595   0.960  0.3520 -0.4826  0.3076
  173MOL0     O22734  -1.690   1.589   1.061 -0.2205 -0.0181  0.2392
  173MOL0     C22735  -1.825   1.583   1.022 -0.5322  0.1841 -0.2536
  173MOL0     C22736  -1.888   1.685   0.953  0.3705 -1.1993  0.0855
  173MOL0     C22737  -2.032   1.691   0.931 -0.1052 -0.6234 -0.1947
  173MOL0     C22738  -2.110   1.581   0.964 -0.0063  0.5517  0.1898
  173MOL0     O22739  -2.245   1.548   0.931 -0.0860  0.0889 -0.3736
  173MOL0     C22740  -2.278   1.562   0.796 -0.5357 -0.6234  0.1221
  173MOL0     C22741  -2.333   1.441   0.744  1.1509  0.2773  0.1980
  173MOL0     C22742  -2.446   1.384   0.826 -0.0761 -0.1251  0.2406
  173MOL0     C22743  -2.510   1.280   0.734  0.8371 -0.7495 -0.3673
  173MOL0     C22744  -2.609   1.200   0.826  1.2473  0.0914  0.1540
  173MOL0     C22745  -2.708   1.111   0.742 -0.1373  0.7910 -0.2589
  173MOL0     C22746  -2.801   1.027   0.829  0.1366  1.1776 -0.5793
  173MOL0     C22747  -2.935   1.083   0.871 -0.4165 -0.5670 -0.8544
  173MOL0    Cl22748  -3.019   1.157   0.718 -0.0890 -0.2695 -0.1142
  173MOL0     C22749  -2.034   1.473   1.021  0.2057 -0.6214  0.3679
  173MOL0     C22750  -1.904   1.480   1.065  0.7810 -0.0920  0.3399
  173MOL0     O22751  -1.616   1.575   0.838 -0.2654  0.4425 -0.7526
  173MOL0     C22752  -1.405   1.596   1.136 -0.6228 -0.1374  0.1419
  173MOL0     C22753  -1.273   1.629   1.177  0.9451 -0.2729  0.3132
  173MOL0     N22754  -0.572   1.899   1.341 -0.8432  0.2968 -0.3082
  173MOL0     N22755  -0.458   1.964   1.341  0.0391 -0.2049 -0.4756
  173MOL0     C22756   0.808   1.761   1.392 -0.0612 -0.7403  0.1859
  173MOL0     C22757   0.925   1.727   1.460 -0.7581  0.9874  1.2072
  173MOL0     C22758   1.345   1.619   1.515 -0.3603  1.0570 -0.9700
  173MOL0     C22759   1.436   1.713   1.564  0.4715  0.9436 -0.8061
  173MOL0     C22760   1.570   1.684   1.590  0.7213 -0.2138 -0.1477
  173MOL0     C22761   1.627   1.560   1.545  0.6889 -0.1058 -0.0293
  173MOL0     O22762   1.761   1.537   1.561 -0.4543  0.5060 -0.5013
  173MOL0     C22763   1.824   1.499   1.435  0.3487  0.0581  0.0100
  173MOL0     C22764   1.972   1.524   1.438  0.0888  0.7313 -0.7253
  173MOL0     C22765   2.051   1.472   1.571  0.5701 -0.5966 -0.1766
  173MOL0     C22766   2.062   1.319   1.588 -0.0258 -0.2595  0.3084
  173MOL0     C22767   2.133   1.249   1.480 -0.5878  0.0188 -0.6007
  173MOL0     C22768   2.178   1.205   1.381  0.5632 -0.8382 -0.0605
  173MOL0     C22769   1.539   1.465   1.493  0.4011 -0.5118  0.3336
  173MOL0     C22770   1.403   1.492   1.476 -0.2077 -0.8491 -0.4630
  173MOL0     H22771   1.117   1.997   1.375 -0.8585 -0.1912  1.5499
  173MOL0     H22772   0.942   2.049   1.242  2.1704  0.3432  0.5196
  173MOL0     H22773   0.565   1.844   1.377  1.1130  1.6994  0.2942
  173MOL0     H22774   0.548   1.779   1.211 -0.5153 -1.8137  1.5678
  173MOL0     H22775   0.490   1.998   1.123  1.9064 -0.7288  0.1841
  173MOL0     H22776   0.478   2.073   1.284  3.5123  0.5116  0.6055
  173MOL0     H22777   0.308   1.903   1.360  0.0626 -0.5620  0.6891
  173MOL0     H22778   0.305   1.834   1.201 -2.3902 -0.3248  0.6473
  173MOL0     H22779   0.230   2.137   1.268 -2.7710  0.5858  0.1910
  173MOL0     H22780   0.225   2.055   1.105  0.1997 -1.3074 -0.0851
  173MOL0     H22781   0.052   1.983   1.335  1.6728  2.2022  0.6919
  173MOL0     H22782   0.080   1.879   1.197 -2.1434 -1.1821  2.7420
  173MOL0     H22783   0.012   2.065   1.047 -1.1409 -1.7650 -0.8625
  173MOL0     H22784  -0.045   2.151   1.203  1.3123  0.5595 -0.2516
  173MOL0     H22785  -0.245   2.052   1.100 -3.4156 -2.5963 -0.2962
  173MOL0     H22786  -0.162   1.906   1.062 -0.5949  1.8356 -2.6007
  173MOL0     H22787  -0.187   1.984   1.371  3.1806 -0.5026  0.2913
  173MOL0     H22788  -0.151   1.829   1.298  1.5067  1.5310  0.3531
  173MOL0     H22789  -0.352   1.671   1.232 -0.5624 -0.8608  2.0715
  173MOL0     H22790  -0.682   1.632   1.382  1.8186 -1.8744 -0.9401
  173MOL0     H22791  -0.606   1.583   1.226 -0.0950  0.9880 -2.2385
  173MOL0     H22792  -0.740   1.747   1.111  1.1332  1.1891  0.3056
  173MOL0     H22793  -0.837   1.781   1.258  0.1169 -0.7664  0.5407
  173MOL0     H22794  -0.794   1.521   1.138 -0.4906  0.7482 -0.8959
  173MOL0     H22795  -0.915   1.555   1.272 -2.5445  3.2258  0.2228
  173MOL0     H22796  -1.016   1.545   1.039 -2.1218  0.7273  0.4833
  173MOL0     H22797  -0.901   1.668   0.987  2.1621 -1.1384  0.3797
  173MOL0     H22798  -1.153   1.749   0.888  1.4162  1.5512  1.2818
  173MOL0     H22799  -1.396   1.694   0.808  0.0644  2.6285  0.1682
  173MOL0     H22800  -1.828   1.770   0.923 -2.4146  0.6480 -0.6360
  173MOL0     H22801  -2.081   1.777   0.886  3.0222 -0.0620 -2.8908
  173MOL0     H22802  -2.188   1.579   0.736 -0.0936 -3.5562 -0.2234
  173MOL0     H22803  -2.357   1.635   0.776  0.8986  1.0123  0.2124
  173MOL0     H22804  -2.252   1.368   0.733  0.1585 -0.9439  0.6527
  173MOL0     H22805  -2.360   1.471   0.642  0.3933  2.2656  0.9402
  173MOL0     H22806  -2.519   1.465   0.839  1.0052  1.6678 -3.4400
  173MOL0     H22807  -2.417   1.342   0.922  0.2934  1.0072  0.6470
  173MOL0     H22808  -2.555   1.317   0.641  2.1996 -3.4689 -2.2706
  173MOL0     H22809  -2.436   1.206   0.700 -1.3723 -3.7812  0.9298
  173MOL0     H22810  -2.671   1.269   0.883 -3.1586 -3.1662 -0.2345
  173MOL0     H22811  -2.546   1.139   0.892 -1.9887 -0.2769  3.2128
  173MOL0     H22812  -2.665   1.028   0.686  0.1633  0.2674  0.7286
  173MOL0     H22813  -2.760   1.177   0.672 -1.1690  1.2075  0.8527
  173MOL0     H22814  -2.817   0.933   0.776 -3.8706  1.9131 -0.9711
  173MOL0     H22815  -2.755   0.999   0.924 -2.2261 -3.5674 -0.5797
  173MOL0     H22816  -2.924   1.159   0.948  1.0925 -0.2649 -1.3369
  173MOL0     H22817  -3.000   1.004   0.910 -3.1117 -0.3540 -4.3868
  173MOL0     H22818  -2.087   1.384   1.051  2.1353 -2.0856 -0.3385
  173MOL0     H22819  -1.849   1.410   1.126 -0.6333 -2.8557 -1.3668
  173MOL0     H22820  -1.475   1.547   1.203  0.6780  0.2451  1.8499
  173MOL0     H22821  -1.227   1.613   1.274 -0.6248 -1.8729  0.8464
  173MOL0     H22822   0.716   1.705   1.403 -1.1712  1.1967  1.2681
  173MOL0     H22823   0.915   1.641   1.525 -0.9365 -0.6522 -0.8746
  173MOL0     H22824   1.404   1.812   1.595 -1.1217 -0.5994  3.2053
  173MOL0     H22825   1.639   1.748   1.644  2.8226 -1.1474 -1.5742
  173MOL0     H22826   1.779   1.570   1.364  0.5481  0.1324 -0.0415
  173MOL0     H22827   1.804   1.396   1.406  0.8779  0.1113 -0.5520
  173MOL0     H22828   2.025   1.472   1.357  0.0310 -0.3634 -0.0824
  173MOL0     H22829   1.989   1.632   1.433  1.3854  0.5525 -0.6405
  173MOL0     H22830   2.000   1.511   1.660  5.0604  4.0699  0.8720
  173MOL0     H22831   2.153   1.511   1.571  0.3261  0.1301  1.5320
  173MOL0     H22832   2.107   1.305   1.686 -1.6176  0.8848  1.2493
  173MOL0     H22833   1.960   1.280   1.592  0.3678 -1.4167 -0.2697
  173MOL0     H22834   2.235   1.167   1.299  2.4595 -0.8773  1.2136
  173MOL0     H22835   1.575   1.368   1.458  0.7031 -0.6296  0.9645
  173MOL0     H22836   1.349   1.414   1.424 -0.4300  0.1164 -1.7356
  174MOL0     O22837   5.610   4.542   3.985  0.0909 -0.3979 -0.1441
  174MOL0     C22838   5.665   4.582   4.090 -0.1655  0.1144 -0.1753
  174MOL0     O22839   5.593   4.636   4.198  0.2078  0.8235  0.5390
  174MOL0     C22840   5.458   4.640   4.182 -1.3418 -0.4031  0.7942
  174MOL0     C22841   5.386   4.548   4.262 -0.1194 -0.4892  0.0522
  174MOL0     C22842   5.243   4.533   4.260 -1.3641 -0.0315 -0.2306
  174MOL0     C22843   5.167   4.623   4.187 -0.2828 -0.1167 -0.2973
  174MOL0     O22844   5.033   4.630   4.179  0.5483 -0.2811  0.4369
  174MOL0     C22845   4.953   4.565   4.274 -1.1732 -0.1150 -0.0373
  174MOL0     C22846   4.806   4.571   4.254 -0.1733  0.4494 -1.2248
  174MOL0     C22847   4.773   4.460   4.146 -0.8260 -0.4295  0.2081
  174MOL0     C22848   4.635   4.473   4.086 -0.4455  0.4380 -0.1994
  174MOL0     C22849   4.606   4.358   3.994 -0.8564  0.0752 -0.3237
  174MOL0     C22850   4.460   4.357   3.942 -0.3882  0.0662 -0.0972
  174MOL0     C22851   4.441   4.236   3.859 -0.1522  1.0529  0.4931
  174MOL0     C22852   4.306   4.240   3.785 -0.0457 -0.9388 -0.0140
  174MOL0     N22853   4.195   4.181   3.859 -0.5035  0.2904  0.1563
  174MOL0     C22854   4.172   4.049   3.866 -0.3612  0.0493  0.5558
  174MOL0     C22855   4.065   4.038   3.946  0.3243  0.0353 -0.6311
  174MOL0     C22856   3.996   3.918   4.003 -1.1256  0.2776  0.2273
  174MOL0     C22857   3.879   3.884   3.913  0.1488  0.4274 -0.5995
  174MOL0     C22858   3.799   3.772   3.986  1.8971  0.0488 -0.5193
  174MOL0     C22859   3.671   3.764   3.905  0.6604  0.2786 -0.1725
  174MOL0     O22860   3.577   3.880   3.935  0.2901  0.1789  0.1043
  174MOL0     C22861   3.454   3.842   3.987 -0.0221 -0.8215 -0.6494
  174MOL0     C22862   3.463   3.786   4.111 -0.1338  0.0628 -0.0997
  174MOL0     C22863   3.339   3.746   4.174  0.3770  0.1448  0.2664
  174MOL0     C22864   3.224   3.746   4.101  0.2416  0.3885  0.7221
  174MOL0     C22865   3.097   3.671   4.154 -0.2617 -1.1725 -0.4191
  174MOL0     O22866   3.097   3.653   4.288 -0.6538  0.4471 -0.1792
  174MOL0     C22867   2.994   3.576   4.342  0.7059 -0.4756 -0.1091
  174MOL0     C22868   2.924   3.643   4.443  0.7789 -0.4746  0.2476
  174MOL0     C22869   2.810   3.591   4.493  0.1691 -0.2239 -0.8195
  174MOL0     C22870   2.757   3.473   4.447  0.7696 -0.0782  0.4229
  174MOL0     O22871   2.632   3.416   4.473 -0.2749  0.3920 -0.0918
  174MOL0     C22872   2.565   3.442   4.594 -1.0282 -0.0242  0.4640
  174MOL0     C22873   2.462   3.335   4.624  0.1868  1.1487 -0.8580
  174MOL0     C22874   2.333   3.333   4.528  0.0498 -0.1204  0.7825
  174MOL0     C22875   2.225   3.226   4.564 -0.8529 -0.4821  0.2084
  174MOL0     C22876   2.086   3.288   4.546 -0.0158  0.0666  1.1709
  174MOL0     C22877   1.984   3.177   4.551  0.4518  0.1156  0.1915
  174MOL0     C22878   1.842   3.236   4.540  0.3344  0.5325 -0.3076
  174MOL0     C22879   1.729   3.119   4.544 -0.8420  0.1209 -0.1205
  174MOL0    Cl22880   1.742   3.041   4.702 -0.2072  0.1758 -0.0612
  174MOL0     C22881   2.826   3.402   4.346  0.0169  0.8960 -0.2760
  174MOL0     C22882   2.951   3.453   4.304  1.2376  0.0421  0.4751
  174MOL0     O22883   3.007   3.647   4.074  0.2990  0.6655 -0.2568
  174MOL0     C22884   3.213   3.814   3.976 -0.2096 -0.0697 -0.0010
  174MOL0     C22885   3.336   3.861   3.924  0.1143  0.7199  0.3506
  174MOL0     N22886   4.010   4.167   3.965 -0.2180  0.2822  0.1262
  174MOL0     N22887   4.091   4.251   3.906 -0.3442  0.2487 -0.8677
  174MOL0     C22888   5.234   4.722   4.113  0.4775  0.5308 -0.5752
  174MOL0     C22889   5.375   4.730   4.107 -0.3606  0.9447  0.6820
  174MOL0     C22890   5.815   4.582   4.105  0.7963  0.4545  0.8633
  174MOL0     C22891   5.878   4.608   4.228 -0.2133  0.3042  0.0579
  174MOL0     C22892   6.016   4.620   4.233  0.3546 -0.4423 -0.7078
  174MOL0     C22893   6.099   4.605   4.118 -0.2399 -0.8605 -0.1603
  174MOL0     O22894   6.231   4.632   4.136 -0.0954 -0.7632  0.2810
  174MOL0     C22895   6.323   4.639   4.022  0.4974  0.3844  0.2904
  174MOL0     C22896   6.397   4.506   3.996 -0.8622 -0.9686  0.2947
  174MOL0     C22897   6.473   4.516   3.858 -0.3472 -0.0099 -0.8933
  174MOL0     C22898   6.371   4.491   3.741  0.3162  0.1533 -0.4547
  174MOL0     C22899   6.442   4.479   3.615 -0.0684  0.3896  0.4028
  174MOL0     C22900   6.509   4.476   3.510  0.5329  0.2785  0.2188
  174MOL0     C22901   6.038   4.560   4.000  0.1070 -0.6995 -0.3002
  174MOL0     C22902   5.898   4.558   3.995  0.5531 -0.0702 -0.0308
  174MOL0     H22903   5.444   4.470   4.310  2.3329 -1.0739 -3.4904
  174MOL0     H22904   5.190   4.462   4.321 -2.9275  0.2397 -1.2239
  174MOL0     H22905   4.971   4.599   4.377 -0.0721 -0.3253 -0.1496
  174MOL0     H22906   4.983   4.460   4.267 -0.0447  0.0911  1.2085
  174MOL0     H22907   4.771   4.666   4.213 -2.5242  0.7922  1.2875
  174MOL0     H22908   4.769   4.549   4.355  0.3358  3.6017 -0.2439
  174MOL0     H22909   4.805   4.360   4.180 -1.1896 -0.3272  0.8680
  174MOL0     H22910   4.829   4.504   4.063 -1.5847 -0.3918 -0.2935
  174MOL0     H22911   4.575   4.460   4.177 -0.3953 -2.2467 -0.4586
  174MOL0     H22912   4.621   4.563   4.026  3.4554  0.3609 -1.5056
  174MOL0     H22913   4.623   4.265   4.050 -2.5030 -0.4928 -0.6898
  174MOL0     H22914   4.672   4.374   3.909 -2.6502  4.3927 -1.1647
  174MOL0     H22915   4.449   4.452   3.888  2.0121  0.5162  0.0832
  174MOL0     H22916   4.385   4.360   4.022  0.1256 -0.8409  0.4330
  174MOL0     H22917   4.521   4.234   3.785 -0.9962 -0.0415 -0.4309
  174MOL0     H22918   4.449   4.143   3.917 -0.8457 -0.8338 -2.2277
  174MOL0     H22919   4.318   4.180   3.695 -6.5743 -2.7737 -0.2303
  174MOL0     H22920   4.276   4.341   3.758  2.4410  0.0918  0.8368
  174MOL0     H22921   4.235   3.968   3.832  1.5012  1.0335  1.4813
  174MOL0     H22922   3.970   3.929   4.108  1.7472 -1.8940  1.3379
  174MOL0     H22923   4.075   3.842   3.999 -0.3097  0.9096  2.6349
  174MOL0     H22924   3.907   3.844   3.815 -1.7777  0.1504 -1.0855
  174MOL0     H22925   3.821   3.973   3.886 -0.6841 -0.3850 -1.5989
  174MOL0     H22926   3.837   3.670   4.002 -3.3733 -1.9527  1.5622
  174MOL0     H22927   3.769   3.803   4.086  0.3797  3.2844 -1.8253
  174MOL0     H22928   3.622   3.668   3.925  0.7544  0.0611 -0.9475
  174MOL0     H22929   3.694   3.759   3.798 -0.9218 -3.5281 -0.4858
  174MOL0     H22930   3.556   3.773   4.166  0.1843 -2.7108 -1.1460
  174MOL0     H22931   3.343   3.695   4.270 -1.8375 -2.0307 -0.6977
  174MOL0     H22932   2.959   3.741   4.472  0.2222  0.2118 -1.2782
  174MOL0     H22933   2.755   3.651   4.565  1.1796  1.0582 -1.0926
  174MOL0     H22934   2.520   3.542   4.603 -0.4367  0.5076 -1.8130
  174MOL0     H22935   2.641   3.428   4.671  1.1254 -1.9591 -1.8582
  174MOL0     H22936   2.428   3.353   4.726  1.8953  2.7696 -0.4997
  174MOL0     H22937   2.521   3.243   4.625  1.3217  1.7402  3.1271
  174MOL0     H22938   2.368   3.311   4.427  0.0155 -1.0795  0.9726
  174MOL0     H22939   2.296   3.436   4.526  1.5884  0.4640 -1.2215
  174MOL0     H22940   2.240   3.128   4.517  3.2279 -1.2260  2.5347
  174MOL0     H22941   2.226   3.202   4.671 -0.5245 -0.5658  0.1902
  174MOL0     H22942   2.067   3.333   4.448 -1.4697 -1.6655  0.6030
  174MOL0     H22943   2.076   3.363   4.625 -0.3448  2.2755 -0.8398
  174MOL0     H22944   2.005   3.118   4.641  1.5861  1.1159  0.6074
  174MOL0     H22945   1.987   3.117   4.460 -0.9773 -1.2433  0.9878
  174MOL0     H22946   1.821   3.290   4.633 -0.6194  1.4338 -1.0230
  174MOL0     H22947   1.824   3.301   4.454 -1.8953 -0.1446 -0.4316
  174MOL0     H22948   1.738   3.045   4.464 -0.1703  0.8622 -0.7520
  174MOL0     H22949   1.631   3.166   4.548 -2.1265 -2.3912  0.0369
  174MOL0     H22950   2.803   3.305   4.303  1.8259 -0.1735  1.0329
  174MOL0     H22951   3.008   3.385   4.240  0.5322 -0.1813  0.0748
  174MOL0     H22952   3.117   3.819   3.925  0.5126 -0.2433 -1.4439
  174MOL0     H22953   3.339   3.910   3.827 -4.4340 -0.3353 -0.5635
  174MOL0     H22954   5.180   4.797   4.057  1.4512  3.0058  1.5997
  174MOL0     H22955   5.412   4.812   4.047  1.7420 -0.4997 -0.1037
  174MOL0     H22956   5.820   4.632   4.316 -0.0126 -2.7425  1.1296
  174MOL0     H22957   6.074   4.627   4.325  4.8164 -1.6930 -3.0814
  174MOL0     H22958   6.403   4.713   4.027  1.8661 -1.0327 -0.0132
  174MOL0     H22959   6.267   4.673   3.934  0.9940  1.5468  0.4143
  174MOL0     H22960   6.476   4.494   4.071  0.2649  0.3683 -0.6061
  174MOL0     H22961   6.327   4.423   4.005 -0.0305 -1.4638  3.0476
  174MOL0     H22962   6.548   4.436   3.862  1.1260  1.3720  1.7880
  174MOL0     H22963   6.501   4.621   3.846 -0.4618 -0.1161 -2.2562
  174MOL0     H22964   6.329   4.396   3.774  3.0237  0.2224  4.0601
  174MOL0     H22965   6.293   4.566   3.728 -0.0652 -0.5898 -2.8477
  174MOL0     H22966   6.578   4.465   3.429 -1.7446  1.2090 -1.9720
  174MOL0     H22967   6.084   4.542   3.903 -3.0208  0.0165 -2.0583
  174MOL0     H22968   5.856   4.539   3.896  0.2785  1.0951 -0.1563
  175MOL0     O22969   4.081   0.856   5.785  0.3071  0.3469  0.4571
  175MOL0     C22970   4.093   0.971   5.741  0.1835 -0.2552 -0.2655
  175MOL0     O22971   3.992   1.059   5.721  0.1394  0.1491  0.0182
  175MOL0     C22972   3.858   1.035   5.740  0.3285  0.1044  0.1308
  175MOL0     C22973   3.808   0.981   5.860 -0.4000  0.7018 -0.6233
  175MOL0     C22974   3.671   0.953   5.875 -0.0016 -0.7475 -0.2903
  175MOL0     C22975   3.591   0.967   5.767 -0.7870 -0.9003  1.1185
  175MOL0     O22976   3.458   0.932   5.753  0.0866 -0.5602 -0.0803
  175MOL0     C22977   3.404   0.823   5.836 -0.0963 -0.4218  0.4647
  175MOL0     C22978   3.268   0.879   5.871  0.1953 -0.3858  0.4202
  175MOL0     C22979   3.177   0.770   5.911 -0.3768 -0.4643  0.1067
  175MOL0     C22980   3.048   0.831   5.966  0.4214  0.0761 -0.2771
  175MOL0     C22981   2.944   0.716   5.993 -0.7643  0.0941  0.7359
  175MOL0     C22982   2.813   0.765   6.053 -0.4493  0.3074 -0.3046
  175MOL0     C22983   2.710   0.655   6.092 -0.4675  0.0315  0.6836
  175MOL0     C22984   2.711   0.555   5.981 -0.1311  0.0792  0.9341
  175MOL0     N22985   2.593   0.466   5.975  0.1991 -0.1461  0.0146
  175MOL0     C22986   2.496   0.474   5.879  0.6892  0.8335  0.0090
  175MOL0     C22987   2.398   0.407   5.937 -0.2464 -0.2956  0.2906
  175MOL0     C22988   2.264   0.383   5.867 -0.1963  0.3489 -1.0315
  175MOL0     C22989   2.162   0.462   5.956  0.0704  0.2688 -0.4248
  175MOL0     C22990   2.027   0.452   5.880 -0.5514  0.1308 -0.7257
  175MOL0     C22991   1.911   0.509   5.968 -0.5525 -0.1313 -0.8503
  175MOL0     O22992   1.931   0.643   6.004 -0.3720  0.1400  0.1604
  175MOL0     C22993   1.846   0.702   6.102  0.4706  0.7829  0.1972
  175MOL0     C22994   1.878   0.832   6.135 -0.1325  0.1618 -0.0412
  175MOL0     C22995   1.803   0.908   6.231 -0.5319 -0.3646 -0.0713
  175MOL0     C22996   1.689   0.855   6.286  0.3501 -0.8950  0.5716
  175MOL0     C22997   1.600   0.943   6.367  0.0364 -0.0962 -0.3191
  175MOL0     O22998   1.480   0.897   6.397  0.1748  0.3212  0.6856
  175MOL0     C22999   1.388   0.975   6.467 -0.6721 -0.5291 -0.9563
  175MOL0     C23000   1.332   1.090   6.410 -0.1750  0.0619  0.4708
  175MOL0     C23001   1.228   1.160   6.484 -0.1821  1.0653 -0.7428
  175MOL0     C23002   1.171   1.102   6.597  0.1651  0.1505  0.4098
  175MOL0     O23003   1.080   1.181   6.656  0.9254 -0.3652 -0.2482
  175MOL0     C23004   1.018   1.133   6.777 -0.3848 -0.2889  0.1367
  175MOL0     C23005   0.896   1.217   6.784  0.2154 -0.6591  0.4342
  175MOL0     C23006   0.816   1.179   6.902 -1.0756 -0.0603 -0.8328
  175MOL0     C23007   0.705   1.275   6.901 -0.2588  0.2739  0.3564
  175MOL0     C23008   0.598   1.257   6.787 -0.5960  0.4245 -0.2112
  175MOL0     C23009   0.530   1.121   6.815 -0.2343 -0.2198 -0.8144
  175MOL0     C23010   0.410   1.082   6.724 -0.7558  0.3333  0.4516
  175MOL0     C23011   0.280   1.139   6.776  0.2792  0.7637 -0.0720
  175MOL0    Cl23012   0.268   1.312   6.755  0.0968 -0.1722  0.0989
  175MOL0     C23013   1.222   0.987   6.647  0.7549  0.4100 -0.3253
  175MOL0     C23014   1.334   0.928   6.587 -0.2791 -0.9934  0.6246
  175MOL0     O23015   1.659   1.042   6.415 -0.1340  0.1541 -0.0435
  175MOL0     C23016   1.649   0.727   6.248 -0.2635  0.3636 -0.2634
  175MOL0     C23017   1.730   0.651   6.158  0.3498 -0.4541 -0.3278
  175MOL0     N23018   2.430   0.363   6.062 -0.0043 -0.0975  0.4128
  175MOL0     N23019   2.552   0.388   6.086 -0.6650 -0.5943 -0.1167
  175MOL0     C23020   3.640   1.031   5.653  0.0376 -0.9013 -0.9419
  175MOL0     C23021   3.773   1.062   5.636  0.3710  0.0886  0.0102
  175MOL0     C23022   4.230   1.028   5.738  0.0566 -0.8344  0.2299
  175MOL0     C23023   4.264   1.130   5.648 -0.2321  0.4230  0.7254
  175MOL0     C23024   4.401   1.171   5.640 -0.3454 -0.0666 -0.7971
  175MOL0     C23025   4.499   1.128   5.730 -0.2354 -1.3567 -0.4464
  175MOL0     O23026   4.636   1.158   5.740 -0.1726  0.2963  0.4908
  175MOL0     C23027   4.678   1.258   5.649  0.1759  0.0851 -0.4539
  175MOL0     C23028   4.807   1.326   5.701  0.4292  0.1380 -0.3544
  175MOL0     C23029   4.832   1.440   5.603  0.4324 -0.3982 -0.7851
  175MOL0     C23030   4.955   1.513   5.652 -0.9958 -0.6147 -0.2803
  175MOL0     C23031   4.998   1.613   5.559  0.0748  0.7404  0.1453
  175MOL0     C23032   5.048   1.694   5.483 -0.2928 -0.4000  0.4499
  175MOL0     C23033   4.459   1.034   5.822 -0.0741  0.4167 -0.5211
  175MOL0     C23034   4.321   0.988   5.836 -0.9656 -0.2526  0.6643
  175MOL0     H23035   3.877   0.965   5.942  0.8043 -1.1496 -1.9188
  175MOL0     H23036   3.611   0.925   5.962 -0.3105 -0.4268 -0.3984
  175MOL0     H23037   3.464   0.795   5.923 -0.4949  0.7497  1.1403
  175MOL0     H23038   3.399   0.730   5.778  0.6420  1.6801 -3.2878
  175MOL0     H23039   3.230   0.926   5.779  0.3498  3.3946  2.0807
  175MOL0     H23040   3.265   0.951   5.954 -1.7011 -2.4451  2.2671
  175MOL0     H23041   3.217   0.685   5.967 -6.0757 -3.4313  0.4393
  175MOL0     H23042   3.145   0.717   5.821 -0.3730 -0.3360  0.0297
  175MOL0     H23043   3.083   0.883   6.055  0.6195  2.8374 -1.8805
  175MOL0     H23044   3.016   0.911   5.899  3.4670  1.2858 -0.4359
  175MOL0     H23045   2.988   0.629   6.044  0.3433 -1.0142 -1.9231
  175MOL0     H23046   2.922   0.676   5.894  1.3382  0.4244  0.0882
  175MOL0     H23047   2.764   0.836   5.985 -0.3020  0.6958 -0.0093
  175MOL0     H23048   2.832   0.816   6.148 -0.6218  1.6025 -0.9294
  175MOL0     H23049   2.722   0.618   6.194  0.0471  1.6266  1.2337
  175MOL0     H23050   2.613   0.706   6.098  0.2226  1.2753  1.7075
  175MOL0     H23051   2.801   0.497   6.002  1.0665  0.4032 -2.6892
  175MOL0     H23052   2.716   0.609   5.886 -2.1277  0.7034  1.1410
  175MOL0     H23053   2.497   0.539   5.792  0.4690  0.3421 -0.3629
  175MOL0     H23054   2.237   0.280   5.846 -0.6985  0.8851 -3.3703
  175MOL0     H23055   2.266   0.426   5.766 -0.1516  0.6201 -0.9180
  175MOL0     H23056   2.193   0.567   5.965  2.5001 -0.3948 -0.3113
  175MOL0     H23057   2.139   0.416   6.052 -2.7034 -1.3844 -1.7508
  175MOL0     H23058   2.042   0.519   5.795  1.8443  0.5440 -0.0456
  175MOL0     H23059   2.012   0.348   5.848  0.4758 -0.2040 -0.1585
  175MOL0     H23060   1.883   0.448   6.055  0.3971  1.9865  1.0668
  175MOL0     H23061   1.818   0.510   5.910 -0.5825 -0.8291 -0.8257
  175MOL0     H23062   1.972   0.864   6.091 -0.8093 -0.7260 -2.2834
  175MOL0     H23063   1.818   1.013   6.255  0.8610 -0.4802 -0.3384
  175MOL0     H23064   1.374   1.128   6.318  4.4582 -0.9332  1.9454
  175MOL0     H23065   1.178   1.249   6.449  0.6659  1.7010 -0.3910
  175MOL0     H23066   1.073   1.157   6.868 -2.0563 -0.1511  1.1467
  175MOL0     H23067   0.985   1.029   6.778  1.0798 -0.9622 -3.6517
  175MOL0     H23068   0.845   1.200   6.689  0.5645  1.2701 -0.1312
  175MOL0     H23069   0.931   1.320   6.787 -1.0927 -0.1958  0.6224
  175MOL0     H23070   0.879   1.189   6.991  2.5427 -2.0339 -2.9542
  175MOL0     H23071   0.782   1.075   6.904 -1.1013 -0.1459  3.9042
  175MOL0     H23072   0.654   1.260   6.997 -2.7571  0.7904 -0.8009
  175MOL0     H23073   0.739   1.379   6.904  0.3798  0.0688  3.0256
  175MOL0     H23074   0.646   1.245   6.689  1.5342  1.7563  0.5860
  175MOL0     H23075   0.535   1.346   6.774  0.2040  0.6494 -3.5520
  175MOL0     H23076   0.495   1.118   6.918 -1.4506  1.8455 -1.0889
  175MOL0     H23077   0.608   1.045   6.815  0.7627  0.7682 -0.8055
  175MOL0     H23078   0.419   1.102   6.617 -0.0339 -0.3310  0.3732
  175MOL0     H23079   0.413   0.973   6.734  2.2169  0.0700 -1.8282
  175MOL0     H23080   0.274   1.120   6.884  1.3607 -2.1488 -0.4248
  175MOL0     H23081   0.196   1.084   6.733  1.4786 -1.5962  0.4015
  175MOL0     H23082   1.173   0.937   6.730  3.1151  2.3712  2.4735
  175MOL0     H23083   1.373   0.835   6.627 -1.0472 -2.3556 -1.6009
  175MOL0     H23084   1.554   0.691   6.286 -0.4270  0.2336 -0.7886
  175MOL0     H23085   1.684   0.562   6.115 -0.0546 -0.4635  0.1202
  175MOL0     H23086   3.583   1.044   5.562  1.8926 -1.0048 -2.1701
  175MOL0     H23087   3.800   1.116   5.545  0.0916  2.2472  1.1551
  175MOL0     H23088   4.187   1.164   5.580 -2.8967 -0.1265  3.2834
  175MOL0     H23089   4.432   1.240   5.562  1.2495 -1.3518 -1.3507
  175MOL0     H23090   4.611   1.344   5.644  1.2687  0.9145 -2.2440
  175MOL0     H23091   4.694   1.214   5.550  1.7738 -0.7734  0.1609
  175MOL0     H23092   4.781   1.359   5.802 -0.8179 -3.6842  0.7700
  175MOL0     H23093   4.892   1.258   5.694  0.1780 -0.1828 -0.3446
  175MOL0     H23094   4.748   1.510   5.598  0.5124  0.0410  2.2121
  175MOL0     H23095   4.860   1.403   5.504  1.3763  0.2115 -0.7687
  175MOL0     H23096   4.939   1.564   5.747  0.7706  0.9456 -0.7561
  175MOL0     H23097   5.035   1.439   5.658 -0.6175 -0.1091  1.2356
  175MOL0     H23098   5.087   1.780   5.432  0.3880 -0.0146  1.5756
  175MOL0     H23099   4.538   1.003   5.891  0.7437 -2.9490 -2.7318
  175MOL0     H23100   4.300   0.927   5.923  2.4581  2.3404  3.6166
  176MOL0     O23101   2.398   1.701  10.193  0.9621  0.0001 -0.4207
  176MOL0     C23102   2.377   1.814  10.151 -0.0245  0.1191 -0.0687
  176MOL0     O23103   2.257   1.877  10.131  0.1587  0.4962 -0.3678
  176MOL0     C23104   2.135   1.824  10.179 -0.5929 -0.3903  0.0657
  176MOL0     C23105   2.023   1.861  10.102  0.8049 -0.0901 -0.8056
  176MOL0     C23106   1.893   1.826  10.156  0.0369 -0.6686  0.1593
  176MOL0     C23107   1.877   1.746  10.260  0.0185  0.7959  0.5945
  176MOL0     O23108   1.753   1.694  10.306  1.1514 -1.1490 -0.2788
  176MOL0     C23109   1.632   1.695  10.224 -0.7906 -0.0484 -0.7228
  176MOL0     C23110   1.545   1.619  10.328  0.0196 -0.1106 -0.8097
  176MOL0     C23111   1.393   1.598  10.307 -0.5305 -0.4680  0.2610
  176MOL0     C23112   1.322   1.508  10.409 -0.3561 -0.1008  0.1420
  176MOL0     C23113   1.181   1.459  10.370  0.0844 -0.5336  0.0464
  176MOL0     C23114   1.072   1.563  10.380 -1.5705  0.4796  0.5855
  176MOL0     C23115   0.941   1.495  10.343 -0.3093  0.8101 -0.0137
  176MOL0     C23116   0.826   1.589  10.363  0.3835  0.3767  0.0586
  176MOL0     N23117   0.704   1.504  10.362 -0.8252  0.6243  0.0501
  176MOL0     C23118   0.618   1.489  10.469  0.5448  0.1326  1.0416
  176MOL0     C23119   0.503   1.440  10.418 -0.1083  0.5225  0.2735
  176MOL0     C23120   0.373   1.427  10.501 -0.1455 -0.0859 -0.3496
  176MOL0     C23121   0.304   1.563  10.526 -0.1979 -0.8914 -0.3304
  176MOL0     C23122   0.232   1.605  10.402 -0.0608 -0.3882 -0.1233
  176MOL0     C23123   0.166   1.739  10.409 -0.1091  0.3597  0.8050
  176MOL0     O23124   0.093   1.758  10.528  0.0661 -0.1237  1.0875
  176MOL0     C23125  -0.024   1.832  10.507  0.7501 -0.5943 -0.6588
  176MOL0     C23126  -0.149   1.770  10.479 -1.3506 -0.1113  0.3411
  176MOL0     C23127  -0.257   1.843  10.453  0.6804  0.1154  0.3161
  176MOL0     C23128  -0.260   1.975  10.466 -0.2545 -0.1562  0.5866
  176MOL0     C23129  -0.386   2.051  10.422 -1.3328 -0.4029 -0.2051
  176MOL0     O23130  -0.483   1.976  10.363  0.0863 -0.2967 -0.5887
  176MOL0     C23131  -0.613   2.018  10.361 -0.5131  0.1714  0.6914
  176MOL0     C23132  -0.671   2.069  10.474  0.1273  0.1055 -0.1847
  176MOL0     C23133  -0.811   2.089  10.461 -0.5109 -0.3372  0.3462
  176MOL0     C23134  -0.887   2.075  10.343  0.3567  0.1648  0.4177
  176MOL0     O23135  -1.011   2.136  10.344 -0.0254 -0.1287  0.6190
  176MOL0     C23136  -1.088   2.125  10.223 -0.8529 -0.1635  0.0643
  176MOL0     C23137  -1.203   2.232  10.226 -0.1338 -0.6623 -0.3966
  176MOL0     C23138  -1.292   2.233  10.098  1.1310 -0.0590  0.0056
  176MOL0     C23139  -1.434   2.291  10.107  0.1585 -0.0523 -0.0111
  176MOL0     C23140  -1.517   2.261   9.982 -0.6217  0.0542 -0.5622
  176MOL0     C23141  -1.668   2.287   9.976  0.1013  0.2144 -0.4181
  176MOL0     C23142  -1.699   2.436   9.948  0.1639  0.9169 -0.7125
  176MOL0     C23143  -1.851   2.457   9.931  0.3375  0.0240  0.2665
  176MOL0    Cl23144  -1.912   2.618   9.988  0.0956 -0.0017  0.1205
  176MOL0     C23145  -0.822   2.018  10.235 -0.2573  0.1401 -0.0191
  176MOL0     C23146  -0.685   1.991  10.247  0.1002 -1.0864  0.6681
  176MOL0     O23147  -0.376   2.168  10.436 -0.2104  0.0927  0.0366
  176MOL0     C23148  -0.144   2.038  10.520  0.5733 -0.8507  0.2463
  176MOL0     C23149  -0.028   1.967  10.539  0.2438  0.2101 -0.4963
  176MOL0     N23150   0.524   1.431  10.279  0.7190 -0.1626  0.3249
  176MOL0     N23151   0.642   1.465  10.246 -0.0534  0.9153 -0.2446
  176MOL0     C23152   1.995   1.716  10.342 -0.2644 -0.2080 -0.2222
  176MOL0     C23153   2.119   1.754  10.297 -0.3970  0.4987  0.8165
  176MOL0     C23154   2.487   1.890  10.086 -0.7393 -0.5800 -0.2259
  176MOL0     C23155   2.610   1.831  10.072 -0.3435  0.1338 -1.2385
  176MOL0     C23156   2.721   1.913  10.024 -0.5695  0.2087 -0.1640
  176MOL0     C23157   2.703   2.046   9.977  0.6106  0.6950 -0.0392
  176MOL0     O23158   2.818   2.104   9.935 -0.0374 -0.2704  0.4317
  176MOL0     C23159   2.832   2.243   9.892  0.0132  0.2882 -0.0239
  176MOL0     C23160   2.861   2.311  10.026 -0.0240  0.1819  0.5552
  176MOL0     C23161   3.005   2.290  10.059  0.3474  0.6701 -0.0203
  176MOL0     C23162   3.045   2.385  10.178  0.6142 -0.8949  0.7250
  176MOL0     C23163   2.974   2.350  10.295  0.6093  0.5857 -1.1356
  176MOL0     C23164   2.912   2.331  10.399  0.5537  0.1093 -0.3234
  176MOL0     C23165   2.576   2.102   9.999 -0.2137  0.9557 -0.1312
  176MOL0     C23166   2.471   2.031  10.055  0.4941 -0.0705  1.1356
  176MOL0     H23167   2.034   1.922  10.013  1.8931  1.6458  0.4696
  176MOL0     H23168   1.804   1.850  10.099  0.2101  0.3942  0.3158
  176MOL0     H23169   1.650   1.636  10.134 -0.1672 -3.3054  1.3690
  176MOL0     H23170   1.597   1.797  10.204  4.0594  2.6110  2.2783
  176MOL0     H23171   1.545   1.674  10.423 -1.6293 -0.5465 -0.5257
  176MOL0     H23172   1.582   1.517  10.340  0.4281  0.3549  5.1985
  176MOL0     H23173   1.373   1.550  10.210 -2.6552 -1.0196  0.9212
  176MOL0     H23174   1.345   1.697  10.303 -2.1132 -1.2023  0.1893
  176MOL0     H23175   1.372   1.411  10.422  0.5627  0.1312 -1.4362
  176MOL0     H23176   1.326   1.553  10.509  0.3925 -2.5638  1.3239
  176MOL0     H23177   1.150   1.369  10.423 -1.1521 -0.5840 -0.7035
  176MOL0     H23178   1.193   1.422  10.268  1.1427 -3.3892  1.1120
  176MOL0     H23179   1.088   1.646  10.311  3.1676 -0.4968  0.2026
  176MOL0     H23180   1.064   1.588  10.487 -4.3240  0.4220  0.4716
  176MOL0     H23181   0.939   1.482  10.235 -2.4745 -1.1107  0.1769
  176MOL0     H23182   0.922   1.405  10.402  0.2952  0.3789 -0.4750
  176MOL0     H23183   0.817   1.656  10.278 -0.3573 -0.5410 -0.6105
  176MOL0     H23184   0.836   1.652  10.452 -2.0882  0.0536  0.6392
  176MOL0     H23185   0.628   1.526  10.571  0.3619  2.1595  0.3647
  176MOL0     H23186   0.407   1.388  10.597  0.5435 -1.2566 -1.0416
  176MOL0     H23187   0.305   1.357  10.451 -0.5734 -1.9904  2.6270
  176MOL0     H23188   0.384   1.629  10.560 -0.6343  0.2211 -1.4023
  176MOL0     H23189   0.230   1.566  10.607 -0.9599 -1.3467 -0.9975
  176MOL0     H23190   0.309   1.594  10.325 -0.9390 -1.3844 -0.8977
  176MOL0     H23191   0.163   1.523  10.377 -3.9843  1.5837  3.0395
  176MOL0     H23192   0.099   1.754  10.324  1.4550 -0.0456 -0.5388
  176MOL0     H23193   0.249   1.810  10.412  2.3829 -2.2918 -0.5811
  176MOL0     H23194  -0.146   1.662  10.467 -1.5826 -0.3073  1.8187
  176MOL0     H23195  -0.356   1.806  10.427 -0.1401  0.2698  2.9178
  176MOL0     H23196  -0.610   2.088  10.562 -0.6573  1.4873  0.0928
  176MOL0     H23197  -0.859   2.152  10.535 -1.0494  1.0980 -1.1847
  176MOL0     H23198  -1.126   2.023  10.210 -5.4328  1.3586 -0.3533
  176MOL0     H23199  -1.022   2.152  10.140 -2.4851 -0.1452 -1.3050
  176MOL0     H23200  -1.155   2.330  10.228 -0.2186 -0.5947 -1.1214
  176MOL0     H23201  -1.265   2.214  10.314  1.7179 -0.3877  1.0219
  176MOL0     H23202  -1.302   2.127  10.073  2.8172 -0.5165  1.1477
  176MOL0     H23203  -1.240   2.287  10.018  2.5124 -2.2296 -0.6366
  176MOL0     H23204  -1.484   2.259  10.198 -0.7543  0.3411 -0.3669
  176MOL0     H23205  -1.431   2.400  10.119  1.2874  0.3009 -2.6710
  176MOL0     H23206  -1.511   2.154   9.963 -3.0547  0.0077 -1.4886
  176MOL0     H23207  -1.471   2.315   9.899  2.8602  1.1208  1.8639
  176MOL0     H23208  -1.698   2.251  10.075  0.6052 -0.2711 -0.4357
  176MOL0     H23209  -1.723   2.221   9.908  0.9454  1.4409 -2.3684
  176MOL0     H23210  -1.668   2.501  10.031  2.1039 -1.2809  0.4321
  176MOL0     H23211  -1.645   2.450   9.854  1.3123 -1.8032 -0.5583
  176MOL0     H23212  -1.892   2.380   9.997  2.7730  0.8192  2.8921
  176MOL0     H23213  -1.889   2.444   9.829  0.4553 -1.5178  0.3860
  176MOL0     H23214  -0.866   1.998  10.138  1.6662  1.4708 -1.2356
  176MOL0     H23215  -0.639   1.944  10.161  1.6235 -0.4906  1.1227
  176MOL0     H23216  -0.148   2.146  10.526 -1.3726 -0.7199 -1.8582
  176MOL0     H23217   0.058   2.017  10.582  0.6386  1.2141 -2.3212
  176MOL0     H23218   1.978   1.666  10.437 -2.9228  2.8746  1.1086
  176MOL0     H23219   2.197   1.739  10.372 -0.7646 -0.6325  0.9869
  176MOL0     H23220   2.634   1.731  10.106 -2.4961  0.3274  1.1474
  176MOL0     H23221   2.819   1.866  10.013 -1.8134 -2.5037 -0.4683
  176MOL0     H23222   2.738   2.284   9.853 -1.1740 -0.9526  1.4242
  176MOL0     H23223   2.903   2.249   9.808 -0.0539  0.5700 -0.0628
  176MOL0     H23224   2.837   2.417  10.028  1.0970  0.4450  0.6431
  176MOL0     H23225   2.803   2.258  10.102  0.6346 -1.7571 -0.2220
  176MOL0     H23226   3.068   2.319   9.974  0.7086 -1.1468 -0.4256
  176MOL0     H23227   3.021   2.183  10.073  0.3965 -0.0191 -4.1253
  176MOL0     H23228   3.150   2.382  10.207  0.3556 -3.2844  1.5866
  176MOL0     H23229   3.017   2.485  10.143  2.9569 -0.3818  0.1417
  176MOL0     H23230   2.853   2.311  10.486  1.3911 -0.0012  0.2261
  176MOL0     H23231   2.560   2.204   9.965  1.8638  1.3222 -0.1270
  176MOL0     H23232   2.383   2.089  10.080  1.2436  1.2488  0.8189
  177MOL0     O23233   3.770   4.618   7.641  0.8369  0.3248 -0.0288
  177MOL0     C23234   3.841   4.522   7.629  0.0177 -0.4650 -0.4939
  177MOL0     O23235   3.809   4.398   7.677 -0.0856  0.1191 -0.3117
  177MOL0     C23236   3.687   4.387   7.733  0.0172 -0.6545 -0.3181
  177MOL0     C23237   3.589   4.310   7.676  0.3025  0.5822  0.6952
  177MOL0     C23238   3.464   4.305   7.744  0.3002  0.5117 -0.0201
  177MOL0     C23239   3.448   4.362   7.869  1.0008  1.5214  0.5857
  177MOL0     O23240   3.331   4.337   7.936  0.2886  0.1571  0.5422
  177MOL0     C23241   3.320   4.321   8.083 -0.5510 -0.0640 -0.4778
  177MOL0     C23242   3.223   4.212   8.119 -0.0916  0.2257  0.1658
  177MOL0     C23243   3.282   4.079   8.070  0.1357 -0.2887  0.1771
  177MOL0     C23244   3.173   3.972   8.088  0.4206  0.5552  0.4885
  177MOL0     C23245   3.161   3.915   8.229  0.2662  0.5704  0.4541
  177MOL0     C23246   3.067   3.794   8.231  0.3319 -0.1063  0.6693
  177MOL0     C23247   2.910   3.824   8.222 -1.0723  1.1847 -1.0158
  177MOL0     C23248   2.840   3.864   8.355 -0.3675  0.0357  1.0491
  177MOL0     N23249   2.698   3.840   8.348 -0.0989  0.1741  0.7002
  177MOL0     C23250   2.644   3.731   8.410  0.1584  0.0115 -0.5444
  177MOL0     C23251   2.515   3.749   8.404 -0.3309 -1.0876 -0.1937
  177MOL0     C23252   2.410   3.659   8.466  0.7236 -0.5766 -0.3791
  177MOL0     C23253   2.318   3.743   8.558 -0.0208 -0.0559 -1.2757
  177MOL0     C23254   2.216   3.658   8.641 -0.1841 -0.0080  0.8105
  177MOL0     C23255   2.151   3.743   8.758 -0.1264 -0.3666 -0.5022
  177MOL0     O23256   2.033   3.671   8.803  0.1552 -0.1153 -0.6398
  177MOL0     C23257   1.954   3.732   8.901  0.2105  0.8842 -0.7474
  177MOL0     C23258   1.820   3.703   8.896  0.2757  0.4635 -0.1213
  177MOL0     C23259   1.731   3.754   8.985  0.4690 -0.8807  1.2294
  177MOL0     C23260   1.777   3.839   9.092 -0.5583 -0.6101  0.6914
  177MOL0     C23261   1.683   3.887   9.181  0.7165  0.4859 -0.2219
  177MOL0     O23262   1.541   3.872   9.148  0.0166  0.0969  0.5063
  177MOL0     C23263   1.462   3.944   9.225 -0.1435  0.1410  0.5874
  177MOL0     C23264   1.431   3.927   9.363  0.3032 -0.6110 -0.6735
  177MOL0     C23265   1.349   4.015   9.441 -0.1494  0.6821 -1.0095
  177MOL0     C23266   1.314   4.134   9.377 -0.6713 -0.2575 -0.4142
  177MOL0     O23267   1.264   4.234   9.448 -0.0006 -0.3901 -0.6396
  177MOL0     C23268   1.352   4.352   9.461  0.1961  1.2987 -0.2797
  177MOL0     C23269   1.303   4.440   9.571  0.0854  0.1367  0.4353
  177MOL0     C23270   1.308   4.370   9.713  0.3160  0.2932  0.1862
  177MOL0     C23271   1.271   4.471   9.825  0.1179 -0.5437  0.3814
  177MOL0     C23272   1.369   4.593   9.843  0.0429  0.9915  0.2370
  177MOL0     C23273   1.497   4.554   9.918 -0.4427 -0.2676 -0.3775
  177MOL0     C23274   1.597   4.668   9.898 -0.3540 -0.2817  0.0525
  177MOL0     C23275   1.736   4.628   9.934 -1.3510  1.3275 -0.2462
  177MOL0    Cl23276   1.843   4.772   9.932  0.1654 -0.0289  0.2386
  177MOL0     C23277   1.332   4.151   9.243 -0.5575  0.5665  0.6215
  177MOL0     C23278   1.404   4.053   9.170  0.1723 -0.0454 -0.5181
  177MOL0     O23279   1.730   3.961   9.274 -0.2985 -0.0814  0.4845
  177MOL0     C23280   1.912   3.881   9.085 -0.6707 -0.4381  0.4426
  177MOL0     C23281   1.997   3.818   8.997 -0.1331 -0.4100 -0.0542
  177MOL0     N23282   2.492   3.874   8.330  1.0680 -0.0703 -0.2330
  177MOL0     N23283   2.611   3.917   8.286 -0.2425  0.9152 -0.3390
  177MOL0     C23284   3.548   4.438   7.930  0.8737 -0.1906  0.0165
  177MOL0     C23285   3.664   4.452   7.858 -0.4394  0.4058 -0.4867
  177MOL0     C23286   3.981   4.536   7.571 -0.3419 -0.2949  0.3608
  177MOL0     C23287   4.064   4.425   7.557 -0.7220  0.0927  0.7189
  177MOL0     C23288   4.200   4.447   7.520  0.0088  0.3049  0.9185
  177MOL0     C23289   4.250   4.578   7.479  0.4919  0.6690  0.1210
  177MOL0     O23290   4.381   4.602   7.445 -0.3331  1.0906 -0.3891
  177MOL0     C23291   4.473   4.492   7.447 -0.1860  0.1563 -0.1263
  177MOL0     C23292   4.617   4.537   7.429 -0.1322 -0.1729 -0.1032
  177MOL0     C23293   4.730   4.430   7.422  0.0428  0.4186 -0.1670
  177MOL0     C23294   4.865   4.483   7.450  0.3783 -0.4229 -0.1007
  177MOL0     C23295   4.969   4.427   7.367  0.0167  0.3427 -0.2669
  177MOL0     C23296   5.054   4.368   7.302  0.6136  0.6262 -0.1151
  177MOL0     C23297   4.156   4.680   7.478 -1.2787 -0.2693 -0.9296
  177MOL0     C23298   4.027   4.666   7.526 -0.7933  0.3607 -0.5474
  177MOL0     H23299   3.605   4.272   7.575 -1.6836 -1.0818  0.9478
  177MOL0     H23300   3.379   4.258   7.695  0.0158 -1.5545  2.2380
  177MOL0     H23301   3.290   4.417   8.126  0.9370 -1.6812  4.9199
  177MOL0     H23302   3.416   4.301   8.130  1.7098  3.3927 -3.0827
  177MOL0     H23303   3.123   4.235   8.080 -0.0509  0.8481  0.4225
  177MOL0     H23304   3.217   4.214   8.228 -2.0947 -0.2111  0.1012
  177MOL0     H23305   3.377   4.062   8.122  0.4850  3.0477  0.8677
  177MOL0     H23306   3.307   4.087   7.964  0.8809  1.1830  0.4351
  177MOL0     H23307   3.080   4.022   8.060  1.7522  3.0388  0.2319
  177MOL0     H23308   3.197   3.886   8.026 -1.6959 -2.2329  3.2193
  177MOL0     H23309   3.124   3.985   8.305 -3.1410  0.5629 -0.9749
  177MOL0     H23310   3.260   3.884   8.263  1.0072  0.8241 -1.3556
  177MOL0     H23311   3.079   3.751   8.331 -0.4495  0.6959  1.1280
  177MOL0     H23312   3.104   3.730   8.151 -5.4244 -0.9268 -1.8340
  177MOL0     H23313   2.881   3.890   8.140 -1.3120 -0.6439 -2.4613
  177MOL0     H23314   2.862   3.731   8.191 -2.1328  1.0418  0.8710
  177MOL0     H23315   2.861   3.970   8.371 -1.7185  0.9343 -2.1849
  177MOL0     H23316   2.884   3.813   8.441 -0.5976 -0.5404  0.8313
  177MOL0     H23317   2.708   3.662   8.464 -0.4342 -1.7963 -2.0223
  177MOL0     H23318   2.459   3.577   8.519 -0.2051 -2.8174 -2.7464
  177MOL0     H23319   2.353   3.605   8.390 -0.9574 -0.0691  0.4817
  177MOL0     H23320   2.275   3.827   8.502  0.9003  0.3353 -1.4122
  177MOL0     H23321   2.385   3.783   8.635  2.0817 -2.7005 -1.6168
  177MOL0     H23322   2.135   3.622   8.577 -0.5223 -0.0269  1.2400
  177MOL0     H23323   2.263   3.568   8.683 -0.1845 -1.5112 -2.1363
  177MOL0     H23324   2.133   3.848   8.734 -1.5205 -0.8014 -1.4804
  177MOL0     H23325   2.218   3.742   8.845  1.4901  2.3954 -1.5914
  177MOL0     H23326   1.775   3.646   8.815 -2.8266  2.2292  0.1779
  177MOL0     H23327   1.630   3.716   8.980 -1.8368  4.4238  0.9668
  177MOL0     H23328   1.487   3.844   9.404  1.6426  0.8599  0.5952
  177MOL0     H23329   1.351   4.012   9.550 -0.5727  0.7627 -0.9982
  177MOL0     H23330   1.353   4.409   9.367 -1.8365  0.1466 -1.0666
  177MOL0     H23331   1.456   4.324   9.477  0.1070 -1.2291 -3.0835
  177MOL0     H23332   1.205   4.482   9.547  0.4620  0.4070 -0.6817
  177MOL0     H23333   1.374   4.523   9.569  0.2752  0.1307  3.0530
  177MOL0     H23334   1.399   4.314   9.738 -0.0412 -1.2711 -1.7911
  177MOL0     H23335   1.227   4.296   9.721  0.6791  0.0398  2.1537
  177MOL0     H23336   1.174   4.515   9.804  0.2939 -0.3884 -0.1278
  177MOL0     H23337   1.260   4.422   9.922 -0.1834 -0.3345  0.4530
  177MOL0     H23338   1.312   4.668   9.899  0.8227  0.7668  1.3472
  177MOL0     H23339   1.394   4.630   9.743 -0.0721  0.1960 -0.0870
  177MOL0     H23340   1.551   4.469   9.876  1.6645  2.0399 -2.6309
  177MOL0     H23341   1.478   4.546  10.026  3.0513  0.2728  0.4082
  177MOL0     H23342   1.594   4.676   9.789  1.8174 -2.4898 -0.2696
  177MOL0     H23343   1.571   4.761   9.949  2.8963  1.2338 -0.7995
  177MOL0     H23344   1.762   4.554   9.857 -0.2800  2.1294 -0.6860
  177MOL0     H23345   1.755   4.578  10.029 -0.0370 -0.3809 -1.3515
  177MOL0     H23346   1.318   4.237   9.179  0.9606  0.2648 -0.1465
  177MOL0     H23347   1.420   4.057   9.063 -1.6041  0.0548 -0.8068
  177MOL0     H23348   1.955   3.956   9.151 -0.1540  0.9510 -1.3940
  177MOL0     H23349   2.102   3.846   9.002  0.2686 -1.9975  1.0828
  177MOL0     H23350   3.541   4.483   8.029  1.7814  1.8730 -0.8029
  177MOL0     H23351   3.728   4.518   7.916 -0.9481  1.1038 -0.7064
  177MOL0     H23352   4.036   4.321   7.571  1.0995 -0.6794 -0.9946
  177MOL0     H23353   4.260   4.357   7.515  1.3707  0.7370  5.2555
  177MOL0     H23354   4.451   4.422   7.366  1.9728 -0.6825 -0.0333
  177MOL0     H23355   4.467   4.429   7.536  0.7369 -1.8634 -1.4435
  177MOL0     H23356   4.636   4.590   7.335  1.7939 -0.9665 -0.2116
  177MOL0     H23357   4.645   4.604   7.511 -0.3079  1.1497 -1.0932
  177MOL0     H23358   4.727   4.393   7.319 -0.2884  2.2226 -0.8339
  177MOL0     H23359   4.705   4.362   7.504  1.0139  0.3860  0.1122
  177MOL0     H23360   4.864   4.592   7.436 -1.4096 -0.2865  0.7288
  177MOL0     H23361   4.884   4.470   7.557 -0.1505  2.1171  0.3816
  177MOL0     H23362   5.130   4.307   7.256  0.8307  0.7384  0.0899
  177MOL0     H23363   4.199   4.777   7.456  1.7017 -0.8854  1.4973
  177MOL0     H23364   3.957   4.748   7.521  0.6118  1.5302 -1.8296
  178MOL0     O23365   9.690   2.018   8.011 -0.7080 -0.1365  0.7410
  178MOL0     C23366   9.711   1.950   8.107 -0.1147 -0.4931  0.1634
  178MOL0     O23367   9.616   1.913   8.192 -0.2851  0.9751  0.2651
  178MOL0     C23368   9.478   1.935   8.171 -0.7893 -0.8343  0.6087
  178MOL0     C23369   9.415   1.975   8.059  0.3157  0.2613  0.6079
  178MOL0     C23370   9.274   1.977   8.054  0.2952  0.0325 -0.2963
  178MOL0     C23371   9.198   1.938   8.169 -0.1527 -0.5454  0.0675
  178MOL0     O23372   9.058   1.934   8.154 -0.2443 -0.2334  0.4203
  178MOL0     C23373   8.973   1.858   8.240 -0.6652 -0.4691  1.0405
  178MOL0     C23374   8.837   1.833   8.188  0.0311  0.2562  0.3729
  178MOL0     C23375   8.844   1.785   8.037  0.6379 -0.0572  0.3621
  178MOL0     C23376   8.706   1.752   7.977  0.3339  0.4087 -0.0155
  178MOL0     C23377   8.623   1.883   7.977  0.1294  0.5528 -0.5116
  178MOL0     C23378   8.502   1.892   7.888  0.0381  0.1441  0.1514
  178MOL0     C23379   8.386   1.804   7.945  0.7112 -0.1053  0.4405
  178MOL0     C23380   8.304   1.720   7.843 -0.3207  0.7673  0.0728
  178MOL0     N23381   8.391   1.617   7.783  0.6930 -0.0088 -0.3916
  178MOL0     C23382   8.370   1.478   7.805  0.1821  0.1878  0.4472
  178MOL0     C23383   8.455   1.428   7.719  0.0475  0.5273  0.2703
  178MOL0     C23384   8.484   1.277   7.701  0.8312  0.2253 -0.2208
  178MOL0     C23385   8.408   1.223   7.574  0.1046 -1.2862 -1.3248
  178MOL0     C23386   8.258   1.218   7.611 -0.1950 -0.2082 -0.6164
  178MOL0     C23387   8.179   1.218   7.482 -0.2247  0.2068 -0.2330
  178MOL0     O23388   8.034   1.199   7.508  0.0411  0.2399  0.3411
  178MOL0     C23389   7.976   1.308   7.566 -0.3181 -0.0174  0.3539
  178MOL0     C23390   8.030   1.439   7.576  0.3507  0.1745 -0.4191
  178MOL0     C23391   7.967   1.535   7.646  0.7925 -0.3328 -1.0100
  178MOL0     C23392   7.849   1.513   7.719 -0.0011  1.3344 -0.2225
  178MOL0     C23393   7.767   1.611   7.785 -0.0677 -0.3198 -0.2829
  178MOL0     O23394   7.653   1.571   7.848 -0.0093 -1.3915 -0.0778
  178MOL0     C23395   7.558   1.663   7.881  0.2559 -0.4090  0.4179
  178MOL0     C23396   7.544   1.785   7.816  0.4693 -0.7884  0.2112
  178MOL0     C23397   7.440   1.877   7.846 -0.6604  0.3047 -0.0055
  178MOL0     C23398   7.344   1.838   7.947  0.0713  0.8449  0.3136
  178MOL0     O23399   7.241   1.928   7.985  0.2474  0.3079  0.3468
  178MOL0     C23400   7.126   1.930   7.904  0.1647 -0.2150 -0.2441
  178MOL0     C23401   6.991   1.958   7.966 -0.6318  0.0737 -0.8074
  178MOL0     C23402   6.872   1.966   7.870 -0.0511 -0.1269  0.0229
  178MOL0     C23403   6.747   2.003   7.947  0.2096  0.2523  0.0535
  178MOL0     C23404   6.622   1.968   7.873  0.4777  0.6478  0.5839
  178MOL0     C23405   6.492   2.003   7.945 -0.1301 -0.1556 -0.8497
  178MOL0     C23406   6.363   1.999   7.858  0.2472 -0.7813  0.0776
  178MOL0     C23407   6.234   1.982   7.946  0.6807  0.0563 -0.2211
  178MOL0    Cl23408   6.191   2.130   8.054  0.1508  0.1674 -0.2601
  178MOL0     C23409   7.357   1.706   7.998  0.9373 -0.0970 -0.6017
  178MOL0     C23410   7.465   1.617   7.974 -0.1156 -0.6593  0.1968
  178MOL0     O23411   7.825   1.722   7.794 -0.0639 -0.9332 -0.2474
  178MOL0     C23412   7.797   1.386   7.712 -0.2921  0.1362  0.5019
  178MOL0     C23413   7.857   1.284   7.634 -0.7461 -0.0512  0.2171
  178MOL0     N23414   8.519   1.521   7.641  0.1831 -0.6360  0.5955
  178MOL0     N23415   8.476   1.634   7.677 -0.0700  0.4261  0.0556
  178MOL0     C23416   9.265   1.909   8.285 -0.0980  0.0575 -0.3557
  178MOL0     C23417   9.404   1.902   8.288  0.3893 -0.4904  0.2235
  178MOL0     C23418   9.851   1.921   8.133 -0.2497 -0.2546 -0.6482
  178MOL0     C23419   9.882   1.841   8.250  0.4270 -0.1046 -0.1861
  178MOL0     C23420  10.023   1.820   8.269  0.3764 -0.4692 -0.0782
  178MOL0     C23421  10.124   1.874   8.185 -0.4099 -0.0856  0.5586
  178MOL0     O23422  10.257   1.858   8.194  0.3706 -0.1863 -0.4625
  178MOL0     C23423  10.319   1.813   8.316  0.5877  0.0434 -0.0072
  178MOL0     C23424  10.439   1.902   8.354  0.7320  0.7063 -0.5305
  178MOL0     C23425  10.566   1.847   8.296  0.1548  0.3567 -0.4296
  178MOL0     C23426  10.671   1.931   8.365  0.0422  0.0455 -0.3030
  178MOL0     C23427  10.808   1.909   8.308 -0.5432  0.2033  0.2527
  178MOL0     C23428  10.911   1.891   8.252 -0.3471  0.4117 -0.4491
  178MOL0     C23429  10.081   1.950   8.076  0.2040  0.2054  0.7619
  178MOL0     C23430   9.944   1.977   8.044  0.3071 -0.5149 -0.4870
  178MOL0     H23431   9.457   2.011   7.966 -3.0327 -0.3474 -1.3018
  178MOL0     H23432   9.224   2.010   7.964  3.8441 -0.2570 -2.5790
  178MOL0     H23433   8.973   1.903   8.340  1.2918 -0.8162  1.2370
  178MOL0     H23434   9.019   1.761   8.260 -1.9661 -1.2287  0.4395
  178MOL0     H23435   8.786   1.929   8.201 -3.0243 -1.3135  0.6048
  178MOL0     H23436   8.779   1.763   8.248 -1.2063 -0.3805 -1.4726
  178MOL0     H23437   8.905   1.694   8.043 -1.3356 -1.4206  1.1280
  178MOL0     H23438   8.889   1.857   7.969 -1.1911  1.7181  0.9395
  178MOL0     H23439   8.717   1.722   7.873 -1.5689  1.1669 -0.4750
  178MOL0     H23440   8.661   1.671   8.036 -0.5170  3.0497  3.2957
  178MOL0     H23441   8.685   1.967   7.944 -0.9862  2.1820  1.2630
  178MOL0     H23442   8.587   1.915   8.076  0.5414 -1.6634  0.4022
  178MOL0     H23443   8.523   1.870   7.783  0.3894 -1.3931  0.5298
  178MOL0     H23444   8.472   1.997   7.890 -2.2604 -0.4585 -0.2467
  178MOL0     H23445   8.420   1.726   8.014 -0.7660 -1.6299 -0.4787
  178MOL0     H23446   8.313   1.867   7.997  0.1894  0.3936 -0.8669
  178MOL0     H23447   8.264   1.779   7.760 -5.4272 -2.4884 -0.2471
  178MOL0     H23448   8.214   1.680   7.891  0.0264  1.1970  1.1172
  178MOL0     H23449   8.304   1.423   7.871  0.1054  0.1617  0.3476
  178MOL0     H23450   8.448   1.218   7.786 -0.2742  0.1604 -0.7244
  178MOL0     H23451   8.593   1.273   7.686  0.6793 -2.1861 -1.1346
  178MOL0     H23452   8.443   1.121   7.554  2.6880 -1.2439  2.0643
  178MOL0     H23453   8.430   1.285   7.487 -1.8226 -0.0919 -1.0300
  178MOL0     H23454   8.240   1.130   7.673 -2.5144  0.4633 -0.2183
  178MOL0     H23455   8.225   1.305   7.670 -1.5831 -0.5549 -0.8438
  178MOL0     H23456   8.202   1.125   7.429 -2.2465  0.4738 -1.6824
  178MOL0     H23457   8.190   1.309   7.422 -0.3115 -0.9213 -2.0442
  178MOL0     H23458   8.130   1.470   7.547 -0.4525  0.5980 -2.9437
  178MOL0     H23459   8.009   1.635   7.650 -0.9292  0.4477  3.4079
  178MOL0     H23460   7.613   1.820   7.740 -0.1594  0.0863  0.0278
  178MOL0     H23461   7.434   1.970   7.790 -2.4279  0.1870 -0.0482
  178MOL0     H23462   7.117   1.834   7.852  0.6432  0.5875 -1.8439
  178MOL0     H23463   7.130   2.004   7.824  1.8326  0.1635  0.1474
  178MOL0     H23464   6.998   2.052   8.023  0.5266 -0.4570 -0.0346
  178MOL0     H23465   6.983   1.881   8.042  0.5509 -1.3242 -2.0250
  178MOL0     H23466   6.861   1.865   7.829  2.0114 -0.2204 -0.3957
  178MOL0     H23467   6.897   2.040   7.794  1.7000 -0.6122  0.0839
  178MOL0     H23468   6.740   1.963   8.049 -2.8575  0.1739 -0.1008
  178MOL0     H23469   6.750   2.112   7.961  1.4915  0.1362  0.7654
  178MOL0     H23470   6.625   1.862   7.847 -0.3895  0.8539 -0.4158
  178MOL0     H23471   6.615   2.033   7.785  0.6057  2.3397  1.7620
  178MOL0     H23472   6.510   2.107   7.975 -3.6490  0.6254 -1.0498
  178MOL0     H23473   6.480   1.944   8.036 -3.1187  2.4881  0.6891
  178MOL0     H23474   6.349   2.080   7.785 -0.2304 -1.3229 -0.4417
  178MOL0     H23475   6.365   1.909   7.796  0.5280  0.4503 -1.7584
  178MOL0     H23476   6.249   1.890   8.005 -0.3594  0.9665  1.5358
  178MOL0     H23477   6.147   1.971   7.881 -0.4560  1.1216  1.0696
  178MOL0     H23478   7.290   1.678   8.078 -0.2455  1.3870 -1.0286
  178MOL0     H23479   7.477   1.520   8.021  1.4697 -0.1095  0.9943
  178MOL0     H23480   7.714   1.350   7.772 -0.8428  0.2225 -0.2030
  178MOL0     H23481   7.822   1.184   7.657 -1.1100  0.4599  2.0428
  178MOL0     H23482   9.213   1.872   8.373 -0.5037 -0.4078 -0.7833
  178MOL0     H23483   9.468   1.876   8.372  2.5873  3.0472 -0.1584
  178MOL0     H23484   9.802   1.798   8.309 -1.5598  1.1033 -1.8397
  178MOL0     H23485  10.045   1.760   8.356  3.1238  0.3579 -0.0910
  178MOL0     H23486  10.356   1.710   8.307  2.8905  0.5219  2.6969
  178MOL0     H23487  10.246   1.820   8.397 -0.6056 -0.1433 -1.0425
  178MOL0     H23488  10.424   2.007   8.329 -0.0123  0.4034 -1.4181
  178MOL0     H23489  10.448   1.887   8.462  0.2849  1.8317 -0.3237
  178MOL0     H23490  10.571   1.866   8.188  2.1413 -2.5197 -0.9600
  178MOL0     H23491  10.583   1.741   8.318 -0.2921 -0.1793 -2.4745
  178MOL0     H23492  10.649   2.038   8.369  3.0081  0.7077  1.3388
  178MOL0     H23493  10.668   1.906   8.472 -1.0926  0.4149 -0.2360
  178MOL0     H23494  11.009   1.879   8.209 -0.7251 -1.1678 -0.9282
  178MOL0     H23495  10.154   1.987   8.005 -0.2079 -1.1546 -0.4325
  178MOL0     H23496   9.925   2.028   7.951 -0.7875 -1.3623 -0.7475
  179MOL0     O23497   4.452   6.087   2.554  0.3556  0.1030 -0.0148
  179MOL0     C23498   4.514   6.147   2.631  0.1220  0.4379 -0.5229
  179MOL0     O23499   4.474   6.159   2.766 -0.8462 -0.1586 -0.0011
  179MOL0     C23500   4.346   6.125   2.800  0.2769 -0.2216 -0.5815
  179MOL0     C23501   4.233   6.169   2.726  0.9288  0.3671  0.2199
  179MOL0     C23502   4.105   6.117   2.756 -0.1774  0.6927 -0.3922
  179MOL0     C23503   4.087   6.047   2.873 -0.0514  0.0331 -0.3101
  179MOL0     O23504   3.964   6.000   2.935 -0.7469 -0.5255  0.5710
  179MOL0     C23505   3.853   5.980   2.848 -0.2300  0.5424  0.2960
  179MOL0     C23506   3.771   6.108   2.842 -0.1611 -0.0240 -0.0535
  179MOL0     C23507   3.687   6.131   2.973 -0.0286  0.4392 -0.1483
  179MOL0     C23508   3.620   6.265   2.991 -0.3923  0.7142  0.4320
  179MOL0     C23509   3.723   6.379   2.992  0.3809  0.2334 -0.1705
  179MOL0     C23510   3.727   6.439   2.852  0.4504 -0.5631 -0.4062
  179MOL0     C23511   3.818   6.572   2.857 -0.0678  0.6393  0.2164
  179MOL0     C23512   3.971   6.529   2.862  0.6091 -0.1822  0.2629
  179MOL0     N23513   4.062   6.643   2.870 -0.9277 -0.1532 -0.6645
  179MOL0     C23514   4.114   6.715   2.765  0.3926 -0.9125 -0.4491
  179MOL0     C23515   4.191   6.815   2.819 -0.6027 -0.1063  0.0111
  179MOL0     C23516   4.252   6.929   2.738  0.0553  0.1675 -0.1366
  179MOL0     C23517   4.412   6.948   2.761  0.0840 -0.5970 -0.3942
  179MOL0     C23518   4.431   7.051   2.875 -0.1137 -0.0479 -0.4156
  179MOL0     C23519   4.580   7.066   2.915 -0.3439 -0.5071 -0.3888
  179MOL0     O23520   4.652   7.043   2.800 -0.1969 -0.1825  0.0577
  179MOL0     C23521   4.783   7.066   2.788  0.6936  0.3854  0.3781
  179MOL0     C23522   4.845   7.039   2.667 -0.3581  0.1474 -0.2171
  179MOL0     C23523   4.980   7.021   2.657 -0.3688 -0.3220 -0.0799
  179MOL0     C23524   5.063   7.055   2.769  0.0795  0.2567  0.6043
  179MOL0     C23525   5.210   7.070   2.759  0.8410  0.0892  0.0541
  179MOL0     O23526   5.276   7.093   2.871  0.6827 -0.1526 -0.4662
  179MOL0     C23527   5.411   7.098   2.857  0.5123 -0.7448  0.6344
  179MOL0     C23528   5.481   7.215   2.859  0.3775 -0.0869 -0.7374
  179MOL0     C23529   5.623   7.210   2.862  0.0269  0.0675  0.5776
  179MOL0     C23530   5.692   7.089   2.835  0.6689 -0.1631  0.2344
  179MOL0     O23531   5.821   7.073   2.806 -0.3402 -0.2438  0.0258
  179MOL0     C23532   5.907   7.189   2.833 -0.8040  0.4067  0.1903
  179MOL0     C23533   6.054   7.151   2.826  0.0739 -0.5630  0.1118
  179MOL0     C23534   6.085   7.042   2.931 -0.1043  0.3252  0.0892
  179MOL0     C23535   6.235   7.011   2.919 -1.0530 -0.1019  0.4540
  179MOL0     C23536   6.282   6.912   3.033 -0.6907  0.3301 -0.2403
  179MOL0     C23537   6.434   6.899   3.031  0.1214  0.2174 -0.1749
  179MOL0     C23538   6.476   6.811   2.908 -1.2527 -0.5090  0.5958
  179MOL0     C23539   6.623   6.829   2.874 -0.0404  0.4197 -0.1216
  179MOL0    Cl23540   6.642   6.975   2.764 -0.3549 -0.0321  0.0878
  179MOL0     C23541   5.611   6.973   2.830  0.0053 -0.9298 -0.8540
  179MOL0     C23542   5.481   6.981   2.844  0.6548  0.2314 -0.1691
  179MOL0     O23543   5.262   7.063   2.649  0.0602 -0.3821 -0.1735
  179MOL0     C23544   5.002   7.092   2.886 -1.2990 -0.5670  0.5666
  179MOL0     C23545   4.868   7.078   2.897 -0.3113 -0.8890  0.0285
  179MOL0     N23546   4.202   6.788   2.952 -0.1842 -0.3079  0.9184
  179MOL0     N23547   4.129   6.686   2.985  0.5283 -0.2535  0.1984
  179MOL0     C23548   4.198   6.007   2.952 -0.1421 -0.5596  0.0957
  179MOL0     C23549   4.327   6.046   2.914  0.4207  0.0613 -1.0430
  179MOL0     C23550   4.651   6.186   2.601 -0.7993  0.6051 -0.2387
  179MOL0     C23551   4.740   6.242   2.698 -0.3004  0.0989  0.5287
  179MOL0     C23552   4.866   6.287   2.654 -0.9330  0.1178 -0.1429
  179MOL0     C23553   4.918   6.273   2.520 -0.1937 -0.6217 -0.6370
  179MOL0     O23554   5.038   6.319   2.479  0.1332  0.1233 -0.2093
  179MOL0     C23555   5.131   6.373   2.573 -0.0612 -0.0002 -0.3653
  179MOL0     C23556   5.233   6.456   2.494 -0.8199 -0.1836  0.4670
  179MOL0     C23557   5.280   6.389   2.363 -0.4101  0.2770 -0.3856
  179MOL0     C23558   5.413   6.446   2.305 -0.3345  0.4015 -0.3447
  179MOL0     C23559   5.532   6.403   2.376  0.4723 -0.0335 -0.0610
  179MOL0     C23560   5.630   6.349   2.429  0.3571 -0.4291  0.0963
  179MOL0     C23561   4.832   6.223   2.431 -0.6629 -0.1241 -0.0397
  179MOL0     C23562   4.698   6.187   2.467 -0.2540 -0.0108  0.8552
  179MOL0     H23563   4.249   6.236   2.643  1.0385  2.8058  2.1094
  179MOL0     H23564   4.017   6.153   2.703  0.7073  3.2744 -0.2485
  179MOL0     H23565   3.789   5.897   2.880 -1.0037  1.0540  0.1274
  179MOL0     H23566   3.892   5.966   2.748  1.9160  4.6689  0.3250
  179MOL0     H23567   3.711   6.105   2.751  2.3501 -0.3918 -1.7923
  179MOL0     H23568   3.847   6.184   2.822  1.4551 -1.9861 -1.8375
  179MOL0     H23569   3.741   6.101   3.063 -2.6871  1.1435  1.8091
  179MOL0     H23570   3.602   6.062   2.970 -0.1876  0.6574 -0.6761
  179MOL0     H23571   3.543   6.279   2.914  1.1954  2.2163 -0.9751
  179MOL0     H23572   3.562   6.283   3.082 -1.9131 -0.1913 -0.3187
  179MOL0     H23573   3.822   6.342   3.021 -0.5201 -1.2943  1.1355
  179MOL0     H23574   3.700   6.463   3.058  0.5493  0.3093 -0.2074
  179MOL0     H23575   3.627   6.472   2.824  0.8510 -1.0554 -2.6045
  179MOL0     H23576   3.758   6.376   2.769  0.5717 -0.7589 -0.2141
  179MOL0     H23577   3.798   6.620   2.761  1.7468 -2.1793 -1.7422
  179MOL0     H23578   3.782   6.639   2.935  1.3729 -0.9161  2.3404
  179MOL0     H23579   4.002   6.474   2.772 -0.6795 -1.5999  0.6424
  179MOL0     H23580   3.996   6.471   2.951  0.7493  1.1998  1.1609
  179MOL0     H23581   4.084   6.699   2.662 -1.8570 -2.0581  0.3162
  179MOL0     H23582   4.196   7.023   2.748  1.8026  1.7297 -3.3262
  179MOL0     H23583   4.247   6.905   2.632 -2.3511 -0.4453  0.0532
  179MOL0     H23584   4.448   7.001   2.672  1.3738 -0.3641  0.2554
  179MOL0     H23585   4.480   6.865   2.779 -1.8594 -1.9552  1.2085
  179MOL0     H23586   4.390   7.149   2.850 -1.1029 -0.0832  0.9558
  179MOL0     H23587   4.377   7.017   2.964  2.3713 -4.6018 -0.3495
  179MOL0     H23588   4.609   6.991   2.990  1.8829  0.9845  0.3395
  179MOL0     H23589   4.593   7.165   2.959  0.7854 -2.1726  3.3908
  179MOL0     H23590   4.775   7.027   2.585  0.8389  0.3497 -1.2957
  179MOL0     H23591   5.020   7.005   2.557  0.6344  3.6421 -0.4576
  179MOL0     H23592   5.433   7.311   2.877 -0.3864  0.2797 -4.1009
  179MOL0     H23593   5.687   7.294   2.889  3.1910 -1.8909 -0.2067
  179MOL0     H23594   5.890   7.228   2.934 -3.1144  2.8888 -1.0366
  179MOL0     H23595   5.885   7.263   2.756 -1.3550  0.1267  0.0814
  179MOL0     H23596   6.116   7.239   2.844 -3.1951  1.9711 -0.2126
  179MOL0     H23597   6.068   7.120   2.722 -4.8810  1.6566 -1.4981
  179MOL0     H23598   6.029   6.952   2.905  1.0826 -0.3263 -0.2677
  179MOL0     H23599   6.059   7.073   3.033 -1.6629  0.1442 -0.2205
  179MOL0     H23600   6.264   6.977   2.819  0.3101  0.3383  0.6720
  179MOL0     H23601   6.297   7.101   2.923  2.8615 -2.3017 -2.6532
  179MOL0     H23602   6.243   6.812   3.010 -2.7887  1.5445 -2.5296
  179MOL0     H23603   6.249   6.944   3.132 -1.5015 -1.5429  0.1311
  179MOL0     H23604   6.478   6.860   3.123  3.4801  0.0272 -1.7130
  179MOL0     H23605   6.474   6.998   3.004  2.3789 -1.1170 -2.2314
  179MOL0     H23606   6.452   6.706   2.930 -0.7387 -0.9123 -0.7142
  179MOL0     H23607   6.409   6.842   2.827  0.5969  0.7231 -0.5201
  179MOL0     H23608   6.680   6.746   2.830  0.8786  0.1727  1.4500
  179MOL0     H23609   6.690   6.847   2.958 -1.3701  0.2350  1.0119
  179MOL0     H23610   5.655   6.877   2.803  3.5956 -0.2328  1.7262
  179MOL0     H23611   5.423   6.890   2.861  2.9441 -1.1600  0.6359
  179MOL0     H23612   5.048   7.128   2.978 -4.0831 -0.8946  2.1821
  179MOL0     H23613   4.830   7.082   2.998  4.7605 -1.0284  2.2475
  179MOL0     H23614   4.186   5.939   3.035 -0.5656 -0.2938  0.2561
  179MOL0     H23615   4.415   5.999   2.957 -0.7746 -2.7572 -1.4568
  179MOL0     H23616   4.707   6.263   2.799  3.0552  0.4978  1.6818
  179MOL0     H23617   4.926   6.321   2.738  0.1143 -1.7500 -0.0715
  179MOL0     H23618   5.178   6.285   2.618 -2.1617 -2.8561 -3.2630
  179MOL0     H23619   5.085   6.440   2.646 -0.7623  0.4578 -1.1962
  179MOL0     H23620   5.183   6.552   2.476 -1.4742 -0.1331  2.3612
  179MOL0     H23621   5.318   6.469   2.560 -1.2641 -1.6088  1.3566
  179MOL0     H23622   5.194   6.393   2.295 -0.7973 -0.5286  0.0520
  179MOL0     H23623   5.284   6.280   2.373 -1.1140  0.1201 -1.5822
  179MOL0     H23624   5.422   6.430   2.197  0.7153  0.5188 -0.2862
  179MOL0     H23625   5.413   6.554   2.324 -0.4060 -0.0626  2.7953
  179MOL0     H23626   5.704   6.299   2.489  0.1492 -0.2792  0.4798
  179MOL0     H23627   4.861   6.232   2.327 -0.4298  3.2651  0.2204
  179MOL0     H23628   4.632   6.164   2.384 -1.7730  0.6070  1.8511
  180MOL0     O23629   7.797   8.863   4.977  0.3278 -0.0352  0.2722
  180MOL0     C23630   7.783   8.969   4.916 -0.3864 -0.5449  0.3390
  180MOL0     O23631   7.661   9.034   4.901  0.3749 -0.1153 -0.8118
  180MOL0     C23632   7.557   8.993   4.984 -0.7903  0.3353  0.1905
  180MOL0     C23633   7.517   8.860   4.992 -0.0760 -0.3768 -0.7740
  180MOL0     C23634   7.405   8.838   5.068  0.5525 -0.3356  0.6996
  180MOL0     C23635   7.347   8.939   5.157  0.0857 -0.2882 -0.4017
  180MOL0     O23636   7.243   8.905   5.247  0.5103 -0.0375 -0.2483
  180MOL0     C23637   7.220   8.768   5.274  1.0264  0.2416 -0.9142
  180MOL0     C23638   7.134   8.746   5.399 -0.3970 -0.2206 -0.1203
  180MOL0     C23639   6.988   8.796   5.379  0.2858  0.1613  0.2683
  180MOL0     C23640   6.915   8.749   5.503  0.0838  0.2535 -0.7917
  180MOL0     C23641   6.976   8.813   5.629  0.3352 -0.3875 -0.1541
  180MOL0     C23642   6.874   8.805   5.753 -0.5889 -0.3097 -0.4184
  180MOL0     C23643   6.957   8.823   5.884  0.5732 -0.9484  0.8575
  180MOL0     C23644   6.997   8.967   5.890  0.0222 -0.1560 -0.1517
  180MOL0     N23645   7.122   8.978   5.964  0.2373  0.2205  0.2510
  180MOL0     C23646   7.247   8.940   5.917 -0.6854 -0.2241  0.2052
  180MOL0     C23647   7.331   8.974   6.008  0.4907  0.0916  0.1258
  180MOL0     C23648   7.481   8.966   6.017 -0.6176 -0.1648 -0.3705
  180MOL0     C23649   7.545   8.982   5.868  0.0589  0.1058  0.0802
  180MOL0     C23650   7.517   9.102   5.784  1.1937 -0.4200 -0.3447
  180MOL0     C23651   7.566   9.103   5.642 -0.4851 -0.0298 -0.3041
  180MOL0     O23652   7.543   9.229   5.575  0.4670 -0.4309 -0.0628
  180MOL0     C23653   7.432   9.251   5.503  0.8116 -0.9471  0.2844
  180MOL0     C23654   7.409   9.379   5.453 -0.2974 -0.3663 -0.2997
  180MOL0     C23655   7.295   9.412   5.386  0.3070 -0.0320  0.0584
  180MOL0     C23656   7.190   9.324   5.372  0.2418  0.0533 -0.1357
  180MOL0     C23657   7.062   9.370   5.307  0.5127 -0.5187 -0.7029
  180MOL0     O23658   7.053   9.504   5.263  0.0163  0.5681 -0.4136
  180MOL0     C23659   6.959   9.539   5.173  0.0662 -0.1090 -0.0189
  180MOL0     C23660   6.983   9.496   5.038  0.3553 -0.4629  0.0385
  180MOL0     C23661   6.896   9.550   4.937 -0.3886  0.0042 -0.3272
  180MOL0     C23662   6.785   9.622   4.963  0.7297 -0.4476 -0.4985
  180MOL0     O23663   6.686   9.671   4.882 -0.4825 -0.0141  0.4268
  180MOL0     C23664   6.720   9.700   4.744 -0.4955  0.2963 -0.5624
  180MOL0     C23665   6.595   9.723   4.666  0.6130  0.5270 -0.4592
  180MOL0     C23666   6.519   9.857   4.685 -0.2700 -0.0680 -0.0542
  180MOL0     C23667   6.489   9.893   4.832  0.4681 -0.0176  0.6409
  180MOL0     C23668   6.362   9.974   4.842  0.1963  0.7361 -0.0753
  180MOL0     C23669   6.388  10.114   4.794  0.4428 -0.0635 -0.0661
  180MOL0     C23670   6.254  10.192   4.775  0.2038 -1.0862  0.9633
  180MOL0     C23671   6.274  10.336   4.737  0.0445 -0.1833  0.0251
  180MOL0    Cl23672   6.102  10.411   4.745 -0.5123 -0.2710 -0.1614
  180MOL0     C23673   6.757   9.648   5.098  0.6877  0.2442  0.3474
  180MOL0     C23674   6.844   9.614   5.199  0.1055  0.7994 -0.2469
  180MOL0     O23675   6.977   9.281   5.283 -0.5021  0.0298  0.3251
  180MOL0     C23676   7.200   9.195   5.427 -0.4190  0.5155 -0.2347
  180MOL0     C23677   7.323   9.161   5.491 -0.3566 -0.7094  0.2608
  180MOL0     N23678   7.267   9.037   6.109  1.6216  0.2411 -0.0106
  180MOL0     N23679   7.144   9.031   6.088  0.2968  0.0094  0.1244
  180MOL0     C23680   7.403   9.071   5.148  0.9497 -0.4514  0.6863
  180MOL0     C23681   7.510   9.097   5.059  0.0801  0.4431 -0.5328
  180MOL0     C23682   7.892   9.038   4.831 -0.5905 -0.4811 -0.5563
  180MOL0     C23683   8.021   8.978   4.835 -0.4022 -0.2013 -0.7106
  180MOL0     C23684   8.116   9.037   4.751  0.4734 -0.2159 -0.1820
  180MOL0     C23685   8.093   9.148   4.676  0.0954 -0.2656  0.2994
  180MOL0     O23686   8.186   9.210   4.589 -0.1712  0.5765  0.4476
  180MOL0     C23687   8.321   9.149   4.585  0.5167 -0.0843  0.1595
  180MOL0     C23688   8.424   9.224   4.508 -0.2560  0.0630 -0.0283
  180MOL0     C23689   8.557   9.151   4.492  0.1027  0.7018  0.0884
  180MOL0     C23690   8.650   9.247   4.410 -0.5853 -0.1214 -0.0707
  180MOL0     C23691   8.602   9.283   4.273  0.8460  0.4285  0.6771
  180MOL0     C23692   8.574   9.344   4.171 -0.6096  0.2635  0.3045
  180MOL0     C23693   7.964   9.208   4.678 -0.3307  0.2478  0.3520
  180MOL0     C23694   7.864   9.151   4.757 -0.0570  0.2255  0.3679
  180MOL0     H23695   7.569   8.780   4.941  0.5219 -0.4657 -0.0459
  180MOL0     H23696   7.368   8.736   5.068  2.9784 -1.2800  0.7434
  180MOL0     H23697   7.311   8.710   5.290  0.5998 -0.0694  0.5055
  180MOL0     H23698   7.171   8.722   5.187 -1.3800 -0.9100  0.9160
  180MOL0     H23699   7.195   8.791   5.478  1.4380  1.8082 -2.5534
  180MOL0     H23700   7.125   8.638   5.416  1.1112 -0.2648  0.4997
  180MOL0     H23701   6.944   8.739   5.297  0.5987 -1.4597  1.1883
  180MOL0     H23702   6.985   8.904   5.359  0.4296  0.2258  0.5968
  180MOL0     H23703   6.811   8.783   5.508 -0.4190 -1.4033  2.1250
  180MOL0     H23704   6.906   8.640   5.510 -3.0510  0.5319  2.4226
  180MOL0     H23705   7.010   8.916   5.616 -4.7588  2.0207  2.5710
  180MOL0     H23706   7.065   8.753   5.649  1.3066  0.8613 -0.6116
  180MOL0     H23707   6.809   8.719   5.741 -3.8712  1.8607  0.6067
  180MOL0     H23708   6.812   8.895   5.743  1.6997  1.2851 -1.1590
  180MOL0     H23709   6.892   8.794   5.967 -0.1201 -1.5793  0.1163
  180MOL0     H23710   7.044   8.756   5.884 -0.2788 -2.0947  1.0247
  180MOL0     H23711   6.918   9.021   5.943 -0.4229 -0.7095 -0.2337
  180MOL0     H23712   7.009   9.024   5.797  0.2907  1.8514  1.0484
  180MOL0     H23713   7.268   8.888   5.824  1.0392  1.4940 -0.4385
  180MOL0     H23714   7.511   8.869   6.057 -0.8249 -0.2534 -0.4274
  180MOL0     H23715   7.525   9.051   6.070 -0.7305 -0.3785  0.0698
  180MOL0     H23716   7.518   8.895   5.806  1.5663 -1.1937  1.1559
  180MOL0     H23717   7.653   8.967   5.875  0.1080 -0.5480 -1.5925
  180MOL0     H23718   7.411   9.129   5.786  1.5300  0.9147  1.1116
  180MOL0     H23719   7.561   9.188   5.836 -3.0804  1.5154  0.4449
  180MOL0     H23720   7.527   9.020   5.582  1.0233  0.4847 -2.0748
  180MOL0     H23721   7.674   9.088   5.633 -0.5005  0.0198 -0.5827
  180MOL0     H23722   7.486   9.456   5.452 -2.4507  2.0660  2.7860
  180MOL0     H23723   7.276   9.515   5.356 -1.2194 -0.6552 -1.2716
  180MOL0     H23724   7.075   9.444   5.015 -0.3106 -0.9559 -1.6785
  180MOL0     H23725   6.930   9.541   4.834  1.8902  1.8427  0.1659
  180MOL0     H23726   6.778   9.617   4.704  1.9218  1.9000 -0.5871
  180MOL0     H23727   6.784   9.788   4.736  0.7516 -0.4048  1.1090
  180MOL0     H23728   6.526   9.642   4.689  0.1438  0.2253 -2.6845
  180MOL0     H23729   6.627   9.705   4.563  2.7602 -0.7670  0.3622
  180MOL0     H23730   6.426   9.839   4.630  0.4842 -0.4215 -1.2455
  180MOL0     H23731   6.561   9.938   4.624  0.5313  0.4581  1.1417
  180MOL0     H23732   6.461   9.798   4.879 -2.9317  0.3839 -0.2832
  180MOL0     H23733   6.567   9.945   4.888 -0.2471  1.4055  0.3631
  180MOL0     H23734   6.335   9.989   4.947 -0.6692  0.1342 -0.1991
  180MOL0     H23735   6.279   9.929   4.786 -0.0867 -0.2643  1.0859
  180MOL0     H23736   6.435  10.119   4.695  2.2074 -0.8664  0.6819
  180MOL0     H23737   6.446  10.164   4.872 -0.1952  1.4871 -0.5539
  180MOL0     H23738   6.181  10.141   4.713 -2.1994  2.3995  0.6290
  180MOL0     H23739   6.203  10.189   4.872 -2.3413 -2.4774 -0.3132
  180MOL0     H23740   6.314  10.350   4.636 -3.0478 -0.5896 -1.3842
  180MOL0     H23741   6.334  10.389   4.811 -1.8734 -1.3509  2.5431
  180MOL0     H23742   6.663   9.688   5.135 -0.1388 -0.6509 -0.7261
  180MOL0     H23743   6.830   9.635   5.305  0.9464  0.4259 -0.0538
  180MOL0     H23744   7.124   9.118   5.424  0.9652 -0.8898 -0.4265
  180MOL0     H23745   7.336   9.061   5.530 -0.3571  0.0145  2.2102
  180MOL0     H23746   7.365   9.159   5.199 -1.9188 -0.1575 -1.6810
  180MOL0     H23747   7.544   9.199   5.048  0.3627  0.4579  0.4124
  180MOL0     H23748   8.040   8.902   4.909  1.3616  1.8189  1.0510
  180MOL0     H23749   8.211   8.985   4.761  0.1934 -1.1531 -2.0420
  180MOL0     H23750   8.309   9.055   4.531 -0.7364  0.2725 -0.2242
  180MOL0     H23751   8.368   9.141   4.684 -1.0783  0.5339  1.0111
  180MOL0     H23752   8.375   9.248   4.414 -1.1894 -2.1860 -0.1819
  180MOL0     H23753   8.448   9.314   4.565  2.0924 -0.3876 -0.1856
  180MOL0     H23754   8.547   9.063   4.428 -1.1850 -0.2260  1.4982
  180MOL0     H23755   8.596   9.125   4.591 -1.8114  3.8280  1.8291
  180MOL0     H23756   8.662   9.345   4.458  0.6810 -0.7379  0.9082
  180MOL0     H23757   8.751   9.207   4.410 -0.9117 -0.9857 -0.9715
  180MOL0     H23758   8.541   9.394   4.082 -0.0248 -0.8387 -0.5704
  180MOL0     H23759   7.935   9.293   4.617  1.3028 -0.9537 -2.2712
  180MOL0     H23760   7.764   9.190   4.740  0.8141  1.6766 -2.0020
  181MOL0     O23761   8.597   8.490   9.097 -0.3888  0.1944  0.0061
  181MOL0     C23762   8.612   8.418   8.998 -0.3279  0.6002  0.0818
  181MOL0     O23763   8.524   8.379   8.916 -0.2086 -0.0770 -0.1190
  181MOL0     C23764   8.386   8.369   8.949  0.0407 -1.1234 -0.4768
  181MOL0     C23765   8.291   8.346   8.843  0.3131 -0.6101  0.3377
  181MOL0     C23766   8.159   8.323   8.869  0.9829  0.3482  0.2616
  181MOL0     C23767   8.099   8.318   9.000  0.1143 -1.2874 -0.2170
  181MOL0     O23768   7.963   8.302   9.029 -0.2321  0.6695 -0.0136
  181MOL0     C23769   7.874   8.335   8.922  0.4359 -0.4939 -0.1608
  181MOL0     C23770   7.728   8.314   8.962 -0.3330 -0.0421  0.4856
  181MOL0     C23771   7.691   8.163   8.966 -0.7381  0.1846 -0.2508
  181MOL0     C23772   7.553   8.134   9.028 -0.5581  0.4021  0.1536
  181MOL0     C23773   7.442   8.202   8.949  0.3064  0.0360  0.6897
  181MOL0     C23774   7.309   8.172   9.026 -0.3042  0.5937  0.7082
  181MOL0     C23775   7.179   8.222   8.969 -0.5918 -0.2401  1.3186
  181MOL0     C23776   7.070   8.182   9.066  0.3533  0.0465 -1.3535
  181MOL0     N23777   6.952   8.253   9.036 -0.5503  0.0557 -0.3236
  181MOL0     C23778   6.866   8.209   8.937  0.3197  0.1754 -0.3613
  181MOL0     C23779   6.747   8.276   8.963  1.5837  0.4754  0.4069
  181MOL0     C23780   6.619   8.268   8.878  0.5713  0.2778 -0.7021
  181MOL0     C23781   6.515   8.169   8.941 -0.0449  0.4407  0.0497
  181MOL0     C23782   6.392   8.135   8.843 -1.3419  0.3991 -0.0762
  181MOL0     C23783   6.265   8.210   8.894  0.0641  0.8868  0.3118
  181MOL0     O23784   6.151   8.140   8.845  0.1116 -0.2177  0.2392
  181MOL0     C23785   6.026   8.189   8.873  1.1179  1.0519 -0.3345
  181MOL0     C23786   5.918   8.133   8.804 -0.6504  0.8510  0.3765
  181MOL0     C23787   5.780   8.169   8.810  0.5970  0.7026 -0.6040
  181MOL0     C23788   5.752   8.267   8.913 -0.9344  0.1181 -0.3274
  181MOL0     C23789   5.619   8.311   8.932  0.3713 -0.4415 -0.0615
  181MOL0     O23790   5.529   8.282   8.838 -0.8195  0.4072 -0.4158
  181MOL0     C23791   5.403   8.271   8.882 -0.3835 -0.5019 -0.4730
  181MOL0     C23792   5.343   8.172   8.961 -0.2356 -0.6535 -0.5059
  181MOL0     C23793   5.214   8.178   9.012  0.4954  0.2727 -0.5715
  181MOL0     C23794   5.137   8.295   8.983  0.6973  0.4953  0.3837
  181MOL0     O23795   5.008   8.287   9.044 -0.2840  0.0813 -0.7594
  181MOL0     C23796   4.921   8.385   8.997  0.3667  0.8702 -0.2179
  181MOL0     C23797   4.780   8.334   9.028  0.1134 -0.7537  1.1483
  181MOL0     C23798   4.682   8.451   9.041  0.4089  0.6163  0.5230
  181MOL0     C23799   4.541   8.391   9.062  0.9440 -0.0415  0.2765
  181MOL0     C23800   4.437   8.484   9.123 -0.3927  0.3086 -0.1237
  181MOL0     C23801   4.355   8.572   9.021 -0.1093  0.6311 -0.5020
  181MOL0     C23802   4.237   8.484   8.967 -0.1106  0.8122  0.0846
  181MOL0     C23803   4.125   8.565   8.906 -0.0490  0.3334 -1.0249
  181MOL0    Cl23804   4.177   8.654   8.761  0.1619  0.0456 -0.1291
  181MOL0     C23805   5.187   8.396   8.893 -0.7362  1.1239 -0.0004
  181MOL0     C23806   5.317   8.380   8.840  0.8694  0.3633  0.5253
  181MOL0     O23807   5.598   8.379   9.029 -0.3639 -0.4004 -0.9008
  181MOL0     C23808   5.862   8.336   8.974 -1.0194 -0.3562 -0.7277
  181MOL0     C23809   5.991   8.288   8.971  0.3009 -0.4427  0.7709
  181MOL0     N23810   6.766   8.366   9.067 -0.0890  0.3937 -0.0885
  181MOL0     N23811   6.886   8.346   9.116  0.2135 -0.6282  0.1566
  181MOL0     C23812   8.189   8.354   9.105 -1.0886  0.5694  0.4643
  181MOL0     C23813   8.325   8.368   9.078  0.3623  0.1031 -0.8074
  181MOL0     C23814   8.754   8.381   8.978  0.5076 -0.3314 -0.4180
  181MOL0     C23815   8.857   8.438   9.056 -0.2162  0.2770 -0.2182
  181MOL0     C23816   8.986   8.395   9.030 -0.1471 -0.6538 -0.6649
  181MOL0     C23817   9.019   8.295   8.934  0.4862 -0.0501  0.5526
  181MOL0     O23818   9.150   8.273   8.900  0.2654  0.2940 -0.4235
  181MOL0     C23819   9.245   8.378   8.941 -0.5824  0.0644 -0.4912
  181MOL0     C23820   9.347   8.373   8.824 -0.7362 -0.3854  0.0453
  181MOL0     C23821   9.296   8.485   8.727  0.0739  0.0992  0.5825
  181MOL0     C23822   9.377   8.484   8.590  0.7083 -0.6382 -0.3249
  181MOL0     C23823   9.313   8.566   8.490 -0.3685  0.4249 -0.6119
  181MOL0     C23824   9.267   8.656   8.421 -0.6543  0.4661 -1.2198
  181MOL0     C23825   8.916   8.236   8.856  0.0727  0.0240  0.2121
  181MOL0     C23826   8.786   8.285   8.880  0.0032  0.2674 -0.2189
  181MOL0     H23827   8.334   8.325   8.745 -3.3917 -1.1522 -1.3265
  181MOL0     H23828   8.093   8.284   8.792  0.1305 -1.5927  1.8669
  181MOL0     H23829   7.889   8.274   8.832  2.9429  1.9984 -1.6260
  181MOL0     H23830   7.881   8.441   8.897 -1.4703  0.0208  1.2918
  181MOL0     H23831   7.658   8.368   8.897 -0.2869  1.2604  1.4739
  181MOL0     H23832   7.709   8.360   9.059 -0.8619  2.5608 -0.7673
  181MOL0     H23833   7.774   8.111   9.014 -1.3315  0.8344  1.5819
  181MOL0     H23834   7.690   8.117   8.867 -3.4348 -3.0675  1.1048
  181MOL0     H23835   7.534   8.027   9.031 -1.1138  0.4785 -0.5608
  181MOL0     H23836   7.545   8.171   9.131 -3.9695 -1.1061  0.5384
  181MOL0     H23837   7.456   8.156   8.851  3.4830  1.8958  0.1516
  181MOL0     H23838   7.453   8.310   8.937 -2.8946  0.4961  0.9712
  181MOL0     H23839   7.317   8.227   9.120 -0.2313  0.6473  0.6700
  181MOL0     H23840   7.308   8.065   9.049  0.2898  0.0686 -1.4941
  181MOL0     H23841   7.189   8.331   8.975  0.9542 -0.4039  2.3673
  181MOL0     H23842   7.165   8.184   8.867  1.4181 -1.1546  1.3311
  181MOL0     H23843   7.099   8.219   9.164 -0.8020  0.7998 -1.2666
  181MOL0     H23844   7.039   8.077   9.068  1.0995 -0.2292 -2.7193
  181MOL0     H23845   6.889   8.139   8.857  0.8143  0.3548 -0.3841
  181MOL0     H23846   6.629   8.225   8.777 -0.3405  1.0272 -1.1314
  181MOL0     H23847   6.581   8.370   8.871 -0.6783 -0.0178  1.0843
  181MOL0     H23848   6.485   8.208   9.039 -1.3884 -1.1507  0.3332
  181MOL0     H23849   6.555   8.067   8.953  0.9870  0.7885 -0.3757
  181MOL0     H23850   6.406   8.144   8.735  0.2670  0.3932  0.1017
  181MOL0     H23851   6.363   8.031   8.858 -0.4407  0.2604  0.8627
  181MOL0     H23852   6.256   8.316   8.867  0.4329  1.6716  2.9137
  181MOL0     H23853   6.260   8.213   9.004  3.7319 -0.9796  0.6954
  181MOL0     H23854   5.950   8.064   8.727 -0.6359  2.7011 -1.3582
  181MOL0     H23855   5.704   8.121   8.749 -0.9051  1.0056  0.9461
  181MOL0     H23856   5.400   8.090   9.002 -1.7473 -0.3709  2.4430
  181MOL0     H23857   5.181   8.101   9.080 -0.7307  0.7898 -0.5642
  181MOL0     H23858   4.931   8.405   8.889 -0.9639  0.8196 -0.3628
  181MOL0     H23859   4.950   8.478   9.048  1.6587  1.3768 -1.7806
  181MOL0     H23860   4.787   8.281   9.123  1.8332 -0.6844  1.0869
  181MOL0     H23861   4.736   8.267   8.955 -2.4997  2.5563 -0.6133
  181MOL0     H23862   4.693   8.517   8.955  1.0965 -1.2237 -0.8579
  181MOL0     H23863   4.700   8.509   9.133 -4.6984  2.2055  0.8351
  181MOL0     H23864   4.502   8.345   8.971  2.1626  1.9071 -1.3131
  181MOL0     H23865   4.547   8.304   9.128 -2.0568 -1.1619 -0.7417
  181MOL0     H23866   4.489   8.560   9.183 -0.3782 -0.4868  0.9029
  181MOL0     H23867   4.374   8.427   9.192  0.3533 -0.6678 -0.2220
  181MOL0     H23868   4.421   8.620   8.949  1.2828  0.0032  0.3251
  181MOL0     H23869   4.307   8.651   9.079 -0.4767  2.0711 -2.6610
  181MOL0     H23870   4.274   8.408   8.898 -3.7284 -1.1693  0.0633
  181MOL0     H23871   4.202   8.422   9.051  0.6459 -1.5702 -1.2844
  181MOL0     H23872   4.097   8.642   8.979  1.4928 -3.1569  3.7556
  181MOL0     H23873   4.039   8.498   8.896  1.0271 -1.4659  0.9968
  181MOL0     H23874   5.136   8.492   8.883 -0.6118  1.3397  1.2277
  181MOL0     H23875   5.356   8.459   8.776  0.5750 -0.8939 -1.2823
  181MOL0     H23876   5.837   8.409   9.051 -1.3694 -1.0808 -0.1383
  181MOL0     H23877   6.066   8.341   9.029 -0.0908  2.7827 -1.3783
  181MOL0     H23878   8.155   8.363   9.208 -0.8110  0.7326  0.5419
  181MOL0     H23879   8.388   8.394   9.163  0.6102  1.6505 -1.4230
  181MOL0     H23880   8.829   8.505   9.137 -0.4349  0.9864 -0.8706
  181MOL0     H23881   9.060   8.439   9.096 -2.7086  1.6759  0.8771
  181MOL0     H23882   9.288   8.327   9.027  0.6085 -3.1241 -2.7728
  181MOL0     H23883   9.214   8.482   8.957 -2.1278 -0.4270 -0.1236
  181MOL0     H23884   9.445   8.398   8.866  0.0197 -1.1788 -1.1954
  181MOL0     H23885   9.349   8.272   8.783 -0.4670 -0.7974  1.0369
  181MOL0     H23886   9.315   8.588   8.757  0.8506  0.2890 -0.4762
  181MOL0     H23887   9.191   8.477   8.698  0.4342  0.6954 -1.0197
  181MOL0     H23888   9.472   8.538   8.591 -0.6160  1.8543 -1.0265
  181MOL0     H23889   9.382   8.378   8.561 -1.9686 -1.0018  0.2630
  181MOL0     H23890   9.211   8.715   8.351  0.8231  1.2572 -1.7666
  181MOL0     H23891   8.935   8.171   8.771 -0.6455  1.1696 -0.8783
  181MOL0     H23892   8.709   8.237   8.820  1.5708 -0.3760 -1.8020
  182MOL0     O23893  10.111   8.294   4.798  0.3095 -0.3498  0.1616
  182MOL0     C23894  10.137   8.369   4.889  0.8928 -0.0926 -0.5781
  182MOL0     O23895  10.070   8.485   4.915  0.3744  0.3201 -0.0323
  182MOL0     C23896   9.961   8.506   4.843 -0.6514  0.6599 -0.0980
  182MOL0     C23897   9.976   8.570   4.721 -0.6117 -1.0602 -0.7566
  182MOL0     C23898   9.868   8.606   4.641  0.2509 -0.9125 -0.5607
  182MOL0     C23899   9.737   8.572   4.683  0.1592 -0.4652 -0.8460
  182MOL0     O23900   9.640   8.617   4.601  0.0246  0.2176 -0.1656
  182MOL0     C23901   9.513   8.652   4.654 -0.0897  0.4501 -0.0100
  182MOL0     C23902   9.440   8.698   4.527 -0.1910 -0.5329  0.5995
  182MOL0     C23903   9.287   8.730   4.559  0.7713 -0.5794 -0.1747
  182MOL0     C23904   9.213   8.733   4.420  0.5795 -0.4361  0.1578
  182MOL0     C23905   9.174   8.881   4.387  0.5743  0.0281 -0.0985
  182MOL0     C23906   9.135   8.881   4.232 -1.1526 -0.2576  0.5455
  182MOL0     C23907   9.107   9.023   4.178  0.1231 -0.1194  0.0374
  182MOL0     C23908   9.225   9.115   4.166  0.8789 -0.1659 -0.3320
  182MOL0     N23909   9.321   9.080   4.061 -0.2239  0.0696 -0.2111
  182MOL0     C23910   9.453   9.058   4.071  0.3369  0.5288 -0.3656
  182MOL0     C23911   9.513   9.098   3.967  0.0508  0.4905  0.3595
  182MOL0     C23912   9.662   9.115   3.946 -0.0157 -0.1711 -0.0517
  182MOL0     C23913   9.707   8.990   3.883 -0.7481 -0.2569  0.0540
  182MOL0     C23914   9.842   8.993   3.821  0.0030 -1.2366  0.3098
  182MOL0     C23915   9.956   9.024   3.914 -0.9853 -0.9343 -0.9413
  182MOL0     O23916  10.050   8.913   3.924 -0.9424 -0.2999  0.1509
  182MOL0     C23917  10.178   8.924   3.978 -0.1478  0.3464  0.5658
  182MOL0     C23918  10.253   8.806   3.971  0.0373 -0.2036  0.2811
  182MOL0     C23919  10.387   8.802   4.015 -1.1919 -0.5952 -0.1624
  182MOL0     C23920  10.445   8.915   4.080  0.0824  0.0863 -0.1736
  182MOL0     C23921  10.575   8.903   4.131  0.7081 -0.1999 -0.6412
  182MOL0     O23922  10.626   8.778   4.159 -0.7760 -0.0815  0.5616
  182MOL0     C23923  10.719   8.778   4.257 -1.0552  0.3284  0.7419
  182MOL0     C23924  10.703   8.688   4.366 -0.6563  0.1883 -0.1921
  182MOL0     C23925  10.801   8.668   4.467 -1.0912  0.8063  0.1872
  182MOL0     C23926  10.933   8.735   4.450 -0.2483 -0.1166  0.0407
  182MOL0     O23927  11.038   8.725   4.538  0.9207  0.6172  0.0327
  182MOL0     C23928  11.040   8.603   4.617  0.6411  0.0003  0.0197
  182MOL0     C23929  11.170   8.584   4.684 -1.1892 -0.2572 -0.0008
  182MOL0     C23930  11.282   8.567   4.587  0.2635  0.6635 -0.3292
  182MOL0     C23931  11.414   8.558   4.674 -0.9803 -0.8260 -1.2906
  182MOL0     C23932  11.544   8.569   4.587  0.7603 -0.0740  0.1026
  182MOL0     C23933  11.672   8.507   4.649  0.5751 -0.2597 -0.6412
  182MOL0     C23934  11.659   8.358   4.667  0.4443  0.4511  0.4587
  182MOL0     C23935  11.791   8.290   4.707  0.0692  0.4966 -0.9179
  182MOL0    Cl23936  11.930   8.311   4.590 -0.1631 -0.0229 -0.2029
  182MOL0     C23937  10.953   8.816   4.337  0.4167 -0.3358 -0.2522
  182MOL0     C23938  10.843   8.843   4.246  0.2387 -0.3482  0.7704
  182MOL0     O23939  10.632   9.008   4.157 -0.0563 -0.1038  0.2889
  182MOL0     C23940  10.367   9.028   4.086  0.5904 -0.1723  0.4791
  182MOL0     C23941  10.232   9.035   4.036 -0.7034 -0.1465  0.6841
  182MOL0     N23942   9.418   9.135   3.882  0.1617 -0.0157 -0.0491
  182MOL0     N23943   9.304   9.116   3.930 -0.4946 -0.7909  0.2283
  182MOL0     C23944   9.724   8.502   4.805 -0.3342 -0.2977  0.1330
  182MOL0     C23945   9.833   8.476   4.881  0.2169  0.2003 -0.1661
  182MOL0     C23946  10.249   8.329   4.971  0.0335  0.0263 -0.0669
  182MOL0     C23947  10.301   8.411   5.074 -0.0712  0.3972  0.0415
  182MOL0     C23948  10.416   8.375   5.148 -0.0965 -0.2728  0.3613
  182MOL0     C23949  10.489   8.264   5.112  0.0163  0.1238  0.0716
  182MOL0     O23950  10.619   8.237   5.152 -0.2036  0.3712  0.1775
  182MOL0     C23951  10.627   8.245   5.294 -0.5420 -0.1175 -0.3794
  182MOL0     C23952  10.679   8.105   5.345 -0.1897  0.6567  0.2372
  182MOL0     C23953  10.799   8.036   5.266  0.3091 -0.0498 -0.0906
  182MOL0     C23954  10.821   7.896   5.321 -0.1926 -0.0224 -0.8919
  182MOL0     C23955  10.936   7.836   5.252 -0.6252 -0.9000  0.7318
  182MOL0     C23956  11.028   7.784   5.182  0.2902 -0.2399 -0.4582
  182MOL0     C23957  10.434   8.185   5.015 -0.1212 -0.3425 -0.7354
  182MOL0     C23958  10.316   8.209   4.950 -0.3089 -0.5813 -0.9590
  182MOL0     H23959  10.071   8.602   4.680  0.3720 -2.7297  0.1293
  182MOL0     H23960   9.877   8.648   4.542 -2.0269  0.8585 -0.0968
  182MOL0     H23961   9.516   8.738   4.722 -0.6816  0.8503 -0.4760
  182MOL0     H23962   9.466   8.567   4.703  1.6482 -1.1525 -0.9994
  182MOL0     H23963   9.441   8.617   4.454  2.4199 -1.2950  1.3609
  182MOL0     H23964   9.501   8.776   4.482  0.2446 -0.7973  0.7219
  182MOL0     H23965   9.272   8.820   4.620 -0.1300 -2.1053  1.9291
  182MOL0     H23966   9.248   8.647   4.617  1.0542  0.6266  1.8362
  182MOL0     H23967   9.276   8.702   4.336 -0.2925 -2.9009  0.3357
  182MOL0     H23968   9.123   8.672   4.412  0.7312 -0.5582 -0.6821
  182MOL0     H23969   9.261   8.943   4.410 -0.3281  1.7145 -1.0620
  182MOL0     H23970   9.088   8.909   4.450 -0.9257 -3.9450 -0.0912
  182MOL0     H23971   9.045   8.819   4.225  0.8728 -3.2427 -1.4644
  182MOL0     H23972   9.211   8.832   4.169 -0.7084  0.1630  0.7483
  182MOL0     H23973   9.046   9.018   4.088 -0.2742  1.8181  0.1608
  182MOL0     H23974   9.044   9.053   4.262 -0.2038 -3.8746  1.3159
  182MOL0     H23975   9.269   9.145   4.262  0.6162  1.6218 -0.7276
  182MOL0     H23976   9.178   9.208   4.132  1.3707  0.3936  0.4723
  182MOL0     H23977   9.498   9.012   4.159 -2.4091 -2.4035 -0.2795
  182MOL0     H23978   9.714   9.126   4.041 -1.7053 -0.1557  0.9027
  182MOL0     H23979   9.680   9.203   3.883  0.2740  0.2877  0.6609
  182MOL0     H23980   9.629   8.962   3.812 -1.2911 -3.4142  1.6684
  182MOL0     H23981   9.705   8.906   3.954 -1.8839 -0.0285  0.3098
  182MOL0     H23982   9.867   8.902   3.766  0.3031 -1.0261  0.0875
  182MOL0     H23983   9.841   9.071   3.744  0.8812 -1.7516 -0.2452
  182MOL0     H23984   9.925   9.053   4.014 -1.3718  0.3734 -1.4185
  182MOL0     H23985  10.007   9.117   3.889  0.6673 -1.2551  0.9933
  182MOL0     H23986  10.212   8.723   3.913 -0.2627  2.4762 -3.7602
  182MOL0     H23987  10.438   8.706   4.026  1.5179  0.8067  0.3937
  182MOL0     H23988  10.609   8.637   4.385  0.5120 -1.3396  1.8870
  182MOL0     H23989  10.788   8.607   4.556  2.1943  1.5510  1.2973
  182MOL0     H23990  11.019   8.511   4.562  0.2687  0.4276 -0.5581
  182MOL0     H23991  10.965   8.618   4.695 -2.7850 -0.2881 -2.9891
  182MOL0     H23992  11.163   8.501   4.755 -0.5018  0.6387  1.1391
  182MOL0     H23993  11.193   8.669   4.749  0.0318  0.0987 -0.8531
  182MOL0     H23994  11.292   8.640   4.506  0.9342  1.0685  0.1100
  182MOL0     H23995  11.265   8.464   4.553  1.8357 -0.9868  3.3521
  182MOL0     H23996  11.410   8.624   4.762 -1.9121  0.3015 -2.1421
  182MOL0     H23997  11.419   8.456   4.712  1.8409 -0.6754 -1.0143
  182MOL0     H23998  11.549   8.676   4.565 -3.2767  0.0342 -1.1119
  182MOL0     H23999  11.522   8.522   4.490  0.6061 -0.2940  0.2429
  182MOL0     H24000  11.690   8.567   4.739  2.1911  0.6375 -1.5110
  182MOL0     H24001  11.764   8.520   4.591  0.8929  2.5312  0.3352
  182MOL0     H24002  11.587   8.347   4.749  2.2685 -0.8723  1.9765
  182MOL0     H24003  11.621   8.312   4.576 -0.6176 -0.1720  1.1948
  182MOL0     H24004  11.768   8.184   4.722 -2.9301  0.6529 -3.3488
  182MOL0     H24005  11.825   8.324   4.805 -0.5319  1.7316 -1.1222
  182MOL0     H24006  11.042   8.875   4.320  1.5823 -2.4644 -2.0776
  182MOL0     H24007  10.872   8.908   4.164 -0.0923 -0.0963  0.8479
  182MOL0     H24008  10.397   9.127   4.116 -0.5868  1.1324 -2.2343
  182MOL0     H24009  10.180   9.130   4.046 -0.6762 -0.1986  1.4334
  182MOL0     H24010   9.621   8.484   4.834 -1.0005 -1.9605 -2.8148
  182MOL0     H24011   9.835   8.431   4.980  2.4204 -1.0719 -0.7209
  182MOL0     H24012  10.243   8.500   5.096 -1.8420 -1.1406  1.9864
  182MOL0     H24013  10.457   8.443   5.222  0.6871  2.7980 -2.6486
  182MOL0     H24014  10.529   8.269   5.336 -0.2731  1.6943 -0.7022
  182MOL0     H24015  10.695   8.323   5.330 -3.1839  2.2120 -0.0718
  182MOL0     H24016  10.709   8.112   5.450  0.3718  2.1153  0.0105
  182MOL0     H24017  10.604   8.026   5.336  3.1871 -2.8385 -0.1766
  182MOL0     H24018  10.887   8.099   5.278  1.4197 -1.3764 -1.0261
  182MOL0     H24019  10.777   8.039   5.159  1.7289  0.6309 -0.3829
  182MOL0     H24020  10.838   7.894   5.429  1.3745  0.4045 -1.1056
  182MOL0     H24021  10.733   7.838   5.290 -0.5275  1.1137 -2.1809
  182MOL0     H24022  11.092   7.755   5.101 -0.1433 -1.4700 -0.3755
  182MOL0     H24023  10.475   8.086   5.000  0.1416 -0.4616  0.5904
  182MOL0     H24024  10.274   8.133   4.885 -0.8765  0.0533 -1.3425
  183MOL0     O24025   3.852   5.679   4.378 -0.1502 -0.1410  0.1211
  183MOL0     C24026   3.874   5.614   4.480  0.2486 -0.7094 -0.3030
  183MOL0     O24027   3.978   5.621   4.564 -0.4691 -0.0933 -0.0218
  183MOL0     C24028   4.098   5.678   4.511  0.5367  0.5128 -0.6841
  183MOL0     C24029   4.172   5.757   4.593  0.4890 -0.4375  0.9585
  183MOL0     C24030   4.284   5.809   4.543 -0.3638 -0.4749 -0.7951
  183MOL0     C24031   4.334   5.798   4.415  0.0974  0.0530 -0.1567
  183MOL0     O24032   4.457   5.870   4.374  0.4170  0.3729  0.0721
  183MOL0     C24033   4.530   5.804   4.266  0.2093 -0.3618 -0.2155
  183MOL0     C24034   4.657   5.878   4.255 -0.1533  0.1319  0.0179
  183MOL0     C24035   4.762   5.831   4.353  0.1064 -0.5489  0.5275
  183MOL0     C24036   4.895   5.900   4.324 -0.0788 -0.2806  0.0665
  183MOL0     C24037   4.990   5.873   4.433 -0.1103 -0.1535  0.0752
  183MOL0     C24038   5.131   5.932   4.397 -0.0525 -0.0666 -0.3684
  183MOL0     C24039   5.189   5.887   4.260  0.8420 -0.2564  0.2496
  183MOL0     C24040   5.330   5.927   4.233  0.2361 -0.2005 -0.6591
  183MOL0     N24041   5.343   6.076   4.229 -0.6764  0.4123  0.2218
  183MOL0     C24042   5.338   6.143   4.107 -0.4711 -0.0283 -0.6249
  183MOL0     C24043   5.368   6.268   4.147 -0.1346  0.5543  0.6794
  183MOL0     C24044   5.348   6.390   4.062 -0.7259  0.9188 -0.4085
  183MOL0     C24045   5.196   6.395   4.031  0.0155  0.1615  0.3916
  183MOL0     C24046   5.156   6.514   3.949 -0.1474  0.2013  0.0354
  183MOL0     C24047   5.004   6.531   3.936 -0.2814  0.1777 -1.2761
  183MOL0     O24048   4.946   6.541   4.062  0.0572  0.8785 -0.6964
  183MOL0     C24049   4.813   6.506   4.072 -0.5412  0.1815 -0.3523
  183MOL0     C24050   4.728   6.494   3.963 -0.5083  0.0751  0.9287
  183MOL0     C24051   4.597   6.454   3.975  0.0557 -0.0717 -0.5300
  183MOL0     C24052   4.540   6.416   4.103 -0.0770 -0.5223  0.8514
  183MOL0     C24053   4.401   6.370   4.121  0.6868  1.5243  0.7560
  183MOL0     O24054   4.360   6.341   4.250  0.2744 -0.0804  0.2038
  183MOL0     C24055   4.234   6.305   4.278 -0.6087  1.2000 -0.9084
  183MOL0     C24056   4.225   6.174   4.321  0.3312 -0.4159 -0.0363
  183MOL0     C24057   4.101   6.109   4.335 -0.5511 -0.4199 -0.3439
  183MOL0     C24058   3.985   6.183   4.341 -0.1418  0.5409  0.3518
  183MOL0     O24059   3.870   6.132   4.384  0.8396 -0.3007  0.2186
  183MOL0     C24060   3.821   6.008   4.336 -0.3687 -0.1147  1.2396
  183MOL0     C24061   3.665   6.014   4.360  0.7102 -0.1652 -0.2820
  183MOL0     C24062   3.605   5.879   4.393  0.4909 -0.3931 -0.3970
  183MOL0     C24063   3.466   5.887   4.454  0.3289  0.1276 -0.0819
  183MOL0     C24064   3.396   5.763   4.503  1.0627 -0.1151  0.6498
  183MOL0     C24065   3.256   5.775   4.549 -0.0874 -0.3441  0.0491
  183MOL0     C24066   3.192   5.646   4.596 -0.0585  0.9387 -0.3173
  183MOL0     C24067   3.171   5.538   4.496  0.1819 -1.2266  0.2812
  183MOL0    Cl24068   3.107   5.383   4.568 -0.3330 -0.0452  0.0142
  183MOL0     C24069   3.992   6.323   4.320 -0.4663  0.6315  0.5054
  183MOL0     C24070   4.115   6.378   4.283 -0.5379 -0.3968  0.7623
  183MOL0     O24071   4.325   6.361   4.017  0.3859  0.6166  0.2216
  183MOL0     C24072   4.625   6.433   4.211 -0.1943  0.3651 -0.0301
  183MOL0     C24073   4.759   6.475   4.200 -0.1388  0.4084  0.6997
  183MOL0     N24074   5.391   6.274   4.285  0.1196 -0.5249 -0.3517
  183MOL0     N24075   5.379   6.153   4.328 -0.8091 -0.4412  0.2361
  183MOL0     C24076   4.258   5.712   4.333 -0.9001 -0.5222 -0.2341
  183MOL0     C24077   4.137   5.651   4.379  0.2178  0.2734  0.2290
  183MOL0     C24078   3.778   5.509   4.514  0.7307 -0.3691  0.3118
  183MOL0     C24079   3.798   5.419   4.625 -0.1426  0.2867  0.0624
  183MOL0     C24080   3.712   5.316   4.638 -0.2124 -0.3042 -1.1801
  183MOL0     C24081   3.594   5.298   4.574 -0.0948  0.4764  0.0087
  183MOL0     O24082   3.498   5.199   4.593 -0.3968  0.0276  0.3163
  183MOL0     C24083   3.521   5.089   4.677  0.0012  0.4513 -1.1140
  183MOL0     C24084   3.397   4.997   4.689 -0.5932  0.4754 -0.1719
  183MOL0     C24085   3.273   5.074   4.725  0.3537 -0.2442  0.0423
  183MOL0     C24086   3.148   4.990   4.737  0.1103 -0.8453 -0.4579
  183MOL0     C24087   3.146   4.887   4.842 -0.0884  0.1381 -0.1233
  183MOL0     C24088   3.144   4.793   4.922  0.2554 -0.5984 -0.7111
  183MOL0     C24089   3.567   5.388   4.474  0.0112 -0.8407  0.8585
  183MOL0     C24090   3.658   5.496   4.441  1.3057  0.2374  0.7354
  183MOL0     H24091   4.143   5.767   4.697  3.7490  0.8627  1.8681
  183MOL0     H24092   4.348   5.866   4.610  1.4531 -1.5599 -1.5229
  183MOL0     H24093   4.471   5.816   4.174  3.0876 -0.6274 -2.2246
  183MOL0     H24094   4.532   5.696   4.278 -0.2854 -0.7906 -3.2205
  183MOL0     H24095   4.644   5.984   4.279  2.6945  0.0651  2.3882
  183MOL0     H24096   4.695   5.885   4.152  0.2947 -1.5260  0.0430
  183MOL0     H24097   4.782   5.724   4.348  0.5609 -0.4144 -0.8382
  183MOL0     H24098   4.733   5.861   4.454  2.0133 -0.0891  0.9880
  183MOL0     H24099   4.929   5.857   4.230 -2.5895 -1.9282 -0.1970
  183MOL0     H24100   4.886   6.005   4.295  0.6080  0.5666  2.6710
  183MOL0     H24101   4.997   5.766   4.455  3.1721 -0.1228 -0.2532
  183MOL0     H24102   4.963   5.932   4.522 -1.9070 -0.8467  0.0239
  183MOL0     H24103   5.211   5.910   4.469  2.0109 -1.6125 -2.9329
  183MOL0     H24104   5.123   6.041   4.399  1.0952  0.0278  1.5201
  183MOL0     H24105   5.185   5.778   4.262  0.7379 -0.2554  2.6179
  183MOL0     H24106   5.119   5.914   4.180  0.5266 -1.8158 -0.0292
  183MOL0     H24107   5.373   5.876   4.146 -1.5622 -2.8685 -0.1191
  183MOL0     H24108   5.382   5.882   4.318 -1.7932  0.4118  0.9693
  183MOL0     H24109   5.320   6.102   4.008 -1.3388 -1.0805 -0.0562
  183MOL0     H24110   5.410   6.379   3.973 -2.6713 -4.0578 -1.5287
  183MOL0     H24111   5.378   6.472   4.127 -3.6045  1.3646  0.5374
  183MOL0     H24112   5.144   6.394   4.127 -0.3002 -3.1942  0.2978
  183MOL0     H24113   5.158   6.306   3.979 -1.1482  1.7855 -1.6942
  183MOL0     H24114   5.184   6.606   4.001  0.8146 -0.9991  1.6956
  183MOL0     H24115   5.212   6.510   3.855  0.4921  1.8296  0.3211
  183MOL0     H24116   4.974   6.438   3.886  1.0638 -1.4217  0.7203
  183MOL0     H24117   4.984   6.622   3.879  1.3369 -0.5740 -3.1424
  183MOL0     H24118   4.761   6.534   3.868  1.4685 -0.3402  1.4026
  183MOL0     H24119   4.546   6.436   3.882  0.1091  1.9847 -1.0024
  183MOL0     H24120   4.314   6.112   4.313 -0.2929 -1.2345 -0.8339
  183MOL0     H24121   4.093   6.003   4.357 -3.1790 -0.0942  0.5968
  183MOL0     H24122   3.862   5.921   4.387  0.2345 -1.0045 -0.6568
  183MOL0     H24123   3.846   5.998   4.230  0.3477  0.4973  1.3428
  183MOL0     H24124   3.604   6.050   4.277 -1.0926  4.9522  2.7981
  183MOL0     H24125   3.642   6.077   4.446  0.7747  4.8347 -3.5269
  183MOL0     H24126   3.668   5.844   4.476  1.1167  0.0264 -0.6926
  183MOL0     H24127   3.600   5.811   4.308  2.3679  1.1673 -1.8382
  183MOL0     H24128   3.467   5.964   4.532  1.3623 -0.4667  0.5023
  183MOL0     H24129   3.391   5.924   4.383 -0.3089  1.0665  1.0464
  183MOL0     H24130   3.451   5.711   4.581  0.3950 -0.9165  0.6006
  183MOL0     H24131   3.391   5.682   4.429  0.2243 -0.8977  1.5387
  183MOL0     H24132   3.192   5.814   4.469 -0.5512 -2.9652 -0.9594
  183MOL0     H24133   3.247   5.848   4.630  3.2082  0.4774 -0.1798
  183MOL0     H24134   3.250   5.605   4.680 -0.5396 -0.7861 -0.7749
  183MOL0     H24135   3.092   5.660   4.638 -1.0841  1.6033 -2.8318
  183MOL0     H24136   3.258   5.517   4.433 -0.6285  0.5375 -1.5537
  183MOL0     H24137   3.088   5.574   4.435  2.1787  2.4963 -0.5475
  183MOL0     H24138   3.899   6.379   4.332 -3.0764 -3.4680  1.3307
  183MOL0     H24139   4.109   6.486   4.268 -1.4793 -0.4726  0.5248
  183MOL0     H24140   4.579   6.422   4.309  1.1580 -2.5212  0.3803
  183MOL0     H24141   4.819   6.492   4.289 -0.9554  1.2744  1.1003
  183MOL0     H24142   4.292   5.696   4.231 -2.0968  0.3973 -0.7928
  183MOL0     H24143   4.087   5.584   4.311 -0.7236  0.4332  0.7518
  183MOL0     H24144   3.878   5.431   4.697  0.3593 -1.3873 -0.1796
  183MOL0     H24145   3.731   5.257   4.728  0.3786  2.5440  0.6833
  183MOL0     H24146   3.523   5.124   4.781  0.2835  1.4086 -1.4342
  183MOL0     H24147   3.605   5.026   4.649 -0.3207  0.2777 -1.7098
  183MOL0     H24148   3.379   4.946   4.594 -1.5328 -1.1372  0.8274
  183MOL0     H24149   3.405   4.927   4.772 -0.7889  0.9424  0.2438
  183MOL0     H24150   3.252   5.153   4.652  1.1543  0.5700  0.6781
  183MOL0     H24151   3.290   5.122   4.822  0.9890 -2.4078  1.0613
  183MOL0     H24152   3.082   5.071   4.770  1.7191 -0.4766  2.1537
  183MOL0     H24153   3.108   4.948   4.644  0.9696  0.3008 -1.3821
  183MOL0     H24154   3.148   4.704   4.982 -1.8517  1.0344  2.0785
  183MOL0     H24155   3.476   5.380   4.414 -0.1015  2.5750  0.3949
  183MOL0     H24156   3.632   5.565   4.361  1.1698  0.1426  0.6965
  184MOL0     O24157   3.036  10.266   0.630  0.5213 -0.1193 -0.1649
  184MOL0     C24158   3.072  10.234   0.519  0.2284 -0.6734  0.2421
  184MOL0     O24159   3.002  10.262   0.406 -0.2844 -0.1768 -0.5249
  184MOL0     C24160   2.876  10.325   0.420 -0.1131 -0.1942 -0.4609
  184MOL0     C24161   2.764  10.265   0.363 -0.3908 -0.3822 -0.3492
  184MOL0     C24162   2.636  10.320   0.381 -1.2160 -0.9451 -0.1096
  184MOL0     C24163   2.616  10.440   0.449 -0.1395 -0.1747 -0.9028
  184MOL0     O24164   2.484  10.461   0.466 -0.0518 -0.3805  0.6304
  184MOL0     C24165   2.421  10.425   0.591 -0.4933  0.0841  0.1330
  184MOL0     C24166   2.348  10.542   0.650  0.2413  0.3296 -0.0302
  184MOL0     C24167   2.251  10.491   0.755 -0.0306 -0.3312  0.2370
  184MOL0     C24168   2.117  10.446   0.689 -0.2341 -0.1399 -0.2626
  184MOL0     C24169   2.016  10.434   0.792  0.1922 -0.2860 -0.0002
  184MOL0     C24170   1.890  10.366   0.738  0.0927  0.7114  0.3178
  184MOL0     C24171   1.764  10.387   0.824  0.0026  0.3504  0.6964
  184MOL0     C24172   1.758  10.286   0.941 -0.1235  0.4865  0.4876
  184MOL0     N24173   1.623  10.248   0.980 -0.7659 -0.0198  0.0470
  184MOL0     C24174   1.530  10.337   1.041  0.4442  1.1199  0.8253
  184MOL0     C24175   1.408  10.281   1.021  0.2805  0.5849 -0.4434
  184MOL0     C24176   1.273  10.349   1.052 -0.3278  0.1196 -0.0003
  184MOL0     C24177   1.205  10.281   1.162  0.1041 -0.1660 -0.2060
  184MOL0     C24178   1.052  10.296   1.163 -0.4514  0.8965 -1.0930
  184MOL0     C24179   0.977  10.207   1.271 -1.3855 -0.3779 -0.2728
  184MOL0     O24180   1.026  10.242   1.404 -0.2010  0.7597  0.4359
  184MOL0     C24181   0.947  10.208   1.513 -0.3417 -0.5279 -0.3974
  184MOL0     C24182   0.851  10.104   1.516  0.1450 -1.4221  0.9563
  184MOL0     C24183   0.780  10.078   1.630 -0.2254 -0.0142  0.1449
  184MOL0     C24184   0.802  10.141   1.747  0.1273  0.4638 -0.1402
  184MOL0     C24185   0.729  10.095   1.866 -0.6050  0.5115 -0.3310
  184MOL0     O24186   0.766  10.151   1.981  0.8899  0.7315 -0.1991
  184MOL0     C24187   0.711  10.094   2.099 -0.2328  0.6055 -0.4781
  184MOL0     C24188   0.641  10.174   2.190 -0.2256 -0.0211 -0.5558
  184MOL0     C24189   0.565  10.115   2.292 -0.2511  0.1769 -0.4201
  184MOL0     C24190   0.577   9.975   2.317 -0.4179  0.0029 -0.4850
  184MOL0     O24191   0.509   9.925   2.420 -0.4689 -0.0536 -0.7451
  184MOL0     C24192   0.440   9.795   2.399 -0.2842 -0.1319 -0.3853
  184MOL0     C24193   0.331   9.781   2.515 -0.3046  0.0576  0.5351
  184MOL0     C24194   0.207   9.849   2.468  0.2020  0.1436 -0.0062
  184MOL0     C24195   0.087   9.817   2.567 -0.7284 -0.8425  0.9445
  184MOL0     C24196  -0.038   9.905   2.545  0.1499 -0.5608 -0.6854
  184MOL0     C24197  -0.110   9.882   2.408 -0.4618 -0.8772 -0.2570
  184MOL0     C24198  -0.238   9.968   2.408 -0.4023 -0.2124  0.6746
  184MOL0     C24199  -0.241  10.095   2.325 -0.3329 -0.0418  0.0038
  184MOL0    Cl24200  -0.165  10.240   2.406 -0.0187 -0.1831 -0.1220
  184MOL0     C24201   0.655   9.901   2.231  0.0205  0.7862 -0.1264
  184MOL0     C24202   0.719   9.956   2.120  0.0969  0.6068  0.9723
  184MOL0     O24203   0.633  10.008   1.846 -0.6822  0.1129  0.8414
  184MOL0     C24204   0.913  10.232   1.757  0.4200 -0.9501  0.4092
  184MOL0     C24205   0.985  10.259   1.637 -0.1541 -0.4479 -0.3425
  184MOL0     N24206   1.423  10.160   0.950  0.4562 -0.2897  0.5341
  184MOL0     N24207   1.548  10.148   0.923 -0.0108 -0.3669 -0.4074
  184MOL0     C24208   2.733  10.506   0.511  0.5253 -0.0414 -0.3363
  184MOL0     C24209   2.857  10.445   0.493 -0.3902 -0.4474  0.0028
  184MOL0     C24210   3.218  10.207   0.510 -0.4065  0.8712  0.2403
  184MOL0     C24211   3.303  10.188   0.622 -0.1003  0.5403  0.3925
  184MOL0     C24212   3.429  10.136   0.612  0.1259  0.6656  0.0477
  184MOL0     C24213   3.489  10.120   0.484  1.3644 -0.1933 -0.4533
  184MOL0     O24214   3.622  10.080   0.480  1.1137  0.4460  0.3538
  184MOL0     C24215   3.713  10.109   0.582 -0.5940  0.3962  0.2085
  184MOL0     C24216   3.851  10.118   0.515 -0.3134 -0.3641  0.0723
  184MOL0     C24217   3.972  10.101   0.612  0.6364  0.4701 -1.1628
  184MOL0     C24218   4.111  10.127   0.548  0.3067 -0.5314 -0.4283
  184MOL0     C24219   4.147  10.061   0.428  0.7829 -0.7371 -0.0256
  184MOL0     C24220   4.174   9.994   0.330  0.4453  0.0242  0.0709
  184MOL0     C24221   3.408  10.132   0.370 -0.0881  0.1379  0.0117
  184MOL0     C24222   3.279  10.180   0.386  0.2021  0.6232  0.5480
  184MOL0     H24223   2.763  10.170   0.312  1.2200 -1.6469  1.7869
  184MOL0     H24224   2.548  10.261   0.356 -0.2143 -2.0410 -1.1712
  184MOL0     H24225   2.497  10.390   0.661  0.0552 -3.5563 -1.9975
  184MOL0     H24226   2.366  10.332   0.576 -2.9062  1.4013  0.4585
  184MOL0     H24227   2.296  10.596   0.570  0.0542  1.1856  0.6562
  184MOL0     H24228   2.412  10.611   0.705 -2.7008  4.0575 -0.8811
  184MOL0     H24229   2.238  10.577   0.822 -0.4830  1.3422 -1.8805
  184MOL0     H24230   2.285  10.409   0.818 -4.6273 -1.0331  2.2223
  184MOL0     H24231   2.079  10.512   0.611 -0.9281  0.9829  0.9883
  184MOL0     H24232   2.127  10.343   0.652  1.3291  0.3906 -1.4014
  184MOL0     H24233   1.987  10.535   0.823 -0.8773 -1.0064  1.4939
  184MOL0     H24234   2.050  10.377   0.880 -0.6880 -1.2648 -0.2782
  184MOL0     H24235   1.916  10.260   0.727 -0.4590  0.2688  2.6446
  184MOL0     H24236   1.859  10.418   0.647 -2.6421 -1.1312  0.0618
  184MOL0     H24237   1.755  10.487   0.868 -1.1004 -0.3452  2.1448
  184MOL0     H24238   1.674  10.366   0.766  0.6432  0.1585 -0.2629
  184MOL0     H24239   1.824  10.326   1.019  3.8158 -2.7345 -0.8627
  184MOL0     H24240   1.811  10.194   0.913 -0.1706  0.3556  0.8343
  184MOL0     H24241   1.540  10.442   1.066  2.4878  1.6179 -1.6759
  184MOL0     H24242   1.199  10.351   0.971 -0.9470  0.1482  0.5646
  184MOL0     H24243   1.291  10.454   1.079  3.4885 -0.2706 -0.3971
  184MOL0     H24244   1.244  10.313   1.259  0.8478 -0.5623 -0.3644
  184MOL0     H24245   1.230  10.174   1.167  2.2893  0.2333 -1.4564
  184MOL0     H24246   1.030  10.402   1.179  0.5988  1.4801 -3.1354
  184MOL0     H24247   1.020  10.274   1.061  1.0206 -1.3316 -1.1417
  184MOL0     H24248   1.000  10.104   1.244  4.2718  0.8119 -1.1929
  184MOL0     H24249   0.872  10.234   1.250 -1.0611 -0.1209 -1.7281
  184MOL0     H24250   0.822  10.057   1.422 -0.7919  2.7614 -1.0905
  184MOL0     H24251   0.707   9.998   1.626  0.7389 -0.8764 -0.5007
  184MOL0     H24252   0.612  10.274   2.159  1.0672 -0.2354 -2.5964
  184MOL0     H24253   0.500  10.176   2.355 -0.2235  0.0295 -0.2476
  184MOL0     H24254   0.510   9.712   2.407 -0.0781  0.1010  0.2678
  184MOL0     H24255   0.394   9.780   2.301 -0.0223  0.4756 -0.6103
  184MOL0     H24256   0.375   9.815   2.610  0.5439 -0.1838  0.2358
  184MOL0     H24257   0.308   9.675   2.511 -0.8460  0.2064 -1.8066
  184MOL0     H24258   0.183   9.820   2.366 -2.3238  2.5867 -0.2427
  184MOL0     H24259   0.232   9.956   2.464  1.7405 -0.2415 -3.4546
  184MOL0     H24260   0.054   9.715   2.544  1.3279 -1.1179 -1.1642
  184MOL0     H24261   0.123   9.816   2.671 -1.2581  0.7559  1.1735
  184MOL0     H24262  -0.013  10.011   2.558  0.7284 -0.7943  0.1792
  184MOL0     H24263  -0.111   9.881   2.623  1.2070  1.1975  0.9364
  184MOL0     H24264  -0.135   9.775   2.407 -1.7619 -0.5837 -0.7951
  184MOL0     H24265  -0.046   9.912   2.325 -1.9668  0.5413 -0.9549
  184MOL0     H24266  -0.301   9.900   2.350  0.7423 -0.4148 -0.3691
  184MOL0     H24267  -0.270   9.979   2.512 -3.2310 -1.8399  0.0657
  184MOL0     H24268  -0.347  10.123   2.317 -0.8589 -1.6526  0.9372
  184MOL0     H24269  -0.203  10.071   2.226  2.2783  2.8401  0.1535
  184MOL0     H24270   0.677   9.795   2.243 -1.0978  0.4531 -0.8394
  184MOL0     H24271   0.774   9.899   2.046 -2.1646 -0.2275 -0.1416
  184MOL0     H24272   0.937  10.290   1.846  1.0719  1.6518 -1.3530
  184MOL0     H24273   1.067  10.330   1.638  0.9698 -1.7082 -0.0466
  184MOL0     H24274   2.734  10.588   0.583  2.4048 -0.0083 -0.3498
  184MOL0     H24275   2.932  10.495   0.552 -0.8098 -0.3390  0.4550
  184MOL0     H24276   3.256  10.192   0.720 -2.1378 -1.6798 -0.4054
  184MOL0     H24277   3.494  10.115   0.696  2.0948  0.2617 -1.5097
  184MOL0     H24278   3.719  10.029   0.655 -0.7136 -0.2967 -0.5279
  184MOL0     H24279   3.698  10.211   0.619 -3.4153 -0.0507  0.4935
  184MOL0     H24280   3.850  10.047   0.431 -1.2652 -0.7327  0.3932
  184MOL0     H24281   3.852  10.213   0.461  1.8531  0.2242  1.0357
  184MOL0     H24282   3.976  10.002   0.659  2.1200  1.5684  1.2279
  184MOL0     H24283   3.953  10.168   0.696  2.8808  1.5466 -1.4478
  184MOL0     H24284   4.107  10.233   0.521 -0.3341 -0.7440 -1.2141
  184MOL0     H24285   4.185  10.097   0.622 -2.1375  0.5140  2.6250
  184MOL0     H24286   4.176   9.939   0.238  1.1681  1.3346 -0.7387
  184MOL0     H24287   3.426  10.112   0.265 -2.5039  0.4432 -0.5428
  184MOL0     H24288   3.223  10.185   0.293 -1.9112 -1.8380  1.5710
  185MOL0     O24289  10.849  11.249   7.393 -1.2509 -0.0865  0.8613
  185MOL0     C24290  10.886  11.355   7.351 -0.1534 -0.4545 -1.0267
  185MOL0     O24291  10.808  11.465   7.362 -0.5427 -0.0872  0.0188
  185MOL0     C24292  10.695  11.469   7.439 -0.8379  0.5921 -0.8363
  185MOL0     C24293  10.574  11.491   7.386 -0.2719  0.3626  0.8786
  185MOL0     C24294  10.460  11.508   7.468  0.1817 -0.0203  0.5921
  185MOL0     C24295  10.474  11.508   7.603 -0.2157  0.6061  0.0756
  185MOL0     O24296  10.371  11.518   7.686  0.0119 -0.2901  0.3002
  185MOL0     C24297  10.277  11.409   7.671 -0.0648  0.6480 -0.8104
  185MOL0     C24298  10.181  11.412   7.792  0.9361  0.3254 -0.8186
  185MOL0     C24299  10.064  11.499   7.779  0.6457  0.1752  0.3848
  185MOL0     C24300   9.957  11.465   7.886  0.9316  0.1958  0.0344
  185MOL0     C24301   9.811  11.523   7.838 -0.3226 -0.1499  0.0077
  185MOL0     C24302   9.756  11.428   7.733  0.9302 -0.1392  0.3982
  185MOL0     C24303   9.610  11.475   7.695  0.1335 -0.5259 -0.3567
  185MOL0     C24304   9.538  11.367   7.630 -0.0545 -0.3717 -0.6285
  185MOL0     N24305   9.510  11.256   7.721 -0.3291 -0.3113  0.8181
  185MOL0     C24306   9.452  11.268   7.847  0.2280  0.0120  0.8724
  185MOL0     C24307   9.454  11.140   7.903  0.1336  0.9915 -0.0934
  185MOL0     C24308   9.425  11.096   8.041  0.2163  0.8748 -0.7521
  185MOL0     C24309   9.279  11.136   8.085 -0.4128  0.1456 -0.2098
  185MOL0     C24310   9.235  11.061   8.205 -0.1686  0.9098  0.2379
  185MOL0     C24311   9.102  11.125   8.258  0.1941 -0.5277 -1.0227
  185MOL0     O24312   9.097  11.077   8.393  0.6105  0.3131  0.1903
  185MOL0     C24313   8.976  11.068   8.460 -0.1427  0.3526  0.3972
  185MOL0     C24314   8.962  10.964   8.549 -0.3937  0.5101  0.2022
  185MOL0     C24315   8.847  10.949   8.629  0.4269 -0.6994 -1.0898
  185MOL0     C24316   8.735  11.029   8.609 -0.2394 -0.3429 -0.3714
  185MOL0     C24317   8.615  11.016   8.701  0.1739  0.2410 -0.1635
  185MOL0     O24318   8.497  11.062   8.657 -0.3235 -0.0173  0.2212
  185MOL0     C24319   8.383  11.052   8.739 -1.2465 -0.3273  0.0829
  185MOL0     C24320   8.389  11.071   8.878  0.4108  0.0447  0.0690
  185MOL0     C24321   8.281  11.072   8.961  0.3077 -0.5714 -0.4049
  185MOL0     C24322   8.147  11.063   8.907  0.5489 -0.0074 -0.3375
  185MOL0     O24323   8.038  11.071   8.997  0.5241 -0.2925  0.6521
  185MOL0     C24324   7.902  11.069   8.944  0.7442 -0.7303  0.7158
  185MOL0     C24325   7.836  10.932   8.942 -0.4711 -0.7615 -0.7027
  185MOL0     C24326   7.693  10.954   8.889 -0.0785 -0.2025 -0.0475
  185MOL0     C24327   7.599  10.828   8.875  0.2036  0.5174  1.6230
  185MOL0     C24328   7.450  10.874   8.854 -0.4101 -0.4171 -0.1306
  185MOL0     C24329   7.374  10.759   8.772  0.1457 -0.2352 -0.6826
  185MOL0     C24330   7.361  10.794   8.622 -0.4820  0.9796  0.1358
  185MOL0     C24331   7.258  10.700   8.554  0.2446 -0.3730 -0.4680
  185MOL0    Cl24332   7.088  10.744   8.614 -0.4999 -0.2241 -0.1865
  185MOL0     C24333   8.136  11.055   8.767  0.4258 -0.6338 -0.9312
  185MOL0     C24334   8.252  11.038   8.686  1.0672  0.4191 -0.7435
  185MOL0     O24335   8.638  10.958   8.810  0.2786 -0.1638 -0.3261
  185MOL0     C24336   8.744  11.126   8.502 -0.2387 -0.1951  0.6526
  185MOL0     C24337   8.861  11.152   8.438  0.0180 -0.0165  1.0729
  185MOL0     N24338   9.496  11.054   7.802 -0.6959 -0.0020 -0.0451
  185MOL0     N24339   9.536  11.122   7.697 -0.0833 -1.4683 -0.4121
  185MOL0     C24340  10.597  11.486   7.660 -0.0410 -0.1690 -0.4056
  185MOL0     C24341  10.706  11.456   7.572 -0.4326 -0.1392  0.4751
  185MOL0     C24342  11.021  11.362   7.284 -0.0346 -0.3176  0.6952
  185MOL0     C24343  11.091  11.248   7.260 -0.5299 -0.3318 -0.7971
  185MOL0     C24344  11.221  11.248   7.215 -0.4184 -0.6685  0.3832
  185MOL0     C24345  11.278  11.370   7.173 -0.4230  0.2340 -0.0467
  185MOL0     O24346  11.405  11.375   7.123 -0.6512 -0.1536  0.7163
  185MOL0     C24347  11.490  11.259   7.122 -0.1456 -0.0826 -0.0915
  185MOL0     C24348  11.621  11.305   7.056 -0.1318  0.1441  0.8211
  185MOL0     C24349  11.717  11.195   7.035 -0.7319 -1.0436 -0.0276
  185MOL0     C24350  11.836  11.236   6.948 -0.3424  0.7476  0.0821
  185MOL0     C24351  11.936  11.126   6.952  0.5304 -0.3411  0.2286
  185MOL0     C24352  12.028  11.041   6.961  1.1116  0.3460  0.4641
  185MOL0     C24353  11.210  11.490   7.191  0.3215  0.7666 -0.0332
  185MOL0     C24354  11.085  11.482   7.249  1.1973 -0.6459 -0.2939
  185MOL0     H24355  10.570  11.514   7.280 -1.4482  0.6666  0.9704
  185MOL0     H24356  10.362  11.522   7.422  1.6261 -1.3363 -3.3069
  185MOL0     H24357  10.319  11.308   7.673 -1.6192 -0.2246  4.9256
  185MOL0     H24358  10.218  11.416   7.579 -0.7251 -0.5753 -0.5122
  185MOL0     H24359  10.230  11.447   7.883 -4.0926  1.6426  1.7549
  185MOL0     H24360  10.144  11.311   7.813 -2.4405  2.1296  3.4263
  185MOL0     H24361  10.020  11.489   7.679 -1.0673 -0.7691  1.1882
  185MOL0     H24362  10.093  11.603   7.793 -1.3505  0.6536  1.4112
  185MOL0     H24363   9.955  11.358   7.908 -2.7669  0.4982  1.9043
  185MOL0     H24364   9.992  11.519   7.975  2.1585 -0.0729 -0.2754
  185MOL0     H24365   9.820  11.623   7.796  0.1200 -1.7008 -3.9593
  185MOL0     H24366   9.744  11.527   7.925  0.3330  1.3771  0.4752
  185MOL0     H24367   9.762  11.325   7.767  0.0152  0.7441  3.5770
  185MOL0     H24368   9.821  11.445   7.646 -0.4844  0.0977 -0.6493
  185MOL0     H24369   9.564  11.500   7.791 -0.3694 -2.0432 -0.1872
  185MOL0     H24370   9.596  11.564   7.633 -3.0807 -0.5142  0.2117
  185MOL0     H24371   9.596  11.331   7.544 -0.6040 -1.2706 -0.6413
  185MOL0     H24372   9.450  11.408   7.580  1.1292 -0.2518 -2.7839
  185MOL0     H24373   9.427  11.355   7.906 -1.0780 -1.1940  2.1789
  185MOL0     H24374   9.487  11.163   8.103 -1.8225 -0.2437  2.7973
  185MOL0     H24375   9.432  10.989   8.062 -0.6063  0.4823 -2.3511
  185MOL0     H24376   9.203  11.121   8.007  0.6743 -0.0119 -1.2666
  185MOL0     H24377   9.270  11.244   8.102 -1.1041 -0.0948  1.0602
  185MOL0     H24378   9.210  10.958   8.179 -1.9722  1.2265  0.5321
  185MOL0     H24379   9.310  11.055   8.284 -0.3852  1.6919  0.5168
  185MOL0     H24380   9.014  11.110   8.195  0.5935 -2.3239 -1.1875
  185MOL0     H24381   9.121  11.233   8.267  2.0126 -0.8615 -0.3936
  185MOL0     H24382   9.043  10.893   8.562  0.6787  1.5665 -0.4597
  185MOL0     H24383   8.849  10.880   8.712  1.5405  0.7795  0.1761
  185MOL0     H24384   8.485  11.080   8.929 -0.3039  1.1700  1.2948
  185MOL0     H24385   8.291  11.061   9.068  0.5536 -0.0020 -0.3681
  185MOL0     H24386   7.881  11.132   8.857  1.7231 -2.2435 -0.6712
  185MOL0     H24387   7.845  11.123   9.021 -0.0171 -0.4843 -0.0077
  185MOL0     H24388   7.851  10.886   9.041 -1.3050 -0.7092 -0.5437
  185MOL0     H24389   7.888  10.861   8.877 -2.8213 -2.5549 -0.7821
  185MOL0     H24390   7.692  11.006   8.793 -3.4845  0.6934  0.3340
  185MOL0     H24391   7.643  11.011   8.968  1.7576 -1.7571  2.4293
  185MOL0     H24392   7.623  10.784   8.778 -3.2293  1.2911  0.2790
  185MOL0     H24393   7.618  10.757   8.956  4.3799 -0.4536  0.0702
  185MOL0     H24394   7.451  10.966   8.794  1.2067 -0.3789 -0.1024
  185MOL0     H24395   7.394  10.887   8.948 -1.3127 -1.9846 -0.4282
  185MOL0     H24396   7.276  10.752   8.822  0.6615 -0.6069  0.2933
  185MOL0     H24397   7.415  10.658   8.782  0.2762 -0.4173 -2.6572
  185MOL0     H24398   7.334  10.899   8.605  2.2829  1.3424 -3.1027
  185MOL0     H24399   7.457  10.782   8.571  0.0693  2.7280  0.6813
  185MOL0     H24400   7.275  10.595   8.579  0.1774 -0.5239 -1.0410
  185MOL0     H24401   7.269  10.706   8.445  1.4302  2.9761 -0.2850
  185MOL0     H24402   8.040  11.048   8.718  0.8985  0.3646 -2.0538
  185MOL0     H24403   8.223  11.038   8.581  3.9013 -1.0424 -1.6216
  185MOL0     H24404   8.657  11.186   8.477  0.9562  1.8148  1.0431
  185MOL0     H24405   8.867  11.240   8.375 -1.9104  0.8658  2.0178
  185MOL0     H24406  10.605  11.483   7.769 -0.4050  0.5303 -0.3538
  185MOL0     H24407  10.806  11.439   7.612  1.2144 -1.9851 -3.8320
  185MOL0     H24408  11.048  11.151   7.286 -0.4678  0.2063  1.5728
  185MOL0     H24409  11.266  11.152   7.191 -2.9992 -1.2070 -3.0296
  185MOL0     H24410  11.447  11.168   7.077  0.5294 -2.1333  3.0507
  185MOL0     H24411  11.514  11.231   7.225  0.8340 -0.2633 -0.3635
  185MOL0     H24412  11.580  11.343   6.962 -0.6024  0.3419  1.0993
  185MOL0     H24413  11.659  11.398   7.100 -1.5423  0.0104  2.4512
  185MOL0     H24414  11.651  11.119   6.992 -2.1358  0.5712 -0.8649
  185MOL0     H24415  11.748  11.181   7.139 -2.3031  0.9545  0.7916
  185MOL0     H24416  11.801  11.247   6.845 -1.5848  0.0782  0.4145
  185MOL0     H24417  11.864  11.333   6.990 -1.7517  0.2487  2.3513
  185MOL0     H24418  12.104  10.970   6.984 -0.4351 -0.9737  1.7384
  185MOL0     H24419  11.268  11.578   7.164  1.5171 -0.8098 -3.0306
  185MOL0     H24420  11.033  11.575   7.269  0.4656 -0.9796 -0.5907
  186MOL0     O24421   9.096   2.634  10.863  0.2378  0.9234  0.0099
  186MOL0     C24422   9.071   2.738  10.803 -0.8005  0.0767 -0.0638
  186MOL0     O24423   8.952   2.796  10.781 -0.3627 -0.0438  0.5905
  186MOL0     C24424   8.834   2.743  10.818  0.1354 -0.2056 -1.4489
  186MOL0     C24425   8.821   2.668  10.937 -0.0911 -0.2945  0.2985
  186MOL0     C24426   8.693   2.631  10.974  0.2873 -0.6258  0.1526
  186MOL0     C24427   8.581   2.661  10.895  0.5908  0.3866 -0.4620
  186MOL0     O24428   8.450   2.623  10.926  0.2334  0.7290  1.4510
  186MOL0     C24429   8.421   2.539  11.047 -0.5586  0.7882  0.6148
  186MOL0     C24430   8.265   2.526  11.077 -0.3214 -0.1292 -0.3983
  186MOL0     C24431   8.184   2.654  11.070  0.0921 -0.4914 -0.5413
  186MOL0     C24432   8.032   2.629  11.054  0.1503  0.4417 -0.1093
  186MOL0     C24433   7.941   2.750  11.080 -0.3900  0.0829  0.1135
  186MOL0     C24434   7.926   2.838  10.958  0.3073  0.3649  0.4879
  186MOL0     C24435   7.829   2.953  10.974 -0.7011  0.2399  0.6120
  186MOL0     C24436   7.683   2.887  11.001 -0.2554  0.2366  0.3105
  186MOL0     N24437   7.588   2.996  11.004 -0.1917 -0.3752 -0.2385
  186MOL0     C24438   7.561   3.078  10.897 -0.7751  0.1039 -1.2344
  186MOL0     C24439   7.474   3.161  10.936  0.3195 -0.1215 -0.4026
  186MOL0     C24440   7.420   3.286  10.874  0.1546  0.4136 -0.2367
  186MOL0     C24441   7.304   3.264  10.773  0.7580 -0.0900 -0.4732
  186MOL0     C24442   7.173   3.230  10.843  0.4421 -0.3337 -0.2434
  186MOL0     C24443   7.064   3.211  10.750  0.6063 -0.2078 -0.4884
  186MOL0     O24444   6.972   3.132  10.825  1.2501  0.3189 -0.5684
  186MOL0     C24445   6.843   3.136  10.778  1.1318  0.0353  0.1956
  186MOL0     C24446   6.803   3.159  10.644  0.3582  0.4801 -0.8365
  186MOL0     C24447   6.665   3.140  10.590  0.0035  0.5708  0.3206
  186MOL0     C24448   6.567   3.101  10.679 -0.2060  0.5031 -0.2313
  186MOL0     C24449   6.432   3.080  10.633  0.1085 -0.2813 -0.3733
  186MOL0     O24450   6.398   3.170  10.532 -0.1273 -0.0192 -0.2650
  186MOL0     C24451   6.273   3.163  10.478  0.0018  0.1414  0.0724
  186MOL0     C24452   6.204   3.045  10.441  0.1767  0.4964 -0.7230
  186MOL0     C24453   6.084   3.046  10.381 -0.1218 -0.2459 -0.3238
  186MOL0     C24454   6.022   3.175  10.351 -0.1319 -0.4765 -0.5297
  186MOL0     O24455   5.900   3.172  10.289  0.5725 -0.0586 -0.2177
  186MOL0     C24456   5.803   3.283  10.325 -0.2417 -0.2898 -0.0267
  186MOL0     C24457   5.659   3.268  10.280  0.6306 -0.5878 -0.0695
  186MOL0     C24458   5.605   3.131  10.325 -0.4978  0.3321 -0.4144
  186MOL0     C24459   5.451   3.097  10.310 -0.2784 -0.4821 -0.4274
  186MOL0     C24460   5.346   3.206  10.361 -0.3966  0.2563  0.3146
  186MOL0     C24461   5.200   3.164  10.319 -0.2850  0.0712 -0.5021
  186MOL0     C24462   5.173   3.206  10.174  0.5311  0.1410  0.1209
  186MOL0     C24463   5.020   3.205  10.133 -0.5109 -0.9645  0.2200
  186MOL0    Cl24464   4.998   3.276   9.962  0.3661  0.1280 -0.2064
  186MOL0     C24465   6.091   3.296  10.396 -0.7321  0.2037  0.1199
  186MOL0     C24466   6.218   3.289  10.446  0.1803 -0.2934 -0.8265
  186MOL0     O24467   6.360   3.006  10.698  0.2943 -0.3552 -0.6502
  186MOL0     C24468   6.602   3.074  10.813 -0.8715  0.4652 -0.2244
  186MOL0     C24469   6.733   3.093  10.860 -0.3830  1.2636 -0.5794
  186MOL0     N24470   7.435   3.115  11.060  0.2248 -0.3701  0.1472
  186MOL0     N24471   7.512   3.029  11.104 -0.0193  0.3150 -0.6452
  186MOL0     C24472   8.601   2.736  10.780 -0.3111  0.4327 -0.7036
  186MOL0     C24473   8.728   2.783  10.737  0.4043 -0.9034  0.3169
  186MOL0     C24474   9.190   2.818  10.770 -0.0643 -0.5231  0.4202
  186MOL0     C24475   9.320   2.763  10.785  0.4935 -0.3332 -0.9271
  186MOL0     C24476   9.435   2.839  10.758  0.0710 -0.7242 -0.9635
  186MOL0     C24477   9.432   2.960  10.688  0.2164  0.1470 -0.4997
  186MOL0     O24478   9.544   3.010  10.639 -0.8775 -0.0257 -0.0844
  186MOL0     C24479   9.541   3.116  10.540  0.4066 -0.3201  0.1002
  186MOL0     C24480   9.486   3.072  10.407 -0.6091 -0.5448  0.3411
  186MOL0     C24481   9.586   3.102  10.293  0.2311  0.6590  0.3621
  186MOL0     C24482   9.541   3.057  10.150  0.1612 -0.3247 -0.1243
  186MOL0     C24483   9.597   2.920  10.126 -1.4307 -0.1222 -0.0942
  186MOL0     C24484   9.651   2.813  10.102  0.8115 -0.2829  0.1873
  186MOL0     C24485   9.300   3.008  10.672  0.5665 -0.1499  0.4396
  186MOL0     C24486   9.188   2.948  10.716  0.6749 -0.4620 -0.2080
  186MOL0     H24487   8.904   2.643  11.003  1.5167  0.0494 -1.5030
  186MOL0     H24488   8.694   2.560  11.055 -1.3785  0.9574  1.6515
  186MOL0     H24489   8.475   2.585  11.130  0.5838 -0.9585  0.8893
  186MOL0     H24490   8.462   2.437  11.045  2.0887  1.5722  4.3241
  186MOL0     H24491   8.247   2.467  11.167 -0.4157 -1.8080 -1.4737
  186MOL0     H24492   8.215   2.468  10.999 -0.8187  0.4712 -0.5399
  186MOL0     H24493   8.219   2.691  10.973 -0.2415 -1.2679 -0.9732
  186MOL0     H24494   8.218   2.731  11.139 -2.8553 -0.0010  0.4890
  186MOL0     H24495   8.016   2.607  10.948  3.9250 -2.6322 -0.2698
  186MOL0     H24496   8.007   2.545  11.119 -0.0053  0.7774  0.2690
  186MOL0     H24497   7.979   2.814  11.160 -3.4275  1.5779  0.4805
  186MOL0     H24498   7.854   2.703  11.126 -0.5474 -1.5867 -1.7744
  186MOL0     H24499   7.891   2.777  10.874  2.8277 -0.1977 -0.2385
  186MOL0     H24500   8.026   2.877  10.934 -0.7697  1.6929 -2.3471
  186MOL0     H24501   7.854   3.014  11.061 -0.3273  0.9090  0.0495
  186MOL0     H24502   7.833   3.013  10.883  0.9475  0.5179  0.8372
  186MOL0     H24503   7.687   2.839  11.099  3.5991 -3.9178 -1.5118
  186MOL0     H24504   7.656   2.824  10.916  0.4044  0.3733 -0.0057
  186MOL0     H24505   7.626   3.090  10.811 -0.6136 -0.3568 -1.1816
  186MOL0     H24506   7.502   3.331  10.817 -0.6934 -0.4645 -2.2496
  186MOL0     H24507   7.393   3.357  10.952 -3.4737 -3.0565  2.0237
  186MOL0     H24508   7.327   3.181  10.705 -0.5853  0.1604 -1.2561
  186MOL0     H24509   7.287   3.361  10.726  2.0405  1.7371  2.5080
  186MOL0     H24510   7.189   3.137  10.898  0.7805 -1.0041 -1.4453
  186MOL0     H24511   7.152   3.309  10.915 -0.6041  0.4410 -1.3544
  186MOL0     H24512   7.097   3.159  10.660  0.7291  1.0516 -1.1853
  186MOL0     H24513   7.028   3.305  10.708 -0.1008  0.3197  1.1972
  186MOL0     H24514   6.872   3.184  10.563  1.0111 -2.6391 -1.3808
  186MOL0     H24515   6.650   3.154  10.484  1.6899 -0.2277 -0.0476
  186MOL0     H24516   6.245   2.946  10.457  1.5688  1.1986  0.2696
  186MOL0     H24517   6.032   2.957  10.345  0.9463  0.0030 -2.6454
  186MOL0     H24518   5.839   3.379  10.286 -1.0598 -0.7266 -1.9857
  186MOL0     H24519   5.807   3.287  10.434  1.2850  1.0885 -0.0911
  186MOL0     H24520   5.655   3.275  10.171  0.9784 -2.1647 -0.1992
  186MOL0     H24521   5.595   3.350  10.316  0.2844 -1.5954  1.7257
  186MOL0     H24522   5.641   3.110  10.426 -0.8601 -1.3714 -0.6042
  186MOL0     H24523   5.670   3.060  10.273  1.5579 -0.2513  2.6787
  186MOL0     H24524   5.453   3.090  10.201  5.5251  2.9854 -0.9420
  186MOL0     H24525   5.439   3.002  10.363 -3.5138  1.3561  2.6678
  186MOL0     H24526   5.367   3.307  10.324 -0.8349  0.5405  0.8233
  186MOL0     H24527   5.357   3.212  10.470  2.0595 -4.7342  0.6150
  186MOL0     H24528   5.123   3.206  10.384 -3.4293 -2.1146 -2.5368
  186MOL0     H24529   5.186   3.056  10.324  3.3239 -0.5674 -1.3407
  186MOL0     H24530   5.207   3.310  10.175 -1.1442  0.7202 -0.0444
  186MOL0     H24531   5.228   3.141  10.105  0.2683 -2.7857  2.4303
  186MOL0     H24532   4.958   3.260  10.204  0.5489  0.6545 -0.0561
  186MOL0     H24533   4.977   3.105  10.136  1.1362 -1.6919  1.7089
  186MOL0     H24534   6.044   3.391  10.375 -1.1918 -0.3988 -1.7592
  186MOL0     H24535   6.287   3.371  10.461  2.0969 -1.7850 -1.2420
  186MOL0     H24536   6.519   3.044  10.877  1.5359 -0.4608  2.7055
  186MOL0     H24537   6.753   3.059  10.961  0.1365  1.4329 -0.6241
  186MOL0     H24538   8.515   2.744  10.714  0.0736  1.7239 -1.0865
  186MOL0     H24539   8.738   2.836  10.644 -4.7030 -0.2152 -0.1575
  186MOL0     H24540   9.338   2.660  10.814  1.7336  0.1005 -0.1172
  186MOL0     H24541   9.528   2.788  10.783  0.4821  0.0082 -0.9704
  186MOL0     H24542   9.645   3.145  10.523  0.2773  0.5573  0.7066
  186MOL0     H24543   9.494   3.206  10.582 -1.8409 -0.9366 -0.9434
  186MOL0     H24544   9.467   2.964  10.409 -1.8915 -0.4036 -1.7564
  186MOL0     H24545   9.394   3.130  10.392  0.0952  1.7290  3.5970
  186MOL0     H24546   9.687   3.067  10.317 -0.8286 -2.5021  0.7425
  186MOL0     H24547   9.587   3.211  10.285 -1.0220  0.6918  0.4440
  186MOL0     H24548   9.435   3.062  10.123  0.5692  0.1607 -1.7481
  186MOL0     H24549   9.591   3.122  10.078  0.0289  0.2865  0.3236
  186MOL0     H24550   9.698   2.717  10.092  1.1517 -0.1713  0.6727
  186MOL0     H24551   9.282   3.102  10.622 -0.3647 -0.9789 -0.8520
  186MOL0     H24552   9.092   2.991  10.689  2.1113  3.1003 -0.1231
  187MOL0     O24553   6.979   3.734   8.239  0.2987  0.4914  0.2460
  187MOL0     C24554   6.989   3.819   8.149  0.0888  0.1666 -0.3297
  187MOL0     O24555   6.882   3.892   8.091 -0.3314  0.1015  0.6349
  187MOL0     C24556   6.759   3.903   8.146 -0.2703  0.3213 -0.4002
  187MOL0     C24557   6.676   3.781   8.176 -0.0689  0.7973  0.2613
  187MOL0     C24558   6.537   3.785   8.183 -0.0539  0.1937 -0.2165
  187MOL0     C24559   6.476   3.918   8.182 -0.4130  0.1607  0.4558
  187MOL0     O24560   6.343   3.907   8.198  0.3682  0.3683 -0.0629
  187MOL0     C24561   6.256   4.024   8.179 -0.0964  0.1516 -0.0418
  187MOL0     C24562   6.119   3.991   8.231  0.1624  0.2147 -0.4181
  187MOL0     C24563   6.036   3.894   8.142  0.1426 -0.0339  0.7293
  187MOL0     C24564   5.890   3.886   8.181 -0.4070  0.5015 -0.2710
  187MOL0     C24565   5.816   3.772   8.117 -0.8804  0.4279 -0.2482
  187MOL0     C24566   5.668   3.804   8.086  0.5952  0.6315  0.6536
  187MOL0     C24567   5.583   3.678   8.068  0.0953 -0.1890 -0.3591
  187MOL0     C24568   5.442   3.713   8.018 -0.2423 -1.1760  0.7067
  187MOL0     N24569   5.364   3.590   8.011  0.6218  0.4728 -1.2538
  187MOL0     C24570   5.372   3.489   7.916 -1.1558  0.3193 -0.0521
  187MOL0     C24571   5.292   3.394   7.958 -0.3954 -0.4470  0.4348
  187MOL0     C24572   5.265   3.273   7.881 -0.4596  0.8236 -0.0908
  187MOL0     C24573   5.133   3.298   7.798 -0.6816  1.3118  0.4691
  187MOL0     C24574   5.103   3.189   7.697  0.0286  0.2433 -0.4452
  187MOL0     C24575   4.990   3.232   7.601 -0.2095  0.2246 -0.5284
  187MOL0     O24576   4.961   3.133   7.491  0.5719  0.4730  0.1081
  187MOL0     C24577   4.841   3.165   7.423 -0.6785  0.0684  0.1209
  187MOL0     C24578   4.810   3.085   7.314  0.2582 -0.2166  1.4102
  187MOL0     C24579   4.696   3.102   7.245  0.1933  0.1145  0.4558
  187MOL0     C24580   4.616   3.204   7.279  0.6472 -0.5806 -0.5564
  187MOL0     C24581   4.481   3.230   7.212 -0.4347 -0.1585 -0.8764
  187MOL0     O24582   4.471   3.162   7.098 -0.2194 -0.0509 -0.0509
  187MOL0     C24583   4.346   3.136   7.055  0.4498 -0.1378 -0.4984
  187MOL0     C24584   4.339   3.135   6.912 -0.4127  0.8646 -1.3726
  187MOL0     C24585   4.217   3.120   6.850 -0.0410  0.4024  0.2297
  187MOL0     C24586   4.108   3.086   6.923 -0.3846  0.4517  0.6926
  187MOL0     O24587   3.989   3.057   6.877  0.2476  0.2199  0.0649
  187MOL0     C24588   3.942   3.119   6.760  0.3669 -0.0507  0.5005
  187MOL0     C24589   3.794   3.067   6.745 -0.9193 -0.0648 -0.0926
  187MOL0     C24590   3.792   2.917   6.699 -0.4985 -0.3711  0.6404
  187MOL0     C24591   3.654   2.851   6.726 -0.8769 -0.4971  0.5956
  187MOL0     C24592   3.626   2.836   6.873 -0.5490 -1.3104 -0.7479
  187MOL0     C24593   3.473   2.808   6.904  0.2799  0.3594  0.7691
  187MOL0     C24594   3.454   2.785   7.053  0.6067 -0.8382 -0.3857
  187MOL0     C24595   3.309   2.732   7.079  1.3014 -0.4836 -0.1877
  187MOL0    Cl24596   3.194   2.855   7.019  0.4488  0.6379  0.0303
  187MOL0     C24597   4.122   3.066   7.065  0.3201 -0.1401 -0.1916
  187MOL0     C24598   4.240   3.094   7.126  0.2100 -0.8257  0.4470
  187MOL0     O24599   4.411   3.323   7.255 -0.8229  0.3670 -0.4523
  187MOL0     C24600   4.650   3.296   7.384  0.1179 -0.3125 -0.3723
  187MOL0     C24601   4.763   3.277   7.453 -0.2083  0.0438 -0.1711
  187MOL0     N24602   5.243   3.425   8.085 -0.6124  0.7992 -0.1331
  187MOL0     N24603   5.287   3.540   8.118  0.6641  0.7047 -0.0193
  187MOL0     C24604   6.562   4.034   8.179 -0.0964 -0.1666  0.2050
  187MOL0     C24605   6.697   4.026   8.147  0.0057 -0.3814  0.2993
  187MOL0     C24606   7.123   3.858   8.115  0.0458 -0.2419 -0.2787
  187MOL0     C24607   7.145   3.914   7.994 -0.2036 -0.0624  0.6794
  187MOL0     C24608   7.277   3.953   7.954 -0.9500  0.2163 -1.3463
  187MOL0     C24609   7.382   3.949   8.049 -0.1936 -0.0092 -0.1914
  187MOL0     O24610   7.503   3.983   7.998  0.1541  0.5458  0.4764
  187MOL0     C24611   7.621   3.969   8.090 -0.3257  0.2453  0.6967
  187MOL0     C24612   7.742   4.026   8.020 -0.6681  0.3312 -0.1974
  187MOL0     C24613   7.786   3.949   7.900  0.1290 -0.6557  0.8490
  187MOL0     C24614   7.902   4.017   7.823  1.3054  0.1202 -0.1749
  187MOL0     C24615   7.970   3.916   7.747  0.1247 -0.6802  0.1938
  187MOL0     C24616   8.035   3.850   7.669 -0.6178  0.6142  0.7678
  187MOL0     C24617   7.359   3.896   8.172  0.7713  0.5160 -0.2662
  187MOL0     C24618   7.232   3.849   8.209  0.3044  1.1157 -0.9551
  187MOL0     H24619   6.725   3.685   8.160 -3.9438 -1.3408  0.0522
  187MOL0     H24620   6.467   3.702   8.183  1.8355 -1.5021  1.3702
  187MOL0     H24621   6.245   4.046   8.073 -1.5846  2.6998  0.5561
  187MOL0     H24622   6.301   4.106   8.237 -1.1985 -0.3072  1.5316
  187MOL0     H24623   6.060   4.083   8.237  1.1944  0.8134  1.4282
  187MOL0     H24624   6.134   3.954   8.333 -0.7845 -2.9622 -1.3181
  187MOL0     H24625   6.093   3.801   8.134  0.7259  0.4530 -1.4567
  187MOL0     H24626   6.032   3.928   8.038  1.2446  0.5746  0.8660
  187MOL0     H24627   5.889   3.898   8.289  0.2389  1.1396 -0.3308
  187MOL0     H24628   5.832   3.970   8.141  0.3055 -0.5363 -3.8760
  187MOL0     H24629   5.806   3.682   8.179 -0.1357 -1.2802 -2.4921
  187MOL0     H24630   5.864   3.743   8.024 -1.2994  2.1137 -1.0316
  187MOL0     H24631   5.667   3.877   8.004 -0.7284 -0.1888 -0.0858
  187MOL0     H24632   5.636   3.860   8.174  2.0640  1.3619  0.7527
  187MOL0     H24633   5.626   3.610   7.994  0.9931 -1.1413  0.9919
  187MOL0     H24634   5.584   3.616   8.157  2.4680  1.7506  1.1078
  187MOL0     H24635   5.444   3.755   7.917 -1.5385 -0.9296  0.7616
  187MOL0     H24636   5.389   3.779   8.088 -0.3858  1.2765 -1.5650
  187MOL0     H24637   5.427   3.488   7.823 -1.8297 -2.2498 -0.4948
  187MOL0     H24638   5.243   3.180   7.935  1.7316 -0.3038 -1.0087
  187MOL0     H24639   5.350   3.257   7.814  1.1149 -0.0850  2.0038
  187MOL0     H24640   5.149   3.392   7.745  2.4974 -0.5057 -2.1871
  187MOL0     H24641   5.039   3.312   7.853 -2.9198 -4.9606 -0.9322
  187MOL0     H24642   5.186   3.161   7.632 -0.1099 -0.0238 -0.5096
  187MOL0     H24643   5.082   3.094   7.747 -0.8812 -0.3769 -1.9462
  187MOL0     H24644   5.011   3.330   7.558  1.0022 -0.1088 -0.7479
  187MOL0     H24645   4.902   3.235   7.664  0.2885 -0.4910  0.2296
  187MOL0     H24646   4.882   3.012   7.278  0.9010  1.7372 -1.6661
  187MOL0     H24647   4.676   3.045   7.155  1.1685 -0.0618  0.3398
  187MOL0     H24648   4.434   3.143   6.861 -1.9629 -3.1133 -5.5703
  187MOL0     H24649   4.210   3.138   6.743 -1.6165  1.4159  0.4749
  187MOL0     H24650   4.005   3.090   6.675 -0.2689  4.0426 -1.6656
  187MOL0     H24651   3.939   3.228   6.772 -1.4529 -0.0900  0.6631
  187MOL0     H24652   3.740   3.132   6.676 -0.0958  1.0326  0.2743
  187MOL0     H24653   3.749   3.077   6.844 -0.4883  3.5773 -0.1315
  187MOL0     H24654   3.869   2.856   6.746  1.0361  0.6675 -0.4159
  187MOL0     H24655   3.823   2.898   6.595 -0.6679  1.2405  0.2706
  187MOL0     H24656   3.582   2.919   6.681  1.2722  0.8652 -1.0140
  187MOL0     H24657   3.646   2.754   6.676 -2.6356 -1.0413  1.8672
  187MOL0     H24658   3.638   2.933   6.923  0.5459 -1.8761  0.1395
  187MOL0     H24659   3.686   2.763   6.928 -2.7178 -1.0130  2.2641
  187MOL0     H24660   3.450   2.716   6.849  3.9763  0.4067 -1.1932
  187MOL0     H24661   3.413   2.891   6.867  0.0372 -0.1288  0.0419
  187MOL0     H24662   3.523   2.716   7.103  0.7073 -0.0521  0.6023
  187MOL0     H24663   3.449   2.877   7.111 -1.4226  1.5568 -4.0198
  187MOL0     H24664   3.297   2.724   7.188  1.5539  0.8397 -0.0423
  187MOL0     H24665   3.297   2.631   7.040  0.8985 -1.2341  1.7292
  187MOL0     H24666   4.035   3.025   7.117 -0.9371 -0.4147 -2.3697
  187MOL0     H24667   4.270   3.073   7.228  2.0599  2.4203  0.6914
  187MOL0     H24668   4.584   3.378   7.410  1.5692  0.3110  1.6373
  187MOL0     H24669   4.788   3.356   7.523  3.2264 -0.0162 -1.1366
  187MOL0     H24670   6.516   4.129   8.204  1.2078  1.1090 -1.9149
  187MOL0     H24671   6.744   4.123   8.134 -1.6128  0.4232  0.1007
  187MOL0     H24672   7.061   3.929   7.927  0.2489 -1.2778 -0.1844
  187MOL0     H24673   7.299   4.003   7.860  0.2143  1.0209 -0.6740
  187MOL0     H24674   7.625   3.867   8.129  2.7617  1.0080  2.7396
  187MOL0     H24675   7.597   4.031   8.178  1.3995  1.6511  0.2418
  187MOL0     H24676   7.728   4.128   7.985 -0.0755  0.6803  0.5494
  187MOL0     H24677   7.820   4.022   8.097  0.6912  0.3880 -1.5385
  187MOL0     H24678   7.699   3.928   7.837  2.7023 -2.0929 -2.5211
  187MOL0     H24679   7.825   3.855   7.941  1.6949 -0.6265 -0.4832
  187MOL0     H24680   7.868   4.098   7.758  0.4388  0.9581  1.2585
  187MOL0     H24681   7.964   4.057   7.903  1.0833 -0.8561  0.5026
  187MOL0     H24682   8.078   3.789   7.592 -1.7082 -0.3981  0.9326
  187MOL0     H24683   7.434   3.902   8.250  0.3466  2.2468  0.0434
  187MOL0     H24684   7.207   3.788   8.296  2.2733 -2.2297 -2.5465
  188MOL0     O24685  10.685   1.233   4.334  0.0798 -0.4485 -0.1899
  188MOL0     C24686  10.632   1.164   4.245  0.1559  0.1240 -0.3041
  188MOL0     O24687  10.693   1.070   4.172  0.3467 -0.3886  0.5286
  188MOL0     C24688  10.825   1.064   4.180 -0.6257 -0.9984  0.0925
  188MOL0     C24689  10.890   1.022   4.301  0.1219 -0.0641  0.3605
  188MOL0     C24690  11.027   1.005   4.302  0.0665  0.0239  0.7203
  188MOL0     C24691  11.105   1.023   4.184  0.0108 -0.3868  0.7834
  188MOL0     O24692  11.238   0.999   4.207 -0.3124  0.5934  0.3171
  188MOL0     C24693  11.326   1.086   4.122  0.3534 -0.5055 -0.2071
  188MOL0     C24694  11.467   1.075   4.179 -0.2920 -0.2985  0.6625
  188MOL0     C24695  11.574   1.128   4.075  0.3770  0.9304  0.0911
  188MOL0     C24696  11.713   1.144   4.148  0.0355  0.2507  0.4574
  188MOL0     C24697  11.822   1.193   4.047 -0.6727  0.0056 -0.0222
  188MOL0     C24698  11.956   1.219   4.126 -0.0342  0.6563  1.1634
  188MOL0     C24699  12.078   1.244   4.038 -0.2447  0.9183 -0.3909
  188MOL0     C24700  12.215   1.227   4.132  0.1741  0.0443 -0.1211
  188MOL0     N24701  12.340   1.229   4.065 -0.2530 -0.3788 -0.3345
  188MOL0     C24702  12.462   1.266   4.114 -0.7251 -0.1157 -0.3394
  188MOL0     C24703  12.556   1.239   4.013 -0.3968  0.2532 -0.3080
  188MOL0     C24704  12.704   1.247   4.050  0.2002  0.1429  0.2002
  188MOL0     C24705  12.747   1.129   4.136  0.3416 -0.8552  0.4127
  188MOL0     C24706  12.895   1.142   4.190 -0.1258 -0.8881  0.0595
  188MOL0     C24707  12.912   1.265   4.279  0.1812  0.5728 -0.5310
  188MOL0     O24708  12.939   1.378   4.205 -0.1794  0.6233 -0.3471
  188MOL0     C24709  13.069   1.386   4.150  0.6879  0.5456  0.5322
  188MOL0     C24710  13.190   1.411   4.223  1.1024  0.6384 -0.2199
  188MOL0     C24711  13.312   1.426   4.159  0.1884 -0.3455  0.1238
  188MOL0     C24712  13.328   1.429   4.017 -0.6550 -0.0545  0.1573
  188MOL0     C24713  13.464   1.437   3.953 -0.0731 -0.2926  0.1330
  188MOL0     O24714  13.581   1.458   4.028 -0.2175 -0.0082 -0.2946
  188MOL0     C24715  13.693   1.492   3.960  0.1203 -0.1705  0.3709
  188MOL0     C24716  13.755   1.611   4.004 -0.2115 -0.3041 -0.0855
  188MOL0     C24717  13.888   1.643   3.964 -0.4319  0.2681 -0.1095
  188MOL0     C24718  13.962   1.570   3.872 -0.2877 -0.7470 -0.4985
  188MOL0     O24719  14.087   1.621   3.828  0.6911  0.6806  0.1070
  188MOL0     C24720  14.137   1.558   3.711 -1.2776 -0.1489 -0.5838
  188MOL0     C24721  14.267   1.637   3.670  0.3962  0.3004 -0.2015
  188MOL0     C24722  14.334   1.599   3.538  0.0846  0.7164  0.2942
  188MOL0     C24723  14.451   1.691   3.505 -0.4517 -0.7870  0.0164
  188MOL0     C24724  14.542   1.623   3.403 -0.1153 -1.1934  0.4745
  188MOL0     C24725  14.688   1.648   3.438 -0.2351 -0.2694  0.5054
  188MOL0     C24726  14.784   1.620   3.323  0.3551  1.2104 -0.8215
  188MOL0     C24727  14.765   1.698   3.194  0.4063  0.4594 -0.1998
  188MOL0    Cl24728  14.742   1.885   3.234  0.1072 -0.1494  0.3268
  188MOL0     C24729  13.899   1.453   3.822  1.2179  0.4027 -0.2180
  188MOL0     C24730  13.762   1.416   3.866  0.2886  0.7429 -0.4696
  188MOL0     O24731  13.471   1.420   3.827  0.5326 -0.0126 -0.4910
  188MOL0     C24732  13.205   1.418   3.947 -0.4295 -0.1844  0.2837
  188MOL0     C24733  13.083   1.382   4.010  0.7616 -0.7052  0.9090
  188MOL0     N24734  12.490   1.199   3.905  0.1009  0.6837 -0.1279
  188MOL0     N24735  12.365   1.193   3.938 -0.7770 -0.1010 -0.1230
  188MOL0     C24736  11.042   1.060   4.065  0.3473 -0.5348  0.0475
  188MOL0     C24737  10.900   1.078   4.068 -0.3450  0.5019  0.2557
  188MOL0     C24738  10.483   1.172   4.222  0.2220  0.1234  0.1890
  188MOL0     C24739  10.407   1.277   4.284  0.1538  0.0706  0.0905
  188MOL0     C24740  10.269   1.287   4.275  0.6810 -0.0435 -0.6480
  188MOL0     C24741  10.196   1.195   4.202 -0.4935 -0.5267 -0.3298
  188MOL0     O24742  10.060   1.199   4.193 -0.1669  0.2244  0.1371
  188MOL0     C24743  10.003   1.334   4.165 -0.2803  0.6230  0.0423
  188MOL0     C24744   9.869   1.288   4.105 -0.6696 -0.6855 -0.9528
  188MOL0     C24745   9.798   1.415   4.046  0.0075  0.1319 -0.1891
  188MOL0     C24746   9.647   1.385   4.027 -0.2580 -0.2122 -0.1108
  188MOL0     C24747   9.632   1.298   3.917  0.5400 -0.6224  0.3402
  188MOL0     C24748   9.614   1.231   3.815  0.1859 -0.8672  1.0193
  188MOL0     C24749  10.268   1.093   4.138  0.0627 -0.2391  0.1400
  188MOL0     C24750  10.409   1.084   4.142 -1.2177 -0.6297  0.1985
  188MOL0     H24751  10.821   1.002   4.382 -0.2173  0.0850  0.1109
  188MOL0     H24752  11.084   0.989   4.393  0.8079  1.5386  0.5507
  188MOL0     H24753  11.287   1.188   4.119  0.2493 -0.4372  1.9749
  188MOL0     H24754  11.333   1.056   4.017  0.9631  0.6843 -0.5277
  188MOL0     H24755  11.493   0.971   4.198  1.4573  0.3819  2.3444
  188MOL0     H24756  11.486   1.125   4.275  2.5412  1.4229 -0.6580
  188MOL0     H24757  11.541   1.223   4.032 -0.1903  0.4152 -0.6439
  188MOL0     H24758  11.588   1.057   3.992 -0.5572  0.2507  0.5025
  188MOL0     H24759  11.694   1.208   4.235 -2.1165 -1.2069  1.1416
  188MOL0     H24760  11.734   1.041   4.177 -2.0182 -0.4449 -0.2856
  188MOL0     H24761  11.800   1.285   3.994 -0.9483  0.1349  0.3129
  188MOL0     H24762  11.847   1.123   3.966  0.8262  0.5795 -0.0871
  188MOL0     H24763  11.977   1.129   4.184 -1.5052 -2.1830 -2.3275
  188MOL0     H24764  11.935   1.303   4.192 -1.6517  0.5597  0.8095
  188MOL0     H24765  12.082   1.163   3.964  1.9153  0.4300  0.1917
  188MOL0     H24766  12.077   1.337   3.980  0.0982 -0.4668 -2.7812
  188MOL0     H24767  12.208   1.130   4.182 -1.5887 -0.8415 -1.9689
  188MOL0     H24768  12.219   1.309   4.204 -0.6211 -0.1436  0.1591
  188MOL0     H24769  12.498   1.293   4.213  0.7324  0.7742 -1.0788
  188MOL0     H24770  12.717   1.334   4.114 -0.4508  0.5992 -0.2716
  188MOL0     H24771  12.763   1.252   3.959 -0.1200 -3.1162 -0.3301
  188MOL0     H24772  12.739   1.040   4.072  0.5045 -0.2649 -0.4505
  188MOL0     H24773  12.674   1.122   4.217 -1.2305 -3.8504 -1.0995
  188MOL0     H24774  12.911   1.058   4.259 -1.4349  0.4223  2.0904
  188MOL0     H24775  12.958   1.134   4.102  0.1223 -1.8953  0.3089
  188MOL0     H24776  12.986   1.239   4.355 -1.4766 -2.0953  0.3064
  188MOL0     H24777  12.825   1.277   4.344  0.9302  0.1330  0.5744
  188MOL0     H24778  13.199   1.410   4.331  0.5843  1.9077 -0.1476
  188MOL0     H24779  13.397   1.431   4.226  1.5049 -0.2184 -1.4933
  188MOL0     H24780  13.709   1.676   4.077 -0.2710 -0.7890  0.3178
  188MOL0     H24781  13.935   1.734   3.999  3.4134 -1.4985 -0.1931
  188MOL0     H24782  14.071   1.554   3.624 -0.4316 -2.0216 -1.1980
  188MOL0     H24783  14.163   1.454   3.734  0.2377  0.4069  0.3630
  188MOL0     H24784  14.331   1.623   3.758  0.8844 -1.0536 -0.7477
  188MOL0     H24785  14.244   1.744   3.672 -1.3168 -0.0506  0.1188
  188MOL0     H24786  14.255   1.615   3.464  0.5286  0.4221 -0.2582
  188MOL0     H24787  14.369   1.496   3.536  0.0751  0.7182 -0.6829
  188MOL0     H24788  14.436   1.786   3.453  0.4782 -1.4886 -1.6187
  188MOL0     H24789  14.511   1.728   3.588  4.6487 -0.0399 -3.5184
  188MOL0     H24790  14.506   1.670   3.310 -3.2176  0.0976  2.1634
  188MOL0     H24791  14.532   1.516   3.384  2.2514 -1.4778  0.5841
  188MOL0     H24792  14.713   1.586   3.524  3.5467 -0.9143 -0.8922
  188MOL0     H24793  14.706   1.751   3.471 -1.0050 -0.5271  1.7822
  188MOL0     H24794  14.886   1.642   3.355  0.1480  0.0877  0.7845
  188MOL0     H24795  14.775   1.514   3.296  1.5988  0.6215  0.8886
  188MOL0     H24796  14.678   1.666   3.136  0.8517 -0.6220 -0.2918
  188MOL0     H24797  14.848   1.680   3.125  0.5198  2.0838 -0.5305
  188MOL0     H24798  13.947   1.379   3.758 -0.4470 -0.7656 -0.1960
  188MOL0     H24799  13.717   1.320   3.842 -1.8702  1.5660  0.0529
  188MOL0     H24800  13.209   1.438   3.841  1.0431 -1.5642  0.0424
  188MOL0     H24801  12.994   1.368   3.951  0.4837  1.8041  0.6425
  188MOL0     H24802  11.082   1.073   3.965 -2.4928 -0.9880 -1.2636
  188MOL0     H24803  10.857   1.103   3.972  1.0478 -0.0872 -0.5504
  188MOL0     H24804  10.458   1.347   4.349 -0.8299 -0.1339  1.1135
  188MOL0     H24805  10.212   1.366   4.323  0.5532 -0.8155  0.5289
  188MOL0     H24806  10.071   1.398   4.108  0.7162  1.3561  1.9855
  188MOL0     H24807   9.996   1.385   4.261 -0.8944 -0.0706  0.3824
  188MOL0     H24808   9.879   1.217   4.023  5.1008  1.4635 -2.5475
  188MOL0     H24809   9.812   1.244   4.188 -1.4454  2.2726  0.2000
  188MOL0     H24810   9.854   1.432   3.953 -2.5518 -2.0303 -2.2789
  188MOL0     H24811   9.793   1.493   4.122 -3.2198  0.4229 -0.5844
  188MOL0     H24812   9.599   1.345   4.117 -1.2452  0.7627 -0.1802
  188MOL0     H24813   9.592   1.474   3.995  0.2161 -0.8104 -2.8737
  188MOL0     H24814   9.601   1.171   3.728 -0.8063 -0.3455  0.7929
  188MOL0     H24815  10.210   1.013   4.092  2.5149 -1.8562 -0.3175
  188MOL0     H24816  10.453   1.003   4.085 -0.5470  0.1560 -0.4417
  189MOL0     O24817   6.794   9.812   6.735  0.0082 -0.3074 -0.3105
  189MOL0     C24818   6.854   9.920   6.723  0.0614 -0.3275  0.3249
  189MOL0     O24819   6.814  10.032   6.657 -1.0482 -0.0348  0.6491
  189MOL0     C24820   6.685  10.026   6.609  0.2294  0.3267 -0.3317
  189MOL0     C24821   6.576  10.036   6.691  0.3467 -0.4764  0.4765
  189MOL0     C24822   6.445  10.034   6.634 -0.2101  0.5599 -0.0691
  189MOL0     C24823   6.427  10.015   6.493  0.7693 -0.6700  0.9094
  189MOL0     O24824   6.299  10.021   6.442 -0.2091 -0.0995  0.8203
  189MOL0     C24825   6.192   9.942   6.498 -0.2116  0.2719  0.9011
  189MOL0     C24826   6.090  10.027   6.577 -0.7055  0.7678  0.9401
  189MOL0     C24827   6.006  10.119   6.479 -0.3788  0.2915 -0.2104
  189MOL0     C24828   5.933  10.044   6.373  0.2010 -0.1307  0.7758
  189MOL0     C24829   5.870  10.147   6.274  0.1915 -0.0856  0.4090
  189MOL0     C24830   5.783  10.258   6.325 -0.1848 -0.0045  0.1477
  189MOL0     C24831   5.669  10.217   6.418  0.0662 -0.2219  0.1204
  189MOL0     C24832   5.583  10.105   6.346 -0.9594  1.0221 -0.8296
  189MOL0     N24833   5.462  10.086   6.417 -0.3040  0.0169  0.3223
  189MOL0     C24834   5.425   9.980   6.504 -0.3878 -0.4271  0.2792
  189MOL0     C24835   5.299  10.001   6.541  0.0378 -0.1812 -0.7107
  189MOL0     C24836   5.213   9.928   6.636 -0.3186 -0.2045  0.2536
  189MOL0     C24837   5.099   9.851   6.569  0.5458  0.2884 -0.1987
  189MOL0     C24838   5.015   9.784   6.680 -0.5181 -0.4218  0.4633
  189MOL0     C24839   4.879   9.761   6.624 -0.3884  0.3483  0.0534
  189MOL0     O24840   4.801   9.687   6.719  0.3525 -0.0879 -0.0769
  189MOL0     C24841   4.673   9.659   6.698 -0.5959 -0.2098 -0.7791
  189MOL0     C24842   4.625   9.543   6.745  0.2563 -0.3086  0.5203
  189MOL0     C24843   4.490   9.523   6.753  0.7126 -0.0079 -0.6204
  189MOL0     C24844   4.392   9.602   6.695 -0.0576 -0.9508 -0.4169
  189MOL0     C24845   4.252   9.565   6.693 -0.5569 -0.0747 -1.5712
  189MOL0     O24846   4.168   9.646   6.628  0.3163  0.8670 -0.1319
  189MOL0     C24847   4.032   9.612   6.617  0.7729 -0.3149 -0.6152
  189MOL0     C24848   3.989   9.560   6.492  0.1447 -0.4357  0.3970
  189MOL0     C24849   3.854   9.529   6.480 -0.2198 -0.1971  0.1638
  189MOL0     C24850   3.769   9.548   6.590  0.6858 -0.6275  0.3353
  189MOL0     O24851   3.639   9.505   6.574  0.1876  0.0339 -0.4539
  189MOL0     C24852   3.582   9.435   6.689  0.8802 -0.1934  0.2968
  189MOL0     C24853   3.509   9.314   6.630 -0.3296 -0.7455  0.1670
  189MOL0     C24854   3.608   9.200   6.590  1.0767  0.1209  0.1119
  189MOL0     C24855   3.605   9.170   6.441  0.2936  0.2477  0.0620
  189MOL0     C24856   3.709   9.067   6.393 -0.6222  0.3661  0.0188
  189MOL0     C24857   3.852   9.124   6.362 -0.0692 -0.1912 -0.6989
  189MOL0     C24858   3.907   9.064   6.236  0.8251  0.6588  0.0112
  189MOL0     C24859   4.047   9.121   6.200  0.0253 -1.1281 -0.9307
  189MOL0    Cl24860   4.038   9.295   6.170 -0.2577  0.2414  0.1296
  189MOL0     C24861   3.811   9.619   6.700  1.2242  0.2615  1.2145
  189MOL0     C24862   3.939   9.651   6.714 -0.4338 -0.2358  0.2210
  189MOL0     O24863   4.228   9.474   6.769  0.1025  0.1205  0.1421
  189MOL0     C24864   4.447   9.716   6.637  1.2874 -0.4234 -0.3428
  189MOL0     C24865   4.585   9.745   6.648 -0.0378  0.0757 -1.3522
  189MOL0     N24866   5.264  10.122   6.482 -0.3113 -0.0996  0.1358
  189MOL0     N24867   5.360  10.175   6.416  0.3455  0.4780  0.3110
  189MOL0     C24868   6.540  10.008   6.415  0.1304 -0.4738 -0.1639
  189MOL0     C24869   6.672  10.013   6.470 -0.0367  1.1126  0.4601
  189MOL0     C24870   7.000   9.934   6.760  0.2523  0.7194  0.0230
  189MOL0     C24871   7.076   9.820   6.776 -0.0613 -0.8663  0.2461
  189MOL0     C24872   7.215   9.824   6.793  0.0819 -0.4268 -0.5073
  189MOL0     C24873   7.285   9.943   6.793  0.2665  0.3449  0.3454
  189MOL0     O24874   7.427   9.938   6.810 -0.0025 -0.2135  0.0594
  189MOL0     C24875   7.491  10.066   6.832 -0.7679 -0.6220 -0.3938
  189MOL0     C24876   7.631  10.062   6.895 -0.1400 -0.0482  0.0949
  189MOL0     C24877   7.726  10.022   6.783 -0.2543 -0.6410 -0.4577
  189MOL0     C24878   7.854   9.957   6.851 -0.2436  0.2062  0.2595
  189MOL0     C24879   7.944   9.920   6.749  0.0387 -0.4456 -0.3971
  189MOL0     C24880   8.017   9.870   6.665 -0.2879 -0.8426 -0.3265
  189MOL0     C24881   7.205  10.061   6.767  0.0069  0.7819 -0.0331
  189MOL0     C24882   7.065  10.061   6.759 -0.0847 -0.2383  0.5591
  189MOL0     H24883   6.592  10.060   6.795  0.5833  0.6256  0.1965
  189MOL0     H24884   6.361  10.067   6.694  2.0181 -0.3333  3.8999
  189MOL0     H24885   6.240   9.883   6.577  0.0983 -0.2325  0.3398
  189MOL0     H24886   6.145   9.871   6.431 -3.0638  0.6896  2.3042
  189MOL0     H24887   6.146  10.097   6.638  0.7627  2.1437 -1.7935
  189MOL0     H24888   6.028   9.965   6.643 -0.4911 -2.4871 -1.5967
  189MOL0     H24889   6.084  10.183   6.436  2.7619 -3.3161 -0.3985
  189MOL0     H24890   5.937  10.179   6.539 -0.2230  0.7372 -0.4731
  189MOL0     H24891   6.004   9.989   6.311  1.0793 -0.9324  2.4439
  189MOL0     H24892   5.851   9.981   6.408  0.1625  0.5024  1.8612
  189MOL0     H24893   5.810  10.080   6.212  0.0220  1.3416 -1.0246
  189MOL0     H24894   5.955  10.182   6.213  1.4213 -0.4537  1.8470
  189MOL0     H24895   5.748  10.315   6.239  1.6458  0.7690 -0.1281
  189MOL0     H24896   5.851  10.321   6.383  2.5211 -1.1312 -1.5900
  189MOL0     H24897   5.707  10.186   6.515  0.8493  1.8806  0.5318
  189MOL0     H24898   5.603  10.304   6.428  1.6682  1.1064 -0.2122
  189MOL0     H24899   5.647  10.018   6.329  0.4901  1.9584 -0.3607
  189MOL0     H24900   5.554  10.147   6.249 -1.5844 -2.8368 -2.4862
  189MOL0     H24901   5.494   9.905   6.539  0.9461  0.9943  0.8178
  189MOL0     H24902   5.173  10.001   6.706  2.5201  0.5789  1.1950
  189MOL0     H24903   5.262   9.848   6.692 -2.9821 -1.2301  1.2726
  189MOL0     H24904   5.129   9.779   6.492 -4.3296 -0.3158 -1.9107
  189MOL0     H24905   5.035   9.923   6.517  0.2579  1.5678  1.8322
  189MOL0     H24906   5.070   9.695   6.712  0.8447  0.0843 -0.3827
  189MOL0     H24907   5.008   9.854   6.763 -0.7278  1.1506 -0.8235
  189MOL0     H24908   4.875   9.704   6.531 -0.1121 -1.0833  0.8813
  189MOL0     H24909   4.828   9.858   6.624 -1.7877 -0.3202  1.8371
  189MOL0     H24910   4.690   9.466   6.787  1.7537  1.1445  0.9631
  189MOL0     H24911   4.473   9.428   6.804  1.0135  0.7543  0.9281
  189MOL0     H24912   4.065   9.551   6.415  1.1922 -1.3838  1.4973
  189MOL0     H24913   3.817   9.485   6.388 -4.4960 -2.3195  2.5501
  189MOL0     H24914   3.509   9.503   6.735  0.9279  0.0262  0.0490
  189MOL0     H24915   3.647   9.420   6.776 -1.2752 -0.1264  2.0365
  189MOL0     H24916   3.446   9.342   6.545 -2.8728  0.4964  2.3489
  189MOL0     H24917   3.434   9.269   6.696 -0.0934 -1.7038 -0.1955
  189MOL0     H24918   3.570   9.112   6.644  0.0670  0.8262  0.6001
  189MOL0     H24919   3.709   9.220   6.628  1.1137 -1.3561  0.8656
  189MOL0     H24920   3.505   9.132   6.419  1.0763 -1.2745 -1.0715
  189MOL0     H24921   3.619   9.264   6.388  1.1326  1.7700  2.7521
  189MOL0     H24922   3.670   9.021   6.301 -0.9172 -2.0811  1.2862
  189MOL0     H24923   3.707   8.986   6.466 -1.9966 -1.5680 -2.0220
  189MOL0     H24924   3.917   9.095   6.445 -0.9495  1.3141  0.5604
  189MOL0     H24925   3.847   9.233   6.352 -1.9598 -0.3683 -2.2418
  189MOL0     H24926   3.915   8.956   6.251  0.8068  0.7386  0.6151
  189MOL0     H24927   3.837   9.082   6.154 -2.3407 -2.1105  1.8366
  189MOL0     H24928   4.074   9.061   6.112  1.3988  0.3704 -1.5970
  189MOL0     H24929   4.112   9.104   6.286 -1.7239  1.4027  1.0322
  189MOL0     H24930   3.745   9.643   6.783  1.3767 -2.4363  2.2581
  189MOL0     H24931   3.975   9.703   6.802  0.6577 -0.1228 -0.2660
  189MOL0     H24932   4.382   9.788   6.587  1.6723 -0.3692 -0.7778
  189MOL0     H24933   4.620   9.841   6.611 -0.0899  0.3277 -0.7551
  189MOL0     H24934   6.527  10.004   6.307  1.0086 -0.9773 -0.2645
  189MOL0     H24935   6.767  10.006   6.419  0.6383  0.4506  1.7524
  189MOL0     H24936   7.032   9.721   6.766 -1.4552 -0.4647  1.9726
  189MOL0     H24937   7.275   9.734   6.800  1.7237  0.7169  1.4032
  189MOL0     H24938   7.435  10.132   6.899  1.2010 -1.0132  1.7522
  189MOL0     H24939   7.503  10.115   6.735 -1.6058 -2.1215 -1.2929
  189MOL0     H24940   7.658  10.157   6.942 -0.1980 -0.1632  0.3630
  189MOL0     H24941   7.631   9.990   6.978  0.4513 -0.8467 -0.5746
  189MOL0     H24942   7.752  10.106   6.717 -0.0038 -0.4953 -0.1783
  189MOL0     H24943   7.682   9.939   6.728  1.3327 -1.7057 -0.1948
  189MOL0     H24944   7.894  10.033   6.920  0.7985 -2.0400  2.2833
  189MOL0     H24945   7.823   9.875   6.917 -0.0808  0.3280  0.4910
  189MOL0     H24946   8.088   9.838   6.592  0.3882 -3.2680  1.3002
  189MOL0     H24947   7.241  10.163   6.768 -1.0655  1.1771 -0.5833
  189MOL0     H24948   7.008  10.154   6.754 -0.6120 -0.3906  2.6463
  190MOL0     O24949   4.874   8.633   5.733 -0.3678  0.0321  0.4521
  190MOL0     C24950   4.770   8.673   5.782  0.2873 -0.2898 -0.1908
  190MOL0     O24951   4.737   8.673   5.916 -0.4393  0.1780 -0.0219
  190MOL0     C24952   4.836   8.627   6.003 -0.0468  0.0384 -0.2056
  190MOL0     C24953   4.804   8.501   6.068 -0.5227  0.1495 -0.4899
  190MOL0     C24954   4.894   8.447   6.150 -0.3756 -0.8134  0.6197
  190MOL0     C24955   5.024   8.495   6.171 -0.4257 -0.0523  0.4143
  190MOL0     O24956   5.102   8.423   6.255  0.1037  0.4465 -0.2160
  190MOL0     C24957   5.226   8.480   6.277 -0.8152 -0.1363 -0.7225
  190MOL0     C24958   5.290   8.391   6.378 -0.7364  0.4078 -0.1790
  190MOL0     C24959   5.441   8.422   6.407 -0.1848 -0.2105 -0.1888
  190MOL0     C24960   5.504   8.313   6.494  0.2645  0.4774  0.0601
  190MOL0     C24961   5.655   8.333   6.500  0.8301 -0.2333 -0.8672
  190MOL0     C24962   5.718   8.267   6.628  0.0263  0.3178  0.1169
  190MOL0     C24963   5.865   8.296   6.636 -0.1224  1.1115  0.5174
  190MOL0     C24964   5.944   8.261   6.498 -0.2601 -0.2447 -0.0276
  190MOL0     N24965   5.913   8.126   6.450 -0.3701  0.0408  0.0031
  190MOL0     C24966   5.928   8.015   6.536 -0.6662 -0.4168 -0.6717
  190MOL0     C24967   5.885   7.911   6.471  0.3188  0.0840  0.3346
  190MOL0     C24968   5.861   7.779   6.543  0.4615 -0.1975  0.2626
  190MOL0     C24969   5.720   7.720   6.499  0.8348 -0.1872  0.0088
  190MOL0     C24970   5.603   7.813   6.555 -0.3405 -0.6859 -0.0402
  190MOL0     C24971   5.476   7.773   6.489  0.1542  0.0688  0.6511
  190MOL0     O24972   5.365   7.844   6.559  0.0361  0.1140 -0.6899
  190MOL0     C24973   5.253   7.872   6.486  0.1699 -0.4842  0.2273
  190MOL0     C24974   5.133   7.829   6.530  0.3263  0.0457  0.6261
  190MOL0     C24975   5.027   7.865   6.455 -0.3274  0.0468 -0.1208
  190MOL0     C24976   5.032   7.953   6.343  0.7973  0.0990  0.0529
  190MOL0     C24977   4.912   7.994   6.284 -0.1178  0.3704 -0.4466
  190MOL0     O24978   4.813   7.907   6.278 -0.8090 -0.2543 -0.8171
  190MOL0     C24979   4.705   7.932   6.193 -0.9618  0.5554  0.5385
  190MOL0     C24980   4.709   7.999   6.061 -0.9644 -0.5288 -0.2542
  190MOL0     C24981   4.596   8.007   5.995  0.5459  0.1401 -0.5644
  190MOL0     C24982   4.478   7.951   6.045 -0.0307 -0.9388 -0.1268
  190MOL0     O24983   4.371   7.980   5.963 -0.1535  0.7194  0.6495
  190MOL0     C24984   4.238   7.968   6.023 -0.1825  0.1810 -0.3809
  190MOL0     C24985   4.137   8.030   5.923  0.3747 -0.2694 -0.3232
  190MOL0     C24986   3.997   8.011   5.982 -0.4528 -0.5599  0.4504
  190MOL0     C24987   3.882   8.058   5.894 -0.4876  0.7957 -0.6035
  190MOL0     C24988   3.911   8.188   5.837  0.4681 -0.4616  0.0510
  190MOL0     C24989   3.792   8.278   5.789  0.1049  1.5279  0.2935
  190MOL0     C24990   3.682   8.318   5.882 -0.1282 -0.6725 -0.3116
  190MOL0     C24991   3.578   8.415   5.810 -0.0751  0.3698 -0.6650
  190MOL0    Cl24992   3.671   8.564   5.785  0.0064 -0.3782  0.2741
  190MOL0     C24993   4.470   7.893   6.166  0.2902 -0.2671 -0.1125
  190MOL0     C24994   4.590   7.885   6.241  0.2605  1.1624  0.7995
  190MOL0     O24995   4.910   8.103   6.230 -0.2509 -0.0745  0.6860
  190MOL0     C24996   5.155   7.996   6.301 -1.4020 -0.0978  0.9849
  190MOL0     C24997   5.271   7.957   6.381 -0.0690 -0.1865  0.3913
  190MOL0     N24998   5.864   7.955   6.334  0.6555  0.2279 -0.1573
  190MOL0     N24999   5.884   8.085   6.325  0.2889  0.1158 -0.7949
  190MOL0     C25000   5.056   8.620   6.115 -0.3992 -0.3887  1.5424
  190MOL0     C25001   4.962   8.684   6.026 -0.3820 -0.3827 -0.3970
  190MOL0     C25002   4.663   8.723   5.683 -1.2686 -1.2983  0.1889
  190MOL0     C25003   4.691   8.736   5.544 -0.3197 -0.5267  0.4404
  190MOL0     C25004   4.589   8.764   5.457 -0.8289  0.1800 -0.0495
  190MOL0     C25005   4.456   8.779   5.502  0.3434  0.7419 -0.2389
  190MOL0     O25006   4.352   8.828   5.432  0.9155  0.1446 -0.0595
  190MOL0     C25007   4.365   8.853   5.292 -0.8308 -0.1744 -0.0541
  190MOL0     C25008   4.247   8.946   5.261 -0.0730 -0.2758  0.6751
  190MOL0     C25009   4.237   8.970   5.116 -0.2238  0.2710  0.1646
  190MOL0     C25010   4.115   9.070   5.085 -1.0627  0.4386 -0.6400
  190MOL0     C25011   4.148   9.198   5.153 -0.4365  0.4864 -0.4671
  190MOL0     C25012   4.171   9.299   5.212 -0.3000  0.1950 -0.5105
  190MOL0     C25013   4.425   8.757   5.634  0.4222  0.6041  0.0451
  190MOL0     C25014   4.536   8.718   5.728 -0.4055 -0.8111  0.0119
  190MOL0     H25015   4.709   8.455   6.041 -0.6798  1.7967 -3.1286
  190MOL0     H25016   4.870   8.357   6.205  1.8247 -1.9185 -0.0793
  190MOL0     H25017   5.225   8.580   6.321 -1.2827 -0.2010 -0.5881
  190MOL0     H25018   5.285   8.486   6.185 -0.5565  1.2453 -0.4924
  190MOL0     H25019   5.281   8.285   6.352  0.1489  0.0790  0.7729
  190MOL0     H25020   5.240   8.394   6.475 -1.6151 -1.7982 -0.4940
  190MOL0     H25021   5.445   8.520   6.457  0.1147 -0.9334  1.2592
  190MOL0     H25022   5.505   8.433   6.319  2.1865  1.4579  1.6116
  190MOL0     H25023   5.470   8.316   6.598  3.4915  0.8230  1.2224
  190MOL0     H25024   5.484   8.209   6.465 -2.3271  0.0887  2.7233
  190MOL0     H25025   5.680   8.439   6.499 -0.3365  0.0492 -1.8442
  190MOL0     H25026   5.688   8.278   6.412  0.4623 -0.4425 -0.8810
  190MOL0     H25027   5.702   8.159   6.635 -0.1807  0.4764  3.2390
  190MOL0     H25028   5.668   8.300   6.720  2.6054 -0.0000  1.7320
  190MOL0     H25029   5.872   8.403   6.656 -2.4506  1.5624 -0.6810
  190MOL0     H25030   5.911   8.243   6.720 -0.6752 -0.2846 -0.0202
  190MOL0     H25031   6.049   8.260   6.526 -0.1592 -0.6118 -0.4213
  190MOL0     H25032   5.924   8.337   6.421  4.7886  0.9449 -0.4698
  190MOL0     H25033   5.966   8.019   6.637 -1.4924  0.8596 -0.3798
  190MOL0     H25034   5.877   7.798   6.649 -1.0282 -0.3150  0.5204
  190MOL0     H25035   5.945   7.721   6.504 -0.5755 -1.2736 -0.4555
  190MOL0     H25036   5.708   7.616   6.532 -0.5120 -1.1493 -3.1715
  190MOL0     H25037   5.706   7.729   6.391  1.6678  3.3271  0.0579
  190MOL0     H25038   5.587   7.809   6.663  2.1557  0.1280  0.4256
  190MOL0     H25039   5.625   7.917   6.527 -1.1063 -0.5503 -0.1805
  190MOL0     H25040   5.474   7.666   6.513 -0.5686  0.8187  4.7546
  190MOL0     H25041   5.486   7.785   6.381  1.5513  1.3858  0.8932
  190MOL0     H25042   5.131   7.781   6.627  0.3540 -0.1477  0.5298
  190MOL0     H25043   4.935   7.820   6.492  0.3546 -1.7899 -0.6014
  190MOL0     H25044   4.802   8.047   6.031 -1.7090 -0.1833 -2.0957
  190MOL0     H25045   4.584   8.057   5.899 -4.3666 -0.5228 -0.5510
  190MOL0     H25046   4.222   8.019   6.119 -0.4435 -1.3148  0.4046
  190MOL0     H25047   4.221   7.861   6.031 -3.4269  0.5016 -1.5191
  190MOL0     H25048   4.145   7.992   5.821 -2.0382 -0.5091 -0.4647
  190MOL0     H25049   4.158   8.137   5.922  0.6172 -0.3111 -2.2045
  190MOL0     H25050   3.986   8.063   6.077  1.5187  1.1207 -0.1713
  190MOL0     H25051   3.988   7.903   5.999  2.6569 -1.0227 -0.2423
  190MOL0     H25052   3.872   7.984   5.814  0.4204  1.4093 -1.3021
  190MOL0     H25053   3.788   8.050   5.950  0.0995  3.4804  0.9212
  190MOL0     H25054   3.970   8.184   5.745 -1.5750 -0.4587 -1.3119
  190MOL0     H25055   3.961   8.242   5.918  0.8574  0.5477 -0.8416
  190MOL0     H25056   3.735   8.223   5.713 -0.7505  2.1392  0.4791
  190MOL0     H25057   3.842   8.369   5.756 -0.6552  1.3771 -1.3821
  190MOL0     H25058   3.638   8.232   5.932 -0.0844  0.9783  2.7881
  190MOL0     H25059   3.720   8.375   5.967  0.7771  0.9363 -1.7164
  190MOL0     H25060   3.495   8.436   5.878 -1.9879 -1.3869 -2.3093
  190MOL0     H25061   3.532   8.378   5.718  3.9351 -1.2389 -2.2668
  190MOL0     H25062   4.374   7.859   6.203 -0.7046  1.7677 -0.6675
  190MOL0     H25063   4.593   7.827   6.333 -1.4704  1.1461  0.8776
  190MOL0     H25064   5.175   8.060   6.216 -0.4775 -1.5387  0.0849
  190MOL0     H25065   5.371   7.996   6.366  0.8465 -2.5564 -0.1163
  190MOL0     H25066   5.144   8.677   6.142 -0.5331 -0.3602  1.9184
  190MOL0     H25067   5.003   8.783   6.010  2.0082 -0.9178  1.7412
  190MOL0     H25068   4.791   8.719   5.506 -0.8957 -2.1976 -0.4510
  190MOL0     H25069   4.628   8.792   5.360  0.7288  0.5685  0.6462
  190MOL0     H25070   4.354   8.756   5.242 -0.8344  0.0090 -0.4113
  190MOL0     H25071   4.457   8.903   5.260 -0.1577 -0.5628  1.1634
  190MOL0     H25072   4.162   8.901   5.314 -0.7186  0.8777  0.6490
  190MOL0     H25073   4.282   9.038   5.309  0.0064  0.9358 -1.5772
  190MOL0     H25074   4.217   8.871   5.074  3.7815 -0.2681 -0.8819
  190MOL0     H25075   4.331   9.011   5.077 -0.3864  0.0940 -0.4269
  190MOL0     H25076   4.108   9.080   4.976  1.1322  0.9805 -0.7811
  190MOL0     H25077   4.015   9.035   5.112 -0.6000 -0.5154 -0.1181
  190MOL0     H25078   4.176   9.390   5.268 -0.0083  0.1161 -0.4101
  190MOL0     H25079   4.321   8.772   5.661 -0.2614 -0.6713 -1.7652
  190MOL0     H25080   4.507   8.691   5.829  0.6698 -4.2692 -0.4647
  191MOL0     O25081   2.220  10.975   0.004  0.0905  0.3881  0.7665
  191MOL0     C25082   2.321  10.994   0.078 -0.0413  0.5829 -0.4003
  191MOL0     O25083   2.321  10.953   0.211  0.4151 -0.4986  0.0519
  191MOL0     C25084   2.215  10.881   0.265 -0.2092  0.0201 -0.1656
  191MOL0     C25085   2.230  10.742   0.294 -0.1865 -0.1723  0.6402
  191MOL0     C25086   2.121  10.666   0.344 -0.7379  0.2592 -0.2586
  191MOL0     C25087   1.990  10.719   0.356 -0.3297  0.3901  0.2745
  191MOL0     O25088   1.884  10.633   0.383 -0.1676  0.1126 -0.0624
  191MOL0     C25089   1.760  10.694   0.439 -0.3639  0.1068 -0.5210
  191MOL0     C25090   1.653  10.596   0.480 -0.1459  0.6363 -0.6159
  191MOL0     C25091   1.525  10.650   0.550 -0.9949 -0.2059 -0.1781
  191MOL0     C25092   1.446  10.531   0.596  0.0086  0.0276 -0.3132
  191MOL0     C25093   1.345  10.577   0.702 -0.3509 -0.2751 -0.3785
  191MOL0     C25094   1.232  10.669   0.661  0.6917  0.2375  0.5875
  191MOL0     C25095   1.126  10.632   0.557 -0.1993 -0.1206 -0.0524
  191MOL0     C25096   1.055  10.502   0.597  0.4550 -0.7600 -0.2895
  191MOL0     N25097   0.949  10.526   0.700  0.0105  0.1089  0.1908
  191MOL0     C25098   0.841  10.606   0.685 -0.7005 -0.4478  0.6594
  191MOL0     C25099   0.786  10.619   0.809  0.2006 -0.0945  0.7488
  191MOL0     C25100   0.667  10.695   0.837  0.7542 -0.4234 -0.7115
  191MOL0     C25101   0.572  10.623   0.939 -0.1082  0.1708 -0.4369
  191MOL0     C25102   0.479  10.719   1.012  0.0233  0.1608 -0.4815
  191MOL0     C25103   0.341  10.711   0.928 -0.1221 -0.3153 -0.0919
  191MOL0     O25104   0.265  10.592   0.948  0.0108  0.6112 -0.7468
  191MOL0     C25105   0.141  10.595   0.891 -0.3783  0.1710  0.3050
  191MOL0     C25106   0.112  10.513   0.777 -0.2066  1.0203  1.4294
  191MOL0     C25107  -0.012  10.503   0.723  0.5877  0.7269 -0.6255
  191MOL0     C25108  -0.110  10.586   0.766  0.1727  0.4257  0.3118
  191MOL0     C25109  -0.249  10.576   0.718  0.1027 -0.7043 -0.9269
  191MOL0     O25110  -0.340  10.651   0.786  0.2562  0.5094 -0.7034
  191MOL0     C25111  -0.473  10.655   0.749  0.3249 -0.4882  0.9024
  191MOL0     C25112  -0.514  10.681   0.622  0.3046 -0.3665 -0.0250
  191MOL0     C25113  -0.651  10.683   0.583 -0.1282  0.2471 -0.2636
  191MOL0     C25114  -0.751  10.654   0.680 -0.2571 -0.2751 -1.0410
  191MOL0     O25115  -0.876  10.644   0.639  0.4629  1.2580  1.0615
  191MOL0     C25116  -0.976  10.632   0.740  0.1950  0.6907  0.7421
  191MOL0     C25117  -1.117  10.645   0.660 -1.0000 -0.8698 -1.0037
  191MOL0     C25118  -1.223  10.669   0.768 -0.3511 -0.3548  0.6644
  191MOL0     C25119  -1.360  10.692   0.696  0.0088 -0.5013 -0.4550
  191MOL0     C25120  -1.404  10.568   0.633  0.2417 -1.4473  0.8860
  191MOL0     C25121  -1.542  10.593   0.564 -0.5722  0.4723 -1.0753
  191MOL0     C25122  -1.652  10.636   0.660 -0.1695  0.9854  0.2554
  191MOL0     C25123  -1.799  10.628   0.606  0.2330  0.2003 -0.3103
  191MOL0    Cl25124  -1.880  10.462   0.647 -0.9024  0.2307  0.0965
  191MOL0     C25125  -0.707  10.641   0.815  1.0853  0.1322 -0.9032
  191MOL0     C25126  -0.572  10.651   0.849  0.3809 -0.8787  0.0462
  191MOL0     O25127  -0.273  10.502   0.628  0.3440 -0.3394 -0.2037
  191MOL0     C25128  -0.084  10.666   0.877 -0.1711 -0.3300  0.1767
  191MOL0     C25129   0.040  10.678   0.941  0.6037  0.2959 -0.5926
  191MOL0     N25130   0.875  10.559   0.903 -0.2851 -0.0103 -0.1382
  191MOL0     N25131   0.971  10.510   0.835  0.6954 -0.1239  0.0120
  191MOL0     C25132   1.976  10.862   0.333  0.1904  1.0466 -0.2184
  191MOL0     C25133   2.083  10.930   0.282  0.1369  0.4467  0.3951
  191MOL0     C25134   2.431  11.064   0.017 -0.1508  0.2230  0.3592
  191MOL0     C25135   2.448  11.084  -0.122 -0.8046  0.0889  0.1510
  191MOL0     C25136   2.556  11.167  -0.165 -0.3003 -0.4783 -0.1585
  191MOL0     C25137   2.648  11.227  -0.074 -0.4292  0.2351  0.4362
  191MOL0     O25138   2.752  11.307  -0.104  0.0285  0.5145 -0.2655
  191MOL0     C25139   2.737  11.397  -0.215  0.2292  0.1468 -0.4793
  191MOL0     C25140   2.865  11.467  -0.252  0.9917 -0.2794  0.0420
  191MOL0     C25141   2.957  11.365  -0.308  0.7348 -0.1810 -0.5841
  191MOL0     C25142   3.063  11.433  -0.391  0.3082  0.5249 -0.1981
  191MOL0     C25143   2.994  11.462  -0.525 -0.3657 -1.0210 -0.3008
  191MOL0     C25144   2.945  11.513  -0.617 -0.0767  0.0762 -1.2614
  191MOL0     C25145   2.633  11.195   0.059 -0.0492  0.7787  0.9567
  191MOL0     C25146   2.526  11.109   0.102 -1.0849 -0.5818  0.1773
  191MOL0     H25147   2.323  10.687   0.281 -0.2583  0.1211 -1.3165
  191MOL0     H25148   2.133  10.562   0.375  3.8253  0.4970 -0.5605
  191MOL0     H25149   1.717  10.755   0.360  2.5125  0.3311 -2.0367
  191MOL0     H25150   1.794  10.742   0.532 -0.2412  0.6016 -0.8213
  191MOL0     H25151   1.694  10.514   0.539 -0.3152  1.0356  0.0682
  191MOL0     H25152   1.615  10.548   0.390  1.4592 -0.8703 -0.5312
  191MOL0     H25153   1.469  10.704   0.473  0.0404 -1.5972 -1.9838
  191MOL0     H25154   1.554  10.726   0.623 -0.4501  1.4828 -2.0491
  191MOL0     H25155   1.395  10.487   0.510  1.4638 -2.0995 -0.1550
  191MOL0     H25156   1.504  10.456   0.650  0.9633  1.6341  0.9799
  191MOL0     H25157   1.397  10.629   0.784 -1.3505  0.8350 -0.4162
  191MOL0     H25158   1.306  10.483   0.743 -0.5028 -0.1615 -0.2578
  191MOL0     H25159   1.279  10.761   0.625 -1.4046  0.8783 -0.7198
  191MOL0     H25160   1.168  10.692   0.747  0.7295  0.0305  0.6710
  191MOL0     H25161   1.057  10.717   0.551 -0.9256 -0.5458  1.4408
  191MOL0     H25162   1.172  10.605   0.462  0.9408  2.8964 -0.4544
  191MOL0     H25163   1.132  10.437   0.641  2.2588  1.5185  0.1004
  191MOL0     H25164   1.021  10.441   0.513  2.4799 -0.2410 -1.5443
  191MOL0     H25165   0.808  10.650   0.592 -2.1710 -2.6297  0.0697
  191MOL0     H25166   0.619  10.716   0.741  0.5333  0.9507 -0.3292
  191MOL0     H25167   0.696  10.793   0.878  2.2392 -0.9639 -0.4143
  191MOL0     H25168   0.626  10.566   1.016  0.0377  0.0597 -0.6186
  191MOL0     H25169   0.515  10.540   0.895 -1.2195 -0.4659  2.0357
  191MOL0     H25170   0.457  10.681   1.112 -0.2718  0.3972 -0.4534
  191MOL0     H25171   0.523  10.819   1.007 -1.5780  0.8509 -3.6266
  191MOL0     H25172   0.367  10.728   0.823 -2.3011  1.1616 -0.4594
  191MOL0     H25173   0.289  10.794   0.978  0.9418 -1.6086  3.4356
  191MOL0     H25174   0.188  10.449   0.733 -1.3215 -2.2840  3.8990
  191MOL0     H25175  -0.035  10.425   0.652 -2.9952  0.0722  1.0393
  191MOL0     H25176  -0.447  10.697   0.538  0.4604  2.2985  0.5269
  191MOL0     H25177  -0.682  10.725   0.488 -3.6157  4.8826  2.4533
  191MOL0     H25178  -0.962  10.719   0.804  1.0428  2.2202 -1.3988
  191MOL0     H25179  -0.976  10.535   0.790 -0.6302  0.1530 -0.2478
  191MOL0     H25180  -1.136  10.550   0.609 -0.2637 -0.5989 -1.8097
  191MOL0     H25181  -1.116  10.724   0.584  1.9495 -0.9295 -1.1294
  191MOL0     H25182  -1.195  10.755   0.828  0.1018  0.3773 -0.5675
  191MOL0     H25183  -1.218  10.593   0.846  0.5598 -0.8288  0.1664
  191MOL0     H25184  -1.420  10.720   0.783  3.0234  0.9754  1.3300
  191MOL0     H25185  -1.356  10.774   0.623 -0.1966 -2.0070 -2.2331
  191MOL0     H25186  -1.415  10.484   0.702 -2.1977 -1.6273  0.3714
  191MOL0     H25187  -1.342  10.538   0.548  1.0669  1.0299  0.5259
  191MOL0     H25188  -1.590  10.504   0.522 -1.2960  2.0830 -3.9086
  191MOL0     H25189  -1.546  10.671   0.487  0.9862  0.0312 -1.6568
  191MOL0     H25190  -1.653  10.565   0.744 -3.4418  1.9054  1.1547
  191MOL0     H25191  -1.621  10.730   0.705  2.5641  0.1882  0.2022
  191MOL0     H25192  -1.803  10.661   0.502  0.3434 -0.2295 -0.4521
  191MOL0     H25193  -1.854  10.706   0.659 -0.2812 -1.9198  2.4879
  191MOL0     H25194  -0.780  10.605   0.888  1.0808  2.1358  0.1343
  191MOL0     H25195  -0.546  10.625   0.951  0.7859 -1.5398 -0.2145
  191MOL0     H25196  -0.165  10.729   0.914 -1.3022 -1.0378 -0.9977
  191MOL0     H25197   0.063  10.735   1.030  2.1740  1.3192 -1.6102
  191MOL0     H25198   1.879  10.910   0.343 -0.0887  1.3950 -3.5397
  191MOL0     H25199   2.072  11.034   0.252  0.8775  1.1237  2.2673
  191MOL0     H25200   2.380  11.044  -0.196  0.3896  1.3762 -1.7432
  191MOL0     H25201   2.568  11.190  -0.270  1.2838 -0.1753  0.0592
  191MOL0     H25202   2.668  11.473  -0.177 -0.4254 -0.6821 -0.0035
  191MOL0     H25203   2.700  11.356  -0.310 -0.5217 -0.6327  0.1378
  191MOL0     H25204   2.837  11.542  -0.327 -1.8027 -1.0247  0.2466
  191MOL0     H25205   2.920  11.516  -0.171  1.9829 -3.1096  1.1755
  191MOL0     H25206   2.895  11.301  -0.373  2.0645 -0.5006 -1.5652
  191MOL0     H25207   2.999  11.295  -0.235 -0.3264 -2.8496 -2.3459
  191MOL0     H25208   3.109  11.520  -0.342  1.1171 -1.8169  3.6297
  191MOL0     H25209   3.140  11.357  -0.404  0.4514  0.7886 -0.9558
  191MOL0     H25210   2.891  11.563  -0.695  0.9387  2.0381 -0.7463
  191MOL0     H25211   2.716  11.227   0.120  2.2504 -0.2537 -1.4467
  191MOL0     H25212   2.513  11.082   0.207 -2.3003 -2.9207 -0.4841
  192MOL0     O25213   5.217   3.440   2.947 -0.7626  0.3648 -0.2217
  192MOL0     C25214   5.219   3.537   3.025  1.5493  0.3607  0.4133
  192MOL0     O25215   5.106   3.603   3.061  0.5358  0.1541 -0.2194
  192MOL0     C25216   4.995   3.567   3.000  0.3223  0.2572  1.3966
  192MOL0     C25217   4.911   3.680   2.962 -0.7713  0.0729  0.8796
  192MOL0     C25218   4.796   3.660   2.890 -0.5193 -0.9433 -0.4372
  192MOL0     C25219   4.746   3.526   2.860  0.4095  0.2916  0.4424
  192MOL0     O25220   4.625   3.519   2.788 -0.0913 -0.7094 -0.6341
  192MOL0     C25221   4.539   3.400   2.790  0.3755 -0.3677 -0.6797
  192MOL0     C25222   4.451   3.417   2.669  0.2483  0.1475  1.0047
  192MOL0     C25223   4.315   3.361   2.684  0.3121  1.5757 -0.7284
  192MOL0     C25224   4.256   3.322   2.551  0.5361 -0.3690 -1.0135
  192MOL0     C25225   4.124   3.261   2.590 -0.1054  0.0612 -0.5728
  192MOL0     C25226   4.028   3.263   2.476  0.2327  0.2953  0.0358
  192MOL0     C25227   3.895   3.214   2.527  0.5954 -0.4930  0.3378
  192MOL0     C25228   3.788   3.216   2.414 -0.2208 -0.1826  1.0604
  192MOL0     N25229   3.650   3.187   2.451 -0.2955  1.5456 -0.0603
  192MOL0     C25230   3.537   3.234   2.396  0.7519  0.6511 -0.6492
  192MOL0     C25231   3.437   3.201   2.479 -0.3349 -0.2040  0.5500
  192MOL0     C25232   3.293   3.234   2.464 -0.2597 -0.7244 -0.0821
  192MOL0     C25233   3.241   3.382   2.436  0.2557  0.3231 -0.3300
  192MOL0     C25234   3.100   3.404   2.474 -0.3170  0.1759  0.6576
  192MOL0     C25235   3.033   3.541   2.437  0.3687 -0.1814 -0.5487
  192MOL0     O25236   2.927   3.574   2.525 -0.7817 -0.8274 -0.3041
  192MOL0     C25237   2.808   3.506   2.508 -0.4171  0.8965 -0.0884
  192MOL0     C25238   2.764   3.424   2.402  0.2489 -0.2913  0.1849
  192MOL0     C25239   2.632   3.375   2.400 -0.2858  0.3595  1.4451
  192MOL0     C25240   2.536   3.424   2.481 -0.1853  0.5553  0.0320
  192MOL0     C25241   2.389   3.399   2.464 -0.2808 -0.1580 -0.2717
  192MOL0     O25242   2.315   3.391   2.576  0.3532  0.0307 -0.4340
  192MOL0     C25243   2.179   3.379   2.555 -0.2923 -1.1398  0.4241
  192MOL0     C25244   2.117   3.262   2.597 -0.2177 -0.0350  0.0993
  192MOL0     C25245   1.984   3.257   2.561  0.0970 -0.2051 -1.0379
  192MOL0     C25246   1.903   3.352   2.517 -0.6225 -0.4519 -0.7303
  192MOL0     O25247   1.774   3.343   2.484 -0.3488  0.0332 -0.4020
  192MOL0     C25248   1.681   3.271   2.566 -0.6121 -0.5554  0.3201
  192MOL0     C25249   1.543   3.310   2.511  0.2563  0.5246 -0.7499
  192MOL0     C25250   1.505   3.453   2.545  0.5857 -0.1285  0.3080
  192MOL0     C25251   1.375   3.493   2.485 -0.6031  0.0952  1.1273
  192MOL0     C25252   1.245   3.464   2.557 -0.3885  0.7295 -0.0030
  192MOL0     C25253   1.119   3.479   2.467  0.1118  0.2974 -0.4826
  192MOL0     C25254   1.002   3.438   2.555  0.2336 -0.4046  0.4452
  192MOL0     C25255   0.873   3.461   2.477 -0.0943 -0.0280 -0.0228
  192MOL0    Cl25256   0.833   3.635   2.467 -0.2132 -0.2594  0.1168
  192MOL0     C25257   1.964   3.479   2.494 -0.1198  0.0162  0.2294
  192MOL0     C25258   2.107   3.489   2.512  0.0059 -0.3421  0.7434
  192MOL0     O25259   2.342   3.387   2.347 -0.9338  0.3465 -0.5719
  192MOL0     C25260   2.576   3.483   2.599  0.2818 -0.0798  0.3771
  192MOL0     C25261   2.714   3.517   2.610  0.5605 -0.0483 -0.7382
  192MOL0     N25262   3.484   3.122   2.577 -0.0878 -0.0329  0.8576
  192MOL0     N25263   3.613   3.121   2.564  0.0119 -0.2401  0.1633
  192MOL0     C25264   4.819   3.420   2.900 -0.0409 -0.0166 -0.1747
  192MOL0     C25265   4.939   3.440   2.972 -0.5717  0.0026 -0.3120
  192MOL0     C25266   5.337   3.555   3.103 -0.0438  0.3047  0.3919
  192MOL0     C25267   5.334   3.641   3.213 -0.5236  0.1915  0.1998
  192MOL0     C25268   5.454   3.674   3.273  0.1862  0.2975 -1.2478
  192MOL0     C25269   5.577   3.618   3.223  0.7746  0.1674 -0.3234
  192MOL0     O25270   5.692   3.633   3.282 -0.3106  0.0515  0.5056
  192MOL0     C25271   5.723   3.758   3.334 -0.0498 -0.8231 -1.1425
  192MOL0     C25272   5.866   3.791   3.357  0.3050  0.2570 -0.8683
  192MOL0     C25273   5.944   3.668   3.428 -0.1797  0.0627 -0.9581
  192MOL0     C25274   6.098   3.690   3.419  1.0220 -0.0023  0.1397
  192MOL0     C25275   6.168   3.565   3.462 -0.1605 -1.0780 -0.1964
  192MOL0     C25276   6.222   3.467   3.515  0.0854  0.3606  0.7786
  192MOL0     C25277   5.575   3.532   3.115 -0.4274  0.0056  0.1109
  192MOL0     C25278   5.451   3.494   3.057  0.8698  0.9309  0.0956
  192MOL0     H25279   4.951   3.779   2.981 -0.9527  0.3146  0.0233
  192MOL0     H25280   4.747   3.753   2.859  1.9566  0.9661  1.0293
  192MOL0     H25281   4.472   3.405   2.877  1.4996  0.9767  0.1552
  192MOL0     H25282   4.589   3.303   2.781  1.3433  0.2019 -1.6765
  192MOL0     H25283   4.496   3.396   2.572 -3.4844  1.4772 -1.2328
  192MOL0     H25284   4.423   3.522   2.654 -0.8514 -0.2154  0.3831
  192MOL0     H25285   4.251   3.426   2.745 -2.4654  0.5018 -2.2923
  192MOL0     H25286   4.325   3.272   2.746 -0.6157  3.0629  1.7427
  192MOL0     H25287   4.216   3.411   2.502 -3.1742 -1.5920 -0.5646
  192MOL0     H25288   4.319   3.255   2.492 -0.0083 -0.5972 -1.3406
  192MOL0     H25289   4.086   3.311   2.679  1.2609  0.3275 -0.1008
  192MOL0     H25290   4.140   3.155   2.613  2.6117  0.5066 -0.0412
  192MOL0     H25291   4.072   3.209   2.393  3.7744 -0.9889  2.4980
  192MOL0     H25292   4.005   3.364   2.441 -1.0166  0.4894  1.2987
  192MOL0     H25293   3.900   3.118   2.579  2.6139  1.0012  3.0961
  192MOL0     H25294   3.855   3.292   2.593 -1.8452 -1.8996  0.6630
  192MOL0     H25295   3.809   3.140   2.338  0.1669  0.5333  0.4380
  192MOL0     H25296   3.792   3.311   2.359 -1.4927 -0.1510  0.9936
  192MOL0     H25297   3.527   3.286   2.301  3.4677  2.7179  0.0729
  192MOL0     H25298   3.262   3.202   2.564  0.3677 -1.3879 -0.0946
  192MOL0     H25299   3.254   3.164   2.390  0.6302  1.6756 -3.0198
  192MOL0     H25300   3.243   3.397   2.327 -1.4757  0.2607 -0.3899
  192MOL0     H25301   3.298   3.459   2.488  1.3440  0.3658 -1.5296
  192MOL0     H25302   3.036   3.321   2.443 -0.8356  1.0443 -0.6294
  192MOL0     H25303   3.110   3.406   2.583  1.8243 -1.3912  0.5636
  192MOL0     H25304   3.007   3.550   2.331 -0.0031  2.0178 -0.3258
  192MOL0     H25305   3.111   3.617   2.452 -0.6825  1.0014 -0.8748
  192MOL0     H25306   2.826   3.409   2.314 -0.9933  1.9101 -1.1502
  192MOL0     H25307   2.610   3.302   2.323  0.5591  0.8963  0.6791
  192MOL0     H25308   2.168   3.178   2.642 -1.3610  0.1983  1.9009
  192MOL0     H25309   1.924   3.169   2.584  1.9034 -1.3097 -0.3178
  192MOL0     H25310   1.695   3.301   2.670 -3.5460 -2.7930  1.5205
  192MOL0     H25311   1.695   3.163   2.561  0.2201 -0.6320  2.7980
  192MOL0     H25312   1.471   3.244   2.561  1.7238 -1.5916 -1.2763
  192MOL0     H25313   1.551   3.299   2.403  1.2138  1.9405 -0.8546
  192MOL0     H25314   1.582   3.523   2.509  0.7774 -0.8213 -0.6821
  192MOL0     H25315   1.496   3.467   2.653 -2.0909  1.4952 -0.0359
  192MOL0     H25316   1.367   3.600   2.466 -2.0602 -0.3503 -1.1162
  192MOL0     H25317   1.374   3.449   2.385  0.7957  0.7719  0.8018
  192MOL0     H25318   1.237   3.531   2.644 -2.2687  0.3693  0.1402
  192MOL0     H25319   1.234   3.364   2.598  0.7075 -0.1317 -1.7110
  192MOL0     H25320   1.126   3.405   2.386  0.1903 -0.4376  0.1766
  192MOL0     H25321   1.103   3.579   2.426 -1.4547  1.5054  2.7979
  192MOL0     H25322   1.011   3.330   2.571 -0.7130 -0.8850 -1.8510
  192MOL0     H25323   1.006   3.488   2.652 -0.9621  0.7604 -0.0749
  192MOL0     H25324   0.791   3.415   2.534  0.6890  0.4509  1.5277
  192MOL0     H25325   0.876   3.431   2.372 -0.3212  1.5108 -0.4923
  192MOL0     H25326   1.906   3.565   2.462  0.3749 -0.7999 -3.3487
  192MOL0     H25327   2.155   3.586   2.504 -0.5182  0.0195  1.7943
  192MOL0     H25328   2.508   3.518   2.677  1.0537  2.2375  0.0857
  192MOL0     H25329   2.739   3.580   2.695  2.3104 -2.2779  0.5310
  192MOL0     H25330   4.796   3.320   2.862  0.5814  0.3842 -1.7007
  192MOL0     H25331   5.002   3.357   3.002  0.1351  1.1367  1.5093
  192MOL0     H25332   5.242   3.691   3.243  0.4160  0.1648  3.5432
  192MOL0     H25333   5.442   3.748   3.351 -4.0684 -0.3156 -1.0912
  192MOL0     H25334   5.667   3.766   3.428 -0.5753  0.1869 -1.5281
  192MOL0     H25335   5.689   3.827   3.256 -1.6613 -1.2047 -0.8155
  192MOL0     H25336   5.920   3.798   3.262  2.0207 -0.5048  0.0023
  192MOL0     H25337   5.877   3.876   3.426 -1.3657  0.7799 -1.2076
  192MOL0     H25338   5.919   3.575   3.375 -0.6771  0.8839 -2.2182
  192MOL0     H25339   5.921   3.663   3.535  0.5963  1.1278 -0.7298
  192MOL0     H25340   6.131   3.712   3.317  4.0442  3.3715  1.6444
  192MOL0     H25341   6.132   3.777   3.475  1.3728  0.3902 -0.6675
  192MOL0     H25342   6.269   3.380   3.558  4.6336  1.0115 -2.2719
  192MOL0     H25343   5.670   3.500   3.074 -0.1843  1.1957 -0.2659
  192MOL0     H25344   5.462   3.427   2.972  1.9954  2.5565 -1.1096
  193MOL0     O25345   0.979   2.724   6.090  0.2182 -0.3886  0.4213
  193MOL0     C25346   0.985   2.665   5.980 -0.8126 -1.1953  0.5065
  193MOL0     O25347   0.877   2.636   5.895  0.2859  0.5474 -0.4625
  193MOL0     C25348   0.749   2.673   5.926  0.0730 -0.0777 -1.0100
  193MOL0     C25349   0.648   2.581   5.874  0.1008 -0.0296 -0.6238
  193MOL0     C25350   0.517   2.606   5.909 -0.5924  0.7565  0.0893
  193MOL0     C25351   0.468   2.711   5.986  0.2574  0.4970  0.1799
  193MOL0     O25352   0.331   2.728   5.996 -0.4060 -0.5825 -0.3271
  193MOL0     C25353   0.285   2.854   6.052 -0.1437 -0.5026  0.0234
  193MOL0     C25354   0.132   2.864   6.023  0.4269 -0.9975  1.0187
  193MOL0     C25355   0.053   2.773   6.114  0.6792  0.3290 -0.3789
  193MOL0     C25356  -0.099   2.781   6.081  0.4427 -0.5389 -1.0522
  193MOL0     C25357  -0.192   2.702   6.171  0.7167  0.3389 -0.4963
  193MOL0     C25358  -0.198   2.760   6.312 -0.8807 -0.4468  0.1511
  193MOL0     C25359  -0.315   2.744   6.400  0.3775 -0.0917 -0.1722
  193MOL0     C25360  -0.352   2.605   6.435 -0.4146  1.5763  0.5161
  193MOL0     N25361  -0.411   2.602   6.569 -0.1791 -0.2743  0.3271
  193MOL0     C25362  -0.537   2.654   6.597 -0.2816 -0.3102  0.1436
  193MOL0     C25363  -0.566   2.631   6.719 -0.0569 -0.2989  0.4292
  193MOL0     C25364  -0.703   2.653   6.784 -0.0085  0.7119 -0.1810
  193MOL0     C25365  -0.762   2.515   6.818 -0.1253 -0.1420  0.7079
  193MOL0     C25366  -0.901   2.534   6.878 -0.4481 -0.5118  0.4176
  193MOL0     C25367  -0.953   2.406   6.940 -0.0969  0.5161  1.0986
  193MOL0     O25368  -0.956   2.312   6.828  0.2410 -0.6995  0.6562
  193MOL0     C25369  -1.067   2.228   6.846  0.2072 -0.8777  0.1140
  193MOL0     C25370  -1.047   2.105   6.899 -0.3252 -0.2439  0.1803
  193MOL0     C25371  -1.155   2.025   6.939  0.9465 -0.0530  0.0545
  193MOL0     C25372  -1.280   2.074   6.926  0.2020 -0.2035  0.4281
  193MOL0     C25373  -1.402   2.002   6.981  0.1673 -0.3115  0.5349
  193MOL0     O25374  -1.523   2.061   6.945 -0.0943  0.2529  0.7941
  193MOL0     C25375  -1.624   2.035   7.030 -0.3343  0.1365  0.0703
  193MOL0     C25376  -1.751   2.012   6.969 -0.2283  1.1260  0.4465
  193MOL0     C25377  -1.862   1.991   7.047  0.3234 -0.1613  0.5956
  193MOL0     C25378  -1.856   2.015   7.184 -0.0534  0.0814  0.1939
  193MOL0     O25379  -1.961   2.003   7.262  0.4233 -0.7631 -0.1668
  193MOL0     C25380  -1.967   1.884   7.344 -0.3486 -0.6066  0.5802
  193MOL0     C25381  -2.107   1.863   7.404 -0.5421  0.2028  0.1470
  193MOL0     C25382  -2.143   1.986   7.486  0.5305 -0.0451 -0.5241
  193MOL0     C25383  -2.277   1.976   7.565 -0.6551  0.6202  0.2039
  193MOL0     C25384  -2.313   2.098   7.650  0.0851 -0.7871 -0.0054
  193MOL0     C25385  -2.451   2.076   7.702  0.5632 -0.4153  0.3001
  193MOL0     C25386  -2.500   2.196   7.797 -0.0239  0.9988  0.0626
  193MOL0     C25387  -2.427   2.193   7.929  0.0563  0.3291 -0.2701
  193MOL0    Cl25388  -2.530   2.270   8.056  0.1738 -0.1815 -0.0489
  193MOL0     C25389  -1.735   2.064   7.246 -0.3832  0.7185  0.9503
  193MOL0     C25390  -1.620   2.074   7.168  0.5236 -0.2717 -0.1633
  193MOL0     O25391  -1.384   1.911   7.066 -0.7152 -0.2253  0.1418
  193MOL0     C25392  -1.301   2.197   6.862 -0.2138  0.3732 -0.1379
  193MOL0     C25393  -1.196   2.276   6.830  0.1185  0.1702 -0.5759
  193MOL0     N25394  -0.461   2.547   6.766 -0.1461 -0.3124 -0.0668
  193MOL0     N25395  -0.379   2.521   6.670 -0.1334  1.3608 -0.2175
  193MOL0     C25396   0.562   2.803   6.040  0.1889 -0.2927 -0.5026
  193MOL0     C25397   0.701   2.772   6.012 -0.4778 -0.1352 -0.1845
  193MOL0     C25398   1.120   2.603   5.941 -0.5720  1.0503 -0.1863
  193MOL0     C25399   1.239   2.636   6.024 -0.2252  0.5103  0.5629
  193MOL0     C25400   1.366   2.582   5.985  1.0316 -0.2093  0.2155
  193MOL0     C25401   1.377   2.514   5.864  0.5332  0.5114  1.0365
  193MOL0     O25402   1.490   2.449   5.816  0.0623 -0.7374  0.3152
  193MOL0     C25403   1.610   2.431   5.894  0.0941 -0.0406 -0.1621
  193MOL0     C25404   1.693   2.320   5.803 -0.4857 -0.4715 -0.9525
  193MOL0     C25405   1.831   2.315   5.873 -0.3162  0.1468  0.7013
  193MOL0     C25406   1.937   2.293   5.757 -0.3866  0.0414 -0.5567
  193MOL0     C25407   1.933   2.391   5.656 -0.8464 -1.2795  0.9545
  193MOL0     C25408   1.942   2.456   5.560 -0.3838 -0.3409  0.3961
  193MOL0     C25409   1.267   2.489   5.790  1.3754  0.5282  0.9828
  193MOL0     C25410   1.144   2.536   5.822  0.8688  0.6863  0.4633
  193MOL0     H25411   0.686   2.505   5.806 -2.3060  0.0229 -2.1411
  193MOL0     H25412   0.448   2.540   5.857  1.5144 -1.7723  0.2618
  193MOL0     H25413   0.339   2.933   5.999  0.2114 -1.4888 -1.1236
  193MOL0     H25414   0.306   2.848   6.160 -0.5728 -0.7831  0.0945
  193MOL0     H25415   0.105   2.835   5.921  2.0089 -0.1242  0.3165
  193MOL0     H25416   0.094   2.965   6.038 -0.7343 -1.3725  0.6767
  193MOL0     H25417   0.070   2.817   6.213  1.6471  1.1966 -0.9145
  193MOL0     H25418   0.084   2.669   6.106 -0.7349 -0.0511 -1.2221
  193MOL0     H25419  -0.122   2.888   6.078 -0.4699 -0.7503 -2.7358
  193MOL0     H25420  -0.124   2.742   5.982 -1.5834  0.1638 -0.8548
  193MOL0     H25421  -0.181   2.593   6.173 -1.5516  0.0198  3.0130
  193MOL0     H25422  -0.290   2.719   6.125 -0.3458 -0.6706  1.3197
  193MOL0     H25423  -0.171   2.866   6.312  2.2457 -1.1270  0.3787
  193MOL0     H25424  -0.110   2.722   6.365 -0.4275  0.7976  0.3291
  193MOL0     H25425  -0.288   2.803   6.488  1.1235 -1.3268  0.4634
  193MOL0     H25426  -0.400   2.795   6.354  1.3331  1.3828 -0.3561
  193MOL0     H25427  -0.260   2.549   6.421 -1.1284  0.9619 -2.3932
  193MOL0     H25428  -0.427   2.566   6.366 -0.6159 -0.0320  1.5832
  193MOL0     H25429  -0.603   2.711   6.532  0.3006  0.6944  0.4032
  193MOL0     H25430  -0.762   2.718   6.718  2.1993  2.7478 -0.3258
  193MOL0     H25431  -0.685   2.703   6.880  2.2396 -2.1446  1.0242
  193MOL0     H25432  -0.701   2.448   6.880 -2.2065 -2.9097 -0.0128
  193MOL0     H25433  -0.758   2.459   6.724  3.1355 -1.0481  1.2433
  193MOL0     H25434  -0.888   2.605   6.960  2.1596  1.5958 -1.6433
  193MOL0     H25435  -0.963   2.570   6.796  0.1505 -2.1828 -0.8280
  193MOL0     H25436  -1.050   2.421   6.988  0.2813  2.0195  1.4379
  193MOL0     H25437  -0.886   2.356   7.011  0.5139  0.3557  0.4161
  193MOL0     H25438  -0.949   2.062   6.919 -0.8575 -1.7699 -0.3111
  193MOL0     H25439  -1.129   1.938   6.999  1.3970  1.0484  1.5230
  193MOL0     H25440  -1.763   2.006   6.861  0.6607 -1.0753  0.4068
  193MOL0     H25441  -1.962   1.972   7.010  0.4694  2.4341 -1.4471
  193MOL0     H25442  -1.906   1.898   7.435  1.8045  2.1899 -1.1336
  193MOL0     H25443  -1.921   1.800   7.291 -0.7083  1.2047 -2.8452
  193MOL0     H25444  -2.102   1.776   7.469 -1.9539  0.1309  0.1941
  193MOL0     H25445  -2.170   1.845   7.316  1.1812 -0.7626 -0.9369
  193MOL0     H25446  -2.137   2.075   7.422 -1.5354  1.3791  1.1355
  193MOL0     H25447  -2.065   1.999   7.561  1.0108  0.3682 -1.0855
  193MOL0     H25448  -2.360   1.972   7.494 -0.2597 -0.9666 -0.2244
  193MOL0     H25449  -2.271   1.880   7.618  2.7255  2.5795  3.8994
  193MOL0     H25450  -2.323   2.182   7.580  2.7459 -0.1864  0.2001
  193MOL0     H25451  -2.246   2.124   7.733 -1.5613 -2.9500  2.1164
  193MOL0     H25452  -2.442   1.987   7.766 -0.1632  0.1182  1.1643
  193MOL0     H25453  -2.518   2.053   7.618 -0.3182  1.7783  0.3529
  193MOL0     H25454  -2.480   2.291   7.746  1.3750  0.9316  0.4318
  193MOL0     H25455  -2.608   2.188   7.811 -0.3631  2.6256 -1.3012
  193MOL0     H25456  -2.334   2.248   7.919 -0.1469  1.2119  1.9964
  193MOL0     H25457  -2.402   2.091   7.958  2.2050  0.5664 -1.0953
  193MOL0     H25458  -1.728   2.092   7.351  0.1779 -0.0028  1.1141
  193MOL0     H25459  -1.531   2.128   7.198  1.0287 -1.1996  0.0242
  193MOL0     H25460  -1.399   2.243   6.874 -0.4161  0.2305 -1.1146
  193MOL0     H25461  -1.205   2.383   6.813  1.0531  0.2094 -0.8641
  193MOL0     H25462   0.532   2.873   6.117  1.2524  0.2428 -0.5552
  193MOL0     H25463   0.766   2.836   6.070 -0.8561  2.2455 -2.2308
  193MOL0     H25464   1.231   2.693   6.116  1.2274 -1.1514  1.7833
  193MOL0     H25465   1.455   2.593   6.045  1.9946 -0.4417 -1.1256
  193MOL0     H25466   1.589   2.388   5.993 -0.6248 -1.6670 -0.9743
  193MOL0     H25467   1.668   2.524   5.893 -1.4037  0.9622 -2.8903
  193MOL0     H25468   1.630   2.232   5.816 -5.4354  2.8931  1.0740
  193MOL0     H25469   1.694   2.364   5.703 -3.3197  0.0603 -0.8230
  193MOL0     H25470   1.829   2.233   5.945 -1.6207 -0.0132  0.5106
  193MOL0     H25471   1.855   2.407   5.928  2.0832  0.5813 -0.9544
  193MOL0     H25472   2.033   2.316   5.804 -0.5058  1.4274 -0.9581
  193MOL0     H25473   1.936   2.193   5.712  0.7745  0.1685 -0.9021
  193MOL0     H25474   1.942   2.516   5.471  0.8664 -1.4011 -0.3425
  193MOL0     H25475   1.277   2.454   5.688 -0.9940  1.6927  0.2773
  193MOL0     H25476   1.063   2.524   5.752  0.1631 -1.7051  1.5901
  194MOL0     O25477   9.091   9.274  10.185  0.0515 -0.8214 -0.6427
  194MOL0     C25478   9.133   9.175  10.250  0.1493  0.7300 -0.0395
  194MOL0     O25479   9.080   9.127  10.371 -0.8438  0.1481  0.6634
  194MOL0     C25480   8.965   9.190  10.407  0.4378  0.2389  0.3461
  194MOL0     C25481   8.969   9.285  10.504 -0.9233  0.5314  0.3723
  194MOL0     C25482   8.853   9.358  10.538 -0.7677  0.5031 -0.1127
  194MOL0     C25483   8.727   9.326  10.484 -0.3298 -0.1180  0.5433
  194MOL0     O25484   8.615   9.379  10.531  0.0063 -0.2237  0.2237
  194MOL0     C25485   8.485   9.327  10.487  0.8694 -0.8504 -0.3292
  194MOL0     C25486   8.369   9.400  10.550 -0.3146  0.7458  0.0928
  194MOL0     C25487   8.231   9.345  10.526 -0.1485  0.3773  0.3872
  194MOL0     C25488   8.127   9.446  10.569  1.2584 -0.4359  0.6851
  194MOL0     C25489   7.990   9.384  10.536  0.0956  0.2412 -0.0017
  194MOL0     C25490   7.873   9.474  10.584  0.5094  0.3520 -0.5426
  194MOL0     C25491   7.877   9.618  10.527 -0.6120  0.8809 -0.2936
  194MOL0     C25492   7.765   9.698  10.600 -0.7489 -0.6260  0.4229
  194MOL0     N25493   7.755   9.820  10.526  0.2987 -0.5539 -0.2162
  194MOL0     C25494   7.793   9.945  10.574 -0.4744 -1.1184  0.9468
  194MOL0     C25495   7.750  10.036  10.479 -0.7629  0.3571  0.2957
  194MOL0     C25496   7.729  10.182  10.477 -1.3928  0.4582  0.4036
  194MOL0     C25497   7.623  10.233  10.578  0.2993  0.3829  0.2770
  194MOL0     C25498   7.490  10.192  10.511  1.2013 -0.2815 -0.5369
  194MOL0     C25499   7.380  10.254  10.605  0.6580  0.7107 -0.9055
  194MOL0     O25500   7.255  10.275  10.532 -0.4374  0.0256  0.2126
  194MOL0     C25501   7.161  10.357  10.578 -0.1067  0.0448  0.3816
  194MOL0     C25502   7.162  10.433  10.690 -0.1808 -0.0241 -0.3848
  194MOL0     C25503   7.048  10.493  10.736  0.3896 -1.1261 -0.3429
  194MOL0     C25504   6.925  10.482  10.663  0.4767 -0.2090 -0.3422
  194MOL0     C25505   6.810  10.555  10.722 -1.0535 -0.4732  0.3700
  194MOL0     O25506   6.833  10.642  10.824  0.3329  0.0553 -0.0348
  194MOL0     C25507   6.733  10.697  10.901 -0.7553  1.0011 -0.7916
  194MOL0     C25508   6.683  10.826  10.873 -0.3830  0.0621 -0.0879
  194MOL0     C25509   6.585  10.886  10.952  0.0068  0.5307 -0.5567
  194MOL0     C25510   6.545  10.818  11.065 -0.6425 -0.4679 -0.5772
  194MOL0     O25511   6.446  10.878  11.141  0.0881  0.8312  0.2146
  194MOL0     C25512   6.501  10.932  11.254 -0.0667 -0.0144  0.3149
  194MOL0     C25513   6.406  10.967  11.363 -0.4980 -0.6082  0.1714
  194MOL0     C25514   6.334  10.847  11.412 -0.0970 -0.2484  0.1663
  194MOL0     C25515   6.236  10.782  11.310  0.1452 -0.2559  0.4057
  194MOL0     C25516   6.105  10.722  11.373 -0.1337  0.3816  1.3851
  194MOL0     C25517   6.005  10.808  11.459 -0.0816 -0.0565  0.0057
  194MOL0     C25518   5.985  10.954  11.400  0.0719  0.2389 -0.4556
  194MOL0     C25519   5.889  10.957  11.278  0.0291  0.1169 -0.5496
  194MOL0    Cl25520   5.728  10.936  11.325  0.2501 -0.0999  0.1659
  194MOL0     C25521   6.593  10.690  11.090  0.3168 -0.1486 -0.0927
  194MOL0     C25522   6.681  10.629  11.008 -0.1069 -0.4286  0.2948
  194MOL0     O25523   6.702  10.525  10.680  0.1676 -0.4147  0.0776
  194MOL0     C25524   6.926  10.424  10.538 -0.6205 -0.5890  0.2902
  194MOL0     C25525   7.042  10.356  10.499 -0.4736 -0.1951 -0.2015
  194MOL0     N25526   7.689   9.962  10.371  0.7561 -0.0474  0.0119
  194MOL0     N25527   7.695   9.836  10.410 -0.9298  0.4749 -0.1105
  194MOL0     C25528   8.732   9.231  10.377 -0.2979  0.8165  0.0368
  194MOL0     C25529   8.847   9.156  10.346 -0.6618  0.4977  0.1144
  194MOL0     C25530   9.252   9.097  10.199  1.1519  0.3145  0.6993
  194MOL0     C25531   9.306   8.990  10.279 -0.4900  0.3573 -0.0088
  194MOL0     C25532   9.431   8.929  10.237 -0.2519 -0.0092 -0.8646
  194MOL0     C25533   9.492   8.970  10.119  0.1341  0.1722 -0.2328
  194MOL0     O25534   9.606   8.909  10.074 -0.1958  0.0222  0.9549
  194MOL0     C25535   9.705   8.872  10.162 -0.7026  0.6055 -0.1946
  194MOL0     C25536   9.850   8.877  10.103  0.3811 -0.1907  0.9671
  194MOL0     C25537   9.896   8.997  10.024 -0.0830 -0.1237  0.4047
  194MOL0     C25538  10.046   9.022  10.023  0.2036 -0.0342  0.7231
  194MOL0     C25539  10.105   8.930   9.929  0.3361 -0.4576 -0.2730
  194MOL0     C25540  10.141   8.832   9.859 -0.8672  0.0407 -0.8252
  194MOL0     C25541   9.430   9.065  10.036  0.0090  0.3595 -0.4475
  194MOL0     C25542   9.319   9.136  10.082 -0.6020 -0.3675  0.1411
  194MOL0     H25543   9.063   9.314  10.551  0.6503 -0.4005 -2.0135
  194MOL0     H25544   8.854   9.427  10.621 -2.4506 -0.4627  0.7385
  194MOL0     H25545   8.489   9.224  10.524  2.6577  0.2539  2.9231
  194MOL0     H25546   8.466   9.330  10.379  0.2127  1.4832 -0.1953
  194MOL0     H25547   8.367   9.500  10.506  2.0069  1.3935  1.2708
  194MOL0     H25548   8.379   9.415  10.658 -0.9239 -0.0470  0.2695
  194MOL0     H25549   8.213   9.247  10.572 -2.2481  0.8480  0.6839
  194MOL0     H25550   8.226   9.325  10.419  0.6920 -2.1091  0.7425
  194MOL0     H25551   8.138   9.474  10.674 -2.6827 -0.3113  1.2356
  194MOL0     H25552   8.140   9.537  10.510  0.9435  0.1344  1.4758
  194MOL0     H25553   7.991   9.293  10.597  5.0314 -3.0433 -4.1333
  194MOL0     H25554   7.990   9.350  10.432 -1.4718  0.4665 -0.1017
  194MOL0     H25555   7.887   9.487  10.692 -1.7844  3.1480 -0.4519
  194MOL0     H25556   7.774   9.438  10.556  0.4869 -0.1130  0.1349
  194MOL0     H25557   7.978   9.655  10.544 -0.1177  0.3784 -1.9319
  194MOL0     H25558   7.849   9.621  10.421  1.3373  0.2366 -0.8629
  194MOL0     H25559   7.780   9.713  10.707 -3.5353 -0.5169  0.8589
  194MOL0     H25560   7.672   9.642  10.592 -1.4428  0.5542 -0.0270
  194MOL0     H25561   7.850   9.980  10.659 -1.4266  0.4233  0.9880
  194MOL0     H25562   7.704  10.218  10.377  0.5638  3.3430  0.8247
  194MOL0     H25563   7.825  10.220  10.512 -0.2848 -3.0045  1.5205
  194MOL0     H25564   7.629  10.339  10.604 -1.5101  1.0490 -1.6747
  194MOL0     H25565   7.623  10.180  10.674 -4.2627 -1.8211 -0.6360
  194MOL0     H25566   7.475  10.227  10.408 -3.1902 -2.0723 -0.7150
  194MOL0     H25567   7.483  10.084  10.522 -0.4418 -0.0300  1.2499
  194MOL0     H25568   7.419  10.349  10.643  0.0782  0.9031 -0.7787
  194MOL0     H25569   7.364  10.182  10.686 -2.2455  0.0011 -1.9640
  194MOL0     H25570   7.254  10.439  10.749 -1.5249 -1.1433  1.9816
  194MOL0     H25571   7.045  10.560  10.822 -1.5243 -1.5330 -0.0556
  194MOL0     H25572   6.731  10.887  10.797  0.6226 -0.4958  0.0802
  194MOL0     H25573   6.547  10.987  10.936 -0.1600  0.3695 -1.2076
  194MOL0     H25574   6.556  11.023  11.227  1.3054 -0.1237  2.5720
  194MOL0     H25575   6.578  10.866  11.292 -0.9781 -0.5255  1.3340
  194MOL0     H25576   6.335  11.034  11.314  2.4057 -0.5903 -4.6200
  194MOL0     H25577   6.467  11.016  11.440  2.1380 -1.6651 -1.1240
  194MOL0     H25578   6.274  10.880  11.498  0.5301 -1.6012  1.1591
  194MOL0     H25579   6.411  10.780  11.450  0.4942  0.5727  0.4457
  194MOL0     H25580   6.206  10.860  11.239  1.3477  1.3742  1.6055
  194MOL0     H25581   6.288  10.698  11.264  1.1097  0.1751  0.6789
  194MOL0     H25582   6.145  10.643  11.438 -0.9909  0.4109  1.9601
  194MOL0     H25583   6.053  10.656  11.303  1.8042 -0.5397  0.7398
  194MOL0     H25584   6.052  10.823  11.557  1.1272  0.0460 -0.5771
  194MOL0     H25585   5.902  10.772  11.472  0.0893 -0.2163  1.0541
  194MOL0     H25586   5.939  11.022  11.472  1.7642 -0.4723  1.4072
  194MOL0     H25587   6.076  11.013  11.384  0.2795  0.0292 -0.0763
  194MOL0     H25588   5.920  10.885  11.201  0.4246  0.8503 -1.0928
  194MOL0     H25589   5.893  11.051  11.223  1.9864 -0.3898 -1.3785
  194MOL0     H25590   6.564  10.630  11.176  0.1644  1.2844  0.8809
  194MOL0     H25591   6.716  10.528  11.023 -0.2679 -0.8069 -1.6117
  194MOL0     H25592   6.845  10.415  10.466  0.0531 -1.6663 -0.3729
  194MOL0     H25593   7.041  10.310  10.401  1.6603 -1.7437  0.4138
  194MOL0     H25594   8.637   9.208  10.330  0.7409 -1.5491 -1.0341
  194MOL0     H25595   8.854   9.080  10.269 -1.8684  3.7643 -3.5231
  194MOL0     H25596   9.250   8.950  10.363 -0.0608 -1.8078 -0.6943
  194MOL0     H25597   9.480   8.847  10.289 -0.0775  0.5868 -0.0825
  194MOL0     H25598   9.695   8.773  10.207 -1.5768  1.3865  1.4416
  194MOL0     H25599   9.703   8.943  10.245 -0.3535 -0.0129  0.3520
  194MOL0     H25600   9.920   8.866  10.186 -1.2297 -1.9023  2.1866
  194MOL0     H25601   9.852   8.788  10.039 -0.8411 -0.5282  1.3743
  194MOL0     H25602   9.847   9.083  10.072 -1.5547 -0.7690  0.1372
  194MOL0     H25603   9.857   8.985   9.922  1.6004  1.9225 -0.5488
  194MOL0     H25604  10.064   9.129  10.008 -0.9120  0.1870  0.8466
  194MOL0     H25605  10.091   9.002  10.121 -1.3905 -1.2500  1.2443
  194MOL0     H25606  10.171   8.747   9.802  1.3025  0.1454  0.0836
  194MOL0     H25607   9.469   9.072   9.935  0.6978 -0.5625 -0.2597
  194MOL0     H25608   9.267   9.210  10.022  1.7660  0.1701 -1.4061
  195MOL0     O25609   8.787   4.658   0.645 -0.1760  0.1191  0.7382
  195MOL0     C25610   8.881   4.706   0.714 -0.1381  0.1819 -0.2657
  195MOL0     O25611   8.873   4.822   0.792  0.0421  0.2938  0.5856
  195MOL0     C25612   8.744   4.870   0.799  0.7051  0.0015 -0.6158
  195MOL0     C25613   8.710   4.965   0.714 -0.9412 -0.9504 -0.6377
  195MOL0     C25614   8.604   5.042   0.739 -0.0678 -0.5173  0.3663
  195MOL0     C25615   8.525   5.025   0.863 -0.2696 -0.7733 -0.3107
  195MOL0     O25616   8.424   5.105   0.910 -0.0685  0.1206 -0.2459
  195MOL0     C25617   8.384   5.228   0.847  0.4199 -0.3810  0.1668
  195MOL0     C25618   8.280   5.202   0.737  0.4874  0.3155 -0.5835
  195MOL0     C25619   8.163   5.131   0.810  0.7306  0.7627  0.0643
  195MOL0     C25620   8.038   5.128   0.717  0.0298 -0.5170  0.6160
  195MOL0     C25621   8.047   5.033   0.596  0.0132 -0.2421 -0.9012
  195MOL0     C25622   7.913   4.994   0.527  0.7465  0.4608  0.2668
  195MOL0     C25623   7.826   5.111   0.469  0.6049 -0.5227  0.5627
  195MOL0     C25624   7.690   5.066   0.421  0.6169  0.5457 -1.3356
  195MOL0     N25625   7.680   5.029   0.281  0.0793  0.3178 -0.0484
  195MOL0     C25626   7.598   4.935   0.223 -0.0979  0.4024  0.2537
  195MOL0     C25627   7.615   4.959   0.091  1.2606 -0.6804 -0.5380
  195MOL0     C25628   7.549   4.890  -0.032 -0.6125  0.9205  0.1399
  195MOL0     C25629   7.402   4.935  -0.063 -0.4114 -0.2706  0.0608
  195MOL0     C25630   7.337   4.852  -0.175  0.8910  0.8430 -0.1127
  195MOL0     C25631   7.218   4.928  -0.227  0.8173  0.2317  0.3549
  195MOL0     O25632   7.158   4.836  -0.326  0.0014  0.0582  0.8322
  195MOL0     C25633   7.031   4.857  -0.372 -0.1046 -1.0053 -0.3547
  195MOL0     C25634   6.953   4.968  -0.344  0.0895 -0.0524 -0.5745
  195MOL0     C25635   6.815   4.978  -0.381  0.7187 -0.3621 -1.1453
  195MOL0     C25636   6.764   4.880  -0.461  0.0283  0.2399 -0.1434
  195MOL0     C25637   6.621   4.880  -0.498 -0.0120  0.1030 -1.0804
  195MOL0     O25638   6.576   4.759  -0.545 -0.3466 -0.1886  0.7004
  195MOL0     C25639   6.441   4.747  -0.558 -0.2854 -0.8556 -0.6495
  195MOL0     C25640   6.377   4.634  -0.499  0.1242 -0.6839  0.1912
  195MOL0     C25641   6.240   4.620  -0.509  1.0370 -1.3616  0.3906
  195MOL0     C25642   6.166   4.701  -0.601 -1.6493  0.6580 -0.8096
  195MOL0     O25643   6.033   4.672  -0.607 -0.9802 -0.1220 -0.6283
  195MOL0     C25644   5.994   4.656  -0.740 -0.9992  0.8074 -0.0350
  195MOL0     C25645   5.927   4.517  -0.750  0.3264 -0.4616  0.1870
  195MOL0     C25646   5.805   4.500  -0.660 -1.3100 -0.5110  0.2916
  195MOL0     C25647   5.695   4.416  -0.715  0.7235  0.5643  0.0636
  195MOL0     C25648   5.732   4.271  -0.751  0.1781 -0.2095  0.4796
  195MOL0     C25649   5.771   4.184  -0.632  0.4132 -0.0756 -0.0871
  195MOL0     C25650   5.794   4.047  -0.688  0.1003  0.1103 -0.2365
  195MOL0     C25651   5.666   3.960  -0.717 -0.1919 -0.6309  1.3281
  195MOL0    Cl25652   5.591   3.935  -0.556  0.1561  0.0939 -0.5162
  195MOL0     C25653   6.237   4.802  -0.663  0.0343 -1.0429 -0.4887
  195MOL0     C25654   6.375   4.830  -0.650  0.3591  0.3715 -1.2362
  195MOL0     O25655   6.545   4.970  -0.470  0.6960 -0.4133  0.8354
  195MOL0     C25656   6.841   4.769  -0.495 -0.2370  0.0203  1.6026
  195MOL0     C25657   6.974   4.763  -0.453 -0.8155 -0.1772 -0.3837
  195MOL0     N25658   7.691   5.074   0.067 -0.2239  0.1592 -0.9846
  195MOL0     N25659   7.732   5.108   0.186 -0.0684 -0.8609 -0.0424
  195MOL0     C25660   8.565   4.920   0.948  0.5651 -0.3189 -0.5470
  195MOL0     C25661   8.676   4.847   0.919  0.0256 -0.3324  0.6010
  195MOL0     C25662   9.022   4.647   0.702 -0.3758  1.1309  0.0189
  195MOL0     C25663   9.044   4.541   0.612 -0.4820  0.2848 -0.4702
  195MOL0     C25664   9.171   4.492   0.573 -0.3420 -0.4450  0.0721
  195MOL0     C25665   9.284   4.520   0.656  0.6660 -1.3622 -0.4788
  195MOL0     O25666   9.402   4.458   0.629  0.1018 -0.1326 -0.0796
  195MOL0     C25667   9.501   4.430   0.722 -0.2986  0.2202  1.3139
  195MOL0     C25668   9.467   4.297   0.784  0.2975  0.6536  0.5182
  195MOL0     C25669   9.430   4.190   0.682 -0.2611 -0.0473  0.6941
  195MOL0     C25670   9.382   4.055   0.741 -0.3847  0.0554 -0.8978
  195MOL0     C25671   9.487   4.004   0.817 -1.1028 -1.0175 -0.0446
  195MOL0     C25672   9.589   3.969   0.876  0.6174 -0.7904 -0.2496
  195MOL0     C25673   9.266   4.614   0.758  0.8654  0.7436 -0.4476
  195MOL0     C25674   9.137   4.682   0.773 -0.6837  1.0066 -0.1419
  195MOL0     H25675   8.790   4.982   0.643  1.0417  0.9815  1.8547
  195MOL0     H25676   8.591   5.123   0.667 -0.6003  0.0238  1.0516
  195MOL0     H25677   8.467   5.290   0.812 -1.2695  1.0130 -1.5605
  195MOL0     H25678   8.338   5.280   0.931  0.3031 -2.3489  1.3992
  195MOL0     H25679   8.329   5.139   0.661  1.1047 -0.4400  0.4142
  195MOL0     H25680   8.255   5.298   0.690 -0.8162  1.1325  1.6650
  195MOL0     H25681   8.129   5.194   0.893 -1.2645 -0.8597  0.5706
  195MOL0     H25682   8.186   5.031   0.850  0.6764  0.1479 -1.3955
  195MOL0     H25683   7.944   5.109   0.770 -0.0095 -1.5221  0.2128
  195MOL0     H25684   8.029   5.227   0.673  2.0811 -0.6279 -0.1588
  195MOL0     H25685   8.084   4.936   0.631 -0.3738  0.7417  2.6198
  195MOL0     H25686   8.115   5.079   0.523 -0.7521  3.3700  0.5001
  195MOL0     H25687   7.854   4.943   0.604 -1.5641  1.0711 -0.9983
  195MOL0     H25688   7.929   4.916   0.452 -0.0596 -1.4283  1.9645
  195MOL0     H25689   7.813   5.182   0.551  1.3091  0.9288 -0.5289
  195MOL0     H25690   7.886   5.165   0.396  3.0182  0.3738  3.0293
  195MOL0     H25691   7.620   5.150   0.433  0.1650 -0.0726  1.0284
  195MOL0     H25692   7.637   4.995   0.486 -0.8183  1.0186 -1.9328
  195MOL0     H25693   7.524   4.870   0.268 -0.2066  1.3713  1.5337
  195MOL0     H25694   7.559   4.781  -0.023  2.9278  0.8677 -2.2259
  195MOL0     H25695   7.599   4.915  -0.126 -0.4701  1.8526  0.4581
  195MOL0     H25696   7.391   5.038  -0.098  1.4388  0.0078  0.2405
  195MOL0     H25697   7.330   4.931   0.020 -2.2897  1.4543 -1.3718
  195MOL0     H25698   7.412   4.843  -0.254 -1.4256 -0.2361 -2.3519
  195MOL0     H25699   7.299   4.756  -0.139 -1.6948  1.6096 -0.5423
  195MOL0     H25700   7.255   5.019  -0.275  2.1903 -0.4662  0.0259
  195MOL0     H25701   7.144   4.949  -0.150 -0.4524 -1.3223 -0.3546
  195MOL0     H25702   6.988   5.053  -0.286  1.3147 -0.5894 -0.4999
  195MOL0     H25703   6.747   5.052  -0.339 -1.1031 -2.3030 -0.4981
  195MOL0     H25704   6.441   4.568  -0.442 -0.3643 -1.6661 -0.3635
  195MOL0     H25705   6.182   4.540  -0.464  0.2917  0.0792  2.1281
  195MOL0     H25706   6.077   4.667  -0.810 -0.2077 -1.7789  0.4071
  195MOL0     H25707   5.910   4.724  -0.761 -2.1712 -0.0666  1.5436
  195MOL0     H25708   6.000   4.439  -0.729  1.5990  0.8138  0.6145
  195MOL0     H25709   5.894   4.508  -0.854 -0.6385 -1.9186  0.5860
  195MOL0     H25710   5.765   4.601  -0.645 -1.6411 -0.5652 -0.1796
  195MOL0     H25711   5.832   4.460  -0.562 -1.1268  0.6422  0.7261
  195MOL0     H25712   5.614   4.415  -0.642  1.5753 -2.4673  1.1309
  195MOL0     H25713   5.660   4.451  -0.813  1.1308 -1.5880 -0.9159
  195MOL0     H25714   5.812   4.267  -0.826 -1.6978  0.0907 -1.6570
  195MOL0     H25715   5.642   4.234  -0.801 -0.0050 -1.4942  1.7026
  195MOL0     H25716   5.698   4.189  -0.550 -0.4393 -1.3374 -0.7444
  195MOL0     H25717   5.864   4.222  -0.588  1.2720 -0.5277 -1.4374
  195MOL0     H25718   5.859   4.054  -0.776  0.1489 -0.3736 -0.2412
  195MOL0     H25719   5.851   4.002  -0.606  0.1761  2.6742  1.2257
  195MOL0     H25720   5.695   3.863  -0.757  1.3139 -0.0255  0.8471
  195MOL0     H25721   5.597   3.998  -0.793 -0.1611  0.9793  2.0521
  195MOL0     H25722   6.174   4.872  -0.718  2.2181 -1.0114 -3.1903
  195MOL0     H25723   6.432   4.907  -0.700  1.0278  0.9418  0.3617
  195MOL0     H25724   6.791   4.685  -0.543 -1.6624  1.4009  0.5512
  195MOL0     H25725   7.030   4.671  -0.471 -1.2584 -0.8489  1.4069
  195MOL0     H25726   8.511   4.894   1.039 -1.1414  2.2578 -0.7031
  195MOL0     H25727   8.718   4.780   0.993  2.2284  1.9820  1.6059
  195MOL0     H25728   8.958   4.518   0.550 -0.6517 -1.0178  0.2330
  195MOL0     H25729   9.185   4.422   0.491  1.3588 -1.0439  0.8285
  195MOL0     H25730   9.515   4.504   0.801  2.2127  0.9105  0.3089
  195MOL0     H25731   9.597   4.419   0.671 -0.4926 -2.0865  1.3499
  195MOL0     H25732   9.547   4.276   0.855 -1.3996  0.3238  2.4132
  195MOL0     H25733   9.380   4.306   0.850 -1.5886  1.6922 -1.9210
  195MOL0     H25734   9.527   4.176   0.634  0.2098  3.4214  0.3461
  195MOL0     H25735   9.357   4.227   0.610 -0.1842 -1.1464  0.0352
  195MOL0     H25736   9.289   4.050   0.798 -0.0402 -5.4136 -0.3396
  195MOL0     H25737   9.357   3.988   0.658 -0.0883 -0.6395 -0.4384
  195MOL0     H25738   9.675   3.927   0.925  0.3033 -1.0315  0.1071
  195MOL0     H25739   9.349   4.637   0.824  2.0832  0.1784 -1.7462
  195MOL0     H25740   9.138   4.761   0.847  2.2797  3.2014 -2.2771
  196MOL0     O25741   2.850   1.066   6.620 -0.2391  0.8513  0.3866
  196MOL0     C25742   2.863   1.179   6.649  0.6678 -1.3170  0.2392
  196MOL0     O25743   2.769   1.258   6.711 -0.4870  0.0111  0.0848
  196MOL0     C25744   2.642   1.208   6.731 -0.6383 -0.0279 -0.4967
  196MOL0     C25745   2.568   1.121   6.655  0.5439  0.5314 -0.3898
  196MOL0     C25746   2.432   1.102   6.693  0.4682 -0.3033 -0.0666
  196MOL0     C25747   2.360   1.158   6.799 -0.4628  0.0678  0.5158
  196MOL0     O25748   2.229   1.140   6.822  0.8368 -0.1304  0.3177
  196MOL0     C25749   2.157   1.036   6.752  0.5326 -1.1320  0.2443
  196MOL0     C25750   2.011   1.034   6.788 -0.5493 -0.0379  0.4549
  196MOL0     C25751   1.938   0.926   6.701  0.8805 -0.5013 -0.4592
  196MOL0     C25752   1.777   0.959   6.712  0.1009  0.2776 -0.4874
  196MOL0     C25753   1.711   0.914   6.843  0.5730 -0.4801  0.0194
  196MOL0     C25754   1.583   0.986   6.884  0.4556  0.3003 -1.2082
  196MOL0     C25755   1.510   0.919   6.994 -0.1735 -0.2341 -0.5852
  196MOL0     C25756   1.392   1.010   7.038 -0.1875 -0.2256 -0.7220
  196MOL0     N25757   1.307   0.948   7.141 -0.1243  0.1043 -0.9672
  196MOL0     C25758   1.356   0.892   7.260  0.8023  0.0397  0.1554
  196MOL0     C25759   1.234   0.858   7.324 -0.9997  0.0347  0.1375
  196MOL0     C25760   1.234   0.791   7.454  0.1276 -0.0443 -0.0786
  196MOL0     C25761   1.112   0.808   7.525 -0.1322  0.3807 -0.6686
  196MOL0     C25762   1.074   0.955   7.574 -0.1526  0.0770  0.0958
  196MOL0     C25763   0.979   1.021   7.472 -0.0510  0.8052  1.2934
  196MOL0     O25764   0.889   1.100   7.539  0.0025 -0.4140  0.3900
  196MOL0     C25765   0.774   1.132   7.482  0.6751 -0.0439  0.2393
  196MOL0     C25766   0.736   1.131   7.344 -0.0008 -0.5202  0.1141
  196MOL0     C25767   0.603   1.146   7.297 -0.0216 -1.4032  0.0350
  196MOL0     C25768   0.506   1.178   7.387  0.2540 -0.5120 -0.5929
  196MOL0     C25769   0.363   1.210   7.342 -0.0289  0.1217  0.4430
  196MOL0     O25770   0.332   1.194   7.214 -0.4063  0.1879 -0.0721
  196MOL0     C25771   0.206   1.223   7.176  0.2224 -0.2329  0.6305
  196MOL0     C25772   0.194   1.340   7.094  0.4686  0.1305  0.0584
  196MOL0     C25773   0.071   1.378   7.057  0.5092  0.6976  0.7450
  196MOL0     C25774  -0.045   1.303   7.092 -0.4244  0.3484  0.5035
  196MOL0     O25775  -0.173   1.326   7.051  0.3377 -0.0809  0.5873
  196MOL0     C25776  -0.192   1.448   6.989 -0.4009 -0.2391  0.0082
  196MOL0     C25777  -0.338   1.460   6.983  0.3203  0.3232  0.2063
  196MOL0     C25778  -0.386   1.599   6.927  0.2252  1.0329 -0.2665
  196MOL0     C25779  -0.536   1.605   6.944  0.4513  0.0031  0.1273
  196MOL0     C25780  -0.606   1.741   6.900 -0.7496  0.8625 -0.1829
  196MOL0     C25781  -0.590   1.830   7.024 -1.1306 -1.0398 -0.0293
  196MOL0     C25782  -0.661   1.966   6.995 -0.0324 -0.1498 -0.1928
  196MOL0     C25783  -0.583   2.042   6.887  0.2082 -0.2933 -0.6694
  196MOL0    Cl25784  -0.674   2.040   6.744  0.7536  0.5421  0.2391
  196MOL0     C25785  -0.030   1.190   7.176 -0.2272  0.2217 -0.4760
  196MOL0     C25786   0.098   1.147   7.208 -0.7163 -0.3394 -0.2447
  196MOL0     O25787   0.283   1.250   7.430 -0.3271 -0.2084  0.0342
  196MOL0     C25788   0.546   1.199   7.519 -0.0524  0.6194  0.0970
  196MOL0     C25789   0.674   1.164   7.566  0.5636  0.0630  0.4355
  196MOL0     N25790   1.131   0.858   7.237  0.0358  0.0146 -0.0076
  196MOL0     N25791   1.177   0.916   7.132  0.5042 -0.0997  0.0433
  196MOL0     C25792   2.435   1.233   6.880 -0.5325 -0.3262  0.1269
  196MOL0     C25793   2.576   1.265   6.846 -0.1777  0.6750 -0.9246
  196MOL0     C25794   2.986   1.251   6.627 -0.1392 -0.5350  0.4637
  196MOL0     C25795   3.103   1.172   6.594  0.2224 -0.3360 -0.1600
  196MOL0     C25796   3.228   1.231   6.577 -0.6509  0.1746  0.0523
  196MOL0     C25797   3.244   1.368   6.614 -0.3869 -0.5115  0.9034
  196MOL0     O25798   3.361   1.440   6.609 -0.4441 -0.3517 -0.2099
  196MOL0     C25799   3.485   1.373   6.565  0.2942 -1.2611  0.1277
  196MOL0     C25800   3.544   1.281   6.666  0.6004  0.4884 -0.7414
  196MOL0     C25801   3.699   1.290   6.678 -0.8846  0.7852 -0.1455
  196MOL0     C25802   3.761   1.169   6.746  0.0306  0.1343  0.5017
  196MOL0     C25803   3.735   1.156   6.891  0.1962  1.1993 -0.8660
  196MOL0     C25804   3.707   1.148   7.015  0.4893  1.0607  1.1847
  196MOL0     C25805   3.134   1.446   6.649 -0.5271  0.0636  0.2175
  196MOL0     C25806   3.005   1.391   6.651 -0.3217 -0.7592  0.0899
  196MOL0     H25807   2.605   1.069   6.567  0.3726 -0.0626 -0.1174
  196MOL0     H25808   2.377   1.030   6.633 -1.4149  0.1014  1.0855
  196MOL0     H25809   2.213   0.945   6.775  2.7684  0.3075  0.8158
  196MOL0     H25810   2.158   1.059   6.645 -3.3718  0.6337  0.3834
  196MOL0     H25811   1.976   1.137   6.774 -2.0226 -0.5477  0.2394
  196MOL0     H25812   1.990   1.014   6.894 -0.7487  2.6175  0.9845
  196MOL0     H25813   1.961   0.824   6.732  0.6055 -0.5133 -0.2911
  196MOL0     H25814   1.971   0.944   6.598  0.1627  0.3860 -0.5529
  196MOL0     H25815   1.760   1.067   6.708 -1.0390  0.2835  2.1915
  196MOL0     H25816   1.716   0.911   6.635  1.1383 -0.4948 -0.8527
  196MOL0     H25817   1.791   0.918   6.918  2.3693  0.5579 -1.8499
  196MOL0     H25818   1.678   0.810   6.838 -0.1489 -0.2851  0.6149
  196MOL0     H25819   1.511   0.974   6.803  0.1766  1.6709 -1.1875
  196MOL0     H25820   1.598   1.090   6.914 -0.9039 -0.3386  2.1748
  196MOL0     H25821   1.470   0.819   6.973  0.6908 -0.8708  0.6580
  196MOL0     H25822   1.576   0.899   7.079 -3.6865 -0.1736  2.4242
  196MOL0     H25823   1.338   1.043   6.949  0.9419  1.9248 -0.6714
  196MOL0     H25824   1.439   1.103   7.072 -1.6165  0.9876 -1.8975
  196MOL0     H25825   1.455   0.874   7.301  0.7439  0.8148  0.6576
  196MOL0     H25826   1.318   0.834   7.508  0.9779 -2.4757  0.6073
  196MOL0     H25827   1.264   0.688   7.435 -0.9970 -0.2987 -0.6137
  196MOL0     H25828   1.113   0.744   7.614 -1.9850  0.9727 -0.1755
  196MOL0     H25829   1.027   0.768   7.469 -3.5061  2.6539  2.3531
  196MOL0     H25830   1.019   0.950   7.668  1.9778  2.6011  1.6418
  196MOL0     H25831   1.160   1.016   7.602  1.3853 -1.9094 -0.0348
  196MOL0     H25832   0.923   0.940   7.424  0.8676  1.2152 -0.5999
  196MOL0     H25833   1.029   1.081   7.395 -0.0759  1.6525  1.9288
  196MOL0     H25834   0.808   1.099   7.269 -0.3978  1.1325 -1.0156
  196MOL0     H25835   0.577   1.128   7.193 -0.5396 -1.6701  0.2086
  196MOL0     H25836   0.277   1.405   7.067  0.2803 -0.4907 -2.2376
  196MOL0     H25837   0.062   1.461   6.988 -2.5740  0.6292  0.9627
  196MOL0     H25838  -0.146   1.442   6.889 -0.9664  0.5667 -0.3167
  196MOL0     H25839  -0.151   1.530   7.049  2.0524 -1.2578 -0.1829
  196MOL0     H25840  -0.371   1.442   7.086 -1.6390  2.9815  0.1570
  196MOL0     H25841  -0.381   1.384   6.917 -0.8254 -3.1591  4.4938
  196MOL0     H25842  -0.379   1.603   6.818 -1.7523 -1.2475 -0.5499
  196MOL0     H25843  -0.335   1.681   6.979 -1.9771  0.8308  2.4515
  196MOL0     H25844  -0.575   1.525   6.880 -0.4472 -0.4886  1.2643
  196MOL0     H25845  -0.572   1.580   7.044 -0.2913 -1.7462 -0.5400
  196MOL0     H25846  -0.714   1.726   6.902 -0.3283 -3.2749  1.2998
  196MOL0     H25847  -0.588   1.782   6.801 -3.0157 -0.3794 -1.1938
  196MOL0     H25848  -0.482   1.838   7.037 -1.0211 -0.9603 -0.8981
  196MOL0     H25849  -0.638   1.781   7.109 -2.1564  0.4152  0.2814
  196MOL0     H25850  -0.767   1.957   6.972 -0.5585 -0.3694  2.0498
  196MOL0     H25851  -0.657   2.022   7.089 -0.7593  1.7234 -1.2069
  196MOL0     H25852  -0.484   2.000   6.866  1.3782  0.7813  2.1123
  196MOL0     H25853  -0.565   2.139   6.934 -0.4399 -0.7350  0.5468
  196MOL0     H25854  -0.112   1.123   7.196 -0.9114  0.2932 -2.7423
  196MOL0     H25855   0.119   1.065   7.276  0.9288  0.3814  0.1654
  196MOL0     H25856   0.485   1.234   7.601  1.6894  1.6463  1.0133
  196MOL0     H25857   0.685   1.155   7.674  0.5721  0.3850  0.4619
  196MOL0     H25858   2.388   1.266   6.972 -3.0923 -0.7060 -0.9607
  196MOL0     H25859   2.627   1.330   6.917  0.7163 -0.8881 -0.0684
  196MOL0     H25860   3.088   1.065   6.597  0.1865 -0.3262  2.9831
  196MOL0     H25861   3.308   1.161   6.554 -0.9891 -0.1283 -0.2165
  196MOL0     H25862   3.559   1.450   6.541 -0.7417 -0.2510  0.0796
  196MOL0     H25863   3.461   1.322   6.471  0.4008 -0.0194 -0.5875
  196MOL0     H25864   3.507   1.302   6.766  1.2824  0.3499 -0.4505
  196MOL0     H25865   3.514   1.180   6.638 -0.4757 -0.0121  1.9223
  196MOL0     H25866   3.737   1.364   6.749 -0.3743 -0.2764  0.7261
  196MOL0     H25867   3.735   1.302   6.575 -2.0063 -2.7075 -1.0729
  196MOL0     H25868   3.721   1.081   6.694 -1.2885 -0.2316  2.0275
  196MOL0     H25869   3.869   1.164   6.734  0.2956  1.1893  2.1092
  196MOL0     H25870   3.683   1.136   7.119  0.6633  0.4565  1.1565
  196MOL0     H25871   3.140   1.551   6.674 -2.3852  0.3558 -0.4415
  196MOL0     H25872   2.923   1.461   6.660  1.6691  1.5235  1.5229
  197MOL0     O25873   6.193   1.022   4.507 -0.1063  0.2865  0.0627
  197MOL0     C25874   6.221   0.933   4.585 -0.3511  0.4309 -0.0945
  197MOL0     O25875   6.133   0.846   4.656 -0.2047  0.9839 -0.0375
  197MOL0     C25876   6.007   0.823   4.621 -0.4971 -0.1953 -0.5266
  197MOL0     C25877   5.961   0.841   4.487 -0.4774 -0.4724 -0.2618
  197MOL0     C25878   5.835   0.809   4.452  0.4294 -1.1013  0.5233
  197MOL0     C25879   5.747   0.747   4.547  1.1653  0.3097 -1.1790
  197MOL0     O25880   5.625   0.698   4.520 -0.4199 -0.4869  0.0209
  197MOL0     C25881   5.552   0.736   4.399  0.2308  0.3016  0.1642
  197MOL0     C25882   5.430   0.637   4.380 -0.5173  0.7593 -0.2763
  197MOL0     C25883   5.301   0.709   4.345 -0.3399  0.7817  0.7424
  197MOL0     C25884   5.189   0.615   4.303 -0.2645 -0.5455  0.1461
  197MOL0     C25885   5.203   0.555   4.164 -0.0514  0.3322 -0.6250
  197MOL0     C25886   5.075   0.527   4.093  0.1135  0.4581  0.0206
  197MOL0     C25887   4.979   0.414   4.158  0.7339  0.0085 -0.8718
  197MOL0     C25888   5.025   0.271   4.137 -0.2207  1.4224 -0.1023
  197MOL0     N25889   4.964   0.165   4.213 -0.8799 -0.2776  0.4976
  197MOL0     C25890   4.876   0.073   4.163  0.0612 -0.0316  0.3018
  197MOL0     C25891   4.872  -0.022   4.263 -0.1034 -0.4453 -0.4993
  197MOL0     C25892   4.781  -0.139   4.275  0.9640  0.3341 -0.8772
  197MOL0     C25893   4.651  -0.096   4.348  1.1264 -0.0093 -0.0184
  197MOL0     C25894   4.554  -0.009   4.265 -0.6985 -0.9980  0.3535
  197MOL0     C25895   4.424   0.001   4.335 -0.2096  0.1643 -0.8390
  197MOL0     O25896   4.336  -0.090   4.269 -0.3709  0.5630 -0.1047
  197MOL0     C25897   4.201  -0.077   4.300 -0.0483  0.6274  0.2375
  197MOL0     C25898   4.136   0.015   4.391 -0.1748 -0.5125 -0.0878
  197MOL0     C25899   4.000   0.029   4.413  0.1657  0.1008  1.0961
  197MOL0     C25900   3.910  -0.060   4.348 -0.6968 -0.0461 -0.0051
  197MOL0     C25901   3.762  -0.047   4.377 -0.4517  1.6687  0.5192
  197MOL0     O25902   3.674  -0.156   4.353 -0.4295 -0.2908  0.3075
  197MOL0     C25903   3.539  -0.152   4.391 -0.2582 -0.6248 -1.0162
  197MOL0     C25904   3.480  -0.056   4.483  0.0351 -0.2889  0.3686
  197MOL0     C25905   3.350  -0.076   4.522  0.7795  0.1260 -1.2477
  197MOL0     C25906   3.268  -0.180   4.474 -0.5954 -1.0630 -0.1157
  197MOL0     O25907   3.142  -0.190   4.527  0.5117  0.3798 -0.1892
  197MOL0     C25908   3.046  -0.282   4.455  0.9002  0.2914  0.1824
  197MOL0     C25909   2.913  -0.250   4.513 -0.8369  0.5166  0.8872
  197MOL0     C25910   2.910  -0.250   4.670 -0.0622 -0.4714 -0.4013
  197MOL0     C25911   2.773  -0.234   4.724 -0.2318  0.0284 -0.5376
  197MOL0     C25912   2.771  -0.265   4.872 -0.6614  0.2074 -0.3072
  197MOL0     C25913   2.649  -0.230   4.952  0.3701 -0.7204  0.0648
  197MOL0     C25914   2.523  -0.303   4.915  0.4675 -0.4278  0.2640
  197MOL0     C25915   2.402  -0.212   4.933 -0.4150 -0.5996  0.7010
  197MOL0    Cl25916   2.352  -0.202   5.108 -0.8383  0.2853 -0.0463
  197MOL0     C25917   3.328  -0.264   4.378 -0.9482  0.3027  1.1742
  197MOL0     C25918   3.465  -0.260   4.341 -0.5549 -0.6693 -0.8033
  197MOL0     O25919   3.735   0.065   4.397  0.0632  0.8299 -0.2556
  197MOL0     C25920   3.963  -0.157   4.265  0.2077  0.6222  0.2062
  197MOL0     C25921   4.103  -0.169   4.244 -0.3620  0.6055 -0.4694
  197MOL0     N25922   4.969   0.009   4.360  0.8511 -0.3317  0.3738
  197MOL0     N25923   5.015   0.121   4.330 -0.3396  0.0404 -0.3393
  197MOL0     C25924   5.797   0.733   4.679 -0.3178 -0.2057  0.4610
  197MOL0     C25925   5.919   0.786   4.718  0.7644 -0.0629 -0.1573
  197MOL0     C25926   6.366   0.899   4.604 -0.0398 -0.0362 -0.0597
  197MOL0     C25927   6.462   0.947   4.517  1.0618  0.0193  0.0708
  197MOL0     C25928   6.599   0.916   4.534  0.6262 -0.8558  0.0949
  197MOL0     C25929   6.642   0.854   4.659 -0.0528 -0.4531  0.5137
  197MOL0     O25930   6.773   0.845   4.691  0.1003 -0.4399 -0.1643
  197MOL0     C25931   6.873   0.840   4.591  0.7920  0.6105  0.7127
  197MOL0     C25932   6.882   0.699   4.532 -0.1461 -0.5940  0.6007
  197MOL0     C25933   6.938   0.587   4.624 -0.0963  0.2496 -0.0492
  197MOL0     C25934   6.862   0.554   4.754 -0.4856  0.8156  0.4754
  197MOL0     C25935   6.905   0.432   4.820 -0.3250 -0.2173 -0.7438
  197MOL0     C25936   6.951   0.326   4.864  0.1871 -0.7164  0.1299
  197MOL0     C25937   6.549   0.823   4.751  0.4143 -0.0750  0.3625
  197MOL0     C25938   6.410   0.834   4.723 -0.6817 -0.5568  0.5948
  197MOL0     H25939   6.023   0.888   4.412  0.0345  0.7216  0.8909
  197MOL0     H25940   5.799   0.826   4.351  0.2285  2.3633  1.0769
  197MOL0     H25941   5.616   0.716   4.313  1.6767  1.1037  1.0281
  197MOL0     H25942   5.523   0.841   4.406  0.9951  0.4900  0.6350
  197MOL0     H25943   5.411   0.596   4.479 -1.1127  1.8599  0.0815
  197MOL0     H25944   5.456   0.559   4.307 -1.1067 -3.3630  3.4721
  197MOL0     H25945   5.305   0.792   4.274 -2.0542  0.3926  0.1524
  197MOL0     H25946   5.277   0.750   4.443  3.3984  1.5163  1.5217
  197MOL0     H25947   5.176   0.541   4.382  1.0308  0.7520  1.6618
  197MOL0     H25948   5.104   0.682   4.287  2.7064  3.3046 -1.2697
  197MOL0     H25949   5.251   0.457   4.171 -2.2904 -0.7965 -0.4018
  197MOL0     H25950   5.256   0.624   4.097 -1.9617 -1.3057 -4.0656
  197MOL0     H25951   5.114   0.501   3.994  2.4095  0.1955  0.9392
  197MOL0     H25952   5.019   0.622   4.090  2.0423  1.6266 -1.3206
  197MOL0     H25953   4.984   0.418   4.267  1.3219 -1.0278 -0.8416
  197MOL0     H25954   4.880   0.426   4.114  1.6758  1.6645 -2.6830
  197MOL0     H25955   5.134   0.261   4.136 -0.2181  1.4692 -0.7952
  197MOL0     H25956   4.992   0.257   4.033  0.0425  0.7980 -0.1074
  197MOL0     H25957   4.821   0.073   4.069  3.7221 -1.6785 -2.0977
  197MOL0     H25958   4.834  -0.220   4.327  0.2254  1.0896  1.1315
  197MOL0     H25959   4.754  -0.176   4.175  0.7809  2.6952 -1.7732
  197MOL0     H25960   4.682  -0.052   4.444  0.8736 -2.4350  1.2720
  197MOL0     H25961   4.592  -0.187   4.365 -4.1595  1.8030 -5.4654
  197MOL0     H25962   4.601   0.089   4.258 -0.9927 -0.9935 -3.1231
  197MOL0     H25963   4.543  -0.046   4.163  0.0816  1.5361 -0.7085
  197MOL0     H25964   4.393   0.105   4.323 -0.3352  0.2770  0.3800
  197MOL0     H25965   4.431  -0.015   4.443 -1.5657  5.6615  0.3463
  197MOL0     H25966   4.188   0.074   4.465 -4.0799 -1.1739  3.5745
  197MOL0     H25967   3.975   0.108   4.483 -1.8225  1.8690 -1.3993
  197MOL0     H25968   3.533   0.031   4.520 -2.1020  1.5889 -0.7363
  197MOL0     H25969   3.321  -0.015   4.607  1.3799 -0.6611 -0.4576
  197MOL0     H25970   3.072  -0.387   4.474 -0.6868  0.2060  2.2817
  197MOL0     H25971   3.063  -0.255   4.350  2.2238 -0.1545  0.2641
  197MOL0     H25972   2.838  -0.318   4.471  1.6709 -0.6372 -2.1515
  197MOL0     H25973   2.893  -0.146   4.485 -2.5385  0.5516  2.1048
  197MOL0     H25974   2.965  -0.162   4.705 -0.2503 -0.7574  0.6478
  197MOL0     H25975   2.957  -0.337   4.715 -0.0231 -1.0557 -1.5213
  197MOL0     H25976   2.730  -0.138   4.692 -2.2093 -0.7396 -0.3071
  197MOL0     H25977   2.701  -0.305   4.683 -1.0312  1.2203 -1.2644
  197MOL0     H25978   2.858  -0.214   4.915 -1.0105  1.4010 -0.9581
  197MOL0     H25979   2.792  -0.371   4.883 -0.0504  0.4503  1.0490
  197MOL0     H25980   2.628  -0.123   4.950  2.0781 -0.3229 -3.1067
  197MOL0     H25981   2.665  -0.255   5.058  0.8923 -1.9969 -0.2995
  197MOL0     H25982   2.530  -0.331   4.809  0.6826 -0.1825  0.2131
  197MOL0     H25983   2.512  -0.401   4.962 -0.4385 -2.0607 -3.0434
  197MOL0     H25984   2.318  -0.255   4.877 -0.1741 -0.1830  0.0012
  197MOL0     H25985   2.410  -0.107   4.903 -1.5624  0.0223  2.4204
  197MOL0     H25986   3.270  -0.343   4.331  1.2198  1.5096 -4.3349
  197MOL0     H25987   3.507  -0.340   4.281  1.8913  2.0475 -3.0296
  197MOL0     H25988   3.903  -0.220   4.201 -0.0158  0.6093  0.4275
  197MOL0     H25989   4.142  -0.252   4.186  1.1544  0.4441  0.7179
  197MOL0     H25990   5.732   0.680   4.747  1.7537 -4.0723 -0.3273
  197MOL0     H25991   5.969   0.767   4.813 -0.5308 -1.4415  0.3018
  197MOL0     H25992   6.430   1.008   4.434  1.5385  1.5217  0.9549
  197MOL0     H25993   6.666   0.958   4.461  2.2218 -0.1361  1.8778
  197MOL0     H25994   6.961   0.883   4.639 -1.8039  0.3206  6.4547
  197MOL0     H25995   6.849   0.903   4.505  1.0524  0.5182  0.5712
  197MOL0     H25996   6.784   0.668   4.497  0.6959 -0.0940 -2.4760
  197MOL0     H25997   6.957   0.698   4.452  0.1583  1.0789  0.8366
  197MOL0     H25998   7.042   0.600   4.656 -0.4542 -1.0206  1.8153
  197MOL0     H25999   6.936   0.502   4.555 -1.2754  1.6301 -1.7941
  197MOL0     H26000   6.888   0.639   4.817 -1.1168  1.2751  0.1285
  197MOL0     H26001   6.753   0.562   4.743 -0.7375 -1.9037  0.2921
  197MOL0     H26002   6.975   0.232   4.910  1.5454 -1.7813 -2.5520
  197MOL0     H26003   6.569   0.810   4.857 -1.1980 -1.2127  0.5583
  197MOL0     H26004   6.326   0.809   4.788 -2.4837  2.4606 -0.3325
  198MOL0     O26005   2.191   1.920   8.306  0.0875 -0.3775  0.7244
  198MOL0     C26006   2.295   1.901   8.376  0.4450 -0.2358 -0.2333
  198MOL0     O26007   2.297   1.899   8.517  0.2221 -0.6126 -0.2987
  198MOL0     C26008   2.206   1.958   8.593  0.3921  0.6430  0.0081
  198MOL0     C26009   2.183   1.911   8.719  0.0422  0.4576  0.6919
  198MOL0     C26010   2.095   1.972   8.813  1.1774  0.0422  0.5639
  198MOL0     C26011   2.035   2.096   8.775  0.5700  0.6166 -0.0039
  198MOL0     O26012   1.940   2.149   8.860 -0.0761  0.4736 -0.3082
  198MOL0     C26013   1.821   2.211   8.803  0.5488 -0.2081 -0.2173
  198MOL0     C26014   1.741   2.097   8.744  0.2630  0.6930  0.8160
  198MOL0     C26015   1.613   2.158   8.672 -0.0687 -0.1320 -0.3933
  198MOL0     C26016   1.529   2.046   8.616  0.2542  0.4757 -0.1129
  198MOL0     C26017   1.388   2.093   8.587 -0.7832 -0.3334 -0.1934
  198MOL0     C26018   1.276   1.987   8.567 -0.3431 -0.2942 -0.4916
  198MOL0     C26019   1.148   2.047   8.609  0.1110  0.2482 -0.8216
  198MOL0     C26020   1.019   1.963   8.584 -0.0957  0.3352  0.1695
  198MOL0     N26021   0.907   2.019   8.662  0.0970  0.1629 -0.5912
  198MOL0     C26022   0.874   2.152   8.683  0.3886 -0.0583  0.5547
  198MOL0     C26023   0.790   2.153   8.788 -0.2085 -0.4939  0.3003
  198MOL0     C26024   0.738   2.277   8.854 -0.3257  0.4873 -0.2094
  198MOL0     C26025   0.600   2.248   8.920 -0.4577  0.3230  0.7881
  198MOL0     C26026   0.496   2.203   8.813 -0.1244  0.1325  0.3288
  198MOL0     C26027   0.359   2.238   8.863  0.4265  0.1937  0.1053
  198MOL0     O26028   0.355   2.378   8.883  0.0107  0.2194  0.7892
  198MOL0     C26029   0.255   2.432   8.952 -0.1994 -0.1764 -0.0285
  198MOL0     C26030   0.264   2.570   8.983 -0.6945 -0.3347 -0.4016
  198MOL0     C26031   0.179   2.640   9.063  0.0246 -0.3825  0.7221
  198MOL0     C26032   0.074   2.573   9.124 -0.4097  0.5505  0.8877
  198MOL0     C26033  -0.002   2.660   9.223 -1.1939  0.3876 -0.3799
  198MOL0     O26034  -0.097   2.584   9.277 -0.3770  0.2961  0.7038
  198MOL0     C26035  -0.173   2.633   9.375 -0.3701 -0.0386 -0.2971
  198MOL0     C26036  -0.113   2.686   9.485  0.4472 -0.2094  0.2380
  198MOL0     C26037  -0.184   2.729   9.591  0.2386  0.2239 -0.4487
  198MOL0     C26038  -0.329   2.710   9.594 -0.4778 -0.4131 -0.1775
  198MOL0     O26039  -0.396   2.738   9.712 -0.3302 -0.0215  0.2123
  198MOL0     C26040  -0.530   2.798   9.697  1.0077  0.5002 -0.4301
  198MOL0     C26041  -0.520   2.945   9.644 -0.2816 -0.3723  0.1060
  198MOL0     C26042  -0.653   3.007   9.591  0.0786 -0.0861 -0.4567
  198MOL0     C26043  -0.755   3.025   9.701 -0.5068 -0.0916 -0.0223
  198MOL0     C26044  -0.875   3.098   9.637 -0.2525 -0.2296 -1.5764
  198MOL0     C26045  -0.993   3.123   9.739  0.2544 -0.0388  0.1988
  198MOL0     C26046  -1.095   3.218   9.679  0.5058 -0.6144 -0.1883
  198MOL0     C26047  -1.169   3.142   9.565 -0.2577  0.9888  0.0939
  198MOL0    Cl26048  -1.324   3.220   9.509 -0.0371  0.2094  0.1868
  198MOL0     C26049  -0.381   2.642   9.484  0.0146  0.7868 -0.0686
  198MOL0     C26050  -0.308   2.600   9.371  1.1656 -0.3943  0.6715
  198MOL0     O26051   0.021   2.776   9.245 -0.5292 -0.3058 -0.0188
  198MOL0     C26052   0.048   2.438   9.089  0.3256 -0.6788 -0.3013
  198MOL0     C26053   0.138   2.367   9.003  0.1494  0.0736 -0.1681
  198MOL0     N26054   0.784   2.023   8.835 -0.3932 -0.3885 -1.2660
  198MOL0     N26055   0.840   1.945   8.761  0.2504 -0.0486 -0.0878
  198MOL0     C26056   2.065   2.148   8.649  0.2166 -0.1012  0.0346
  198MOL0     C26057   2.150   2.088   8.560  0.5233 -0.1999  0.2913
  198MOL0     C26058   2.424   1.866   8.309  0.2996  0.9964  1.1134
  198MOL0     C26059   2.438   1.863   8.165 -0.2306 -0.5283  0.0125
  198MOL0     C26060   2.560   1.837   8.104  0.2786 -0.5517  0.1012
  198MOL0     C26061   2.668   1.812   8.181 -0.2131  0.7002  0.0936
  198MOL0     O26062   2.797   1.788   8.132 -0.5175 -0.5657 -0.4913
  198MOL0     C26063   2.827   1.827   7.994  0.2440  0.1270  0.4456
  198MOL0     C26064   2.983   1.801   7.976  0.7605 -0.5259 -0.4102
  198MOL0     C26065   3.068   1.874   8.074 -0.6949  0.3302 -0.2917
  198MOL0     C26066   3.059   2.031   8.052 -0.9455  0.4499 -1.2778
  198MOL0     C26067   3.190   2.106   8.072 -0.2321  1.1057  0.1382
  198MOL0     C26068   3.301   2.147   8.101  0.3264  0.2895 -0.1962
  198MOL0     C26069   2.655   1.790   8.314 -0.2033  0.2349  0.5939
  198MOL0     C26070   2.533   1.823   8.374 -0.0251  0.4595 -0.2061
  198MOL0     H26071   2.241   1.821   8.741 -0.2348  0.2160  0.4403
  198MOL0     H26072   2.070   1.921   8.906 -1.3045  1.9250  1.0210
  198MOL0     H26073   1.844   2.289   8.729  2.0916 -1.6324 -1.3184
  198MOL0     H26074   1.757   2.255   8.879  3.3621  3.0819  0.5056
  198MOL0     H26075   1.712   2.026   8.822 -1.6921 -1.0098 -1.3073
  198MOL0     H26076   1.784   2.036   8.664  1.2886 -1.9139  3.1830
  198MOL0     H26077   1.648   2.218   8.587  3.8867 -0.1774  0.9958
  198MOL0     H26078   1.565   2.213   8.753  0.4078 -1.4401  0.8047
  198MOL0     H26079   1.570   2.001   8.525 -0.9813  1.5320 -1.2290
  198MOL0     H26080   1.528   1.964   8.688  0.7561  1.2122  0.7608
  198MOL0     H26081   1.387   2.155   8.497 -5.7193  2.2862  1.3565
  198MOL0     H26082   1.368   2.155   8.675 -1.9838 -2.1584  0.8788
  198MOL0     H26083   1.298   1.899   8.629 -1.6352  1.7899  3.2307
  198MOL0     H26084   1.280   1.955   8.463 -1.4134  3.7416 -1.9576
  198MOL0     H26085   1.146   2.064   8.717 -1.5771 -0.1624 -0.7715
  198MOL0     H26086   1.141   2.145   8.561  0.6094  0.2876 -0.8212
  198MOL0     H26087   1.047   1.868   8.631 -1.8318 -0.0331  0.5046
  198MOL0     H26088   0.998   1.958   8.476 -0.1640  0.1872  0.1896
  198MOL0     H26089   0.920   2.230   8.623  1.7329 -0.8012  0.5893
  198MOL0     H26090   0.734   2.365   8.790 -1.1615 -0.3396 -1.3547
  198MOL0     H26091   0.801   2.296   8.940 -3.9565 -1.3127  3.1674
  198MOL0     H26092   0.569   2.323   8.993  3.0903 -1.1908  4.2267
  198MOL0     H26093   0.621   2.157   8.977 -2.3271  0.1416  1.2793
  198MOL0     H26094   0.522   2.264   8.726 -0.1997  1.7418  1.3976
  198MOL0     H26095   0.510   2.098   8.784  3.5808  0.3103  0.9790
  198MOL0     H26096   0.318   2.186   8.951 -1.6442  0.2121 -0.7883
  198MOL0     H26097   0.282   2.214   8.789 -0.0628  0.9527  0.3558
  198MOL0     H26098   0.347   2.630   8.947  0.7929 -1.8698  0.3303
  198MOL0     H26099   0.201   2.742   9.092  2.7315 -1.4800  2.9840
  198MOL0     H26100  -0.005   2.691   9.493  0.4405 -1.4991  1.5715
  198MOL0     H26101  -0.127   2.780   9.669  0.9181  2.3527 -2.2357
  198MOL0     H26102  -0.582   2.782   9.792  2.4596 -1.8338  0.0641
  198MOL0     H26103  -0.594   2.751   9.621 -0.5703 -1.2626  1.8656
  198MOL0     H26104  -0.457   2.924   9.557 -1.6575 -0.2357 -0.9639
  198MOL0     H26105  -0.476   3.009   9.721 -2.8200 -0.1372  1.4700
  198MOL0     H26106  -0.686   2.953   9.502  2.2146  0.3357 -1.5638
  198MOL0     H26107  -0.624   3.110   9.567  2.7009 -0.5251  0.5143
  198MOL0     H26108  -0.787   2.926   9.735  0.5855 -0.3146  0.3830
  198MOL0     H26109  -0.723   3.088   9.785 -2.5351  1.3080 -0.2037
  198MOL0     H26110  -0.906   3.046   9.546  1.1135 -2.0765 -1.0529
  198MOL0     H26111  -0.848   3.201   9.612  1.2233 -0.2488 -0.1857
  198MOL0     H26112  -0.963   3.168   9.834 -0.6686 -1.1047  1.0177
  198MOL0     H26113  -1.049   3.035   9.773  0.7650 -0.5130 -0.1780
  198MOL0     H26114  -1.168   3.246   9.755  1.2547  1.9359 -0.3198
  198MOL0     H26115  -1.048   3.308   9.640 -1.8842  0.6345 -0.3392
  198MOL0     H26116  -1.205   3.041   9.587 -0.4885  1.1701  0.5557
  198MOL0     H26117  -1.103   3.140   9.478 -2.9447  2.6591 -2.1346
  198MOL0     H26118  -0.487   2.620   9.497  0.5843 -3.0288 -0.7589
  198MOL0     H26119  -0.342   2.550   9.281 -0.1543  0.2434  0.7913
  198MOL0     H26120  -0.038   2.398   9.143 -0.0916  0.8665  0.2308
  198MOL0     H26121   0.126   2.264   8.971  3.2342 -0.2914 -0.4791
  198MOL0     H26122   2.031   2.245   8.615 -0.9395 -1.0904 -1.8527
  198MOL0     H26123   2.178   2.139   8.469  2.3510  2.0977  2.0231
  198MOL0     H26124   2.344   1.886   8.115  0.6535 -1.2069 -2.0614
  198MOL0     H26125   2.568   1.839   7.996 -0.3320  0.4914  0.0509
  198MOL0     H26126   2.802   1.932   7.978 -1.4443 -0.3253 -0.0841
  198MOL0     H26127   2.767   1.768   7.923 -2.6245  0.5433  2.3738
  198MOL0     H26128   3.001   1.694   7.989 -1.8085 -0.8657  1.0431
  198MOL0     H26129   3.017   1.838   7.878  0.1244 -0.2574 -0.5407
  198MOL0     H26130   3.169   1.831   8.070 -1.6086 -2.2885  1.7075
  198MOL0     H26131   3.038   1.838   8.173  0.5150 -2.9435 -1.0020
  198MOL0     H26132   3.024   2.054   7.950 -2.4284 -1.9042 -1.3667
  198MOL0     H26133   2.984   2.077   8.117  0.0449  0.9407 -0.4568
  198MOL0     H26134   3.403   2.176   8.118  1.3437 -1.6040 -2.4927
  198MOL0     H26135   2.741   1.760   8.374 -0.1703  1.2581  1.0785
  198MOL0     H26136   2.533   1.788   8.477  1.2030 -1.8522 -0.9235
  199MOL0     O26137   8.967   0.179   9.847  0.0816 -0.7656 -0.2392
  199MOL0     C26138   8.999   0.154   9.733 -0.5442  0.2358 -0.0032
  199MOL0     O26139   8.915   0.145   9.626 -0.5945  1.2251  1.2502
  199MOL0     C26140   8.794   0.199   9.646 -0.1411 -0.6070 -0.0876
  199MOL0     C26141   8.761   0.324   9.700  0.6012  0.3774 -0.1043
  199MOL0     C26142   8.636   0.384   9.711 -0.5057 -0.3153 -1.2850
  199MOL0     C26143   8.536   0.311   9.656 -0.5884  0.1298 -0.5580
  199MOL0     O26144   8.406   0.350   9.638 -0.3344  0.5881 -0.4629
  199MOL0     C26145   8.362   0.484   9.668 -0.0268 -0.2655 -0.5160
  199MOL0     C26146   8.221   0.527   9.615 -0.2216 -0.2099  0.4182
  199MOL0     C26147   8.102   0.441   9.659  0.4178  0.4309  0.3219
  199MOL0     C26148   8.064   0.425   9.808  0.2677  0.8892 -0.4182
  199MOL0     C26149   8.062   0.548   9.894 -0.2514  0.2120 -0.2417
  199MOL0     C26150   7.948   0.644   9.856  0.2518  0.6704 -1.3369
  199MOL0     C26151   7.856   0.707   9.976 -0.0749 -0.2216 -0.3129
  199MOL0     C26152   7.714   0.736   9.923  1.1686  0.5183  0.6438
  199MOL0     N26153   7.620   0.807  10.007  0.1238 -0.0798 -0.3599
  199MOL0     C26154   7.481   0.804   9.993  0.0065 -0.9648 -0.0279
  199MOL0     C26155   7.441   0.887  10.087  0.8308 -0.7267 -0.0817
  199MOL0     C26156   7.299   0.933  10.103  0.3706 -0.4880  0.4641
  199MOL0     C26157   7.239   0.902  10.246 -0.5678 -0.2566  0.4052
  199MOL0     C26158   7.211   0.745  10.250  0.1495 -0.3442 -0.1070
  199MOL0     C26159   7.139   0.705  10.381  0.3380  0.1087 -0.4764
  199MOL0     O26160   7.025   0.784  10.393 -0.0799  0.4690 -0.3990
  199MOL0     C26161   6.944   0.772  10.501 -0.3187 -0.6538 -0.5298
  199MOL0     C26162   6.986   0.748  10.628 -0.2587 -0.8074 -0.3289
  199MOL0     C26163   6.893   0.751  10.739  0.2326  0.1589 -0.6389
  199MOL0     C26164   6.761   0.783  10.722  0.4682  0.0653 -0.6785
  199MOL0     C26165   6.670   0.797  10.842 -0.5406 -0.6867 -0.9719
  199MOL0     O26166   6.544   0.844  10.821  0.2396 -0.4098 -0.5279
  199MOL0     C26167   6.453   0.849  10.921  0.3925  0.5326  0.1695
  199MOL0     C26168   6.446   0.750  11.016  0.6888  0.6840 -0.6081
  199MOL0     C26169   6.346   0.741  11.116 -0.1304 -0.3314 -0.2090
  199MOL0     C26170   6.248   0.838  11.102 -0.6098 -0.0465 -1.1090
  199MOL0     O26171   6.138   0.821  11.197 -0.2813 -0.0325  0.3526
  199MOL0     C26172   6.052   0.933  11.204 -0.1935 -0.4753 -0.1259
  199MOL0     C26173   5.962   0.922  11.327 -0.4599 -0.1180 -0.3099
  199MOL0     C26174   5.860   1.035  11.313 -0.2770  0.6238  0.2106
  199MOL0     C26175   5.795   1.063  11.448  0.4358 -0.2188  1.2603
  199MOL0     C26176   5.708   0.946  11.485  0.1195 -0.1509  0.5945
  199MOL0     C26177   5.596   0.960  11.585 -0.1902 -0.2589 -0.1538
  199MOL0     C26178   5.657   0.957  11.726  0.1329 -0.9794 -0.9155
  199MOL0     C26179   5.553   0.982  11.833  0.8169  0.3865 -0.5062
  199MOL0    Cl26180   5.628   1.046  11.990  0.1810  0.3457  0.0006
  199MOL0     C26181   6.241   0.928  10.990  0.1589 -0.9166 -0.3747
  199MOL0     C26182   6.358   0.943  10.909  0.2380  0.9340 -0.1149
  199MOL0     O26183   6.723   0.780  10.954 -0.5289 -0.5741  0.5791
  199MOL0     C26184   6.719   0.815  10.597 -0.0990  0.6761 -0.1959
  199MOL0     C26185   6.815   0.813  10.487  0.2008 -0.1202  0.3968
  199MOL0     N26186   7.552   0.934  10.163  0.1984  0.0217 -0.1061
  199MOL0     N26187   7.661   0.881  10.113 -0.6669 -0.7765 -0.3839
  199MOL0     C26188   8.549   0.182   9.596  0.1921  0.2627 -1.4266
  199MOL0     C26189   8.681   0.137   9.592  0.5390 -0.1925 -0.3372
  199MOL0     C26190   9.145   0.107   9.721  0.1647 -0.2712 -0.2327
  199MOL0     C26191   9.197   0.083   9.597  0.3816 -0.3534 -0.2527
  199MOL0     C26192   9.338   0.059   9.571  0.4536 -0.0433 -0.7670
  199MOL0     C26193   9.428   0.056   9.679  0.2976  1.0842  0.1388
  199MOL0     O26194   9.561   0.022   9.665  0.7365  0.0289  0.2474
  199MOL0     C26195   9.612  -0.002   9.530 -0.7870  0.4764 -0.1817
  199MOL0     C26196   9.764  -0.007   9.527  0.4183 -0.5424 -0.3052
  199MOL0     C26197   9.826   0.135   9.560  0.3957  0.1420 -0.2867
  199MOL0     C26198   9.969   0.149   9.507 -0.2533  0.0632  0.0041
  199MOL0     C26199  10.031   0.276   9.539 -0.7503  0.6635  0.3112
  199MOL0     C26200  10.108   0.368   9.543  0.6292 -0.7414 -0.1449
  199MOL0     C26201   9.376   0.081   9.805  0.1081  1.5114  0.8990
  199MOL0     C26202   9.238   0.109   9.823  0.0098 -0.1853 -0.6341
  199MOL0     H26203   8.847   0.383   9.729  0.3612  1.2460 -1.1038
  199MOL0     H26204   8.624   0.477   9.765 -3.5784  0.1543 -2.5824
  199MOL0     H26205   8.437   0.553   9.630 -0.1706 -0.4884 -1.2079
  199MOL0     H26206   8.359   0.492   9.777  3.8458 -1.2360 -0.1855
  199MOL0     H26207   8.230   0.526   9.506 -0.5402  0.7886  0.3788
  199MOL0     H26208   8.213   0.630   9.651  1.2688  0.4240 -0.9657
  199MOL0     H26209   8.131   0.343   9.619 -0.4486  0.8050 -1.3122
  199MOL0     H26210   8.009   0.472   9.611 -1.7238 -2.2278  2.4198
  199MOL0     H26211   7.971   0.371   9.825  1.6245 -1.9293 -1.2900
  199MOL0     H26212   8.132   0.352   9.852  0.5280  1.4775  0.1709
  199MOL0     H26213   8.158   0.600   9.900 -1.5537  2.5944  2.6810
  199MOL0     H26214   8.036   0.517   9.996 -1.9924 -0.5829 -0.8896
  199MOL0     H26215   7.885   0.571   9.806  0.7512 -1.7799  1.3214
  199MOL0     H26216   7.974   0.727   9.790  1.3335  1.6300  0.2187
  199MOL0     H26217   7.844   0.640  10.062 -0.0623 -0.5979 -0.6023
  199MOL0     H26218   7.911   0.797  10.005  0.3903 -0.8591  0.8793
  199MOL0     H26219   7.676   0.635   9.904  0.7871  0.5836  1.0366
  199MOL0     H26220   7.725   0.796   9.832  1.4151 -0.0564  0.2858
  199MOL0     H26221   7.415   0.757   9.921 -0.7046  1.4789 -1.0675
  199MOL0     H26222   7.243   0.891  10.018  0.3864  0.9063 -0.2599
  199MOL0     H26223   7.309   1.039  10.079 -0.3492 -0.8816 -1.8161
  199MOL0     H26224   7.146   0.955  10.266  0.9589  1.9800  2.1425
  199MOL0     H26225   7.308   0.933  10.325 -0.8716 -1.7570  1.2914
  199MOL0     H26226   7.143   0.726  10.166 -0.4586  2.4322 -0.3239
  199MOL0     H26227   7.301   0.683  10.243 -1.1121 -2.3271  0.3170
  199MOL0     H26228   7.214   0.728  10.458 -0.3954  2.5380 -0.4098
  199MOL0     H26229   7.115   0.598  10.385  0.4269  0.0611 -1.1371
  199MOL0     H26230   7.090   0.726  10.650  0.4117  2.7975  0.8738
  199MOL0     H26231   6.920   0.726  10.841  1.5809 -0.9792 -1.2368
  199MOL0     H26232   6.521   0.672  11.009  0.5745  0.4870  0.2712
  199MOL0     H26233   6.329   0.672  11.198  2.0044 -1.2439 -0.4529
  199MOL0     H26234   5.980   0.927  11.121 -3.2194 -2.6573  2.4175
  199MOL0     H26235   6.104   1.027  11.219  3.2238 -2.6797  3.6206
  199MOL0     H26236   6.022   0.924  11.418 -2.8890  1.4769  1.3929
  199MOL0     H26237   5.899   0.833  11.324 -0.2165 -0.2775 -1.5585
  199MOL0     H26238   5.785   1.015  11.236 -2.4020  6.5381  0.1896
  199MOL0     H26239   5.910   1.126  11.278  1.7839 -0.7803 -0.6286
  199MOL0     H26240   5.870   1.068  11.528  0.7577 -1.1234  1.0298
  199MOL0     H26241   5.737   1.156  11.441  0.5708 -0.0936  1.7423
  199MOL0     H26242   5.782   0.878  11.529  0.9885  2.4360  3.4994
  199MOL0     H26243   5.665   0.906  11.393  2.4059 -0.4131 -0.4375
  199MOL0     H26244   5.524   0.882  11.562 -0.0894 -0.1970 -0.6885
  199MOL0     H26245   5.538   1.052  11.570 -0.2226 -0.2278  0.1598
  199MOL0     H26246   5.699   0.858  11.747  2.3867  0.4679  2.2401
  199MOL0     H26247   5.744   1.023  11.723  0.5183 -1.4926 -1.3916
  199MOL0     H26248   5.494   0.893  11.857  0.2071  0.8135 -0.3893
  199MOL0     H26249   5.474   1.049  11.798 -1.0900 -1.7100 -0.4705
  199MOL0     H26250   6.160   0.998  10.972 -0.5100 -1.9288 -1.4285
  199MOL0     H26251   6.369   1.022  10.835  2.7733  0.1580 -0.6599
  199MOL0     H26252   6.616   0.828  10.566  0.4923  1.3136 -2.0058
  199MOL0     H26253   6.775   0.835  10.388 -0.2179 -1.0560  0.3464
  199MOL0     H26254   8.466   0.128   9.554 -1.2725  0.6947  0.7220
  199MOL0     H26255   8.701   0.038   9.553  0.9979  0.6800 -2.4318
  199MOL0     H26256   9.121   0.085   9.520 -1.1635  1.2863  1.2183
  199MOL0     H26257   9.368   0.028   9.471  0.7550 -2.9867  0.1411
  199MOL0     H26258   9.566   0.067   9.459 -2.0359  3.5788  3.2933
  199MOL0     H26259   9.586  -0.107   9.512  1.2999  0.2303 -2.2394
  199MOL0     H26260   9.785  -0.077   9.609  0.9182  1.3560  1.2769
  199MOL0     H26261   9.803  -0.029   9.427 -1.1666  3.8767 -2.1268
  199MOL0     H26262   9.825   0.159   9.667  0.7652  0.6738 -0.3990
  199MOL0     H26263   9.770   0.211   9.504 -0.7034  0.5526  1.2888
  199MOL0     H26264  10.021   0.060   9.544 -1.3960  0.3302  2.3856
  199MOL0     H26265   9.971   0.154   9.397  1.2613  0.2338  0.0184
  199MOL0     H26266  10.181   0.445   9.553  2.4492 -2.5641  1.5845
  199MOL0     H26267   9.441   0.068   9.891 -2.5910 -0.6620  2.7936
  199MOL0     H26268   9.207   0.133   9.924 -0.6793 -3.7568  0.1590
  200MOL0     O26269   7.091   6.797   3.737  0.4912 -0.1255  1.0047
  200MOL0     C26270   7.062   6.727   3.643  0.0028  0.3355 -0.3332
  200MOL0     O26271   6.941   6.693   3.610  0.6399  0.1467 -0.1553
  200MOL0     C26272   6.831   6.721   3.698 -0.4687  0.1380 -0.2797
  200MOL0     C26273   6.815   6.677   3.827  0.3811 -0.6676  0.5949
  200MOL0     C26274   6.704   6.708   3.911 -0.2201 -0.5759 -0.2148
  200MOL0     C26275   6.608   6.805   3.870 -0.1732 -0.5274 -0.7035
  200MOL0     O26276   6.506   6.839   3.956  0.3070 -0.0065 -0.6432
  200MOL0     C26277   6.378   6.854   3.902 -0.2683  1.0534 -0.0805
  200MOL0     C26278   6.271   6.791   3.999  0.2967  0.0836 -0.0030
  200MOL0     C26279   6.271   6.634   3.979  0.5325  0.8080  0.0767
  200MOL0     C26280   6.161   6.556   4.062  0.3467 -0.0586 -0.1417
  200MOL0     C26281   6.174   6.585   4.214 -0.0064 -0.7639 -0.0689
  200MOL0     C26282   6.046   6.547   4.293 -0.3793  1.1882  0.4651
  200MOL0     C26283   6.048   6.600   4.443 -0.4897  0.1994 -0.0849
  200MOL0     C26284   6.157   6.548   4.541  0.4104  0.0015  0.3437
  200MOL0     N26285   6.135   6.398   4.553  0.0332  0.4052 -0.0400
  200MOL0     C26286   6.037   6.344   4.628 -0.2026 -0.4193  0.0228
  200MOL0     C26287   6.061   6.213   4.608  0.4580  0.7025 -0.9111
  200MOL0     C26288   5.983   6.101   4.658 -0.0451 -0.5737 -0.1433
  200MOL0     C26289   5.986   6.107   4.808 -0.8126 -0.0914 -0.1122
  200MOL0     C26290   5.986   5.975   4.877 -1.1371 -0.3673  0.3781
  200MOL0     C26291   5.934   6.001   5.018  0.2776  0.6581  0.4050
  200MOL0     O26292   5.787   6.002   5.011  1.0333  0.2083 -0.1306
  200MOL0     C26293   5.722   5.922   5.096  0.6591  0.0179  0.6256
  200MOL0     C26294   5.762   5.891   5.220 -0.6782 -0.4491  0.9582
  200MOL0     C26295   5.681   5.814   5.304  0.9786  0.1632 -0.2866
  200MOL0     C26296   5.556   5.756   5.265 -0.3740 -1.2137 -0.0386
  200MOL0     C26297   5.473   5.678   5.364  0.0310 -0.3666  0.5894
  200MOL0     O26298   5.376   5.599   5.310  0.6747  0.3829  0.3034
  200MOL0     C26299   5.268   5.544   5.384  0.0713 -0.5106 -0.5128
  200MOL0     C26300   5.286   5.432   5.466 -0.0205  0.6456 -0.1261
  200MOL0     C26301   5.175   5.373   5.541  0.3807 -0.0273 -0.5209
  200MOL0     C26302   5.052   5.432   5.544 -0.7873 -0.1350  0.9819
  200MOL0     O26303   4.953   5.368   5.616 -0.0921 -0.7826  0.4315
  200MOL0     C26304   4.830   5.436   5.627 -0.3638 -0.5830 -0.6114
  200MOL0     C26305   4.735   5.355   5.714  0.1210 -0.3789 -1.0822
  200MOL0     C26306   4.676   5.240   5.652  0.3824 -1.0717  1.0893
  200MOL0     C26307   4.621   5.134   5.751 -0.1733  0.1427  0.3301
  200MOL0     C26308   4.500   5.181   5.834  0.5384 -0.3007  0.4639
  200MOL0     C26309   4.454   5.085   5.940 -0.7185 -0.1165 -0.1036
  200MOL0     C26310   4.325   5.138   6.005  0.6476  0.3096 -0.8171
  200MOL0     C26311   4.260   5.034   6.089  0.4371 -0.4833 -0.2888
  200MOL0    Cl26312   4.115   5.090   6.178  0.0170 -0.1897  0.0034
  200MOL0     C26313   5.040   5.554   5.467  0.5066  1.0712 -0.3057
  200MOL0     C26314   5.144   5.604   5.388 -0.5850  0.3811 -0.5804
  200MOL0     O26315   5.512   5.675   5.479  1.2999 -0.7210  0.0221
  200MOL0     C26316   5.521   5.777   5.128 -0.2003  0.5979  0.1014
  200MOL0     C26317   5.602   5.857   5.041 -1.0148  0.1034  0.1061
  200MOL0     N26318   6.167   6.189   4.527  0.2709 -0.0956 -0.1597
  200MOL0     N26319   6.205   6.300   4.483 -0.8350  0.6951  0.1767
  200MOL0     C26320   6.621   6.855   3.737  0.3442  0.2683 -0.1631
  200MOL0     C26321   6.733   6.820   3.658 -0.1573  0.0978  0.1518
  200MOL0     C26322   7.162   6.696   3.537 -0.3859  0.7408 -0.2715
  200MOL0     C26323   7.137   6.607   3.428  0.3337  1.1396  1.5909
  200MOL0     C26324   7.244   6.574   3.339  0.0745  0.3797 -0.0112
  200MOL0     C26325   7.371   6.613   3.369 -0.2359 -0.5007 -0.3158
  200MOL0     O26326   7.468   6.580   3.278 -0.4934 -0.6502  0.5853
  200MOL0     C26327   7.550   6.688   3.241  0.1948 -0.2542  0.9320
  200MOL0     C26328   7.599   6.681   3.094 -0.8548 -0.4533 -0.1301
  200MOL0     C26329   7.724   6.587   3.072  0.2443 -0.4006  0.6787
  200MOL0     C26330   7.849   6.651   3.020  0.8650  0.3858  0.0477
  200MOL0     C26331   7.921   6.730   3.115  0.3162 -0.9444  0.8761
  200MOL0     C26332   7.957   6.806   3.201 -0.5411  0.1017 -0.2316
  200MOL0     C26333   7.398   6.702   3.478 -0.2548 -0.3895  0.2639
  200MOL0     C26334   7.293   6.742   3.557  0.8354  0.5711 -0.5912
  200MOL0     H26335   6.897   6.616   3.863  0.6333 -0.0808  1.0315
  200MOL0     H26336   6.692   6.667   4.010  2.6261  0.4298  0.6478
  200MOL0     H26337   6.359   6.805   3.805 -1.9575 -2.3657  1.8021
  200MOL0     H26338   6.379   6.962   3.883  0.3751  0.7135 -2.4012
  200MOL0     H26339   6.174   6.830   3.969  1.5794  1.4513 -2.7062
  200MOL0     H26340   6.301   6.818   4.101 -0.4100  2.7822 -0.4318
  200MOL0     H26341   6.372   6.599   4.004  1.2981  1.6519 -1.6215
  200MOL0     H26342   6.246   6.602   3.878  1.1831  0.9936 -0.1540
  200MOL0     H26343   6.059   6.569   4.025 -0.8747 -1.9584  2.2284
  200MOL0     H26344   6.176   6.449   4.043 -2.8121 -1.0803  2.2380
  200MOL0     H26345   6.194   6.692   4.226  0.5881 -0.8524 -0.2133
  200MOL0     H26346   6.269   6.537   4.238  0.1982 -0.0634  0.5622
  200MOL0     H26347   6.033   6.439   4.296 -1.8143  1.3458  1.0438
  200MOL0     H26348   5.959   6.597   4.248  0.1037 -0.4643 -2.5834
  200MOL0     H26349   6.041   6.708   4.437 -0.8722  0.1419 -0.7436
  200MOL0     H26350   5.960   6.558   4.493  2.2066 -2.2533  3.0276
  200MOL0     H26351   6.153   6.603   4.635  1.7716  3.5162 -1.4203
  200MOL0     H26352   6.249   6.575   4.488  0.1920 -0.8668 -0.5006
  200MOL0     H26353   5.959   6.388   4.688  0.6332 -1.0341  1.6034
  200MOL0     H26354   6.025   6.007   4.621  4.2842  0.4618  1.4741
  200MOL0     H26355   5.887   6.122   4.610  0.6798  0.5420 -1.1855
  200MOL0     H26356   5.904   6.172   4.840 -0.3017  1.0518 -1.0389
  200MOL0     H26357   6.074   6.160   4.844 -3.0036  2.0954  2.5033
  200MOL0     H26358   5.930   5.900   4.820 -3.5763  0.3007  1.7448
  200MOL0     H26359   6.086   5.941   4.907 -1.8231  0.4525  4.0606
  200MOL0     H26360   5.972   6.100   5.046  1.0879 -0.2541  2.8368
  200MOL0     H26361   5.974   5.921   5.081  0.9486  0.7273  0.0684
  200MOL0     H26362   5.857   5.925   5.258 -0.1741 -0.5899 -0.1329
  200MOL0     H26363   5.728   5.801   5.401  1.7178  0.4186 -0.6025
  200MOL0     H26364   5.387   5.390   5.466  0.1998  1.1261 -1.9023
  200MOL0     H26365   5.203   5.279   5.588  1.2019 -0.8072 -2.4615
  200MOL0     H26366   4.777   5.466   5.536  1.0555  0.8051 -1.0365
  200MOL0     H26367   4.857   5.529   5.678  1.9435 -1.2210 -0.5396
  200MOL0     H26368   4.660   5.426   5.750 -1.7076 -0.8707 -3.5937
  200MOL0     H26369   4.783   5.317   5.804 -1.2260 -3.9559 -1.6971
  200MOL0     H26370   4.750   5.198   5.583 -0.3244 -0.4062 -0.1229
  200MOL0     H26371   4.597   5.274   5.585 -0.4552 -1.2173  1.9882
  200MOL0     H26372   4.604   5.043   5.693 -1.7801  0.7269 -0.1754
  200MOL0     H26373   4.700   5.110   5.822  1.5722 -0.1851 -1.5961
  200MOL0     H26374   4.415   5.185   5.765  0.7696  1.6834  0.2588
  200MOL0     H26375   4.522   5.276   5.883  1.3204 -0.6596  0.8212
  200MOL0     H26376   4.523   5.093   6.025 -0.9000  2.9657 -0.1498
  200MOL0     H26377   4.442   4.985   5.896 -1.7881 -0.6971  1.4117
  200MOL0     H26378   4.346   5.220   6.074 -0.8314  0.0780 -0.0667
  200MOL0     H26379   4.266   5.175   5.921  0.1361 -0.3245 -0.7432
  200MOL0     H26380   4.331   4.992   6.161  0.8659 -0.0374 -0.4459
  200MOL0     H26381   4.231   4.954   6.020 -1.2079  1.8581 -2.4692
  200MOL0     H26382   4.943   5.603   5.470  1.0476  2.1773  3.1118
  200MOL0     H26383   5.138   5.691   5.324  1.2708  0.9853 -0.0002
  200MOL0     H26384   5.421   5.746   5.099 -1.1232  0.7745  2.8103
  200MOL0     H26385   5.573   5.888   4.942  0.4270 -0.4091 -0.5020
  200MOL0     H26386   6.544   6.921   3.699 -1.7868 -2.4450 -0.9004
  200MOL0     H26387   6.727   6.867   3.560  1.3328  4.5624  1.9453
  200MOL0     H26388   7.041   6.561   3.407  0.8450  1.0844 -0.8298
  200MOL0     H26389   7.242   6.524   3.242  1.2703 -1.7417  0.9847
  200MOL0     H26390   7.645   6.704   3.292  0.1768  1.7495  0.4254
  200MOL0     H26391   7.493   6.780   3.258  1.0057  0.0265  2.2320
  200MOL0     H26392   7.518   6.648   3.028 -3.7818 -0.1650  3.0624
  200MOL0     H26393   7.628   6.780   3.056 -1.4076 -0.5316 -0.7747
  200MOL0     H26394   7.701   6.520   2.989  2.2914  1.9229 -1.9479
  200MOL0     H26395   7.745   6.528   3.161 -0.2214  0.4527  1.3771
  200MOL0     H26396   7.916   6.572   2.985 -0.9961 -1.9625  1.4514
  200MOL0     H26397   7.826   6.702   2.926  0.9847 -1.0027 -0.7625
  200MOL0     H26398   7.994   6.864   3.283  1.4715 -2.9493  1.2140
  200MOL0     H26399   7.499   6.737   3.497 -0.1996 -2.0895  4.3562
  200MOL0     H26400   7.306   6.808   3.642  1.3458  0.8235 -0.8598
  201MOL0     O26401   1.774   8.891   5.551 -0.4630  0.2640 -0.0669
  201MOL0     C26402   1.879   8.832   5.556 -1.3100 -0.0377 -0.0134
  201MOL0     O26403   1.891   8.695   5.565  0.1100  0.1450  0.2364
  201MOL0     C26404   1.769   8.631   5.583 -0.3556  0.6642 -0.2131
  201MOL0     C26405   1.703   8.599   5.465  1.0344 -0.6311 -0.3916
  201MOL0     C26406   1.580   8.527   5.467  0.6234  0.4257  0.6298
  201MOL0     C26407   1.521   8.494   5.589  0.1549 -0.1368 -0.2750
  201MOL0     O26408   1.398   8.425   5.605  0.1113  0.0860 -0.4290
  201MOL0     C26409   1.395   8.301   5.525 -0.2627 -0.7265  0.0018
  201MOL0     C26410   1.434   8.196   5.630 -0.8745 -0.3508  0.1383
  201MOL0     C26411   1.415   8.060   5.567 -0.2348 -0.2917 -0.4517
  201MOL0     C26412   1.265   8.029   5.541  0.4355 -0.5783 -0.4099
  201MOL0     C26413   1.239   7.872   5.519 -0.2868  0.5054  0.9746
  201MOL0     C26414   1.189   7.795   5.640  0.3289  0.5071 -0.0450
  201MOL0     C26415   1.128   7.651   5.605 -1.0249 -0.2074  1.4417
  201MOL0     C26416   1.221   7.554   5.543 -0.5319  0.4101 -0.1281
  201MOL0     N26417   1.185   7.417   5.598  0.7385 -0.0762  0.1317
  201MOL0     C26418   1.082   7.345   5.556 -0.8584 -0.3222 -0.0652
  201MOL0     C26419   1.119   7.226   5.581 -0.5819  0.2269  0.0766
  201MOL0     C26420   1.047   7.094   5.557 -0.3910 -0.4157  0.1182
  201MOL0     C26421   0.966   7.063   5.681 -0.6810  0.6956 -0.8887
  201MOL0     C26422   0.901   6.927   5.680  0.2575  0.5213 -0.4353
  201MOL0     C26423   0.798   6.902   5.579  0.1709 -0.4891  0.5295
  201MOL0     O26424   0.718   7.020   5.562  0.0406 -0.1491  0.2280
  201MOL0     C26425   0.601   7.035   5.630  0.1495  0.6070  0.1528
  201MOL0     C26426   0.514   7.135   5.584  0.1900  0.4519  0.5307
  201MOL0     C26427   0.377   7.131   5.614  0.3065  0.4221 -0.4265
  201MOL0     C26428   0.329   7.034   5.710 -0.1526  0.1971 -0.8357
  201MOL0     C26429   0.187   7.031   5.750 -0.9478  0.2228 -0.5032
  201MOL0     O26430   0.121   7.118   5.672 -0.2015  0.1614  0.0521
  201MOL0     C26431  -0.008   7.103   5.640 -0.8818  0.0673  0.3388
  201MOL0     C26432  -0.089   6.984   5.636  0.5518  0.2200 -1.1024
  201MOL0     C26433  -0.229   6.981   5.601 -0.7401 -0.4740  0.1028
  201MOL0     C26434  -0.292   7.103   5.595  0.0088  0.0262  0.1436
  201MOL0     O26435  -0.423   7.112   5.569  0.1789 -0.0261  0.0129
  201MOL0     C26436  -0.479   7.018   5.484 -0.1193  0.1454  0.5256
  201MOL0     C26437  -0.567   6.913   5.546 -1.1273  0.5771 -0.1717
  201MOL0     C26438  -0.704   6.969   5.602 -0.4856  0.2629  0.2981
  201MOL0     C26439  -0.813   6.983   5.491 -0.7472  0.4329 -0.0539
  201MOL0     C26440  -0.943   6.994   5.568 -0.1988 -0.3461 -0.2790
  201MOL0     C26441  -1.072   6.979   5.485 -0.1166 -1.0880 -1.1268
  201MOL0     C26442  -1.182   7.046   5.569  0.2295 -0.1657 -0.2071
  201MOL0     C26443  -1.324   7.001   5.531  0.0064 -0.1155  0.5445
  201MOL0    Cl26444  -1.371   7.063   5.363 -0.5589  0.4122  0.3617
  201MOL0     C26445  -0.215   7.218   5.605  0.7119 -0.1964  0.5408
  201MOL0     C26446  -0.075   7.224   5.619 -0.0434  0.0580  0.2316
  201MOL0     O26447   0.144   6.967   5.846  0.2488  0.4329 -0.3020
  201MOL0     C26448   0.418   6.941   5.762 -0.1255  0.2369 -0.1722
  201MOL0     C26449   0.551   6.949   5.724  0.8184  0.2793 -0.2729
  201MOL0     N26450   1.240   7.223   5.647 -0.1955 -0.4006 -0.2763
  201MOL0     N26451   1.285   7.341   5.653  0.2161  0.2965  0.0977
  201MOL0     C26452   1.595   8.523   5.706 -0.2312 -0.4093 -0.4657
  201MOL0     C26453   1.714   8.594   5.710 -0.3589 -0.5473 -0.0590
  201MOL0     C26454   2.010   8.915   5.552 -0.1980  1.0229  0.0836
  201MOL0     C26455   2.131   8.843   5.527  0.4909 -0.0531  0.9480
  201MOL0     C26456   2.252   8.906   5.518  0.1146 -1.0075 -0.2734
  201MOL0     C26457   2.262   9.044   5.541  0.6844  0.1842  0.5779
  201MOL0     O26458   2.374   9.114   5.522 -0.1718  1.2668  0.2921
  201MOL0     C26459   2.505   9.063   5.551  0.4511 -0.3885 -0.1610
  201MOL0     C26460   2.528   9.100   5.693 -0.0342 -0.5501  0.2154
  201MOL0     C26461   2.662   9.037   5.731  0.2531  0.3661  0.2598
  201MOL0     C26462   2.701   9.074   5.875  0.5667  0.0522  0.4393
  201MOL0     C26463   2.838   9.032   5.912 -0.0769 -0.2858 -0.5272
  201MOL0     C26464   2.949   9.006   5.946  0.7087  0.2436 -0.1217
  201MOL0     C26465   2.146   9.117   5.568  0.2387  0.4906 -0.4116
  201MOL0     C26466   2.025   9.048   5.565 -0.4529 -0.7512  0.3576
  201MOL0     H26467   1.737   8.644   5.373 -2.2666  2.6474 -0.2227
  201MOL0     H26468   1.518   8.506   5.380  2.0193  0.0293 -0.3058
  201MOL0     H26469   1.459   8.311   5.437 -1.1481  0.4256 -0.5405
  201MOL0     H26470   1.297   8.269   5.489  1.1225 -3.0751 -1.9977
  201MOL0     H26471   1.376   8.206   5.722  1.2014 -0.2454  1.5051
  201MOL0     H26472   1.539   8.207   5.658  0.5777 -2.8936 -3.4911
  201MOL0     H26473   1.453   7.987   5.639  0.6288  0.4352 -0.1481
  201MOL0     H26474   1.460   8.043   5.469 -2.5869 -1.7041 -1.3657
  201MOL0     H26475   1.195   8.066   5.617  0.2668  0.4363 -1.0370
  201MOL0     H26476   1.251   8.071   5.441  4.6666 -1.3555 -1.5633
  201MOL0     H26477   1.330   7.820   5.488 -2.1024 -2.0378 -0.3687
  201MOL0     H26478   1.169   7.865   5.435  0.8613  1.0494 -0.0658
  201MOL0     H26479   1.105   7.846   5.687  0.0994  0.1762 -0.0922
  201MOL0     H26480   1.263   7.792   5.720  2.8056 -2.1684 -2.2218
  201MOL0     H26481   1.094   7.609   5.700  3.0578 -3.1540  1.8858
  201MOL0     H26482   1.040   7.666   5.543  0.0146 -0.4998 -0.1747
  201MOL0     H26483   1.320   7.571   5.587 -1.9244 -0.0160  3.5944
  201MOL0     H26484   1.211   7.549   5.435 -0.8413  0.0886 -0.0857
  201MOL0     H26485   0.996   7.376   5.497  0.3908 -0.2560 -1.9538
  201MOL0     H26486   1.124   7.021   5.529  1.5817  1.4789  0.2989
  201MOL0     H26487   0.985   7.111   5.468 -0.6279 -0.1771  0.3261
  201MOL0     H26488   0.888   7.139   5.692 -0.8510  0.4566 -0.4313
  201MOL0     H26489   1.030   7.072   5.770 -0.6444  2.2113 -1.0345
  201MOL0     H26490   0.974   6.845   5.679 -1.8934 -1.5111 -0.4625
  201MOL0     H26491   0.865   6.914   5.783  3.5187 -2.1784  0.5399
  201MOL0     H26492   0.738   6.813   5.600  0.5253 -0.3852  2.0823
  201MOL0     H26493   0.852   6.885   5.485  1.3206 -1.1561  1.2851
  201MOL0     H26494   0.544   7.204   5.505  1.5643  0.5975  1.1493
  201MOL0     H26495   0.311   7.207   5.574 -1.2951 -0.5473  0.2185
  201MOL0     H26496  -0.053   6.883   5.653 -0.5460 -0.2542 -1.4998
  201MOL0     H26497  -0.284   6.887   5.605 -2.0947  0.2833 -0.1821
  201MOL0     H26498  -0.406   6.965   5.422  1.7778  3.2764 -0.1944
  201MOL0     H26499  -0.536   7.076   5.411  1.3140  1.4382  0.3823
  201MOL0     H26500  -0.506   6.868   5.625  0.1601  1.1708 -0.8104
  201MOL0     H26501  -0.589   6.840   5.468 -1.2143 -1.5464  1.7324
  201MOL0     H26502  -0.697   7.067   5.650 -0.6531  0.5212 -0.2082
  201MOL0     H26503  -0.740   6.900   5.680 -0.0444 -0.7609 -0.3764
  201MOL0     H26504  -0.793   7.078   5.440 -0.2295 -0.6184 -1.8978
  201MOL0     H26505  -0.813   6.898   5.423 -2.5215  0.4699 -0.1308
  201MOL0     H26506  -0.931   7.092   5.615  0.4015  0.6435 -2.4053
  201MOL0     H26507  -0.948   6.920   5.648 -4.5123  0.8842  0.8459
  201MOL0     H26508  -1.094   6.875   5.460 -0.9922 -0.8343 -1.4490
  201MOL0     H26509  -1.059   7.041   5.396  2.2126 -0.0657 -0.1555
  201MOL0     H26510  -1.160   7.016   5.672  0.3157  0.9758  0.1278
  201MOL0     H26511  -1.173   7.155   5.560  1.3362 -0.2917 -0.7766
  201MOL0     H26512  -1.395   7.047   5.600  1.0875  2.3256  0.1406
  201MOL0     H26513  -1.338   6.894   5.543  1.6498 -0.4069  0.1142
  201MOL0     H26514  -0.272   7.311   5.607  2.4624  0.9131  1.8765
  201MOL0     H26515  -0.023   7.319   5.614 -3.5516  2.1128 -3.5466
  201MOL0     H26516   0.373   6.881   5.842  0.4824  0.0316  0.0233
  201MOL0     H26517   0.618   6.868   5.753  0.5558 -0.8430 -2.5513
  201MOL0     H26518   1.570   8.463   5.793  4.0940 -2.3518 -0.2780
  201MOL0     H26519   1.764   8.618   5.803 -1.3176 -4.2089  1.5899
  201MOL0     H26520   2.130   8.735   5.514 -0.7807 -0.0337  0.7786
  201MOL0     H26521   2.338   8.850   5.484  0.6886 -1.3132  1.5704
  201MOL0     H26522   2.584   9.126   5.510  1.3973 -1.6255 -0.2857
  201MOL0     H26523   2.513   8.954   5.546  3.2333 -0.3179  0.9358
  201MOL0     H26524   2.531   9.208   5.706 -1.8292 -0.0841 -2.3277
  201MOL0     H26525   2.448   9.052   5.750  0.4042 -1.4400  0.0939
  201MOL0     H26526   2.733   9.096   5.672 -1.1411  1.3273 -0.5472
  201MOL0     H26527   2.675   8.930   5.718  0.7215  0.4497  0.0367
  201MOL0     H26528   2.708   9.181   5.894  2.1769  0.2697 -1.0982
  201MOL0     H26529   2.625   9.027   5.939  0.1622 -0.7757 -0.6163
  201MOL0     H26530   3.047   8.991   5.986 -0.1009  1.4860  2.5981
  201MOL0     H26531   2.149   9.222   5.596 -1.9366  0.1434  1.4888
  201MOL0     H26532   1.937   9.109   5.584  0.2185  0.2076  0.4624
  202MOL0     O26533   1.234   9.912   3.372 -0.4203 -0.0975 -0.7625
  202MOL0     C26534   1.279   9.880   3.481 -0.0640 -0.7473  0.4033
  202MOL0     O26535   1.200   9.885   3.598 -0.8182  0.0902  0.7255
  202MOL0     C26536   1.069   9.897   3.585 -0.4399  0.3053  0.6840
  202MOL0     C26537   0.987   9.823   3.493 -0.3626 -0.3468 -0.6733
  202MOL0     C26538   0.853   9.830   3.505  0.7480  0.1656  1.2711
  202MOL0     C26539   0.788   9.916   3.590  0.5379 -0.1822  0.1668
  202MOL0     O26540   0.654   9.947   3.595 -0.0825 -0.0578  0.4794
  202MOL0     C26541   0.561   9.841   3.613  0.2968  0.0206  0.2585
  202MOL0     C26542   0.431   9.888   3.547  0.1120 -0.1752 -0.4617
  202MOL0     C26543   0.451   9.897   3.388  0.0772 -0.2628  0.7461
  202MOL0     C26544   0.332   9.954   3.323 -0.6255  0.4889  0.5576
  202MOL0     C26545   0.210   9.862   3.342  0.5292  0.1241  0.1082
  202MOL0     C26546   0.082   9.918   3.291 -0.1547 -0.9748 -0.5691
  202MOL0     C26547  -0.031   9.873   3.379  0.1003 -0.1206  0.6497
  202MOL0     C26548  -0.161   9.946   3.329 -0.8846  0.7566  0.4169
  202MOL0     N26549  -0.212   9.873   3.214  0.1671 -0.5123  0.2459
  202MOL0     C26550  -0.323   9.800   3.218  0.0023  0.7469 -0.0252
  202MOL0     C26551  -0.382   9.798   3.096 -0.5357  0.3970 -0.6938
  202MOL0     C26552  -0.516   9.750   3.061  0.3086  0.6713  0.0306
  202MOL0     C26553  -0.597   9.860   2.980 -0.0122 -0.3649 -0.3531
  202MOL0     C26554  -0.736   9.796   2.966  0.2094 -0.2024 -0.7758
  202MOL0     C26555  -0.814   9.887   2.870  0.1621  0.1510 -0.2933
  202MOL0     O26556  -0.934   9.818   2.831  0.3712 -0.3573 -0.2155
  202MOL0     C26557  -1.030   9.870   2.759 -0.4416  0.0973  0.1326
  202MOL0     C26558  -1.137   9.785   2.728 -0.4414  0.6215  0.0690
  202MOL0     C26559  -1.239   9.830   2.642  0.0137 -0.3531 -0.4146
  202MOL0     C26560  -1.235   9.961   2.595  0.1366  0.0212 -0.8640
  202MOL0     C26561  -1.347  10.014   2.520 -0.7821  0.4573 -0.4917
  202MOL0     O26562  -1.469   9.952   2.543  0.1700  0.3733  0.3245
  202MOL0     C26563  -1.572   9.968   2.452 -0.1974 -0.4220  0.1089
  202MOL0     C26564  -1.632  10.091   2.441 -0.2155  0.6515 -0.3785
  202MOL0     C26565  -1.738  10.114   2.354  0.5516 -0.6042  0.5570
  202MOL0     C26566  -1.780  10.004   2.277 -0.7706 -0.0634 -0.0884
  202MOL0     O26567  -1.871  10.008   2.183  0.4768 -0.4337  0.2383
  202MOL0     C26568  -1.951  10.131   2.159  1.0467 -0.5038 -1.0129
  202MOL0     C26569  -2.084  10.128   2.244  0.7739  0.7202  0.3980
  202MOL0     C26570  -2.174  10.246   2.220 -0.3329 -0.5886 -0.1528
  202MOL0     C26571  -2.323  10.214   2.259  0.0936 -0.2630 -0.1590
  202MOL0     C26572  -2.396  10.346   2.254  0.4705  0.2578  0.0812
  202MOL0     C26573  -2.545  10.311   2.281 -0.0356  0.5207 -0.1406
  202MOL0     C26574  -2.617  10.446   2.263  0.5238 -0.0562 -0.4378
  202MOL0     C26575  -2.775  10.438   2.264 -0.5248 -0.3273 -0.1406
  202MOL0    Cl26576  -2.842  10.364   2.414 -0.3361 -0.4117 -0.8039
  202MOL0     C26577  -1.722   9.872   2.300  0.4746 -0.5900 -0.3961
  202MOL0     C26578  -1.625   9.850   2.385 -0.7602  0.2833 -0.0954
  202MOL0     O26579  -1.326  10.108   2.432  0.2195  0.0699  0.7537
  202MOL0     C26580  -1.123  10.041   2.622 -0.9326  0.3014 -0.4511
  202MOL0     C26581  -1.024  10.003   2.704 -0.6086 -0.2580 -0.3577
  202MOL0     N26582  -0.295   9.864   3.008 -0.0263  0.7218 -0.3144
  202MOL0     N26583  -0.201   9.912   3.084 -0.4719  0.1237 -0.3781
  202MOL0     C26584   0.863   9.995   3.676 -0.4912  0.4130  0.0114
  202MOL0     C26585   1.001   9.984   3.678 -0.1838 -0.1375 -0.7547
  202MOL0     C26586   1.421   9.864   3.493 -0.7154 -0.4507  0.0772
  202MOL0     C26587   1.502   9.863   3.371 -1.2478  0.2492  0.5661
  202MOL0     C26588   1.638   9.860   3.383 -0.0291 -0.5037 -0.2642
  202MOL0     C26589   1.715   9.854   3.504  0.0772 -0.8447 -0.0029
  202MOL0     O26590   1.853   9.862   3.514 -0.5607 -0.7010  0.5127
  202MOL0     C26591   1.924   9.868   3.391  0.8897  0.5386  0.1586
  202MOL0     C26592   2.071   9.879   3.428 -0.1772  0.7120  0.7944
  202MOL0     C26593   2.153   9.862   3.312  0.8751  0.5848  0.6865
  202MOL0     C26594   2.297   9.904   3.354 -0.5839  0.0634 -0.1207
  202MOL0     C26595   2.371   9.952   3.233 -0.0808 -0.2143 -0.5938
  202MOL0     C26596   2.432   9.980   3.130 -0.1191 -0.3530 -0.5789
  202MOL0     C26597   1.635   9.857   3.622  0.6533  0.1488  0.6224
  202MOL0     C26598   1.492   9.860   3.618  0.2041  0.7612  0.3569
  202MOL0     H26599   1.027   9.749   3.424  1.0704  0.6106 -0.9075
  202MOL0     H26600   0.793   9.769   3.439 -3.0085  3.1635  1.4991
  202MOL0     H26601   0.540   9.830   3.720  1.4378 -2.6447  0.2817
  202MOL0     H26602   0.595   9.752   3.559  1.1821  1.4340 -1.6091
  202MOL0     H26603   0.388   9.981   3.585  0.0216  0.2056 -1.4612
  202MOL0     H26604   0.359   9.812   3.579  2.1304 -0.6979  3.4701
  202MOL0     H26605   0.478   9.803   3.339 -0.5019  0.6689 -1.5124
  202MOL0     H26606   0.532   9.964   3.357 -1.6722 -0.6609 -6.6354
  202MOL0     H26607   0.323  10.057   3.357 -1.1538  0.5864  0.1315
  202MOL0     H26608   0.355   9.968   3.217 -1.2221  2.7581  0.6839
  202MOL0     H26609   0.197   9.853   3.450 -0.2285 -0.0855  0.0006
  202MOL0     H26610   0.229   9.764   3.297 -4.3063 -0.7614 -0.5355
  202MOL0     H26611   0.056   9.875   3.193 -0.7114  0.1730 -0.9470
  202MOL0     H26612   0.076  10.026   3.269  0.0383 -1.0290 -0.9048
  202MOL0     H26613  -0.049   9.765   3.369 -1.5804  0.2133 -0.2403
  202MOL0     H26614  -0.007   9.890   3.484 -0.8675 -0.9409  1.0332
  202MOL0     H26615  -0.132  10.048   3.303  1.5588  0.3567  1.2649
  202MOL0     H26616  -0.238   9.948   3.406 -0.0315  0.6517  1.2907
  202MOL0     H26617  -0.366   9.755   3.307 -1.7326 -0.8471 -1.5929
  202MOL0     H26618  -0.567   9.719   3.153 -0.2343 -0.0064 -0.4798
  202MOL0     H26619  -0.511   9.660   2.999  0.3969  1.3669 -0.9992
  202MOL0     H26620  -0.557   9.883   2.881 -0.2147  1.8200  0.0117
  202MOL0     H26621  -0.603   9.958   3.029  4.8628 -0.4938  1.0550
  202MOL0     H26622  -0.738   9.697   2.920  0.8597 -0.7037  0.2184
  202MOL0     H26623  -0.786   9.797   3.064 -3.8963  2.5018 -2.6355
  202MOL0     H26624  -0.757   9.921   2.783 -2.0718 -0.4269 -2.0769
  202MOL0     H26625  -0.850   9.979   2.917 -0.3730  0.4710 -1.2928
  202MOL0     H26626  -1.153   9.678   2.743  1.2439  0.2979 -0.1957
  202MOL0     H26627  -1.324   9.772   2.609 -1.3010  2.5689 -2.6250
  202MOL0     H26628  -1.606  10.178   2.501 -1.1105  2.4197 -2.4266
  202MOL0     H26629  -1.774  10.215   2.337  1.4114 -0.1581  1.2902
  202MOL0     H26630  -1.983  10.140   2.055 -0.6883 -0.9009 -0.5409
  202MOL0     H26631  -1.899  10.225   2.175  0.4941  0.0531 -2.3216
  202MOL0     H26632  -2.055  10.120   2.349 -0.3825 -1.8274  0.6184
  202MOL0     H26633  -2.148  10.040   2.230 -0.5378  1.3358  2.1079
  202MOL0     H26634  -2.169  10.286   2.119 -2.5567  0.0467 -0.0515
  202MOL0     H26635  -2.139  10.324   2.289  0.7103 -1.9871  0.9707
  202MOL0     H26636  -2.369  10.140   2.193 -1.0082 -1.4032  1.7759
  202MOL0     H26637  -2.328  10.172   2.360 -0.7482  2.4103  1.0139
  202MOL0     H26638  -2.389  10.385   2.153  0.8257 -1.1126 -0.4449
  202MOL0     H26639  -2.355  10.424   2.319  0.4406 -0.7231  1.3174
  202MOL0     H26640  -2.556  10.263   2.379  0.2145 -2.0351 -1.2714
  202MOL0     H26641  -2.581  10.234   2.212 -1.0350  1.2309 -0.4289
  202MOL0     H26642  -2.583  10.508   2.346  2.7350  0.3318 -1.5505
  202MOL0     H26643  -2.584  10.503   2.176  3.5409  2.5785  2.2044
  202MOL0     H26644  -2.809  10.372   2.184 -0.9785 -1.2127  0.7528
  202MOL0     H26645  -2.816  10.538   2.248 -0.1749 -0.4638 -2.1098
  202MOL0     H26646  -1.764   9.783   2.254 -1.1943  0.5418 -1.1559
  202MOL0     H26647  -1.591   9.749   2.406 -0.9157  0.4611  1.0934
  202MOL0     H26648  -1.120  10.140   2.577 -3.5932 -0.1847 -1.8809
  202MOL0     H26649  -0.937  10.065   2.724  1.0526 -2.9196  1.3394
  202MOL0     H26650   0.817  10.065   3.745  1.4787  1.2865  0.4827
  202MOL0     H26651   1.048  10.043   3.756 -1.2330 -1.3480  0.8532
  202MOL0     H26652   1.463   9.867   3.270  0.2342  0.0515 -0.0335
  202MOL0     H26653   1.679   9.854   3.282 -0.7770  2.0187 -0.7803
  202MOL0     H26654   1.897   9.960   3.339 -0.5497  0.4437  0.6881
  202MOL0     H26655   1.913   9.775   3.333  1.4325  1.3428 -1.2754
  202MOL0     H26656   2.090   9.977   3.471 -0.6449  1.6724 -1.0898
  202MOL0     H26657   2.098   9.802   3.502 -2.9127  0.0777  1.2334
  202MOL0     H26658   2.111   9.920   3.230  0.8162 -1.0801 -0.5260
  202MOL0     H26659   2.152   9.756   3.284 -3.2370 -0.0448  2.5039
  202MOL0     H26660   2.286   9.975   3.436 -3.7027 -2.0212  1.4673
  202MOL0     H26661   2.350   9.818   3.396  2.0908  1.4080 -0.5575
  202MOL0     H26662   2.495  10.001   3.046  2.1983 -2.3407  0.5246
  202MOL0     H26663   1.693   9.863   3.714  0.2867 -1.5807  1.0098
  202MOL0     H26664   1.433   9.883   3.706  1.4646  3.4412  0.5743
  203MOL0     O26665   6.657  10.176   5.229  0.2260  0.0674  0.5778
  203MOL0     C26666   6.770  10.234   5.219 -0.2812 -0.5864 -0.0461
  203MOL0     O26667   6.812  10.346   5.301 -0.1417  0.1961 -0.0826
  203MOL0     C26668   6.766  10.340   5.428  0.0839  0.1475 -0.9167
  203MOL0     C26669   6.632  10.349   5.463  0.0933  0.7612  0.1887
  203MOL0     C26670   6.594  10.346   5.596 -0.3982  0.0211  0.0834
  203MOL0     C26671   6.686  10.345   5.698  0.3209 -0.1548  0.2849
  203MOL0     O26672   6.648  10.352   5.830  0.5257  0.4643  0.3869
  203MOL0     C26673   6.605  10.478   5.872 -1.0344  0.7690  0.5691
  203MOL0     C26674   6.579  10.471   6.024 -0.0978 -0.3566  0.3222
  203MOL0     C26675   6.503  10.608   6.062 -0.1674 -0.2208  0.5099
  203MOL0     C26676   6.518  10.635   6.207  0.7648  0.8635 -0.5871
  203MOL0     C26677   6.441  10.756   6.263 -0.4511 -0.0895  1.1459
  203MOL0     C26678   6.290  10.721   6.301 -0.0252 -0.9391 -0.7743
  203MOL0     C26679   6.198  10.835   6.335  0.0673  0.0237 -0.2175
  203MOL0     C26680   6.072  10.773   6.408  0.2781  0.7363 -0.0227
  203MOL0     N26681   5.995  10.687   6.311  0.2802 -0.5319 -0.7918
  203MOL0     C26682   5.936  10.745   6.194 -0.5360  0.3339  0.4336
  203MOL0     C26683   5.868  10.643   6.142 -0.4920 -0.6073  0.4811
  203MOL0     C26684   5.794  10.625   6.002  0.0492  0.8782 -0.6808
  203MOL0     C26685   5.672  10.704   5.968 -0.2953  0.4112 -0.5059
  203MOL0     C26686   5.676  10.858   5.981  0.2707 -0.3599 -0.0292
  203MOL0     C26687   5.777  10.909   5.875 -0.2981  0.1355 -0.4629
  203MOL0     O26688   5.910  10.930   5.922  0.2280  0.5627  0.1825
  203MOL0     C26689   6.011  10.908   5.834 -0.2405  0.7676  0.1425
  203MOL0     C26690   5.988  10.886   5.696 -0.3086 -0.2990 -0.2894
  203MOL0     C26691   6.102  10.879   5.611 -0.4087  0.4173  0.4729
  203MOL0     C26692   6.233  10.889   5.664 -0.5496 -0.5639  0.2653
  203MOL0     C26693   6.352  10.878   5.573  0.2987 -0.1781  0.0868
  203MOL0     O26694   6.470  10.847   5.622  0.0101  0.5064 -0.3398
  203MOL0     C26695   6.575  10.839   5.537 -0.4102  1.3324 -0.1427
  203MOL0     C26696   6.620  10.939   5.452  0.1227 -0.3773  0.2981
  203MOL0     C26697   6.731  10.913   5.370 -0.4245  0.3623 -0.8612
  203MOL0     C26698   6.818  10.811   5.388 -0.1217  0.9075  1.3907
  203MOL0     O26699   6.935  10.816   5.317 -0.3324  0.5627 -0.2781
  203MOL0     C26700   7.016  10.700   5.312 -0.7215  0.1844 -0.2289
  203MOL0     C26701   7.126  10.707   5.206  0.6921 -0.8761 -0.6676
  203MOL0     C26702   7.199  10.570   5.207 -0.1816 -0.5842  0.3309
  203MOL0     C26703   7.332  10.576   5.140 -0.7639  1.0756  0.2793
  203MOL0     C26704   7.377  10.441   5.084  0.5943 -0.0217  0.3522
  203MOL0     C26705   7.515  10.472   5.050 -0.1989 -0.1214 -0.1721
  203MOL0     C26706   7.577  10.345   5.002  0.0536 -0.7441 -0.1775
  203MOL0     C26707   7.725  10.321   5.067  0.4696 -0.3599  0.0227
  203MOL0    Cl26708   7.827  10.463   5.043  0.5879  0.0630 -0.0638
  203MOL0     C26709   6.775  10.710   5.481 -0.0022 -0.1665 -0.4311
  203MOL0     C26710   6.654  10.731   5.555 -0.3246  0.2972  0.1738
  203MOL0     O26711   6.327  10.920   5.460 -0.8852 -0.6597  0.6129
  203MOL0     C26712   6.249  10.887   5.796  0.0897 -0.9804  0.4669
  203MOL0     C26713   6.141  10.898   5.883 -0.2853 -0.0666 -0.1785
  203MOL0     N26714   5.877  10.533   6.220  0.5966  0.2178  0.9420
  203MOL0     N26715   5.954  10.558   6.327  0.1848 -0.3472 -0.4648
  203MOL0     C26716   6.818  10.356   5.669  0.6773 -0.3542 -0.5563
  203MOL0     C26717   6.863  10.353   5.539  0.1756  0.3904  0.3612
  203MOL0     C26718   6.867  10.205   5.118  0.5715  0.4439 -0.1294
  203MOL0     C26719   6.834  10.120   5.017  0.7172 -0.1541  0.4866
  203MOL0     C26720   6.928  10.052   4.934  0.5205 -0.0425 -0.2652
  203MOL0     C26721   7.065  10.076   4.960  0.4460 -0.8768 -0.2701
  203MOL0     O26722   7.175  10.022   4.910  0.3248  0.4396  0.1632
  203MOL0     C26723   7.167   9.949   4.787 -0.1250 -0.6918  0.3173
  203MOL0     C26724   7.138   9.810   4.809  0.0982  0.6358 -0.9881
  203MOL0     C26725   7.114   9.747   4.671  0.5198 -0.5547  0.3120
  203MOL0     C26726   7.241   9.651   4.634 -0.3172  0.1880  0.7627
  203MOL0     C26727   7.368   9.730   4.620  0.4591 -0.4708  0.7452
  203MOL0     C26728   7.467   9.796   4.622 -0.0618  0.2361  0.3959
  203MOL0     C26729   7.092  10.173   5.050 -0.4992  0.1496  0.1448
  203MOL0     C26730   6.997  10.228   5.142 -0.5656 -0.0680 -0.2895
  203MOL0     H26731   6.560  10.363   5.382  2.0075  1.9141 -1.4012
  203MOL0     H26732   6.488  10.350   5.620 -0.7053 -0.2751 -1.1218
  203MOL0     H26733   6.508  10.501   5.828 -0.8397 -0.2438 -0.4389
  203MOL0     H26734   6.680  10.554   5.847  0.3669 -0.3384  1.2674
  203MOL0     H26735   6.673  10.450   6.077  1.5662 -0.6026 -2.5258
  203MOL0     H26736   6.513  10.386   6.043 -1.6345  0.8567  0.5247
  203MOL0     H26737   6.402  10.592   6.021 -0.2831  0.0962  0.6699
  203MOL0     H26738   6.543  10.683   5.993 -1.3288 -0.9217 -1.0128
  203MOL0     H26739   6.483  10.550   6.267 -2.3934  2.5598  0.2364
  203MOL0     H26740   6.622  10.664   6.220  0.2178  1.4737  3.9102
  203MOL0     H26741   6.455  10.828   6.182  1.2485 -1.7896 -0.1554
  203MOL0     H26742   6.494  10.791   6.352  2.3271  1.1080 -0.8520
  203MOL0     H26743   6.300  10.658   6.390  0.6784 -1.8329 -1.4664
  203MOL0     H26744   6.247  10.665   6.217 -1.8349  0.0271 -0.5317
  203MOL0     H26745   6.243  10.896   6.415  1.2090 -2.6394  1.3189
  203MOL0     H26746   6.190  10.902   6.249  1.0433 -1.4346 -1.4862
  203MOL0     H26747   6.009  10.856   6.444  0.3640  2.4579 -3.4258
  203MOL0     H26748   6.109  10.718   6.495 -0.1332  0.5570  0.0429
  203MOL0     H26749   5.953  10.846   6.159  1.8734  0.6391  2.1753
  203MOL0     H26750   5.750  10.525   5.998  0.2160  0.6455  1.7136
  203MOL0     H26751   5.865  10.647   5.922 -0.0433  3.3682 -0.1605
  203MOL0     H26752   5.581  10.674   6.019  0.0462 -1.2799 -0.8541
  203MOL0     H26753   5.651  10.684   5.863 -2.7584  0.4831 -0.0776
  203MOL0     H26754   5.579  10.892   5.944 -0.8330 -2.4311  0.8061
  203MOL0     H26755   5.697  10.893   6.082 -0.8462  1.0694 -0.2580
  203MOL0     H26756   5.734  11.004   5.841 -4.2353 -1.1932  0.2842
  203MOL0     H26757   5.776  10.836   5.793  1.9184 -0.9296  0.3688
  203MOL0     H26758   5.890  10.891   5.651  0.1768 -0.4055 -1.3943
  203MOL0     H26759   6.093  10.860   5.505 -1.4757 -1.1268  0.8224
  203MOL0     H26760   6.567  11.033   5.444 -1.5700 -1.2238  1.1941
  203MOL0     H26761   6.753  10.992   5.299 -0.5655 -1.5768 -3.1779
  203MOL0     H26762   6.957  10.611   5.286  0.9325 -0.9863 -0.1912
  203MOL0     H26763   7.060  10.683   5.410 -1.4587  2.8934  0.6497
  203MOL0     H26764   7.175  10.801   5.230 -0.9039  0.0555 -0.8837
  203MOL0     H26765   7.069  10.706   5.113  0.4336 -1.0591 -0.5094
  203MOL0     H26766   7.135  10.497   5.157 -1.3995  0.2267  0.6414
  203MOL0     H26767   7.197  10.524   5.307  1.1575 -0.1523  0.5789
  203MOL0     H26768   7.323  10.641   5.052  3.8153  0.4567 -0.9358
  203MOL0     H26769   7.406  10.616   5.210  2.2002 -3.5074  0.2509
  203MOL0     H26770   7.321  10.432   4.991  0.3278  1.7832  0.2980
  203MOL0     H26771   7.353  10.357   5.150 -0.4759 -0.8003 -0.9932
  203MOL0     H26772   7.572  10.514   5.133  1.2743  0.9391 -1.6596
  203MOL0     H26773   7.515  10.545   4.969  3.1572  2.1256  1.6306
  203MOL0     H26774   7.517  10.259   5.034 -2.1579  1.4196  1.8577
  203MOL0     H26775   7.574  10.351   4.893  1.1093 -0.4292 -0.2019
  203MOL0     H26776   7.756  10.233   5.009 -2.1578  0.3907 -2.8279
  203MOL0     H26777   7.728  10.302   5.174  0.0441  1.5873  0.4192
  203MOL0     H26778   6.842  10.625   5.495  2.8708  2.0811  0.4575
  203MOL0     H26779   6.615  10.664   5.631 -2.1513  1.2590  0.1385
  203MOL0     H26780   6.346  10.867   5.839  1.4353  0.1279 -1.8106
  203MOL0     H26781   6.148  10.895   5.992 -1.1903  0.7870 -0.0852
  203MOL0     H26782   6.892  10.359   5.749  0.5180 -2.5333 -0.2686
  203MOL0     H26783   6.970  10.355   5.521  0.2806  0.0725  0.9428
  203MOL0     H26784   6.731  10.096   4.990  1.5210 -0.5858 -2.6395
  203MOL0     H26785   6.900   9.988   4.851 -0.6680  1.9160 -1.4364
  203MOL0     H26786   7.260   9.964   4.731 -2.2013  1.7864 -2.8265
  203MOL0     H26787   7.097  10.005   4.725 -0.1488  1.5824  2.2370
  203MOL0     H26788   7.220   9.757   4.858 -1.6514 -1.1560  0.1419
  203MOL0     H26789   7.052   9.794   4.875  3.6907 -2.8161  3.5510
  203MOL0     H26790   7.084   9.815   4.590 -1.0847 -1.7872 -0.1854
  203MOL0     H26791   7.020   9.693   4.685 -0.2756  0.7254  0.1089
  203MOL0     H26792   7.257   9.575   4.711  0.7270 -0.9448 -0.5251
  203MOL0     H26793   7.228   9.588   4.545  1.4215  0.2528  0.4295
  203MOL0     H26794   7.554   9.858   4.616  0.5761 -0.6365  0.3346
  203MOL0     H26795   7.194  10.203   5.073 -0.1358 -0.3894 -0.7141
  203MOL0     H26796   7.040  10.287   5.223  2.8079 -1.8128 -0.6199
  204MOL0     O26797   4.437   3.139   3.284 -0.1909 -0.0844  0.0330
  204MOL0     C26798   4.524   3.133   3.197  0.3778  0.4425 -0.0282
  204MOL0     O26799   4.495   3.106   3.066  0.0875 -1.0284 -0.6520
  204MOL0     C26800   4.370   3.123   3.024  0.4096  0.2022 -0.0123
  204MOL0     C26801   4.291   3.233   3.043 -0.0642 -0.0435 -0.3607
  204MOL0     C26802   4.160   3.245   3.002 -0.2127  0.4505  0.2874
  204MOL0     C26803   4.106   3.141   2.929 -0.5550 -0.2914 -0.6858
  204MOL0     O26804   3.978   3.127   2.883 -0.0720  0.9487 -0.0956
  204MOL0     C26805   3.890   3.228   2.923  0.1334 -0.2735  0.5524
  204MOL0     C26806   3.745   3.176   2.901 -0.8149 -0.3815 -0.1299
  204MOL0     C26807   3.700   3.077   2.999 -0.4661  0.6289  0.2997
  204MOL0     C26808   3.549   3.044   2.967  0.1965 -0.6612  0.2207
  204MOL0     C26809   3.494   2.929   3.061 -0.3819 -0.1908 -0.2817
  204MOL0     C26810   3.373   2.851   3.022 -0.2536 -0.6176 -0.8671
  204MOL0     C26811   3.283   2.938   2.933  0.3337 -0.5227  0.7354
  204MOL0     C26812   3.148   2.876   2.902  1.1670 -0.1469  1.0515
  204MOL0     N26813   3.067   2.973   2.824  0.1798  0.8812 -0.5554
  204MOL0     C26814   2.970   3.046   2.881 -0.3045 -0.0862 -0.4364
  204MOL0     C26815   2.920   3.121   2.781 -0.2855  0.6842 -0.6735
  204MOL0     C26816   2.806   3.221   2.780  0.4725  0.0708 -0.5573
  204MOL0     C26817   2.661   3.167   2.796 -1.3224 -0.5721  0.1660
  204MOL0     C26818   2.639   3.118   2.941  0.0770 -0.5890  1.1017
  204MOL0     C26819   2.507   3.045   2.967 -0.1118  0.2747  0.1527
  204MOL0     O26820   2.392   3.129   2.936 -0.0158  0.0552  0.0287
  204MOL0     C26821   2.267   3.068   2.942  0.1726 -0.1420 -0.6919
  204MOL0     C26822   2.236   2.933   2.959 -0.0650 -0.7916 -0.1466
  204MOL0     C26823   2.108   2.895   2.958  0.4325  0.2638  0.6821
  204MOL0     C26824   2.000   2.977   2.921  0.1421 -0.4589  0.1981
  204MOL0     C26825   1.857   2.932   2.902  0.0025 -0.2273 -0.0010
  204MOL0     O26826   1.769   3.042   2.900 -0.3183  0.7479  0.0115
  204MOL0     C26827   1.636   3.016   2.921 -0.4327  0.2476 -0.0860
  204MOL0     C26828   1.595   2.994   3.060 -0.4374 -0.0823 -0.6607
  204MOL0     C26829   1.460   2.958   3.086 -0.1218 -0.3418  0.3024
  204MOL0     C26830   1.368   2.928   2.980 -0.3842  0.7669  0.6372
  204MOL0     O26831   1.242   2.879   2.990  0.0481 -0.2990 -0.3338
  204MOL0     C26832   1.172   2.894   3.117  0.1601  0.1254 -0.4981
  204MOL0     C26833   1.039   2.824   3.084  0.3025 -0.1018 -0.0685
  204MOL0     C26834   0.960   2.807   3.212  0.4105 -0.2001 -0.4768
  204MOL0     C26835   0.833   2.721   3.176 -0.2426  0.2836 -0.1323
  204MOL0     C26836   0.739   2.709   3.298  0.4173  0.4579  0.4546
  204MOL0     C26837   0.623   2.615   3.273 -0.3072  0.7735  0.3036
  204MOL0     C26838   0.654   2.470   3.272  0.2492  0.7412  0.2775
  204MOL0     C26839   0.526   2.393   3.221 -0.0411  0.3713 -0.0190
  204MOL0    Cl26840   0.559   2.222   3.230  0.3182 -0.3423 -0.3192
  204MOL0     C26841   1.415   2.955   2.844 -0.8131 -0.3727  0.3008
  204MOL0     C26842   1.541   2.995   2.819 -0.4589  0.2433 -0.3723
  204MOL0     O26843   1.827   2.815   2.917  0.7527  0.0553 -0.8558
  204MOL0     C26844   2.032   3.109   2.903 -0.1999 -0.2097  0.4782
  204MOL0     C26845   2.160   3.154   2.912  0.2942 -0.2048 -0.4272
  204MOL0     N26846   2.983   3.089   2.662  0.5385 -0.3358 -0.1607
  204MOL0     N26847   3.071   3.000   2.689  0.2807  0.1514  0.3660
  204MOL0     C26848   4.181   3.024   2.906 -0.2235 -0.0799 -0.6733
  204MOL0     C26849   4.307   3.011   2.958 -0.4901 -0.2757  0.6635
  204MOL0     C26850   4.663   3.164   3.228 -0.4063 -0.1869  0.1456
  204MOL0     C26851   4.695   3.235   3.345 -0.0569 -0.0764  0.3341
  204MOL0     C26852   4.831   3.252   3.385  0.1472  1.5521 -0.1140
  204MOL0     C26853   4.936   3.194   3.304  0.4907  0.7167 -0.3411
  204MOL0     O26854   5.058   3.223   3.337  0.3054 -0.1542 -0.3688
  204MOL0     C26855   5.172   3.203   3.252 -0.8541 -0.2568 -0.4559
  204MOL0     C26856   5.286   3.183   3.351 -0.3751 -0.0330  0.4556
  204MOL0     C26857   5.407   3.103   3.280  0.0398 -0.0331 -0.3803
  204MOL0     C26858   5.525   3.092   3.373  0.0440 -0.5694 -0.3562
  204MOL0     C26859   5.587   3.227   3.388  0.9897  0.9503  0.2021
  204MOL0     C26860   5.651   3.330   3.392  0.1367 -0.3180  0.2531
  204MOL0     C26861   4.894   3.130   3.183 -0.7079 -0.2000  0.4303
  204MOL0     C26862   4.763   3.123   3.139 -0.3795 -0.1830  0.7646
  204MOL0     H26863   4.336   3.323   3.084  1.0712 -0.2009 -1.2057
  204MOL0     H26864   4.103   3.337   3.010 -1.4366 -0.0102 -1.9768
  204MOL0     H26865   3.911   3.303   2.846  3.2821  0.1366  1.6768
  204MOL0     H26866   3.911   3.256   3.027  2.0197  0.5665 -0.0220
  204MOL0     H26867   3.734   3.131   2.802 -0.9335 -1.3180  0.2984
  204MOL0     H26868   3.690   3.271   2.902  0.6665  0.4957  0.2677
  204MOL0     H26869   3.705   3.108   3.103 -2.4013  0.5189  0.4614
  204MOL0     H26870   3.758   2.985   2.985 -1.7756 -0.6187  2.5562
  204MOL0     H26871   3.491   3.134   2.986  2.5851  0.6337  1.9832
  204MOL0     H26872   3.547   3.016   2.861 -0.0903 -1.5790  0.4572
  204MOL0     H26873   3.479   2.967   3.163 -1.1700 -2.5806  0.5725
  204MOL0     H26874   3.570   2.850   3.069  1.0308  1.1789  0.3509
  204MOL0     H26875   3.322   2.824   3.115 -1.4156 -0.3609 -1.4188
  204MOL0     H26876   3.404   2.760   2.970 -0.7558 -0.9414 -0.6078
  204MOL0     H26877   3.268   3.033   2.985  1.7676 -0.2407  0.6823
  204MOL0     H26878   3.329   2.963   2.836 -0.0420 -1.0399  0.4194
  204MOL0     H26879   3.091   2.852   2.992 -0.8739 -0.0446 -0.1532
  204MOL0     H26880   3.170   2.783   2.849 -0.9581 -0.3576  0.4683
  204MOL0     H26881   2.939   3.041   2.985 -0.8083 -2.4480 -0.6388
  204MOL0     H26882   2.809   3.259   2.678  2.0038  1.1909 -0.1370
  204MOL0     H26883   2.822   3.309   2.843  0.6863 -0.3472 -0.0200
  204MOL0     H26884   2.648   3.083   2.727  2.7281 -0.7153 -0.6452
  204MOL0     H26885   2.586   3.246   2.784  0.6628  1.4263  0.4209
  204MOL0     H26886   2.716   3.043   2.964 -1.6729 -3.3083 -1.2707
  204MOL0     H26887   2.641   3.203   3.010 -4.5811  1.6503 -1.1274
  204MOL0     H26888   2.508   3.002   3.067  1.1911 -1.8752 -0.7093
  204MOL0     H26889   2.508   2.957   2.903 -2.6179 -0.8027  1.4486
  204MOL0     H26890   2.319   2.868   2.986 -0.7888 -1.8324 -0.3594
  204MOL0     H26891   2.085   2.791   2.979  2.2079 -0.7763 -1.9050
  204MOL0     H26892   1.660   3.008   3.145  0.7394  1.9512 -1.8007
  204MOL0     H26893   1.428   2.936   3.187 -1.1044 -0.1227  0.0511
  204MOL0     H26894   1.163   2.996   3.154  1.6467 -0.7872  2.6837
  204MOL0     H26895   1.217   2.843   3.203  1.5933  0.9513 -0.7330
  204MOL0     H26896   1.066   2.722   3.056 -0.9475 -1.7780  4.1445
  204MOL0     H26897   0.989   2.884   3.007 -1.3275 -0.3138  0.7774
  204MOL0     H26898   0.926   2.902   3.254  0.4978 -0.6180  0.5819
  204MOL0     H26899   1.016   2.756   3.291  0.6839 -3.3440 -2.4953
  204MOL0     H26900   0.780   2.757   3.087  2.2230  1.5908 -1.1728
  204MOL0     H26901   0.861   2.620   3.145 -2.3418 -0.8462  1.3754
  204MOL0     H26902   0.695   2.807   3.321 -0.7037 -0.4247  2.2662
  204MOL0     H26903   0.795   2.676   3.385  2.7685  0.5983 -0.9159
  204MOL0     H26904   0.574   2.641   3.178 -1.5019  1.3526  1.0500
  204MOL0     H26905   0.552   2.630   3.355  2.1252 -1.9039  3.1639
  204MOL0     H26906   0.744   2.439   3.218 -1.3021 -0.8545 -1.5255
  204MOL0     H26907   0.667   2.431   3.373 -0.3944  1.0779  0.4990
  204MOL0     H26908   0.489   2.431   3.126  1.7839  1.1838 -0.4420
  204MOL0     H26909   0.446   2.417   3.293  3.0801  2.5927  3.0183
  204MOL0     H26910   1.356   2.933   2.756  2.6786  1.4830 -2.7395
  204MOL0     H26911   1.573   3.016   2.718  3.4838  1.2285  0.8868
  204MOL0     H26912   1.964   3.182   2.860  1.0863  0.3146 -0.7872
  204MOL0     H26913   2.184   3.255   2.879 -1.8851  1.0635  1.5162
  204MOL0     H26914   4.128   2.938   2.865 -0.0292 -1.0426  0.9905
  204MOL0     H26915   4.367   2.921   2.948  0.1690  0.1294  0.9125
  204MOL0     H26916   4.615   3.268   3.412 -2.7978  1.2636 -3.2825
  204MOL0     H26917   4.845   3.318   3.470  0.7800  1.1033  0.1385
  204MOL0     H26918   5.178   3.292   3.188  0.2745 -0.2500 -0.3515
  204MOL0     H26919   5.154   3.112   3.194 -1.1023 -1.9657  2.1247
  204MOL0     H26920   5.317   3.284   3.379 -0.1115 -0.3728  1.4057
  204MOL0     H26921   5.251   3.129   3.439 -0.8466  1.8950  1.5202
  204MOL0     H26922   5.430   3.159   3.188  1.0794 -0.1806 -0.2239
  204MOL0     H26923   5.364   3.004   3.264 -2.4286  0.2812  3.1433
  204MOL0     H26924   5.492   3.056   3.471 -3.1787 -0.6108 -1.3488
  204MOL0     H26925   5.600   3.021   3.336  1.3826  0.7373 -0.2391
  204MOL0     H26926   5.699   3.424   3.378 -0.2656 -0.1270  0.1430
  204MOL0     H26927   4.967   3.090   3.114  1.0636  2.9403  0.2647
  204MOL0     H26928   4.749   3.053   3.057  0.9515 -0.2688  0.5951
  205MOL0     O26929   8.248   3.014   8.007  1.1550  0.2790 -0.0859
  205MOL0     C26930   8.345   3.010   7.928 -0.8201 -0.2749 -0.2300
  205MOL0     O26931   8.348   2.991   7.795  0.4115 -0.3173 -0.3827
  205MOL0     C26932   8.231   3.006   7.724  0.2335 -0.5680  0.5490
  205MOL0     C26933   8.203   3.122   7.641  0.2434  0.0154 -0.4256
  205MOL0     C26934   8.078   3.143   7.575 -0.6495  0.1298 -0.6572
  205MOL0     C26935   7.973   3.047   7.581  0.0408  1.0161 -0.0993
  205MOL0     O26936   7.864   3.076   7.506  0.5670 -0.2913 -0.2431
  205MOL0     C26937   7.741   3.013   7.535 -0.1867 -0.1553 -0.7763
  205MOL0     C26938   7.627   3.089   7.466  0.5673 -0.1357 -1.5008
  205MOL0     C26939   7.492   3.051   7.522 -0.1117  0.6183  0.4750
  205MOL0     C26940   7.391   3.123   7.434 -0.3066  0.3559  0.0677
  205MOL0     C26941   7.254   3.122   7.518  0.8092  0.6638  0.9064
  205MOL0     C26942   7.136   3.145   7.423 -0.0774 -0.9764  0.6823
  205MOL0     C26943   6.998   3.143   7.483  0.0949  0.3345 -0.6228
  205MOL0     C26944   6.882   3.126   7.386 -0.4794  0.2160 -0.1862
  205MOL0     N26945   6.858   3.234   7.293  0.2809  0.2747 -0.5844
  205MOL0     C26946   6.758   3.331   7.312 -0.8688 -1.2093  0.5081
  205MOL0     C26947   6.796   3.423   7.223 -0.2504 -0.7666 -0.8050
  205MOL0     C26948   6.715   3.540   7.188 -0.2292 -0.4137 -0.4831
  205MOL0     C26949   6.695   3.644   7.303  0.3728  0.2745  0.7095
  205MOL0     C26950   6.628   3.774   7.252 -0.1912  0.6186 -0.3786
  205MOL0     C26951   6.493   3.759   7.187  0.0440  0.3297 -0.4050
  205MOL0     O26952   6.390   3.727   7.292  0.6234 -0.0302  0.1703
  205MOL0     C26953   6.253   3.707   7.261 -0.4775 -1.0449  0.3089
  205MOL0     C26954   6.200   3.748   7.134 -0.4639 -0.2614  0.5382
  205MOL0     C26955   6.068   3.749   7.103 -0.0445  0.4644 -0.1666
  205MOL0     C26956   5.981   3.685   7.191  0.0055  0.8706  0.5854
  205MOL0     C26957   5.840   3.674   7.149  0.2292 -0.2542  0.8631
  205MOL0     O26958   5.802   3.762   7.053 -1.1442  0.0014  0.0411
  205MOL0     C26959   5.671   3.764   7.019 -0.1067  0.2790 -0.7430
  205MOL0     C26960   5.605   3.657   6.954 -0.1256  0.7594 -1.1365
  205MOL0     C26961   5.471   3.664   6.912  0.0951  0.3267 -0.1122
  205MOL0     C26962   5.391   3.773   6.949  0.7123 -0.0931 -0.3876
  205MOL0     O26963   5.253   3.769   6.923  0.2057 -0.5092 -0.0069
  205MOL0     C26964   5.164   3.799   7.031 -0.1280 -0.3921 -1.7994
  205MOL0     C26965   5.017   3.777   6.990 -0.1057  0.1125 -0.1360
  205MOL0     C26966   4.990   3.859   6.855 -0.5313 -0.1376 -0.1371
  205MOL0     C26967   4.844   3.832   6.814  0.4567  0.2427 -0.1811
  205MOL0     C26968   4.814   3.910   6.681 -0.4315  0.1019 -0.4137
  205MOL0     C26969   4.699   3.856   6.599 -1.4271  0.2133  0.5672
  205MOL0     C26970   4.732   3.736   6.506  1.1229 -0.1109  1.4801
  205MOL0     C26971   4.813   3.775   6.386 -0.9728 -0.1994 -0.1886
  205MOL0    Cl26972   4.733   3.861   6.258 -0.0302  0.1328 -0.2829
  205MOL0     C26973   5.456   3.881   7.013  0.4488  0.6748 -0.1909
  205MOL0     C26974   5.594   3.881   7.034 -0.4275  0.8342  0.4522
  205MOL0     O26975   5.778   3.586   7.207  0.0409  1.6539  0.2217
  205MOL0     C26976   6.027   3.646   7.317 -0.9907 -0.2474 -0.1913
  205MOL0     C26977   6.166   3.659   7.354 -0.2099  0.7416 -0.6288
  205MOL0     N26978   6.913   3.389   7.158 -0.2644  0.3659 -0.5164
  205MOL0     N26979   6.941   3.270   7.201 -1.0727  0.6455  0.5544
  205MOL0     C26980   7.995   2.939   7.669  0.4611 -0.0788  0.0747
  205MOL0     C26981   8.121   2.917   7.737  0.1009  0.0094  0.0207
  205MOL0     C26982   8.478   3.035   7.991 -0.0309 -0.3860 -0.2188
  205MOL0     C26983   8.595   3.045   7.913 -0.0063  0.4167 -0.0614
  205MOL0     C26984   8.717   3.045   7.977 -0.0611  0.1888  1.2671
  205MOL0     C26985   8.728   3.034   8.115 -0.3085  0.2327  0.4406
  205MOL0     O26986   8.849   3.029   8.184 -0.3501 -0.3531 -0.2669
  205MOL0     C26987   8.950   2.950   8.119 -0.3189  0.5561  0.0891
  205MOL0     C26988   9.062   2.940   8.221 -0.3425  0.3645  0.3472
  205MOL0     C26989   9.178   2.853   8.169 -0.3165  0.1133  0.3415
  205MOL0     C26990   9.288   2.836   8.277  0.1432 -1.4975 -0.2338
  205MOL0     C26991   9.397   2.762   8.224 -0.0201  0.6908 -0.2426
  205MOL0     C26992   9.493   2.724   8.159 -0.3640 -0.7582 -0.0527
  205MOL0     C26993   8.617   3.033   8.199  0.1967 -0.9103 -0.0594
  205MOL0     C26994   8.494   3.031   8.133 -0.5246 -0.1125  0.2697
  205MOL0     H26995   8.284   3.193   7.627  0.8013 -0.9037 -2.2337
  205MOL0     H26996   8.048   3.241   7.539  3.8304  2.0588  0.1893
  205MOL0     H26997   7.736   3.012   7.644  2.6029 -1.6241 -0.5945
  205MOL0     H26998   7.742   2.913   7.492  2.0180  0.3933 -2.1806
  205MOL0     H26999   7.629   3.056   7.362  2.1599 -2.9649 -0.7022
  205MOL0     H27000   7.639   3.197   7.473 -2.3125  0.1530  0.9612
  205MOL0     H27001   7.485   3.095   7.622  0.3309  0.5297  0.5476
  205MOL0     H27002   7.488   2.942   7.516 -0.6455  0.7054 -3.4556
  205MOL0     H27003   7.430   3.223   7.413  2.7078 -0.9766 -1.2526
  205MOL0     H27004   7.387   3.070   7.339  2.7833 -0.1065  0.1106
  205MOL0     H27005   7.262   3.196   7.598  2.3716  2.5533 -0.8712
  205MOL0     H27006   7.239   3.022   7.558  0.7092 -0.1420 -1.0186
  205MOL0     H27007   7.141   3.069   7.344  1.7355  1.5753 -1.8759
  205MOL0     H27008   7.150   3.239   7.370 -3.3269 -1.7313 -1.8258
  205MOL0     H27009   6.998   3.054   7.546  4.1936  2.0444  2.2971
  205MOL0     H27010   6.998   3.236   7.542  0.4200 -1.0986  1.7566
  205MOL0     H27011   6.791   3.097   7.440 -0.6213 -0.4858 -0.7755
  205MOL0     H27012   6.903   3.037   7.326 -2.7167  0.6328 -1.7499
  205MOL0     H27013   6.669   3.334   7.374 -1.5917 -3.6202 -0.3055
  205MOL0     H27014   6.620   3.491   7.164 -0.3071 -0.1897 -0.6413
  205MOL0     H27015   6.739   3.594   7.096 -0.1254 -1.3742 -1.0283
  205MOL0     H27016   6.796   3.670   7.338 -0.0446  1.8666  0.8087
  205MOL0     H27017   6.642   3.607   7.391 -0.1635  0.0007  0.2811
  205MOL0     H27018   6.622   3.821   7.351 -0.1123  2.8095 -1.3520
  205MOL0     H27019   6.691   3.829   7.181  1.5662 -3.0821 -1.9757
  205MOL0     H27020   6.498   3.691   7.101 -2.5108 -0.4644 -0.0102
  205MOL0     H27021   6.487   3.855   7.136  0.1910 -0.9016 -2.9204
  205MOL0     H27022   6.274   3.793   7.068  1.7723 -0.2391  2.8858
  205MOL0     H27023   6.046   3.788   7.004 -2.3122  0.9484  0.4727
  205MOL0     H27024   5.669   3.576   6.918 -0.1979 -0.2707  0.8944
  205MOL0     H27025   5.422   3.584   6.858  0.4613 -0.7800  1.1467
  205MOL0     H27026   5.166   3.907   7.049  1.5311 -0.4260 -1.6638
  205MOL0     H27027   5.183   3.743   7.123  0.7612  0.9085 -1.1550
  205MOL0     H27028   4.944   3.812   7.064  2.0235 -0.9546  2.6459
  205MOL0     H27029   5.006   3.669   6.974 -0.0722  0.4374 -2.8367
  205MOL0     H27030   5.056   3.823   6.775 -0.7211  3.2824 -2.0334
  205MOL0     H27031   5.009   3.966   6.865  2.2047 -0.6509  0.8971
  205MOL0     H27032   4.825   3.725   6.797 -1.1066  0.4669 -0.0530
  205MOL0     H27033   4.784   3.870   6.897  1.6375  0.1839  0.7258
  205MOL0     H27034   4.907   3.932   6.627  0.3012  2.7372  1.7309
  205MOL0     H27035   4.782   4.006   6.722  1.3801  1.3506 -1.7563
  205MOL0     H27036   4.655   3.932   6.533  0.6557  0.5888 -0.4832
  205MOL0     H27037   4.626   3.813   6.668 -1.6347 -1.6980 -0.7572
  205MOL0     H27038   4.784   3.656   6.560  2.6237 -1.2529 -1.4435
  205MOL0     H27039   4.640   3.691   6.468  1.8195 -1.5223  1.4109
  205MOL0     H27040   4.861   3.683   6.352  1.1198  1.2798 -1.4562
  205MOL0     H27041   4.888   3.845   6.423 -1.0087  1.1031 -2.4594
  205MOL0     H27042   5.399   3.971   7.038 -1.1474 -0.8301  1.9737
  205MOL0     H27043   5.648   3.967   7.072  1.1233 -0.4167  1.1781
  205MOL0     H27044   5.960   3.583   7.375 -0.6870 -0.7538 -0.3839
  205MOL0     H27045   6.214   3.627   7.445 -0.8107 -1.7507 -1.1202
  205MOL0     H27046   7.919   2.863   7.685 -1.3385  1.9942  1.8622
  205MOL0     H27047   8.140   2.833   7.803  0.8806  0.4319  0.3540
  205MOL0     H27048   8.584   3.061   7.806  0.7538 -2.0738 -0.5700
  205MOL0     H27049   8.806   3.056   7.916 -0.4399  0.8518  0.8221
  205MOL0     H27050   8.965   2.992   8.019 -0.2001 -2.6800 -1.3937
  205MOL0     H27051   8.920   2.849   8.089 -1.6646  1.0351 -0.2737
  205MOL0     H27052   9.102   3.042   8.225 -0.7374  0.5368 -0.0282
  205MOL0     H27053   9.034   2.918   8.324 -0.9468  1.6410  0.4671
  205MOL0     H27054   9.227   2.908   8.088  1.3676  0.6873  1.7023
  205MOL0     H27055   9.136   2.754   8.148  1.8640 -0.6932 -0.4911
  205MOL0     H27056   9.325   2.937   8.300  0.5344 -1.2933 -1.6406
  205MOL0     H27057   9.248   2.799   8.372  0.8001  0.3828  0.8339
  205MOL0     H27058   9.585   2.707   8.107  0.8761  3.0808  0.5550
  205MOL0     H27059   8.619   3.035   8.307  0.9176 -1.8288 -0.0379
  205MOL0     H27060   8.404   3.010   8.189 -2.3353  1.6199 -1.7966
  206MOL0     O27061  10.920  10.099   0.834  0.4829  0.2650  0.0331
  206MOL0     C27062  10.928  10.196   0.915  0.1588  0.6162  0.1102
  206MOL0     O27063  10.829  10.264   0.978 -0.3006  0.4036  0.2985
  206MOL0     C27064  10.701  10.234   0.937 -0.2294 -0.1500 -0.6367
  206MOL0     C27065  10.631  10.139   1.007 -0.0468 -0.4870 -0.0698
  206MOL0     C27066  10.502  10.094   0.966  0.0887 -0.4901  0.3637
  206MOL0     C27067  10.441  10.159   0.864  0.2468  0.6843  0.3211
  206MOL0     O27068  10.316  10.137   0.810 -0.2265  0.3944 -0.3599
  206MOL0     C27069  10.212  10.146   0.906  0.0463  0.2184 -0.1364
  206MOL0     C27070  10.087  10.202   0.858  0.1477 -0.0330 -0.2605
  206MOL0     C27071  10.032  10.127   0.734 -0.3146 -0.4720 -0.3851
  206MOL0     C27072   9.919  10.196   0.658 -0.2890 -0.0680 -0.0058
  206MOL0     C27073   9.787  10.225   0.732 -0.1510 -0.9310  0.1289
  206MOL0     C27074   9.703  10.114   0.796  0.3438  1.0378 -0.0091
  206MOL0     C27075   9.627  10.033   0.681  0.0945  0.9392  0.1981
  206MOL0     C27076   9.528  10.116   0.602 -0.1664 -0.7592  0.8380
  206MOL0     N27077   9.396  10.072   0.640 -0.3389  0.4045  0.1129
  206MOL0     C27078   9.318  10.135   0.734 -0.6403  0.4507 -0.2259
  206MOL0     C27079   9.202  10.074   0.723  0.7521 -0.2293 -0.4403
  206MOL0     C27080   9.072  10.117   0.789 -0.0466  0.4817  0.1004
  206MOL0     C27081   8.964  10.006   0.794 -0.9453 -0.4060  0.5589
  206MOL0     C27082   8.886   9.989   0.665  0.3172  0.5451 -0.0108
  206MOL0     C27083   8.775   9.874   0.695 -0.7518 -0.7704  0.0853
  206MOL0     O27084   8.715   9.848   0.572  0.2076  0.1146 -0.3031
  206MOL0     C27085   8.588   9.799   0.566  0.4946  0.8727  0.7608
  206MOL0     C27086   8.488   9.782   0.663  0.3141 -0.0542 -0.5027
  206MOL0     C27087   8.363   9.722   0.645 -0.8524  0.9897 -0.2255
  206MOL0     C27088   8.330   9.684   0.517 -0.8647  1.1397  0.3406
  206MOL0     C27089   8.202   9.631   0.484  0.8118 -0.8758  0.3889
  206MOL0     O27090   8.147   9.639   0.353 -1.0855 -0.9731 -0.0055
  206MOL0     C27091   8.018   9.630   0.315 -0.0293 -0.6526 -0.4353
  206MOL0     C27092   7.981   9.613   0.185  0.3449  0.3796  1.0530
  206MOL0     C27093   7.854   9.629   0.144  0.4796 -0.1114  0.2022
  206MOL0     C27094   7.747   9.657   0.228  0.3662 -0.4669 -0.6996
  206MOL0     O27095   7.612   9.681   0.202  0.3835  0.4819 -0.7555
  206MOL0     C27096   7.586   9.739   0.073 -0.9970 -0.8710  0.1642
  206MOL0     C27097   7.502   9.658  -0.022 -0.3238  0.1754  0.7223
  206MOL0     C27098   7.465   9.725  -0.155  0.0044  0.2461  0.4784
  206MOL0     C27099   7.414   9.636  -0.275 -0.0400  0.6762 -0.5743
  206MOL0     C27100   7.260   9.619  -0.278  0.3564  0.9228  0.0525
  206MOL0     C27101   7.208   9.510  -0.384 -0.4642 -1.8434  0.7873
  206MOL0     C27102   7.053   9.517  -0.387 -0.8410 -0.6281  0.0478
  206MOL0     C27103   7.002   9.422  -0.491 -0.5804  0.6007 -0.2042
  206MOL0    Cl27104   6.827   9.436  -0.527 -0.5061  0.2670  0.6782
  206MOL0     C27105   7.783   9.663   0.360 -0.6804 -0.4195 -0.4976
  206MOL0     C27106   7.914   9.650   0.408  0.4040 -0.3219 -0.3573
  206MOL0     O27107   8.148   9.577   0.576  0.1438  0.4169  0.1266
  206MOL0     C27108   8.420   9.711   0.417 -1.2643  0.0468 -0.0896
  206MOL0     C27109   8.552   9.753   0.439 -0.5869  1.2035  0.3173
  206MOL0     N27110   9.202   9.980   0.625 -0.4265  0.2107 -0.4913
  206MOL0     N27111   9.319   9.973   0.584  0.3787 -1.1160 -0.5762
  206MOL0     C27112  10.517  10.248   0.790  0.1361  0.0719  0.6950
  206MOL0     C27113  10.646  10.285   0.825  0.8963  0.5619  0.0870
  206MOL0     C27114  11.067  10.233   0.956 -0.2717 -0.4940  0.1891
  206MOL0     C27115  11.091  10.327   1.059 -0.3461  0.5130  0.0435
  206MOL0     C27116  11.219  10.364   1.096 -0.1702  0.2047  0.6627
  206MOL0     C27117  11.332  10.306   1.042  0.3122  0.1994  0.9076
  206MOL0     O27118  11.456  10.328   1.085  0.2046 -0.4612  0.2459
  206MOL0     C27119  11.570  10.260   1.035  0.4709  0.2260  0.0656
  206MOL0     C27120  11.685  10.294   1.130  0.8219  1.2333  0.1397
  206MOL0     C27121  11.814  10.231   1.082 -0.2769 -0.1608 -0.5413
  206MOL0     C27122  11.814  10.084   1.047  0.8469  0.2444  0.1872
  206MOL0     C27123  11.946  10.017   1.053 -0.0156 -0.0866 -0.0287
  206MOL0     C27124  12.053   9.969   1.047 -0.2462  0.4206 -0.2540
  206MOL0     C27125  11.312  10.223   0.931 -0.1437 -0.1250  0.6719
  206MOL0     C27126  11.179  10.184   0.898  0.4165  0.9130  0.6279
  206MOL0     H27127  10.663  10.100   1.103 -3.2317  0.0689  1.3584
  206MOL0     H27128  10.445  10.014   1.012 -1.1550 -2.1762 -3.6562
  206MOL0     H27129  10.246  10.216   0.983  1.0925 -0.5490  0.1225
  206MOL0     H27130  10.206  10.052   0.962  2.5287  1.5376  2.6704
  206MOL0     H27131  10.105  10.307   0.834  2.0529 -0.5201 -1.1018
  206MOL0     H27132  10.014  10.191   0.939 -0.6260 -1.9201 -1.1448
  206MOL0     H27133   9.987  10.032   0.766 -0.4693  0.5097  2.6225
  206MOL0     H27134  10.106  10.102   0.657 -0.1031  0.8575 -0.6368
  206MOL0     H27135   9.958  10.293   0.628  0.4375  0.4784  2.4782
  206MOL0     H27136   9.895  10.140   0.567 -0.5976  1.3851 -0.8399
  206MOL0     H27137   9.726  10.278   0.657  1.7519  0.1537 -0.7275
  206MOL0     H27138   9.809  10.295   0.814 -1.1596 -0.6533  0.1777
  206MOL0     H27139   9.630  10.145   0.872  0.2257 -0.3547  0.4926
  206MOL0     H27140   9.769  10.035   0.833 -0.2962 -0.9217 -2.7466
  206MOL0     H27141   9.700   9.994   0.608  0.8810  2.3413  0.2075
  206MOL0     H27142   9.574   9.949   0.727 -1.1618  0.8888 -1.2703
  206MOL0     H27143   9.545  10.101   0.495 -1.7544  3.7382 -0.2694
  206MOL0     H27144   9.542  10.223   0.617  0.0968 -0.6928  0.1689
  206MOL0     H27145   9.338  10.214   0.806 -0.3835  0.5268 -0.3788
  206MOL0     H27146   9.041  10.212   0.744  0.1748  1.7214  2.4054
  206MOL0     H27147   9.093  10.148   0.892 -2.1967  0.5873  0.5454
  206MOL0     H27148   8.895  10.033   0.875  1.1612  2.5809  1.5118
  206MOL0     H27149   9.010   9.910   0.819 -0.8402 -0.7100 -0.7364
  206MOL0     H27150   8.847  10.084   0.628  2.1458  0.6159 -1.9419
  206MOL0     H27151   8.939   9.939   0.583 -1.6084 -1.3037 -0.2097
  206MOL0     H27152   8.709   9.894   0.780  1.5845  0.5654  1.6967
  206MOL0     H27153   8.828   9.783   0.726  3.9709 -0.1316 -4.6753
  206MOL0     H27154   8.509   9.813   0.765  3.3360  1.2324 -1.4054
  206MOL0     H27155   8.305   9.707   0.735  0.4587 -1.7331  0.2889
  206MOL0     H27156   8.070   9.600   0.124 -1.1303  0.4535 -1.2047
  206MOL0     H27157   7.833   9.622   0.038 -3.7591  1.1683  0.7792
  206MOL0     H27158   7.679   9.769   0.025 -1.9854 -0.5884 -1.6547
  206MOL0     H27159   7.534   9.834   0.089 -0.3563 -0.7375  1.6187
  206MOL0     H27160   7.410   9.637   0.034 -0.3133  0.6090  0.9103
  206MOL0     H27161   7.563   9.572  -0.048 -0.4004  0.1385  0.6631
  206MOL0     H27162   7.556   9.776  -0.189  1.0226  0.5429  3.3768
  206MOL0     H27163   7.390   9.800  -0.130 -0.5191  0.7911 -2.4027
  206MOL0     H27164   7.446   9.677  -0.371 -0.8620  2.1886 -0.2333
  206MOL0     H27165   7.451   9.534  -0.262 -1.7309 -0.1980 -2.1356
  206MOL0     H27166   7.206   9.712  -0.295  0.7270  1.4590  1.6968
  206MOL0     H27167   7.226   9.584  -0.180  3.6893  0.2693  1.1117
  206MOL0     H27168   7.241   9.410  -0.355  2.9716 -0.4139  2.3419
  206MOL0     H27169   7.260   9.533  -0.477  0.2197  0.1245  1.5949
  206MOL0     H27170   7.009   9.483  -0.293 -2.8645  1.2260 -0.1291
  206MOL0     H27171   7.025   9.619  -0.417  1.9181  0.2209  0.0311
  206MOL0     H27172   7.041   9.323  -0.467  1.0085  1.6799  2.0667
  206MOL0     H27173   7.053   9.449  -0.584 -3.8841  2.8690 -1.5457
  206MOL0     H27174   7.715   9.655   0.445 -1.0690  1.6465 -0.5626
  206MOL0     H27175   7.910   9.664   0.515 -0.3251 -1.2018 -0.2615
  206MOL0     H27176   8.387   9.676   0.320 -2.3167 -1.3136  0.7170
  206MOL0     H27177   8.632   9.759   0.366  0.2229 -0.7097  0.9923
  206MOL0     H27178  10.483  10.302   0.703  1.2444 -3.7422 -2.4271
  206MOL0     H27179  10.704  10.354   0.766  0.5950  0.3587 -0.4583
  206MOL0     H27180  11.009  10.367   1.117  1.3703  0.4796  2.6545
  206MOL0     H27181  11.224  10.447   1.165 -1.9296  0.7015  0.2454
  206MOL0     H27182  11.597  10.289   0.933  1.6772 -1.1644 -0.0483
  206MOL0     H27183  11.541  10.155   1.036  0.3904  0.2496  0.3620
  206MOL0     H27184  11.697  10.402   1.135 -0.3167  1.4098 -0.4759
  206MOL0     H27185  11.668  10.253   1.230 -0.2388  1.1296 -0.0676
  206MOL0     H27186  11.891  10.255   1.157 -0.4230  3.9461 -1.4566
  206MOL0     H27187  11.857  10.293   1.003  4.0645 -0.9360  0.9349
  206MOL0     H27188  11.746  10.036   1.119  0.3932 -0.4151 -0.6714
  206MOL0     H27189  11.771  10.071   0.948 -2.1109  0.2356  1.3582
  206MOL0     H27190  12.154   9.934   1.040 -0.4827 -0.3378  0.0733
  206MOL0     H27191  11.388  10.166   0.878 -1.3206  0.9720 -2.4492
  206MOL0     H27192  11.167  10.100   0.830  1.7305  0.7907  0.5085
  207MOL0     O27193   0.498  10.724   2.823 -0.0384 -0.3818  0.9907
  207MOL0     C27194   0.549  10.647   2.904  0.3308  0.5501 -0.1413
  207MOL0     O27195   0.481  10.608   3.016 -0.0265  0.7921 -0.7948
  207MOL0     C27196   0.351  10.641   3.032 -0.1440 -0.2320 -0.8913
  207MOL0     C27197   0.312  10.718   3.141  0.0695  0.5405 -0.0700
  207MOL0     C27198   0.182  10.758   3.171  0.6946  0.2201 -0.7425
  207MOL0     C27199   0.081  10.726   3.083 -0.0311  0.4847  0.4934
  207MOL0     O27200  -0.052  10.756   3.075 -0.4084  0.3529  0.0008
  207MOL0     C27201  -0.092  10.853   3.172  0.1826 -1.1534 -0.7466
  207MOL0     C27202  -0.246  10.865   3.189  0.1923 -0.0341 -0.1294
  207MOL0     C27203  -0.321  10.729   3.209  0.2497  0.4322  0.1039
  207MOL0     C27204  -0.477  10.758   3.221  0.2436 -0.7672  0.3395
  207MOL0     C27205  -0.542  10.619   3.254 -0.4311 -0.5327 -0.3630
  207MOL0     C27206  -0.690  10.651   3.230  0.0556 -0.1899 -0.4607
  207MOL0     C27207  -0.772  10.535   3.250 -0.4172 -0.2179  0.9788
  207MOL0     C27208  -0.768  10.428   3.142  0.0755 -0.8795  0.0203
  207MOL0     N27209  -0.852  10.321   3.183 -0.3532  0.0763 -0.0184
  207MOL0     C27210  -0.912  10.234   3.100 -0.3335 -0.4882  0.8705
  207MOL0     C27211  -0.972  10.147   3.183 -0.2309  0.6913 -0.0100
  207MOL0     C27212  -1.047  10.036   3.127 -0.2102  0.4543 -0.5280
  207MOL0     C27213  -1.189  10.030   3.181 -0.2775  0.3045 -0.3769
  207MOL0     C27214  -1.202   9.997   3.334 -0.5696  0.0802 -0.1325
  207MOL0     C27215  -1.338   9.931   3.382 -0.7329  0.0663 -0.2872
  207MOL0     O27216  -1.446  10.018   3.358  0.4626 -1.2006  0.3485
  207MOL0     C27217  -1.485  10.116   3.450 -0.2726 -0.2095  0.0142
  207MOL0     C27218  -1.412  10.155   3.565 -0.2356 -0.4391  0.8953
  207MOL0     C27219  -1.474  10.241   3.658 -0.4284 -0.6853  0.2700
  207MOL0     C27220  -1.606  10.277   3.647 -0.2369  0.1254 -0.1730
  207MOL0     C27221  -1.681  10.357   3.751  0.1395 -0.2043 -0.2206
  207MOL0     O27222  -1.787  10.429   3.700 -0.2682  0.4463 -0.0228
  207MOL0     C27223  -1.902  10.449   3.759  0.3557 -0.4681 -0.5941
  207MOL0     C27224  -1.965  10.567   3.727 -0.8328  0.3131 -0.0428
  207MOL0     C27225  -2.086  10.600   3.783 -0.3621 -0.1405  0.6877
  207MOL0     C27226  -2.134  10.525   3.892 -0.3232  0.1660 -0.8195
  207MOL0     O27227  -2.237  10.562   3.979 -0.4678 -0.1608 -0.0096
  207MOL0     C27228  -2.335  10.641   3.902 -0.2813 -0.5237  0.3019
  207MOL0     C27229  -2.468  10.647   3.983  0.5019  0.6513  0.2636
  207MOL0     C27230  -2.561  10.718   3.883 -0.3943 -0.1741 -0.0506
  207MOL0     C27231  -2.707  10.742   3.927 -0.2436 -0.5072  0.7496
  207MOL0     C27232  -2.798  10.760   3.801 -0.3696 -0.1358  0.0048
  207MOL0     C27233  -2.941  10.772   3.852 -0.0866 -0.7872  0.5238
  207MOL0     C27234  -3.048  10.804   3.749  0.3148 -0.3324 -0.8769
  207MOL0     C27235  -3.190  10.806   3.805 -0.5126 -0.4337 -0.3403
  207MOL0    Cl27236  -3.296  10.848   3.669  0.8529  0.2872  0.0342
  207MOL0     C27237  -2.057  10.418   3.941  0.2566  0.5075  0.6100
  207MOL0     C27238  -1.941  10.385   3.879  0.8411 -0.3837  0.5612
  207MOL0     O27239  -1.659  10.347   3.869 -0.2090  0.5644  0.1246
  207MOL0     C27240  -1.687  10.230   3.538  0.9537  0.0240  0.2376
  207MOL0     C27241  -1.625  10.155   3.436 -0.6072 -0.2218 -0.8634
  207MOL0     N27242  -0.941  10.175   3.318 -0.3934 -0.6737  0.6056
  207MOL0     N27243  -0.859  10.280   3.310  0.3218 -0.2503  0.4425
  207MOL0     C27244   0.118  10.637   2.978  0.4237 -0.0317 -0.2849
  207MOL0     C27245   0.256  10.597   2.949 -0.1511 -0.9628 -0.2835
  207MOL0     C27246   0.685  10.607   2.897 -0.9781 -0.0701  0.4862
  207MOL0     C27247   0.745  10.551   3.004 -0.1816  0.2355  0.6174
  207MOL0     C27248   0.877  10.502   3.002 -0.0020  0.6012 -0.1735
  207MOL0     C27249   0.948  10.497   2.878  0.2403 -0.4162  0.7484
  207MOL0     O27250   1.068  10.438   2.875  0.3336 -0.5150 -0.6320
  207MOL0     C27251   1.143  10.454   2.749  0.2170 -0.9112  0.1256
  207MOL0     C27252   1.275  10.388   2.754  1.2698 -0.0788  0.2585
  207MOL0     C27253   1.344  10.427   2.617  0.0711  0.4222 -0.0046
  207MOL0     C27254   1.474  10.355   2.606  0.0596 -0.4771 -0.2713
  207MOL0     C27255   1.546  10.400   2.492 -0.6021 -0.0592  0.0479
  207MOL0     C27256   1.595  10.441   2.389 -0.2354  0.0059 -0.0346
  207MOL0     C27257   0.882  10.552   2.762  0.0976  1.2002 -1.0288
  207MOL0     C27258   0.756  10.612   2.773 -0.4556 -0.2716  0.0031
  207MOL0     H27259   0.386  10.755   3.211 -0.8542  3.0009 -0.2877
  207MOL0     H27260   0.161  10.825   3.254  1.2631  1.1291 -1.3232
  207MOL0     H27261  -0.052  10.949   3.138  0.7651 -0.6176  1.3286
  207MOL0     H27262  -0.045  10.821   3.265 -0.5729  0.1053  0.1010
  207MOL0     H27263  -0.287  10.912   3.099  0.7964 -0.6977 -0.7657
  207MOL0     H27264  -0.269  10.936   3.269  3.6702 -0.9072  1.8431
  207MOL0     H27265  -0.285  10.680   3.299 -0.7618 -1.1448 -0.3112
  207MOL0     H27266  -0.306  10.662   3.124  3.6672  2.0050 -0.7013
  207MOL0     H27267  -0.499  10.819   3.308 -0.9868  1.9364 -1.7224
  207MOL0     H27268  -0.517  10.806   3.131  1.7722  0.0382  0.0555
  207MOL0     H27269  -0.518  10.586   3.355 -1.4436 -0.3954 -0.0777
  207MOL0     H27270  -0.499  10.549   3.182 -0.3899 -0.9247  0.0446
  207MOL0     H27271  -0.688  10.687   3.127  1.7915  1.9806  0.2692
  207MOL0     H27272  -0.709  10.734   3.299  2.9688 -0.1860  0.4768
  207MOL0     H27273  -0.745  10.501   3.350 -1.5787  3.1013  2.5563
  207MOL0     H27274  -0.876  10.568   3.253 -0.6068 -0.4996 -1.0854
  207MOL0     H27275  -0.666  10.393   3.125  1.1200  2.2187 -0.6961
  207MOL0     H27276  -0.809  10.468   3.049  0.4443  2.7448  1.2599
  207MOL0     H27277  -0.914  10.236   2.991 -1.1071  0.3789  0.8883
  207MOL0     H27278  -0.998   9.941   3.153 -3.0224 -0.9858 -0.1425
  207MOL0     H27279  -1.058  10.049   3.019  0.1186  1.4290 -0.4533
  207MOL0     H27280  -1.246   9.959   3.120 -0.2160  0.2052 -0.3193
  207MOL0     H27281  -1.240  10.124   3.159  1.0833  1.7213  2.0440
  207MOL0     H27282  -1.123   9.932   3.373 -0.4419  0.4039  0.1550
  207MOL0     H27283  -1.186  10.091   3.388 -0.6880  0.3982 -0.6465
  207MOL0     H27284  -1.333   9.901   3.487  0.7000 -4.0102 -1.3567
  207MOL0     H27285  -1.352   9.836   3.331  1.1178 -0.4504  0.0688
  207MOL0     H27286  -1.310  10.123   3.582  1.0018  3.3298  1.5482
  207MOL0     H27287  -1.431  10.273   3.753  2.8394 -0.6930 -1.0638
  207MOL0     H27288  -1.918  10.621   3.645 -1.2119  0.3622 -0.2339
  207MOL0     H27289  -2.135  10.689   3.744  1.5121  0.9647  0.7611
  207MOL0     H27290  -2.346  10.596   3.803  1.2860 -1.0203  0.3139
  207MOL0     H27291  -2.301  10.744   3.886 -0.9771 -0.0219  1.8947
  207MOL0     H27292  -2.452  10.702   4.076 -0.4118 -0.5832  1.1896
  207MOL0     H27293  -2.496  10.543   4.004  1.3566  0.5913  1.1965
  207MOL0     H27294  -2.551  10.677   3.782 -2.6696  0.6044 -0.6491
  207MOL0     H27295  -2.513  10.816   3.876 -0.2978 -0.1775  0.4967
  207MOL0     H27296  -2.735  10.658   3.991  0.6499 -0.8870  0.6533
  207MOL0     H27297  -2.711  10.832   3.989 -2.8943 -1.3618  1.9651
  207MOL0     H27298  -2.802  10.668   3.743  2.2427 -0.2534 -0.1038
  207MOL0     H27299  -2.763  10.852   3.752  2.2494  0.0771  2.0452
  207MOL0     H27300  -2.952  10.863   3.912 -2.9823 -1.3768  1.0071
  207MOL0     H27301  -2.980  10.679   3.894 -1.1421 -0.7411 -0.3354
  207MOL0     H27302  -3.022  10.901   3.706  1.2665 -0.2331 -0.1094
  207MOL0     H27303  -3.038  10.731   3.668  1.8555 -0.0912 -0.9228
  207MOL0     H27304  -3.201  10.875   3.889 -0.6017 -0.9166  0.0532
  207MOL0     H27305  -3.224  10.708   3.840 -0.2923 -1.1940 -2.1592
  207MOL0     H27306  -2.093  10.364   4.029 -0.6531  2.3604  1.4394
  207MOL0     H27307  -1.877  10.311   3.927  2.3183 -0.0195 -0.7361
  207MOL0     H27308  -1.795  10.236   3.528  0.9978 -1.9956 -2.9858
  207MOL0     H27309  -1.687  10.108   3.359 -1.1440 -0.2197 -0.4408
  207MOL0     H27310   0.045  10.607   2.904 -1.6170  0.5461  1.4140
  207MOL0     H27311   0.283  10.541   2.860 -2.1256 -0.6085 -1.1503
  207MOL0     H27312   0.687  10.557   3.096  2.1619 -0.2571  2.2479
  207MOL0     H27313   0.927  10.474   3.094 -0.6973 -1.8716 -0.4859
  207MOL0     H27314   1.153  10.563   2.743 -1.4288 -0.7681 -0.7008
  207MOL0     H27315   1.087  10.418   2.662  1.0906  4.3065 -3.0029
  207MOL0     H27316   1.339  10.434   2.830  0.5945  1.1050  0.1283
  207MOL0     H27317   1.261  10.281   2.768 -2.0207  0.1478 -0.3768
  207MOL0     H27318   1.354  10.535   2.621 -3.9785  0.9557  1.4444
  207MOL0     H27319   1.280  10.401   2.532  2.9040 -2.7920 -1.3946
  207MOL0     H27320   1.550  10.364   2.684 -0.2427  0.2252 -0.0558
  207MOL0     H27321   1.448  10.249   2.592 -2.5909  0.3689 -2.7945
  207MOL0     H27322   1.650  10.456   2.298 -0.7741  1.3988 -0.1505
  207MOL0     H27323   0.924  10.574   2.664  2.4586  2.4252  0.1543
  207MOL0     H27324   0.711  10.652   2.682 -0.6850  0.3489  0.3760
  208MOL0     O27325   1.036   4.045   9.892  0.6218  0.9167  0.2655
  208MOL0     C27326   1.120   4.103   9.957  0.6289  0.2038 -0.3499
  208MOL0     O27327   1.095   4.184  10.063 -0.0966 -0.2766  0.1005
  208MOL0     C27328   0.970   4.199  10.105  0.2254  0.2065  0.4221
  208MOL0     C27329   0.909   4.326  10.086 -0.6966  0.3656  1.2716
  208MOL0     C27330   0.785   4.341  10.131  1.0042 -0.0259 -0.7408
  208MOL0     C27331   0.713   4.243  10.200 -0.0935  0.1019 -0.5742
  208MOL0     O27332   0.593   4.266  10.271  0.9852 -0.2433 -0.4394
  208MOL0     C27333   0.514   4.384  10.242  0.7531  0.3492 -1.2382
  208MOL0     C27334   0.379   4.375  10.327 -1.0026  0.5923  0.3143
  208MOL0     C27335   0.319   4.510  10.354 -0.3643 -0.1377  0.0304
  208MOL0     C27336   0.163   4.494  10.381 -0.3944 -0.2892 -0.7562
  208MOL0     C27337   0.150   4.452  10.531  0.4809  0.5785 -0.2355
  208MOL0     C27338   0.002   4.468  10.565  0.7167  0.0938 -0.0144
  208MOL0     C27339  -0.039   4.388  10.687 -0.7386  0.0244 -0.0200
  208MOL0     C27340  -0.181   4.417  10.719  0.1259  0.3337 -0.4161
  208MOL0     N27341  -0.205   4.550  10.763  0.3080 -0.7560 -0.5230
  208MOL0     C27342  -0.191   4.594  10.899  0.7489 -0.6793 -0.6523
  208MOL0     C27343  -0.248   4.719  10.899  0.1103  0.5297  0.4780
  208MOL0     C27344  -0.273   4.814  11.017 -0.5230  1.3717  0.7527
  208MOL0     C27345  -0.358   4.752  11.129 -0.8468  0.5166 -0.4611
  208MOL0     C27346  -0.359   4.842  11.253  1.3812  0.2753 -0.3252
  208MOL0     C27347  -0.228   4.840  11.329  1.4960  0.5192 -0.3717
  208MOL0     O27348  -0.235   4.921  11.447  0.1578 -0.3940 -0.1336
  208MOL0     C27349  -0.328   4.872  11.541 -0.4092  0.1469 -0.1038
  208MOL0     C27350  -0.418   4.964  11.592  0.8215  0.0922  0.2466
  208MOL0     C27351  -0.509   4.920  11.688  0.7652  0.0468  1.0792
  208MOL0     C27352  -0.511   4.793  11.734  0.0330  0.3509  0.6688
  208MOL0     C27353  -0.598   4.768  11.849 -0.4168 -0.7786  0.2786
  208MOL0     O27354  -0.674   4.869  11.895  0.1112  0.3545  0.5542
  208MOL0     C27355  -0.761   4.835  11.996  0.2054  0.7993  0.5989
  208MOL0     C27356  -0.717   4.791  12.118 -0.2901  0.9671 -0.1367
  208MOL0     C27357  -0.815   4.765  12.225 -1.2427  0.6785  0.0343
  208MOL0     C27358  -0.949   4.797  12.217  0.2302  0.3928  0.0331
  208MOL0     O27359  -1.035   4.788  12.324 -0.3522  0.0238  0.0134
  208MOL0     C27360  -1.119   4.897  12.344  0.6302 -0.3496 -0.7075
  208MOL0     C27361  -1.258   4.859  12.392 -0.5190 -0.5505  0.2770
  208MOL0     C27362  -1.348   4.982  12.387 -0.5430 -0.8671 -0.5932
  208MOL0     C27363  -1.489   4.953  12.447  0.2777 -0.0102  0.2767
  208MOL0     C27364  -1.498   4.953  12.598 -0.7024 -0.2185  0.1327
  208MOL0     C27365  -1.638   4.935  12.650  0.7770  0.4606 -0.0710
  208MOL0     C27366  -1.640   4.895  12.800  1.1527  0.8894 -0.5127
  208MOL0     C27367  -1.777   4.931  12.863  0.1718 -0.1773 -0.8380
  208MOL0    Cl27368  -1.759   4.949  13.039 -0.2653 -0.4781 -0.0293
  208MOL0     C27369  -0.994   4.841  12.087 -0.8507 -0.2285  0.2389
  208MOL0     C27370  -0.900   4.860  11.980  0.1657  0.4094  0.7295
  208MOL0     O27371  -0.600   4.651  11.888  0.0619 -0.6786 -0.5646
  208MOL0     C27372  -0.422   4.698  11.686 -0.4686 -0.9178  0.2934
  208MOL0     C27373  -0.331   4.743  11.587 -1.6226 -0.3542  0.5886
  208MOL0     N27374  -0.258   4.766  10.769 -0.7316 -0.3280  0.6071
  208MOL0     N27375  -0.244   4.663  10.687  0.4080  0.3769  0.1006
  208MOL0     C27376   0.773   4.122  10.217 -0.6787 -0.9895 -0.0238
  208MOL0     C27377   0.896   4.099  10.151 -0.5397  0.8263 -0.2642
  208MOL0     C27378   1.261   4.076   9.919  0.7949 -0.2411  0.5938
  208MOL0     C27379   1.302   3.977   9.829  0.2587  0.6392 -0.7254
  208MOL0     C27380   1.436   3.954   9.806 -0.4278  0.0220  1.7524
  208MOL0     C27381   1.536   4.029   9.867  0.2056  0.5408 -1.2568
  208MOL0     O27382   1.666   4.020   9.842  0.0396  0.8512 -0.0875
  208MOL0     C27383   1.704   3.964   9.723  0.2657 -0.7048  1.0024
  208MOL0     C27384   1.710   4.069   9.604 -0.5647 -0.5455  0.2577
  208MOL0     C27385   1.786   4.210   9.636  0.1063 -0.0378 -0.5039
  208MOL0     C27386   1.810   4.286   9.514 -0.0038  0.3683  0.0060
  208MOL0     C27387   1.927   4.229   9.447 -0.0066 -0.1031 -0.3292
  208MOL0     C27388   2.032   4.190   9.396 -0.6173 -0.3994  0.4279
  208MOL0     C27389   1.499   4.126   9.964 -0.2020 -0.6373  0.7150
  208MOL0     C27390   1.365   4.157   9.988  0.5614  0.9305  0.0188
  208MOL0     H27391   0.958   4.405  10.030 -1.5074  0.3048  0.4367
  208MOL0     H27392   0.751   4.443  10.113  2.1285  0.4885 -0.0236
  208MOL0     H27393   0.490   4.394  10.136 -0.5782  0.6557 -0.9228
  208MOL0     H27394   0.574   4.475  10.257  2.7284 -1.1985  1.0556
  208MOL0     H27395   0.399   4.324  10.422  2.1957  0.5801 -0.2449
  208MOL0     H27396   0.304   4.320  10.269 -1.1996  0.5044  0.6510
  208MOL0     H27397   0.331   4.577  10.269 -0.3064  0.0882  0.2162
  208MOL0     H27398   0.388   4.553  10.427 -0.6333  0.6390 -0.1675
  208MOL0     H27399   0.121   4.594  10.362  0.8324  0.0931 -1.5843
  208MOL0     H27400   0.121   4.416  10.317 -1.6776 -0.0726 -0.2213
  208MOL0     H27401   0.215   4.523  10.582  0.8265 -0.2772  0.5427
  208MOL0     H27402   0.174   4.346  10.545 -0.1839  0.1023 -2.3258
  208MOL0     H27403  -0.053   4.433  10.478  0.9510 -0.3456  0.0089
  208MOL0     H27404  -0.013   4.576  10.577 -0.7338  0.2082 -2.4009
  208MOL0     H27405  -0.028   4.282  10.664  1.5915 -0.0703  1.2456
  208MOL0     H27406   0.015   4.412  10.780 -0.8808 -1.0289  0.3488
  208MOL0     H27407  -0.226   4.344  10.786 -2.2780  0.3095 -1.9335
  208MOL0     H27408  -0.233   4.425  10.623  1.4464 -0.0695 -1.1909
  208MOL0     H27409  -0.167   4.546  10.993  0.7764 -0.2830 -0.4591
  208MOL0     H27410  -0.321   4.904  10.978  0.2739  1.7684  0.6635
  208MOL0     H27411  -0.174   4.840  11.055  0.6339  2.3505 -2.5560
  208MOL0     H27412  -0.304   4.660  11.155 -2.9138 -0.7958 -0.5504
  208MOL0     H27413  -0.455   4.720  11.089 -1.4735  0.2533  1.1994
  208MOL0     H27414  -0.391   4.944  11.233  4.2170  1.0966 -1.0981
  208MOL0     H27415  -0.432   4.801  11.324  1.2933 -0.6829 -0.9552
  208MOL0     H27416  -0.151   4.872  11.258  1.4877 -1.5580 -1.4027
  208MOL0     H27417  -0.205   4.734  11.345  2.4603  0.8665  0.6511
  208MOL0     H27418  -0.418   5.068  11.560 -0.7444  0.0202 -0.0772
  208MOL0     H27419  -0.573   4.995  11.734  0.4847  1.5586 -1.5653
  208MOL0     H27420  -0.611   4.782  12.138 -0.0108 -1.7296 -2.2587
  208MOL0     H27421  -0.780   4.749  12.327 -0.2952  0.5345 -0.2976
  208MOL0     H27422  -1.130   4.984  12.279  1.0337  1.4867  1.5450
  208MOL0     H27423  -1.074   4.947  12.430 -0.7314  1.4373 -0.9565
  208MOL0     H27424  -1.252   4.809  12.489 -0.0217  1.3737  1.2915
  208MOL0     H27425  -1.301   4.785  12.324 -0.8723 -3.1270  3.0794
  208MOL0     H27426  -1.347   5.033  12.290 -0.0521  0.7899  0.2511
  208MOL0     H27427  -1.292   5.049  12.452 -1.2354 -1.1420  0.3030
  208MOL0     H27428  -1.554   5.034  12.415  3.4735  1.2232 -3.9826
  208MOL0     H27429  -1.529   4.854  12.422  0.1285  0.1750 -0.2292
  208MOL0     H27430  -1.459   5.047  12.637 -1.4581  0.4981 -0.7897
  208MOL0     H27431  -1.426   4.884  12.644  0.1619  1.2454  1.0372
  208MOL0     H27432  -1.696   4.862  12.593  0.5609  0.7663 -0.2467
  208MOL0     H27433  -1.705   5.020  12.634  0.3779  0.7974  2.9131
  208MOL0     H27434  -1.615   4.789  12.804  2.6406  1.2106 -0.7501
  208MOL0     H27435  -1.553   4.943  12.847  1.0240  1.7603 -1.1375
  208MOL0     H27436  -1.861   4.862  12.852 -0.2383  0.4341 -1.6735
  208MOL0     H27437  -1.825   5.020  12.821  0.6366 -0.6616 -2.4860
  208MOL0     H27438  -1.102   4.842  12.081 -1.0731 -1.4030  2.6916
  208MOL0     H27439  -0.933   4.891  11.881 -1.0543 -3.2266 -0.1597
  208MOL0     H27440  -0.411   4.600  11.731  1.0297  0.0242  2.1211
  208MOL0     H27441  -0.255   4.675  11.550  0.4963  1.2898  1.6945
  208MOL0     H27442   0.736   4.043  10.282  0.3482 -2.5856 -1.2739
  208MOL0     H27443   0.936   3.999  10.156  1.2865  1.3164 -2.9447
  208MOL0     H27444   1.223   3.918   9.783 -0.6894 -2.6096  4.1584
  208MOL0     H27445   1.447   3.876   9.731 -3.0116  0.2270  1.0690
  208MOL0     H27446   1.644   3.881   9.684 -2.1961  2.0873 -1.8105
  208MOL0     H27447   1.808   3.937   9.743  0.0329 -1.6145  1.0199
  208MOL0     H27448   1.762   4.015   9.524 -0.0327 -0.3281  0.4513
  208MOL0     H27449   1.605   4.079   9.573  0.0659 -0.0803 -1.9082
  208MOL0     H27450   1.881   4.189   9.686  0.3773  0.8246 -0.6265
  208MOL0     H27451   1.719   4.267   9.701  0.9973  0.0351  0.3882
  208MOL0     H27452   1.718   4.285   9.454  0.1845 -1.9037 -0.3602
  208MOL0     H27453   1.839   4.390   9.527 -0.5196  0.8632 -2.3175
  208MOL0     H27454   2.119   4.148   9.349 -0.0981 -0.5984  1.5464
  208MOL0     H27455   1.574   4.185  10.016 -1.2489  0.3230  1.1758
  208MOL0     H27456   1.342   4.243  10.049  0.7804  1.6614 -0.9000
  209MOL0     O27457   5.255   2.847   5.788 -0.1324  0.1166  0.6901
  209MOL0     C27458   5.220   2.859   5.899  0.8016  0.5644 -0.1984
  209MOL0     O27459   5.095   2.892   5.937 -0.3184 -0.1562 -0.0761
  209MOL0     C27460   4.986   2.904   5.844 -0.3836 -0.2783 -0.2264
  209MOL0     C27461   4.861   2.900   5.910 -0.5887  0.1417 -0.2615
  209MOL0     C27462   4.743   2.931   5.845 -0.2193 -0.6905  0.6512
  209MOL0     C27463   4.744   2.948   5.703 -0.4657  0.0305  0.4161
  209MOL0     O27464   4.632   2.967   5.626  0.7696 -0.6102 -0.0574
  209MOL0     C27465   4.499   2.952   5.681  0.6004 -0.4293 -0.7900
  209MOL0     C27466   4.401   2.971   5.573  0.6988 -1.0865  0.6174
  209MOL0     C27467   4.258   2.936   5.626 -0.6735  0.5379 -0.5659
  209MOL0     C27468   4.173   2.938   5.506 -0.0630 -0.8335  0.7106
  209MOL0     C27469   4.019   2.933   5.534  0.7903 -0.6749  0.8585
  209MOL0     C27470   3.943   2.899   5.393  0.5869 -0.4263 -0.2827
  209MOL0     C27471   3.800   2.865   5.414 -0.3526 -1.0638 -0.4936
  209MOL0     C27472   3.734   2.825   5.284 -0.2447  0.5682  0.0505
  209MOL0     N27473   3.583   2.827   5.317 -0.4843 -0.5558 -0.2519
  209MOL0     C27474   3.508   2.713   5.360 -0.9652  0.1048  0.3554
  209MOL0     C27475   3.373   2.744   5.340  0.0577 -0.5510 -0.0495
  209MOL0     C27476   3.260   2.655   5.378  0.1521 -0.3771  0.4692
  209MOL0     C27477   3.202   2.604   5.253 -1.0562 -0.3982  0.2851
  209MOL0     C27478   3.080   2.506   5.274  0.5946  0.5219 -0.9128
  209MOL0     C27479   2.971   2.575   5.351 -0.0620  0.8785  0.2790
  209MOL0     O27480   2.877   2.483   5.393  0.4767  0.2382  0.7015
  209MOL0     C27481   2.775   2.526   5.481 -0.3558  0.5367 -1.1929
  209MOL0     C27482   2.761   2.658   5.538 -0.7673 -0.0766  0.7545
  209MOL0     C27483   2.657   2.676   5.628 -0.7396 -0.2945  0.3139
  209MOL0     C27484   2.554   2.582   5.651 -0.3949  0.2516  0.4576
  209MOL0     C27485   2.446   2.609   5.747  0.8199 -0.2175 -0.7635
  209MOL0     O27486   2.370   2.506   5.791 -0.5354  0.4764  0.2155
  209MOL0     C27487   2.260   2.534   5.872 -0.5149  1.0241 -0.1584
  209MOL0     C27488   2.256   2.465   5.993  0.5720 -0.1737 -0.3761
  209MOL0     C27489   2.153   2.485   6.087  0.4548 -0.3028 -0.4907
  209MOL0     C27490   2.037   2.547   6.049  0.0920 -0.7993 -0.1391
  209MOL0     O27491   1.929   2.543   6.131 -0.0294  0.2187 -0.6984
  209MOL0     C27492   1.905   2.442   6.226  0.1600  0.6901  0.0181
  209MOL0     C27493   1.780   2.478   6.303  0.3898  0.0489  0.0397
  209MOL0     C27494   1.756   2.391   6.435  0.5472  0.2032  0.3752
  209MOL0     C27495   1.630   2.433   6.531 -0.1249  0.3940  0.3725
  209MOL0     C27496   1.581   2.309   6.604  0.1025  0.0915 -0.0850
  209MOL0     C27497   1.468   2.340   6.698  0.1637  0.4555 -0.0794
  209MOL0     C27498   1.404   2.214   6.756  0.0256  0.1827 -0.1618
  209MOL0     C27499   1.283   2.203   6.846 -0.0369 -0.0030  0.2243
  209MOL0    Cl27500   1.131   2.232   6.746 -0.2069 -0.0404 -0.1378
  209MOL0     C27501   2.030   2.604   5.924 -0.2177 -0.6172  0.0295
  209MOL0     C27502   2.148   2.605   5.839  0.0317  0.0716  0.4186
  209MOL0     O27503   2.435   2.721   5.788 -0.1924 -0.0011 -0.1790
  209MOL0     C27504   2.562   2.464   5.582  0.4514  0.0285  0.0171
  209MOL0     C27505   2.677   2.426   5.508 -0.0502 -0.3563 -0.0447
  209MOL0     N27506   3.360   2.877   5.297  0.7464 -0.6251 -0.2579
  209MOL0     N27507   3.486   2.925   5.288  0.7378  0.1640 -0.1943
  209MOL0     C27508   4.863   2.951   5.637  0.5656 -0.5635  0.1731
  209MOL0     C27509   4.986   2.943   5.705  0.8789 -0.0356  0.4444
  209MOL0     C27510   5.320   2.838   6.005 -0.3894  0.7893 -1.2121
  209MOL0     C27511   5.276   2.811   6.132  0.1771 -0.2691 -0.1718
  209MOL0     C27512   5.364   2.786   6.234 -1.0828  1.1194 -1.1243
  209MOL0     C27513   5.506   2.786   6.212  0.6116 -0.0361  0.3888
  209MOL0     O27514   5.588   2.743   6.318 -0.2771  0.2176 -0.1378
  209MOL0     C27515   5.721   2.693   6.282  0.3186  0.0161  0.1632
  209MOL0     C27516   5.828   2.809   6.290  0.4915  0.1599 -0.4848
  209MOL0     C27517   5.966   2.748   6.272  0.4758 -0.5327  0.3118
  209MOL0     C27518   6.070   2.825   6.188  1.1058  0.3703 -0.5652
  209MOL0     C27519   6.085   2.961   6.242 -0.2890 -0.3259  0.0149
  209MOL0     C27520   6.129   3.068   6.281  0.3529  0.1938  0.5697
  209MOL0     C27521   5.551   2.816   6.089 -0.4886  0.4976 -0.3694
  209MOL0     C27522   5.457   2.843   5.981  0.1727  0.6452  0.0045
  209MOL0     H27523   4.862   2.873   6.016  0.3314 -0.6346 -0.4547
  209MOL0     H27524   4.646   2.920   5.893 -1.9692  1.1565 -2.1714
  209MOL0     H27525   4.467   3.018   5.762  0.2960 -1.2220 -0.2535
  209MOL0     H27526   4.491   2.847   5.711  1.3480 -1.0797 -2.7254
  209MOL0     H27527   4.426   2.922   5.479  1.1309  1.4214 -0.6693
  209MOL0     H27528   4.402   3.079   5.558 -3.3685 -1.0064 -0.3045
  209MOL0     H27529   4.234   3.007   5.705  0.3889 -0.4504  0.6895
  209MOL0     H27530   4.251   2.839   5.676 -1.3356  1.4260  1.1282
  209MOL0     H27531   4.165   3.037   5.460 -0.8782 -0.7221  1.0755
  209MOL0     H27532   4.214   2.869   5.432  1.8473  0.8872  0.0763
  209MOL0     H27533   3.980   3.017   5.592 -1.4328 -0.9430 -0.1436
  209MOL0     H27534   4.004   2.844   5.596 -0.0267 -1.3144 -0.2214
  209MOL0     H27535   3.988   2.809   5.350 -1.1512 -0.4176 -2.2815
  209MOL0     H27536   3.954   2.984   5.324 -3.0626  1.2328  0.9619
  209MOL0     H27537   3.793   2.779   5.481 -0.6712  1.6924  3.2957
  209MOL0     H27538   3.762   2.959   5.456  2.6831 -0.0452  0.2273
  209MOL0     H27539   3.768   2.732   5.239  0.6200  0.3905  1.0318
  209MOL0     H27540   3.755   2.904   5.211  4.3742  1.4925  2.0719
  209MOL0     H27541   3.556   2.617   5.377 -2.4520 -1.0150 -1.3785
  209MOL0     H27542   3.190   2.718   5.433 -0.5010 -1.5403  1.0060
  209MOL0     H27543   3.288   2.572   5.444  2.0448 -2.2689 -2.4595
  209MOL0     H27544   3.274   2.546   5.195 -2.7656 -2.3086 -0.0309
  209MOL0     H27545   3.170   2.691   5.194  0.0162 -1.2380 -1.6350
  209MOL0     H27546   3.040   2.475   5.177  0.3949  1.2686 -1.0744
  209MOL0     H27547   3.104   2.412   5.324  0.4243 -0.1928 -2.1424
  209MOL0     H27548   2.909   2.629   5.279  0.0542 -1.3395 -1.6032
  209MOL0     H27549   3.006   2.635   5.435  0.3505  0.5357  0.3554
  209MOL0     H27550   2.829   2.737   5.507  0.1943 -1.5817 -1.2282
  209MOL0     H27551   2.660   2.775   5.672 -1.5583 -1.0651  2.1917
  209MOL0     H27552   2.351   2.429   6.031  1.3846  1.4154 -0.8032
  209MOL0     H27553   2.171   2.450   6.188 -2.0380  0.3425  0.2311
  209MOL0     H27554   1.986   2.435   6.299  0.1240  0.1979  0.0125
  209MOL0     H27555   1.899   2.346   6.175  1.6217 -0.3526  1.7048
  209MOL0     H27556   1.690   2.465   6.243 -1.0979  0.4775  2.0555
  209MOL0     H27557   1.788   2.586   6.321 -1.8720  0.5163 -1.3993
  209MOL0     H27558   1.843   2.386   6.501  0.0398 -4.4387  1.0691
  209MOL0     H27559   1.742   2.288   6.399  1.1556  0.4339 -0.5680
  209MOL0     H27560   1.647   2.519   6.597 -0.3620  2.0863 -1.6596
  209MOL0     H27561   1.553   2.460   6.458  0.8566  0.0355 -0.8205
  209MOL0     H27562   1.665   2.262   6.654 -1.6757  0.9667  4.1855
  209MOL0     H27563   1.550   2.242   6.523 -2.4154 -1.1338  1.7351
  209MOL0     H27564   1.384   2.389   6.649 -0.3355 -1.2981 -1.0730
  209MOL0     H27565   1.500   2.412   6.773  0.0196  0.6923 -0.2444
  209MOL0     H27566   1.382   2.142   6.676  1.1430  0.6400 -0.9115
  209MOL0     H27567   1.483   2.169   6.817  1.5314 -1.7151 -3.2461
  209MOL0     H27568   1.274   2.261   6.938 -2.2525  1.0046 -0.5494
  209MOL0     H27569   1.263   2.098   6.868 -2.7569 -0.3663 -3.1049
  209MOL0     H27570   1.935   2.644   5.890 -0.8577 -2.4514 -0.4174
  209MOL0     H27571   2.146   2.649   5.740  5.2549 -2.3233 -1.0682
  209MOL0     H27572   2.479   2.395   5.586 -0.4202  0.9956 -0.8720
  209MOL0     H27573   2.676   2.329   5.460 -0.2098  0.0402 -0.8664
  209MOL0     H27574   4.847   2.979   5.533 -1.0829 -1.6612  0.0884
  209MOL0     H27575   5.077   2.974   5.654  1.0333 -2.9984 -1.2823
  209MOL0     H27576   5.171   2.813   6.161 -0.0494  0.2415 -1.0090
  209MOL0     H27577   5.336   2.775   6.339 -1.9739 -1.8651 -1.5548
  209MOL0     H27578   5.734   2.658   6.179  3.9093 -0.0395  0.4885
  209MOL0     H27579   5.757   2.617   6.351  4.3028  2.1712  0.7780
  209MOL0     H27580   5.821   2.881   6.208  0.6596 -0.4405 -1.0332
  209MOL0     H27581   5.806   2.870   6.378  0.3320  0.2167 -0.5627
  209MOL0     H27582   5.959   2.647   6.230  1.6703 -0.1924 -0.7482
  209MOL0     H27583   6.006   2.735   6.373  1.6199  0.7886  0.0445
  209MOL0     H27584   6.156   2.759   6.202 -0.5581 -1.8288 -0.2433
  209MOL0     H27585   6.051   2.831   6.081 -0.2721 -0.8559 -0.4073
  209MOL0     H27586   6.166   3.154   6.334 -1.7333  0.9345  0.9292
  209MOL0     H27587   5.657   2.823   6.067 -0.7211 -0.5865 -1.9750
  209MOL0     H27588   5.482   2.875   5.880 -2.3306  1.7334 -0.3345
  210MOL0     O27589   6.066   8.130   2.140 -0.4055  0.2971  0.0572
  210MOL0     C27590   6.095   8.027   2.072  0.5227 -0.0454  0.0809
  210MOL0     O27591   6.001   7.924   2.054 -0.8499 -0.4310  0.9018
  210MOL0     C27592   5.880   7.916   2.123  0.3692 -0.1674 -0.7364
  210MOL0     C27593   5.821   7.793   2.118 -0.7545  0.7571 -0.0113
  210MOL0     C27594   5.688   7.773   2.167  1.0307 -0.9422 -0.7306
  210MOL0     C27595   5.611   7.884   2.224  0.0262  0.0439 -0.3293
  210MOL0     O27596   5.479   7.876   2.273 -0.4438 -0.7751  0.3755
  210MOL0     C27597   5.436   7.750   2.319  0.8593  0.5716  0.4610
  210MOL0     C27598   5.337   7.702   2.213  1.0680 -0.1591 -0.4291
  210MOL0     C27599   5.191   7.731   2.259 -0.7340 -0.2400 -0.7070
  210MOL0     C27600   5.089   7.685   2.163  0.4224  0.9267  0.4029
  210MOL0     C27601   4.949   7.721   2.200 -0.1745 -0.6087  0.0697
  210MOL0     C27602   4.851   7.687   2.096  0.3141 -0.5399 -0.1055
  210MOL0     C27603   4.703   7.738   2.113  0.0370  0.5267  0.8791
  210MOL0     C27604   4.640   7.676   2.233 -0.0077  0.6171 -0.1256
  210MOL0     N27605   4.492   7.683   2.209 -0.8516 -0.3513 -0.1383
  210MOL0     C27606   4.405   7.586   2.175  0.3558  0.0312 -0.4206
  210MOL0     C27607   4.279   7.641   2.198 -0.1877  0.0672 -0.4396
  210MOL0     C27608   4.144   7.570   2.164 -0.4015 -0.6401 -0.8562
  210MOL0     C27609   4.025   7.660   2.205 -1.2784  0.5805 -1.1130
  210MOL0     C27610   3.894   7.602   2.153 -0.5630  0.3334 -0.6020
  210MOL0     C27611   3.824   7.494   2.245  0.4049  1.1183 -0.4040
  210MOL0     O27612   3.692   7.469   2.208 -0.4099  0.0777 -0.3403
  210MOL0     C27613   3.640   7.345   2.236  0.4524 -0.3360  0.1136
  210MOL0     C27614   3.525   7.313   2.173  0.6903  0.7462 -0.6112
  210MOL0     C27615   3.454   7.195   2.202 -0.8415  0.4831 -0.6916
  210MOL0     C27616   3.497   7.109   2.311  0.1840  0.7198 -0.6927
  210MOL0     C27617   3.415   6.986   2.363 -0.2626  0.1461  1.1698
  210MOL0     O27618   3.446   6.943   2.484 -0.7493 -0.0926  1.2916
  210MOL0     C27619   3.354   6.856   2.541  0.6343 -0.7474 -0.4290
  210MOL0     C27620   3.396   6.735   2.583 -0.4120  0.3085 -0.8550
  210MOL0     C27621   3.311   6.652   2.660 -1.3697  0.3409 -0.4918
  210MOL0     C27622   3.181   6.694   2.679 -0.2466  0.4832 -0.0376
  210MOL0     O27623   3.108   6.598   2.743 -0.0023 -0.3056  0.1391
  210MOL0     C27624   2.968   6.598   2.721  0.7718 -0.2884  0.3263
  210MOL0     C27625   2.894   6.500   2.805  0.5417  0.5002  0.1954
  210MOL0     C27626   2.744   6.543   2.843 -0.6676  0.4721 -0.2448
  210MOL0     C27627   2.645   6.566   2.723 -0.5485  0.7741 -0.9992
  210MOL0     C27628   2.506   6.550   2.772 -0.8661  0.1935 -0.3066
  210MOL0     C27629   2.408   6.547   2.665 -0.3373 -0.1749  0.7639
  210MOL0     C27630   2.266   6.527   2.720 -0.4827  0.0146 -0.3857
  210MOL0     C27631   2.150   6.551   2.622  0.6215 -0.2048  0.8695
  210MOL0    Cl27632   2.145   6.408   2.519 -0.1091 -0.1381  0.4566
  210MOL0     C27633   3.136   6.820   2.641 -0.1770 -0.3193 -0.9278
  210MOL0     C27634   3.226   6.909   2.578 -0.7046  0.7528  0.0198
  210MOL0     O27635   3.312   6.967   2.300  0.2530 -0.1654  0.0058
  210MOL0     C27636   3.622   7.145   2.366 -0.2420 -0.9547 -0.2358
  210MOL0     C27637   3.694   7.259   2.330  0.9264 -0.1688 -0.0595
  210MOL0     N27638   4.289   7.763   2.262 -0.1886  0.0988 -0.2668
  210MOL0     N27639   4.413   7.786   2.264 -0.3549 -0.1655  0.1406
  210MOL0     C27640   5.674   8.005   2.219  0.5974  0.5800  0.5816
  210MOL0     C27641   5.802   8.023   2.170  0.4890  0.2800 -0.3262
  210MOL0     C27642   6.229   7.998   2.026 -0.4153  0.4496  0.5717
  210MOL0     C27643   6.270   7.871   1.975 -0.7818  0.8033  0.0374
  210MOL0     C27644   6.403   7.853   1.918  0.3909  0.7390  0.2548
  210MOL0     C27645   6.494   7.956   1.921  0.2694 -0.2537 -0.3968
  210MOL0     O27646   6.609   7.940   1.855  0.2430  0.1288  0.2326
  210MOL0     C27647   6.707   8.047   1.853  0.4535  0.1385  0.5973
  210MOL0     C27648   6.838   8.006   1.789  0.3398  0.8005  0.4238
  210MOL0     C27649   6.909   7.902   1.872 -0.1896 -0.1260 -0.7363
  210MOL0     C27650   7.027   7.840   1.796 -0.5503  0.5535  0.4318
  210MOL0     C27651   7.006   7.788   1.660  0.3145  0.1620  0.3736
  210MOL0     C27652   7.019   7.739   1.552  0.1148  0.1874  0.9475
  210MOL0     C27653   6.450   8.078   1.981 -1.4039 -0.7301  0.1554
  210MOL0     C27654   6.330   8.095   2.044  0.2580  0.5085 -0.7180
  210MOL0     H27655   5.877   7.717   2.063  2.1765  1.0365  2.3395
  210MOL0     H27656   5.649   7.673   2.181 -0.7631 -0.3637 -1.3260
  210MOL0     H27657   5.374   7.789   2.401 -1.2973  2.6625 -1.9972
  210MOL0     H27658   5.505   7.671   2.350 -0.9337 -0.0916  3.1593
  210MOL0     H27659   5.357   7.595   2.199  0.5766 -0.4476  0.9172
  210MOL0     H27660   5.354   7.744   2.114  2.2197 -1.0822 -0.6533
  210MOL0     H27661   5.167   7.837   2.270 -0.8451 -0.3845  0.5895
  210MOL0     H27662   5.173   7.691   2.359  0.4203  0.2431 -0.2905
  210MOL0     H27663   5.113   7.714   2.061 -2.7875 -1.8269 -1.3528
  210MOL0     H27664   5.086   7.576   2.158 -2.9517  0.9695 -2.2149
  210MOL0     H27665   4.931   7.829   2.207 -0.6295 -0.4626 -2.6250
  210MOL0     H27666   4.931   7.685   2.302 -0.5830  2.4600  1.2117
  210MOL0     H27667   4.864   7.578   2.094  0.8480 -0.4744 -0.3822
  210MOL0     H27668   4.902   7.727   2.008  1.3974  0.2595  0.8504
  210MOL0     H27669   4.692   7.847   2.116 -2.0785  0.5009 -1.9766
  210MOL0     H27670   4.649   7.703   2.024 -1.6486  1.0236  1.6606
  210MOL0     H27671   4.663   7.735   2.323  0.0758  0.1420  0.1694
  210MOL0     H27672   4.665   7.571   2.250  0.2565  0.7529  0.3494
  210MOL0     H27673   4.420   7.487   2.133 -0.2038 -0.0082 -0.5231
  210MOL0     H27674   4.149   7.473   2.215 -0.8522  1.1725  3.0162
  210MOL0     H27675   4.135   7.570   2.055 -0.1548  4.1591 -1.0832
  210MOL0     H27676   4.039   7.762   2.168  1.3652  1.1693  1.1595
  210MOL0     H27677   4.026   7.663   2.314  0.0655  1.4662 -1.1220
  210MOL0     H27678   3.821   7.680   2.177 -0.9463 -0.5949  1.4889
  210MOL0     H27679   3.908   7.579   2.047  0.5752 -0.9564 -0.1978
  210MOL0     H27680   3.817   7.525   2.350  0.7223  1.2431 -0.4193
  210MOL0     H27681   3.887   7.405   2.244 -0.9681  0.0687  1.0888
  210MOL0     H27682   3.497   7.377   2.090 -0.5093 -0.4177 -1.1364
  210MOL0     H27683   3.363   7.175   2.147  0.1130 -2.1533 -1.4605
  210MOL0     H27684   3.495   6.703   2.554 -0.6927 -0.0330 -1.4537
  210MOL0     H27685   3.338   6.553   2.697 -0.1619  1.6427  2.4174
  210MOL0     H27686   2.935   6.596   2.617 -1.2686 -0.0674  0.9275
  210MOL0     H27687   2.929   6.692   2.759 -0.6260 -0.7806  0.1619
  210MOL0     H27688   2.952   6.473   2.894  1.1168 -0.6689 -0.5173
  210MOL0     H27689   2.898   6.403   2.756  0.6979 -2.0735  4.7205
  210MOL0     H27690   2.742   6.632   2.907 -0.6820  0.3777 -0.1141
  210MOL0     H27691   2.711   6.452   2.893  0.4555 -0.3475 -0.9333
  210MOL0     H27692   2.676   6.658   2.674 -0.1815  0.9055 -0.5233
  210MOL0     H27693   2.660   6.481   2.656 -2.8007 -0.5772  0.1006
  210MOL0     H27694   2.478   6.634   2.836  0.6955  1.5839 -1.3658
  210MOL0     H27695   2.496   6.461   2.835 -1.4659  0.4372 -0.0516
  210MOL0     H27696   2.428   6.452   2.614 -3.0650 -0.1796 -0.4313
  210MOL0     H27697   2.415   6.631   2.595 -1.4317 -1.4825 -0.9863
  210MOL0     H27698   2.255   6.434   2.776  1.9083  0.3144  0.7069
  210MOL0     H27699   2.257   6.618   2.780 -0.2280  1.5956 -2.6270
  210MOL0     H27700   2.158   6.638   2.556  2.0930 -0.0722  1.1881
  210MOL0     H27701   2.049   6.561   2.664 -0.5361 -2.1599 -1.2030
  210MOL0     H27702   3.038   6.847   2.679 -0.3216 -1.5855 -0.3183
  210MOL0     H27703   3.193   7.005   2.539  0.7143  1.8867  1.4672
  210MOL0     H27704   3.643   7.079   2.450  0.0247 -1.7579 -0.9176
  210MOL0     H27705   3.783   7.293   2.383 -0.6360  0.7440  2.1306
  210MOL0     H27706   5.619   8.090   2.259  0.7717  1.2990 -0.6523
  210MOL0     H27707   5.838   8.125   2.159  2.3997 -0.1020  1.6936
  210MOL0     H27708   6.193   7.795   1.976  0.1993 -0.2130 -0.2879
  210MOL0     H27709   6.423   7.763   1.862 -1.0456  1.5855 -1.7144
  210MOL0     H27710   6.733   8.058   1.958  1.3067 -3.5681  0.8893
  210MOL0     H27711   6.685   8.139   1.798  2.8013 -0.0725 -0.8692
  210MOL0     H27712   6.812   7.964   1.691  0.3148  2.9161 -0.5273
  210MOL0     H27713   6.901   8.087   1.751  0.0158  0.3551 -1.1486
  210MOL0     H27714   6.839   7.822   1.898 -0.4838  0.8222  1.7009
  210MOL0     H27715   6.938   7.939   1.971  1.6557 -2.9109 -0.1218
  210MOL0     H27716   7.108   7.912   1.795  2.6300 -2.7142  1.1660
  210MOL0     H27717   7.065   7.761   1.861 -2.4093  0.2907  1.2830
  210MOL0     H27718   7.038   7.706   1.452 -0.6384 -0.8678  1.1335
  210MOL0     H27719   6.523   8.158   1.990 -1.6122 -0.6461  1.2963
  210MOL0     H27720   6.307   8.189   2.095  0.3547 -0.7431  1.8203
  211MOL0     O27721   0.171   1.149   6.193 -0.3665  0.3503 -0.6631
  211MOL0     C27722   0.249   1.159   6.292  0.4885  0.1273 -0.9472
  211MOL0     O27723   0.212   1.186   6.420 -0.0303  0.0434 -0.3027
  211MOL0     C27724   0.075   1.203   6.439 -0.5827 -0.3131 -0.2471
  211MOL0     C27725   0.032   1.319   6.509  0.0513 -0.0896 -0.3465
  211MOL0     C27726  -0.104   1.319   6.540 -0.7620  0.0143  0.1455
  211MOL0     C27727  -0.205   1.234   6.493 -0.3505  0.0562  0.1877
  211MOL0     O27728  -0.340   1.239   6.512 -0.0094  0.4679 -0.2656
  211MOL0     C27729  -0.381   1.270   6.649  0.7843  0.4958  0.8470
  211MOL0     C27730  -0.539   1.278   6.661  0.7311  0.5646  1.2522
  211MOL0     C27731  -0.603   1.379   6.562 -0.5906 -0.3043 -0.2632
  211MOL0     C27732  -0.757   1.383   6.581  0.4764  0.1666 -0.1051
  211MOL0     C27733  -0.832   1.505   6.513 -0.4332  0.4959 -0.2572
  211MOL0     C27734  -0.984   1.498   6.545 -0.3731  0.2491 -0.2480
  211MOL0     C27735  -1.056   1.630   6.510 -0.1140 -0.3102 -0.8850
  211MOL0     C27736  -1.096   1.635   6.363  0.7439 -0.1743 -1.1728
  211MOL0     N27737  -1.234   1.572   6.336 -0.2858 -0.0341 -0.1506
  211MOL0     C27738  -1.277   1.450   6.375 -0.3919  0.6768 -0.6190
  211MOL0     C27739  -1.413   1.442   6.339  0.1225  0.2790  0.2028
  211MOL0     C27740  -1.510   1.331   6.383 -0.1031 -0.4286 -0.9084
  211MOL0     C27741  -1.439   1.212   6.458 -0.1322  0.0104 -0.1763
  211MOL0     C27742  -1.393   1.104   6.362  0.1951  0.0710 -0.4095
  211MOL0     C27743  -1.503   1.030   6.295  0.1993 -0.1812 -0.0954
  211MOL0     O27744  -1.550   0.911   6.368  0.9402  0.0620  0.2370
  211MOL0     C27745  -1.483   0.799   6.370 -0.1432  0.0304 -0.1054
  211MOL0     C27746  -1.525   0.703   6.451 -0.6188 -0.2466 -0.3545
  211MOL0     C27747  -1.467   0.581   6.467  0.4151  0.2345  0.6013
  211MOL0     C27748  -1.357   0.545   6.394  0.6447 -0.5883 -0.9045
  211MOL0     C27749  -1.287   0.419   6.408  0.0388  0.5937 -0.8360
  211MOL0     O27750  -1.186   0.395   6.315  0.3286  0.5131 -0.1494
  211MOL0     C27751  -1.113   0.277   6.325  0.3526 -0.3510 -0.5817
  211MOL0     C27752  -1.091   0.211   6.206 -0.4259 -0.0712 -0.8618
  211MOL0     C27753  -1.004   0.109   6.200 -0.1873  0.0196  0.3694
  211MOL0     C27754  -0.942   0.054   6.315 -0.2062 -0.3996 -0.4580
  211MOL0     O27755  -0.851  -0.047   6.283  0.3271  0.0236  0.3128
  211MOL0     C27756  -0.748  -0.056   6.382 -0.0899  0.0077 -0.7816
  211MOL0     C27757  -0.639  -0.149   6.331 -0.4871 -0.6093 -0.3297
  211MOL0     C27758  -0.580  -0.081   6.206 -0.5821 -0.3769  0.6268
  211MOL0     C27759  -0.456  -0.148   6.169 -0.5412  0.3342 -0.5935
  211MOL0     C27760  -0.375  -0.073   6.051 -0.5659  0.0651  0.0343
  211MOL0     C27761  -0.236  -0.112   6.033 -0.2150  1.0054  0.5421
  211MOL0     C27762  -0.215  -0.255   5.980  0.3613 -0.1577  0.0389
  211MOL0     C27763  -0.072  -0.303   5.973 -0.2777  0.2787  0.2450
  211MOL0    Cl27764   0.027  -0.184   5.884 -0.0260 -0.0485  0.0606
  211MOL0     C27765  -0.962   0.122   6.442  0.5020 -1.1156 -0.4941
  211MOL0     C27766  -1.055   0.224   6.441 -0.5464 -0.2064  0.6174
  211MOL0     O27767  -1.329   0.335   6.489 -1.2353  0.0386 -0.3742
  211MOL0     C27768  -1.306   0.647   6.311 -0.1070 -0.1698  0.6127
  211MOL0     C27769  -1.376   0.763   6.287  0.4475  0.0556 -0.0876
  211MOL0     N27770  -1.451   1.562   6.286  0.2686 -0.7848  0.6326
  211MOL0     N27771  -1.337   1.636   6.283  0.7412  0.3635 -0.4890
  211MOL0     C27772  -0.156   1.120   6.432 -0.4229  0.5490  0.2436
  211MOL0     C27773  -0.021   1.110   6.405  0.5912 -0.5221 -0.7204
  211MOL0     C27774   0.396   1.140   6.270 -0.4978 -0.3524  0.2034
  211MOL0     C27775   0.480   1.219   6.350 -0.3091 -0.0779  0.1134
  211MOL0     C27776   0.623   1.205   6.342 -0.2740 -0.5407 -0.0770
  211MOL0     C27777   0.677   1.112   6.246 -0.4283 -0.9130 -0.4625
  211MOL0     O27778   0.816   1.110   6.236  0.1321 -0.0235 -0.4368
  211MOL0     C27779   0.887   1.004   6.184  0.3437  0.0189  0.1729
  211MOL0     C27780   1.020   1.002   6.256 -0.0385 -0.6372 -0.4466
  211MOL0     C27781   1.115   0.893   6.211 -0.3788 -0.3621  0.6003
  211MOL0     C27782   1.122   0.778   6.312  0.8960 -0.4575 -0.3329
  211MOL0     C27783   1.203   0.661   6.269  1.0845 -0.2004  0.0009
  211MOL0     C27784   1.256   0.565   6.217 -0.4861  0.7298  0.1904
  211MOL0     C27785   0.588   1.061   6.152  0.0369  0.5722  0.4699
  211MOL0     C27786   0.447   1.070   6.156  1.2853 -0.0542  0.1414
  211MOL0     H27787   0.108   1.393   6.531 -0.6334  0.5928 -0.2408
  211MOL0     H27788  -0.142   1.400   6.600 -1.4137 -0.0505 -0.1794
  211MOL0     H27789  -0.347   1.367   6.685 -1.8273  1.7516  0.1250
  211MOL0     H27790  -0.344   1.201   6.725 -3.9136 -3.4443  0.0946
  211MOL0     H27791  -0.571   1.301   6.763  3.7415  1.7863  2.0348
  211MOL0     H27792  -0.574   1.177   6.640  2.8453  0.4978 -3.2005
  211MOL0     H27793  -0.560   1.370   6.462  1.8281  2.0878  0.4634
  211MOL0     H27794  -0.557   1.475   6.588  2.5067 -1.3727 -1.2986
  211MOL0     H27795  -0.799   1.291   6.540  2.7238 -1.6482  1.3513
  211MOL0     H27796  -0.775   1.394   6.688  0.6093 -0.4918 -0.0128
  211MOL0     H27797  -0.802   1.502   6.408  2.3798  0.7873  0.4506
  211MOL0     H27798  -0.796   1.601   6.552 -2.3232  1.4091 -0.6155
  211MOL0     H27799  -0.982   1.479   6.653  2.7049 -0.0336 -0.2533
  211MOL0     H27800  -1.035   1.418   6.491 -1.3124 -0.5084  1.6729
  211MOL0     H27801  -1.149   1.646   6.567 -0.9618 -1.0295 -2.0208
  211MOL0     H27802  -0.992   1.713   6.542 -2.5003  0.2633  3.0115
  211MOL0     H27803  -1.021   1.579   6.306  0.6541 -1.4849 -0.0636
  211MOL0     H27804  -1.088   1.741   6.337  1.6476  1.4982  4.5112
  211MOL0     H27805  -1.222   1.372   6.427 -2.1850 -0.8934 -0.9659
  211MOL0     H27806  -1.574   1.302   6.300 -0.2880 -1.6695 -0.3476
  211MOL0     H27807  -1.572   1.386   6.454  1.9963  1.2631 -0.2646
  211MOL0     H27808  -1.511   1.158   6.519 -1.2602 -0.3680 -1.7726
  211MOL0     H27809  -1.354   1.248   6.517 -0.6506 -0.0030  0.5855
  211MOL0     H27810  -1.319   1.148   6.295  1.0059 -1.7431 -0.7625
  211MOL0     H27811  -1.342   1.028   6.422 -0.1652 -1.2577 -1.7193
  211MOL0     H27812  -1.464   0.997   6.198  0.9404  2.0847 -0.6247
  211MOL0     H27813  -1.592   1.090   6.274  0.1845  0.0393  0.5852
  211MOL0     H27814  -1.609   0.723   6.517  1.4895  3.2668  1.5965
  211MOL0     H27815  -1.504   0.512   6.542 -0.5815  1.4627  1.2732
  211MOL0     H27816  -1.135   0.249   6.114 -0.5107  1.0220 -0.3766
  211MOL0     H27817  -0.979   0.060   6.106  2.8210  0.8152  0.6760
  211MOL0     H27818  -0.779  -0.115   6.469 -0.3626 -3.3036 -2.9568
  211MOL0     H27819  -0.704   0.038   6.417 -0.3422 -0.0718 -0.2361
  211MOL0     H27820  -0.683  -0.248   6.316 -2.1700  0.0667 -0.1235
  211MOL0     H27821  -0.559  -0.157   6.405 -0.2740 -0.2612 -0.5174
  211MOL0     H27822  -0.560   0.024   6.230 -0.2317 -0.7149  1.8937
  211MOL0     H27823  -0.661  -0.080   6.133 -0.9783 -1.4601  1.0248
  211MOL0     H27824  -0.400  -0.153   6.263 -1.2714 -0.2143 -0.1833
  211MOL0     H27825  -0.477  -0.250   6.135 -0.0169  1.1506 -3.6537
  211MOL0     H27826  -0.385   0.034   6.071 -2.3943 -0.0160 -0.2510
  211MOL0     H27827  -0.431  -0.080   5.957 -0.3756 -2.8282  0.0493
  211MOL0     H27828  -0.192  -0.099   6.132  1.9291  0.9019 -0.3427
  211MOL0     H27829  -0.184  -0.044   5.964  0.2237 -0.9918 -1.2143
  211MOL0     H27830  -0.268  -0.328   6.041  0.4324 -1.0019 -0.8843
  211MOL0     H27831  -0.248  -0.247   5.876  0.7205  1.7990  0.0315
  211MOL0     H27832  -0.069  -0.391   5.909 -3.6529  0.1989  0.0161
  211MOL0     H27833  -0.026  -0.319   6.071 -1.9453  0.6099  1.1243
  211MOL0     H27834  -0.908   0.110   6.535 -0.1117 -1.5890 -0.1864
  211MOL0     H27835  -1.067   0.264   6.542  1.8660  0.8451  0.5772
  211MOL0     H27836  -1.207   0.637   6.267 -0.3719  0.9679 -0.2891
  211MOL0     H27837  -1.326   0.828   6.217  3.1062  0.3090  1.9083
  211MOL0     H27838  -0.226   1.042   6.406  2.6354 -2.4046  0.1020
  211MOL0     H27839   0.006   1.017   6.356 -1.1861 -0.6779 -1.4780
  211MOL0     H27840   0.438   1.280   6.429  0.2719  1.8198 -0.9702
  211MOL0     H27841   0.690   1.258   6.409  0.6168  1.2649 -2.2640
  211MOL0     H27842   0.904   1.012   6.076 -2.6978 -3.7563 -0.8214
  211MOL0     H27843   0.828   0.915   6.209 -1.2648  1.1379  0.4408
  211MOL0     H27844   1.057   1.104   6.242 -5.9972  1.7647 -2.2586
  211MOL0     H27845   1.005   1.002   6.364 -0.0671  1.9924 -0.3791
  211MOL0     H27846   1.211   0.944   6.201  0.0944 -1.5705 -1.9731
  211MOL0     H27847   1.093   0.844   6.115  0.6569 -1.9195  1.1207
  211MOL0     H27848   1.165   0.822   6.403  1.7179  2.5743 -2.0326
  211MOL0     H27849   1.027   0.725   6.322 -0.6836  2.2051 -0.2806
  211MOL0     H27850   1.320   0.492   6.171 -0.3523 -0.2758  1.9034
  211MOL0     H27851   0.628   1.011   6.064  0.9580  1.7590  0.1881
  211MOL0     H27852   0.383   1.017   6.086  0.2282  1.0382  0.2412
  212MOL0     O27853   4.347   9.655   4.414  0.2870 -0.3240  0.7690
  212MOL0     C27854   4.445   9.606   4.362 -0.4498  0.8283 -0.8537
  212MOL0     O27855   4.447   9.516   4.258 -0.9093 -0.0087 -0.0715
  212MOL0     C27856   4.335   9.448   4.216 -0.0626  0.3680 -0.3878
  212MOL0     C27857   4.342   9.394   4.084  0.1867  0.5348 -0.0537
  212MOL0     C27858   4.237   9.326   4.031  0.5360 -0.3656 -0.5654
  212MOL0     C27859   4.113   9.306   4.102 -0.9074 -0.0521  0.7240
  212MOL0     O27860   4.026   9.223   4.033  0.4981 -0.2670 -0.3855
  212MOL0     C27861   3.893   9.191   4.082 -0.6881  0.9237  0.0431
  212MOL0     C27862   3.838   9.081   3.987  0.5598 -0.5632  0.8362
  212MOL0     C27863   3.819   9.120   3.839  0.5228  0.1948  0.8308
  212MOL0     C27864   3.769   9.011   3.741 -0.5159 -0.4168 -0.1047
  212MOL0     C27865   3.842   8.882   3.742 -1.1571 -0.1217 -0.2429
  212MOL0     C27866   3.799   8.779   3.636  0.5031 -0.1471 -0.4673
  212MOL0     C27867   3.901   8.656   3.636  0.6914 -0.0388 -0.4588
  212MOL0     C27868   4.000   8.654   3.526 -0.1777  1.0600  0.5070
  212MOL0     N27869   4.109   8.550   3.530  0.3181  0.7722 -0.4356
  212MOL0     C27870   4.115   8.424   3.463  0.5481 -0.0385  0.2274
  212MOL0     C27871   4.249   8.396   3.460 -0.2754 -0.9159 -0.8089
  212MOL0     C27872   4.308   8.268   3.406 -0.7477  0.2791 -0.4865
  212MOL0     C27873   4.353   8.303   3.262 -0.0839  0.0012 -1.4576
  212MOL0     C27874   4.235   8.341   3.166 -0.3690 -0.1392  0.9022
  212MOL0     C27875   4.246   8.304   3.020  1.0200 -0.8218 -0.1453
  212MOL0     O27876   4.116   8.298   2.962 -0.0974 -0.1813  0.4859
  212MOL0     C27877   4.032   8.200   3.001 -0.1960  0.5531 -0.2067
  212MOL0     C27878   3.898   8.213   2.960  0.2256  0.6398  0.1439
  212MOL0     C27879   3.815   8.101   2.972 -0.0380 -0.5088  0.2301
  212MOL0     C27880   3.852   7.990   3.051 -0.6763 -0.8017  0.0923
  212MOL0     C27881   3.757   7.881   3.073  0.0939 -0.6503 -0.7520
  212MOL0     O27882   3.629   7.905   3.029 -0.0770 -0.3301  0.1824
  212MOL0     C27883   3.521   7.824   3.024  0.3391  0.4199 -0.8015
  212MOL0     C27884   3.535   7.693   3.020  0.1575 -0.6039 -0.9072
  212MOL0     C27885   3.436   7.605   3.052  0.0043 -0.0847  1.2761
  212MOL0     C27886   3.314   7.663   3.088 -0.1716 -0.6187 -1.0151
  212MOL0     O27887   3.237   7.563   3.136  0.2338 -0.3975  0.2141
  212MOL0     C27888   3.117   7.593   3.214  0.0847  0.6211 -0.7524
  212MOL0     C27889   3.072   7.462   3.283 -0.8998 -0.8774  0.3086
  212MOL0     C27890   2.956   7.479   3.375  0.2128  0.1913 -0.4954
  212MOL0     C27891   2.917   7.329   3.402  0.1411  0.5410 -0.6189
  212MOL0     C27892   2.800   7.291   3.490 -0.6831 -0.0560 -0.2516
  212MOL0     C27893   2.799   7.139   3.519  0.4915 -0.6636  0.7170
  212MOL0     C27894   2.677   7.094   3.600 -0.1903 -0.0131  0.2597
  212MOL0     C27895   2.695   6.956   3.653  0.1389  0.2319 -1.1537
  212MOL0    Cl27896   2.546   6.930   3.746 -0.0788  0.2928 -0.2330
  212MOL0     C27897   3.277   7.798   3.065  0.5284  0.3467 -1.0925
  212MOL0     C27898   3.387   7.879   3.039  1.3646 -0.5729  0.2419
  212MOL0     O27899   3.798   7.784   3.135  0.6134  0.1795 -0.7172
  212MOL0     C27900   3.986   7.982   3.096  0.2095  0.0249 -0.3450
  212MOL0     C27901   4.075   8.083   3.068 -0.3482 -0.3885  0.8033
  212MOL0     N27902   4.315   8.492   3.535 -0.4772  0.0382  0.1501
  212MOL0     N27903   4.238   8.580   3.571 -0.3151 -0.6862 -0.9930
  212MOL0     C27904   4.107   9.359   4.230  0.3503  0.2059 -0.0090
  212MOL0     C27905   4.212   9.424   4.293  0.0498 -0.1508 -0.6505
  212MOL0     C27906   4.575   9.662   4.407  0.0986  0.7716 -0.3943
  212MOL0     C27907   4.692   9.582   4.385  0.0347 -0.8211 -0.8955
  212MOL0     C27908   4.816   9.642   4.410 -0.0860 -0.9654  0.5409
  212MOL0     C27909   4.827   9.763   4.473 -0.5839 -1.3318  0.4305
  212MOL0     O27910   4.955   9.807   4.505  0.0503  0.5486  0.0506
  212MOL0     C27911   4.988   9.927   4.569 -0.3405  0.7786 -0.5069
  212MOL0     C27912   5.130   9.899   4.632  0.3666  0.1298  0.4502
  212MOL0     C27913   5.227   9.949   4.527  0.8302  0.3710  0.2140
  212MOL0     C27914   5.371   9.915   4.559  0.1977  0.5210 -0.6082
  212MOL0     C27915   5.455   9.978   4.461 -0.9023  0.4987 -0.3995
  212MOL0     C27916   5.539  10.024   4.380 -0.3664  0.6193  0.1225
  212MOL0     C27917   4.711   9.837   4.487 -0.5384 -1.7609 -0.0524
  212MOL0     C27918   4.586   9.787   4.466 -1.0506  0.0560  1.2188
  212MOL0     H27919   4.435   9.406   4.029 -0.9571  0.2731 -2.1161
  212MOL0     H27920   4.248   9.285   3.931  1.7030  1.7295 -1.3624
  212MOL0     H27921   3.821   9.274   4.073 -1.2134  0.2450 -2.9520
  212MOL0     H27922   3.890   9.158   4.186 -1.8906  1.1562  0.1016
  212MOL0     H27923   3.755   9.034   4.040 -0.8637  1.5929  0.6583
  212MOL0     H27924   3.916   9.005   3.986 -0.6092 -1.7923  1.0889
  212MOL0     H27925   3.913   9.156   3.795 -0.9942  1.8637 -1.1985
  212MOL0     H27926   3.740   9.194   3.832 -1.0428 -1.4114  0.7341
  212MOL0     H27927   3.666   8.996   3.774 -0.0662 -0.9895  1.0940
  212MOL0     H27928   3.779   9.065   3.647 -1.2769  1.0780  0.6300
  212MOL0     H27929   3.826   8.848   3.845 -0.3488  2.3715  0.7875
  212MOL0     H27930   3.948   8.903   3.723 -0.6116 -1.1815  1.3950
  212MOL0     H27931   3.799   8.822   3.536  2.3098 -0.3290 -0.5846
  212MOL0     H27932   3.704   8.741   3.674  0.0829  1.4238  0.1081
  212MOL0     H27933   3.945   8.644   3.736 -0.5594 -2.8330 -0.1478
  212MOL0     H27934   3.838   8.567   3.646 -0.9685  1.1457  0.1961
  212MOL0     H27935   4.047   8.753   3.523 -1.5365  1.6925 -1.1512
  212MOL0     H27936   3.952   8.647   3.428  1.3005 -1.5606 -0.1219
  212MOL0     H27937   4.037   8.368   3.412 -0.8996  2.3116 -0.2762
  212MOL0     H27938   4.240   8.184   3.394 -1.4961  0.9334 -0.8978
  212MOL0     H27939   4.391   8.234   3.469 -2.5184 -2.4430  0.5557
  212MOL0     H27940   4.398   8.211   3.224 -1.9891 -1.6292  0.0311
  212MOL0     H27941   4.434   8.376   3.265 -0.2510  0.1621 -0.5555
  212MOL0     H27942   4.150   8.291   3.214  0.0554  0.4558  2.3210
  212MOL0     H27943   4.208   8.447   3.166  1.0505  0.2439 -0.1422
  212MOL0     H27944   4.308   8.214   3.015 -1.1214 -2.3728 -0.0909
  212MOL0     H27945   4.302   8.386   2.973  0.1078 -0.1391 -0.0857
  212MOL0     H27946   3.871   8.302   2.905 -0.7507 -1.5046 -3.1482
  212MOL0     H27947   3.711   8.102   2.939 -0.3630 -3.3013  0.9387
  212MOL0     H27948   3.627   7.651   2.981  0.4780 -1.5459  0.7393
  212MOL0     H27949   3.449   7.497   3.050  1.6834  0.0131 -2.4414
  212MOL0     H27950   3.036   7.642   3.159 -0.0393  0.6308 -0.5619
  212MOL0     H27951   3.136   7.666   3.294  0.3191  0.6397 -0.8256
  212MOL0     H27952   3.159   7.422   3.335  0.3378 -0.0519 -1.0185
  212MOL0     H27953   3.044   7.406   3.193  1.9603  2.4077 -2.9698
  212MOL0     H27954   2.872   7.532   3.329 -0.2043 -0.9161 -1.0658
  212MOL0     H27955   2.980   7.536   3.466 -2.1611  3.2444 -1.5901
  212MOL0     H27956   2.895   7.282   3.306  0.4725 -0.1572 -0.3629
  212MOL0     H27957   3.007   7.276   3.434  0.8880  1.8480 -0.4803
  212MOL0     H27958   2.706   7.312   3.437 -0.3577  0.2921 -0.6993
  212MOL0     H27959   2.819   7.345   3.583  1.0328 -2.7107  1.0478
  212MOL0     H27960   2.895   7.116   3.564  0.4620  0.4093  1.3634
  212MOL0     H27961   2.801   7.093   3.419  2.5974  1.2618 -0.2284
  212MOL0     H27962   2.674   7.168   3.681  1.0752  0.8978 -0.4828
  212MOL0     H27963   2.582   7.091   3.546  0.1154  3.1654 -0.6609
  212MOL0     H27964   2.786   6.948   3.713  0.5065  4.2067 -0.9147
  212MOL0     H27965   2.700   6.882   3.573 -1.7065 -0.2559 -0.8517
  212MOL0     H27966   3.180   7.841   3.089 -1.2148 -2.0263 -3.4135
  212MOL0     H27967   3.381   7.987   3.026  0.7862 -0.3672  1.9551
  212MOL0     H27968   4.025   7.893   3.144 -0.2916 -0.0498 -0.0726
  212MOL0     H27969   4.173   8.073   3.113  0.4195 -0.3922 -0.8135
  212MOL0     H27970   4.018   9.353   4.293  0.7158  2.4833  0.8163
  212MOL0     H27971   4.190   9.475   4.386 -3.4882 -0.4461 -1.2063
  212MOL0     H27972   4.681   9.487   4.333  0.7890 -2.2313  1.3564
  212MOL0     H27973   4.909   9.594   4.381  1.1539  0.2087  2.3899
  212MOL0     H27974   4.921   9.946   4.653  1.3748  4.6098  0.2086
  212MOL0     H27975   4.976  10.005   4.492 -2.9100  1.6308  0.6170
  212MOL0     H27976   5.128   9.973   4.712 -3.4753  1.7764 -0.9399
  212MOL0     H27977   5.144   9.792   4.650  0.3876  0.0331 -0.1371
  212MOL0     H27978   5.209  10.057   4.516  0.0204  0.3844  1.4862
  212MOL0     H27979   5.208   9.907   4.428  1.0630 -0.1799  0.4000
  212MOL0     H27980   5.401   9.955   4.657 -0.1184 -1.4657  0.3595
  212MOL0     H27981   5.398   9.811   4.544  0.1256  0.7781 -2.8394
  212MOL0     H27982   5.617  10.074   4.326 -2.3602  3.9107 -0.0076
  212MOL0     H27983   4.720   9.940   4.522 -0.3244 -3.0724  4.3535
  212MOL0     H27984   4.493   9.842   4.477 -1.8736 -1.6278  3.5895
  213MOL0     O27985   5.626   6.900   8.089 -0.3072  0.1034  0.2456
  213MOL0     C27986   5.715   6.978   8.074 -0.9978  0.2926  1.1521
  213MOL0     O27987   5.698   7.101   8.011 -0.2062  0.4514  0.3581
  213MOL0     C27988   5.564   7.151   8.012  0.4677  0.0162  0.6110
  213MOL0     C27989   5.506   7.201   7.892 -0.2709 -0.5496 -0.4527
  213MOL0     C27990   5.372   7.237   7.885  0.1796  0.0362 -0.2814
  213MOL0     C27991   5.291   7.220   7.997 -0.1586 -0.6104  0.4399
  213MOL0     O27992   5.157   7.264   7.972 -0.1176  0.1030 -0.9378
  213MOL0     C27993   5.057   7.187   8.047 -0.1431  0.5357 -0.3107
  213MOL0     C27994   4.930   7.192   7.969  0.3464 -0.4238 -1.6552
  213MOL0     C27995   4.869   7.338   7.962 -0.7045 -0.2889  0.0185
  213MOL0     C27996   4.733   7.324   7.884 -0.5299  0.0771  0.0897
  213MOL0     C27997   4.672   7.455   7.830  0.3620 -0.4271  0.4067
  213MOL0     C27998   4.592   7.530   7.931  0.0714 -0.4071  0.6534
  213MOL0     C27999   4.532   7.666   7.880  0.2932  0.7148 -0.3231
  213MOL0     C28000   4.418   7.708   7.972  0.8060 -0.7462 -0.2378
  213MOL0     N28001   4.336   7.811   7.905  0.2297 -0.0007  0.3721
  213MOL0     C28002   4.310   7.943   7.935 -1.0660 -1.0093 -0.6373
  213MOL0     C28003   4.226   7.991   7.838 -0.2323 -0.9030  0.6256
  213MOL0     C28004   4.186   8.135   7.815 -0.4194 -0.2034 -0.0965
  213MOL0     C28005   4.028   8.137   7.792  0.1939 -0.2264 -0.3693
  213MOL0     C28006   3.980   8.280   7.765 -0.3229  0.1391  0.2873
  213MOL0     C28007   3.839   8.307   7.720 -0.0069  0.0898 -0.4293
  213MOL0     O28008   3.822   8.264   7.589  0.1263  0.2038  0.9087
  213MOL0     C28009   3.707   8.300   7.523  0.6147 -0.0098  0.5151
  213MOL0     C28010   3.715   8.314   7.386 -0.3793 -0.2374  0.0182
  213MOL0     C28011   3.598   8.338   7.309 -0.3029  0.6911  0.0030
  213MOL0     C28012   3.471   8.352   7.376  0.4407  0.9580  0.7697
  213MOL0     C28013   3.339   8.365   7.308  0.0019 -0.1329 -0.7537
  213MOL0     O28014   3.231   8.330   7.390  0.5093 -0.4485 -0.0450
  213MOL0     C28015   3.103   8.310   7.344 -0.6333  0.0049  0.9647
  213MOL0     C28016   3.050   8.367   7.233 -1.2089  0.1339 -0.2470
  213MOL0     C28017   2.925   8.337   7.201 -0.2075  0.5940 -0.2547
  213MOL0     C28018   2.845   8.244   7.273  0.2253 -0.7914 -0.3286
  213MOL0     O28019   2.717   8.220   7.226  0.6323  0.3897  1.0282
  213MOL0     C28020   2.633   8.191   7.330 -0.0900  0.4451 -0.1528
  213MOL0     C28021   2.492   8.175   7.275  0.0908 -0.1660 -0.0197
  213MOL0     C28022   2.373   8.166   7.379 -1.4583 -0.3417  0.3568
  213MOL0     C28023   2.360   8.297   7.457 -0.1536  0.2938 -0.4317
  213MOL0     C28024   2.261   8.273   7.576  1.0374 -0.2857 -0.0735
  213MOL0     C28025   2.121   8.267   7.521 -0.3049 -0.5635 -0.5848
  213MOL0     C28026   2.024   8.206   7.617  0.3096  0.9372 -0.5738
  213MOL0     C28027   1.968   8.313   7.704 -0.2445  0.1592  0.2199
  213MOL0    Cl28028   1.848   8.244   7.814  0.1183 -0.7909  0.1800
  213MOL0     C28029   2.902   8.202   7.396  0.3773 -0.5988 -0.1113
  213MOL0     C28030   3.030   8.234   7.424  1.2353  0.6020 -0.3380
  213MOL0     O28031   3.333   8.398   7.188  0.0946 -0.2687  0.8146
  213MOL0     C28032   3.463   8.340   7.514 -0.6045 -0.5163 -0.3786
  213MOL0     C28033   3.579   8.304   7.588  0.3308  0.5160 -0.3542
  213MOL0     N28034   4.209   7.889   7.743 -0.2104 -0.5674 -0.4561
  213MOL0     N28035   4.296   7.793   7.779  0.7950  0.8381  0.0312
  213MOL0     C28036   5.339   7.181   8.120 -0.2342  0.3702 -0.6089
  213MOL0     C28037   5.479   7.153   8.124 -0.5329  0.5522  0.5877
  213MOL0     C28038   5.852   6.940   8.116 -0.3771  0.2225  0.6940
  213MOL0     C28039   5.958   7.029   8.120  0.4383 -0.5612 -1.0999
  213MOL0     C28040   6.085   6.973   8.166  0.8726  0.1934 -0.0746
  213MOL0     C28041   6.096   6.840   8.215 -0.3160 -0.2542  0.2548
  213MOL0     O28042   6.216   6.807   8.275  0.3607  0.1702  0.0936
  213MOL0     C28043   6.238   6.681   8.342  0.1461  0.0259  0.3746
  213MOL0     C28044   6.238   6.554   8.248 -0.1627  0.6941  0.0938
  213MOL0     C28045   6.381   6.510   8.223  0.1759 -0.4430 -0.4902
  213MOL0     C28046   6.458   6.599   8.133 -0.9175 -0.5229  0.0871
  213MOL0     C28047   6.595   6.551   8.109  0.4964 -0.3454 -0.8526
  213MOL0     C28048   6.708   6.501   8.114  0.2825 -0.1733  0.8247
  213MOL0     C28049   5.984   6.761   8.214 -0.3891  0.1365  0.7222
  213MOL0     C28050   5.870   6.809   8.164  0.0331 -0.2306 -1.0894
  213MOL0     H28051   5.571   7.203   7.805  2.2582  1.3685  1.3285
  213MOL0     H28052   5.330   7.277   7.793  0.1828 -0.3344 -0.4472
  213MOL0     H28053   5.052   7.219   8.151  0.1319  1.1403 -0.4727
  213MOL0     H28054   5.092   7.084   8.033 -0.0098  0.9439 -3.9648
  213MOL0     H28055   4.861   7.120   8.015  0.3791 -0.5246 -1.7645
  213MOL0     H28056   4.957   7.163   7.867 -1.7812 -0.5138 -2.2560
  213MOL0     H28057   4.931   7.407   7.904 -3.2435  0.4103 -2.0718
  213MOL0     H28058   4.840   7.378   8.060 -2.4715  0.8431 -0.9164
  213MOL0     H28059   4.738   7.260   7.795  2.5443  0.4229 -0.0999
  213MOL0     H28060   4.667   7.263   7.946  0.0214 -0.0870  0.5208
  213MOL0     H28061   4.612   7.431   7.742  3.7070 -2.8239 -1.4428
  213MOL0     H28062   4.753   7.516   7.791  2.1963 -2.3752  0.9906
  213MOL0     H28063   4.651   7.550   8.021 -1.0391 -0.8025  1.4976
  213MOL0     H28064   4.510   7.465   7.963 -0.1841 -0.7858 -0.6938
  213MOL0     H28065   4.608   7.744   7.873 -0.2853  1.5788  2.0059
  213MOL0     H28066   4.483   7.632   7.788 -2.5588 -1.6573  1.8682
  213MOL0     H28067   4.467   7.749   8.061 -1.0022 -0.6554  0.7544
  213MOL0     H28068   4.351   7.633   8.016  0.1359 -0.2942 -0.4823
  213MOL0     H28069   4.355   8.001   8.014 -1.0911 -0.1690 -1.2273
  213MOL0     H28070   4.234   8.176   7.726  0.0944 -1.6090 -0.4820
  213MOL0     H28071   4.222   8.187   7.904 -0.6842  1.1290 -0.7394
  213MOL0     H28072   3.977   8.108   7.884 -2.3872  1.1038 -1.2857
  213MOL0     H28073   4.002   8.066   7.712 -0.7602 -0.0555 -0.2221
  213MOL0     H28074   4.005   8.350   7.846 -1.1241  1.2446 -0.4016
  213MOL0     H28075   4.035   8.324   7.682 -1.6177 -0.1991 -0.7779
  213MOL0     H28076   3.827   8.416   7.722  0.7169  0.1694  0.5465
  213MOL0     H28077   3.761   8.267   7.786 -0.9270 -0.1429 -1.6213
  213MOL0     H28078   3.816   8.314   7.346  1.0362  2.8694  3.1125
  213MOL0     H28079   3.596   8.348   7.201  3.0546 -1.3368 -0.3475
  213MOL0     H28080   3.107   8.435   7.171 -1.0441  0.5076  0.3094
  213MOL0     H28081   2.887   8.373   7.106 -0.7884 -2.2974 -1.1996
  213MOL0     H28082   2.632   8.278   7.396  0.5153 -0.1829  0.7157
  213MOL0     H28083   2.653   8.102   7.391 -2.3213  1.4133  2.1517
  213MOL0     H28084   2.513   8.082   7.220 -0.0071  1.1175 -2.3430
  213MOL0     H28085   2.461   8.255   7.208 -0.2321 -0.0628  0.2540
  213MOL0     H28086   2.406   8.093   7.454 -0.0053  1.8378  1.9670
  213MOL0     H28087   2.286   8.131   7.323  0.7381 -3.7871 -1.2412
  213MOL0     H28088   2.455   8.334   7.496  0.6593  0.8838 -2.7716
  213MOL0     H28089   2.340   8.381   7.391  1.5196  0.6949 -0.4576
  213MOL0     H28090   2.268   8.361   7.641 -0.2069  1.8565 -2.6193
  213MOL0     H28091   2.274   8.182   7.635 -2.9617 -0.8305  0.2716
  213MOL0     H28092   2.117   8.200   7.434  0.7473 -3.0635  1.1837
  213MOL0     H28093   2.086   8.361   7.477 -0.6109  0.4360  1.6797
  213MOL0     H28094   1.936   8.166   7.565  1.9268 -0.1716 -2.5917
  213MOL0     H28095   2.066   8.132   7.686  0.4061  3.1229  1.8949
  213MOL0     H28096   1.915   8.383   7.638 -3.3931 -0.8502  1.4512
  213MOL0     H28097   2.053   8.358   7.755  1.3321 -1.2869 -1.0127
  213MOL0     H28098   2.855   8.148   7.478  1.4531 -1.0002  0.2667
  213MOL0     H28099   3.071   8.199   7.519 -1.0108 -0.4475  0.3369
  213MOL0     H28100   3.376   8.367   7.574 -0.6374  0.5316 -0.8664
  213MOL0     H28101   3.575   8.289   7.696  0.4165  0.3715 -0.3723
  213MOL0     H28102   5.280   7.174   8.210  3.5118 -0.4551  2.0153
  213MOL0     H28103   5.503   7.108   8.219 -0.7832 -2.6819 -0.7528
  213MOL0     H28104   5.957   7.135   8.097 -0.4395  0.0158  1.3376
  213MOL0     H28105   6.167   7.044   8.174  1.6113 -0.7855  1.5623
  213MOL0     H28106   6.158   6.675   8.416 -1.6374  1.1795 -1.3859
  213MOL0     H28107   6.326   6.688   8.407  1.2638 -0.9317 -0.9880
  213MOL0     H28108   6.182   6.479   8.305 -0.8577  1.0527 -0.1141
  213MOL0     H28109   6.185   6.580   8.156  2.7582 -1.4149 -2.4111
  213MOL0     H28110   6.375   6.408   8.183 -0.6037  0.0457 -1.6805
  213MOL0     H28111   6.429   6.490   8.319 -1.0255  0.8805  0.4417
  213MOL0     H28112   6.398   6.596   8.042 -2.5811 -0.2090  1.1217
  213MOL0     H28113   6.467   6.702   8.169  0.4755 -0.4537 -0.3814
  213MOL0     H28114   6.803   6.457   8.137 -0.3444 -1.7917  0.4589
  213MOL0     H28115   5.972   6.664   8.261 -1.2023  0.8118  1.9581
  213MOL0     H28116   5.785   6.743   8.171  0.5113 -0.9484 -1.8797
  214MOL0     O28117   3.840   1.673   1.594  0.1978  0.4992 -0.6210
  214MOL0     C28118   3.875   1.569   1.543  0.1284 -0.1223 -0.3782
  214MOL0     O28119   3.845   1.446   1.585 -0.1030 -0.2326 -0.1529
  214MOL0     C28120   3.783   1.419   1.710  0.4266 -0.4989  0.1397
  214MOL0     C28121   3.651   1.446   1.708 -0.2340 -0.4844 -0.0188
  214MOL0     C28122   3.560   1.420   1.815  0.4232  0.5061 -0.9820
  214MOL0     C28123   3.612   1.361   1.933 -0.2761  0.1083 -0.1507
  214MOL0     O28124   3.531   1.317   2.034 -0.3960 -0.5546  0.2979
  214MOL0     C28125   3.554   1.385   2.160 -0.6754  0.2149  0.1477
  214MOL0     C28126   3.431   1.443   2.230  0.4116 -0.4169  0.7675
  214MOL0     C28127   3.356   1.544   2.139 -0.8164 -1.0473 -0.0185
  214MOL0     C28128   3.245   1.614   2.209 -0.5349  1.1638  1.0040
  214MOL0     C28129   3.176   1.704   2.107 -0.4395  0.5492 -0.3386
  214MOL0     C28130   3.067   1.629   2.020 -0.7737  0.1201  0.3158
  214MOL0     C28131   3.030   1.699   1.894 -0.0139  0.3312  0.4478
  214MOL0     C28132   2.981   1.840   1.888  0.1818  0.2101 -0.1324
  214MOL0     N28133   2.857   1.870   1.960 -0.8312 -0.3807 -0.0193
  214MOL0     C28134   2.854   1.878   2.097 -0.0179 -0.3481 -0.0650
  214MOL0     C28135   2.723   1.903   2.125  0.4279  0.4172  0.1444
  214MOL0     C28136   2.682   1.951   2.256 -0.1351 -0.4116  0.3102
  214MOL0     C28137   2.531   1.976   2.263 -0.2733  0.3225  0.6762
  214MOL0     C28138   2.471   2.007   2.397  0.4868 -0.1580 -0.7909
  214MOL0     C28139   2.313   2.022   2.405  0.5439  0.0077 -0.3641
  214MOL0     O28140   2.247   1.895   2.390  0.2680 -0.6626  0.1374
  214MOL0     C28141   2.107   1.896   2.402 -0.7957 -0.2972 -0.9273
  214MOL0     C28142   2.035   2.004   2.439 -0.1946 -0.6679  0.3487
  214MOL0     C28143   1.896   2.007   2.448 -1.2317 -0.1180  0.1026
  214MOL0     C28144   1.827   1.883   2.434  1.5808  0.5827 -0.4687
  214MOL0     C28145   1.673   1.883   2.446 -0.3914  0.2802 -0.5776
  214MOL0     O28146   1.599   1.992   2.437  0.3601  0.0601 -0.2381
  214MOL0     C28147   1.467   1.996   2.477 -0.3870  0.2172 -0.8110
  214MOL0     C28148   1.429   2.121   2.521  0.6906  0.1388  0.2563
  214MOL0     C28149   1.298   2.141   2.560  0.4868  0.3246 -0.1002
  214MOL0     C28150   1.197   2.044   2.559  0.0012  0.9929 -0.2801
  214MOL0     O28151   1.074   2.085   2.587  0.0587 -0.1683 -0.4260
  214MOL0     C28152   0.959   2.000   2.566 -0.7851 -0.0819 -0.4396
  214MOL0     C28153   0.839   2.069   2.622  0.2154 -0.4048 -0.3354
  214MOL0     C28154   0.710   2.022   2.553 -0.1837  0.8257  0.2704
  214MOL0     C28155   0.592   2.085   2.630 -0.4896 -0.2418  0.1980
  214MOL0     C28156   0.464   2.059   2.560  0.1917  0.5637  0.3291
  214MOL0     C28157   0.343   2.105   2.627  0.9383 -0.1519  0.0966
  214MOL0     C28158   0.316   2.046   2.764  0.0082  0.1459  0.6980
  214MOL0     C28159   0.222   2.125   2.847  0.3551 -0.1212  0.4437
  214MOL0    Cl28160   0.306   2.274   2.926  0.1034 -0.3034 -0.0480
  214MOL0     C28161   1.229   1.913   2.515 -0.5032  0.5531 -0.3171
  214MOL0     C28162   1.367   1.896   2.477  0.6444  0.7890  0.1374
  214MOL0     O28163   1.633   1.772   2.476  0.3867  0.4942 -0.2977
  214MOL0     C28164   1.899   1.767   2.401  0.3363 -0.1265 -0.5382
  214MOL0     C28165   2.038   1.781   2.378  0.4619 -0.4229  0.6963
  214MOL0     N28166   2.653   1.891   2.005 -0.1878  1.0030 -0.5509
  214MOL0     N28167   2.736   1.872   1.903  0.5710 -0.2370  0.0396
  214MOL0     C28168   3.754   1.328   1.932 -0.2730 -0.2917  0.5219
  214MOL0     C28169   3.844   1.363   1.822 -0.7180  1.1674 -0.6484
  214MOL0     C28170   3.954   1.584   1.416 -0.1616 -0.4688 -0.3190
  214MOL0     C28171   3.977   1.709   1.362 -0.1249  0.4694  0.0802
  214MOL0     C28172   4.055   1.719   1.254 -0.7241 -0.6655  0.5485
  214MOL0     C28173   4.124   1.608   1.198  0.4093 -0.0575 -0.6790
  214MOL0     O28174   4.214   1.634   1.096  0.1863 -0.5247  0.1656
  214MOL0     C28175   4.294   1.525   1.047 -0.0428  0.5264 -0.6979
  214MOL0     C28176   4.367   1.569   0.924  0.9208  0.8145 -0.5927
  214MOL0     C28177   4.468   1.459   0.879 -0.2593 -0.5410 -0.7999
  214MOL0     C28178   4.499   1.487   0.735 -0.0800 -0.0515  0.4798
  214MOL0     C28179   4.614   1.397   0.687  0.7312 -0.5272  0.0090
  214MOL0     C28180   4.708   1.321   0.658  0.3887  0.3949 -0.3417
  214MOL0     C28181   4.108   1.480   1.257 -0.8918 -0.4488 -0.1554
  214MOL0     C28182   4.019   1.466   1.365 -0.1073  0.4736  0.2972
  214MOL0     H28183   3.606   1.486   1.617 -0.5121  0.9192  0.6991
  214MOL0     H28184   3.454   1.429   1.794  0.2193  0.9791  0.2232
  214MOL0     H28185   3.636   1.458   2.154 -0.6441  0.1353 -0.4107
  214MOL0     H28186   3.595   1.311   2.229 -2.6408 -0.3105  0.8036
  214MOL0     H28187   3.463   1.495   2.320 -1.3350 -1.2037  1.8880
  214MOL0     H28188   3.354   1.372   2.261 -1.3856  0.1464 -2.0029
  214MOL0     H28189   3.315   1.495   2.050 -5.4065  1.0509  0.6443
  214MOL0     H28190   3.422   1.624   2.105  1.9352 -3.3281 -0.4341
  214MOL0     H28191   3.178   1.540   2.254 -1.0957  0.8403 -0.3350
  214MOL0     H28192   3.295   1.666   2.291  0.7628  0.6691  0.5550
  214MOL0     H28193   3.256   1.744   2.044  1.9479 -1.6109  1.1977
  214MOL0     H28194   3.126   1.776   2.172 -0.7624 -1.2687  1.5046
  214MOL0     H28195   2.987   1.608   2.091  1.0625 -2.5923  1.7924
  214MOL0     H28196   3.117   1.537   1.988  0.3518  0.2211  1.6535
  214MOL0     H28197   3.116   1.689   1.827  0.8863  2.1883  1.2565
  214MOL0     H28198   2.946   1.639   1.857 -0.7831  2.6992 -2.0265
  214MOL0     H28199   2.962   1.885   1.790  3.7402  1.5900 -0.3107
  214MOL0     H28200   3.061   1.894   1.940  1.4603 -0.2089 -1.5974
  214MOL0     H28201   2.938   1.887   2.165  0.9634  2.5059 -1.5033
  214MOL0     H28202   2.726   2.051   2.268 -1.3822  0.1072  0.7170
  214MOL0     H28203   2.705   1.880   2.336 -0.4280 -3.3835 -2.0933
  214MOL0     H28204   2.483   1.883   2.229  0.3216  0.5459 -0.8991
  214MOL0     H28205   2.498   2.055   2.195  1.8263  1.0424  0.4331
  214MOL0     H28206   2.496   1.931   2.472  0.0051  1.7181  1.3675
  214MOL0     H28207   2.512   2.099   2.438 -2.7478  0.4429  1.4365
  214MOL0     H28208   2.275   2.087   2.326 -0.4472  1.3761  1.1803
  214MOL0     H28209   2.302   2.065   2.505  5.4042  0.4287  0.2481
  214MOL0     H28210   2.086   2.099   2.451  0.8611 -0.8012 -2.4191
  214MOL0     H28211   1.847   2.099   2.479  0.1864  0.4548  0.7300
  214MOL0     H28212   1.502   2.201   2.520  0.2322  0.5578 -0.9264
  214MOL0     H28213   1.257   2.238   2.587 -2.1457 -0.6746 -0.2980
  214MOL0     H28214   0.982   1.912   2.627  1.5766  1.0362  0.3736
  214MOL0     H28215   0.945   1.961   2.464  1.4714 -0.1754 -0.7631
  214MOL0     H28216   0.857   2.177   2.630 -1.1360 -0.2889  2.0089
  214MOL0     H28217   0.838   2.041   2.728  0.0360  3.3833  0.8069
  214MOL0     H28218   0.697   1.913   2.556 -1.8544  0.9338 -1.4066
  214MOL0     H28219   0.711   2.052   2.448 -2.1046  0.1482  0.0240
  214MOL0     H28220   0.595   2.059   2.736  2.1464 -0.0097  0.2475
  214MOL0     H28221   0.601   2.193   2.634 -4.4630  0.2856 -0.9470
  214MOL0     H28222   0.463   1.956   2.524  2.1998  0.0768  1.4888
  214MOL0     H28223   0.470   2.112   2.465 -1.1338 -2.8269 -1.8164
  214MOL0     H28224   0.257   2.092   2.560  0.8719  0.3594  0.0824
  214MOL0     H28225   0.355   2.211   2.651 -0.6391 -0.2517  1.5329
  214MOL0     H28226   0.286   1.941   2.768  0.9854 -0.1554  0.3040
  214MOL0     H28227   0.412   2.039   2.817  0.0087  1.2057  0.8590
  214MOL0     H28228   0.182   2.069   2.932 -0.0268 -0.0556  0.3096
  214MOL0     H28229   0.139   2.165   2.788  0.5738 -0.2161  0.0656
  214MOL0     H28230   1.168   1.823   2.515 -0.1819  0.3355 -0.3721
  214MOL0     H28231   1.382   1.793   2.449 -4.2083 -0.7488  2.1904
  214MOL0     H28232   1.862   1.665   2.401 -0.0907 -0.0299  1.8915
  214MOL0     H28233   2.076   1.682   2.353 -0.5387 -0.0871 -2.5023
  214MOL0     H28234   3.799   1.280   2.018 -0.9231 -0.5331  0.7310
  214MOL0     H28235   3.948   1.330   1.825 -1.6670 -2.2242 -0.2131
  214MOL0     H28236   3.940   1.800   1.408 -2.7574  0.3531 -1.6238
  214MOL0     H28237   4.066   1.818   1.209 -1.4851 -0.9227 -0.2312
  214MOL0     H28238   4.235   1.433   1.042 -1.2295  1.2466 -0.2749
  214MOL0     H28239   4.369   1.495   1.121 -1.7278  0.6965  1.1694
  214MOL0     H28240   4.287   1.581   0.850 -2.0816 -1.3248  2.0217
  214MOL0     H28241   4.408   1.669   0.942 -2.8361  2.2154  1.3100
  214MOL0     H28242   4.421   1.361   0.887 -0.1923 -0.4702  0.7740
  214MOL0     H28243   4.560   1.450   0.936  0.5863 -0.2630 -2.0771
  214MOL0     H28244   4.410   1.467   0.676  1.3190  0.8339 -2.0996
  214MOL0     H28245   4.530   1.591   0.721  1.9688 -0.5878  0.7235
  214MOL0     H28246   4.803   1.279   0.630  0.8784  0.6010  0.9478
  214MOL0     H28247   4.169   1.396   1.225  0.2646  0.2093  0.2673
  214MOL0     H28248   3.998   1.367   1.405  0.7893 -0.6403 -1.8007
  215MOL0     O28249   4.862   3.448   6.623  0.3704 -0.2364 -0.4463
  215MOL0     C28250   4.810   3.337   6.659 -0.1867  0.6182 -0.2875
  215MOL0     O28251   4.861   3.245   6.740  0.0362 -0.0076 -0.2135
  215MOL0     C28252   4.989   3.263   6.782  0.1791 -0.4522 -0.2202
  215MOL0     C28253   5.036   3.382   6.839  0.7980 -0.9602  0.0231
  215MOL0     C28254   5.171   3.390   6.858 -0.2205 -0.0169 -1.2899
  215MOL0     C28255   5.258   3.289   6.855 -0.0775 -0.2278 -0.0356
  215MOL0     O28256   5.388   3.314   6.892 -0.0164 -0.0401 -0.6440
  215MOL0     C28257   5.482   3.195   6.917  0.8554 -0.7704  0.3128
  215MOL0     C28258   5.590   3.244   7.021  0.1293  0.8604 -0.3786
  215MOL0     C28259   5.684   3.130   7.055 -0.9148 -0.6267 -1.3362
  215MOL0     C28260   5.802   3.191   7.142 -0.5458 -0.4487 -0.0042
  215MOL0     C28261   5.902   3.268   7.055 -0.5343 -0.1550 -1.0206
  215MOL0     C28262   6.035   3.274   7.135 -1.0077 -0.5615  0.1178
  215MOL0     C28263   6.133   3.358   7.056 -0.8683  0.2476  0.2032
  215MOL0     C28264   6.282   3.341   7.105  0.2725 -0.0263 -0.0470
  215MOL0     N28265   6.367   3.239   7.035  0.3913  0.4376  0.3212
  215MOL0     C28266   6.505   3.224   7.043  0.0635  0.5994 -0.0887
  215MOL0     C28267   6.533   3.099   6.991  0.4855  0.6725  0.0551
  215MOL0     C28268   6.665   3.039   6.964 -0.6159 -0.3363 -0.7815
  215MOL0     C28269   6.734   3.131   6.869 -0.2192 -0.2031 -0.0990
  215MOL0     C28270   6.862   3.065   6.835 -0.0558 -0.0547  0.7967
  215MOL0     C28271   6.985   3.091   6.929  0.1849 -0.0743  0.3116
  215MOL0     O28272   7.095   3.033   6.858 -0.0789 -0.0138  0.2459
  215MOL0     C28273   7.222   3.057   6.912  0.2647 -0.3896  0.2209
  215MOL0     C28274   7.260   3.138   7.020 -0.3064 -0.5569 -0.2692
  215MOL0     C28275   7.389   3.167   7.053 -0.2289  0.4051  0.4617
  215MOL0     C28276   7.494   3.117   6.977  0.0592  0.3799  0.4095
  215MOL0     C28277   7.636   3.148   7.014  0.8978  0.2600 -0.3238
  215MOL0     O28278   7.677   3.180   7.144  0.1065 -0.1454  0.5672
  215MOL0     C28279   7.817   3.215   7.167  0.0006  0.4262 -0.0063
  215MOL0     C28280   7.851   3.349   7.172 -0.0932 -0.0057  0.4496
  215MOL0     C28281   7.983   3.383   7.203  0.4276  0.6747 -0.4004
  215MOL0     C28282   8.082   3.292   7.238  0.5129 -0.2036  0.1345
  215MOL0     O28283   8.210   3.333   7.261  0.0180  0.2211  0.0640
  215MOL0     C28284   8.315   3.293   7.171  0.8198  0.3250  0.4139
  215MOL0     C28285   8.452   3.357   7.197  0.0465 -0.3017  0.4654
  215MOL0     C28286   8.527   3.294   7.310 -0.3953 -0.4556  0.0850
  215MOL0     C28287   8.628   3.396   7.358 -0.9968  0.0457 -0.0607
  215MOL0     C28288   8.689   3.334   7.478 -0.6574 -0.5228  0.4068
  215MOL0     C28289   8.824   3.401   7.522 -0.8450 -0.4336  0.0478
  215MOL0     C28290   8.898   3.305   7.620  0.2343  1.1121 -0.1790
  215MOL0     C28291   9.006   3.371   7.703  0.5262  0.2908 -0.4029
  215MOL0    Cl28292   9.150   3.388   7.592  0.0067 -0.2915 -0.1521
  215MOL0     C28293   8.043   3.154   7.245  0.3325  0.4993 -1.2768
  215MOL0     C28294   7.912   3.115   7.201 -1.1561  0.1159  1.5157
  215MOL0     O28295   7.710   3.164   6.916 -0.5710  0.3890  0.4730
  215MOL0     C28296   7.463   3.032   6.872 -0.4398 -0.2138  0.2607
  215MOL0     C28297   7.326   3.010   6.836 -0.5477  1.0347 -0.4835
  215MOL0     N28298   6.409   3.040   6.970 -0.4795  0.0463 -0.5454
  215MOL0     N28299   6.308   3.118   6.991 -0.5580  0.3701 -0.4666
  215MOL0     C28300   5.215   3.169   6.801 -0.9016 -0.2734  0.3911
  215MOL0     C28301   5.082   3.164   6.767  0.8933  0.8373 -0.0437
  215MOL0     C28302   4.673   3.298   6.613  0.0567 -0.1912  0.7623
  215MOL0     C28303   4.578   3.403   6.579  1.4263 -0.5290 -0.5797
  215MOL0     C28304   4.447   3.372   6.538 -0.3874 -1.0295  0.1168
  215MOL0     C28305   4.403   3.246   6.533 -0.2461 -0.4862 -0.1431
  215MOL0     O28306   4.279   3.211   6.489 -0.3492  0.0606  0.2865
  215MOL0     C28307   4.176   3.311   6.475 -0.1777  0.0282 -0.1722
  215MOL0     C28308   4.045   3.239   6.415 -0.4040 -0.1347 -0.3366
  215MOL0     C28309   3.925   3.331   6.406 -0.1863  0.1828  0.4665
  215MOL0     C28310   3.808   3.282   6.322 -0.1301  0.9284 -0.7026
  215MOL0     C28311   3.718   3.181   6.373  0.2573  0.6587 -0.2347
  215MOL0     C28312   3.634   3.100   6.417  0.4429 -0.2865 -0.0676
  215MOL0     C28313   4.494   3.143   6.555  0.4582 -0.1155  0.2742
  215MOL0     C28314   4.628   3.172   6.591 -0.9073 -0.7603  0.1170
  215MOL0     H28315   4.977   3.471   6.854  1.0579 -0.8958  0.7115
  215MOL0     H28316   5.205   3.486   6.894 -2.4700  0.3482  0.0364
  215MOL0     H28317   5.522   3.173   6.818 -4.3403 -2.0227 -1.8491
  215MOL0     H28318   5.429   3.106   6.952 -1.1463  0.7476  1.3708
  215MOL0     H28319   5.534   3.274   7.109 -1.4303 -0.9833 -0.6737
  215MOL0     H28320   5.642   3.330   6.979 -4.6743  3.4274 -1.7897
  215MOL0     H28321   5.718   3.088   6.961 -0.4458 -0.9388 -1.0272
  215MOL0     H28322   5.640   3.046   7.109  0.6383 -0.9786 -0.5606
  215MOL0     H28323   5.773   3.256   7.225 -0.8325  0.5443 -0.8675
  215MOL0     H28324   5.846   3.103   7.190 -1.6048 -1.8175 -1.4429
  215MOL0     H28325   5.862   3.367   7.033 -1.5339 -0.7960 -2.2641
  215MOL0     H28326   5.917   3.221   6.957  0.4401 -0.2095 -0.8503
  215MOL0     H28327   6.075   3.176   7.164 -0.5161  0.0089  1.4462
  215MOL0     H28328   6.018   3.333   7.226 -2.0013  1.9240 -1.5789
  215MOL0     H28329   6.132   3.330   6.950  0.2209 -1.2313  0.5511
  215MOL0     H28330   6.096   3.461   7.063 -0.1243  0.4467  1.5393
  215MOL0     H28331   6.275   3.319   7.211 -0.1705  4.1554  0.9893
  215MOL0     H28332   6.325   3.441   7.095  0.0738  0.3645  2.4906
  215MOL0     H28333   6.580   3.301   7.061  0.2132  0.5884 -0.6456
  215MOL0     H28334   6.650   2.939   6.923 -1.0811 -0.7458  0.3414
  215MOL0     H28335   6.728   3.024   7.053 -0.1674 -3.1571 -1.4759
  215MOL0     H28336   6.750   3.220   6.930  2.7794 -0.7054 -0.0259
  215MOL0     H28337   6.666   3.148   6.785  1.5145  1.1058 -1.2946
  215MOL0     H28338   6.846   2.958   6.821 -0.6444  0.1772 -0.4514
  215MOL0     H28339   6.887   3.111   6.739 -0.0334 -2.5945 -0.5171
  215MOL0     H28340   6.965   3.043   7.025  0.2742  0.0660  0.3979
  215MOL0     H28341   6.997   3.199   6.939 -1.5870  0.0154  2.3077
  215MOL0     H28342   7.188   3.182   7.087 -0.6425 -0.5757 -0.6167
  215MOL0     H28343   7.399   3.226   7.144 -1.5430  0.9794  0.2536
  215MOL0     H28344   7.775   3.423   7.147 -0.2808  0.2639  1.7430
  215MOL0     H28345   7.999   3.490   7.196 -1.9410  1.1239  0.1927
  215MOL0     H28346   8.295   3.309   7.064  2.2511  2.1312  0.3776
  215MOL0     H28347   8.321   3.184   7.177  1.0031  0.4256  2.5284
  215MOL0     H28348   8.441   3.465   7.210  1.7117 -0.0746  0.1691
  215MOL0     H28349   8.505   3.348   7.101  1.3206 -0.4177  1.1638
  215MOL0     H28350   8.583   3.204   7.282  3.7784  2.2293 -1.2308
  215MOL0     H28351   8.468   3.270   7.398  2.0692  0.8658  2.2474
  215MOL0     H28352   8.712   3.412   7.290  0.7062  1.8000  2.3137
  215MOL0     H28353   8.583   3.489   7.393 -0.7103 -0.9597  3.3297
  215MOL0     H28354   8.709   3.229   7.454 -0.0265 -0.2850 -0.1534
  215MOL0     H28355   8.608   3.343   7.551  0.0126  0.3478  1.0801
  215MOL0     H28356   8.817   3.496   7.575  2.4173  1.4702 -2.5251
  215MOL0     H28357   8.887   3.426   7.436 -1.8384  1.4334 -0.1673
  215MOL0     H28358   8.825   3.252   7.683 -1.1124 -4.5013 -5.3889
  215MOL0     H28359   8.946   3.223   7.565  0.6780  4.1203 -4.8254
  215MOL0     H28360   9.031   3.313   7.793 -0.2089  0.2291 -0.2350
  215MOL0     H28361   8.958   3.463   7.739  1.0938  0.3556  0.2067
  215MOL0     H28362   8.112   3.083   7.290 -2.9648 -1.0674  1.8006
  215MOL0     H28363   7.888   3.009   7.208 -0.2455 -0.5298 -2.4428
  215MOL0     H28364   7.526   2.980   6.802 -1.5018  0.3576 -1.1605
  215MOL0     H28365   7.304   2.957   6.744  3.4250 -1.8801 -0.0026
  215MOL0     H28366   5.279   3.084   6.780 -1.1844 -0.9102  1.9404
  215MOL0     H28367   5.047   3.073   6.718  1.1852  1.2906 -1.1155
  215MOL0     H28368   4.597   3.509   6.594 -1.6355 -0.1122  1.2293
  215MOL0     H28369   4.380   3.457   6.521  1.5354  0.8566  1.3964
  215MOL0     H28370   4.214   3.385   6.403 -2.2350  1.5224  0.2078
  215MOL0     H28371   4.158   3.351   6.575  0.7532 -0.6938  0.3064
  215MOL0     H28372   4.072   3.209   6.314  0.1833 -1.7652  0.2822
  215MOL0     H28373   4.018   3.151   6.473  2.0427 -0.6934  0.0521
  215MOL0     H28374   3.958   3.430   6.373  4.4317 -1.1373  0.4360
  215MOL0     H28375   3.884   3.364   6.502 -1.5458 -2.0278  0.7194
  215MOL0     H28376   3.749   3.368   6.289 -0.2777  0.2713 -2.2490
  215MOL0     H28377   3.854   3.243   6.231 -3.3357  1.0161 -2.5355
  215MOL0     H28378   3.550   3.045   6.454 -0.2977  0.1340 -1.1006
  215MOL0     H28379   4.458   3.041   6.548  0.0535  0.0284  0.2576
  215MOL0     H28380   4.701   3.092   6.595  1.4891  1.3599  2.3552
  216MOL0     O28381   0.272   0.839   3.843  0.1108 -0.3815 -0.1242
  216MOL0     C28382   0.302   0.774   3.945  0.7381  0.8291 -0.5934
  216MOL0     O28383   0.220   0.692   4.016  0.3356 -0.7098  0.0132
  216MOL0     C28384   0.086   0.664   3.986 -0.0796  0.1751  0.4346
  216MOL0     C28385  -0.010   0.671   4.090 -0.5565 -0.2622  0.2344
  216MOL0     C28386  -0.144   0.619   4.072 -0.2610 -0.6900  0.1797
  216MOL0     C28387  -0.179   0.578   3.942  0.2115 -0.0880  0.4977
  216MOL0     O28388  -0.301   0.526   3.906  0.5269  0.1788 -0.4509
  216MOL0     C28389  -0.376   0.472   4.013  0.7784  0.2482 -0.2152
  216MOL0     C28390  -0.504   0.408   3.957  0.6473 -0.2131 -0.7543
  216MOL0     C28391  -0.588   0.501   3.873  0.0022  0.1787 -0.9863
  216MOL0     C28392  -0.731   0.445   3.875 -0.3301 -0.1864  0.2376
  216MOL0     C28393  -0.830   0.522   3.790 -0.1103  0.1044  0.2184
  216MOL0     C28394  -0.977   0.471   3.811  0.7973 -0.4041  0.8497
  216MOL0     C28395  -1.017   0.432   3.950 -0.1199 -0.7303  0.1376
  216MOL0     C28396  -1.165   0.400   3.946 -0.3893 -0.6976  0.1260
  216MOL0     N28397  -1.198   0.352   4.076 -0.0500 -0.0224 -0.7898
  216MOL0     C28398  -1.302   0.393   4.153 -0.2282 -0.6261 -0.0888
  216MOL0     C28399  -1.285   0.326   4.270  0.0809 -0.7377  0.0778
  216MOL0     C28400  -1.365   0.336   4.399  0.6152  0.0490 -0.4548
  216MOL0     C28401  -1.450   0.211   4.443  0.2361  0.2188  0.9913
  216MOL0     C28402  -1.536   0.151   4.335 -0.3319  0.5989  0.1052
  216MOL0     C28403  -1.631   0.251   4.274 -0.1804 -0.1433 -0.1846
  216MOL0     O28404  -1.744   0.169   4.244 -0.1172 -0.5971 -0.1531
  216MOL0     C28405  -1.871   0.192   4.293  0.3274 -0.6101 -0.9016
  216MOL0     C28406  -1.889   0.257   4.415  0.2192  0.0379 -0.8037
  216MOL0     C28407  -2.020   0.284   4.456 -0.2578  0.6076 -0.2806
  216MOL0     C28408  -2.130   0.263   4.375 -0.3752  0.3907 -0.4635
  216MOL0     C28409  -2.269   0.278   4.433  0.5052 -0.4926 -0.2384
  216MOL0     O28410  -2.274   0.334   4.560 -0.0499  0.6959  0.3260
  216MOL0     C28411  -2.392   0.325   4.615  1.0619  0.3357  0.9552
  216MOL0     C28412  -2.422   0.227   4.709 -0.1803 -0.9665 -0.5438
  216MOL0     C28413  -2.551   0.219   4.765 -0.7717 -0.2347 -0.3652
  216MOL0     C28414  -2.654   0.315   4.736  0.5362  1.0887 -0.8785
  216MOL0     O28415  -2.778   0.299   4.800  0.2263  0.0543 -0.7314
  216MOL0     C28416  -2.889   0.356   4.732  0.0327  0.5640  0.2878
  216MOL0     C28417  -3.007   0.260   4.756 -0.8991 -0.4122  0.8651
  216MOL0     C28418  -3.135   0.328   4.732  1.3678  0.4637  0.1054
  216MOL0     C28419  -3.247   0.218   4.761 -0.8170 -0.3276  0.2614
  216MOL0     C28420  -3.385   0.267   4.739  0.0119  0.2024 -0.2649
  216MOL0     C28421  -3.399   0.341   4.611  0.5239 -0.6154 -0.0842
  216MOL0     C28422  -3.540   0.356   4.562  0.0981 -0.6523 -0.1338
  216MOL0     C28423  -3.572   0.437   4.443  0.1297 -0.1715  0.3751
  216MOL0    Cl28424  -3.521   0.611   4.471 -0.4888 -0.0116  0.0123
  216MOL0     C28425  -2.624   0.416   4.644 -0.1711 -0.1336  0.3878
  216MOL0     C28426  -2.493   0.424   4.588  0.1552 -0.0051 -0.1626
  216MOL0     O28427  -2.363   0.239   4.368  0.2510  0.2884  1.0570
  216MOL0     C28428  -2.110   0.202   4.254 -0.0712  0.3852 -0.6374
  216MOL0     C28429  -1.979   0.157   4.222  0.8063 -0.4058  0.0965
  216MOL0     N28430  -1.176   0.243   4.262  0.8380  0.4661 -0.0385
  216MOL0     N28431  -1.131   0.255   4.145 -0.0922 -1.5046  1.1276
  216MOL0     C28432  -0.092   0.582   3.835  0.1668 -0.4683  0.2415
  216MOL0     C28433   0.037   0.630   3.856 -0.4009 -0.6418 -0.0922
  216MOL0     C28434   0.448   0.761   3.967 -0.3831 -0.8988  0.8300
  216MOL0     C28435   0.511   0.770   4.088  0.8627  0.0742 -0.3755
  216MOL0     C28436   0.644   0.788   4.100 -0.0526 -0.5154  0.0788
  216MOL0     C28437   0.733   0.796   3.991 -0.2926  0.3297  0.2142
  216MOL0     O28438   0.867   0.805   4.018  0.2697 -0.4780 -0.1898
  216MOL0     C28439   0.964   0.862   3.922  0.2261  0.8000 -0.2754
  216MOL0     C28440   1.107   0.811   3.962  0.5447 -0.1572 -1.1117
  216MOL0     C28441   1.117   0.658   3.969 -0.5353 -0.7199 -0.6823
  216MOL0     C28442   1.134   0.602   3.822 -0.9416  0.0903  0.5666
  216MOL0     C28443   1.144   0.459   3.836  0.3333 -0.3159  0.6772
  216MOL0     C28444   1.151   0.337   3.824  0.4934  0.4302 -0.9546
  216MOL0     C28445   0.674   0.785   3.862  0.3198 -0.3886 -0.0403
  216MOL0     C28446   0.534   0.765   3.855  0.9926 -0.2506 -0.2072
  216MOL0     H28447   0.020   0.712   4.186 -0.2105 -1.4572  0.6435
  216MOL0     H28448  -0.209   0.624   4.160  2.1882 -0.5604  2.0967
  216MOL0     H28449  -0.405   0.558   4.074  3.6521 -0.0289  1.7418
  216MOL0     H28450  -0.322   0.397   4.071  1.1871  1.0447  0.4517
  216MOL0     H28451  -0.566   0.373   4.041  1.6160  1.2793  0.6427
  216MOL0     H28452  -0.475   0.323   3.894 -0.6970 -0.4843 -1.0531
  216MOL0     H28453  -0.549   0.513   3.772  0.1670  3.2356 -0.6445
  216MOL0     H28454  -0.591   0.604   3.909 -0.0630 -0.7922  2.1142
  216MOL0     H28455  -0.739   0.346   3.830  2.3023  0.7561 -2.6495
  216MOL0     H28456  -0.772   0.442   3.976  2.0293  0.3544  1.2812
  216MOL0     H28457  -0.803   0.500   3.686 -0.7862  0.1694  0.0242
  216MOL0     H28458  -0.828   0.629   3.810 -0.1325  0.5702 -1.9648
  216MOL0     H28459  -0.990   0.380   3.751  0.8486 -0.4927  0.9733
  216MOL0     H28460  -1.043   0.548   3.769  2.8502  1.1003  0.1923
  216MOL0     H28461  -0.964   0.340   3.974  0.4229 -0.4477  0.0401
  216MOL0     H28462  -0.983   0.510   4.019  0.9546  0.8114 -2.0190
  216MOL0     H28463  -1.191   0.327   3.870  2.4645  0.0969 -1.7721
  216MOL0     H28464  -1.230   0.488   3.938  1.9639  1.0466 -1.2771
  216MOL0     H28465  -1.377   0.468   4.130 -1.4028 -1.5716  0.5651
  216MOL0     H28466  -1.435   0.418   4.382 -1.5610 -1.3266  1.2485
  216MOL0     H28467  -1.294   0.372   4.475  2.3981 -0.9615 -1.5600
  216MOL0     H28468  -1.517   0.235   4.526  0.6059  1.5845  0.9174
  216MOL0     H28469  -1.379   0.136   4.478 -0.7799 -1.4024 -0.2717
  216MOL0     H28470  -1.471   0.125   4.251 -0.7088 -0.5419  0.1449
  216MOL0     H28471  -1.591   0.061   4.366 -1.6909  1.2362 -0.3841
  216MOL0     H28472  -1.585   0.292   4.184 -1.7789 -0.6400 -1.2667
  216MOL0     H28473  -1.647   0.334   4.343  0.7502 -0.5339  0.5101
  216MOL0     H28474  -1.809   0.294   4.478  0.3694  1.1763 -1.6419
  216MOL0     H28475  -2.035   0.322   4.556  0.0051  2.2853 -0.8456
  216MOL0     H28476  -2.350   0.152   4.739  1.3679  0.8084  0.3730
  216MOL0     H28477  -2.590   0.141   4.830 -1.4079  1.1570  0.9786
  216MOL0     H28478  -2.869   0.370   4.625 -1.9424  3.0246  0.1358
  216MOL0     H28479  -2.908   0.453   4.780 -2.1255 -0.2406  1.2146
  216MOL0     H28480  -2.987   0.218   4.855  1.0391  1.4123  1.3201
  216MOL0     H28481  -2.998   0.184   4.679  0.0155 -0.4659  1.0140
  216MOL0     H28482  -3.134   0.369   4.631 -1.7657 -2.3486 -1.2504
  216MOL0     H28483  -3.152   0.410   4.802 -2.6557 -1.2989  1.4769
  216MOL0     H28484  -3.214   0.137   4.695  4.1409  2.6619 -1.5350
  216MOL0     H28485  -3.233   0.180   4.863 -0.3215 -1.4613 -0.2067
  216MOL0     H28486  -3.408   0.320   4.832  1.9787 -0.1609  0.4679
  216MOL0     H28487  -3.456   0.184   4.748  0.5229 -0.2412 -0.2425
  216MOL0     H28488  -3.351   0.287   4.529  0.0634  1.0440 -1.4987
  216MOL0     H28489  -3.364   0.444   4.618  1.1526 -0.8982  1.4458
  216MOL0     H28490  -3.574   0.253   4.557  0.8420 -0.8637 -3.9946
  216MOL0     H28491  -3.591   0.408   4.644 -1.5287 -0.0611 -1.4691
  216MOL0     H28492  -3.677   0.426   4.413  0.6517  0.4415 -1.8820
  216MOL0     H28493  -3.514   0.403   4.356 -0.4702  0.5544 -0.3327
  216MOL0     H28494  -2.690   0.501   4.630 -0.8651 -0.5858  0.8639
  216MOL0     H28495  -2.483   0.503   4.514 -3.3770  1.9430  1.1995
  216MOL0     H28496  -2.192   0.182   4.186  1.0133 -3.3821 -1.0596
  216MOL0     H28497  -1.951   0.132   4.121 -1.0680  2.1126 -1.1488
  216MOL0     H28498  -0.131   0.545   3.741  0.3990 -0.2947  0.0749
  216MOL0     H28499   0.101   0.636   3.768 -0.1457 -0.7691  0.0859
  216MOL0     H28500   0.447   0.767   4.176  0.9308 -0.4196 -0.3363
  216MOL0     H28501   0.689   0.788   4.199  0.1343 -0.2658 -0.0057
  216MOL0     H28502   0.965   0.971   3.908  2.2924  0.4957 -3.7726
  216MOL0     H28503   0.943   0.826   3.822  0.7513  1.7564 -0.7518
  216MOL0     H28504   1.176   0.839   3.881  2.0265 -2.9658 -0.9720
  216MOL0     H28505   1.128   0.854   4.060 -0.6739  1.6574 -1.5992
  216MOL0     H28506   1.031   0.612   4.019 -1.5449 -0.6218 -2.2522
  216MOL0     H28507   1.208   0.627   4.021 -2.2324 -1.6182  2.0097
  216MOL0     H28508   1.039   0.627   3.775 -2.1967 -3.0868  1.1468
  216MOL0     H28509   1.215   0.636   3.756 -1.2152 -0.7356 -0.2224
  216MOL0     H28510   1.145   0.230   3.830 -1.0276  0.5680  1.0940
  216MOL0     H28511   0.741   0.775   3.777 -0.8039  0.3672 -1.0365
  216MOL0     H28512   0.486   0.745   3.760  0.0545 -2.2583  0.6149
  217MOL0     O28513   7.081   1.541   4.696 -0.1227  0.1456  0.5225
  217MOL0     C28514   7.177   1.615   4.674 -0.5097 -0.5908  0.4386
  217MOL0     O28515   7.170   1.744   4.649 -0.1005 -0.2222  0.2347
  217MOL0     C28516   7.051   1.815   4.670  1.1775 -0.6434  0.2285
  217MOL0     C28517   7.031   1.919   4.580 -0.1620  0.1531  0.1233
  217MOL0     C28518   6.918   1.998   4.600  1.3042 -0.2712  0.3797
  217MOL0     C28519   6.827   1.967   4.699 -0.1652 -0.1099 -0.3785
  217MOL0     O28520   6.723   2.045   4.720  0.5649  0.5155  0.7210
  217MOL0     C28521   6.604   2.000   4.654 -0.1375  0.9081 -0.3813
  217MOL0     C28522   6.550   2.074   4.534  0.5329  0.2155 -0.9738
  217MOL0     C28523   6.408   2.015   4.508 -0.3326 -0.0324  0.0091
  217MOL0     C28524   6.320   2.112   4.417 -0.7540  0.3146  0.4752
  217MOL0     C28525   6.233   2.043   4.316 -0.2004  0.1429  0.1821
  217MOL0     C28526   6.127   1.955   4.376  0.2000  0.8897 -0.2290
  217MOL0     C28527   6.029   1.897   4.266  0.3537  0.1158  0.4768
  217MOL0     C28528   5.894   1.846   4.324  0.9890  0.7803 -0.8417
  217MOL0     N28529   5.788   1.947   4.341  0.6839 -0.0726 -0.1095
  217MOL0     C28530   5.729   1.994   4.230  0.0366 -0.4291  0.6372
  217MOL0     C28531   5.695   2.119   4.268  0.7883 -1.1181 -0.0345
  217MOL0     C28532   5.625   2.221   4.175 -0.4028 -0.4541  0.5021
  217MOL0     C28533   5.479   2.264   4.208  0.0987  0.1577  0.7345
  217MOL0     C28534   5.457   2.337   4.348  0.2261 -0.2937 -0.1398
  217MOL0     C28535   5.311   2.355   4.370 -0.5083  0.0881  0.5204
  217MOL0     O28536   5.269   2.450   4.275  0.0365  0.0131  0.0372
  217MOL0     C28537   5.130   2.483   4.265  0.5352 -0.3266 -0.7010
  217MOL0     C28538   5.069   2.527   4.140 -0.5573  0.4049 -0.0306
  217MOL0     C28539   4.938   2.560   4.133 -0.3562  0.3974  0.2953
  217MOL0     C28540   4.849   2.545   4.237  0.2904  0.6410 -0.0389
  217MOL0     C28541   4.711   2.581   4.223  0.2684 -0.2215  1.2194
  217MOL0     O28542   4.671   2.604   4.085 -0.5110 -0.2009  0.3304
  217MOL0     C28543   4.540   2.646   4.050  0.2174  0.9480  0.4745
  217MOL0     C28544   4.455   2.717   4.142 -0.1674  0.7121  0.0842
  217MOL0     C28545   4.332   2.761   4.092  0.5795  1.2600 -0.4540
  217MOL0     C28546   4.294   2.734   3.959  0.0897  0.1150  0.6993
  217MOL0     O28547   4.164   2.775   3.918  0.3101  0.0147  0.9445
  217MOL0     C28548   4.105   2.741   3.792  0.0066  0.3868 -0.0391
  217MOL0     C28549   3.961   2.788   3.774 -0.4840 -0.1880  0.4322
  217MOL0     C28550   3.850   2.732   3.870 -0.4783  0.1346 -0.7067
  217MOL0     C28551   3.870   2.769   4.020 -0.7276  0.0969 -0.0289
  217MOL0     C28552   3.747   2.724   4.102 -0.0320  0.3647  0.2915
  217MOL0     C28553   3.739   2.788   4.241  0.2785  0.3052 -0.1493
  217MOL0     C28554   3.610   2.739   4.312  0.5161  0.1519  0.0641
  217MOL0     C28555   3.489   2.835   4.301 -1.1772  0.0896 -0.3614
  217MOL0    Cl28556   3.340   2.779   4.366 -0.0974  0.2449 -0.0838
  217MOL0     C28557   4.381   2.666   3.873  0.7201 -0.2993  0.3885
  217MOL0     C28558   4.509   2.628   3.917  1.1263  0.2468  0.3276
  217MOL0     O28559   4.642   2.573   4.320  0.2076 -0.3422 -0.2435
  217MOL0     C28560   4.902   2.497   4.356  0.3002  0.5094  0.0407
  217MOL0     C28561   5.035   2.464   4.373  0.0403 -0.5057 -0.1648
  217MOL0     N28562   5.734   2.147   4.400  0.8710  0.0156  0.2976
  217MOL0     N28563   5.787   2.035   4.444 -0.0132 -0.0136  0.3768
  217MOL0     C28564   6.845   1.860   4.786 -0.7129  0.0627  0.4648
  217MOL0     C28565   6.958   1.784   4.769  0.2029 -1.0129  1.1464
  217MOL0     C28566   7.317   1.564   4.682  0.0727  0.4638  0.3315
  217MOL0     C28567   7.432   1.645   4.687 -1.0319  0.3867 -0.1127
  217MOL0     C28568   7.565   1.595   4.702 -0.0726  0.0510 -0.6910
  217MOL0     C28569   7.590   1.452   4.705  0.0322  0.1272  0.9072
  217MOL0     O28570   7.714   1.396   4.719 -0.3097 -0.6610  0.2898
  217MOL0     C28571   7.825   1.477   4.762  0.0177 -0.2737 -0.5863
  217MOL0     C28572   7.957   1.401   4.751 -1.5874 -0.6598 -0.2161
  217MOL0     C28573   8.067   1.474   4.836 -0.5150  0.0220 -0.7203
  217MOL0     C28574   8.204   1.390   4.836 -0.4390  0.1563  0.0290
  217MOL0     C28575   8.188   1.267   4.912  1.0818  0.3189  0.0708
  217MOL0     C28576   8.178   1.165   4.977 -0.0633 -0.1710 -1.0481
  217MOL0     C28577   7.475   1.377   4.687  0.2740  0.3664  0.9453
  217MOL0     C28578   7.344   1.431   4.677 -0.9208 -1.0194 -0.4124
  217MOL0     H28579   7.108   1.944   4.508  0.7015  1.9428  1.6034
  217MOL0     H28580   6.897   2.087   4.541  0.8171 -1.5759 -1.5124
  217MOL0     H28581   6.533   2.010   4.737  0.8334 -0.8093  0.7167
  217MOL0     H28582   6.596   1.892   4.641  1.3118  0.6497  0.6908
  217MOL0     H28583   6.619   2.067   4.449  1.3474  2.0067 -0.5020
  217MOL0     H28584   6.547   2.182   4.553 -0.8798  0.3690 -1.8531
  217MOL0     H28585   6.354   1.985   4.598  1.8589  2.5516  2.3709
  217MOL0     H28586   6.420   1.926   4.446 -0.1907  0.7726 -1.1545
  217MOL0     H28587   6.270   2.191   4.473  0.2045  0.5509  1.0356
  217MOL0     H28588   6.396   2.162   4.356  0.0463 -2.3455 -0.8710
  217MOL0     H28589   6.291   1.987   4.243 -4.1732 -3.7476 -0.4437
  217MOL0     H28590   6.182   2.128   4.269 -0.3473 -1.0347 -1.9211
  217MOL0     H28591   6.062   1.998   4.454  0.4544  1.3882 -0.2847
  217MOL0     H28592   6.178   1.877   4.432 -2.9621 -0.2777  1.2440
  217MOL0     H28593   6.000   1.975   4.195 -2.0043 -0.0943  1.1058
  217MOL0     H28594   6.077   1.822   4.203  2.7864  1.1296  0.9920
  217MOL0     H28595   5.925   1.807   4.421  1.7251 -1.2093 -1.8010
  217MOL0     H28596   5.849   1.764   4.267 -1.9325  1.0214  0.9084
  217MOL0     H28597   5.712   1.960   4.129 -0.2308  1.9681 -0.1814
  217MOL0     H28598   5.613   2.180   4.074  0.2597  2.2865 -0.8032
  217MOL0     H28599   5.690   2.308   4.161  0.9063 -1.4657  0.1466
  217MOL0     H28600   5.412   2.179   4.192 -1.0349  1.3585 -1.2316
  217MOL0     H28601   5.447   2.332   4.129 -2.2043 -2.1126 -0.4470
  217MOL0     H28602   5.488   2.273   4.431 -0.8772  0.1513  0.6288
  217MOL0     H28603   5.522   2.425   4.352  2.0661 -1.6089  0.5430
  217MOL0     H28604   5.289   2.389   4.471  0.4075 -0.6425  0.9883
  217MOL0     H28605   5.257   2.260   4.361  0.8222 -0.7768  1.2690
  217MOL0     H28606   5.138   2.529   4.056  1.3227  0.1686  1.4364
  217MOL0     H28607   4.916   2.616   4.042 -1.3735 -1.0466 -0.3863
  217MOL0     H28608   4.477   2.721   4.249 -0.6865 -1.3432  0.3077
  217MOL0     H28609   4.255   2.805   4.155 -0.2914  0.1209 -0.6699
  217MOL0     H28610   4.107   2.632   3.781  0.2552  0.5880 -2.6316
  217MOL0     H28611   4.161   2.788   3.711 -1.3843 -0.0238 -1.2764
  217MOL0     H28612   3.943   2.758   3.670 -0.0811 -1.3708  0.6832
  217MOL0     H28613   3.960   2.897   3.778 -3.3231  0.0311 -2.4957
  217MOL0     H28614   3.831   2.624   3.868 -1.3308  0.1767  1.5222
  217MOL0     H28615   3.760   2.787   3.840 -0.2011  0.9625 -0.0847
  217MOL0     H28616   3.960   2.721   4.060  1.5769  2.3516 -2.1405
  217MOL0     H28617   3.887   2.877   4.030  0.8223 -0.2032  0.8449
  217MOL0     H28618   3.735   2.616   4.094  1.1517  0.3539 -2.4218
  217MOL0     H28619   3.656   2.762   4.054 -1.2384 -1.1597  1.2948
  217MOL0     H28620   3.745   2.896   4.230  1.5215  0.3739  0.8691
  217MOL0     H28621   3.826   2.757   4.300 -0.9542 -1.9352  0.6402
  217MOL0     H28622   3.593   2.635   4.285 -0.8193  0.2530  0.4700
  217MOL0     H28623   3.639   2.734   4.418  1.3548  0.6924 -0.1232
  217MOL0     H28624   3.471   2.854   4.195 -2.0386 -3.2784 -0.9364
  217MOL0     H28625   3.506   2.934   4.343  0.9446 -0.3308 -0.1069
  217MOL0     H28626   4.353   2.656   3.769 -0.7561  2.5500  0.3960
  217MOL0     H28627   4.581   2.594   3.843  2.4413  2.3367  0.5882
  217MOL0     H28628   4.825   2.476   4.429 -0.3699  1.7501 -0.2780
  217MOL0     H28629   5.062   2.407   4.461 -0.7492  2.2448  1.9853
  217MOL0     H28630   6.764   1.831   4.852 -0.8673 -0.2273  0.1547
  217MOL0     H28631   6.979   1.708   4.843 -0.5385 -0.8883  1.4933
  217MOL0     H28632   7.432   1.752   4.703  1.3705  0.4223  0.0514
  217MOL0     H28633   7.641   1.670   4.723 -1.0712  0.8075  0.3878
  217MOL0     H28634   7.801   1.470   4.868  0.9100 -0.9376 -0.4065
  217MOL0     H28635   7.841   1.575   4.716  0.7849 -0.0805  0.0549
  217MOL0     H28636   7.937   1.297   4.778  0.1262 -0.7931  0.6294
  217MOL0     H28637   7.992   1.407   4.648 -1.8888  2.7150 -0.2546
  217MOL0     H28638   8.041   1.466   4.942 -1.8147  0.9094 -0.9547
  217MOL0     H28639   8.090   1.576   4.804  1.6222 -0.3303 -0.4508
  217MOL0     H28640   8.240   1.363   4.737  0.3749 -0.7262  0.5441
  217MOL0     H28641   8.286   1.452   4.876  2.0951 -2.1056 -1.3525
  217MOL0     H28642   8.174   1.077   5.038  0.9231  1.0053  0.8273
  217MOL0     H28643   7.493   1.270   4.696  1.2917  0.5650  1.3621
  217MOL0     H28644   7.263   1.359   4.678  1.2633 -3.6655  1.6953
  218MOL0     O28645   5.166   4.007   9.782 -0.2716 -0.2667  0.2197
  218MOL0     C28646   5.082   4.059   9.862  1.1261  0.6629  0.4039
  218MOL0     O28647   4.960   4.125   9.823 -0.4620 -0.1275  0.1899
  218MOL0     C28648   4.902   4.105   9.705 -0.0240  0.3286  0.1276
  218MOL0     C28649   4.766   4.062   9.714  0.3814 -0.4907 -0.0386
  218MOL0     C28650   4.691   4.052   9.595 -0.8521 -0.1445  0.9660
  218MOL0     C28651   4.743   4.088   9.471  0.9692  0.3443 -0.2349
  218MOL0     O28652   4.662   4.087   9.361 -0.7952 -0.1440  0.4422
  218MOL0     C28653   4.653   4.212   9.294  0.1911  0.1885  0.5366
  218MOL0     C28654   4.509   4.247   9.269 -0.2119 -0.2569  0.6350
  218MOL0     C28655   4.428   4.295   9.386 -1.5660 -0.1252 -0.3034
  218MOL0     C28656   4.294   4.351   9.354 -0.6102  0.0373  0.1104
  218MOL0     C28657   4.189   4.237   9.335  0.2536  0.4430  0.2825
  218MOL0     C28658   4.057   4.311   9.336  0.1701 -0.1545 -0.6889
  218MOL0     C28659   3.941   4.237   9.268  0.2274 -0.0035 -0.1670
  218MOL0     C28660   3.864   4.152   9.371 -0.4017 -0.2289  0.5078
  218MOL0     N28661   3.803   4.038   9.307 -0.2319  0.3319  0.4989
  218MOL0     C28662   3.714   4.045   9.200 -0.6250 -0.5738  0.0555
  218MOL0     C28663   3.670   3.911   9.188 -0.7475 -0.6560 -0.2797
  218MOL0     C28664   3.569   3.862   9.082  0.1123  0.0256  0.0093
  218MOL0     C28665   3.446   3.802   9.137  0.1902  0.1766  1.0272
  218MOL0     C28666   3.352   3.915   9.186 -0.7539  0.8328  0.5532
  218MOL0     C28667   3.231   3.870   9.273 -1.0997  0.0975 -0.0512
  218MOL0     O28668   3.145   3.781   9.199 -0.3001  0.2274 -0.5514
  218MOL0     C28669   3.018   3.745   9.246  0.7191  0.2925  0.1000
  218MOL0     C28670   2.981   3.761   9.381 -0.7673 -0.4625  0.8792
  218MOL0     C28671   2.863   3.714   9.433 -0.0224 -0.5274  0.5228
  218MOL0     C28672   2.766   3.657   9.344  0.0493  0.3660 -0.0466
  218MOL0     C28673   2.636   3.614   9.391 -0.4428  0.1495  0.3016
  218MOL0     O28674   2.614   3.636   9.527 -0.8563 -0.3427 -0.2115
  218MOL0     C28675   2.486   3.604   9.572  0.4302  0.5899 -0.5468
  218MOL0     C28676   2.466   3.465   9.587 -0.2597  0.2939  0.7895
  218MOL0     C28677   2.336   3.420   9.624 -1.0506 -0.6195  0.1824
  218MOL0     C28678   2.235   3.514   9.664  0.5390 -0.4204  0.6206
  218MOL0     O28679   2.107   3.468   9.701  0.3780  0.0395 -0.6122
  218MOL0     C28680   2.096   3.350   9.782  0.3489 -0.9577  0.1059
  218MOL0     C28681   1.944   3.338   9.815  0.3865  0.0195  0.2718
  218MOL0     C28682   1.894   3.214   9.883  0.3529 -0.2804 -0.2421
  218MOL0     C28683   1.766   3.221   9.956 -0.5197 -0.1556  0.6313
  218MOL0     C28684   1.641   3.242   9.856  0.1611 -0.3662  0.4317
  218MOL0     C28685   1.512   3.267   9.929 -0.3841 -0.4838  0.5167
  218MOL0     C28686   1.489   3.409   9.970 -0.6280 -0.1989  0.4390
  218MOL0     C28687   1.376   3.432  10.072  0.4612 -0.2382  0.1583
  218MOL0    Cl28688   1.237   3.419   9.973  0.0245  0.1833 -0.3872
  218MOL0     C28689   2.275   3.653   9.661  0.2785 -0.6401  0.2170
  218MOL0     C28690   2.398   3.703   9.618 -0.4283 -0.5670  0.5658
  218MOL0     O28691   2.550   3.584   9.314  0.6601  0.3714 -0.1911
  218MOL0     C28692   2.789   3.658   9.206 -0.8215  0.6557  0.8282
  218MOL0     C28693   2.915   3.693   9.162 -0.2354 -1.0643 -0.7277
  218MOL0     N28694   3.734   3.833   9.278  0.1319 -0.0795 -0.8910
  218MOL0     N28695   3.814   3.911   9.342 -0.6791 -0.0631 -0.4411
  218MOL0     C28696   4.877   4.130   9.466 -0.4146  0.1467 -0.0974
  218MOL0     C28697   4.959   4.132   9.585 -0.0669  0.2761  0.0820
  218MOL0     C28698   5.124   4.075  10.002  0.7272 -0.1244  0.5334
  218MOL0     C28699   5.039   4.150  10.096 -0.4006  0.2114  0.7266
  218MOL0     C28700   5.087   4.176  10.222  0.1444  0.5466  0.7910
  218MOL0     C28701   5.211   4.126  10.262 -0.7986 -0.0088 -0.2055
  218MOL0     O28702   5.260   4.138  10.389 -0.2270  0.3967  0.2086
  218MOL0     C28703   5.199   4.222  10.487  0.3125 -0.3186 -0.4245
  218MOL0     C28704   5.238   4.191  10.637  1.2245  1.0748 -0.3998
  218MOL0     C28705   5.237   4.036  10.671  0.4339  0.4303 -0.4449
  218MOL0     C28706   5.272   3.996  10.816  0.3076  0.5429 -0.9033
  218MOL0     C28707   5.172   4.056  10.908  0.5862 -0.6393  0.1616
  218MOL0     C28708   5.090   4.085  10.988 -0.9955 -0.2020  0.2166
  218MOL0     C28709   5.292   4.061  10.169  0.3451  0.0301  0.3234
  218MOL0     C28710   5.244   4.029  10.046  0.3002  0.2750 -0.4409
  218MOL0     H28711   4.709   4.040   9.803 -1.5943  2.5288 -0.3940
  218MOL0     H28712   4.589   4.015   9.591 -0.1019 -2.2395 -0.1232
  218MOL0     H28713   4.709   4.200   9.201  0.5099  1.1785  0.5872
  218MOL0     H28714   4.701   4.297   9.343  0.9123  1.7622 -2.5956
  218MOL0     H28715   4.465   4.156   9.226  0.3517 -1.5587  2.7014
  218MOL0     H28716   4.497   4.319   9.187  0.6964 -1.4488 -0.5873
  218MOL0     H28717   4.484   4.380   9.426 -1.1882  0.7911 -2.5999
  218MOL0     H28718   4.418   4.226   9.470  1.6162 -0.8492 -0.3926
  218MOL0     H28719   4.265   4.413   9.439  0.0158 -1.5070  1.4778
  218MOL0     H28720   4.284   4.403   9.258 -1.7621 -3.2981 -1.7258
  218MOL0     H28721   4.182   4.165   9.417  1.3280  1.6968  1.5340
  218MOL0     H28722   4.199   4.179   9.243 -0.8539 -1.9197  1.5542
  218MOL0     H28723   4.068   4.405   9.280 -2.4546  2.0731  2.1670
  218MOL0     H28724   4.030   4.334   9.439 -1.4084 -3.4937 -0.2363
  218MOL0     H28725   3.864   4.303   9.227 -1.9804 -3.4757 -2.1846
  218MOL0     H28726   3.986   4.180   9.187  2.5932  0.7482  0.5393
  218MOL0     H28727   3.786   4.221   9.405 -0.7822  1.1026 -2.6717
  218MOL0     H28728   3.922   4.125   9.459  0.9833 -2.8026 -1.0860
  218MOL0     H28729   3.680   4.133   9.148  1.5297  0.9281  1.0377
  218MOL0     H28730   3.616   3.791   9.014 -1.9210  0.0630 -1.5596
  218MOL0     H28731   3.529   3.948   9.026 -0.7836  0.4647  1.2683
  218MOL0     H28732   3.472   3.734   9.219 -2.0594 -3.2352 -0.8343
  218MOL0     H28733   3.401   3.748   9.054  1.0913 -1.0676  1.3167
  218MOL0     H28734   3.410   3.995   9.235  1.4016 -1.3954  1.8461
  218MOL0     H28735   3.319   3.970   9.098 -1.4704 -1.7143 -0.8469
  218MOL0     H28736   3.178   3.946   9.330  0.4457 -1.2137  3.4439
  218MOL0     H28737   3.275   3.811   9.354  2.6520 -1.3116 -2.7721
  218MOL0     H28738   3.060   3.792   9.449  0.3059 -2.6086  0.7035
  218MOL0     H28739   2.856   3.712   9.541  1.6463  0.6781  0.6933
  218MOL0     H28740   2.546   3.397   9.559 -0.7640 -0.4920  1.2630
  218MOL0     H28741   2.312   3.317   9.647 -0.6279 -0.8126 -0.2295
  218MOL0     H28742   2.151   3.366   9.875  3.2577  0.8470 -1.7608
  218MOL0     H28743   2.143   3.260   9.743  0.2495 -1.7467  1.7149
  218MOL0     H28744   1.896   3.324   9.718  2.0263 -1.9993 -0.3303
  218MOL0     H28745   1.902   3.432   9.853 -3.2820  0.0246 -3.1069
  218MOL0     H28746   1.978   3.185   9.948  0.9090  0.6527 -0.5139
  218MOL0     H28747   1.883   3.141   9.803 -3.3177 -1.5898  1.2587
  218MOL0     H28748   1.752   3.136  10.025 -0.0461  1.1189  2.3708
  218MOL0     H28749   1.765   3.301  10.031 -0.8386 -0.6016  1.1180
  218MOL0     H28750   1.646   3.149   9.798 -0.6364  1.0009 -2.0117
  218MOL0     H28751   1.635   3.324   9.784 -2.9825 -0.3384  0.5908
  218MOL0     H28752   1.509   3.205  10.019 -0.1305 -3.0361 -1.1380
  218MOL0     H28753   1.438   3.231   9.857  0.0328 -1.0603  0.3721
  218MOL0     H28754   1.581   3.453  10.009 -2.8721  3.8444  1.6950
  218MOL0     H28755   1.469   3.467   9.880 -1.3832  0.3704  0.9658
  218MOL0     H28756   1.386   3.526  10.127  1.9196 -0.6197  0.5829
  218MOL0     H28757   1.376   3.358  10.153 -0.3584  0.5332  0.8807
  218MOL0     H28758   2.203   3.723   9.703 -0.7179 -0.8147 -1.1307
  218MOL0     H28759   2.440   3.803   9.627  1.6820 -1.3270 -0.3520
  218MOL0     H28760   2.716   3.626   9.132 -2.3708  5.1395  0.1284
  218MOL0     H28761   2.940   3.676   9.057 -0.0188 -2.5971 -0.4520
  218MOL0     H28762   4.915   4.154   9.367 -1.0371 -2.3023 -1.0263
  218MOL0     H28763   5.064   4.160   9.591  0.5321 -2.0339  5.1384
  218MOL0     H28764   4.943   4.180  10.056  0.0831 -1.0548 -1.5133
  218MOL0     H28765   5.023   4.236  10.286 -3.1846 -2.5303  0.6450
  218MOL0     H28766   5.090   4.215  10.483  0.2965 -2.1664  1.7547
  218MOL0     H28767   5.211   4.329  10.466 -0.0826 -0.1191  0.3631
  218MOL0     H28768   5.338   4.233  10.650  2.3812 -1.0189 -1.9297
  218MOL0     H28769   5.176   4.243  10.711  1.7276  2.7527 -1.1106
  218MOL0     H28770   5.299   3.994  10.592  1.0818  1.2277 -0.3722
  218MOL0     H28771   5.137   3.997  10.647  0.0801  0.8220  0.3369
  218MOL0     H28772   5.269   3.887  10.829 -0.0322  0.8768  2.6276
  218MOL0     H28773   5.365   4.042  10.849 -0.2038  1.1813 -0.3485
  218MOL0     H28774   5.026   4.098  11.073  1.6212  2.7730  1.9136
  218MOL0     H28775   5.385   4.008  10.191 -0.5345 -1.5658  0.3352
  218MOL0     H28776   5.308   3.970   9.982  0.4745 -0.8188  0.6994
  219MOL0     O28777   8.191   6.805   6.393 -0.6546 -0.3410  0.9390
  219MOL0     C28778   8.169   6.720   6.481 -0.1612  0.4249  0.5941
  219MOL0     O28779   8.047   6.667   6.505 -0.2936 -0.1382  0.6896
  219MOL0     C28780   7.943   6.711   6.430 -0.2600 -0.0709 -0.0734
  219MOL0     C28781   7.922   6.657   6.300  0.9863  0.1513 -1.4292
  219MOL0     C28782   7.822   6.712   6.226  0.3999  0.3835 -0.0788
  219MOL0     C28783   7.734   6.814   6.276 -0.1049 -1.2875 -0.0003
  219MOL0     O28784   7.630   6.860   6.201 -0.8867  0.5243 -0.2400
  219MOL0     C28785   7.558   6.972   6.246 -0.4138  0.2977 -0.5096
  219MOL0     C28786   7.462   7.015   6.144  0.7906 -1.2939 -0.3810
  219MOL0     C28787   7.394   7.148   6.157  0.0456  0.2716 -0.1229
  219MOL0     C28788   7.306   7.202   6.034 -0.8865  0.1714 -0.1441
  219MOL0     C28789   7.157   7.159   6.031 -0.2968 -0.3879 -0.6015
  219MOL0     C28790   7.095   7.190   5.900  1.3469  0.3277 -0.3116
  219MOL0     C28791   6.949   7.164   5.911  0.1580  0.4203  0.3156
  219MOL0     C28792   6.886   7.301   5.937 -0.2976 -0.3199  0.3055
  219MOL0     N28793   6.742   7.295   5.967 -0.1005 -0.5134 -0.3603
  219MOL0     C28794   6.638   7.256   5.895 -0.3906  0.0514  0.8129
  219MOL0     C28795   6.541   7.207   5.974  0.1050 -0.7248  0.4758
  219MOL0     C28796   6.413   7.139   5.923 -0.0115 -0.4943  0.4618
  219MOL0     C28797   6.293   7.176   6.014  0.4737 -0.3062 -0.2560
  219MOL0     C28798   6.254   7.060   6.109  0.3871  0.0753 -0.5207
  219MOL0     C28799   6.154   7.099   6.220 -0.7690 -0.1599  0.6327
  219MOL0     O28800   6.023   7.111   6.159 -0.6655  0.1563  0.0453
  219MOL0     C28801   5.927   7.158   6.245 -0.3574  0.7547 -0.7607
  219MOL0     C28802   5.801   7.171   6.193 -0.6915 -0.2864 -0.2851
  219MOL0     C28803   5.696   7.218   6.263  0.1647 -1.0257 -0.6569
  219MOL0     C28804   5.707   7.250   6.399  0.0378 -0.1071 -0.1335
  219MOL0     C28805   5.602   7.301   6.483  0.3902 -0.2217  0.7542
  219MOL0     O28806   5.496   7.351   6.407  0.5383  0.0935  0.1502
  219MOL0     C28807   5.374   7.392   6.457 -0.6143  0.1723  0.7976
  219MOL0     C28808   5.330   7.375   6.588  0.5707  0.3522  0.1471
  219MOL0     C28809   5.200   7.418   6.627 -0.4075  0.7122  0.0546
  219MOL0     C28810   5.119   7.491   6.536 -0.7326  1.0937 -0.4962
  219MOL0     O28811   4.986   7.534   6.562 -0.3560  0.4985 -0.0989
  219MOL0     C28812   4.899   7.418   6.572  0.0849  0.4725  0.2651
  219MOL0     C28813   4.752   7.475   6.575 -0.1313  0.1601 -0.0279
  219MOL0     C28814   4.647   7.371   6.538  0.4116  0.1120 -0.1757
  219MOL0     C28815   4.536   7.441   6.475  0.2449  0.4845  0.3031
  219MOL0     C28816   4.439   7.516   6.569  0.9122  0.2610 -0.2477
  219MOL0     C28817   4.348   7.613   6.499  0.2119  0.1171 -0.0323
  219MOL0     C28818   4.241   7.675   6.594 -0.3648  1.0354 -0.4487
  219MOL0     C28819   4.138   7.750   6.510 -0.3705 -0.5199  0.1443
  219MOL0    Cl28820   4.043   7.653   6.400  0.5433  0.1702  0.2867
  219MOL0     C28821   5.177   7.528   6.416  0.0608  0.7544 -0.5050
  219MOL0     C28822   5.302   7.474   6.375 -0.0728  0.1794 -0.7151
  219MOL0     O28823   5.600   7.290   6.606 -0.8733 -0.2735 -0.1435
  219MOL0     C28824   5.832   7.234   6.461  0.4498 -0.0993  0.9180
  219MOL0     C28825   5.942   7.198   6.381  0.2512  0.4900  0.3954
  219MOL0     N28826   6.591   7.209   6.105 -0.2556 -0.3496  0.3101
  219MOL0     N28827   6.713   7.248   6.090  0.0588 -0.1731 -0.6143
  219MOL0     C28828   7.764   6.866   6.407 -1.2999  0.2277  0.0616
  219MOL0     C28829   7.865   6.814   6.481  0.0025  0.1066  0.1518
  219MOL0     C28830   8.293   6.661   6.536 -0.1393 -0.3989 -0.4021
  219MOL0     C28831   8.296   6.556   6.627 -0.7146 -0.3359 -0.2049
  219MOL0     C28832   8.412   6.508   6.679  0.5709 -0.7211 -0.8505
  219MOL0     C28833   8.533   6.552   6.648  0.1026  0.2383  0.6911
  219MOL0     O28834   8.640   6.482   6.699  0.2657  0.3678  0.6386
  219MOL0     C28835   8.765   6.478   6.631 -0.6368 -0.2766 -0.1191
  219MOL0     C28836   8.751   6.411   6.488 -0.0837 -0.3114 -0.8332
  219MOL0     C28837   8.706   6.270   6.479 -0.3958  0.8840  0.3442
  219MOL0     C28838   8.736   6.199   6.346 -0.1995 -0.2294 -0.3859
  219MOL0     C28839   8.672   6.068   6.345 -0.2821  0.1258 -0.0524
  219MOL0     C28840   8.606   5.963   6.336 -0.1559  0.1440  0.5220
  219MOL0     C28841   8.540   6.656   6.559  0.2115  0.0088 -0.0960
  219MOL0     C28842   8.422   6.716   6.505 -0.0744  0.1982  0.1319
  219MOL0     H28843   8.000   6.590   6.266  2.5626  2.0224 -1.7421
  219MOL0     H28844   7.811   6.684   6.121  0.4526  0.2054 -0.0375
  219MOL0     H28845   7.624   7.057   6.264 -1.9756  1.1506  1.5175
  219MOL0     H28846   7.506   6.945   6.339 -2.0458  1.5780 -1.0042
  219MOL0     H28847   7.388   6.935   6.138 -1.7441  0.9707 -1.0675
  219MOL0     H28848   7.508   7.021   6.045  2.8293 -2.3044  0.4375
  219MOL0     H28849   7.477   7.219   6.164 -1.4264  2.4823 -2.9013
  219MOL0     H28850   7.335   7.157   6.249 -1.3541  2.3995 -1.1473
  219MOL0     H28851   7.305   7.311   6.048 -5.5838  0.2136  1.0154
  219MOL0     H28852   7.362   7.165   5.948  1.2244 -0.2391  1.3277
  219MOL0     H28853   7.104   7.215   6.108  1.1101 -0.8320  0.7390
  219MOL0     H28854   7.159   7.051   6.047 -0.9170 -0.1839  1.0995
  219MOL0     H28855   7.135   7.118   5.828  0.4943 -1.3408  0.8268
  219MOL0     H28856   7.092   7.294   5.868 -4.0991  1.1710  1.7173
  219MOL0     H28857   6.907   7.135   5.814 -0.8533  3.0795 -0.1227
  219MOL0     H28858   6.922   7.093   5.990 -2.0303 -1.3719 -1.8558
  219MOL0     H28859   6.900   7.367   5.850  3.4691 -1.5127 -0.1459
  219MOL0     H28860   6.942   7.347   6.019 -2.3247  0.2597  1.4368
  219MOL0     H28861   6.628   7.271   5.788 -0.8884 -1.8065  0.5659
  219MOL0     H28862   6.424   7.030   5.925 -0.0325 -0.8289 -4.8541
  219MOL0     H28863   6.389   7.170   5.821  1.6536 -2.1601 -0.4912
  219MOL0     H28864   6.205   7.200   5.953  0.2740 -0.4886 -0.0448
  219MOL0     H28865   6.304   7.266   6.075 -4.1807 -0.3022  0.9814
  219MOL0     H28866   6.228   6.971   6.051 -0.4779  0.1586 -0.2740
  219MOL0     H28867   6.349   7.043   6.161 -0.4389 -1.2370  0.5959
  219MOL0     H28868   6.184   7.192   6.270 -3.0303  1.1769 -0.3073
  219MOL0     H28869   6.141   7.029   6.302 -1.6478  0.8884  1.4332
  219MOL0     H28870   5.783   7.135   6.092 -0.7466 -0.1694 -0.3178
  219MOL0     H28871   5.597   7.215   6.219 -0.9021  0.1848  1.5006
  219MOL0     H28872   5.382   7.313   6.660 -2.4909 -3.1027 -0.3105
  219MOL0     H28873   5.156   7.395   6.724 -1.4025 -0.5834 -0.6632
  219MOL0     H28874   4.937   7.359   6.657  1.3191  0.2518 -0.4199
  219MOL0     H28875   4.909   7.351   6.486  1.3458 -1.3290  1.7180
  219MOL0     H28876   4.722   7.560   6.513 -4.4365 -0.0098  1.5058
  219MOL0     H28877   4.733   7.508   6.677  0.0668 -1.3521  0.5271
  219MOL0     H28878   4.616   7.304   6.619 -1.5575  1.8751  0.6171
  219MOL0     H28879   4.686   7.299   6.465 -0.9881 -2.3517  1.3807
  219MOL0     H28880   4.561   7.499   6.386 -2.1988 -0.8245 -1.3732
  219MOL0     H28881   4.481   7.356   6.433 -1.1532  3.2198 -4.0518
  219MOL0     H28882   4.504   7.576   6.633  0.2537 -0.5848  1.2570
  219MOL0     H28883   4.390   7.440   6.631  0.2408 -0.3183 -1.4428
  219MOL0     H28884   4.298   7.552   6.423  0.5091  1.2321 -1.1663
  219MOL0     H28885   4.404   7.696   6.454 -1.5713  1.1148 -0.5056
  219MOL0     H28886   4.197   7.591   6.649  0.9397 -0.3332 -1.4059
  219MOL0     H28887   4.287   7.735   6.674  2.2944 -1.2393 -0.1186
  219MOL0     H28888   4.184   7.829   6.450 -0.0488 -1.1512 -0.4599
  219MOL0     H28889   4.066   7.804   6.571 -0.6265 -1.2069  0.4629
  219MOL0     H28890   5.127   7.598   6.350  0.6911  0.5552 -1.2058
  219MOL0     H28891   5.332   7.470   6.270 -1.0143 -0.5084 -0.9693
  219MOL0     H28892   5.842   7.256   6.567  2.3285 -0.4020  0.8301
  219MOL0     H28893   6.032   7.197   6.442 -0.3410  0.2742  1.2819
  219MOL0     H28894   7.709   6.948   6.454  1.3026  1.4528  1.2159
  219MOL0     H28895   7.885   6.851   6.581 -0.7184  0.4947  0.1549
  219MOL0     H28896   8.205   6.516   6.670 -0.2532  1.1658  2.3709
  219MOL0     H28897   8.403   6.418   6.738 -2.8229  0.4454  0.6929
  219MOL0     H28898   8.846   6.431   6.688 -1.3797 -0.4195  0.8448
  219MOL0     H28899   8.804   6.579   6.621 -2.1986  0.5178  1.3758
  219MOL0     H28900   8.671   6.464   6.436 -3.6009 -3.2387  1.0722
  219MOL0     H28901   8.840   6.421   6.426 -0.9411 -1.2922 -2.2831
  219MOL0     H28902   8.600   6.272   6.504 -0.2302  5.6375  1.6421
  219MOL0     H28903   8.764   6.208   6.548  2.9493  3.3754  0.0549
  219MOL0     H28904   8.698   6.261   6.264  0.5822 -0.7395 -1.1545
  219MOL0     H28905   8.844   6.196   6.328 -0.3893  1.0291 -2.0309
  219MOL0     H28906   8.542   5.878   6.329 -0.6651  0.4248  1.5935
  219MOL0     H28907   8.634   6.707   6.536  1.5471 -1.4405  1.8102
  219MOL0     H28908   8.427   6.805   6.443 -0.3982 -0.3984 -0.7829
  220MOL0     O28909   9.792  11.039   3.489 -0.0172 -0.4185 -0.0072
  220MOL0     C28910   9.836  10.977   3.584  0.3719 -0.4329  0.2480
  220MOL0     O28911   9.763  10.945   3.699 -0.0969  0.3086  0.5700
  220MOL0     C28912   9.628  10.971   3.719 -0.1220 -0.3914 -0.6386
  220MOL0     C28913   9.568  10.881   3.805 -0.4532 -0.0196  0.6737
  220MOL0     C28914   9.428  10.892   3.815 -0.0413 -0.7328 -0.4899
  220MOL0     C28915   9.346  10.985   3.745 -0.5217  0.5046  0.2797
  220MOL0     O28916   9.206  10.968   3.759  0.3314  0.2222  0.2801
  220MOL0     C28917   9.118  11.038   3.667  0.4348 -0.0080 -0.5998
  220MOL0     C28918   8.985  11.068   3.718  0.2054 -0.4516  0.0046
  220MOL0     C28919   8.990  11.187   3.813  0.6114 -0.0666 -0.3922
  220MOL0     C28920   8.848  11.228   3.856 -0.2304  0.7075 -0.1537
  220MOL0     C28921   8.849  11.348   3.953  0.1106 -0.0887 -0.5549
  220MOL0     C28922   8.704  11.414   3.982  0.8670 -0.6890 -0.7330
  220MOL0     C28923   8.738  11.497   4.103  0.0593 -0.8213 -0.1474
  220MOL0     C28924   8.612  11.562   4.167  0.7343 -0.2201 -0.8865
  220MOL0     N28925   8.536  11.468   4.257 -0.2183 -0.0506  0.2348
  220MOL0     C28926   8.564  11.436   4.387  0.4454  0.4993 -0.5154
  220MOL0     C28927   8.481  11.326   4.410 -0.1899 -1.4622  0.8060
  220MOL0     C28928   8.484  11.258   4.540 -0.1823  0.3506 -0.5613
  220MOL0     C28929   8.354  11.186   4.568  0.3599  0.3275 -0.2407
  220MOL0     C28930   8.355  11.131   4.711  0.0605 -0.2419  0.2770
  220MOL0     C28931   8.228  11.045   4.728 -0.4234 -0.1058 -0.8897
  220MOL0     O28932   8.106  11.107   4.672  0.7414  0.0779  0.7117
  220MOL0     C28933   7.992  11.060   4.721  0.1534 -0.1567 -0.0009
  220MOL0     C28934   7.967  10.931   4.776 -0.0727  0.1120  0.6078
  220MOL0     C28935   7.844  10.905   4.843 -0.1843 -0.2436 -0.4238
  220MOL0     C28936   7.744  10.999   4.834 -0.0731 -0.7864 -0.4158
  220MOL0     C28937   7.607  10.962   4.873  0.7816  0.4595  0.9517
  220MOL0     O28938   7.512  11.067   4.857 -1.4398 -0.2873 -0.2266
  220MOL0     C28939   7.374  11.064   4.875  0.0639 -0.4866 -0.1933
  220MOL0     C28940   7.293  10.945   4.889 -0.7179 -0.1064 -0.2473
  220MOL0     C28941   7.155  10.959   4.900  0.9493 -0.1916 -0.4653
  220MOL0     C28942   7.092  11.080   4.898  0.0070 -0.1375  0.8058
  220MOL0     O28943   6.957  11.095   4.906 -0.3237  0.3937 -0.8092
  220MOL0     C28944   6.879  11.013   4.997 -0.1694  0.2967  0.0281
  220MOL0     C28945   6.733  11.046   4.996 -0.1183  1.0670  0.3548
  220MOL0     C28946   6.703  11.179   5.070  0.5217  0.0552 -0.1954
  220MOL0     C28947   6.564  11.247   5.056 -0.3876  0.9043 -0.2059
  220MOL0     C28948   6.540  11.389   5.127  0.3358  0.5583  0.2505
  220MOL0     C28949   6.558  11.378   5.283  0.2994  0.2446 -0.2482
  220MOL0     C28950   6.616  11.507   5.353 -0.0802 -0.8078  0.5174
  220MOL0     C28951   6.654  11.480   5.499 -0.3984 -0.0299 -0.1172
  220MOL0    Cl28952   6.762  11.335   5.507 -0.0040 -0.0283 -0.6189
  220MOL0     C28953   7.166  11.195   4.873 -0.2632  0.0655  0.4868
  220MOL0     C28954   7.306  11.184   4.860  0.1913 -0.3266  0.6239
  220MOL0     O28955   7.579  10.847   4.912 -0.4048  0.4202  0.4268
  220MOL0     C28956   7.765  11.130   4.776  0.8052  0.4380 -0.5755
  220MOL0     C28957   7.893  11.156   4.725  0.1578 -0.0302  0.2811
  220MOL0     N28958   8.413  11.297   4.297  0.0125  0.5253  0.0381
  220MOL0     N28959   8.440  11.390   4.207  0.2456 -0.0192  0.1543
  220MOL0     C28960   9.419  11.086   3.676 -0.6279 -0.0967  0.9258
  220MOL0     C28961   9.558  11.075   3.660  0.2167  0.5590  0.2052
  220MOL0     C28962   9.978  10.944   3.576  0.8662 -0.4925  0.2973
  220MOL0     C28963  10.047  10.958   3.452  0.0776  0.6516 -0.4326
  220MOL0     C28964  10.182  10.918   3.441 -0.2113 -0.3758  0.3625
  220MOL0     C28965  10.244  10.869   3.558 -0.0090  0.0370  1.0117
  220MOL0     O28966  10.379  10.862   3.528 -0.0591  0.5464  0.3872
  220MOL0     C28967  10.474  10.815   3.636 -0.4924 -0.1426 -0.5405
  220MOL0     C28968  10.471  10.663   3.640  0.0264  0.2437 -0.6108
  220MOL0     C28969  10.566  10.622   3.751  0.3397  0.1671  0.0950
  220MOL0     C28970  10.508  10.635   3.892  0.0013 -0.3206 -0.3047
  220MOL0     C28971  10.604  10.582   3.989  0.1519  1.5296 -0.5141
  220MOL0     C28972  10.692  10.542   4.058  0.0541 -0.0779  0.2268
  220MOL0     C28973  10.186  10.843   3.676 -0.0069 -0.6140 -0.1487
  220MOL0     C28974  10.050  10.892   3.685 -0.9839  0.6845  0.2185
  220MOL0     H28975   9.623  10.798   3.846 -0.1490  0.7177  1.7989
  220MOL0     H28976   9.371  10.834   3.887  1.0927 -0.6190  0.5335
  220MOL0     H28977   9.107  10.973   3.580  0.3551 -2.0609  0.8555
  220MOL0     H28978   9.159  11.132   3.631 -1.3762  0.2116 -2.2398
  220MOL0     H28979   8.946  10.978   3.766 -0.4507 -0.6521 -0.8816
  220MOL0     H28980   8.916  11.086   3.635  2.2271  2.0774 -1.2687
  220MOL0     H28981   9.047  11.269   3.769  0.9752  2.2655  3.8138
  220MOL0     H28982   9.046  11.155   3.902 -0.2586  3.1755  1.5047
  220MOL0     H28983   8.792  11.268   3.771  2.7764  3.0391 -1.2067
  220MOL0     H28984   8.798  11.146   3.908 -2.8189  1.2100 -1.6902
  220MOL0     H28985   8.907  11.430   3.912 -0.7750  1.4861  1.1834
  220MOL0     H28986   8.881  11.317   4.053  1.3092  0.9136 -0.6055
  220MOL0     H28987   8.628  11.340   4.009 -0.4146  0.5502 -0.8738
  220MOL0     H28988   8.667  11.472   3.897  0.0585  1.3442  0.9444
  220MOL0     H28989   8.792  11.453   4.187 -1.2656 -0.4643  0.9372
  220MOL0     H28990   8.814  11.567   4.067  3.1242 -4.1861 -0.7062
  220MOL0     H28991   8.539  11.594   4.092 -2.7276  0.7557  2.6032
  220MOL0     H28992   8.660  11.643   4.223  1.3870  1.6655 -3.9205
  220MOL0     H28993   8.628  11.476   4.464 -0.2302  0.5002  0.0521
  220MOL0     H28994   8.517  11.327   4.619  1.6685 -2.8536  1.6826
  220MOL0     H28995   8.561  11.181   4.534 -0.5291  0.0692 -1.4354
  220MOL0     H28996   8.341  11.102   4.499  0.3950  0.0273  0.1116
  220MOL0     H28997   8.264  11.246   4.554 -1.4788 -2.5610 -1.7383
  220MOL0     H28998   8.446  11.071   4.721 -0.7701 -1.2672  2.2122
  220MOL0     H28999   8.349  11.220   4.774  2.7142  0.1222  0.1273
  220MOL0     H29000   8.224  11.014   4.833  0.6439  1.8122 -0.2389
  220MOL0     H29001   8.239  10.952   4.671 -2.7427 -1.8686  1.3295
  220MOL0     H29002   8.039  10.854   4.754  1.7163  1.4180  1.6254
  220MOL0     H29003   7.826  10.808   4.889 -1.1061  0.8019  1.5843
  220MOL0     H29004   7.325  10.842   4.906 -1.5394 -0.4481 -0.7008
  220MOL0     H29005   7.096  10.869   4.895 -0.4609  0.7139 -0.7628
  220MOL0     H29006   6.923  11.032   5.095  1.5033 -1.4317 -0.3294
  220MOL0     H29007   6.894  10.905   4.982 -1.7354  0.2317 -1.4513
  220MOL0     H29008   6.686  10.955   5.035  1.2159 -0.3225 -1.1335
  220MOL0     H29009   6.697  11.060   4.893  0.5719  1.8787  0.2117
  220MOL0     H29010   6.776  11.256   5.043 -0.0619  0.6419 -0.1001
  220MOL0     H29011   6.716  11.160   5.177 -3.4534 -0.8058  0.2795
  220MOL0     H29012   6.547  11.257   4.949 -1.9169  1.1001  0.0245
  220MOL0     H29013   6.484  11.181   5.092  2.0185 -1.1553  1.7820
  220MOL0     H29014   6.439  11.415   5.096  1.0281 -0.2733 -3.0979
  220MOL0     H29015   6.618  11.457   5.090  1.2446 -1.3961 -1.6315
  220MOL0     H29016   6.624  11.295   5.312  0.7360  0.8423  0.5032
  220MOL0     H29017   6.460  11.361   5.329 -0.0236  0.3397 -0.8956
  220MOL0     H29018   6.705  11.541   5.300 -1.2216  0.9239 -0.3942
  220MOL0     H29019   6.539  11.585   5.346 -0.7864 -1.4035  1.4019
  220MOL0     H29020   6.561  11.460   5.554 -0.8661  1.9753 -0.0812
  220MOL0     H29021   6.710  11.567   5.535 -0.4973  0.3689 -0.9012
  220MOL0     H29022   7.116  11.291   4.879  1.7357  1.2321 -0.3798
  220MOL0     H29023   7.364  11.275   4.843 -1.0687  0.5950  1.1196
  220MOL0     H29024   7.692  11.211   4.773 -0.4818 -0.5865  1.2505
  220MOL0     H29025   7.911  11.257   4.692  2.1730 -0.5320 -0.2716
  220MOL0     H29026   9.377  11.158   3.607  1.5626 -0.2702 -0.6977
  220MOL0     H29027   9.613  11.144   3.598 -1.1330 -0.5004 -2.3438
  220MOL0     H29028  10.000  11.014   3.372  0.2274  3.3352  1.2466
  220MOL0     H29029  10.247  10.944   3.358 -2.1112 -1.6381 -1.6317
  220MOL0     H29030  10.436  10.854   3.731  0.5113 -2.2337  0.7856
  220MOL0     H29031  10.576  10.848   3.615 -0.7388  0.2548 -1.1544
  220MOL0     H29032  10.374  10.619   3.666  1.0406 -1.0096  1.2668
  220MOL0     H29033  10.499  10.624   3.541  2.7552 -0.3974  0.3304
  220MOL0     H29034  10.650  10.691   3.738  1.7471 -1.1018  1.8052
  220MOL0     H29035  10.594  10.519   3.727  0.0904  0.8636 -3.8085
  220MOL0     H29036  10.475  10.734   3.924 -1.2808 -1.1164  0.9775
  220MOL0     H29037  10.418  10.576   3.912 -0.1451  0.9580  3.9242
  220MOL0     H29038  10.764  10.495   4.121 -0.0382  0.7487  0.9678
  220MOL0     H29039  10.233  10.801   3.764 -1.3586 -0.1315  0.8495
  220MOL0     H29040  10.004  10.890   3.783  0.5662 -2.1760  1.0032
  221MOL0     O29041   2.138  10.246   5.534  0.0593 -0.2622  0.3450
  221MOL0     C29042   2.181  10.317   5.621 -0.7589  0.2742 -1.1267
  221MOL0     O29043   2.115  10.349   5.728 -0.3400 -0.2720 -0.2763
  221MOL0     C29044   1.992  10.299   5.751 -0.5177 -0.9982 -0.1315
  221MOL0     C29045   1.893  10.389   5.803 -0.5410  0.0287 -0.2053
  221MOL0     C29046   1.780  10.343   5.843  0.1980 -1.0892 -0.0864
  221MOL0     C29047   1.751  10.202   5.836 -0.3195 -0.3165 -0.2456
  221MOL0     O29048   1.626  10.174   5.884 -0.0103 -0.4476 -0.3246
  221MOL0     C29049   1.618  10.059   5.976  0.5705  0.0701  0.9073
  221MOL0     C29050   1.490  10.094   6.053 -0.8664 -0.0100  0.3990
  221MOL0     C29051   1.423   9.984   6.138 -0.3344 -0.0038 -0.5041
  221MOL0     C29052   1.362   9.863   6.065 -0.5301 -0.0924  0.3366
  221MOL0     C29053   1.312   9.754   6.170 -0.6155 -0.1808  0.5488
  221MOL0     C29054   1.170   9.794   6.222 -0.2275  0.8176  0.1663
  221MOL0     C29055   1.118   9.683   6.308 -0.1541 -0.8889  0.2998
  221MOL0     C29056   1.113   9.724   6.453 -0.9247  0.5589  0.2156
  221MOL0     N29057   1.026   9.639   6.537  0.3069 -0.3313  0.2289
  221MOL0     C29058   1.058   9.517   6.591  0.5924 -0.2024  0.2781
  221MOL0     C29059   0.950   9.480   6.666 -0.8227 -0.2593 -0.3110
  221MOL0     C29060   0.932   9.352   6.747 -0.4719  0.5364  0.3450
  221MOL0     C29061   0.824   9.262   6.688  0.1602  0.0596  0.3953
  221MOL0     C29062   0.687   9.304   6.726 -0.8419 -0.3553 -0.6319
  221MOL0     C29063   0.595   9.200   6.675  0.1889 -0.2546 -1.1055
  221MOL0     O29064   0.573   9.102   6.786 -0.2507  0.5922  0.1293
  221MOL0     C29065   0.550   8.965   6.743  0.4567 -0.8327 -0.4895
  221MOL0     C29066   0.424   8.913   6.728 -0.5466  0.9487 -0.0174
  221MOL0     C29067   0.405   8.785   6.685 -0.3848 -0.6663  0.0318
  221MOL0     C29068   0.516   8.699   6.663 -0.2963 -0.3165  0.3498
  221MOL0     C29069   0.492   8.557   6.622  0.0432 -0.3284  0.2460
  221MOL0     O29070   0.355   8.520   6.608 -0.6192 -0.6649 -0.3113
  221MOL0     C29071   0.335   8.387   6.591  1.0429 -0.0398  0.2213
  221MOL0     C29072   0.249   8.345   6.487 -0.0256 -0.4264 -0.2450
  221MOL0     C29073   0.230   8.212   6.460  0.5430 -0.4419 -0.4555
  221MOL0     C29074   0.294   8.117   6.538  0.2721  0.8824  0.3767
  221MOL0     O29075   0.278   7.984   6.498 -0.3842  0.4762  0.2731
  221MOL0     C29076   0.358   7.885   6.555  0.4675 -0.0253  0.0599
  221MOL0     C29077   0.321   7.759   6.489  0.0758  0.7577 -0.6158
  221MOL0     C29078   0.398   7.748   6.354  0.6386  0.6487 -0.6138
  221MOL0     C29079   0.372   7.615   6.277 -0.5348  0.2288 -0.4857
  221MOL0     C29080   0.447   7.636   6.150  0.1385 -0.5260 -0.1267
  221MOL0     C29081   0.343   7.670   6.038  0.1317  0.1633 -0.5591
  221MOL0     C29082   0.390   7.610   5.901  0.4902  0.2311  0.1051
  221MOL0     C29083   0.331   7.469   5.871 -0.1118  0.3053  0.1544
  221MOL0    Cl29084   0.145   7.487   5.851  0.3348  0.1013 -0.7569
  221MOL0     C29085   0.378   8.154   6.651 -0.3759  0.9442  0.0820
  221MOL0     C29086   0.392   8.290   6.670  0.2039 -0.7190  0.1740
  221MOL0     O29087   0.588   8.493   6.592 -0.0558  0.2265  0.7750
  221MOL0     C29088   0.645   8.753   6.673 -0.2911 -1.0574  0.2375
  221MOL0     C29089   0.663   8.888   6.714  0.6412 -1.3619  0.1084
  221MOL0     N29090   0.866   9.579   6.661 -0.5015 -0.2251 -0.2887
  221MOL0     N29091   0.895   9.670   6.577  0.0082  0.3947  0.2240
  221MOL0     C29092   1.850  10.105   5.803  0.4379 -0.4720 -0.5931
  221MOL0     C29093   1.975  10.162   5.767  0.8101  2.1140 -0.2763
  221MOL0     C29094   2.307  10.383   5.606 -0.6976 -0.0252  0.2460
  221MOL0     C29095   2.384  10.360   5.491 -0.0073 -0.4001  0.5167
  221MOL0     C29096   2.505  10.420   5.462 -0.9608  0.5750 -0.4857
  221MOL0     C29097   2.550  10.520   5.548  0.1150  0.8820 -0.8877
  221MOL0     O29098   2.665  10.587   5.542 -0.4601  0.1201 -0.0432
  221MOL0     C29099   2.714  10.595   5.405 -0.1156 -0.1003  0.7099
  221MOL0     C29100   2.821  10.706   5.397  0.4286 -1.2429 -0.2432
  221MOL0     C29101   2.961  10.652   5.437 -0.3509  0.4287 -0.4475
  221MOL0     C29102   3.062  10.759   5.477 -0.4337  0.4776 -0.3274
  221MOL0     C29103   3.098  10.842   5.355  1.1130  0.1206 -0.0531
  221MOL0     C29104   3.095  10.909   5.255  0.6521  0.1469 -0.2597
  221MOL0     C29105   2.485  10.526   5.673 -0.4826  0.2228 -0.6925
  221MOL0     C29106   2.364  10.467   5.698  0.3677  0.1826 -0.3623
  221MOL0     H29107   1.912  10.495   5.819 -0.2390 -0.1076  0.3920
  221MOL0     H29108   1.712  10.416   5.886  2.7797 -0.3930  3.2907
  221MOL0     H29109   1.704  10.069   6.043  0.9934  1.9585  0.1462
  221MOL0     H29110   1.613   9.967   5.918  0.5546  0.1267  0.8190
  221MOL0     H29111   1.413  10.119   5.980 -0.3182 -1.1678 -0.6188
  221MOL0     H29112   1.528  10.176   6.115  0.0845 -2.1359  2.7867
  221MOL0     H29113   1.350  10.023   6.209  0.0689 -1.7994  0.9937
  221MOL0     H29114   1.503   9.942   6.200 -0.3097 -1.8451 -1.7039
  221MOL0     H29115   1.293   9.895   5.987  2.3797  2.7092 -1.3228
  221MOL0     H29116   1.442   9.812   6.009  0.8110  0.2334  1.8808
  221MOL0     H29117   1.394   9.742   6.242  1.6049  0.0482 -1.7862
  221MOL0     H29118   1.293   9.661   6.116 -0.5003  0.0674  0.0753
  221MOL0     H29119   1.105   9.802   6.134  0.0641 -2.0775 -0.4007
  221MOL0     H29120   1.169   9.890   6.275  1.3823 -1.0141  3.8465
  221MOL0     H29121   1.016   9.666   6.270 -0.1961 -0.3495  0.1594
  221MOL0     H29122   1.178   9.592   6.296  4.4782  1.8564  0.4487
  221MOL0     H29123   1.068   9.823   6.444  1.5364  1.5668 -2.7445
  221MOL0     H29124   1.215   9.729   6.492 -0.7472  2.2260 -0.3708
  221MOL0     H29125   1.147   9.457   6.572 -0.0999 -0.5473 -2.2572
  221MOL0     H29126   0.899   9.377   6.848 -1.8754  0.5056 -0.0797
  221MOL0     H29127   1.028   9.300   6.758  0.0464  1.1913 -0.9034
  221MOL0     H29128   0.832   9.166   6.738  1.0063 -0.1310 -0.0961
  221MOL0     H29129   0.840   9.260   6.579  1.3380  4.0381  0.3202
  221MOL0     H29130   0.688   9.306   6.835  1.9307 -2.0663 -0.5077
  221MOL0     H29131   0.664   9.405   6.693 -1.6517 -0.3403 -0.0331
  221MOL0     H29132   0.624   9.147   6.583 -0.6562 -3.8742  0.5434
  221MOL0     H29133   0.503   9.254   6.653  1.4137  2.0327 -0.9630
  221MOL0     H29134   0.336   8.970   6.757 -2.5012 -2.5623  1.5568
  221MOL0     H29135   0.301   8.757   6.695 -1.1420  0.9206 -2.3998
  221MOL0     H29136   0.195   8.420   6.430  1.1152  0.4153 -0.2555
  221MOL0     H29137   0.182   8.191   6.366  1.5139  2.9660 -1.8456
  221MOL0     H29138   0.333   7.877   6.662 -2.3128 -3.3952 -0.6603
  221MOL0     H29139   0.466   7.900   6.547  0.1041  2.1721 -1.6858
  221MOL0     H29140   0.212   7.753   6.481 -0.1583  0.6765  1.9193
  221MOL0     H29141   0.353   7.677   6.554 -1.5767 -0.0565 -0.7709
  221MOL0     H29142   0.505   7.745   6.377  0.2672  1.1639  1.2923
  221MOL0     H29143   0.375   7.834   6.290 -0.6216 -1.7850 -3.7487
  221MOL0     H29144   0.411   7.534   6.340 -0.4509  1.4435  1.0721
  221MOL0     H29145   0.263   7.624   6.266 -0.8813  2.4931  3.2882
  221MOL0     H29146   0.515   7.553   6.128  2.5879  0.6542  2.2802
  221MOL0     H29147   0.512   7.723   6.164 -2.0791  1.2089 -0.0632
  221MOL0     H29148   0.346   7.780   6.036  2.3362  0.6099  5.8111
  221MOL0     H29149   0.238   7.643   6.051 -0.9718  2.1761 -3.9115
  221MOL0     H29150   0.355   7.675   5.820 -1.1761  0.0131  0.6121
  221MOL0     H29151   0.498   7.609   5.916  0.3732  0.6111  1.0829
  221MOL0     H29152   0.345   7.395   5.950 -2.1958 -0.1015  0.1887
  221MOL0     H29153   0.375   7.423   5.783  0.2388 -0.9729  0.9739
  221MOL0     H29154   0.423   8.071   6.703 -1.0607  0.3302 -0.2849
  221MOL0     H29155   0.454   8.321   6.753  1.2027  0.6561 -1.0098
  221MOL0     H29156   0.735   8.694   6.659  1.3633  1.5410 -0.8581
  221MOL0     H29157   0.762   8.927   6.737  0.2545 -0.9577  1.1460
  221MOL0     H29158   1.847   9.999   5.829  3.6158 -0.3441  0.7002
  221MOL0     H29159   2.057  10.091   5.763  1.8255  3.1805  0.6982
  221MOL0     H29160   2.345  10.292   5.416 -0.1992 -1.5336  1.6041
  221MOL0     H29161   2.547  10.405   5.363 -1.4651 -2.1977 -0.3575
  221MOL0     H29162   2.628  10.623   5.343  0.4490 -0.6766 -0.3542
  221MOL0     H29163   2.749  10.496   5.375 -3.2636 -2.2814  3.4937
  221MOL0     H29164   2.824  10.750   5.297  3.6510 -2.3110 -0.7135
  221MOL0     H29165   2.791  10.796   5.452 -0.0520 -2.3677  1.4153
  221MOL0     H29166   2.993  10.598   5.347 -2.4978 -0.3345 -0.8189
  221MOL0     H29167   2.957  10.584   5.522 -2.2197 -0.5394 -1.2470
  221MOL0     H29168   3.024  10.833   5.548  3.0359  0.6614  1.5553
  221MOL0     H29169   3.147  10.709   5.525 -4.3131 -1.6197  5.4466
  221MOL0     H29170   3.113  10.966   5.166 -0.9955  2.1141  0.5972
  221MOL0     H29171   2.522  10.589   5.754 -1.3932 -0.8172  0.5766
  221MOL0     H29172   2.311  10.498   5.787  0.6741 -0.1900 -0.0452
  222MOL0     O29173  10.965   4.862   3.131  0.0084  0.8469 -0.2950
  222MOL0     C29174  10.940   4.758   3.066 -0.2887  0.1355 -0.5369
  222MOL0     O29175  10.855   4.659   3.104 -0.4360  0.1325 -0.0093
  222MOL0     C29176  10.756   4.670   3.198 -0.7609 -1.0668  0.0832
  222MOL0     C29177  10.730   4.584   3.301  0.0167  1.2285  0.0075
  222MOL0     C29178  10.626   4.596   3.394 -0.2865  0.4558 -0.5647
  222MOL0     C29179  10.539   4.707   3.382  0.1201  0.4830 -0.1022
  222MOL0     O29180  10.447   4.720   3.474  0.4529  0.3558  0.1866
  222MOL0     C29181  10.314   4.783   3.438 -0.9300 -0.7389 -0.4541
  222MOL0     C29182  10.220   4.698   3.523  0.6162 -0.3062 -0.5700
  222MOL0     C29183  10.071   4.730   3.494  0.0918 -0.4002 -0.6983
  222MOL0     C29184  10.027   4.863   3.547  1.1756 -0.6100 -0.6077
  222MOL0     C29185   9.865   4.873   3.561 -0.1929  0.8246  0.9600
  222MOL0     C29186   9.798   4.764   3.654 -0.3192 -0.4139 -1.1024
  222MOL0     C29187   9.649   4.788   3.683 -0.5246  0.5487  0.1799
  222MOL0     C29188   9.586   4.689   3.784 -0.0818 -0.3974  0.4053
  222MOL0     N29189   9.440   4.701   3.784 -0.3349  0.8544  0.4336
  222MOL0     C29190   9.372   4.726   3.897 -0.0418 -0.1670 -0.0700
  222MOL0     C29191   9.247   4.727   3.859  0.1597 -0.8263  0.1880
  222MOL0     C29192   9.132   4.771   3.943 -0.2596 -0.3052 -0.5457
  222MOL0     C29193   9.067   4.660   4.025 -0.0806  0.0801  0.1559
  222MOL0     C29194   8.939   4.712   4.083 -0.6410  0.2250 -0.5506
  222MOL0     C29195   8.865   4.599   4.160 -0.6384 -0.3504  0.5920
  222MOL0     O29196   8.807   4.503   4.060 -0.6381 -0.6010  0.4108
  222MOL0     C29197   8.772   4.372   4.095  0.5945 -0.6654 -0.3168
  222MOL0     C29198   8.797   4.264   4.011  0.3088  0.2781 -0.1637
  222MOL0     C29199   8.745   4.138   4.050 -0.6831 -0.4248  0.2414
  222MOL0     C29200   8.676   4.114   4.170 -0.6041  0.3901 -0.0758
  222MOL0     C29201   8.617   3.982   4.213 -0.1767  0.4008 -0.0873
  222MOL0     O29202   8.558   3.984   4.332  0.5690  0.1004 -0.1561
  222MOL0     C29203   8.492   3.865   4.381 -0.2717 -1.4903  0.2354
  222MOL0     C29204   8.359   3.867   4.404  0.0592 -0.7236 -0.4615
  222MOL0     C29205   8.291   3.772   4.476  0.2634  1.0775 -0.2134
  222MOL0     C29206   8.354   3.648   4.512 -0.4050  0.2566 -0.5312
  222MOL0     O29207   8.291   3.533   4.564  0.5504  0.0266  0.0357
  222MOL0     C29208   8.187   3.554   4.666  0.0508  0.0693  1.2378
  222MOL0     C29209   8.048   3.563   4.603  0.6989  0.5265 -0.8077
  222MOL0     C29210   7.940   3.563   4.703 -0.2305 -0.2893  0.1990
  222MOL0     C29211   7.808   3.551   4.631 -0.6085 -0.3087 -0.7864
  222MOL0     C29212   7.688   3.568   4.727 -0.6102 -0.0432 -0.3858
  222MOL0     C29213   7.662   3.440   4.809 -0.4715 -0.4098 -0.0080
  222MOL0     C29214   7.558   3.462   4.924  0.8467 -0.3845 -0.0941
  222MOL0     C29215   7.486   3.339   4.960 -0.6797  0.4285  0.0920
  222MOL0    Cl29216   7.401   3.268   4.824 -0.0729 -0.1161 -0.2496
  222MOL0     C29217   8.501   3.644   4.495 -0.5006 -0.7245 -0.1641
  222MOL0     C29218   8.558   3.758   4.436  0.5683 -0.2403 -0.3083
  222MOL0     O29219   8.652   3.884   4.156  0.1494  0.0246  1.0629
  222MOL0     C29220   8.645   4.229   4.247 -0.4480 -0.1629 -0.9802
  222MOL0     C29221   8.697   4.362   4.213 -0.0145  0.5221  0.1207
  222MOL0     N29222   9.242   4.681   3.733  0.2490 -0.2592  1.2950
  222MOL0     N29223   9.362   4.667   3.682  0.4393  0.5392  0.0052
  222MOL0     C29224  10.552   4.792   3.269  0.7568 -0.6928  0.4975
  222MOL0     C29225  10.665   4.774   3.182  0.9675 -1.1418 -0.2008
  222MOL0     C29226  11.007   4.760   2.933 -0.2473  0.6177 -0.3298
  222MOL0     C29227  11.120   4.837   2.912 -0.0074  0.6747  0.0217
  222MOL0     C29228  11.182   4.831   2.795 -0.3664  0.0415 -0.2200
  222MOL0     C29229  11.150   4.736   2.696 -0.2153 -0.2182  0.2003
  222MOL0     O29230  11.222   4.725   2.583 -0.2099  0.2299  0.1868
  222MOL0     C29231  11.320   4.824   2.543  0.3249 -0.1142 -0.0119
  222MOL0     C29232  11.252   4.953   2.494  1.1167  0.3497  0.8326
  222MOL0     C29233  11.257   4.967   2.344 -0.2995  0.4700 -0.2388
  222MOL0     C29234  11.165   5.081   2.296  0.9935 -0.0307  0.2304
  222MOL0     C29235  11.191   5.213   2.362 -0.4835  0.5827  0.3294
  222MOL0     C29236  11.227   5.314   2.417  0.2248  0.4182 -0.0257
  222MOL0     C29237  11.033   4.657   2.713 -0.0916 -0.1502  0.4419
  222MOL0     C29238  10.960   4.667   2.834 -0.2253  0.5644 -0.7978
  222MOL0     H29239  10.787   4.492   3.312 -1.1560  0.2989 -1.3192
  222MOL0     H29240  10.612   4.530   3.479  2.2266  0.0750 -0.3694
  222MOL0     H29241  10.296   4.753   3.334  0.1982  0.4710 -1.0258
  222MOL0     H29242  10.299   4.887   3.468 -3.9755 -1.5558  1.3071
  222MOL0     H29243  10.238   4.709   3.630 -1.7283 -2.6005  0.1695
  222MOL0     H29244  10.235   4.595   3.489 -1.0705 -1.8745  2.9356
  222MOL0     H29245  10.013   4.651   3.542 -0.2720 -0.1049 -0.6447
  222MOL0     H29246  10.063   4.712   3.386  0.6725 -1.5088 -0.5781
  222MOL0     H29247  10.082   4.872   3.641  2.3439 -0.1672 -1.3054
  222MOL0     H29248  10.061   4.940   3.477 -0.2303 -0.0842 -0.7341
  222MOL0     H29249   9.825   4.882   3.459  1.8041  2.5171  0.2790
  222MOL0     H29250   9.851   4.974   3.600 -4.4598  0.7120  0.2023
  222MOL0     H29251   9.847   4.761   3.752 -2.3535 -3.9804 -0.0252
  222MOL0     H29252   9.813   4.666   3.606 -0.7889 -0.8109 -0.4533
  222MOL0     H29253   9.645   4.887   3.729  0.8124  1.7062 -2.0534
  222MOL0     H29254   9.584   4.787   3.595  0.6042 -0.9334 -0.6905
  222MOL0     H29255   9.628   4.718   3.881  4.2042  0.7257 -1.5041
  222MOL0     H29256   9.610   4.583   3.772 -1.9914 -0.7926 -0.2859
  222MOL0     H29257   9.414   4.751   3.993  2.1454 -0.3222 -0.9392
  222MOL0     H29258   9.056   4.812   3.876 -0.5122 -0.7318 -0.5207
  222MOL0     H29259   9.175   4.853   4.002  2.2398 -3.0737  1.8504
  222MOL0     H29260   9.132   4.621   4.105 -1.7087  0.2403  1.6269
  222MOL0     H29261   9.032   4.579   3.960 -3.0997  0.8373  0.6875
  222MOL0     H29262   8.957   4.798   4.148 -0.4384  1.6140 -2.3572
  222MOL0     H29263   8.869   4.747   4.006 -2.2848  0.2439  0.8970
  222MOL0     H29264   8.783   4.651   4.210 -1.7749 -0.2337 -1.2755
  222MOL0     H29265   8.931   4.553   4.234  0.0460 -0.1256  0.1342
  222MOL0     H29266   8.849   4.282   3.918 -0.5503 -1.3856 -1.0297
  222MOL0     H29267   8.757   4.061   3.975 -1.1640 -0.2036 -0.0722
  222MOL0     H29268   8.305   3.955   4.372  1.1065 -0.5442 -1.8276
  222MOL0     H29269   8.190   3.791   4.511 -1.1485 -0.9125 -2.8195
  222MOL0     H29270   8.212   3.649   4.715 -1.5637  1.3739 -0.3420
  222MOL0     H29271   8.205   3.471   4.734 -1.1419 -1.5963 -0.3878
  222MOL0     H29272   8.044   3.479   4.534  3.1672 -0.3988  0.0590
  222MOL0     H29273   8.025   3.657   4.551 -0.5857  0.1603 -0.9360
  222MOL0     H29274   7.941   3.662   4.748 -0.0223  0.2687 -0.9923
  222MOL0     H29275   7.947   3.477   4.771 -0.0643 -1.7309 -1.5626
  222MOL0     H29276   7.797   3.639   4.566  1.3623  0.8156  0.3072
  222MOL0     H29277   7.810   3.461   4.568  4.0524 -2.6818  2.2044
  222MOL0     H29278   7.596   3.589   4.671 -1.0320  0.7795  0.5731
  222MOL0     H29279   7.716   3.645   4.800  2.6084 -0.0562 -1.4288
  222MOL0     H29280   7.749   3.410   4.867 -2.7126 -2.8924  2.3893
  222MOL0     H29281   7.632   3.366   4.734  0.1082 -1.1591  0.4961
  222MOL0     H29282   7.597   3.508   5.015  3.3633 -2.9101  0.2394
  222MOL0     H29283   7.494   3.540   4.881  0.7408 -0.6459 -0.4196
  222MOL0     H29284   7.421   3.352   5.047 -1.9943 -3.4566 -0.1408
  222MOL0     H29285   7.561   3.267   4.996  0.3991  1.8689  0.8161
  222MOL0     H29286   8.573   3.567   4.520  0.0368  0.2460  1.4581
  222MOL0     H29287   8.666   3.766   4.428  0.6592  1.6646  1.7985
  222MOL0     H29288   8.594   4.220   4.342  1.3089  1.1619  0.1454
  222MOL0     H29289   8.662   4.445   4.273  0.8719  2.1903 -1.5505
  222MOL0     H29290  10.479   4.872   3.258  1.5910 -0.2176 -2.2195
  222MOL0     H29291  10.668   4.841   3.097 -4.3957  0.2102  0.3141
  222MOL0     H29292  11.147   4.900   2.997 -2.5731  0.2940  1.2076
  222MOL0     H29293  11.262   4.903   2.777  0.4602 -1.2145 -1.8404
  222MOL0     H29294  11.374   4.783   2.457 -0.5488 -0.4279 -0.4244
  222MOL0     H29295  11.391   4.840   2.624 -0.0431 -3.3259  1.0727
  222MOL0     H29296  11.149   4.969   2.528  1.8055  1.8099  2.3721
  222MOL0     H29297  11.306   5.040   2.532  2.5144  0.8157 -1.9698
  222MOL0     H29298  11.233   4.875   2.290  1.0707 -1.0839  1.6550
  222MOL0     H29299  11.363   4.985   2.326  0.1667 -3.8299 -3.1978
  222MOL0     H29300  11.178   5.084   2.188  2.2428 -1.6070  0.2921
  222MOL0     H29301  11.060   5.053   2.304  1.2504 -0.8668  0.8008
  222MOL0     H29302  11.284   5.392   2.463 -0.9692  1.9733 -1.0626
  222MOL0     H29303  11.004   4.588   2.635  3.6037 -2.5243  0.9500
  222MOL0     H29304  10.872   4.606   2.851  0.9556 -1.5958 -1.8937
  223MOL0     O29305   6.170   6.823   5.054  0.3509 -0.0279  0.3662
  223MOL0     C29306   6.100   6.896   4.985 -0.1042  0.4716 -0.1073
  223MOL0     O29307   5.967   6.876   4.963 -0.1630 -0.1893  0.1662
  223MOL0     C29308   5.914   6.757   4.983  0.3186 -0.5457 -0.3717
  223MOL0     C29309   5.780   6.750   5.019 -0.2229  0.5387  0.1137
  223MOL0     C29310   5.721   6.626   5.057 -0.0471 -0.0601  0.5315
  223MOL0     C29311   5.789   6.496   5.034  0.5446 -0.8233 -0.3414
  223MOL0     O29312   5.733   6.375   5.069 -0.5913  0.3019  0.3042
  223MOL0     C29313   5.628   6.383   5.165  0.4351  0.3444 -0.1242
  223MOL0     C29314   5.579   6.249   5.217  0.5504  0.0761 -0.0847
  223MOL0     C29315   5.459   6.258   5.321 -0.8533  0.3855  0.9035
  223MOL0     C29316   5.415   6.108   5.356 -1.0039 -0.6465  0.0003
  223MOL0     C29317   5.308   6.127   5.472  0.2397 -0.0045  0.2680
  223MOL0     C29318   5.269   5.993   5.537 -0.1784 -0.4266 -0.4361
  223MOL0     C29319   5.185   6.020   5.661 -0.3902  0.1809  0.3385
  223MOL0     C29320   5.154   5.892   5.728  0.6440 -0.1989 -0.8674
  223MOL0     N29321   5.083   5.915   5.859  0.3895 -0.3664 -0.2445
  223MOL0     C29322   5.150   5.926   5.979  1.0623 -0.2915  0.1531
  223MOL0     C29323   5.062   6.000   6.058 -0.2332  0.4780  0.2956
  223MOL0     C29324   5.090   6.037   6.203 -0.7919 -0.8023  0.4810
  223MOL0     C29325   5.139   5.917   6.281 -0.1402  0.1706  0.2039
  223MOL0     C29326   5.042   5.867   6.392  0.2248 -0.0156 -0.2961
  223MOL0     C29327   5.102   5.743   6.460  0.1255  0.5658 -0.1049
  223MOL0     O29328   5.082   5.766   6.598 -0.7502  0.3526  1.3829
  223MOL0     C29329   5.145   5.695   6.694  0.6702 -0.6537  0.4700
  223MOL0     C29330   5.092   5.707   6.823 -0.2253 -0.6704 -0.4343
  223MOL0     C29331   5.124   5.617   6.931 -0.7256 -0.4715 -0.2350
  223MOL0     C29332   5.223   5.522   6.904 -0.9217 -0.7533 -0.6764
  223MOL0     C29333   5.261   5.430   7.007 -0.5252  0.3444  0.3081
  223MOL0     O29334   5.184   5.431   7.121 -0.3362  1.0175  0.1925
  223MOL0     C29335   5.206   5.354   7.233  0.6417  0.4686 -0.7555
  223MOL0     C29336   5.297   5.245   7.242  0.0838  0.7695  0.2572
  223MOL0     C29337   5.298   5.163   7.359  0.4887  0.4112  0.3539
  223MOL0     C29338   5.211   5.181   7.471  0.5571  0.1447 -0.3239
  223MOL0     O29339   5.202   5.106   7.585 -0.9876  0.0836 -0.1847
  223MOL0     C29340   5.295   4.989   7.592 -0.0336 -0.4653  0.2689
  223MOL0     C29341   5.442   5.027   7.635  0.6663  0.5353 -0.0369
  223MOL0     C29342   5.451   5.084   7.771  0.7838  0.3263 -0.3129
  223MOL0     C29343   5.551   5.208   7.782  0.1852  0.3670  0.2597
  223MOL0     C29344   5.491   5.319   7.694  0.3464 -0.1357  0.2861
  223MOL0     C29345   5.563   5.446   7.727 -0.5796 -0.5934 -1.0898
  223MOL0     C29346   5.556   5.551   7.615 -0.6534  0.8611  1.5880
  223MOL0     C29347   5.416   5.593   7.579 -0.5170 -0.3268  0.5483
  223MOL0    Cl29348   5.417   5.739   7.464 -0.1258  0.4730 -0.0967
  223MOL0     C29349   5.124   5.293   7.461  0.2363  0.1053  0.2222
  223MOL0     C29350   5.129   5.382   7.350 -0.4433 -0.6464  0.9366
  223MOL0     O29351   5.340   5.343   6.980  0.4998 -0.6622  0.1355
  223MOL0     C29352   5.278   5.502   6.773  1.6406  0.3363 -0.0832
  223MOL0     C29353   5.242   5.594   6.675  0.3646 -0.7390  0.1649
  223MOL0     N29354   4.938   6.003   5.994  0.0122 -0.2176 -0.5702
  223MOL0     N29355   4.951   5.964   5.870 -1.1367 -0.3824  0.5520
  223MOL0     C29356   5.918   6.516   4.982 -0.2789  0.1011  0.5807
  223MOL0     C29357   5.974   6.640   4.958 -0.1793 -0.7829 -0.3532
  223MOL0     C29358   6.167   7.013   4.926  0.1537  0.2656  0.0494
  223MOL0     C29359   6.314   7.024   4.925  0.6314 -0.8131 -0.5048
  223MOL0     C29360   6.371   7.152   4.892 -0.5429  0.2938  0.6850
  223MOL0     C29361   6.291   7.260   4.851  0.2427  0.0226 -0.1253
  223MOL0     O29362   6.335   7.384   4.812  0.4992  0.1643  0.5483
  223MOL0     C29363   6.474   7.417   4.812 -0.3105 -0.4322 -0.1546
  223MOL0     C29364   6.509   7.546   4.740  0.6681 -0.0259  0.0202
  223MOL0     C29365   6.625   7.610   4.806 -0.3095  0.2107 -0.2707
  223MOL0     C29366   6.698   7.728   4.738 -0.6669 -0.2748  0.4287
  223MOL0     C29367   6.610   7.838   4.720 -0.3846  0.2805  0.0784
  223MOL0     C29368   6.519   7.914   4.695 -0.3419 -0.1068 -0.7186
  223MOL0     C29369   6.153   7.234   4.834  0.0424  0.2534  0.6004
  223MOL0     C29370   6.092   7.114   4.864 -0.5789  0.0097 -0.5734
  223MOL0     H29371   5.726   6.841   5.041  0.6855  0.8827  1.0252
  223MOL0     H29372   5.622   6.636   5.099 -0.3196  3.1740 -0.6096
  223MOL0     H29373   5.540   6.436   5.128  0.8049  2.0148  1.2317
  223MOL0     H29374   5.658   6.446   5.249 -0.8349 -1.7414  1.9871
  223MOL0     H29375   5.659   6.200   5.273  0.1630 -0.2429  0.1913
  223MOL0     H29376   5.538   6.184   5.139  0.0948  1.0464 -0.6726
  223MOL0     H29377   5.371   6.313   5.286 -1.3497 -1.1973 -0.4214
  223MOL0     H29378   5.486   6.315   5.411 -0.5496  0.8291  0.5306
  223MOL0     H29379   5.376   6.058   5.267 -0.3500 -1.7226  0.2880
  223MOL0     H29380   5.506   6.060   5.394  0.2740  1.5254 -0.1792
  223MOL0     H29381   5.219   6.186   5.450  1.1853  3.4905  4.4399
  223MOL0     H29382   5.361   6.183   5.549 -0.8983 -1.0209  1.8740
  223MOL0     H29383   5.358   5.939   5.571 -1.4488 -1.4500  1.4310
  223MOL0     H29384   5.207   5.941   5.464 -0.1142 -0.7546 -0.2597
  223MOL0     H29385   5.245   6.079   5.732  0.2221  0.2643 -0.2394
  223MOL0     H29386   5.087   6.064   5.643 -0.4829 -1.1928 -3.2070
  223MOL0     H29387   5.248   5.846   5.760 -1.3297 -1.0377  4.7242
  223MOL0     H29388   5.098   5.828   5.660  0.0211 -0.2815 -0.2798
  223MOL0     H29389   5.245   5.888   6.014 -0.4560 -3.1206  1.6370
  223MOL0     H29390   5.001   6.082   6.249 -0.8660 -0.2222 -0.2068
  223MOL0     H29391   5.163   6.118   6.210 -0.8828 -0.6501 -0.2335
  223MOL0     H29392   5.230   5.950   6.332  1.1684 -3.7664  0.7074
  223MOL0     H29393   5.160   5.832   6.216  1.2101  0.0413  0.7831
  223MOL0     H29394   5.031   5.944   6.469  3.1071  1.1456 -0.9245
  223MOL0     H29395   4.944   5.853   6.347 -0.8062  1.3131  1.4119
  223MOL0     H29396   5.211   5.751   6.455  0.1994  1.5741  2.0367
  223MOL0     H29397   5.061   5.651   6.417 -1.5521  0.0588  2.3810
  223MOL0     H29398   5.006   5.772   6.835 -1.3400 -1.9819 -0.9508
  223MOL0     H29399   5.079   5.630   7.029  1.0315 -0.3062  0.5746
  223MOL0     H29400   5.360   5.216   7.159  1.7252 -0.3839  1.8244
  223MOL0     H29401   5.356   5.071   7.351 -1.5655 -1.0374  1.3550
  223MOL0     H29402   5.307   4.948   7.491 -1.5907  0.8964 -0.5193
  223MOL0     H29403   5.250   4.917   7.660 -0.7662 -0.5127 -0.2577
  223MOL0     H29404   5.478   5.098   7.561 -0.4938  0.3439 -0.8140
  223MOL0     H29405   5.496   4.931   7.633  0.7599  0.5867  0.0003
  223MOL0     H29406   5.478   5.004   7.841 -3.8041  0.3094  1.7770
  223MOL0     H29407   5.348   5.113   7.792  0.0969 -1.9392 -0.2347
  223MOL0     H29408   5.566   5.236   7.887 -0.7366  0.0114  0.4898
  223MOL0     H29409   5.650   5.180   7.746  0.1203  1.2002 -0.6040
  223MOL0     H29410   5.388   5.332   7.729  0.5936  0.5652  0.7808
  223MOL0     H29411   5.493   5.296   7.587 -3.3377  0.6067 -0.0854
  223MOL0     H29412   5.670   5.428   7.741 -0.6347  0.1358  0.4335
  223MOL0     H29413   5.525   5.491   7.819 -3.9518 -3.0356 -1.1279
  223MOL0     H29414   5.610   5.640   7.648  3.1223 -0.5708 -0.1182
  223MOL0     H29415   5.597   5.508   7.523 -2.7689  0.3389  0.8370
  223MOL0     H29416   5.379   5.621   7.678  0.7859  2.0045  0.4594
  223MOL0     H29417   5.355   5.510   7.543 -2.3930  2.0325 -2.1888
  223MOL0     H29418   5.050   5.323   7.535  0.7242 -0.6837  1.0551
  223MOL0     H29419   5.061   5.467   7.351  0.4507  0.2043 -1.6888
  223MOL0     H29420   5.335   5.417   6.736  2.1635 -0.1091  1.6800
  223MOL0     H29421   5.274   5.580   6.573  0.8769 -1.1983  0.3780
  223MOL0     H29422   5.992   6.439   4.960  1.1643  1.2871  1.1080
  223MOL0     H29423   6.071   6.637   4.908  0.5584 -3.2946  1.0782
  223MOL0     H29424   6.388   6.952   4.959  1.0044 -0.3926 -0.4054
  223MOL0     H29425   6.478   7.155   4.905 -0.4748 -3.9439  3.3579
  223MOL0     H29426   6.544   7.341   4.777  0.0695 -0.2168  0.1455
  223MOL0     H29427   6.488   7.424   4.920 -0.7312 -1.4451 -0.0232
  223MOL0     H29428   6.528   7.523   4.635  0.8085  0.7106 -0.1215
  223MOL0     H29429   6.417   7.606   4.742  1.4164  1.1767 -0.7054
  223MOL0     H29430   6.708   7.540   4.820  0.2199  1.3047  2.6820
  223MOL0     H29431   6.601   7.641   4.908  1.4650  2.0889 -0.3427
  223MOL0     H29432   6.788   7.754   4.794  0.4258  1.0644 -1.7975
  223MOL0     H29433   6.734   7.697   4.639  0.2621 -3.5210  1.6507
  223MOL0     H29434   6.445   7.991   4.692 -2.0133 -1.4727  1.6469
  223MOL0     H29435   6.093   7.319   4.805 -0.4486  0.1556  1.3085
  223MOL0     H29436   5.985   7.099   4.864 -0.8809  1.9684 -0.4459
  224MOL0     O29437   7.644   2.146   0.140  0.7832  0.2196  0.2384
  224MOL0     C29438   7.725   2.168   0.227 -0.0946  0.0936 -0.6268
  224MOL0     O29439   7.716   2.261   0.329  0.8124 -0.6170 -0.2302
  224MOL0     C29440   7.607   2.342   0.332 -0.5735 -0.7644  0.3447
  224MOL0     C29441   7.636   2.470   0.381 -0.4817 -0.5554  0.8731
  224MOL0     C29442   7.537   2.568   0.391 -0.2922  0.4275  0.6014
  224MOL0     C29443   7.405   2.535   0.353  0.8691 -1.0903  0.7435
  224MOL0     O29444   7.307   2.643   0.355  0.1417  0.8381  0.8658
  224MOL0     C29445   7.174   2.633   0.294  0.5945 -0.4204 -0.2810
  224MOL0     C29446   7.072   2.735   0.354 -0.3245 -0.6124 -0.1017
  224MOL0     C29447   6.919   2.708   0.354  0.0070  0.3873  0.4005
  224MOL0     C29448   6.857   2.723   0.203  0.3423  0.5850 -0.3740
  224MOL0     C29449   6.704   2.692   0.207 -0.8103  0.7232 -0.3695
  224MOL0     C29450   6.635   2.815   0.268  0.4678  0.1345 -1.0363
  224MOL0     C29451   6.479   2.793   0.257 -0.8124 -1.0177 -0.0949
  224MOL0     C29452   6.419   2.842   0.127  0.3952 -0.0620  0.5197
  224MOL0     N29453   6.268   2.828   0.128 -0.1470  0.1848  0.1030
  224MOL0     C29454   6.162   2.907   0.188 -0.6686 -0.4820  0.7664
  224MOL0     C29455   6.050   2.831   0.174 -0.6762 -0.7747 -0.0355
  224MOL0     C29456   5.916   2.845   0.242 -0.0731 -0.5971 -0.2839
  224MOL0     C29457   5.800   2.813   0.143 -0.4445 -0.3429  0.9102
  224MOL0     C29458   5.659   2.861   0.174  1.3885  0.4214  0.2513
  224MOL0     C29459   5.561   2.770   0.100  0.7522  1.0104  1.0212
  224MOL0     O29460   5.569   2.765  -0.047  0.5295  0.5000  0.3531
  224MOL0     C29461   5.449   2.737  -0.113 -0.0983 -0.5612  0.3963
  224MOL0     C29462   5.331   2.695  -0.045  0.1614 -0.3845  0.7850
  224MOL0     C29463   5.221   2.666  -0.109 -0.3919  0.1201 -0.0155
  224MOL0     C29464   5.224   2.659  -0.254 -0.1264 -0.0911  0.5168
  224MOL0     C29465   5.097   2.636  -0.328 -0.7247 -0.1533 -0.8064
  224MOL0     O29466   4.979   2.654  -0.260  0.1678  0.2481 -0.2326
  224MOL0     C29467   4.865   2.636  -0.336 -0.1016 -0.4309 -0.3270
  224MOL0     C29468   4.754   2.585  -0.278  0.4688  0.4827 -0.2045
  224MOL0     C29469   4.628   2.554  -0.343 -0.2600  0.6976  0.3207
  224MOL0     C29470   4.617   2.581  -0.473 -0.0146 -0.8939 -0.1836
  224MOL0     O29471   4.504   2.548  -0.550 -0.1720 -0.4565  0.3589
  224MOL0     C29472   4.531   2.474  -0.670  0.8136 -0.0687  0.2034
  224MOL0     C29473   4.579   2.320  -0.661 -0.6981 -0.2391 -0.3511
  224MOL0     C29474   4.456   2.239  -0.621  0.5403  1.4161 -0.4185
  224MOL0     C29475   4.485   2.086  -0.634  0.4044  0.7469 -0.7043
  224MOL0     C29476   4.355   2.012  -0.620 -0.6754  0.2732  0.4189
  224MOL0     C29477   4.380   1.859  -0.634 -1.1343 -0.0215 -0.0659
  224MOL0     C29478   4.256   1.783  -0.649  0.1010 -0.8539  0.0470
  224MOL0     C29479   4.150   1.837  -0.547  0.7347  0.1196  0.7312
  224MOL0    Cl29480   3.996   1.732  -0.574  0.2391 -0.6064 -0.1152
  224MOL0     C29481   4.728   2.646  -0.540  0.8878 -0.3243  1.2579
  224MOL0     C29482   4.845   2.675  -0.474 -0.1962 -0.5908  0.7814
  224MOL0     O29483   5.108   2.627  -0.454  0.1152 -0.1259 -0.4199
  224MOL0     C29484   5.338   2.692  -0.324 -0.7001  0.0763 -0.4888
  224MOL0     C29485   5.449   2.737  -0.258  0.7534 -0.1442 -0.5923
  224MOL0     N29486   6.086   2.712   0.107 -0.4156 -0.0812 -1.2757
  224MOL0     N29487   6.216   2.710   0.092  0.2169 -0.4217  0.5481
  224MOL0     C29488   7.369   2.415   0.299  0.2744 -0.0125  0.3844
  224MOL0     C29489   7.475   2.327   0.290 -0.4097  0.1067 -0.0594
  224MOL0     C29490   7.838   2.078   0.222  0.0567  0.7007  0.2284
  224MOL0     C29491   7.935   2.074   0.318 -0.1882  0.5507 -0.2070
  224MOL0     C29492   8.042   1.989   0.307 -0.1179  1.1864  0.1733
  224MOL0     C29493   8.064   1.907   0.198  0.6036  0.5209  0.2307
  224MOL0     O29494   8.178   1.831   0.187 -0.8614  0.0330 -0.1264
  224MOL0     C29495   8.300   1.858   0.269 -0.4570  0.6524 -1.0515
  224MOL0     C29496   8.427   1.809   0.201  0.2234 -0.5182 -0.4386
  224MOL0     C29497   8.536   1.792   0.312 -0.0575 -0.0195  0.6676
  224MOL0     C29498   8.583   1.924   0.374 -0.3992 -0.7157 -0.3511
  224MOL0     C29499   8.651   2.004   0.280  0.4444 -0.6338  0.8036
  224MOL0     C29500   8.702   2.081   0.203  1.2776 -0.5401 -0.2927
  224MOL0     C29501   7.957   1.896   0.101  0.1552 -0.2177  0.0190
  224MOL0     C29502   7.847   1.981   0.116  0.5243  0.2453 -0.1809
  224MOL0     H29503   7.738   2.474   0.418  0.3947 -1.1816 -1.3164
  224MOL0     H29504   7.573   2.664   0.426 -0.5451  1.4001 -1.6107
  224MOL0     H29505   7.134   2.532   0.306  1.2539 -0.6809 -0.2475
  224MOL0     H29506   7.186   2.658   0.188 -0.9116  3.7001  0.3200
  224MOL0     H29507   7.092   2.835   0.312  1.8351  1.4289  4.9263
  224MOL0     H29508   7.095   2.743   0.461 -2.9002  0.6330  0.4350
  224MOL0     H29509   6.873   2.791   0.408  0.2983  2.6075 -2.4925
  224MOL0     H29510   6.897   2.608   0.393 -1.7797  0.8389  0.6361
  224MOL0     H29511   6.877   2.825   0.167  0.5050 -0.1350 -2.4602
  224MOL0     H29512   6.916   2.655   0.141  3.2423  0.0536  2.6838
  224MOL0     H29513   6.688   2.601   0.266 -0.7486 -1.1464 -3.0424
  224MOL0     H29514   6.675   2.671   0.103  1.1557  1.0455 -1.0246
  224MOL0     H29515   6.657   2.906   0.212 -2.4620 -0.0707 -2.7035
  224MOL0     H29516   6.661   2.817   0.375  0.2155  1.4289 -0.9855
  224MOL0     H29517   6.450   2.688   0.267 -0.1070 -1.5746 -2.9589
  224MOL0     H29518   6.431   2.858   0.330 -0.4479 -2.9899  1.9990
  224MOL0     H29519   6.457   2.800   0.034 -1.9213  1.0409 -1.0206
  224MOL0     H29520   6.455   2.943   0.109  2.9344 -0.9964 -0.0402
  224MOL0     H29521   6.170   3.010   0.222 -1.2745  0.4166 -1.6752
  224MOL0     H29522   5.894   2.937   0.297 -0.8671 -2.0976  2.0763
  224MOL0     H29523   5.909   2.773   0.324 -1.8130  1.9899  2.0319
  224MOL0     H29524   5.794   2.704   0.142 -1.8253 -0.2941  1.5494
  224MOL0     H29525   5.822   2.841   0.040  2.6304 -1.3464  1.1824
  224MOL0     H29526   5.650   2.862   0.283 -1.1005  1.3331  0.0985
  224MOL0     H29527   5.652   2.963   0.135  1.2185 -0.4005 -2.0295
  224MOL0     H29528   5.466   2.817   0.129  0.7222  1.0977  0.7851
  224MOL0     H29529   5.575   2.673   0.148  1.2387  1.1791  1.2194
  224MOL0     H29530   5.315   2.699   0.062  0.8777 -0.0508  0.8906
  224MOL0     H29531   5.133   2.620  -0.065  1.4099 -4.3290 -0.5182
  224MOL0     H29532   4.752   2.557  -0.174 -2.2841 -1.0894 -0.5613
  224MOL0     H29533   4.558   2.502  -0.279 -1.0289  1.0310 -0.2363
  224MOL0     H29534   4.608   2.528  -0.727  2.5917 -1.9737  0.6780
  224MOL0     H29535   4.438   2.471  -0.728 -2.1795  0.6400  4.4868
  224MOL0     H29536   4.665   2.308  -0.595 -0.4567 -1.5483 -0.8851
  224MOL0     H29537   4.615   2.291  -0.760  3.0787 -0.6571  0.9967
  224MOL0     H29538   4.370   2.269  -0.681 -0.7649  1.6369  1.4870
  224MOL0     H29539   4.428   2.261  -0.518 -3.6506  1.3686 -1.3886
  224MOL0     H29540   4.544   2.052  -0.720  0.2463 -0.7529 -0.2503
  224MOL0     H29541   4.542   2.067  -0.543 -1.5792 -0.0570  0.4093
  224MOL0     H29542   4.289   2.050  -0.698  0.8776  0.8953 -0.6543
  224MOL0     H29543   4.317   2.039  -0.521  3.9645 -1.4087  2.9908
  224MOL0     H29544   4.439   1.822  -0.550 -2.4143 -1.0999  0.4029
  224MOL0     H29545   4.432   1.842  -0.729 -1.9041 -1.9597 -0.1912
  224MOL0     H29546   4.206   1.787  -0.746 -2.3932 -0.3706  1.2435
  224MOL0     H29547   4.277   1.678  -0.625  2.7866 -0.3472  0.1940
  224MOL0     H29548   4.115   1.939  -0.567 -0.9015 -0.4144  0.6976
  224MOL0     H29549   4.190   1.818  -0.447  4.0910 -3.3488 -1.0286
  224MOL0     H29550   4.714   2.695  -0.636  0.5274 -0.3781  1.2804
  224MOL0     H29551   4.920   2.735  -0.525 -0.3681  0.9632  2.2537
  224MOL0     H29552   5.339   2.701  -0.433 -0.4359 -1.2925 -0.6209
  224MOL0     H29553   5.535   2.775  -0.313 -0.2984  2.3593 -0.6450
  224MOL0     H29554   7.274   2.369   0.275  1.4717 -2.2305 -0.4177
  224MOL0     H29555   7.440   2.230   0.257 -1.1996  0.1630  0.5763
  224MOL0     H29556   7.924   2.139   0.403  0.0594  0.6268 -0.2297
  224MOL0     H29557   8.116   1.983   0.386 -0.1172 -4.7140  0.1638
  224MOL0     H29558   8.282   1.799   0.360  0.7901 -1.0335 -1.8497
  224MOL0     H29559   8.311   1.965   0.288  0.9782  0.6219 -1.6362
  224MOL0     H29560   8.419   1.718   0.140  3.8239 -0.4489 -1.2609
  224MOL0     H29561   8.452   1.885   0.127 -2.2538  0.5779 -0.2367
  224MOL0     H29562   8.632   1.749   0.281  1.9400  1.4446  4.1688
  224MOL0     H29563   8.490   1.734   0.393 -1.0415  1.1325  0.9499
  224MOL0     H29564   8.494   1.979   0.407  0.0003 -0.1959 -0.1185
  224MOL0     H29565   8.645   1.893   0.459 -2.5178 -0.3787  1.4162
  224MOL0     H29566   8.727   2.161   0.136  2.6099  0.7625  1.6559
  224MOL0     H29567   7.965   1.812   0.032  3.0292 -0.0528  0.0639
  224MOL0     H29568   7.759   1.972   0.053  0.5638  3.1921 -0.8393
  225MOL0     O29569  10.187   8.743  11.035  0.3250  0.6671 -0.1420
  225MOL0     C29570  10.201   8.851  11.094 -0.2699 -2.0418  0.2563
  225MOL0     O29571  10.102   8.926  11.143 -0.3307  0.5983 -0.2453
  225MOL0     C29572   9.969   8.886  11.142  0.5146 -0.4100  0.0185
  225MOL0     C29573   9.877   8.990  11.111 -0.4523 -0.5225 -0.5585
  225MOL0     C29574   9.738   8.967  11.113  0.1754 -0.1695  0.7999
  225MOL0     C29575   9.685   8.836  11.116 -0.3117 -0.6754  0.0546
  225MOL0     O29576   9.553   8.812  11.087 -0.7400  0.1233  0.3351
  225MOL0     C29577   9.464   8.848  11.189  0.2566 -0.3947 -0.1992
  225MOL0     C29578   9.422   8.712  11.251 -0.3134  0.1915 -0.8553
  225MOL0     C29579   9.369   8.614  11.147  0.7578 -1.3253 -0.4324
  225MOL0     C29580   9.322   8.493  11.220 -0.4108  0.7796 -0.1059
  225MOL0     C29581   9.281   8.384  11.132  0.0599 -0.2899  0.3904
  225MOL0     C29582   9.198   8.272  11.205 -1.1692  0.0154  0.3223
  225MOL0     C29583   9.153   8.167  11.103 -0.0240 -0.2976 -0.4496
  225MOL0     C29584   9.082   8.043  11.172 -0.1222  0.2241 -0.7161
  225MOL0     N29585   8.944   8.072  11.220 -0.5822  0.0583 -0.2214
  225MOL0     C29586   8.853   8.166  11.172 -1.2179  0.3784 -0.4738
  225MOL0     C29587   8.763   8.175  11.268  0.2948 -0.4356 -0.4003
  225MOL0     C29588   8.644   8.269  11.274  0.3754  0.0402  0.3560
  225MOL0     C29589   8.517   8.222  11.214 -0.3986 -0.8202  0.5995
  225MOL0     C29590   8.404   8.325  11.207  0.0229  0.2860  0.4610
  225MOL0     C29591   8.302   8.296  11.315 -0.1051  0.4869 -0.4480
  225MOL0     O29592   8.197   8.396  11.294 -0.0230  0.1892  0.3366
  225MOL0     C29593   8.063   8.364  11.283 -0.2624  0.1131 -0.3025
  225MOL0     C29594   7.973   8.437  11.357  0.5781 -0.4914  0.7905
  225MOL0     C29595   7.836   8.422  11.344  0.3963  0.2446 -1.0488
  225MOL0     C29596   7.783   8.315  11.262 -0.2460 -0.2804  0.1427
  225MOL0     C29597   7.638   8.290  11.241 -0.5604  0.5685  0.8565
  225MOL0     O29598   7.559   8.358  11.328 -0.2330 -1.1462 -0.3748
  225MOL0     C29599   7.425   8.335  11.341  0.3671  0.6854 -0.4172
  225MOL0     C29600   7.344   8.236  11.296  0.3803  0.2605 -0.4811
  225MOL0     C29601   7.204   8.224  11.328 -0.6180  0.4233  0.4686
  225MOL0     C29602   7.147   8.323  11.408  0.4242 -0.5641 -0.0164
  225MOL0     O29603   7.019   8.323  11.456  0.2874  0.3579 -0.0334
  225MOL0     C29604   6.973   8.194  11.506 -0.0421 -0.0726  0.0742
  225MOL0     C29605   6.885   8.212  11.625 -0.2245 -0.3943 -0.0819
  225MOL0     C29606   6.788   8.092  11.636  0.0448 -0.5709  0.4697
  225MOL0     C29607   6.685   8.123  11.755  0.1440  0.6561  0.2146
  225MOL0     C29608   6.536   8.124  11.720 -0.4965 -0.1799  0.5941
  225MOL0     C29609   6.464   7.990  11.691  0.3421  0.5001  0.8629
  225MOL0     C29610   6.447   7.912  11.815  0.0115  0.5795 -0.3244
  225MOL0     C29611   6.421   7.756  11.778 -0.4778 -0.8620  0.3493
  225MOL0    Cl29612   6.278   7.744  11.670  0.0902 -0.1244 -0.0860
  225MOL0     C29613   7.222   8.441  11.442 -0.2404 -0.1777  0.7191
  225MOL0     C29614   7.361   8.432  11.411  0.2018 -0.0361  0.4412
  225MOL0     O29615   7.600   8.215  11.152 -0.0204 -0.2786 -0.4274
  225MOL0     C29616   7.882   8.241  11.192  0.0492 -0.5638  0.0235
  225MOL0     C29617   8.018   8.270  11.193  0.3945  0.1266  0.6823
  225MOL0     N29618   8.795   8.091  11.373 -0.7429 -0.1788  0.3895
  225MOL0     N29619   8.903   8.025  11.342  0.1539 -0.4182 -0.6600
  225MOL0     C29620   9.770   8.734  11.153 -0.0418  0.3066 -0.4246
  225MOL0     C29621   9.909   8.758  11.174 -0.2324  0.2377  0.3004
  225MOL0     C29622  10.333   8.904  11.103  0.4376 -0.5100 -0.8275
  225MOL0     C29623  10.436   8.852  11.019 -0.3020 -0.3409  0.2974
  225MOL0     C29624  10.565   8.895  11.042 -0.0094 -0.1266 -0.2805
  225MOL0     C29625  10.600   8.998  11.135  0.2241 -0.1672  0.6254
  225MOL0     O29626  10.732   9.047  11.164 -0.3857 -0.5330 -0.7276
  225MOL0     C29627  10.829   8.947  11.212  0.1186  0.6126  0.9768
  225MOL0     C29628  10.938   8.911  11.108  0.2934  0.4236  0.2571
  225MOL0     C29629  11.009   9.049  11.054 -0.0486  1.1931  0.3369
  225MOL0     C29630  10.959   9.088  10.916 -0.1300 -0.2827  0.2338
  225MOL0     C29631  11.056   9.144  10.826  0.3685  0.2199 -0.6003
  225MOL0     C29632  11.123   9.210  10.749 -0.1047  0.0296 -0.6096
  225MOL0     C29633  10.495   9.038  11.214  0.3137 -0.6061 -0.7970
  225MOL0     C29634  10.367   8.998  11.197  0.0762  0.2634 -0.6493
  225MOL0     H29635   9.916   9.087  11.082 -0.8458 -0.6877 -1.7013
  225MOL0     H29636   9.663   9.041  11.087  0.8087  0.0268 -0.5575
  225MOL0     H29637   9.382   8.906  11.145  0.2279  0.0666  0.4634
  225MOL0     H29638   9.521   8.900  11.266  3.6123 -2.4888 -1.0366
  225MOL0     H29639   9.344   8.724  11.328  1.0480  0.6236  0.5191
  225MOL0     H29640   9.507   8.671  11.306 -0.5856 -0.6137 -1.0326
  225MOL0     H29641   9.453   8.591  11.081  0.8428  2.7226 -2.0474
  225MOL0     H29642   9.299   8.664  11.080  2.2868  2.8306  0.7282
  225MOL0     H29643   9.403   8.462  11.286  0.0082  0.0587 -0.9373
  225MOL0     H29644   9.235   8.521  11.280 -0.9299 -0.7638 -0.0819
  225MOL0     H29645   9.372   8.343  11.089 -0.7163 -1.7635  0.0814
  225MOL0     H29646   9.221   8.424  11.050  2.8165  1.8113 -0.7663
  225MOL0     H29647   9.113   8.322  11.252  0.5983  0.9544  2.7079
  225MOL0     H29648   9.272   8.233  11.276  1.6478  1.1005 -1.7945
  225MOL0     H29649   9.091   8.221  11.032 -0.9499 -0.6015  0.1141
  225MOL0     H29650   9.240   8.125  11.050 -0.1479  0.5023 -1.3018
  225MOL0     H29651   9.144   7.989  11.244  1.4608  2.1809 -0.5285
  225MOL0     H29652   9.061   7.971  11.092 -1.1571  0.3294 -0.5497
  225MOL0     H29653   8.841   8.209  11.073 -0.6309 -3.1855 -2.2869
  225MOL0     H29654   8.674   8.366  11.234  1.5063  0.3694  1.8874
  225MOL0     H29655   8.626   8.276  11.382 -0.5251  2.6400  0.1043
  225MOL0     H29656   8.476   8.131  11.257 -0.5525 -1.9223 -1.7345
  225MOL0     H29657   8.538   8.208  11.107 -1.0410 -0.7556  0.4614
  225MOL0     H29658   8.446   8.426  11.202 -1.5121  0.9358 -0.1084
  225MOL0     H29659   8.352   8.300  11.114  0.8609 -0.9659  0.2959
  225MOL0     H29660   8.357   8.307  11.409  2.3361  1.2335 -1.8752
  225MOL0     H29661   8.264   8.194  11.316  0.8529  0.1187 -0.6102
  225MOL0     H29662   8.016   8.510  11.426  1.1291  1.1939 -1.2382
  225MOL0     H29663   7.771   8.487  11.401 -1.4958 -1.5568 -1.0734
  225MOL0     H29664   7.392   8.155  11.242  0.3591  0.4075 -0.7233
  225MOL0     H29665   7.141   8.137  11.313 -0.2805  0.4939 -1.6681
  225MOL0     H29666   7.063   8.136  11.529  1.5627  1.1957 -2.6598
  225MOL0     H29667   6.916   8.156  11.421  2.5825 -1.8226 -1.0400
  225MOL0     H29668   6.829   8.305  11.610  2.9271  1.7731  0.8213
  225MOL0     H29669   6.936   8.244  11.716 -1.2944  0.0943  0.3667
  225MOL0     H29670   6.853   8.004  11.638  2.8678  1.2636 -1.7224
  225MOL0     H29671   6.734   8.088  11.540  0.2022 -3.5026  0.4196
  225MOL0     H29672   6.709   8.042  11.825  0.2158 -0.7934 -1.4376
  225MOL0     H29673   6.710   8.218  11.804  2.9683  0.3226 -0.4540
  225MOL0     H29674   6.528   8.194  11.637  0.9863  0.6922  1.1532
  225MOL0     H29675   6.496   8.184  11.802  0.4188  1.5928 -0.2090
  225MOL0     H29676   6.510   7.943  11.604  1.1717  3.0621 -0.1653
  225MOL0     H29677   6.366   8.029  11.664  1.0442  2.2400  0.6815
  225MOL0     H29678   6.540   7.905  11.871 -1.1282 -0.7181  1.5039
  225MOL0     H29679   6.374   7.958  11.882 -1.2454  2.1495 -2.5865
  225MOL0     H29680   6.413   7.694  11.868 -0.2123 -0.9367  0.3197
  225MOL0     H29681   6.510   7.729  11.721  0.2269  1.5049  0.2427
  225MOL0     H29682   7.184   8.516  11.511 -0.2177  0.6772 -0.1726
  225MOL0     H29683   7.428   8.507  11.451  1.2147 -1.3866  1.3602
  225MOL0     H29684   7.842   8.166  11.124 -1.6957  0.7542 -0.4563
  225MOL0     H29685   8.081   8.207  11.131  0.5646 -1.2149  2.1745
  225MOL0     H29686   9.739   8.631  11.169 -0.3568  0.3803 -0.5481
  225MOL0     H29687   9.971   8.684  11.224 -2.0283 -3.3233 -2.3652
  225MOL0     H29688  10.425   8.774  10.945  1.9794  0.6227 -1.1568
  225MOL0     H29689  10.649   8.855  10.985 -0.5491 -2.4388  0.4334
  225MOL0     H29690  10.778   8.857  11.247 -1.8336  1.0623 -0.5082
  225MOL0     H29691  10.874   9.001  11.296 -0.7053  1.4001  0.9272
  225MOL0     H29692  11.014   8.846  11.152  3.1994  2.0022 -2.0824
  225MOL0     H29693  10.895   8.858  11.023  1.0831  0.4789 -0.1943
  225MOL0     H29694  11.112   9.016  11.038 -0.1163  1.2830 -0.3263
  225MOL0     H29695  11.007   9.122  11.135  1.2397  1.4171  0.1869
  225MOL0     H29696  10.902   9.012  10.862  0.8100 -1.3994  0.7747
  225MOL0     H29697  10.880   9.161  10.936 -2.5255 -2.6177 -0.1505
  225MOL0     H29698  11.182   9.285  10.700  0.9324  0.0557  0.6535
  225MOL0     H29699  10.504   9.122  11.282 -0.1436  1.5965 -3.3041
  225MOL0     H29700  10.286   9.020  11.266  0.4365  0.5260 -0.3039
  226MOL0     O29701   0.054  11.130   4.495  0.1346  0.8437 -0.3563
  226MOL0     C29702   0.054  11.073   4.598  0.0061  1.0841 -0.6270
  226MOL0     O29703  -0.041  11.090   4.699 -0.4141 -0.4641 -0.5957
  226MOL0     C29704  -0.171  11.117   4.669 -0.0616  0.1014 -0.1298
  226MOL0     C29705  -0.238  11.097   4.545 -0.7781  0.4845 -1.0344
  226MOL0     C29706  -0.374  11.142   4.526 -0.4299  0.0781 -0.5111
  226MOL0     C29707  -0.444  11.193   4.638 -0.3101  0.2585  0.6970
  226MOL0     O29708  -0.578  11.223   4.650 -0.2299  0.4840 -0.1268
  226MOL0     C29709  -0.638  11.283   4.539  0.9345 -0.2086 -0.1959
  226MOL0     C29710  -0.725  11.403   4.591 -0.7810 -0.1999  0.1455
  226MOL0     C29711  -0.868  11.350   4.626 -0.1654 -1.2722 -0.1668
  226MOL0     C29712  -0.956  11.470   4.670 -0.2744 -0.1514 -0.3097
  226MOL0     C29713  -1.088  11.440   4.740 -0.6889  0.6780  0.4246
  226MOL0     C29714  -1.172  11.562   4.788  1.1238 -0.2656 -0.4785
  226MOL0     C29715  -1.290  11.511   4.874 -0.2444  0.3912 -0.2940
  226MOL0     C29716  -1.418  11.474   4.787  0.1883  0.1309  0.0702
  226MOL0     N29717  -1.535  11.429   4.876  0.2026  0.2141 -0.1612
  226MOL0     C29718  -1.547  11.307   4.931  0.3494  0.1731 -0.2235
  226MOL0     C29719  -1.668  11.302   4.996 -0.4995  0.1910 -0.4457
  226MOL0     C29720  -1.728  11.192   5.083 -0.7631 -0.6696  0.4057
  226MOL0     C29721  -1.652  11.187   5.221  0.6043 -0.8770  0.4889
  226MOL0     C29722  -1.712  11.072   5.300 -0.1618  0.0341 -0.1806
  226MOL0     C29723  -1.840  11.115   5.361  0.6435 -0.0899 -0.3048
  226MOL0     O29724  -1.869  11.006   5.445  0.3299 -0.8413  0.4204
  226MOL0     C29725  -1.956  11.014   5.554 -1.1109  0.7467 -0.3579
  226MOL0     C29726  -1.949  10.915   5.653  0.0111 -0.2392 -0.3090
  226MOL0     C29727  -2.028  10.910   5.769 -1.0557 -0.2375  0.7333
  226MOL0     C29728  -2.110  11.027   5.800 -0.8555 -0.1982  0.1685
  226MOL0     C29729  -2.193  11.026   5.918 -0.2941 -0.3479  1.0766
  226MOL0     O29730  -2.272  11.139   5.926 -0.5169  0.2459  0.2407
  226MOL0     C29731  -2.367  11.138   6.028 -0.2725 -0.2725  0.7463
  226MOL0     C29732  -2.478  11.055   6.019 -0.1043 -0.3935 -0.2220
  226MOL0     C29733  -2.582  11.071   6.118 -0.3855  0.0293 -0.5265
  226MOL0     C29734  -2.567  11.166   6.214 -0.0854 -0.6867 -1.4014
  226MOL0     O29735  -2.664  11.188   6.312 -0.3513 -0.5669 -0.2782
  226MOL0     C29736  -2.786  11.251   6.273  0.6251 -0.2243  0.0226
  226MOL0     C29737  -2.857  11.307   6.400  0.7664  0.0039 -0.2213
  226MOL0     C29738  -2.908  11.191   6.494  0.3463 -1.0494  1.0005
  226MOL0     C29739  -2.970  11.236   6.627 -0.6336  0.5100  0.2620
  226MOL0     C29740  -3.117  11.276   6.619  0.8410  0.0636  0.1908
  226MOL0     C29741  -3.165  11.343   6.751 -0.0747  0.1219  0.0267
  226MOL0     C29742  -3.316  11.353   6.739  0.2338 -0.9141  0.0909
  226MOL0     C29743  -3.385  11.383   6.868 -0.0871 -0.4005 -0.1243
  226MOL0    Cl29744  -3.363  11.245   6.967 -0.4235 -0.0269  0.4287
  226MOL0     C29745  -2.460  11.253   6.214 -2.1048  0.2084  0.2903
  226MOL0     C29746  -2.362  11.242   6.119  0.7950 -0.4128  0.5149
  226MOL0     O29747  -2.186  10.934   5.998 -0.0576  0.0369  1.0619
  226MOL0     C29748  -2.118  11.125   5.700 -0.2939 -0.7783 -0.5164
  226MOL0     C29749  -2.044  11.118   5.582  0.4547 -0.2438 -0.0675
  226MOL0     N29750  -1.723  11.421   4.975  0.4788 -0.6361 -1.0629
  226MOL0     N29751  -1.641  11.499   4.912 -1.1754 -0.0340  0.4429
  226MOL0     C29752  -0.371  11.207   4.762  0.2592  1.0510  0.6876
  226MOL0     C29753  -0.237  11.177   4.773  0.9883  0.0933  0.6800
  226MOL0     C29754   0.180  10.996   4.633  0.5142  0.1634  0.4440
  226MOL0     C29755   0.259  10.933   4.532 -0.9836  0.1076  0.3395
  226MOL0     C29756   0.373  10.866   4.558  1.2190 -0.7317  0.0238
  226MOL0     C29757   0.413  10.847   4.691  0.0847  0.1115 -0.2568
  226MOL0     O29758   0.513  10.760   4.704  0.7313  0.2557 -0.1803
  226MOL0     C29759   0.572  10.754   4.834  0.4887  0.0357 -0.8863
  226MOL0     C29760   0.661  10.877   4.854  0.3338 -0.1515 -0.3616
  226MOL0     C29761   0.741  10.917   4.733  0.3087  0.5532  0.5814
  226MOL0     C29762   0.818  11.053   4.756 -0.4633  0.0548  0.3774
  226MOL0     C29763   0.917  11.092   4.656  0.0854  0.7377  0.1499
  226MOL0     C29764   0.999  11.117   4.570 -0.2098  0.9708  0.0986
  226MOL0     C29765   0.336  10.906   4.799 -0.2921 -0.7382  0.8160
  226MOL0     C29766   0.226  10.987   4.772 -0.0781  1.1239 -0.4154
  226MOL0     H29767  -0.181  11.058   4.461  1.1386  1.4864 -0.2585
  226MOL0     H29768  -0.433  11.130   4.435  0.4790  2.5705 -1.5106
  226MOL0     H29769  -0.706  11.204   4.507  2.8616 -3.6132  3.3047
  226MOL0     H29770  -0.566  11.323   4.466  1.3871 -0.8787 -0.1253
  226MOL0     H29771  -0.720  11.472   4.506  0.1407  0.3835  0.6558
  226MOL0     H29772  -0.685  11.447   4.684 -1.6281 -1.8295  1.3164
  226MOL0     H29773  -0.855  11.282   4.710 -1.4848  1.4258  2.3875
  226MOL0     H29774  -0.916  11.293   4.545 -2.9513 -3.4640  2.7784
  226MOL0     H29775  -0.907  11.531   4.746  1.5294 -0.3712 -1.2646
  226MOL0     H29776  -0.965  11.541   4.588  1.0574  3.6186  2.4994
  226MOL0     H29777  -1.063  11.369   4.819 -2.5742 -4.1475 -2.8055
  226MOL0     H29778  -1.156  11.396   4.666 -0.4812  2.0279 -0.6009
  226MOL0     H29779  -1.216  11.620   4.707 -0.1085 -0.4311  0.0459
  226MOL0     H29780  -1.112  11.633   4.846  0.0242  0.1236  0.2196
  226MOL0     H29781  -1.270  11.417   4.925  1.0643  0.6439 -0.2834
  226MOL0     H29782  -1.319  11.591   4.943  0.8852  0.0904  0.5599
  226MOL0     H29783  -1.390  11.390   4.723  0.9855  0.5569 -0.1439
  226MOL0     H29784  -1.457  11.561   4.734 -0.7822  0.1697  0.8028
  226MOL0     H29785  -1.479  11.224   4.947 -0.4921 -0.1912  1.7150
  226MOL0     H29786  -1.709  11.102   5.024  0.9470  0.9693 -1.7501
  226MOL0     H29787  -1.836  11.207   5.097 -1.4639 -1.3667 -3.2279
  226MOL0     H29788  -1.658  11.275   5.286 -2.7452 -0.1052 -0.6307
  226MOL0     H29789  -1.547  11.169   5.196  1.0114 -0.8661  2.0776
  226MOL0     H29790  -1.729  10.992   5.228 -0.6170 -0.1996  0.1815
  226MOL0     H29791  -1.640  11.031   5.372 -0.6740  1.4883  1.2361
  226MOL0     H29792  -1.915  11.138   5.285 -0.6102 -1.9667  0.2898
  226MOL0     H29793  -1.825  11.205   5.421 -0.2180 -0.2549  0.1762
  226MOL0     H29794  -1.883  10.831   5.632  1.5060  0.4819  1.2751
  226MOL0     H29795  -2.032  10.816   5.823 -1.1290 -2.0715 -2.2202
  226MOL0     H29796  -2.488  10.979   5.942 -1.7307 -0.6734  0.2326
  226MOL0     H29797  -2.674  11.014   6.107 -0.2816 -0.3158  0.3059
  226MOL0     H29798  -2.852  11.182   6.219  0.3377  0.2338 -0.2259
  226MOL0     H29799  -2.777  11.340   6.210 -1.8682 -1.0310 -1.6769
  226MOL0     H29800  -2.939  11.368   6.360 -0.6686 -0.4673  1.8153
  226MOL0     H29801  -2.787  11.375   6.448 -0.6211  0.6966  0.9141
  226MOL0     H29802  -2.822  11.129   6.520  0.0209 -1.2691  1.5689
  226MOL0     H29803  -2.976  11.121   6.443 -2.6924  0.7068  2.3696
  226MOL0     H29804  -2.963  11.153   6.698 -0.6133  1.8508  1.8935
  226MOL0     H29805  -2.902  11.307   6.676  0.4725  0.1882 -0.7748
  226MOL0     H29806  -3.172  11.182   6.605  4.9271 -2.3595 -1.2466
  226MOL0     H29807  -3.133  11.352   6.542  0.8131 -0.0687  0.0649
  226MOL0     H29808  -3.130  11.445   6.771 -2.4143  1.6447 -2.8747
  226MOL0     H29809  -3.128  11.288   6.838  0.1690 -1.4945 -1.0595
  226MOL0     H29810  -3.333  11.433   6.667 -0.1135 -0.5747  0.5465
  226MOL0     H29811  -3.358  11.263   6.691 -3.3171  1.0014 -0.7225
  226MOL0     H29812  -3.495  11.389   6.869 -0.1982 -1.8831  1.2875
  226MOL0     H29813  -3.340  11.468   6.920 -0.5674  1.8364 -3.0607
  226MOL0     H29814  -2.460  11.334   6.286 -3.0710 -1.6970  2.5501
  226MOL0     H29815  -2.278  11.310   6.113  2.9498 -2.7190  2.5658
  226MOL0     H29816  -2.184  11.211   5.712  1.5329  0.8179 -1.4203
  226MOL0     H29817  -2.068  11.184   5.500 -2.8355 -2.0935 -0.7349
  226MOL0     H29818  -0.424  11.231   4.854  0.5454 -0.2262  1.2149
  226MOL0     H29819  -0.188  11.193   4.868  0.5952 -2.2744  1.3494
  226MOL0     H29820   0.232  10.940   4.427 -0.6324  3.4692  0.3624
  226MOL0     H29821   0.430  10.826   4.474 -1.4284  1.1265 -2.9109
  226MOL0     H29822   0.647  10.674   4.838  1.1022  0.6096 -0.7954
  226MOL0     H29823   0.499  10.730   4.912 -1.4311  0.1544 -2.5580
  226MOL0     H29824   0.608  10.969   4.881 -0.4328 -0.9204  0.9031
  226MOL0     H29825   0.727  10.850   4.937 -1.4180 -0.8536  0.8742
  226MOL0     H29826   0.674  10.930   4.647  2.3350  1.9768 -0.8945
  226MOL0     H29827   0.809  10.836   4.707  0.1773 -0.8267  4.0195
  226MOL0     H29828   0.754  11.138   4.780 -1.0646 -0.5764  1.0702
  226MOL0     H29829   0.870  11.038   4.851  0.3824  4.0569  0.6812
  226MOL0     H29830   1.073  11.148   4.499 -1.8161  0.2183 -1.9791
  226MOL0     H29831   0.361  10.907   4.905 -0.2078  0.7163  0.8112
  226MOL0     H29832   0.168  11.049   4.840  1.2821  1.8020  0.1653
  227MOL0     O29833   8.949   2.995   5.831  0.6977 -0.1236 -0.2362
  227MOL0     C29834   8.946   3.081   5.743  0.1217 -0.3181  0.3845
  227MOL0     O29835   8.831   3.122   5.682 -0.3421  0.7102 -0.3613
  227MOL0     C29836   8.715   3.062   5.714 -0.1474 -0.0076 -0.7435
  227MOL0     C29837   8.643   3.103   5.828 -0.9906 -0.7213  0.4638
  227MOL0     C29838   8.509   3.055   5.865 -0.2229 -0.2703  0.4683
  227MOL0     C29839   8.442   2.966   5.776 -0.4001  0.5592 -0.6222
  227MOL0     O29840   8.312   2.949   5.808 -0.2811 -0.3700  0.0753
  227MOL0     C29841   8.246   2.837   5.744  0.7293 -0.6104  0.0972
  227MOL0     C29842   8.100   2.825   5.787  0.7414 -0.0500 -0.3777
  227MOL0     C29843   8.076   2.844   5.943 -0.4704 -0.7362 -0.2732
  227MOL0     C29844   7.932   2.849   5.970 -0.1776 -0.2953 -0.2275
  227MOL0     C29845   7.904   2.893   6.119  0.3613 -0.0603 -0.0164
  227MOL0     C29846   7.917   2.777   6.217  0.0294 -0.3597 -0.2499
  227MOL0     C29847   7.950   2.822   6.366  0.5317 -0.5875 -0.2454
  227MOL0     C29848   7.845   2.922   6.437 -0.2364 -1.0562 -0.5083
  227MOL0     N29849   7.721   2.851   6.481 -0.6086 -0.2799  0.6449
  227MOL0     C29850   7.612   2.829   6.394  0.3068 -0.6004  0.1976
  227MOL0     C29851   7.537   2.752   6.474  0.5582  0.0508  0.3671
  227MOL0     C29852   7.399   2.691   6.439  0.4981  0.2236  0.5568
  227MOL0     C29853   7.264   2.757   6.495 -0.5992  0.9137 -0.5789
  227MOL0     C29854   7.255   2.896   6.444 -0.5307  0.2391 -0.1390
  227MOL0     C29855   7.116   2.956   6.475  0.4474  0.1051 -1.0288
  227MOL0     O29856   7.082   3.060   6.377  0.2570  0.2108 -0.2402
  227MOL0     C29857   6.951   3.101   6.359 -0.2186 -0.2875 -0.6834
  227MOL0     C29858   6.916   3.161   6.237  1.1748 -0.4585 -0.6247
  227MOL0     C29859   6.791   3.213   6.216  0.4921  0.3525  0.3982
  227MOL0     C29860   6.689   3.185   6.314 -0.2107  0.1776  0.2544
  227MOL0     C29861   6.545   3.234   6.303 -0.6227 -1.0487  0.3265
  227MOL0     O29862   6.518   3.330   6.211 -0.5237  0.2958  0.2492
  227MOL0     C29863   6.395   3.381   6.220  0.5087 -0.1694 -0.1727
  227MOL0     C29864   6.303   3.339   6.126 -0.0039  0.8599 -0.2570
  227MOL0     C29865   6.168   3.383   6.141  0.2074 -0.2849 -0.1773
  227MOL0     C29866   6.138   3.477   6.241 -0.1326  0.6652 -0.1604
  227MOL0     O29867   6.022   3.545   6.260 -0.2095 -0.0205 -0.6379
  227MOL0     C29868   5.908   3.503   6.179 -0.5588 -0.7228  0.6167
  227MOL0     C29869   5.905   3.563   6.036  0.5151 -0.1401  0.5335
  227MOL0     C29870   5.882   3.716   6.040  0.6161 -1.0567  0.4129
  227MOL0     C29871   5.817   3.766   5.911 -1.1984 -0.7958 -0.3526
  227MOL0     C29872   5.664   3.742   5.884  0.4308 -0.3397  0.6369
  227MOL0     C29873   5.563   3.762   6.005  0.1874 -0.4414  0.7459
  227MOL0     C29874   5.567   3.906   6.060 -0.5433  0.0304  0.3384
  227MOL0     C29875   5.462   4.000   5.996  0.6315  0.0498  0.8780
  227MOL0    Cl29876   5.469   4.015   5.816  0.3723 -0.5509 -0.0311
  227MOL0     C29877   6.232   3.522   6.326  0.1337  0.1153 -0.8037
  227MOL0     C29878   6.363   3.467   6.324 -0.0715  1.0062 -0.5855
  227MOL0     O29879   6.473   3.201   6.393 -0.4896  0.1917 -0.7856
  227MOL0     C29880   6.720   3.111   6.430 -0.2850  0.3230 -0.1981
  227MOL0     C29881   6.849   3.075   6.449 -0.0660  0.7327 -0.4692
  227MOL0     N29882   7.597   2.734   6.595 -0.6173 -0.0188  0.1483
  227MOL0     N29883   7.705   2.797   6.603 -0.0887  0.4639 -0.0631
  227MOL0     C29884   8.505   2.937   5.652  0.6920  0.4347 -0.6670
  227MOL0     C29885   8.641   2.980   5.635 -0.1675 -0.4778  0.2573
  227MOL0     C29886   9.088   3.125   5.697 -0.0770 -0.8925 -0.0718
  227MOL0     C29887   9.203   3.054   5.740 -0.3018  0.4528 -0.7985
  227MOL0     C29888   9.329   3.104   5.703  0.1924 -0.5202 -0.0349
  227MOL0     C29889   9.345   3.218   5.621  0.0443  0.1733  0.6780
  227MOL0     O29890   9.465   3.288   5.600 -0.4491 -0.1487  0.4441
  227MOL0     C29891   9.591   3.213   5.617  0.9647  0.0981 -0.9888
  227MOL0     C29892   9.705   3.305   5.595 -0.2120 -1.0680  0.0658
  227MOL0     C29893   9.840   3.235   5.601 -0.1018  0.3173  0.2980
  227MOL0     C29894   9.949   3.319   5.542 -0.6266 -0.8904  0.4373
  227MOL0     C29895  10.068   3.233   5.544 -0.2631 -0.0010 -0.5166
  227MOL0     C29896  10.164   3.155   5.539  0.0450  0.0456 -0.4419
  227MOL0     C29897   9.228   3.278   5.568  1.3837 -0.8068  0.3967
  227MOL0     C29898   9.100   3.237   5.614  0.1562 -0.8523 -0.9633
  227MOL0     H29899   8.686   3.168   5.903  0.2595 -1.7538  0.6858
  227MOL0     H29900   8.461   3.087   5.958  1.2985 -0.8659  1.4898
  227MOL0     H29901   8.288   2.741   5.777 -1.9059 -0.8275  3.4087
  227MOL0     H29902   8.258   2.865   5.639  1.3804  1.9555  0.7900
  227MOL0     H29903   8.070   2.725   5.756  2.4974  0.0926 -2.7939
  227MOL0     H29904   8.040   2.896   5.729  0.7112 -1.1921 -1.8089
  227MOL0     H29905   8.111   2.943   5.974 -1.0529 -0.6471  0.1250
  227MOL0     H29906   8.131   2.770   6.000  1.7360  0.1852 -1.1028
  227MOL0     H29907   7.888   2.928   5.909  0.5510  3.0130  3.1694
  227MOL0     H29908   7.882   2.752   5.960  1.3379 -1.2723  1.1235
  227MOL0     H29909   7.806   2.937   6.139  0.7828  1.4461 -1.0627
  227MOL0     H29910   7.981   2.964   6.152  0.0748 -0.4968  1.7151
  227MOL0     H29911   7.993   2.706   6.184  0.8472 -1.5438  3.6482
  227MOL0     H29912   7.817   2.736   6.229 -0.4109  1.1515  2.0882
  227MOL0     H29913   7.952   2.723   6.414  2.2610 -1.2545 -1.5609
  227MOL0     H29914   8.045   2.872   6.384 -0.6847  1.5921  0.3698
  227MOL0     H29915   7.817   2.995   6.360 -0.5242 -2.0188 -1.3404
  227MOL0     H29916   7.893   2.972   6.522  2.0833 -0.9214 -1.8171
  227MOL0     H29917   7.581   2.877   6.302  0.9386  1.1691  0.8718
  227MOL0     H29918   7.399   2.586   6.472  0.4798  0.0696  0.0708
  227MOL0     H29919   7.396   2.692   6.330  1.2243  0.8541  0.5336
  227MOL0     H29920   7.278   2.758   6.603 -0.0181  0.3295 -0.6448
  227MOL0     H29921   7.175   2.696   6.479 -1.7250  1.4868  2.7262
  227MOL0     H29922   7.337   2.957   6.483  0.1643 -0.7921  0.0690
  227MOL0     H29923   7.269   2.898   6.336 -2.2852 -2.6956 -0.5423
  227MOL0     H29924   7.106   2.989   6.579  2.9847  0.5346 -0.8633
  227MOL0     H29925   7.029   2.890   6.468 -0.3179  0.9884 -0.2059
  227MOL0     H29926   6.989   3.168   6.158  2.1437 -0.5566  0.2309
  227MOL0     H29927   6.760   3.278   6.135 -0.4940  0.2730  0.6979
  227MOL0     H29928   6.334   3.257   6.061 -1.5197  0.1586 -0.1494
  227MOL0     H29929   6.086   3.355   6.076 -1.7595  1.6429  1.3295
  227MOL0     H29930   5.812   3.530   6.224 -0.9494  1.4824 -1.3323
  227MOL0     H29931   5.913   3.394   6.172  0.0367 -1.1229  4.6635
  227MOL0     H29932   5.822   3.516   5.981 -0.6383  0.1961  1.9385
  227MOL0     H29933   6.002   3.549   5.988  0.7734 -0.6813  1.1973
  227MOL0     H29934   5.969   3.772   6.075 -0.2749 -0.6552  2.1506
  227MOL0     H29935   5.819   3.729   6.129 -0.1916 -2.3626  0.0631
  227MOL0     H29936   5.839   3.873   5.909  2.3086 -1.4126 -2.5497
  227MOL0     H29937   5.875   3.737   5.823 -0.0314 -0.4620  0.2928
  227MOL0     H29938   5.645   3.638   5.857 -1.5338  0.0372  0.4326
  227MOL0     H29939   5.644   3.807   5.799  3.2325  0.5629  0.5602
  227MOL0     H29940   5.595   3.692   6.083  3.8910 -0.2061 -0.3536
  227MOL0     H29941   5.467   3.723   5.971  1.8597 -2.9018 -1.6525
  227MOL0     H29942   5.547   3.902   6.167 -1.6885 -0.7656  0.1080
  227MOL0     H29943   5.670   3.944   6.060 -0.1146 -0.8440  3.2968
  227MOL0     H29944   5.474   4.106   6.023  0.2981  1.2522 -3.0541
  227MOL0     H29945   5.367   3.954   6.023  0.4185 -1.3418 -1.9024
  227MOL0     H29946   6.208   3.595   6.403  2.8083  0.3344 -0.0624
  227MOL0     H29947   6.430   3.479   6.408 -3.0519  4.2820  1.6322
  227MOL0     H29948   6.655   3.089   6.514  0.3515 -0.7618  0.0240
  227MOL0     H29949   6.875   3.046   6.550 -3.6683  0.0779  0.3838
  227MOL0     H29950   8.454   2.877   5.577  1.3576  1.0658 -1.6348
  227MOL0     H29951   8.686   2.960   5.538 -0.1752 -0.9633  0.3546
  227MOL0     H29952   9.191   2.960   5.793 -0.5727  0.2522 -1.2140
  227MOL0     H29953   9.413   3.055   5.752 -0.3081 -1.0241  0.3335
  227MOL0     H29954   9.587   3.137   5.538 -1.4082  0.3230 -1.1407
  227MOL0     H29955   9.596   3.169   5.717  0.2336  0.7985 -0.6431
  227MOL0     H29956   9.696   3.359   5.500 -2.1583  1.2082  1.4222
  227MOL0     H29957   9.715   3.380   5.675  1.1132 -1.7584  0.5769
  227MOL0     H29958   9.830   3.135   5.559 -0.5008  0.7844 -0.7488
  227MOL0     H29959   9.861   3.208   5.705 -0.4602  0.6921  0.4730
  227MOL0     H29960   9.932   3.355   5.440  1.3052  0.9446  0.6941
  227MOL0     H29961   9.966   3.411   5.599  0.2229  1.0633 -2.6850
  227MOL0     H29962  10.257   3.102   5.527 -0.7176 -0.8649 -2.9856
  227MOL0     H29963   9.215   3.372   5.514 -4.0632 -0.9287  1.0052
  227MOL0     H29964   9.008   3.287   5.586 -1.6655 -0.8931  3.9674
  228MOL0     O29965  10.777   9.295   7.084 -0.3373  0.1906  0.6207
  228MOL0     C29966  10.856   9.204   7.107  0.5202  0.3562  0.5854
  228MOL0     O29967  10.838   9.067   7.062 -1.1472 -0.2769 -0.2481
  228MOL0     C29968  10.713   9.034   7.021  0.8090  0.4160 -0.1000
  228MOL0     C29969  10.626   8.991   7.123  1.1460 -0.0000 -0.0905
  228MOL0     C29970  10.495   8.955   7.082  0.0999 -0.8791  0.1859
  228MOL0     C29971  10.456   8.936   6.947  0.0507  0.4751  0.1630
  228MOL0     O29972  10.319   8.890   6.920 -0.9219  0.1396 -0.6871
  228MOL0     C29973  10.256   8.937   6.797  0.0508 -0.2551 -0.6041
  228MOL0     C29974  10.230   9.084   6.793  0.0876  0.2052  0.2811
  228MOL0     C29975  10.144   9.130   6.910 -0.2061 -0.1916  0.9183
  228MOL0     C29976  10.179   9.271   6.956  0.6554  0.6006 -0.1687
  228MOL0     C29977  10.208   9.267   7.110  0.3167 -0.3306 -0.2162
  228MOL0     C29978  10.212   9.413   7.172 -0.4225 -0.1232  0.2342
  228MOL0     C29979  10.316   9.507   7.105  0.6031  0.1770 -0.0475
  228MOL0     C29980  10.327   9.641   7.175 -0.0286  0.1371 -0.3898
  228MOL0     N29981  10.239   9.746   7.118  0.0154 -0.5138  0.0970
  228MOL0     C29982  10.112   9.731   7.073 -0.1470 -0.4153  0.9547
  228MOL0     C29983  10.078   9.848   7.015 -0.7263  0.3815 -0.1506
  228MOL0     C29984   9.944   9.880   6.957 -0.6996  1.0008  0.3154
  228MOL0     C29985   9.836   9.958   7.049 -0.2995  0.0856  0.0343
  228MOL0     C29986   9.713   9.967   6.958  0.3181  0.9778  0.2277
  228MOL0     C29987   9.606  10.051   7.034 -0.1624 -0.1576  0.7525
  228MOL0     O29988   9.497   9.956   7.048  0.1234  0.2376  0.1060
  228MOL0     C29989   9.381  10.012   7.087 -0.2324 -0.6951 -0.3476
  228MOL0     C29990   9.273   9.926   7.077  0.8892 -0.7312  0.2341
  228MOL0     C29991   9.143   9.971   7.118 -0.8792 -0.0143  0.2696
  228MOL0     C29992   9.126  10.096   7.164 -0.3345  0.0346  0.4039
  228MOL0     C29993   8.996  10.156   7.205 -0.3395 -0.2000  0.2225
  228MOL0     O29994   8.878  10.089   7.176  0.5140  0.4045 -0.1175
  228MOL0     C29995   8.770  10.156   7.225  1.0833  0.3911  0.0454
  228MOL0     C29996   8.719  10.272   7.162  0.2608  0.5631 -0.2375
  228MOL0     C29997   8.599  10.331   7.206  0.9404 -0.2719 -0.4328
  228MOL0     C29998   8.528  10.282   7.318  0.1286 -0.4443 -0.0580
  228MOL0     O29999   8.412  10.327   7.363 -0.9755  0.3663 -0.2908
  228MOL0     C30000   8.354  10.449   7.313 -0.3666 -0.4041 -0.4702
  228MOL0     C30001   8.216  10.468   7.376 -0.0686 -0.5923 -1.0482
  228MOL0     C30002   8.107  10.375   7.309 -1.2009 -0.9589  0.1123
  228MOL0     C30003   7.969  10.426   7.349 -0.5962 -0.5218  0.4338
  228MOL0     C30004   7.920  10.386   7.493 -0.7468 -0.2865 -0.5679
  228MOL0     C30005   7.778  10.435   7.529 -0.2845  0.3740  0.2552
  228MOL0     C30006   7.735  10.406   7.678 -0.7930  0.0150 -0.2262
  228MOL0     C30007   7.688  10.260   7.688 -1.1339  0.1012 -0.7002
  228MOL0    Cl30008   7.563  10.211   7.572 -0.5519  0.4103  0.3753
  228MOL0     C30009   8.586  10.162   7.375  0.1330 -1.0816 -0.2702
  228MOL0     C30010   8.705  10.103   7.328  0.6016  0.4286 -0.2724
  228MOL0     O30011   9.009  10.266   7.268  0.2017 -1.0043 -0.5560
  228MOL0     C30012   9.238  10.186   7.158  0.6608 -0.1845  0.3011
  228MOL0     C30013   9.366  10.145   7.119  0.5038  0.6146 -0.6738
  228MOL0     N30014  10.191   9.936   7.036  0.3741  0.6619  0.1352
  228MOL0     N30015  10.283   9.873   7.105 -0.4440 -0.1032  0.2795
  228MOL0     C30016  10.547   8.976   6.847  0.4273 -0.5570  0.4855
  228MOL0     C30017  10.677   9.023   6.888  0.3698 -0.0330 -0.6719
  228MOL0     C30018  10.980   9.237   7.177 -0.1341 -0.2219  0.2245
  228MOL0     C30019  11.081   9.152   7.216 -0.1542  0.4076  0.1538
  228MOL0     C30020  11.200   9.180   7.283 -0.6003  0.2694  0.3419
  228MOL0     C30021  11.219   9.310   7.327 -0.3905 -0.6984 -0.1355
  228MOL0     O30022  11.329   9.354   7.397  0.2272 -0.2189 -0.9525
  228MOL0     C30023  11.397   9.274   7.494 -0.5508 -0.1421  0.0441
  228MOL0     C30024  11.534   9.231   7.445  1.2551  0.6983 -0.0179
  228MOL0     C30025  11.623   9.350   7.479 -0.4130 -0.6345  0.5135
  228MOL0     C30026  11.768   9.342   7.429 -0.8036 -0.4804  0.2201
  228MOL0     C30027  11.774   9.365   7.284  0.5730 -0.2330 -0.0403
  228MOL0     C30028  11.782   9.390   7.163 -0.6396  0.0067 -0.5664
  228MOL0     C30029  11.137   9.405   7.273  0.2860 -0.4875 -0.3114
  228MOL0     C30030  11.011   9.363   7.210 -0.0788 -0.1260 -0.1847
  228MOL0     H30031  10.654   8.980   7.227  0.0599 -0.3355  0.1750
  228MOL0     H30032  10.427   8.924   7.161 -0.9928 -0.4526 -0.5626
  228MOL0     H30033  10.158   8.890   6.797  0.5637 -1.4091  0.5829
  228MOL0     H30034  10.314   8.922   6.706  3.0718  2.5845  0.5988
  228MOL0     H30035  10.179   9.101   6.698 -2.9363 -2.2565  1.2973
  228MOL0     H30036  10.325   9.137   6.786  0.9101 -1.3470 -1.1367
  228MOL0     H30037  10.142   9.054   6.988 -0.8133 -2.5668 -1.2764
  228MOL0     H30038  10.039   9.139   6.881 -0.2543 -2.4626  0.1680
  228MOL0     H30039  10.265   9.313   6.903  0.2839  3.1056  1.0100
  228MOL0     H30040  10.093   9.334   6.932 -0.6164 -0.7956  0.5844
  228MOL0     H30041  10.305   9.219   7.127  0.9319  0.3176 -1.7385
  228MOL0     H30042  10.134   9.207   7.165 -0.9717 -1.0435 -2.5657
  228MOL0     H30043  10.228   9.393   7.279 -2.8235  1.2105  0.9163
  228MOL0     H30044  10.109   9.450   7.166 -0.2581  0.2331 -0.3840
  228MOL0     H30045  10.411   9.452   7.109  1.8668  2.1185 -1.5782
  228MOL0     H30046  10.304   9.529   6.999  0.5719 -1.8974 -0.5142
  228MOL0     H30047  10.431   9.672   7.164  0.4794 -1.7012 -1.2838
  228MOL0     H30048  10.312   9.624   7.282  2.4421 -0.5924 -0.0963
  228MOL0     H30049  10.052   9.641   7.076  0.4960 -0.9067 -0.1863
  228MOL0     H30050   9.900   9.787   6.918  3.9263 -0.9028 -1.0331
  228MOL0     H30051   9.957   9.944   6.869 -4.0645 -0.1899 -1.2096
  228MOL0     H30052   9.874  10.054   7.086 -1.3914  0.5350  0.0227
  228MOL0     H30053   9.818   9.899   7.140 -2.0507 -1.4677 -1.2384
  228MOL0     H30054   9.741  10.018   6.866  1.5075 -0.9145 -0.5093
  228MOL0     H30055   9.684   9.866   6.927  2.0375 -0.3392  2.6141
  228MOL0     H30056   9.578  10.135   6.969 -3.4467  0.5249  2.8128
  228MOL0     H30057   9.647  10.094   7.125 -2.5849  0.3677  1.6841
  228MOL0     H30058   9.274   9.824   7.038  0.6833 -0.2256 -1.1668
  228MOL0     H30059   9.057   9.905   7.115 -1.1516  0.2557 -3.3259
  228MOL0     H30060   8.784  10.307   7.083  1.5337  2.5716  1.6249
  228MOL0     H30061   8.572  10.419   7.149 -0.3060  0.4369  1.1818
  228MOL0     H30062   8.334  10.446   7.206 -1.0283  0.0158 -0.3654
  228MOL0     H30063   8.423  10.526   7.349  1.8636 -2.6829  0.4524
  228MOL0     H30064   8.189  10.573   7.365  1.5023 -0.2465 -1.8335
  228MOL0     H30065   8.228  10.444   7.483  3.2957  3.6607 -0.1973
  228MOL0     H30066   8.140  10.278   7.348  2.0024  0.0350  0.1978
  228MOL0     H30067   8.121  10.382   7.201  0.1955 -0.5339  0.2892
  228MOL0     H30068   7.957  10.533   7.336 -2.7953 -0.7748 -0.0209
  228MOL0     H30069   7.898  10.382   7.278 -0.4909 -1.2026  0.7374
  228MOL0     H30070   7.988  10.423   7.569 -3.1932 -1.3725  2.3382
  228MOL0     H30071   7.935  10.278   7.501  2.1991  0.0967 -0.0402
  228MOL0     H30072   7.712  10.398   7.450  2.7818  0.9013 -2.7606
  228MOL0     H30073   7.771  10.543   7.517  1.1633  0.3436 -1.2549
  228MOL0     H30074   7.808  10.435   7.755 -2.0695 -0.8695  1.3542
  228MOL0     H30075   7.651  10.472   7.700 -1.7468 -0.7448 -1.4955
  228MOL0     H30076   7.640  10.246   7.785  0.7651 -0.1703  0.2470
  228MOL0     H30077   7.767  10.184   7.685 -0.9451  0.0479  2.4701
  228MOL0     H30078   8.539  10.098   7.449  0.1475 -2.6439 -1.5573
  228MOL0     H30079   8.751  10.012   7.364 -0.0460 -0.1369 -0.8284
  228MOL0     H30080   9.235  10.292   7.179  2.7402 -0.3578  1.8686
  228MOL0     H30081   9.446  10.218   7.125 -0.2378  1.5809 -1.9859
  228MOL0     H30082  10.515   8.971   6.744 -1.6986 -0.1577  1.0583
  228MOL0     H30083  10.749   9.063   6.818  1.7312  0.1158  0.7531
  228MOL0     H30084  11.070   9.048   7.186 -2.4360  0.5370  0.3814
  228MOL0     H30085  11.257   9.097   7.324 -0.0100 -0.2774 -1.5198
  228MOL0     H30086  11.348   9.176   7.498  0.3002 -0.7858 -2.7368
  228MOL0     H30087  11.405   9.334   7.585  0.8218  0.7763 -0.6432
  228MOL0     H30088  11.555   9.134   7.489 -0.2649  0.1475 -0.4334
  228MOL0     H30089  11.518   9.222   7.337 -0.1888 -3.3755  0.3591
  228MOL0     H30090  11.620   9.371   7.586 -0.2712 -3.0213  1.0217
  228MOL0     H30091  11.581   9.445   7.443  1.5148  1.4828  3.3681
  228MOL0     H30092  11.813   9.427   7.481 -1.9703  0.5232 -0.3690
  228MOL0     H30093  11.818   9.247   7.448 -2.0369 -0.8019  2.1255
  228MOL0     H30094  11.784   9.398   7.056 -1.6764  5.0827 -0.4721
  228MOL0     H30095  11.170   9.504   7.303  1.2680 -1.5106  2.2697
  228MOL0     H30096  10.952   9.447   7.175  2.3117  1.6230 -0.2601
  229MOL0     O30097   4.936   8.043  10.994  0.1084 -0.6543 -0.8168
  229MOL0     C30098   4.952   7.944  11.062 -0.1718  0.2510 -0.3798
  229MOL0     O30099   5.074   7.905  11.117 -0.1795 -0.1830 -0.4523
  229MOL0     C30100   5.191   7.973  11.112  0.4133 -0.5102 -0.7698
  229MOL0     C30101   5.293   7.921  11.192  0.5913 -0.0591  0.3773
  229MOL0     C30102   5.423   7.979  11.191  0.7034 -0.0973 -0.5450
  229MOL0     C30103   5.455   8.085  11.112 -0.0439  0.3954  0.4535
  229MOL0     O30104   5.583   8.133  11.116 -0.2139  0.5523 -0.3433
  229MOL0     C30105   5.602   8.270  11.132  0.1615 -0.5549  0.1050
  229MOL0     C30106   5.729   8.297  11.221 -0.4879  0.5798 -0.1758
  229MOL0     C30107   5.853   8.217  11.177  0.2215  0.1422 -0.0742
  229MOL0     C30108   5.983   8.238  11.266 -0.1688 -0.8384  0.0478
  229MOL0     C30109   6.092   8.139  11.223 -0.2893  0.6903  0.3549
  229MOL0     C30110   6.218   8.145  11.318  0.4940 -0.3907 -0.2586
  229MOL0     C30111   6.312   8.039  11.281  0.0570 -0.3973  0.0391
  229MOL0     C30112   6.459   8.076  11.308  0.0522  0.1423 -0.4187
  229MOL0     N30113   6.531   7.966  11.245  0.0029 -0.4791  0.4181
  229MOL0     C30114   6.569   7.976  11.110  0.6266  0.2481  0.3844
  229MOL0     C30115   6.652   7.869  11.093 -0.3469  0.1276  0.4012
  229MOL0     C30116   6.721   7.826  10.968  0.3881  0.9089  0.2394
  229MOL0     C30117   6.825   7.708  10.999 -0.2468 -0.8549  0.1132
  229MOL0     C30118   6.908   7.675  10.879  0.0160  0.6084  0.4001
  229MOL0     C30119   6.821   7.576  10.793  1.1643 -0.3476  0.7647
  229MOL0     O30120   6.798   7.451  10.861 -0.1580 -0.0866 -0.3633
  229MOL0     C30121   6.677   7.394  10.874 -0.4966  0.1335  0.0792
  229MOL0     C30122   6.567   7.430  10.790  0.2981  0.5694 -0.1291
  229MOL0     C30123   6.441   7.374  10.811  0.1129  0.6137 -0.7276
  229MOL0     C30124   6.422   7.272  10.917 -0.1111  0.2195 -0.0057
  229MOL0     C30125   6.305   7.186  10.931 -0.2093  0.5274  0.3773
  229MOL0     O30126   6.310   7.076  11.020  0.3227  0.0894 -0.3924
  229MOL0     C30127   6.193   7.001  11.028 -0.5234  1.0826  0.3994
  229MOL0     C30128   6.180   6.889  10.940 -0.5847 -0.1073  0.4575
  229MOL0     C30129   6.057   6.825  10.915  0.0416  0.4105 -0.1397
  229MOL0     C30130   5.948   6.858  10.995  0.2861 -1.1510 -0.5344
  229MOL0     O30131   5.827   6.801  10.989  0.3895 -0.1218  0.3941
  229MOL0     C30132   5.721   6.844  11.068  0.3144 -0.6410  0.3973
  229MOL0     C30133   5.593   6.767  11.054  0.1060  0.5378 -0.4346
  229MOL0     C30134   5.528   6.772  10.913 -0.6823  0.3456  0.0763
  229MOL0     C30135   5.397   6.694  10.912  0.9382  0.6506  0.2022
  229MOL0     C30136   5.284   6.767  10.846 -0.0725  0.0896 -0.4435
  229MOL0     C30137   5.149   6.689  10.839  0.2913  0.7449 -0.2805
  229MOL0     C30138   5.039   6.744  10.757  0.6425 -0.2827 -0.2783
  229MOL0     C30139   4.925   6.647  10.743  0.1270  0.7836  0.4045
  229MOL0    Cl30140   4.778   6.739  10.707 -0.3334  0.2151 -0.0119
  229MOL0     C30141   5.975   6.960  11.100  0.4726  0.3312 -0.9247
  229MOL0     C30142   6.093   7.028  11.113  0.3158 -0.9056  0.0814
  229MOL0     O30143   6.210   7.228  10.864 -0.0047  0.6850 -0.3103
  229MOL0     C30144   6.541   7.241  10.990 -0.1250 -0.1457  0.9078
  229MOL0     C30145   6.664   7.304  10.973 -0.3195  0.3808  0.3989
  229MOL0     N30146   6.647   7.800  11.209  0.0720 -0.2257 -0.8088
  229MOL0     N30147   6.578   7.854  11.296  0.7278  0.0925 -0.0006
  229MOL0     C30148   5.361   8.139  11.021  0.3840  0.2945 -0.7241
  229MOL0     C30149   5.228   8.079  11.022 -0.4689  0.0200 -0.1741
  229MOL0     C30150   4.838   7.858  11.084 -1.1174 -0.5076  0.5177
  229MOL0     C30151   4.851   7.729  11.138  0.1858 -0.0287 -0.8377
  229MOL0     C30152   4.745   7.642  11.131 -0.0701  0.8191 -0.5347
  229MOL0     C30153   4.622   7.687  11.080  0.2499  0.6541  0.9125
  229MOL0     O30154   4.521   7.592  11.060  0.5042 -0.8058  0.7985
  229MOL0     C30155   4.377   7.622  11.071 -0.6539 -0.4811  1.0197
  229MOL0     C30156   4.297   7.496  11.038  0.1215  0.1836 -0.5105
  229MOL0     C30157   4.149   7.512  11.059  0.6502 -0.4334  0.0751
  229MOL0     C30158   4.073   7.375  11.051  0.1592  0.1722 -0.0882
  229MOL0     C30159   3.928   7.394  11.064 -0.0677 -0.0594 -0.6297
  229MOL0     C30160   3.809   7.407  11.083  0.6520  0.6476  0.6084
  229MOL0     C30161   4.606   7.815  11.034  0.2261 -0.4153 -0.1079
  229MOL0     C30162   4.715   7.902  11.033  0.0527  0.2573 -0.3918
  229MOL0     H30163   5.275   7.837  11.259  1.4412 -0.1414  0.5109
  229MOL0     H30164   5.506   7.941  11.249  0.0149  0.7027  1.0319
  229MOL0     H30165   5.510   8.307  11.179  0.1553  0.5555 -0.7348
  229MOL0     H30166   5.617   8.314  11.033  1.4983  0.4409  0.7249
  229MOL0     H30167   5.718   8.264  11.325 -2.1460  0.4954 -0.3492
  229MOL0     H30168   5.748   8.403  11.208 -0.1595  0.7363  1.3824
  229MOL0     H30169   5.881   8.254  11.078 -0.5222 -0.8692 -0.6795
  229MOL0     H30170   5.833   8.109  11.184 -0.6234  0.2306 -0.9348
  229MOL0     H30171   6.022   8.338  11.243  3.1522 -2.2315 -1.0463
  229MOL0     H30172   5.960   8.222  11.371 -0.9423 -0.7816 -0.1082
  229MOL0     H30173   6.128   8.160  11.122 -0.4139 -1.7608 -0.2454
  229MOL0     H30174   6.062   8.034  11.221  2.5282 -0.1930 -0.3096
  229MOL0     H30175   6.170   8.130  11.415  1.6816 -0.1065  0.3884
  229MOL0     H30176   6.260   8.246  11.323 -0.9020  0.1452  3.0435
  229MOL0     H30177   6.289   7.952  11.344 -0.6809  1.3462  2.3208
  229MOL0     H30178   6.310   8.019  11.174 -1.3338 -0.3631  0.0371
  229MOL0     H30179   6.480   8.088  11.415 -1.5705  1.5613 -0.2105
  229MOL0     H30180   6.500   8.169  11.267 -0.2796  0.2115 -0.6007
  229MOL0     H30181   6.548   8.048  11.031  2.7060  0.6458  0.1551
  229MOL0     H30182   6.771   7.915  10.927  3.6336 -0.6815  0.4201
  229MOL0     H30183   6.653   7.794  10.888  2.7601 -0.1595 -1.4684
  229MOL0     H30184   6.774   7.621  11.043 -2.3187  0.5608  0.6476
  229MOL0     H30185   6.890   7.751  11.075 -0.5414  0.4247 -0.3480
  229MOL0     H30186   6.931   7.767  10.824  1.1285 -0.5273 -1.1276
  229MOL0     H30187   6.994   7.615  10.909 -1.1447 -1.5153 -0.2924
  229MOL0     H30188   6.869   7.557  10.696 -1.8742 -1.6289 -0.6006
  229MOL0     H30189   6.731   7.628  10.761  0.3263 -1.3482  1.4059
  229MOL0     H30190   6.567   7.497  10.704 -0.2781 -1.3838 -1.7342
  229MOL0     H30191   6.357   7.399  10.748 -0.2435  2.2327  0.3302
  229MOL0     H30192   6.261   6.842  10.886 -1.2471 -1.5900  0.6905
  229MOL0     H30193   6.044   6.740  10.848 -0.0172 -1.4055  2.0374
  229MOL0     H30194   5.696   6.946  11.038  0.4381 -1.2784 -2.1065
  229MOL0     H30195   5.744   6.828  11.174 -1.5881 -2.1875  0.6484
  229MOL0     H30196   5.514   6.803  11.121  0.5683  0.0599  0.3822
  229MOL0     H30197   5.626   6.664  11.065  0.7558  0.4290 -2.8434
  229MOL0     H30198   5.596   6.722  10.843 -2.1075 -1.4081 -0.1104
  229MOL0     H30199   5.506   6.875  10.885 -3.1433 -0.0299  0.4571
  229MOL0     H30200   5.407   6.605  10.849 -1.4646  0.7464 -0.4160
  229MOL0     H30201   5.363   6.662  11.011 -1.8477  0.5475 -0.6990
  229MOL0     H30202   5.320   6.795  10.746  0.6613  0.8395  0.0248
  229MOL0     H30203   5.263   6.857  10.903  1.2838  0.3490 -0.3388
  229MOL0     H30204   5.108   6.674  10.940  0.1269 -2.6656 -0.7342
  229MOL0     H30205   5.173   6.592  10.796 -2.1207 -0.4301  0.8501
  229MOL0     H30206   5.005   6.834  10.808  1.1448 -1.6346  2.6660
  229MOL0     H30207   5.077   6.792  10.667 -1.5227  2.0927 -0.0437
  229MOL0     H30208   4.899   6.592  10.834 -0.1532 -0.0189 -0.1580
  229MOL0     H30209   4.953   6.579  10.663 -1.8648 -0.0793  0.3741
  229MOL0     H30210   5.904   6.984  11.179  0.4404  1.8093 -1.3722
  229MOL0     H30211   6.117   7.110  11.180 -1.8319  0.2276 -0.4705
  229MOL0     H30212   6.541   7.155  11.056  1.3981  0.3339  1.5815
  229MOL0     H30213   6.746   7.286  11.042 -1.4217  0.5039  1.7916
  229MOL0     H30214   5.376   8.224  10.955 -2.2624  1.5212  0.1442
  229MOL0     H30215   5.161   8.097  10.938  0.2731 -2.4803 -1.4197
  229MOL0     H30216   4.939   7.691  11.190 -1.1249 -0.7347  0.9877
  229MOL0     H30217   4.762   7.537  11.150 -4.6034 -0.0545 -0.1795
  229MOL0     H30218   4.338   7.701  11.006  1.8617 -0.7501 -0.9418
  229MOL0     H30219   4.354   7.652  11.174 -0.4123  0.2152  0.8696
  229MOL0     H30220   4.310   7.461  10.936  1.7884 -0.1379 -0.2178
  229MOL0     H30221   4.325   7.422  11.114  3.0369  2.2006  0.5329
  229MOL0     H30222   4.114   7.575  10.977 -0.0301  0.0540  0.7352
  229MOL0     H30223   4.126   7.563  11.153 -0.2011  0.8536 -0.7962
  229MOL0     H30224   4.088   7.315  10.961 -1.0133  2.1619 -1.7037
  229MOL0     H30225   4.119   7.323  11.136  3.2763  1.5650 -0.7621
  229MOL0     H30226   3.706   7.422  11.108 -0.0706  0.4081 -2.0394
  229MOL0     H30227   4.520   7.852  10.981  2.9909  0.5780 -4.3976
  229MOL0     H30228   4.692   7.997  10.988 -2.0163  0.3210  0.6841
  230MOL0     O30229  11.068   5.119   9.931  0.2675 -0.9122 -0.5626
  230MOL0     C30230  11.004   5.209   9.878 -0.9192 -0.0522  0.0717
  230MOL0     O30231  11.055   5.303   9.801  0.3710 -0.5505  0.5933
  230MOL0     C30232  11.189   5.311   9.779  0.3817 -0.5927 -0.2883
  230MOL0     C30233  11.225   5.384   9.662  0.0105 -0.5335  1.1241
  230MOL0     C30234  11.359   5.383   9.620  0.9607 -0.4292 -0.5098
  230MOL0     C30235  11.463   5.321   9.684  0.6126  0.3405  0.6226
  230MOL0     O30236  11.583   5.333   9.616  1.0480  0.9594  0.2986
  230MOL0     C30237  11.699   5.265   9.667  0.5189 -0.6000 -0.7281
  230MOL0     C30238  11.814   5.337   9.592  0.7768 -0.2892 -0.8787
  230MOL0     C30239  11.846   5.481   9.628  0.2781  0.1297 -0.1288
  230MOL0     C30240  11.987   5.526   9.590  0.0030 -0.1052 -0.4094
  230MOL0     C30241  12.077   5.557   9.712 -0.0651  0.5620 -0.2690
  230MOL0     C30242  12.105   5.437   9.790 -0.0842 -0.4773  0.3844
  230MOL0     C30243  12.148   5.482   9.930  0.1316 -0.0187  1.0294
  230MOL0     C30244  12.039   5.512  10.022 -0.0961  0.0183 -0.3781
  230MOL0     N30245  12.079   5.611  10.121 -0.1334  0.4481  0.5634
  230MOL0     C30246  12.199   5.619  10.185  0.7653  0.1386  0.8046
  230MOL0     C30247  12.200   5.732  10.255  0.1906 -1.0083 -0.1366
  230MOL0     C30248  12.314   5.774  10.327  0.0700 -0.0426 -0.5545
  230MOL0     C30249  12.342   5.926  10.318  0.4012 -0.0633 -0.1590
  230MOL0     C30250  12.230   6.030  10.376  0.1435  0.0878 -0.0555
  230MOL0     C30251  12.285   6.171  10.384 -0.4224 -0.2237 -0.6558
  230MOL0     O30252  12.210   6.255  10.467 -0.1231 -0.1111  0.7081
  230MOL0     C30253  12.083   6.283  10.429 -0.1431 -0.3431 -0.6400
  230MOL0     C30254  12.043   6.286  10.291  0.0241  0.4777 -0.2821
  230MOL0     C30255  11.917   6.331  10.254  0.2168  0.1377  0.0439
  230MOL0     C30256  11.820   6.384  10.341 -0.3057  0.4960  0.0345
  230MOL0     C30257  11.687   6.424  10.283 -1.4863 -0.3930 -1.0128
  230MOL0     O30258  11.602   6.468  10.380  0.2385  0.2008  0.3748
  230MOL0     C30259  11.466   6.482  10.369  0.5542  0.1216 -0.3438
  230MOL0     C30260  11.387   6.543  10.257  0.4035 -0.7219 -0.8634
  230MOL0     C30261  11.240   6.550  10.268  0.7794  0.2770  0.0388
  230MOL0     C30262  11.168   6.484  10.366  0.4665  0.7587  0.7481
  230MOL0     O30263  11.029   6.501  10.367 -0.3821 -0.3438  0.1847
  230MOL0     C30264  10.953   6.472  10.487  0.2091 -0.7857 -0.1590
  230MOL0     C30265  10.822   6.545  10.456 -0.8828 -0.2320  0.4208
  230MOL0     C30266  10.722   6.519  10.564  0.3718  0.0825  1.2224
  230MOL0     C30267  10.606   6.619  10.551 -0.6565  0.1622  0.8445
  230MOL0     C30268  10.503   6.608  10.649  0.0616 -0.2461  0.4599
  230MOL0     C30269  10.398   6.727  10.629 -0.9893  0.2478 -0.3059
  230MOL0     C30270  10.294   6.711  10.736  1.0888  1.5081  0.4428
  230MOL0     C30271  10.177   6.793  10.689  0.2256  0.1977  0.1470
  230MOL0    Cl30272  10.070   6.729  10.553  0.0539 -0.1171  0.4030
  230MOL0     C30273  11.248   6.430  10.475 -0.1999 -0.6245 -0.1557
  230MOL0     C30274  11.386   6.437  10.472 -0.0695 -0.3801 -0.4751
  230MOL0     O30275  11.671   6.420  10.166  0.4833 -0.6081  0.4822
  230MOL0     C30276  11.854   6.366  10.481  0.3019 -0.0246  0.2234
  230MOL0     C30277  11.980   6.318  10.522  0.2701 -0.3596  0.0105
  230MOL0     N30278  12.079   5.790  10.235  0.2308  0.8696  0.8391
  230MOL0     N30279  12.006   5.709  10.160 -0.1292  0.0051  0.2859
  230MOL0     C30280  11.430   5.250   9.797 -0.0175  1.2326  0.1853
  230MOL0     C30281  11.298   5.245   9.850  1.2120 -0.1242 -0.5097
  230MOL0     C30282  10.868   5.225   9.934 -0.6500 -0.9637 -0.9860
  230MOL0     C30283  10.788   5.116   9.956 -0.3522 -0.8156  0.3274
  230MOL0     C30284  10.660   5.141  10.003 -0.1685  0.3499 -0.6782
  230MOL0     C30285  10.603   5.260  10.036  0.6855 -0.0100  0.6239
  230MOL0     O30286  10.477   5.254  10.089  0.0123 -0.8039  0.0185
  230MOL0     C30287  10.389   5.367  10.097 -0.9780  0.4898  0.5959
  230MOL0     C30288  10.299   5.341  10.214 -0.1558 -0.0541 -0.3624
  230MOL0     C30289  10.367   5.382  10.349  0.5308 -0.3875 -0.4282
  230MOL0     C30290  10.296   5.336  10.473 -0.2459  0.2542 -0.5431
  230MOL0     C30291  10.262   5.198  10.464 -0.0983 -0.4048 -0.2595
  230MOL0     C30292  10.216   5.091  10.465 -0.9683  0.2389  0.2908
  230MOL0     C30293  10.690   5.372  10.018 -0.1805 -0.0984  0.8217
  230MOL0     C30294  10.822   5.357   9.972 -0.1921 -0.0691 -0.0711
  230MOL0     H30295  11.161   5.446   9.600  0.6109  0.2479  1.2619
  230MOL0     H30296  11.379   5.428   9.523 -1.3614 -0.5080 -1.0837
  230MOL0     H30297  11.687   5.157   9.656  0.6583 -1.1662  3.0824
  230MOL0     H30298  11.705   5.281   9.776  1.2269 -0.9808 -0.7083
  230MOL0     H30299  11.792   5.324   9.485  0.0750  2.4070 -1.1443
  230MOL0     H30300  11.909   5.285   9.605  0.5851 -0.3213  0.5806
  230MOL0     H30301  11.835   5.506   9.734  0.3118  1.6221 -0.4467
  230MOL0     H30302  11.783   5.544   9.564  0.3632  0.9601  0.5820
  230MOL0     H30303  12.035   5.457   9.520  0.7935  0.9548 -0.9304
  230MOL0     H30304  11.997   5.621   9.536  0.5826 -0.3434 -0.7361
  230MOL0     H30305  12.029   5.630   9.779 -1.7200 -0.5551 -0.1925
  230MOL0     H30306  12.172   5.599   9.677  1.6964 -1.9282  1.2509
  230MOL0     H30307  12.186   5.380   9.744  1.2592  0.9787  0.8314
  230MOL0     H30308  12.018   5.372   9.804 -0.5174  0.0620  0.2157
  230MOL0     H30309  12.213   5.411   9.982 -0.9356  0.7951  3.6145
  230MOL0     H30310  12.214   5.568   9.919  1.4832 -1.0566  0.7228
  230MOL0     H30311  12.003   5.415  10.057 -4.2015  0.9620 -1.3846
  230MOL0     H30312  11.957   5.549   9.959  0.4211 -3.3826 -3.4009
  230MOL0     H30313  12.293   5.564  10.183  1.0390  0.6162  0.1109
  230MOL0     H30314  12.400   5.720  10.286 -1.1520 -1.1278 -1.7544
  230MOL0     H30315  12.297   5.745  10.431  0.6017 -1.8668 -0.9344
  230MOL0     H30316  12.370   5.953  10.217  1.7944 -0.7388  0.0282
  230MOL0     H30317  12.432   5.956  10.373  0.0695 -0.6069  0.7176
  230MOL0     H30318  12.148   6.023  10.304  1.2900  1.3569 -1.5617
  230MOL0     H30319  12.200   6.002  10.477 -0.8336 -3.6141 -1.2247
  230MOL0     H30320  12.294   6.203  10.280 -0.2907  0.9870 -0.2808
  230MOL0     H30321  12.376   6.160  10.443 -0.7566 -0.2886 -0.1479
  230MOL0     H30322  12.108   6.262  10.208 -1.0623 -2.1427 -0.4684
  230MOL0     H30323  11.895   6.339  10.148 -1.7270 -1.6466  0.2423
  230MOL0     H30324  11.435   6.595  10.175  1.3814  1.1305  0.7947
  230MOL0     H30325  11.190   6.611  10.194 -0.9545 -0.9525  0.1498
  230MOL0     H30326  11.000   6.527  10.569 -0.6096 -0.5642  0.1726
  230MOL0     H30327  10.946   6.364  10.507  4.4345 -1.5434 -1.6888
  230MOL0     H30328  10.787   6.516  10.356  1.7813  0.0354 -0.6662
  230MOL0     H30329  10.848   6.649  10.438  1.4583 -0.5469  1.6283
  230MOL0     H30330  10.769   6.520  10.663  1.7616  0.3080  0.5866
  230MOL0     H30331  10.682   6.420  10.543 -1.8055  0.4655  3.0961
  230MOL0     H30332  10.641   6.723  10.550  2.1078 -0.6468 -1.8646
  230MOL0     H30333  10.549   6.602  10.459 -0.3250 -1.9092  0.9720
  230MOL0     H30334  10.550   6.622  10.746 -0.2649 -0.5254  0.6590
  230MOL0     H30335  10.442   6.518  10.661 -0.2203  0.1249  1.9085
  230MOL0     H30336  10.366   6.725  10.525  0.3183  0.8789 -0.7410
  230MOL0     H30337  10.453   6.819  10.653  2.2242 -1.2558 -1.2830
  230MOL0     H30338  10.262   6.608  10.753  0.8975  1.1825 -1.7225
  230MOL0     H30339  10.340   6.749  10.828  1.9193  1.6524 -0.0222
  230MOL0     H30340  10.202   6.899  10.676  3.6751 -0.0944  2.8181
  230MOL0     H30341  10.116   6.789  10.779 -5.1072  4.5528 -2.6774
  230MOL0     H30342  11.188   6.396  10.559  0.2581  3.0811  1.8516
  230MOL0     H30343  11.428   6.399  10.564  1.3273  1.2396 -0.4002
  230MOL0     H30344  11.785   6.398  10.558 -0.0588  1.5278 -0.7146
  230MOL0     H30345  12.017   6.313  10.624 -0.2486 -2.0089  0.1568
  230MOL0     H30346  11.500   5.192   9.856  1.8383  1.3666 -1.7882
  230MOL0     H30347  11.280   5.199   9.947 -0.9397 -0.8089 -1.1887
  230MOL0     H30348  10.814   5.014   9.930  0.5531  0.2227 -3.6162
  230MOL0     H30349  10.601   5.052  10.017  1.0980 -0.4581 -0.2955
  230MOL0     H30350  10.328   5.374  10.007 -2.2081  0.0734  1.3677
  230MOL0     H30351  10.440   5.463  10.111 -2.1913  1.2466  0.0174
  230MOL0     H30352  10.201   5.388  10.202 -0.8563 -0.9382  1.5731
  230MOL0     H30353  10.275   5.234  10.220 -0.1216 -0.0937 -0.8748
  230MOL0     H30354  10.367   5.491  10.350 -0.8609 -0.3531  1.5708
  230MOL0     H30355  10.467   5.339  10.356  0.6731 -0.0014 -0.0630
  230MOL0     H30356  10.359   5.341  10.562 -0.1965 -0.9688 -0.4914
  230MOL0     H30357  10.208   5.400  10.484  0.7552  1.4494  1.3469
  230MOL0     H30358  10.179   4.991  10.478 -0.1545 -0.2371 -0.9150
  230MOL0     H30359  10.643   5.464  10.050  1.2483  0.1927  2.2011
  230MOL0     H30360  10.881   5.448   9.963  1.9946 -1.2654  1.3421
  231MOL0     O30361   6.425   5.830   3.071 -0.4357  0.3726  0.0946
  231MOL0     C30362   6.463   5.944   3.084  0.2434  0.1543 -0.1609
  231MOL0     O30363   6.396   6.035   3.165  0.6233  0.3478  0.1118
  231MOL0     C30364   6.302   5.984   3.261 -0.0191 -0.3052 -1.1848
  231MOL0     C30365   6.170   6.030   3.265 -0.4459 -0.0780 -0.3076
  231MOL0     C30366   6.086   5.996   3.371 -0.1873  0.4320 -0.3246
  231MOL0     C30367   6.136   5.939   3.493  1.3685 -0.6059  0.3909
  231MOL0     O30368   6.072   5.936   3.611  0.4566  0.3159  0.2748
  231MOL0     C30369   6.012   5.813   3.656 -0.2640 -0.3847 -0.3901
  231MOL0     C30370   5.926   5.740   3.558 -0.2253 -0.1443  0.3007
  231MOL0     C30371   5.871   5.616   3.617  0.1399 -0.7749  0.2722
  231MOL0     C30372   5.756   5.560   3.537  0.3619 -0.6405  0.0508
  231MOL0     C30373   5.692   5.435   3.598  0.1628  0.0717  1.1890
  231MOL0     C30374   5.650   5.463   3.740 -0.9052  0.6832 -0.7781
  231MOL0     C30375   5.574   5.336   3.790  0.1865  0.0182 -0.2353
  231MOL0     C30376   5.422   5.330   3.760  0.2705  0.1228  0.1936
  231MOL0     N30377   5.354   5.221   3.828  0.0545  0.4232 -0.0800
  231MOL0     C30378   5.220   5.193   3.817  0.1591  0.2105  0.5939
  231MOL0     C30379   5.185   5.071   3.864 -0.5996 -0.4743  0.1557
  231MOL0     C30380   5.049   5.010   3.893 -0.0697  0.2551 -0.4629
  231MOL0     C30381   4.987   5.069   4.026  0.2374  0.4377  0.7535
  231MOL0     C30382   4.891   4.969   4.096 -0.7955  0.8633 -0.2593
  231MOL0     C30383   4.758   4.949   4.022 -0.8394  1.1046  0.3979
  231MOL0     O30384   4.666   4.887   4.108  0.1803 -0.5093  0.2355
  231MOL0     C30385   4.543   4.846   4.068  0.7021 -0.5869 -0.0728
  231MOL0     C30386   4.458   4.823   4.173  1.1228  1.2228  0.7427
  231MOL0     C30387   4.330   4.768   4.147 -0.7269  0.0213 -0.4145
  231MOL0     C30388   4.279   4.748   4.019  0.0390 -0.1788 -0.9711
  231MOL0     C30389   4.147   4.696   4.000 -0.3718  0.5908 -0.6867
  231MOL0     O30390   4.063   4.709   4.102 -0.2838 -0.0114 -0.8083
  231MOL0     C30391   3.931   4.669   4.084 -0.3978 -0.4195  0.5003
  231MOL0     C30392   3.840   4.766   4.128  0.6258 -1.0273 -0.0755
  231MOL0     C30393   3.701   4.746   4.123  0.2487  0.0356 -0.3624
  231MOL0     C30394   3.657   4.621   4.084  0.5051 -0.5928  0.5768
  231MOL0     O30395   3.521   4.586   4.071  0.9955 -0.9529 -0.0549
  231MOL0     C30396   3.439   4.658   4.170 -0.2398 -0.5123  0.2525
  231MOL0     C30397   3.325   4.564   4.190 -0.7318  0.4195  0.4338
  231MOL0     C30398   3.226   4.597   4.310  0.3630 -0.1348 -0.0355
  231MOL0     C30399   3.081   4.548   4.298  0.7742  0.1758  0.1326
  231MOL0     C30400   2.990   4.627   4.386  0.8684 -0.7081  0.6223
  231MOL0     C30401   2.858   4.552   4.398  0.8098 -0.3698  0.5649
  231MOL0     C30402   2.789   4.541   4.259  0.5940  0.1880  0.1765
  231MOL0     C30403   2.695   4.655   4.219  0.4542  0.6121 -0.1351
  231MOL0    Cl30404   2.773   4.804   4.149 -0.1765 -0.2568  0.2006
  231MOL0     C30405   3.746   4.521   4.042 -0.2896 -0.2752  0.1323
  231MOL0     C30406   3.885   4.549   4.038  0.1800  0.2999 -0.1368
  231MOL0     O30407   4.119   4.637   3.887  0.0287 -0.1881  0.5452
  231MOL0     C30408   4.366   4.784   3.917  0.9785 -0.3682  0.3895
  231MOL0     C30409   4.495   4.841   3.943  0.3544  0.3238 -0.3790
  231MOL0     N30410   5.315   5.021   3.890 -0.7526  0.1069 -0.5917
  231MOL0     N30411   5.417   5.105   3.873  1.0124  0.1870 -0.2610
  231MOL0     C30412   6.270   5.910   3.491  0.3919  0.1186  0.2433
  231MOL0     C30413   6.355   5.934   3.380 -0.1054  0.8713 -0.3217
  231MOL0     C30414   6.597   5.989   3.034  0.1780 -0.1416 -1.0962
  231MOL0     C30415   6.631   6.129   3.018 -0.0130 -0.2617 -0.1951
  231MOL0     C30416   6.758   6.164   2.954  0.2966 -0.5774 -0.2470
  231MOL0     C30417   6.860   6.061   2.941 -0.2800 -0.2149  1.1946
  231MOL0     O30418   6.981   6.098   2.880  0.0591 -0.7390  0.2604
  231MOL0     C30419   7.089   6.002   2.857  0.7585 -0.8062 -0.4503
  231MOL0     C30420   7.212   6.065   2.788  0.7576  0.9068  0.4848
  231MOL0     C30421   7.316   5.954   2.782 -0.9324  0.5560 -0.0280
  231MOL0     C30422   7.414   5.970   2.663  0.2907 -0.0897 -0.2211
  231MOL0     C30423   7.535   5.901   2.697 -0.0544  0.3693 -0.6046
  231MOL0     C30424   7.635   5.854   2.736  0.4779  0.4591 -0.6847
  231MOL0     C30425   6.823   5.925   2.957 -0.0538  0.5348 -0.4528
  231MOL0     C30426   6.700   5.897   3.009 -0.1937  0.5730  0.2035
  231MOL0     H30427   6.137   6.083   3.176  3.8086 -1.4363 -3.0177
  231MOL0     H30428   5.986   6.035   3.384  0.2385  1.1999  0.8131
  231MOL0     H30429   5.958   5.835   3.749  0.2125 -0.7048 -0.0328
  231MOL0     H30430   6.090   5.743   3.688  0.8026  1.2965  0.8476
  231MOL0     H30431   5.982   5.717   3.468 -1.6410 -0.0330 -0.6463
  231MOL0     H30432   5.841   5.798   3.522 -1.5196 -0.2261  2.9177
  231MOL0     H30433   5.846   5.646   3.719  0.0131  2.7601 -0.6641
  231MOL0     H30434   5.958   5.549   3.615 -0.2473 -1.2850  0.1857
  231MOL0     H30435   5.678   5.636   3.540 -0.2612 -1.2657 -0.2149
  231MOL0     H30436   5.786   5.544   3.433  0.2016  1.4132 -0.3549
  231MOL0     H30437   5.750   5.343   3.599 -1.7481 -1.2032  0.1708
  231MOL0     H30438   5.600   5.413   3.543 -0.6246  1.7923  1.7450
  231MOL0     H30439   5.588   5.553   3.749 -1.4092  0.8346 -4.2534
  231MOL0     H30440   5.734   5.475   3.809 -1.4380  1.4075 -0.2278
  231MOL0     H30441   5.625   5.247   3.751 -1.5965 -0.3394 -1.9684
  231MOL0     H30442   5.590   5.327   3.898 -1.3159 -0.1786 -0.0050
  231MOL0     H30443   5.399   5.327   3.653  0.7210  1.9569  0.0044
  231MOL0     H30444   5.374   5.425   3.787 -2.4204 -0.7910 -1.0808
  231MOL0     H30445   5.145   5.269   3.798  0.2102 -0.3064 -2.0877
  231MOL0     H30446   5.074   4.904   3.899  2.5827  0.7203 -1.6848
  231MOL0     H30447   4.981   5.038   3.812  2.0915 -0.0874 -2.5075
  231MOL0     H30448   4.934   5.157   3.986  0.3826  0.6201  0.9647
  231MOL0     H30449   5.065   5.102   4.095  0.2301  0.6708  0.6507
  231MOL0     H30450   4.940   4.871   4.107 -1.6650 -0.1022 -3.7083
  231MOL0     H30451   4.863   5.008   4.194  2.1722  0.2703  0.9266
  231MOL0     H30452   4.770   4.893   3.929 -2.6333  5.1444 -2.5478
  231MOL0     H30453   4.728   5.052   4.001 -1.2785  0.7417 -0.8504
  231MOL0     H30454   4.485   4.831   4.277  2.5896 -1.7551  0.7085
  231MOL0     H30455   4.268   4.766   4.236 -0.2992 -0.0343 -0.1128
  231MOL0     H30456   3.880   4.855   4.175 -0.7133 -1.0917  1.2649
  231MOL0     H30457   3.631   4.816   4.166 -2.5391 -1.9469 -1.3587
  231MOL0     H30458   3.395   4.750   4.131 -0.3290 -0.8342 -0.4240
  231MOL0     H30459   3.503   4.677   4.257  2.4289 -4.5823 -0.5379
  231MOL0     H30460   3.367   4.463   4.186 -0.7340  0.4199 -3.4076
  231MOL0     H30461   3.263   4.593   4.105  1.8709  3.3470 -0.6496
  231MOL0     H30462   3.209   4.705   4.306 -1.0028 -0.3388 -0.1871
  231MOL0     H30463   3.281   4.581   4.403  0.2880  1.2568  0.2769
  231MOL0     H30464   3.057   4.550   4.191 -0.7194 -0.1880  0.4408
  231MOL0     H30465   3.088   4.442   4.325 -0.3703 -0.9886 -3.5238
  231MOL0     H30466   2.962   4.718   4.332  1.5400  0.5786  2.3540
  231MOL0     H30467   3.029   4.647   4.486  1.0311  0.3150  0.3651
  231MOL0     H30468   2.779   4.596   4.459  1.1360  2.0440 -0.6637
  231MOL0     H30469   2.872   4.455   4.447  3.0702  0.3308  1.4621
  231MOL0     H30470   2.854   4.528   4.172 -0.4803  1.0565 -0.7980
  231MOL0     H30471   2.727   4.451   4.254  0.4233  0.2392  1.1670
  231MOL0     H30472   2.632   4.681   4.304 -0.4150  2.8837 -1.3925
  231MOL0     H30473   2.622   4.625   4.144 -0.8432 -0.2643  1.4181
  231MOL0     H30474   3.702   4.427   4.010  2.1763 -0.3790 -3.6314
  231MOL0     H30475   3.959   4.481   3.998  0.4651  1.1995 -1.1909
  231MOL0     H30476   4.338   4.770   3.813  1.1401 -1.5361  0.4864
  231MOL0     H30477   4.569   4.857   3.865  1.5166 -1.8474  0.2032
  231MOL0     H30478   6.302   5.878   3.590 -0.8149  0.2830  0.7027
  231MOL0     H30479   6.461   5.911   3.378 -0.6108 -1.6638 -2.2358
  231MOL0     H30480   6.558   6.204   3.045 -0.4561 -1.2011  1.3705
  231MOL0     H30481   6.780   6.271   2.953  4.2636 -1.2218 -2.0919
  231MOL0     H30482   7.055   5.916   2.798  1.0513 -0.2931 -1.3861
  231MOL0     H30483   7.119   5.972   2.958  0.7903  1.8467  0.4120
  231MOL0     H30484   7.170   6.098   2.692 -0.8244 -1.8782  0.1083
  231MOL0     H30485   7.253   6.154   2.836  0.5394  1.3291 -0.1070
  231MOL0     H30486   7.259   5.865   2.757  0.2653 -0.6677  1.4064
  231MOL0     H30487   7.359   5.927   2.879  2.0490  1.9094 -0.8338
  231MOL0     H30488   7.366   5.929   2.574  2.4035 -2.9571 -0.1720
  231MOL0     H30489   7.426   6.078   2.648 -0.4808 -0.1086 -1.0908
  231MOL0     H30490   7.731   5.821   2.771  0.6067  0.9101 -0.6015
  231MOL0     H30491   6.897   5.846   2.952 -0.4563  0.0661  0.7188
  231MOL0     H30492   6.666   5.796   3.029  0.7228  0.0328 -0.9372
  232MOL0     O30493   5.651   1.564   8.914  0.0779  0.0496 -0.2379
  232MOL0     C30494   5.680   1.581   9.033 -0.3400 -0.6016 -0.3244
  232MOL0     O30495   5.764   1.504   9.114  0.7280  0.0060  0.8871
  232MOL0     C30496   5.803   1.387   9.056 -0.2647 -0.2442  0.1532
  232MOL0     C30497   5.720   1.278   9.055 -0.4530 -0.0683 -0.6833
  232MOL0     C30498   5.778   1.148   9.034 -0.4278  0.2876  0.3290
  232MOL0     C30499   5.915   1.122   9.011 -0.4075 -1.0275 -0.0317
  232MOL0     O30500   5.955   0.992   9.004  0.6041  0.1142  0.4715
  232MOL0     C30501   6.084   0.957   9.034 -0.3938 -0.6032 -0.6482
  232MOL0     C30502   6.089   0.817   9.093  0.3488 -0.3543  0.1427
  232MOL0     C30503   6.216   0.743   9.056  0.3937  0.2809  0.7482
  232MOL0     C30504   6.224   0.613   9.132  0.0532  0.7290  0.7407
  232MOL0     C30505   6.352   0.537   9.103 -0.6366  0.3533  0.4692
  232MOL0     C30506   6.346   0.486   8.956  0.4679  0.9374  0.0500
  232MOL0     C30507   6.487   0.434   8.918  0.3275  0.3768 -0.2715
  232MOL0     C30508   6.490   0.348   8.786  0.8485 -0.8884 -0.1155
  232MOL0     N30509   6.423   0.221   8.779  0.8941  0.5459 -0.7536
  232MOL0     C30510   6.319   0.178   8.696  0.0866  0.4083  0.2580
  232MOL0     C30511   6.276   0.061   8.752  0.4354  0.7417  0.1627
  232MOL0     C30512   6.161  -0.030   8.717 -0.6146 -0.2338 -0.4006
  232MOL0     C30513   6.176  -0.095   8.584 -0.5438  0.7614 -0.2631
  232MOL0     C30514   6.074  -0.207   8.572 -0.0428 -1.9005  0.0593
  232MOL0     C30515   5.919  -0.174   8.589  0.6549 -0.4211 -0.1154
  232MOL0     O30516   5.877  -0.093   8.473  0.4276  0.6645 -0.2372
  232MOL0     C30517   5.745  -0.035   8.476 -0.1811  0.5330  0.4986
  232MOL0     C30518   5.687   0.019   8.356  0.2757  0.3715 -0.1891
  232MOL0     C30519   5.565   0.077   8.351  0.1449  0.1210  0.3604
  232MOL0     C30520   5.497   0.108   8.468  0.0536  0.2921  0.0524
  232MOL0     C30521   5.360   0.162   8.460 -0.3693 -0.2524 -0.3728
  232MOL0     O30522   5.295   0.173   8.588 -0.8100 -0.0173  0.0036
  232MOL0     C30523   5.179   0.232   8.602  0.0385  0.0300  0.7099
  232MOL0     C30524   5.170   0.319   8.706  0.3760  0.0338 -0.1232
  232MOL0     C30525   5.042   0.378   8.739  0.0460 -0.0007  0.0509
  232MOL0     C30526   4.934   0.366   8.646  0.2045 -0.4939 -0.0551
  232MOL0     O30527   4.824   0.438   8.662 -0.0627 -0.3606 -0.7216
  232MOL0     C30528   4.827   0.577   8.638 -0.1987  0.5228  0.5459
  232MOL0     C30529   4.774   0.612   8.496 -0.3082  0.4580 -0.0014
  232MOL0     C30530   4.757   0.761   8.481  0.6124 -0.0406  0.3408
  232MOL0     C30531   4.694   0.809   8.354  0.1793 -0.2327  0.0749
  232MOL0     C30532   4.551   0.747   8.338  0.6547  0.6872 -0.3609
  232MOL0     C30533   4.469   0.797   8.226  0.2726 -0.1108 -1.1578
  232MOL0     C30534   4.330   0.737   8.226  0.2795 -1.0450  0.1503
  232MOL0     C30535   4.260   0.775   8.087 -1.0468 -0.0867 -0.2327
  232MOL0    Cl30536   4.100   0.703   8.113  0.2658  0.1415 -0.1300
  232MOL0     C30537   4.954   0.280   8.548  0.7933  0.6034  0.7965
  232MOL0     C30538   5.068   0.204   8.522 -0.7746  0.3001  0.3163
  232MOL0     O30539   5.311   0.191   8.355 -0.1184 -0.4321 -0.4661
  232MOL0     C30540   5.545   0.058   8.590 -0.0436 -1.0172 -0.2693
  232MOL0     C30541   5.674  -0.015   8.599  1.0240  0.0404 -0.1453
  232MOL0     N30542   6.362   0.029   8.850  0.0911 -0.1679  1.1666
  232MOL0     N30543   6.429   0.130   8.878  0.7415 -0.3066 -0.4804
  232MOL0     C30544   6.001   1.239   9.008  0.1047 -0.8104  0.2614
  232MOL0     C30545   5.945   1.362   9.027  0.0748 -0.6364  0.7416
  232MOL0     C30546   5.635   1.699   9.101 -0.6944 -0.4233  0.1804
  232MOL0     C30547   5.670   1.737   9.235 -0.1534 -0.6926 -0.3256
  232MOL0     C30548   5.628   1.852   9.291 -0.0886  0.4446  0.1823
  232MOL0     C30549   5.555   1.947   9.216  0.1390 -0.1442  0.1106
  232MOL0     O30550   5.505   2.067   9.260 -0.3308 -0.2113  0.2277
  232MOL0     C30551   5.596   2.145   9.332  0.5975 -0.2508 -0.6813
  232MOL0     C30552   5.595   2.277   9.258  0.6981  0.3381 -0.6467
  232MOL0     C30553   5.717   2.361   9.290 -0.2020  0.1216 -0.0627
  232MOL0     C30554   5.694   2.509   9.327  0.5403  0.1201  0.1400
  232MOL0     C30555   5.646   2.597   9.222  0.0706 -0.5201  0.0189
  232MOL0     C30556   5.621   2.674   9.129 -0.6173  0.6578 -0.0212
  232MOL0     C30557   5.507   1.904   9.089 -0.1486 -0.2255  0.6385
  232MOL0     C30558   5.545   1.784   9.038  0.9415  0.6750  0.5566
  232MOL0     H30559   5.614   1.293   9.070 -0.3283 -1.8065  3.1537
  232MOL0     H30560   5.710   1.064   9.029 -1.2183  0.9346 -0.1109
  232MOL0     H30561   6.125   1.035   9.099 -0.6556  0.0662 -1.2665
  232MOL0     H30562   6.153   0.960   8.949  1.4697 -4.4359  0.5192
  232MOL0     H30563   6.008   0.754   9.054 -0.7256  1.1745 -0.1706
  232MOL0     H30564   6.079   0.820   9.202 -0.1129 -0.7291  0.1152
  232MOL0     H30565   6.308   0.798   9.075  1.4771  0.1199 -3.1553
  232MOL0     H30566   6.210   0.721   8.949 -3.6947  0.4620  0.7844
  232MOL0     H30567   6.227   0.635   9.240  2.6306  0.5697  0.7567
  232MOL0     H30568   6.141   0.548   9.104  0.6263  1.4750 -3.2677
  232MOL0     H30569   6.360   0.449   9.167  1.3142 -0.2205 -0.4802
  232MOL0     H30570   6.443   0.597   9.106  0.1558 -0.3352 -3.6384
  232MOL0     H30571   6.310   0.551   8.876  0.7780 -1.1466 -1.8753
  232MOL0     H30572   6.279   0.400   8.945  2.6658 -0.9973  1.0171
  232MOL0     H30573   6.551   0.521   8.906  2.6026 -1.0785  0.7295
  232MOL0     H30574   6.524   0.385   9.009 -0.4049 -0.1496 -0.2413
  232MOL0     H30575   6.597   0.331   8.775  1.3851  1.5018  0.6840
  232MOL0     H30576   6.448   0.416   8.710 -0.5746 -0.5650  0.9264
  232MOL0     H30577   6.276   0.238   8.616  0.3111  0.2314  0.0014
  232MOL0     H30578   6.075   0.037   8.708 -0.3994  0.3345  1.3643
  232MOL0     H30579   6.153  -0.104   8.797  0.3990  0.5803  0.4819
  232MOL0     H30580   6.279  -0.132   8.575 -0.8809  0.1299 -1.9928
  232MOL0     H30581   6.167  -0.030   8.496  1.8600  0.1283 -1.0805
  232MOL0     H30582   6.061  -0.241   8.469 -2.0471  0.9716 -0.7422
  232MOL0     H30583   6.092  -0.294   8.637  3.3517  0.0218  1.9514
  232MOL0     H30584   5.903  -0.114   8.679 -2.8060 -0.4010 -0.6133
  232MOL0     H30585   5.865  -0.269   8.599  0.6780 -0.9872 -4.0236
  232MOL0     H30586   5.746   0.009   8.266  1.6834 -4.0478  0.9763
  232MOL0     H30587   5.514   0.110   8.261  2.8292  1.0602 -0.9447
  232MOL0     H30588   5.248   0.335   8.779  0.6895  0.9550 -0.6456
  232MOL0     H30589   5.043   0.437   8.830  2.1982 -2.4848  1.7871
  232MOL0     H30590   4.929   0.613   8.657  0.2654 -0.0113 -0.7992
  232MOL0     H30591   4.760   0.628   8.708 -1.7056  1.5079 -1.5123
  232MOL0     H30592   4.679   0.560   8.478  0.2881 -1.0654  0.9870
  232MOL0     H30593   4.846   0.583   8.418  1.9017  1.6092  1.5042
  232MOL0     H30594   4.854   0.810   8.492 -0.2822  1.9284 -0.0837
  232MOL0     H30595   4.699   0.800   8.566 -1.4552 -0.9602 -0.5718
  232MOL0     H30596   4.687   0.916   8.376 -2.0026 -0.6925  1.9629
  232MOL0     H30597   4.757   0.778   8.270 -0.3687 -1.0530 -0.0476
  232MOL0     H30598   4.495   0.756   8.431 -1.5679  0.9756 -1.6508
  232MOL0     H30599   4.561   0.640   8.314  3.3048  0.5484  1.0322
  232MOL0     H30600   4.518   0.758   8.136 -1.3634 -1.1907 -1.6441
  232MOL0     H30601   4.465   0.906   8.230  2.0199 -0.0562  0.0943
  232MOL0     H30602   4.337   0.628   8.238 -1.3605 -1.0103  2.1520
  232MOL0     H30603   4.277   0.785   8.309  1.4544  1.4551 -0.4636
  232MOL0     H30604   4.305   0.730   7.998 -2.0988  1.3765 -1.5489
  232MOL0     H30605   4.264   0.883   8.069  1.0958 -0.2089 -0.8315
  232MOL0     H30606   4.866   0.258   8.489  1.4842 -3.3191  0.9484
  232MOL0     H30607   5.071   0.135   8.438 -1.8104  0.1552  0.3779
  232MOL0     H30608   5.489   0.065   8.682  0.9662 -3.6729  0.6342
  232MOL0     H30609   5.693  -0.033   8.705 -0.5485 -0.4100  0.0876
  232MOL0     H30610   6.104   1.221   8.982  1.0216  4.1536 -0.5231
  232MOL0     H30611   6.019   1.440   9.016  0.7622 -1.6147 -2.2700
  232MOL0     H30612   5.709   1.666   9.307 -1.7893  1.4867  3.0001
  232MOL0     H30613   5.652   1.857   9.397  1.9501 -0.8732 -0.1622
  232MOL0     H30614   5.699   2.106   9.332 -0.0059 -2.1242 -3.2354
  232MOL0     H30615   5.563   2.158   9.435  0.3399  2.5673 -1.0408
  232MOL0     H30616   5.595   2.276   9.149  1.8786  2.0315 -0.7019
  232MOL0     H30617   5.519   2.349   9.289  1.8482  3.1070 -3.7135
  232MOL0     H30618   5.787   2.354   9.206 -0.3225 -2.2674 -0.0354
  232MOL0     H30619   5.760   2.314   9.379 -0.2628  1.5574  0.7641
  232MOL0     H30620   5.617   2.512   9.405 -0.1351 -3.2285 -0.2246
  232MOL0     H30621   5.790   2.547   9.363  0.8421  1.0298 -1.5369
  232MOL0     H30622   5.608   2.747   9.051 -2.6326  0.8465  0.4353
  232MOL0     H30623   5.452   1.981   9.035  1.8547  2.2703  1.9641
  232MOL0     H30624   5.498   1.751   8.945 -1.4269 -2.5526  2.6811
  233MOL0     O30625   4.010  10.341   1.319  0.2894 -0.5979  0.1965
  233MOL0     C30626   4.019  10.443   1.247 -0.2482 -0.3727  0.2923
  233MOL0     O30627   3.916  10.524   1.206  0.0724 -0.1298 -0.0201
  233MOL0     C30628   3.793  10.519   1.257 -0.4736 -1.2778 -0.6189
  233MOL0     C30629   3.735  10.413   1.320 -0.1043  0.1459  0.7917
  233MOL0     C30630   3.605  10.412   1.378 -0.1137 -0.2990  0.4440
  233MOL0     C30631   3.534  10.531   1.377 -0.5164  0.4054  0.0799
  233MOL0     O30632   3.418  10.519   1.451  0.2311 -0.8472 -0.1960
  233MOL0     C30633   3.372  10.644   1.506 -0.6295 -0.3083  0.0853
  233MOL0     C30634   3.226  10.638   1.565  0.6328 -0.3656  1.1288
  233MOL0     C30635   3.120  10.613   1.459  0.5560  0.6668 -0.0750
  233MOL0     C30636   2.983  10.632   1.521 -0.2756  0.3204 -0.3755
  233MOL0     C30637   2.862  10.612   1.425  0.4762 -0.0858 -0.4606
  233MOL0     C30638   2.842  10.478   1.355 -0.1355 -0.0045  0.3008
  233MOL0     C30639   2.886  10.353   1.437 -0.2199  0.0222  0.4060
  233MOL0     C30640   2.863  10.209   1.378 -0.3140  0.5528 -0.4717
  233MOL0     N30641   2.721  10.193   1.355  0.0791 -0.6114  0.2733
  233MOL0     C30642   2.626  10.192   1.451 -0.4626  0.4005  0.1619
  233MOL0     C30643   2.513  10.191   1.367  0.0327 -0.2541 -0.7862
  233MOL0     C30644   2.373  10.191   1.417  0.9584  0.0988  0.0815
  233MOL0     C30645   2.339  10.323   1.477 -0.1261 -0.8320 -0.0468
  233MOL0     C30646   2.183  10.329   1.507 -0.6277 -0.0956 -0.4794
  233MOL0     C30647   2.138  10.251   1.624  0.0129 -0.2278  0.2670
  233MOL0     O30648   2.121  10.115   1.587 -0.5033  0.0233  0.3713
  233MOL0     C30649   2.018  10.045   1.638 -0.0432 -0.6065 -0.1023
  233MOL0     C30650   1.998   9.919   1.575 -0.1934  0.3077 -0.0583
  233MOL0     C30651   1.894   9.832   1.621  0.8999  0.0033  0.9737
  233MOL0     C30652   1.818   9.876   1.731 -0.6043  0.2170  0.6299
  233MOL0     C30653   1.713   9.788   1.785  1.0001  0.2839 -0.7599
  233MOL0     O30654   1.678   9.669   1.723  0.4813 -0.1359 -0.8410
  233MOL0     C30655   1.564   9.595   1.752  0.2574 -0.2162 -0.5634
  233MOL0     C30656   1.553   9.472   1.683  0.2011 -0.2861 -1.0061
  233MOL0     C30657   1.438   9.383   1.703 -0.4338 -0.6522 -0.2338
  233MOL0     C30658   1.340   9.418   1.801  0.4498 -0.0626  0.0312
  233MOL0     O30659   1.234   9.332   1.842 -0.4443 -0.3295 -0.2964
  233MOL0     C30660   1.225   9.208   1.778  0.5146  0.6183  0.2015
  233MOL0     C30661   1.129   9.130   1.870 -1.2645  0.2510  0.8105
  233MOL0     C30662   0.994   9.194   1.874  0.0143  1.3954  1.1644
  233MOL0     C30663   0.898   9.136   1.975  0.0488 -0.1072  0.3609
  233MOL0     C30664   0.747   9.192   1.954  0.0253  0.6409  0.0198
  233MOL0     C30665   0.660   9.115   2.046 -0.5516 -0.1272  0.0946
  233MOL0     C30666   0.513   9.142   2.001 -0.5195  0.0492  0.7276
  233MOL0     C30667   0.405   9.099   2.096 -0.1320 -0.7479  0.4686
  233MOL0    Cl30668   0.251   9.173   2.046  0.0234  0.5184  0.1098
  233MOL0     C30669   1.359   9.537   1.869  0.6268 -0.8568 -0.4874
  233MOL0     C30670   1.456   9.629   1.841  0.3047  0.3325 -0.6132
  233MOL0     O30671   1.669   9.822   1.896  0.3421  0.3301 -0.1743
  233MOL0     C30672   1.839   9.994   1.788 -0.1694 -0.5977  1.1312
  233MOL0     C30673   1.942  10.074   1.743  0.2380 -0.1860  0.5888
  233MOL0     N30674   2.549  10.179   1.230  0.1748 -0.0975 -0.1004
  233MOL0     N30675   2.668  10.166   1.231  0.0974 -0.5920  0.3581
  233MOL0     C30676   3.593  10.647   1.322  0.4631  0.3238  0.6169
  233MOL0     C30677   3.721  10.638   1.266  0.7592  0.3777  0.3243
  233MOL0     C30678   4.155  10.484   1.194 -0.1198  0.0728 -0.2078
  233MOL0     C30679   4.269  10.442   1.262 -0.2671 -0.3621 -0.6551
  233MOL0     C30680   4.389  10.494   1.225 -0.2232  0.4441 -0.1800
  233MOL0     C30681   4.402  10.569   1.113  0.6086  0.3681 -0.6789
  233MOL0     O30682   4.530  10.608   1.085 -0.3377 -0.2787 -0.2188
  233MOL0     C30683   4.571  10.661   0.955 -0.7210 -0.1610  0.0398
  233MOL0     C30684   4.716  10.616   0.927  1.1967  0.5620 -0.3050
  233MOL0     C30685   4.819  10.714   0.970 -1.1666 -0.0707  0.0585
  233MOL0     C30686   4.808  10.780   1.110  0.2883  0.2630  0.2620
  233MOL0     C30687   4.935  10.847   1.150  0.4903 -0.2089  1.3807
  233MOL0     C30688   5.039  10.896   1.174  0.3177  0.5367 -0.6289
  233MOL0     C30689   4.287  10.613   1.054 -0.4906 -0.7048  0.1530
  233MOL0     C30690   4.160  10.567   1.086 -0.9618  1.5139 -0.3270
  233MOL0     H30691   3.781  10.315   1.313  2.0071  1.1885 -0.6219
  233MOL0     H30692   3.572  10.318   1.420  0.7816 -0.7900  0.0732
  233MOL0     H30693   3.373  10.728   1.436 -3.6082 -0.8835 -0.7707
  233MOL0     H30694   3.434  10.682   1.588 -2.1422 -0.7060  1.4704
  233MOL0     H30695   3.203  10.739   1.599 -0.7732  0.8381 -2.7867
  233MOL0     H30696   3.225  10.569   1.649  0.2993  0.4436  1.8005
  233MOL0     H30697   3.128  10.514   1.413  0.8638  0.7292 -0.1560
  233MOL0     H30698   3.133  10.681   1.374 -1.4986  1.1904 -0.0248
  233MOL0     H30699   2.971  10.560   1.603 -0.7319  1.0332  0.2043
  233MOL0     H30700   2.994  10.731   1.568  0.2251  1.7525 -3.3194
  233MOL0     H30701   2.867  10.699   1.359 -0.0087  0.9033  0.7624
  233MOL0     H30702   2.776  10.628   1.491  1.2063  1.6795  0.1456
  233MOL0     H30703   2.882  10.473   1.253 -0.1109 -3.2826  0.3549
  233MOL0     H30704   2.736  10.472   1.328 -0.1142 -0.3868  0.2984
  233MOL0     H30705   2.992  10.368   1.461 -0.2318 -0.8612  1.0403
  233MOL0     H30706   2.821  10.351   1.525 -1.2590  1.9040 -0.2489
  233MOL0     H30707   2.898  10.136   1.451 -1.1563  0.9103  0.3089
  233MOL0     H30708   2.925  10.199   1.289  1.4596  0.0662  0.7681
  233MOL0     H30709   2.619  10.194   1.559 -2.6912 -1.0196  0.0960
  233MOL0     H30710   2.379  10.109   1.489  2.6293 -0.3024 -0.4714
  233MOL0     H30711   2.307  10.167   1.334  3.2605 -2.0204 -1.2689
  233MOL0     H30712   2.363  10.408   1.411 -3.1496  0.2819  0.1269
  233MOL0     H30713   2.399  10.328   1.568  3.3210 -0.6783 -2.1484
  233MOL0     H30714   2.159  10.435   1.517 -0.4077 -0.0445 -0.4741
  233MOL0     H30715   2.137  10.298   1.412 -3.1678  0.3500  0.5456
  233MOL0     H30716   2.040  10.292   1.652  0.9517  2.1923  0.2462
  233MOL0     H30717   2.207  10.259   1.709  0.2426  0.7120  0.0047
  233MOL0     H30718   2.065   9.889   1.495  0.4638  0.9046  0.2611
  233MOL0     H30719   1.881   9.735   1.575  0.1427  0.5371  0.0426
  233MOL0     H30720   1.631   9.447   1.612  2.1915  2.1787  0.1458
  233MOL0     H30721   1.432   9.292   1.645  2.8667 -0.6339 -0.8230
  233MOL0     H30722   1.320   9.154   1.773  0.1910 -0.5425  3.6691
  233MOL0     H30723   1.193   9.208   1.674  0.9546 -1.4951  0.0204
  233MOL0     H30724   1.176   9.131   1.969  1.7653 -1.2343 -0.4822
  233MOL0     H30725   1.127   9.022   1.849  1.6828  0.7100 -2.8421
  233MOL0     H30726   0.944   9.173   1.779 -1.4885 -0.0619  2.2211
  233MOL0     H30727   1.004   9.302   1.887 -0.5216  1.5460  0.3348
  233MOL0     H30728   0.882   9.030   1.954  2.9383 -0.1819 -2.0803
  233MOL0     H30729   0.931   9.151   2.079 -0.7485  2.9635  0.2851
  233MOL0     H30730   0.720   9.175   1.849 -2.1240  0.6502  0.5372
  233MOL0     H30731   0.736   9.301   1.960  0.3438  0.9101 -2.7166
  233MOL0     H30732   0.670   9.162   2.144 -0.9432 -0.6335  0.3759
  233MOL0     H30733   0.673   9.007   2.051 -0.2594 -0.0376  1.8266
  233MOL0     H30734   0.487   9.248   1.996  1.6876  0.5834 -0.6125
  233MOL0     H30735   0.490   9.100   1.902  1.2898 -1.2412  0.7986
  233MOL0     H30736   0.438   9.138   2.193  1.4288 -0.0781 -0.2955
  233MOL0     H30737   0.402   8.990   2.101  1.9486 -0.8133  1.3451
  233MOL0     H30738   1.286   9.566   1.944  2.6622 -0.5961  1.5131
  233MOL0     H30739   1.443   9.728   1.884 -0.3207  0.3642 -0.8708
  233MOL0     H30740   1.779  10.013   1.877 -1.4273 -1.5758  0.5241
  233MOL0     H30741   1.952  10.169   1.795 -3.2112  0.1196  0.8773
  233MOL0     H30742   3.539  10.741   1.312  0.3170 -0.0114 -3.4292
  233MOL0     H30743   3.763  10.727   1.221 -1.0860  1.4987  0.7048
  233MOL0     H30744   4.255  10.368   1.340 -0.5555 -1.0455 -1.3450
  233MOL0     H30745   4.481  10.470   1.278 -0.5286 -0.8373 -0.1856
  233MOL0     H30746   4.568  10.770   0.950 -0.6682 -0.2078 -1.2340
  233MOL0     H30747   4.508  10.616   0.878  1.6232 -3.3010 -0.2649
  233MOL0     H30748   4.737  10.520   0.976 -4.4419 -0.5416  0.6079
  233MOL0     H30749   4.708  10.598   0.820 -0.6041  2.1154 -0.4832
  233MOL0     H30750   4.817  10.790   0.892  0.0527  1.7088  1.6857
  233MOL0     H30751   4.920  10.671   0.973 -1.0102  0.3589  1.2181
  233MOL0     H30752   4.723  10.849   1.103 -1.6837 -2.0522  0.0057
  233MOL0     H30753   4.787  10.706   1.188 -2.1380 -1.0968 -1.5451
  233MOL0     H30754   5.132  10.932   1.212  2.0553 -0.2731 -3.7640
  233MOL0     H30755   4.314  10.667   0.963  4.2130  1.0312  2.2722
  233MOL0     H30756   4.073  10.613   1.039 -3.1231 -2.3656 -0.4773
  234MOL0     O30757   7.566   9.086   1.139  0.7375  1.0614 -0.4238
  234MOL0     C30758   7.581   9.012   1.238  0.2454 -0.4294 -0.2396
  234MOL0     O30759   7.481   8.944   1.309 -0.3584  0.1938 -0.5969
  234MOL0     C30760   7.356   8.960   1.268  0.2282  0.3044  0.6776
  234MOL0     C30761   7.263   9.063   1.306  0.1003 -0.2089 -0.5107
  234MOL0     C30762   7.142   9.073   1.238  0.0873 -1.0311  0.2087
  234MOL0     C30763   7.110   8.995   1.127  0.4142 -0.1847 -0.7506
  234MOL0     O30764   6.996   9.004   1.056  0.6328  0.3039  0.6645
  234MOL0     C30765   6.870   9.057   1.114  0.0503  0.0484  0.4430
  234MOL0     C30766   6.761   9.061   1.005 -0.8084  0.0699  0.6800
  234MOL0     C30767   6.624   9.066   1.072  0.1382 -0.8159 -0.4471
  234MOL0     C30768   6.505   9.070   0.977 -0.0938 -0.2139  0.1629
  234MOL0     C30769   6.377   9.109   1.044  0.6268  0.0092  0.1413
  234MOL0     C30770   6.263   9.086   0.931 -0.0748 -0.3029  0.3655
  234MOL0     C30771   6.128   9.131   0.980  0.0970  0.1204 -0.0713
  234MOL0     C30772   6.020   9.067   0.881  0.0769 -0.7325  0.8182
  234MOL0     N30773   5.888   9.095   0.929 -0.6380 -0.3276  0.0774
  234MOL0     C30774   5.800   9.012   0.988 -0.3047  0.3564 -0.1452
  234MOL0     C30775   5.697   9.088   1.036  0.4490 -0.8974 -0.3201
  234MOL0     C30776   5.585   9.042   1.126 -0.4144 -0.4658 -0.0224
  234MOL0     C30777   5.537   8.903   1.083  0.7299  0.5039 -0.1823
  234MOL0     C30778   5.427   8.838   1.171 -0.0805 -0.3743  0.1271
  234MOL0     C30779   5.430   8.690   1.124  0.4585  0.2028 -0.7457
  234MOL0     O30780   5.389   8.672   0.982  0.3667  0.3132  0.3776
  234MOL0     C30781   5.267   8.730   0.933  0.5521 -0.2035  0.0176
  234MOL0     C30782   5.261   8.768   0.796  1.0069  0.4109 -0.9533
  234MOL0     C30783   5.141   8.820   0.736  0.1051 -0.3461 -0.8099
  234MOL0     C30784   5.030   8.842   0.817  0.5572  0.2021  0.1642
  234MOL0     C30785   4.903   8.889   0.749 -0.3104 -0.0965 -0.3245
  234MOL0     O30786   4.797   8.910   0.838 -0.3614 -0.3426  0.1244
  234MOL0     C30787   4.672   8.941   0.784 -0.8853 -0.5624  0.2118
  234MOL0     C30788   4.600   9.055   0.844  0.0971 -0.2197  0.6764
  234MOL0     C30789   4.475   9.099   0.793  0.9533 -0.7585  0.4641
  234MOL0     C30790   4.416   9.023   0.690  0.0395 -0.5260 -0.6129
  234MOL0     O30791   4.295   9.064   0.637  0.0560  0.3235 -0.3771
  234MOL0     C30792   4.284   9.065   0.495  0.5739 -0.4378  1.6887
  234MOL0     C30793   4.197   9.192   0.446 -0.8902  0.1754  0.2320
  234MOL0     C30794   4.054   9.185   0.497  0.2647  0.4431  0.7485
  234MOL0     C30795   3.963   9.252   0.384  0.1189  0.2202  0.2265
  234MOL0     C30796   3.808   9.261   0.420 -0.3746 -0.0090 -0.0823
  234MOL0     C30797   3.759   9.133   0.511  0.0714  0.3081 -1.2458
  234MOL0     C30798   3.621   9.165   0.570  0.9003  0.0386 -0.0761
  234MOL0     C30799   3.561   9.070   0.679 -0.8187 -0.0364  0.3514
  234MOL0    Cl30800   3.565   8.901   0.636  0.4125 -0.0079 -0.3600
  234MOL0     C30801   4.486   8.909   0.639 -0.3679  0.4915  0.1810
  234MOL0     C30802   4.610   8.871   0.689 -0.0285 -0.4739 -0.5339
  234MOL0     O30803   4.906   8.914   0.632 -0.4429 -0.4737  0.2340
  234MOL0     C30804   5.028   8.794   0.952  0.8743  0.3233 -0.4762
  234MOL0     C30805   5.155   8.750   1.009  0.4746  0.5313  0.1793
  234MOL0     N30806   5.720   9.215   0.994 -0.0386 -0.6780 -0.8624
  234MOL0     N30807   5.829   9.216   0.928 -0.1198 -0.1114 -0.0072
  234MOL0     C30808   7.203   8.899   1.089 -0.0894 -0.2733  0.3793
  234MOL0     C30809   7.322   8.879   1.158 -0.2262 -1.2618  0.0472
  234MOL0     C30810   7.717   8.983   1.279  0.0102  0.4074 -0.8001
  234MOL0     C30811   7.746   8.893   1.379 -0.8641 -0.5701 -0.4454
  234MOL0     C30812   7.879   8.866   1.413 -0.2070  0.1039 -0.1197
  234MOL0     C30813   7.989   8.929   1.352  0.2821  0.0022  0.5588
  234MOL0     O30814   8.110   8.901   1.413 -0.0702  0.2855 -0.0120
  234MOL0     C30815   8.206   8.864   1.319 -0.6296  0.0174  0.0289
  234MOL0     C30816   8.315   8.783   1.377  0.3268  0.1710  1.3810
  234MOL0     C30817   8.395   8.727   1.248 -0.7199 -0.5684 -0.0643
  234MOL0     C30818   8.527   8.661   1.296 -0.1923  0.2567 -0.9137
  234MOL0     C30819   8.607   8.615   1.187 -0.5658 -0.0348  0.6532
  234MOL0     C30820   8.692   8.557   1.121 -0.4407  0.2777  0.3345
  234MOL0     C30821   7.958   9.014   1.246 -0.0351 -1.1317 -0.6889
  234MOL0     C30822   7.825   9.045   1.220 -0.6298 -0.0226 -0.1221
  234MOL0     H30823   7.291   9.137   1.380  0.2798 -0.2830 -0.5029
  234MOL0     H30824   7.068   9.145   1.272  0.2182 -0.9825  0.3945
  234MOL0     H30825   6.896   9.154   1.158 -1.5630 -0.2186  2.1142
  234MOL0     H30826   6.845   8.999   1.203 -2.2444  1.0568  0.5173
  234MOL0     H30827   6.772   8.972   0.943  0.4607 -0.1389  1.1716
  234MOL0     H30828   6.771   9.157   0.955  2.3757 -0.3569  0.2836
  234MOL0     H30829   6.610   9.157   1.131  1.0682  0.7480 -2.4786
  234MOL0     H30830   6.613   8.971   1.125 -1.5535 -0.7504 -0.6279
  234MOL0     H30831   6.527   9.151   0.907  1.2346  0.1426  0.9444
  234MOL0     H30832   6.502   8.967   0.938  2.6817 -1.5784  3.0780
  234MOL0     H30833   6.391   9.210   1.082  0.0971 -0.3837  1.4307
  234MOL0     H30834   6.356   9.035   1.122  1.8147  0.7353  1.1873
  234MOL0     H30835   6.246   8.982   0.903 -3.1346 -0.3025  1.8112
  234MOL0     H30836   6.282   9.142   0.839  2.3747 -0.3685  0.7620
  234MOL0     H30837   6.108   9.108   1.085 -0.8700 -0.5440 -0.3913
  234MOL0     H30838   6.126   9.241   0.980  5.8603  0.5795  2.0425
  234MOL0     H30839   6.035   8.959   0.880 -2.4216 -1.1447  1.7391
  234MOL0     H30840   6.031   9.106   0.779 -0.5803  1.2204  1.4412
  234MOL0     H30841   5.824   8.907   1.003  2.8346  1.1823  1.4889
  234MOL0     H30842   5.495   9.103   1.110 -0.3982 -0.9609 -2.3888
  234MOL0     H30843   5.620   9.043   1.230  2.4917  2.0764 -0.8882
  234MOL0     H30844   5.623   8.839   1.103 -2.2303 -3.2977  1.8176
  234MOL0     H30845   5.521   8.890   0.975  1.9135  0.5419 -0.3774
  234MOL0     H30846   5.457   8.841   1.276  0.7161 -0.3214 -0.0948
  234MOL0     H30847   5.333   8.889   1.152  0.8181  1.5571  0.5577
  234MOL0     H30848   5.379   8.633   1.201  1.3844 -0.0320 -0.2855
  234MOL0     H30849   5.528   8.648   1.148 -0.4741 -1.3615  0.4818
  234MOL0     H30850   5.353   8.751   0.740  1.6353 -1.2796  0.5030
  234MOL0     H30851   5.146   8.849   0.632  1.4554  1.9805 -0.1660
  234MOL0     H30852   4.643   9.105   0.930  1.8967 -2.8425  1.4270
  234MOL0     H30853   4.424   9.189   0.825  2.3616 -0.2753  1.4347
  234MOL0     H30854   4.226   8.974   0.474 -3.1961  1.8886  0.9771
  234MOL0     H30855   4.379   9.071   0.442 -0.3539 -3.0939 -0.5324
  234MOL0     H30856   4.194   9.188   0.337  6.0447  1.4922 -0.4985
  234MOL0     H30857   4.242   9.287   0.475 -0.0953  0.6601 -2.4044
  234MOL0     H30858   4.040   9.241   0.590 -2.2251  2.6040 -0.7763
  234MOL0     H30859   4.017   9.082   0.496 -3.4753  1.6371  0.0661
  234MOL0     H30860   3.999   9.354   0.370  0.2794  0.1658  0.2344
  234MOL0     H30861   3.968   9.190   0.293  0.4608 -0.4627  0.6987
  234MOL0     H30862   3.754   9.270   0.326 -0.5053 -4.7831 -0.6663
  234MOL0     H30863   3.791   9.358   0.469 -0.0839 -0.2426  0.4914
  234MOL0     H30864   3.826   9.115   0.596  1.4670 -1.1077 -2.5813
  234MOL0     H30865   3.763   9.042   0.452  3.0449 -0.2595 -0.3437
  234MOL0     H30866   3.633   9.263   0.616  0.9472 -0.8156  1.8100
  234MOL0     H30867   3.553   9.162   0.484  1.4704  0.8489 -0.5827
  234MOL0     H30868   3.457   9.091   0.706 -1.2597 -0.7790 -0.7003
  234MOL0     H30869   3.625   9.078   0.767 -0.2557  2.8499 -0.2199
  234MOL0     H30870   4.452   8.843   0.560  1.6227 -3.6150  2.4497
  234MOL0     H30871   4.663   8.785   0.650  2.7396 -0.1527  2.1414
  234MOL0     H30872   4.933   8.791   1.004  0.9449  0.8422 -0.3229
  234MOL0     H30873   5.154   8.710   1.110  1.1422 -2.8081 -0.9948
  234MOL0     H30874   7.196   8.836   1.001 -1.3239  2.1926 -1.3940
  234MOL0     H30875   7.394   8.804   1.127 -1.3148 -2.9670  1.3883
  234MOL0     H30876   7.666   8.834   1.424 -0.2668 -0.3690  0.9115
  234MOL0     H30877   7.908   8.795   1.490  0.4221  0.1608 -0.2983
  234MOL0     H30878   8.254   8.954   1.280 -0.6665  0.0217 -0.0080
  234MOL0     H30879   8.160   8.804   1.239 -2.0154 -0.6583  1.2922
  234MOL0     H30880   8.372   8.834   1.455 -1.1219  1.7452  1.4725
  234MOL0     H30881   8.267   8.697   1.426 -0.6772 -0.1943 -0.1646
  234MOL0     H30882   8.432   8.808   1.184  0.6910 -1.0442  0.1315
  234MOL0     H30883   8.333   8.660   1.187  2.3916 -4.2217  0.4725
  234MOL0     H30884   8.590   8.738   1.341 -0.0155  0.2862 -1.2099
  234MOL0     H30885   8.515   8.587   1.376  1.2197 -1.1218 -1.9235
  234MOL0     H30886   8.767   8.497   1.074  1.6385 -0.0293  3.6711
  234MOL0     H30887   8.041   9.062   1.195 -0.6249  0.7350  0.0327
  234MOL0     H30888   7.806   9.117   1.141 -0.0540  0.2183 -0.0497
  235MOL0     O30889   1.931   2.440   8.523 -0.3490  0.2364 -1.2860
  235MOL0     C30890   1.917   2.553   8.483 -0.1784  0.1333 -0.2106
  235MOL0     O30891   1.801   2.616   8.479 -0.3831 -0.3138 -0.0191
  235MOL0     C30892   1.691   2.549   8.520  0.1155  0.5399 -0.4087
  235MOL0     C30893   1.636   2.575   8.646 -0.8855 -0.2705  1.5830
  235MOL0     C30894   1.507   2.546   8.677  0.1333  0.5172 -0.6326
  235MOL0     C30895   1.431   2.483   8.581  0.5373 -0.1659  0.2142
  235MOL0     O30896   1.299   2.457   8.622  0.7482  0.2749 -0.3253
  235MOL0     C30897   1.204   2.453   8.517  0.0616  1.1121  0.8212
  235MOL0     C30898   1.079   2.494   8.596  0.2678  0.2304 -0.7203
  235MOL0     C30899   0.973   2.507   8.492 -0.9422 -0.2555 -0.4422
  235MOL0     C30900   0.836   2.563   8.533 -0.7548 -1.2471  0.2643
  235MOL0     C30901   0.735   2.563   8.419 -0.0644 -0.4433  0.8739
  235MOL0     C30902   0.596   2.609   8.461  0.9325  0.7942 -0.0171
  235MOL0     C30903   0.537   2.490   8.549  0.1270 -0.3134 -0.2929
  235MOL0     C30904   0.386   2.504   8.568  0.0605  0.9419  0.0159
  235MOL0     N30905   0.301   2.518   8.452  0.8289  0.2487 -0.6727
  235MOL0     C30906   0.265   2.405   8.374  0.2543  0.6071  0.3030
  235MOL0     C30907   0.145   2.438   8.323  0.3244  0.6504  0.9637
  235MOL0     C30908   0.066   2.347   8.232 -0.2102 -0.2389 -0.1870
  235MOL0     C30909  -0.043   2.294   8.310 -0.7831 -0.5005  0.6653
  235MOL0     C30910  -0.135   2.201   8.239 -0.5821  0.5616 -0.1507
  235MOL0     C30911  -0.229   2.249   8.127 -0.7274 -0.2232 -0.1974
  235MOL0     O30912  -0.336   2.339   8.168  0.7197  0.5026 -0.4901
  235MOL0     C30913  -0.473   2.330   8.139  0.4708  0.4171  0.3495
  235MOL0     C30914  -0.556   2.445   8.157  0.0957 -0.6261 -0.1727
  235MOL0     C30915  -0.701   2.437   8.128  0.7058  0.0653 -0.5024
  235MOL0     C30916  -0.760   2.308   8.088  0.2368 -1.1838  0.5250
  235MOL0     C30917  -0.906   2.298   8.070 -0.9578 -0.5734 -0.2719
  235MOL0     O30918  -0.977   2.405   8.080 -0.1227 -0.4759  0.2099
  235MOL0     C30919  -1.113   2.421   8.047 -0.4479  0.0304  1.2600
  235MOL0     C30920  -1.157   2.553   8.026  0.2677 -0.6042 -0.0281
  235MOL0     C30921  -1.288   2.585   8.006  0.4606 -0.4153  0.2547
  235MOL0     C30922  -1.382   2.486   7.987  0.4764 -0.1193  0.8368
  235MOL0     O30923  -1.518   2.526   7.979  0.5221 -0.0352 -0.4202
  235MOL0     C30924  -1.617   2.424   7.941 -0.4752 -0.5809 -0.2080
  235MOL0     C30925  -1.750   2.473   7.887  0.1316  0.2346 -0.1058
  235MOL0     C30926  -1.842   2.343   7.897  0.2367  0.4263 -0.0471
  235MOL0     C30927  -1.994   2.371   7.878 -0.3622  0.6752 -0.4596
  235MOL0     C30928  -2.059   2.470   7.975  0.3466 -0.2421  0.6269
  235MOL0     C30929  -2.051   2.450   8.129 -0.0641 -0.7230  0.1794
  235MOL0     C30930  -2.094   2.307   8.170 -0.3075 -0.4935  0.6523
  235MOL0     C30931  -2.169   2.315   8.303  0.1845  0.6800 -1.2574
  235MOL0    Cl30932  -2.323   2.417   8.330  0.1172 -0.3825  0.4103
  235MOL0     C30933  -1.338   2.350   8.002  0.4147 -1.6707 -0.7218
  235MOL0     C30934  -1.207   2.322   8.034  0.1740  1.1376 -0.3254
  235MOL0     O30935  -0.947   2.184   8.065 -0.1437 -0.1115  0.2809
  235MOL0     C30936  -0.674   2.199   8.074 -0.1957 -0.4967 -1.1813
  235MOL0     C30937  -0.534   2.207   8.097  0.2246 -0.2094 -0.2551
  235MOL0     N30938   0.109   2.560   8.372 -0.4447 -0.0905  0.1563
  235MOL0     N30939   0.198   2.610   8.449  0.1127 -0.1683 -0.6546
  235MOL0     C30940   1.487   2.443   8.457 -0.1610  0.0860 -0.1653
  235MOL0     C30941   1.621   2.474   8.427 -0.5192  0.1397  0.2968
  235MOL0     C30942   2.037   2.627   8.426 -0.4785  0.2358 -0.2715
  235MOL0     C30943   2.015   2.746   8.354  0.9092 -0.3131 -0.6060
  235MOL0     C30944   2.109   2.816   8.281 -0.3191 -0.5633 -0.1154
  235MOL0     C30945   2.248   2.779   8.294  0.6987 -1.1037 -0.8726
  235MOL0     O30946   2.329   2.847   8.204  0.3796  0.5633 -0.5799
  235MOL0     C30947   2.471   2.829   8.238 -0.2232  0.1195  0.0692
  235MOL0     C30948   2.548   2.919   8.144  0.1513 -0.3599  0.3562
  235MOL0     C30949   2.703   2.908   8.178  0.0967 -0.4943  0.4233
  235MOL0     C30950   2.767   3.039   8.112 -0.4666 -1.2841 -0.3431
  235MOL0     C30951   2.915   3.059   8.125 -0.3331  0.6361  0.1212
  235MOL0     C30952   3.028   3.102   8.107  0.3005 -1.0192 -0.7891
  235MOL0     C30953   2.277   2.658   8.365  0.1597 -0.2470 -1.1089
  235MOL0     C30954   2.176   2.578   8.422  0.2115  0.6284 -0.8993
  235MOL0     H30955   1.698   2.627   8.719  2.3110 -1.8968  0.2332
  235MOL0     H30956   1.467   2.569   8.776 -1.8862  0.8450 -1.4647
  235MOL0     H30957   1.196   2.354   8.472  3.4908  0.4087  1.4749
  235MOL0     H30958   1.226   2.527   8.439  0.3462  0.5678  0.3718
  235MOL0     H30959   1.087   2.579   8.665 -3.1256 -0.6715  1.0030
  235MOL0     H30960   1.050   2.419   8.670 -1.9685  0.3191 -1.4431
  235MOL0     H30961   0.953   2.403   8.465 -1.0503 -0.2443 -0.4059
  235MOL0     H30962   1.015   2.555   8.403  0.0664 -0.0346  0.1338
  235MOL0     H30963   0.815   2.510   8.626  0.7127 -0.6740  0.9626
  235MOL0     H30964   0.862   2.663   8.569 -1.0703 -1.1553  0.2410
  235MOL0     H30965   0.720   2.469   8.366 -1.0857  1.2390 -2.0838
  235MOL0     H30966   0.776   2.626   8.340 -0.8578  0.3801  1.0979
  235MOL0     H30967   0.540   2.635   8.371  1.8703  3.2158  0.0328
  235MOL0     H30968   0.602   2.701   8.519 -1.8283  0.3059  1.2219
  235MOL0     H30969   0.556   2.399   8.491  0.7490  0.6873 -1.7249
  235MOL0     H30970   0.595   2.479   8.642 -0.2124  2.5075  0.3218
  235MOL0     H30971   0.379   2.587   8.639  1.3400 -0.8688  2.4007
  235MOL0     H30972   0.360   2.415   8.626 -0.4137  1.1335  0.1005
  235MOL0     H30973   0.304   2.305   8.357 -3.1533 -0.6167 -1.4311
  235MOL0     H30974   0.134   2.269   8.195 -0.8541 -0.4961 -0.8653
  235MOL0     H30975   0.034   2.408   8.147 -0.0997 -1.2042 -0.9523
  235MOL0     H30976  -0.103   2.381   8.340 -2.0545 -0.6662 -1.2215
  235MOL0     H30977   0.005   2.246   8.396  2.5126  0.2666 -0.5815
  235MOL0     H30978  -0.066   2.126   8.199  1.1942  1.7090  0.6807
  235MOL0     H30979  -0.199   2.147   8.309 -1.9760  2.6684  0.2988
  235MOL0     H30980  -0.294   2.172   8.083 -4.0421  3.0571 -1.6204
  235MOL0     H30981  -0.173   2.283   8.040 -1.3943 -0.2874 -0.6666
  235MOL0     H30982  -0.510   2.534   8.198  1.5548 -1.9269  1.1562
  235MOL0     H30983  -0.767   2.519   8.158  0.6568 -0.3304  0.5047
  235MOL0     H30984  -1.077   2.624   8.045  2.4228 -3.2776  1.5680
  235MOL0     H30985  -1.331   2.684   7.997  1.4468 -0.0777 -0.9278
  235MOL0     H30986  -1.647   2.371   8.032 -1.0827 -2.2946 -1.3538
  235MOL0     H30987  -1.570   2.353   7.872  1.3175 -3.0192  3.1652
  235MOL0     H30988  -1.756   2.503   7.782 -2.4360  2.6305  0.5991
  235MOL0     H30989  -1.782   2.558   7.950  2.7274  0.5989  0.8451
  235MOL0     H30990  -1.841   2.302   7.998  2.1244 -1.7837 -0.8667
  235MOL0     H30991  -1.813   2.267   7.824  2.3500 -0.4831  1.6226
  235MOL0     H30992  -2.002   2.406   7.775 -0.6446  0.1393 -0.6199
  235MOL0     H30993  -2.052   2.279   7.883 -0.5236  0.7461 -0.9587
  235MOL0     H30994  -2.166   2.473   7.955 -0.1223 -2.9968  2.2521
  235MOL0     H30995  -2.010   2.566   7.951  3.3665 -1.4767  1.3619
  235MOL0     H30996  -2.114   2.527   8.173  1.7014  1.7460 -1.4010
  235MOL0     H30997  -1.949   2.460   8.168  0.1596 -0.9949 -0.3219
  235MOL0     H30998  -2.159   2.261   8.095  2.4968 -1.9717 -1.0315
  235MOL0     H30999  -2.007   2.242   8.177  1.5289  1.8485  0.9044
  235MOL0     H31000  -2.094   2.347   8.376 -0.9973 -1.3935  0.9829
  235MOL0     H31001  -2.188   2.216   8.343  0.9222  1.1633  0.3598
  235MOL0     H31002  -1.413   2.271   7.994 -0.0216 -1.0709 -3.3787
  235MOL0     H31003  -1.185   2.222   8.070 -4.2617  0.2008  0.2564
  235MOL0     H31004  -0.717   2.102   8.055 -2.1754 -0.5311  2.5337
  235MOL0     H31005  -0.485   2.114   8.070  1.0324 -0.2474  1.2325
  235MOL0     H31006   1.439   2.388   8.377  1.8981  0.5552 -1.8058
  235MOL0     H31007   1.662   2.454   8.329  0.3433  0.0814  0.6659
  235MOL0     H31008   1.915   2.789   8.354  0.1720 -1.8902  1.4694
  235MOL0     H31009   2.071   2.899   8.223 -2.2709 -1.2354  0.1418
  235MOL0     H31010   2.509   2.727   8.223  1.8126  0.9861 -1.0638
  235MOL0     H31011   2.483   2.857   8.343 -1.8391  3.1263 -0.4415
  235MOL0     H31012   2.524   2.899   8.039 -0.0223  1.6040 -0.0156
  235MOL0     H31013   2.517   3.023   8.159 -2.2543 -1.0247  0.5265
  235MOL0     H31014   2.732   2.812   8.135 -3.0412 -1.0487 -0.7302
  235MOL0     H31015   2.728   2.915   8.284 -1.7867 -2.6550  1.0850
  235MOL0     H31016   2.738   3.058   8.008 -2.0173  0.4799  0.3650
  235MOL0     H31017   2.716   3.124   8.158 -1.5208 -0.5871 -2.6694
  235MOL0     H31018   3.128   3.140   8.105 -0.3974  1.2320  2.0944
  235MOL0     H31019   2.382   2.628   8.363  1.4322  3.6171 -0.4302
  235MOL0     H31020   2.200   2.476   8.447 -1.3170  0.6494  0.8932
  236MOL0     O31021   2.433   7.756   1.986 -1.0277 -0.1657 -0.0469
  236MOL0     C31022   2.416   7.778   1.868  0.0779  1.0133 -0.1194
  236MOL0     O31023   2.300   7.750   1.798  0.1635  0.3475 -0.0139
  236MOL0     C31024   2.195   7.680   1.852 -0.0390  0.1355 -0.2955
  236MOL0     C31025   2.135   7.585   1.773  0.1699  0.3219 -0.5114
  236MOL0     C31026   2.036   7.497   1.826  0.2949  0.4333  0.0474
  236MOL0     C31027   1.995   7.504   1.963 -0.1583 -0.4427  0.3310
  236MOL0     O31028   1.880   7.440   2.010  0.1424  0.4550 -0.3970
  236MOL0     C31029   1.902   7.301   2.009  0.1821  0.2990  0.1814
  236MOL0     C31030   1.781   7.220   2.052 -0.1730 -0.2414  0.5465
  236MOL0     C31031   1.652   7.255   1.973  0.0679  0.2552 -0.4898
  236MOL0     C31032   1.546   7.167   2.021  0.2889  1.4541  0.4963
  236MOL0     C31033   1.428   7.198   1.935  0.2354  0.4528  0.0174
  236MOL0     C31034   1.294   7.130   1.977  0.3739 -0.6873  0.2351
  236MOL0     C31035   1.182   7.152   1.883 -0.3327 -0.3157 -0.3529
  236MOL0     C31036   1.057   7.114   1.947 -0.0360 -0.3886  0.7081
  236MOL0     N31037   1.030   7.189   2.065  0.3571 -0.3747  0.1656
  236MOL0     C31038   1.049   7.321   2.090 -0.9064  0.3728 -0.9385
  236MOL0     C31039   1.032   7.333   2.221  0.6658  0.2301  0.0151
  236MOL0     C31040   1.057   7.457   2.303  0.5370  0.3258 -0.4033
  236MOL0     C31041   0.949   7.557   2.282  0.4856  0.8957  0.1791
  236MOL0     C31042   0.811   7.504   2.329  1.1946 -0.2991 -0.4901
  236MOL0     C31043   0.712   7.470   2.213 -0.1144 -0.3510  0.2685
  236MOL0     O31044   0.651   7.583   2.148 -1.0894 -0.9818 -0.2071
  236MOL0     C31045   0.524   7.580   2.102 -0.0209  0.3731 -0.7301
  236MOL0     C31046   0.452   7.697   2.098  0.8787 -0.0930  0.0629
  236MOL0     C31047   0.325   7.691   2.050  0.2166  0.4937  1.2070
  236MOL0     C31048   0.266   7.583   1.993  0.5655 -0.5908 -0.0891
  236MOL0     C31049   0.125   7.596   1.954 -0.9423 -0.6137  0.2981
  236MOL0     O31050   0.077   7.720   1.921  1.2262  0.3272  1.0310
  236MOL0     C31051  -0.060   7.742   1.893  0.1618  0.4032 -0.8772
  236MOL0     C31052  -0.129   7.855   1.940  0.5005 -0.7876 -0.7026
  236MOL0     C31053  -0.270   7.870   1.907  0.6633  0.1862  0.5970
  236MOL0     C31054  -0.335   7.776   1.824 -0.2872  0.1866  0.1236
  236MOL0     O31055  -0.467   7.795   1.801 -0.4616  0.1757  0.2363
  236MOL0     C31056  -0.549   7.683   1.837  0.7909 -0.4030  0.3088
  236MOL0     C31057  -0.682   7.736   1.895  1.0730  0.5000 -0.2812
  236MOL0     C31058  -0.789   7.620   1.897  0.0596 -0.3970  0.0256
  236MOL0     C31059  -0.896   7.659   1.995  0.4709 -0.4319 -0.1074
  236MOL0     C31060  -1.025   7.577   1.993 -0.0847  0.8174  0.1054
  236MOL0     C31061  -1.116   7.608   1.877  0.4564 -0.8319  0.6601
  236MOL0     C31062  -1.227   7.510   1.861 -0.2282 -0.2225 -0.7870
  236MOL0     C31063  -1.329   7.551   1.746 -0.2686  0.5187 -0.4710
  236MOL0    Cl31064  -1.396   7.407   1.669  0.4283 -0.4062  0.0605
  236MOL0     C31065  -0.266   7.674   1.770  0.1064 -0.0292 -0.3993
  236MOL0     C31066  -0.131   7.662   1.793  0.5728  0.0095 -0.0142
  236MOL0     O31067   0.060   7.490   1.948 -0.0043 -0.7352 -0.1633
  236MOL0     C31068   0.335   7.459   1.998  0.3567 -0.3500 -0.4413
  236MOL0     C31069   0.466   7.460   2.051  0.5412 -0.6504 -0.6282
  236MOL0     N31070   0.989   7.210   2.276  1.0643  0.5183  0.1000
  236MOL0     N31071   1.004   7.128   2.183 -0.0760  0.3722  0.0647
  236MOL0     C31072   2.048   7.608   2.042 -0.7033 -0.3773 -0.1496
  236MOL0     C31073   2.153   7.688   1.988 -0.4319 -0.3763  0.8568
  236MOL0     C31074   2.517   7.866   1.800  0.3772  0.0201  0.0769
  236MOL0     C31075   2.598   7.951   1.871 -0.1650  0.6648  0.3336
  236MOL0     C31076   2.685   8.046   1.809 -0.4758  0.1924  0.4565
  236MOL0     C31077   2.711   8.037   1.673 -0.0402 -0.2524 -0.1273
  236MOL0     O31078   2.819   8.111   1.619  0.0490 -0.7739  0.2503
  236MOL0     C31079   2.829   8.132   1.477 -0.1584 -0.9556  0.5558
  236MOL0     C31080   2.948   8.054   1.428 -0.6622 -0.8271  0.1384
  236MOL0     C31081   3.075   8.098   1.508  0.7378  0.5150  0.2731
  236MOL0     C31082   3.190   8.016   1.432 -0.3821 -0.0738 -0.7000
  236MOL0     C31083   3.320   8.076   1.481  0.9373 -0.0699 -1.3602
  236MOL0     C31084   3.424   8.128   1.502  0.4650  0.2371 -0.4461
  236MOL0     C31085   2.631   7.947   1.598 -0.4646 -0.0796 -0.4238
  236MOL0     C31086   2.533   7.867   1.660 -0.4040 -0.4896 -0.0410
  236MOL0     H31087   2.158   7.577   1.667  1.7750 -2.7594 -0.0242
  236MOL0     H31088   1.987   7.440   1.748  0.1342  2.1734 -1.1813
  236MOL0     H31089   1.984   7.283   2.079  0.1296 -0.3166  0.0900
  236MOL0     H31090   1.929   7.261   1.911 -1.3054 -0.8904  0.2237
  236MOL0     H31091   1.765   7.245   2.157  2.4918 -0.1455  0.9855
  236MOL0     H31092   1.809   7.116   2.030  3.4119  0.1978  2.3105
  236MOL0     H31093   1.656   7.225   1.868 -0.7637 -0.1755 -0.4134
  236MOL0     H31094   1.636   7.363   1.978  0.7904  0.3781 -0.7028
  236MOL0     H31095   1.573   7.063   2.003 -3.1534  0.5565 -0.2131
  236MOL0     H31096   1.510   7.178   2.123 -3.0303 -1.0783 -0.2428
  236MOL0     H31097   1.446   7.182   1.828 -0.3794 -1.9964  0.2158
  236MOL0     H31098   1.409   7.306   1.939 -0.6876  0.2614  1.8065
  236MOL0     H31099   1.285   7.163   2.081 -0.7763 -1.1626  0.3069
  236MOL0     H31100   1.320   7.024   1.983  0.9127 -0.5865 -0.2169
  236MOL0     H31101   1.175   7.257   1.853  0.9544 -0.8072 -2.6166
  236MOL0     H31102   1.178   7.090   1.793 -1.8540 -1.4530  0.4643
  236MOL0     H31103   1.063   7.008   1.976 -3.0010 -0.1104  2.7338
  236MOL0     H31104   0.975   7.126   1.875 -2.0778 -3.4097  2.3025
  236MOL0     H31105   1.074   7.393   2.014 -1.8284 -1.1021 -2.7276
  236MOL0     H31106   1.157   7.499   2.289  0.9817 -0.0078  1.4567
  236MOL0     H31107   1.042   7.430   2.408 -0.7683  2.9240  0.1619
  236MOL0     H31108   0.935   7.583   2.177  0.5769  0.9873  0.1896
  236MOL0     H31109   0.977   7.649   2.333  1.4287  0.5054  0.3817
  236MOL0     H31110   0.821   7.413   2.388 -2.0947 -1.5589 -1.6134
  236MOL0     H31111   0.768   7.573   2.402  1.7180 -0.7031  0.2083
  236MOL0     H31112   0.632   7.413   2.262 -1.2171  1.2818  0.4430
  236MOL0     H31113   0.772   7.420   2.137 -1.2815 -0.8312 -0.3645
  236MOL0     H31114   0.492   7.796   2.115  1.8286 -0.4731  0.1020
  236MOL0     H31115   0.277   7.789   2.052  0.4161  0.5926  1.1565
  236MOL0     H31116  -0.096   7.934   2.006 -0.5130  0.4212 -1.5976
  236MOL0     H31117  -0.317   7.963   1.937 -2.4313 -0.3381 -2.1419
  236MOL0     H31118  -0.498   7.609   1.900 -0.5162  0.3792  2.3930
  236MOL0     H31119  -0.579   7.630   1.746 -0.8810  0.5532  0.2614
  236MOL0     H31120  -0.724   7.823   1.842 -1.8375  0.8482  2.2950
  236MOL0     H31121  -0.670   7.766   1.999 -0.6820 -0.4624  0.2334
  236MOL0     H31122  -0.746   7.529   1.941 -2.7683 -0.4413  3.1064
  236MOL0     H31123  -0.831   7.609   1.797  1.4762  0.9938 -0.7567
  236MOL0     H31124  -0.848   7.646   2.092  2.4748 -4.4938 -1.4108
  236MOL0     H31125  -0.920   7.765   1.982  0.8465 -0.6657 -3.6583
  236MOL0     H31126  -1.075   7.581   2.090 -0.1022 -0.7114  0.1730
  236MOL0     H31127  -0.997   7.473   1.973  0.2962  1.1532 -1.2404
  236MOL0     H31128  -1.054   7.619   1.788 -0.9790  0.6451 -0.2033
  236MOL0     H31129  -1.165   7.705   1.884 -0.6414 -0.9538 -3.2040
  236MOL0     H31130  -1.172   7.417   1.847  0.4012 -1.0862  4.8246
  236MOL0     H31131  -1.283   7.499   1.955 -0.8008 -1.7081 -1.2780
  236MOL0     H31132  -1.281   7.609   1.667 -0.5499  1.4264  0.0112
  236MOL0     H31133  -1.407   7.620   1.779 -1.0940  0.6243 -2.4636
  236MOL0     H31134  -0.311   7.598   1.706 -0.8078  1.0062 -1.0290
  236MOL0     H31135  -0.075   7.589   1.735 -2.5342 -2.6196 -0.0107
  236MOL0     H31136   0.295   7.363   1.967 -2.1950 -0.6521  3.1321
  236MOL0     H31137   0.519   7.366   2.051 -1.1636 -1.6951  0.8673
  236MOL0     H31138   2.010   7.641   2.138  0.6479  2.5797 -0.5234
  236MOL0     H31139   2.201   7.758   2.056  0.2382  0.0627 -0.0414
  236MOL0     H31140   2.590   7.953   1.979 -1.0048  0.4970  0.2765
  236MOL0     H31141   2.747   8.119   1.860 -0.7860 -0.4323  1.7679
  236MOL0     H31142   2.839   8.239   1.457  1.3262 -0.7956  1.9781
  236MOL0     H31143   2.741   8.098   1.421 -0.2730  1.3097 -0.7527
  236MOL0     H31144   2.932   7.946   1.436  0.4383 -0.9760  0.5107
  236MOL0     H31145   2.971   8.083   1.325  3.7223 -2.2343  0.5121
  236MOL0     H31146   3.078   8.066   1.612 -0.0152  0.4879  0.2869
  236MOL0     H31147   3.073   8.207   1.503 -0.6246  0.5548  1.1747
  236MOL0     H31148   3.189   7.910   1.456 -0.6524  0.0800  0.0198
  236MOL0     H31149   3.187   8.029   1.324 -0.0285 -1.3513 -0.8721
  236MOL0     H31150   3.521   8.169   1.523  0.0373  1.9589 -1.6449
  236MOL0     H31151   2.636   7.936   1.490  0.6619  0.9716 -0.5022
  236MOL0     H31152   2.474   7.803   1.595 -0.9201  0.5595 -0.6232
  237MOL0     O31153   0.252   7.958   3.069 -0.0002  0.0714  0.0149
  237MOL0     C31154   0.314   8.068   3.064  0.7698  0.3606  0.3498
  237MOL0     O31155   0.266   8.187   3.025  0.7943  0.4478  0.0577
  237MOL0     C31156   0.134   8.197   2.984 -0.1334 -0.2663 -0.2337
  237MOL0     C31157   0.096   8.154   2.857 -0.7852  0.8088  0.2608
  237MOL0     C31158  -0.031   8.139   2.809  0.2801  0.2439  0.3367
  237MOL0     C31159  -0.139   8.183   2.887 -0.4198  0.0067  0.5904
  237MOL0     O31160  -0.272   8.192   2.849 -0.7177 -0.3897 -0.2849
  237MOL0     C31161  -0.322   8.069   2.816 -0.8002  0.1520 -0.9217
  237MOL0     C31162  -0.462   8.075   2.840  0.2351  0.7087 -1.0569
  237MOL0     C31163  -0.530   7.980   2.739 -0.1734 -1.2725  0.0341
  237MOL0     C31164  -0.681   7.990   2.755  0.2896  1.1948  0.3810
  237MOL0     C31165  -0.753   7.945   2.625  0.3311 -0.1089  0.4348
  237MOL0     C31166  -0.892   8.029   2.636 -0.4902  0.5784 -0.4311
  237MOL0     C31167  -0.983   7.998   2.510 -0.9525 -0.1700 -1.1489
  237MOL0     C31168  -1.100   8.095   2.523  0.1230 -0.2168  0.5605
  237MOL0     N31169  -1.203   8.073   2.414  0.3955 -0.7520 -0.1992
  237MOL0     C31170  -1.296   7.974   2.412 -0.4788  0.5094 -0.3056
  237MOL0     C31171  -1.327   7.951   2.282 -0.0618 -0.3004 -0.3789
  237MOL0     C31172  -1.425   7.862   2.231 -0.0644 -0.3864 -0.1573
  237MOL0     C31173  -1.370   7.743   2.151 -0.0466 -0.9382 -0.8797
  237MOL0     C31174  -1.489   7.665   2.095 -0.5112  0.0161  0.4588
  237MOL0     C31175  -1.588   7.596   2.197 -0.3175 -0.2155 -0.2343
  237MOL0     O31176  -1.679   7.685   2.256  0.4522 -1.2416 -0.1437
  237MOL0     C31177  -1.767   7.632   2.349 -0.0331 -0.8585 -0.0851
  237MOL0     C31178  -1.783   7.502   2.395 -0.1519  0.1108  0.0139
  237MOL0     C31179  -1.889   7.469   2.484 -0.1022 -0.4985  0.4925
  237MOL0     C31180  -1.987   7.569   2.512  0.8760  0.8380  1.2839
  237MOL0     C31181  -2.106   7.532   2.593 -0.5973 -1.4603 -0.2133
  237MOL0     O31182  -2.178   7.640   2.644  0.3670 -0.1040  0.4674
  237MOL0     C31183  -2.274   7.615   2.743 -0.0565  0.1871 -0.0286
  237MOL0     C31184  -2.416   7.644   2.726  0.5200  0.8110  1.0924
  237MOL0     C31185  -2.505   7.598   2.827  0.1927  0.5243 -0.2195
  237MOL0     C31186  -2.459   7.562   2.950  0.5364  0.1317  0.5880
  237MOL0     O31187  -2.554   7.519   3.035 -0.0600  0.0783  0.1241
  237MOL0     C31188  -2.527   7.488   3.176  0.2635  0.6114  0.5685
  237MOL0     C31189  -2.659   7.515   3.255  0.6127  0.3343 -0.4518
  237MOL0     C31190  -2.775   7.424   3.222 -0.3322 -0.2742 -0.5725
  237MOL0     C31191  -2.896   7.437   3.326 -0.4381  0.3865  0.3058
  237MOL0     C31192  -3.007   7.342   3.283 -0.5940 -1.0829  0.0242
  237MOL0     C31193  -3.123   7.348   3.394  0.3956  0.5244  0.5265
  237MOL0     C31194  -3.222   7.245   3.371 -0.2094  0.6067 -0.0641
  237MOL0     C31195  -3.331   7.260   3.477  0.0649 -0.6834 -0.6052
  237MOL0    Cl31196  -3.261   7.164   3.621 -0.3265  0.1278 -0.2121
  237MOL0     C31197  -2.324   7.561   2.975  0.0803  0.3395 -0.1373
  237MOL0     C31198  -2.232   7.571   2.872 -0.6557 -0.5085  0.3325
  237MOL0     O31199  -2.113   7.417   2.634 -0.1387  0.3348 -0.5096
  237MOL0     C31200  -1.966   7.693   2.456  0.6155 -0.1405 -0.5159
  237MOL0     C31201  -1.865   7.727   2.372 -0.4064 -0.5125 -0.1097
  237MOL0     N31202  -1.249   8.033   2.213  0.3863 -0.7397  0.8327
  237MOL0     N31203  -1.180   8.109   2.284 -0.6413 -0.5632  0.6529
  237MOL0     C31204  -0.113   8.225   3.010  0.3887 -0.6782  0.1445
  237MOL0     C31205   0.018   8.221   3.059 -0.1759  0.0239 -0.1131
  237MOL0     C31206   0.462   8.050   3.094 -0.5850 -0.2535 -0.0131
  237MOL0     C31207   0.548   8.149   3.042 -0.2351 -0.6967 -0.3233
  237MOL0     C31208   0.688   8.138   3.063  0.2790 -0.6201 -0.0930
  237MOL0     C31209   0.738   8.026   3.123  0.2392 -0.0760 -0.4326
  237MOL0     O31210   0.870   8.018   3.144 -0.2527  0.3718  0.0608
  237MOL0     C31211   0.959   8.120   3.118  0.3740 -0.4764 -0.3564
  237MOL0     C31212   1.101   8.081   3.130  0.4536  0.4436 -0.1970
  237MOL0     C31213   1.192   8.203   3.077  0.5443  1.1148  0.4898
  237MOL0     C31214   1.339   8.157   3.084 -0.1178 -0.5913 -0.1629
  237MOL0     C31215   1.421   8.284   3.075 -0.3880 -0.4636  0.4381
  237MOL0     C31216   1.478   8.389   3.057  0.1598  0.5252  0.1342
  237MOL0     C31217   0.652   7.927   3.177  0.5354 -0.6710  0.3646
  237MOL0     C31218   0.513   7.940   3.156  0.2562  0.1445 -0.2752
  237MOL0     H31219   0.175   8.118   2.792  1.1080  3.2673  1.0564
  237MOL0     H31220  -0.051   8.109   2.706 -4.2353  1.1925  0.7446
  237MOL0     H31221  -0.277   7.996   2.884 -0.9531 -0.2359 -1.2355
  237MOL0     H31222  -0.295   8.059   2.710  0.3287 -0.3682 -0.6037
  237MOL0     H31223  -0.506   8.174   2.820 -1.1256  0.0800 -1.2888
  237MOL0     H31224  -0.492   8.042   2.939  0.2967 -1.9863 -1.8488
  237MOL0     H31225  -0.496   7.877   2.754  0.8686 -0.6584  2.1921
  237MOL0     H31226  -0.510   8.015   2.637 -3.6449  0.0324 -0.3479
  237MOL0     H31227  -0.706   7.921   2.837 -2.4769  0.4061 -1.0232
  237MOL0     H31228  -0.704   8.092   2.784  1.0679  1.6794 -0.6406
  237MOL0     H31229  -0.774   7.838   2.624  0.0341 -0.0514 -0.3268
  237MOL0     H31230  -0.698   7.967   2.533  0.5153 -3.4934 -0.3709
  237MOL0     H31231  -0.884   8.137   2.650 -3.1013  0.8355 -0.4488
  237MOL0     H31232  -0.941   7.991   2.726 -2.4690  0.1045 -1.6284
  237MOL0     H31233  -0.920   8.015   2.422 -0.2604 -1.8020 -1.0129
  237MOL0     H31234  -1.024   7.897   2.515 -2.0828  0.3340  0.6903
  237MOL0     H31235  -1.068   8.200   2.516  0.6965 -0.4934 -1.2461
  237MOL0     H31236  -1.142   8.075   2.622  1.3998 -0.1382  1.1433
  237MOL0     H31237  -1.332   7.918   2.497  2.4079  1.4006  1.6823
  237MOL0     H31238  -1.490   7.923   2.168  1.0938 -1.5690 -2.6272
  237MOL0     H31239  -1.482   7.836   2.321 -1.0607  2.8415  0.2668
  237MOL0     H31240  -1.300   7.679   2.205  0.6414 -0.1270 -0.7758
  237MOL0     H31241  -1.310   7.779   2.067  3.0815 -1.1208  1.0874
  237MOL0     H31242  -1.562   7.717   2.032  1.7495  0.0357 -2.3548
  237MOL0     H31243  -1.450   7.590   2.024 -1.5868  0.9320 -1.1571
  237MOL0     H31244  -1.527   7.535   2.264 -0.2714 -1.2112 -1.1377
  237MOL0     H31245  -1.652   7.523   2.146 -3.0265  1.4249  0.6042
  237MOL0     H31246  -1.720   7.426   2.349 -0.0954  0.8006 -1.0735
  237MOL0     H31247  -1.887   7.367   2.520  2.0297 -0.5467  0.3889
  237MOL0     H31248  -2.453   7.675   2.628 -0.3477  3.9466  2.3051
  237MOL0     H31249  -2.613   7.597   2.815  0.3250  1.5163 -1.9419
  237MOL0     H31250  -2.453   7.551   3.227 -0.4593  1.3762  0.6778
  237MOL0     H31251  -2.485   7.387   3.182 -0.7863  0.1210 -0.0866
  237MOL0     H31252  -2.693   7.619   3.245  1.7550  1.0047  1.8972
  237MOL0     H31253  -2.641   7.508   3.362  2.5972 -1.2700 -0.8318
  237MOL0     H31254  -2.737   7.321   3.215  0.0129 -0.0554 -2.3937
  237MOL0     H31255  -2.820   7.465   3.132 -3.2428  2.6166  1.9573
  237MOL0     H31256  -2.863   7.399   3.423 -0.5301  0.2871  0.2989
  237MOL0     H31257  -2.929   7.540   3.346 -2.9017 -0.0434 -1.1124
  237MOL0     H31258  -2.964   7.244   3.260  3.5570  0.6330 -0.2122
  237MOL0     H31259  -3.049   7.375   3.188 -1.0308  0.8299  0.8252
  237MOL0     H31260  -3.172   7.444   3.379  2.2090  1.1453 -2.2539
  237MOL0     H31261  -3.070   7.330   3.488  3.4446  2.3771 -0.6748
  237MOL0     H31262  -3.259   7.266   3.270  0.2022  1.3328 -0.0701
  237MOL0     H31263  -3.167   7.151   3.381  1.4338  1.3753 -1.3183
  237MOL0     H31264  -3.426   7.230   3.432 -0.2245  2.1404 -2.0469
  237MOL0     H31265  -3.341   7.366   3.498  2.3973  0.8233 -5.6991
  237MOL0     H31266  -2.290   7.538   3.075  0.2102  5.7951  1.4098
  237MOL0     H31267  -2.132   7.538   2.896 -1.5119 -2.8674  0.8795
  237MOL0     H31268  -2.031   7.776   2.482  1.6387  0.9396 -1.3388
  237MOL0     H31269  -1.865   7.830   2.335 -2.4658 -0.6616 -0.6632
  237MOL0     H31270  -0.193   8.248   3.080  3.4734 -0.2870  3.9149
  237MOL0     H31271   0.038   8.255   3.160 -0.4953  1.0434 -0.3802
  237MOL0     H31272   0.510   8.226   2.975 -0.9135  0.7758  1.6303
  237MOL0     H31273   0.742   8.222   3.019 -2.4098  1.0782 -0.4089
  237MOL0     H31274   0.926   8.208   3.175 -0.3017 -1.9690  1.6746
  237MOL0     H31275   0.951   8.149   3.013  1.4581 -0.8321 -0.5466
  237MOL0     H31276   1.113   8.041   3.232 -2.9374 -0.0319  0.1276
  237MOL0     H31277   1.115   7.997   3.061 -0.5971  0.1428 -0.0599
  237MOL0     H31278   1.184   8.296   3.135 -0.0613  1.9036 -0.8086
  237MOL0     H31279   1.172   8.218   2.971  1.6103 -2.6634 -0.3941
  237MOL0     H31280   1.344   8.123   3.188  1.0507  3.5447  1.3399
  237MOL0     H31281   1.370   8.077   3.015 -0.7550 -0.5385 -0.5139
  237MOL0     H31282   1.511   8.490   3.044 -0.2668  0.5250 -1.0840
  237MOL0     H31283   0.702   7.847   3.231 -1.0039 -1.2442  0.9877
  237MOL0     H31284   0.447   7.861   3.188  0.5014 -0.0545 -0.2600
  238MOL0     O31285   1.574   3.674  10.125  0.5469  0.1789  0.0575
  238MOL0     C31286   1.610   3.786  10.151  0.7380  0.2361 -0.7226
  238MOL0     O31287   1.540   3.887  10.212 -0.0124 -0.2162 -0.2197
  238MOL0     C31288   1.411   3.868  10.256 -0.1497 -0.1978  0.3057
  238MOL0     C31289   1.358   3.928  10.376  0.3075 -0.3727  0.0278
  238MOL0     C31290   1.219   3.913  10.408  0.4002 -0.2432  0.1782
  238MOL0     C31291   1.136   3.842  10.324  0.3120  0.4168 -0.3776
  238MOL0     O31292   0.997   3.831  10.342  0.2984 -0.2147  0.0968
  238MOL0     C31293   0.935   3.904  10.450 -0.6063 -0.9989 -0.1717
  238MOL0     C31294   0.788   3.859  10.467  0.2242  0.2615  0.2140
  238MOL0     C31295   0.777   3.745  10.569  0.5192  0.2225 -0.6199
  238MOL0     C31296   0.626   3.719  10.604 -0.3153 -0.2897  0.1259
  238MOL0     C31297   0.610   3.645  10.740 -0.7709 -1.1961 -0.1725
  238MOL0     C31298   0.466   3.612  10.761  1.1167  0.2744 -0.1276
  238MOL0     C31299   0.438   3.576  10.904 -0.5263  0.1786 -1.3060
  238MOL0     C31300   0.291   3.531  10.926  0.2324 -0.4793  0.3198
  238MOL0     N31301   0.275   3.495  11.069  0.3314  0.0612  0.4709
  238MOL0     C31302   0.256   3.362  11.118 -0.1960  0.4655 -0.3416
  238MOL0     C31303   0.260   3.376  11.254 -0.6191 -0.2672 -0.3063
  238MOL0     C31304   0.243   3.270  11.363  0.0241 -0.0608  1.1452
  238MOL0     C31305   0.207   3.321  11.503  0.0499  0.8104 -0.4421
  238MOL0     C31306   0.062   3.368  11.515 -0.3412  0.4411 -0.3170
  238MOL0     C31307   0.001   3.317  11.642 -0.7811 -0.1746 -0.1277
  238MOL0     O31308  -0.129   3.373  11.663  0.2729 -0.7810  0.2782
  238MOL0     C31309  -0.199   3.335  11.771 -0.0653  0.4748 -0.5355
  238MOL0     C31310  -0.246   3.202  11.768  1.1088 -0.0710  0.2134
  238MOL0     C31311  -0.318   3.158  11.878  0.4204  0.6856 -0.6246
  238MOL0     C31312  -0.346   3.237  11.988 -0.3015  1.1966 -0.4791
  238MOL0     C31313  -0.442   3.199  12.096 -1.1231 -0.9674  0.2840
  238MOL0     O31314  -0.485   3.304  12.166 -0.1899  0.5581 -0.5000
  238MOL0     C31315  -0.530   3.283  12.291 -0.1559 -0.0187  0.3967
  238MOL0     C31316  -0.666   3.281  12.319 -0.3235  0.2422 -0.3528
  238MOL0     C31317  -0.714   3.261  12.449 -0.5421 -0.3844 -0.0033
  238MOL0     C31318  -0.625   3.256  12.556  0.0577  0.4565 -0.1996
  238MOL0     O31319  -0.656   3.241  12.687 -0.2196  0.2041 -0.4026
  238MOL0     C31320  -0.793   3.210  12.731  0.2146 -0.6894  0.1793
  238MOL0     C31321  -0.776   3.191  12.885 -0.1494  0.0661  0.1630
  238MOL0     C31322  -0.909   3.119  12.941 -1.4995  0.4856 -0.1702
  238MOL0     C31323  -1.020   3.216  12.948  0.1438  0.4203  1.1974
  238MOL0     C31324  -1.010   3.346  13.035  0.5413  0.6897  0.7277
  238MOL0     C31325  -1.004   3.301  13.179 -0.0206  0.1582  0.6822
  238MOL0     C31326  -1.028   3.424  13.272 -0.0694  0.7700  1.8989
  238MOL0     C31327  -0.970   3.408  13.412 -0.5559  0.0868  0.1862
  238MOL0    Cl31328  -1.068   3.299  13.511 -0.0350  0.3127  0.3501
  238MOL0     C31329  -0.494   3.270  12.525 -0.2408  0.2408 -0.4476
  238MOL0     C31330  -0.443   3.292  12.402  0.6899 -0.2952  0.2867
  238MOL0     O31331  -0.458   3.080  12.120 -0.2522  0.3199  1.0989
  238MOL0     C31332  -0.276   3.362  11.998 -0.2382  0.0651 -0.0216
  238MOL0     C31333  -0.202   3.411  11.889 -0.0658  0.2917  1.2121
  238MOL0     N31334   0.286   3.511  11.282  0.6864  0.0638 -0.5640
  238MOL0     N31335   0.283   3.577  11.173 -0.7565 -0.3521  0.1843
  238MOL0     C31336   1.183   3.796  10.201  0.9740  0.5169 -0.6198
  238MOL0     C31337   1.315   3.807  10.166 -0.3112  0.1968 -0.0880
  238MOL0     C31338   1.751   3.811  10.109  0.2219  0.5243  0.2043
  238MOL0     C31339   1.831   3.711  10.037  0.6984 -0.9000  0.1853
  238MOL0     C31340   1.966   3.736  10.006 -0.5387  0.2449 -0.9061
  238MOL0     C31341   2.034   3.855  10.056  0.9140 -0.3232 -0.7068
  238MOL0     O31342   2.165   3.862  10.031  0.6583  1.0983 -1.0979
  238MOL0     C31343   2.236   3.978  10.072  0.7366 -0.0082 -0.8300
  238MOL0     C31344   2.204   4.109   9.987 -0.0343 -0.5205 -0.0273
  238MOL0     C31345   2.162   4.077   9.846 -0.4644  0.5047  0.2580
  238MOL0     C31346   2.168   4.204   9.760  0.3511  0.5948 -0.3992
  238MOL0     C31347   2.094   4.316   9.803  0.5440  0.5332 -0.1464
  238MOL0     C31348   2.034   4.418   9.839  0.5105  0.9506 -1.1786
  238MOL0     C31349   1.958   3.938  10.141  1.4346  0.0264  0.6824
  238MOL0     C31350   1.822   3.918  10.168  0.2209  1.1704 -0.3466
  238MOL0     H31351   1.433   3.983  10.431  1.4553  0.9667 -2.6548
  238MOL0     H31352   1.195   3.941  10.510  4.6265 -3.1145  2.2650
  238MOL0     H31353   0.936   4.010  10.425 -0.4723 -0.7277  0.9162
  238MOL0     H31354   0.984   3.889  10.547  0.5159 -0.8144 -0.7010
  238MOL0     H31355   0.750   3.812  10.376  1.2879  0.0094 -0.1118
  238MOL0     H31356   0.724   3.942  10.498 -1.8479 -1.4154  0.5987
  238MOL0     H31357   0.826   3.781  10.661 -2.0038 -0.1797  0.9620
  238MOL0     H31358   0.816   3.650  10.531 -2.7869 -1.8844  0.8589
  238MOL0     H31359   0.563   3.808  10.598 -0.4111 -0.3613  0.0684
  238MOL0     H31360   0.588   3.652  10.526 -0.9815  1.3014 -0.9718
  238MOL0     H31361   0.646   3.718  10.813 -2.2332  0.9061 -1.4260
  238MOL0     H31362   0.666   3.553  10.760 -1.9032 -1.2356  3.5084
  238MOL0     H31363   0.451   3.526  10.695  1.4759 -0.1622  0.3478
  238MOL0     H31364   0.405   3.695  10.725  4.3803  2.7645 -0.3420
  238MOL0     H31365   0.511   3.503  10.941 -0.1896  1.8966  1.8343
  238MOL0     H31366   0.460   3.659  10.972 -0.1325  0.5005 -1.8175
  238MOL0     H31367   0.272   3.444  10.863  1.6185 -1.1289  0.7586
  238MOL0     H31368   0.216   3.608  10.905  0.4204  0.4100  2.6197
  238MOL0     H31369   0.254   3.269  11.063  2.4448  2.6430 -4.6167
  238MOL0     H31370   0.340   3.220  11.372  0.8167  1.1169 -0.3800
  238MOL0     H31371   0.173   3.189  11.339  1.4188 -1.2665  0.9879
  238MOL0     H31372   0.274   3.403  11.530 -1.0557  1.6242 -0.1401
  238MOL0     H31373   0.228   3.238  11.571  2.2143 -1.5528 -3.6649
  238MOL0     H31374   0.070   3.477  11.510  1.9994  0.2844 -1.6116
  238MOL0     H31375   0.001   3.339  11.429 -1.2208  0.5562  0.2501
  238MOL0     H31376   0.071   3.343  11.722 -1.4842  0.0439  0.4316
  238MOL0     H31377  -0.012   3.209  11.649 -0.0425 -0.4501 -2.3615
  238MOL0     H31378  -0.230   3.142  11.679 -1.4673  0.8681 -0.9605
  238MOL0     H31379  -0.375   3.067  11.865 -4.4123  3.1497  0.9005
  238MOL0     H31380  -0.735   3.284  12.236  0.8543  2.8843 -1.3284
  238MOL0     H31381  -0.822   3.253  12.457 -1.0899  2.2003 -2.8345
  238MOL0     H31382  -0.830   3.116  12.689  2.5615 -1.3029 -0.6967
  238MOL0     H31383  -0.856   3.295  12.702 -0.2745 -1.0707  0.1200
  238MOL0     H31384  -0.754   3.287  12.933 -0.1362  0.7927 -1.2377
  238MOL0     H31385  -0.686   3.130  12.893  0.2155  0.1350 -2.5183
  238MOL0     H31386  -0.879   3.074  13.036  2.6708 -2.8801 -2.7177
  238MOL0     H31387  -0.934   3.028  12.886 -3.4038 -0.4626  2.1148
  238MOL0     H31388  -1.056   3.242  12.848 -2.2702  1.5777  2.2954
  238MOL0     H31389  -1.099   3.158  12.997  2.3585 -1.5169  2.7020
  238MOL0     H31390  -1.107   3.394  13.019 -0.7158 -2.6221 -3.2177
  238MOL0     H31391  -0.931   3.420  13.018 -0.2925  1.7201  1.2655
  238MOL0     H31392  -0.902   3.272  13.206  0.3688  1.8691  1.2163
  238MOL0     H31393  -1.077   3.222  13.194 -2.4450  1.9236 -1.1271
  238MOL0     H31394  -0.977   3.510  13.227  0.0041  0.0442  0.5350
  238MOL0     H31395  -1.136   3.441  13.273  0.0613  1.7938  0.5720
  238MOL0     H31396  -0.965   3.507  13.460 -0.3796  0.9157 -1.4821
  238MOL0     H31397  -0.866   3.374  13.408 -0.1351  1.3891 -0.6602
  238MOL0     H31398  -0.432   3.269  12.614 -2.2912  2.1796  1.1311
  238MOL0     H31399  -0.337   3.313  12.395  0.7487  0.3465  2.4127
  238MOL0     H31400  -0.273   3.422  12.088  0.4759  1.1720 -0.7688
  238MOL0     H31401  -0.148   3.505  11.892 -0.1355  0.5306 -1.6516
  238MOL0     H31402   1.116   3.751  10.128 -0.7470 -2.1834  2.3505
  238MOL0     H31403   1.352   3.779  10.068  1.5993  0.2517  0.5685
  238MOL0     H31404   1.786   3.620   9.999 -0.2304 -0.2153 -0.4242
  238MOL0     H31405   2.025   3.663   9.952  0.3647 -0.6985  1.2300
  238MOL0     H31406   2.342   3.954  10.066  0.8850 -0.1522  1.3671
  238MOL0     H31407   2.218   3.994  10.179  2.3971  0.8710 -0.6596
  238MOL0     H31408   2.118   4.161  10.030 -0.3373 -1.0201 -0.0207
  238MOL0     H31409   2.289   4.177   9.986  0.2028 -0.8013  0.6258
  238MOL0     H31410   2.062   4.036   9.829  0.3926 -0.8145 -2.1358
  238MOL0     H31411   2.233   4.001   9.812 -0.8991  1.3797 -2.9165
  238MOL0     H31412   2.271   4.240   9.763  0.4004  0.3666  0.9164
  238MOL0     H31413   2.135   4.183   9.658 -0.1679 -1.9313  0.2194
  238MOL0     H31414   1.982   4.508   9.863 -1.9737 -0.4357 -0.9456
  238MOL0     H31415   2.005   4.021  10.192  4.2069 -0.0510 -1.5454
  238MOL0     H31416   1.769   3.980  10.241 -0.7264 -0.0609  0.0500
  239MOL0     O31417   5.910   4.765   4.515 -0.0580  0.2998 -0.1626
  239MOL0     C31418   5.910   4.844   4.609 -0.1570 -0.3227  0.0040
  239MOL0     O31419   5.801   4.875   4.694 -0.3003 -0.1105 -0.4610
  239MOL0     C31420   5.679   4.814   4.691  0.2700 -0.7419  0.2480
  239MOL0     C31421   5.629   4.711   4.609 -0.1340 -0.0331 -0.1018
  239MOL0     C31422   5.488   4.674   4.605  0.5592  0.1845 -0.5868
  239MOL0     C31423   5.400   4.744   4.687 -0.2119 -0.2892  1.2059
  239MOL0     O31424   5.274   4.703   4.691  0.0323  0.2577 -0.2269
  239MOL0     C31425   5.206   4.693   4.822 -0.5834 -0.3967  0.4238
  239MOL0     C31426   5.052   4.701   4.820 -0.2006  0.7748 -0.6684
  239MOL0     C31427   4.993   4.603   4.725 -0.7189  0.3470  0.3604
  239MOL0     C31428   4.850   4.633   4.700  0.5784 -0.6411  0.3540
  239MOL0     C31429   4.827   4.748   4.601 -0.4013  0.1504 -0.2223
  239MOL0     C31430   4.681   4.773   4.591 -0.5818 -0.4729 -0.8707
  239MOL0     C31431   4.645   4.883   4.494 -0.0258 -0.8913 -1.8191
  239MOL0     C31432   4.706   5.014   4.532 -0.1371 -0.4765 -0.8010
  239MOL0     N31433   4.657   5.070   4.661  1.0764  0.6739 -0.2948
  239MOL0     C31434   4.522   5.068   4.704 -0.2775 -0.4857  0.5788
  239MOL0     C31435   4.525   5.132   4.827  0.8641  0.9176 -0.3093
  239MOL0     C31436   4.404   5.178   4.919 -0.0632 -0.3818  0.0680
  239MOL0     C31437   4.328   5.066   4.981 -0.6027  0.2797 -0.5136
  239MOL0     C31438   4.193   5.120   5.032 -0.7612 -0.8557 -0.1715
  239MOL0     C31439   4.106   5.014   5.085  0.6089 -0.0133 -0.2607
  239MOL0     O31440   4.073   4.924   4.976  0.2593  0.2905  0.5422
  239MOL0     C31441   3.946   4.866   4.978  0.9464  0.1206 -0.1621
  239MOL0     C31442   3.927   4.753   5.050 -0.1614  1.3750  0.3283
  239MOL0     C31443   3.798   4.689   5.060 -0.6617 -0.0165  0.2830
  239MOL0     C31444   3.693   4.733   4.979 -0.0605 -0.3257  0.5261
  239MOL0     C31445   3.569   4.663   4.992  0.0253 -0.7262 -0.1493
  239MOL0     O31446   3.574   4.549   5.064  0.9495  0.3943 -0.2877
  239MOL0     C31447   3.457   4.479   5.060 -0.4464  1.0093 -0.3917
  239MOL0     C31448   3.401   4.415   4.947  0.3439  0.3459 -0.2516
  239MOL0     C31449   3.273   4.359   4.957 -0.6536  0.9482  0.3780
  239MOL0     C31450   3.201   4.357   5.076 -0.4739  0.9912 -1.3365
  239MOL0     O31451   3.076   4.302   5.092  0.8128 -0.0727  0.0589
  239MOL0     C31452   3.058   4.213   5.199 -0.4438 -0.7974 -0.2823
  239MOL0     C31453   2.958   4.117   5.148 -0.1996  0.7986 -0.1703
  239MOL0     C31454   2.826   4.185   5.115  0.5944 -0.8610 -0.1325
  239MOL0     C31455   2.728   4.089   5.042  0.3179  0.2905  0.7218
  239MOL0     C31456   2.587   4.148   5.037 -0.2939  0.0779  0.0761
  239MOL0     C31457   2.549   4.260   4.938 -0.1633  1.1723  0.2192
  239MOL0     C31458   2.473   4.375   5.001 -0.5045  0.2502  0.4692
  239MOL0     C31459   2.487   4.503   4.908  0.4313 -0.5889  0.1585
  239MOL0    Cl31460   2.378   4.634   4.958 -0.2679 -0.1392 -0.0325
  239MOL0     C31461   3.255   4.422   5.188  0.6282  0.8062 -0.4190
  239MOL0     C31462   3.386   4.480   5.180  0.0708  0.6634 -0.5688
  239MOL0     O31463   3.465   4.721   4.951  0.3802  0.7791  0.2551
  239MOL0     C31464   3.712   4.855   4.912  0.3889  0.0096  0.4811
  239MOL0     C31465   3.833   4.918   4.910 -0.3098 -0.1000 -0.8173
  239MOL0     N31466   4.656   5.148   4.860  0.0330  1.0379 -0.3694
  239MOL0     N31467   4.733   5.129   4.760  0.6890  0.6618  0.0564
  239MOL0     C31468   5.452   4.852   4.763  0.4017 -0.4632  0.5942
  239MOL0     C31469   5.585   4.889   4.761 -0.2355 -0.6347  0.0830
  239MOL0     C31470   6.027   4.928   4.642 -0.0816  0.1496  1.1763
  239MOL0     C31471   6.059   4.966   4.772  0.7749 -0.6086  1.1939
  239MOL0     C31472   6.157   5.060   4.790  0.1419  0.2691 -0.2672
  239MOL0     C31473   6.232   5.107   4.685 -0.5581 -0.5009 -0.0512
  239MOL0     O31474   6.328   5.195   4.726  0.3269 -0.6961  0.4592
  239MOL0     C31475   6.411   5.260   4.639 -0.6112  0.2112 -0.5880
  239MOL0     C31476   6.546   5.273   4.699  0.6499  0.5684  0.6437
  239MOL0     C31477   6.529   5.377   4.806 -0.0794 -0.2340  0.0760
  239MOL0     C31478   6.661   5.404   4.876  0.1681  0.2838 -0.5428
  239MOL0     C31479   6.650   5.508   4.975 -0.8254  0.7273  0.5659
  239MOL0     C31480   6.643   5.613   5.044  1.0852 -0.0193  1.2201
  239MOL0     C31481   6.197   5.069   4.555  0.1214  0.1728 -0.3603
  239MOL0     C31482   6.091   4.984   4.531 -0.1416 -0.4741 -0.4638
  239MOL0     H31483   5.694   4.665   4.535 -0.3122  0.1233 -0.3592
  239MOL0     H31484   5.445   4.594   4.546 -0.5470 -0.1689  0.6530
  239MOL0     H31485   5.240   4.771   4.891 -2.1450  1.8866 -1.2141
  239MOL0     H31486   5.236   4.597   4.863  2.0288 -0.8394 -2.1992
  239MOL0     H31487   5.025   4.805   4.797 -1.1422  0.5332 -0.6974
  239MOL0     H31488   5.007   4.680   4.917 -1.0782 -0.2732 -1.2719
  239MOL0     H31489   4.998   4.497   4.753 -4.2813 -0.2119 -0.6090
  239MOL0     H31490   5.045   4.610   4.629 -1.7483 -1.2197 -0.3529
  239MOL0     H31491   4.809   4.539   4.663  2.3179 -1.4602  0.3992
  239MOL0     H31492   4.810   4.634   4.801 -0.6452 -0.8037 -0.1084
  239MOL0     H31493   4.855   4.720   4.499  0.3229  1.0178 -0.2686
  239MOL0     H31494   4.884   4.831   4.643 -1.2365  1.1802 -1.0701
  239MOL0     H31495   4.639   4.796   4.690  1.7515 -0.7515  0.2608
  239MOL0     H31496   4.639   4.683   4.546  0.6195  0.1707 -3.4674
  239MOL0     H31497   4.679   4.867   4.391 -0.7697  1.5257 -2.4883
  239MOL0     H31498   4.536   4.891   4.495  0.0463  0.2984 -0.1321
  239MOL0     H31499   4.678   5.093   4.462 -0.2435 -0.2035 -0.4547
  239MOL0     H31500   4.815   5.019   4.538 -0.1520  0.6452 -1.1240
  239MOL0     H31501   4.431   5.038   4.653 -0.6327  0.9226  0.3262
  239MOL0     H31502   4.336   5.228   4.849  1.1028 -1.7487 -2.1646
  239MOL0     H31503   4.434   5.248   4.997  0.7899 -1.3326  0.6256
  239MOL0     H31504   4.392   5.030   5.062  0.2061  1.5334 -0.5652
  239MOL0     H31505   4.313   4.985   4.908  0.4168 -0.7643  0.3861
  239MOL0     H31506   4.215   5.188   5.114 -2.4778  1.3541 -1.4175
  239MOL0     H31507   4.155   5.168   4.941 -0.4307 -0.6999 -0.2315
  239MOL0     H31508   4.017   5.063   5.127  0.2725 -0.5271 -0.3722
  239MOL0     H31509   4.170   4.975   5.165  2.7734  1.8035 -0.9872
  239MOL0     H31510   4.005   4.717   5.116 -2.3557 -0.6838  1.9719
  239MOL0     H31511   3.802   4.597   5.116  2.1923  0.6176  1.2425
  239MOL0     H31512   3.458   4.404   4.855 -1.1674  1.1578 -1.3150
  239MOL0     H31513   3.230   4.311   4.870 -0.5306 -0.3450  1.0073
  239MOL0     H31514   3.036   4.261   5.295  5.0317  3.9914 -0.8493
  239MOL0     H31515   3.150   4.160   5.226  0.2568 -0.2813 -1.5574
  239MOL0     H31516   2.935   4.032   5.214  0.9950 -0.7279 -1.6302
  239MOL0     H31517   2.988   4.063   5.058 -2.1192 -1.3521  0.3633
  239MOL0     H31518   2.835   4.277   5.055 -1.2781  1.9852  3.5152
  239MOL0     H31519   2.785   4.222   5.210 -0.5209 -2.3177 -0.0054
  239MOL0     H31520   2.770   4.069   4.943  0.6671 -2.0582  1.2805
  239MOL0     H31521   2.718   3.993   5.093 -0.5452  0.3482  0.6706
  239MOL0     H31522   2.575   4.192   5.136 -0.0508  1.6334 -0.5700
  239MOL0     H31523   2.512   4.069   5.024 -2.2693  2.1123 -1.8946
  239MOL0     H31524   2.487   4.217   4.859 -0.2071 -1.0069  1.3746
  239MOL0     H31525   2.646   4.299   4.906  1.2592 -0.7775  1.8879
  239MOL0     H31526   2.370   4.341   4.994  0.3521 -2.3449 -1.0181
  239MOL0     H31527   2.505   4.400   5.102 -0.5512  1.1226  0.2722
  239MOL0     H31528   2.473   4.476   4.803 -0.2734 -0.9108  0.3375
  239MOL0     H31529   2.587   4.548   4.919 -0.6916  2.0664  0.3230
  239MOL0     H31530   3.188   4.439   5.271  1.1528  5.6082 -0.7065
  239MOL0     H31531   3.420   4.541   5.262  1.9041 -0.4200 -0.4674
  239MOL0     H31532   3.637   4.899   4.846  2.2178  4.2503  0.8687
  239MOL0     H31533   3.857   5.004   4.848  1.3304 -0.4373 -0.7058
  239MOL0     H31534   5.394   4.905   4.838  3.3389 -0.8994  3.4004
  239MOL0     H31535   5.621   4.980   4.808 -0.5382  0.3061 -1.4119
  239MOL0     H31536   5.994   4.918   4.845  1.6565 -2.5062  0.8043
  239MOL0     H31537   6.170   5.101   4.889 -0.9846 -1.9662  0.8932
  239MOL0     H31538   6.358   5.355   4.629  1.3382  1.3711 -0.3445
  239MOL0     H31539   6.412   5.211   4.541 -0.5294 -0.6048 -0.1817
  239MOL0     H31540   6.587   5.184   4.747  1.3620  1.8993  2.6015
  239MOL0     H31541   6.611   5.311   4.619 -3.3815  0.8640 -2.8737
  239MOL0     H31542   6.448   5.358   4.877 -0.0045  1.1714  0.5544
  239MOL0     H31543   6.494   5.467   4.755  2.8832 -0.5494 -2.8842
  239MOL0     H31544   6.681   5.306   4.920  1.3330 -0.6063 -2.8901
  239MOL0     H31545   6.734   5.437   4.801 -1.8899  0.8610 -2.4322
  239MOL0     H31546   6.638   5.694   5.113 -0.0856  1.1447 -0.1580
  239MOL0     H31547   6.257   5.109   4.473  2.0971 -2.5901 -0.4185
  239MOL0     H31548   6.071   4.957   4.428  2.0611 -0.6715 -0.9022
  240MOL0     O31549   6.237   5.092   4.135 -0.5267  0.6137 -0.2482
  240MOL0     C31550   6.215   5.043   4.028  0.7227 -0.0036  0.1396
  240MOL0     O31551   6.087   5.029   3.977  0.3166 -0.3048  0.0084
  240MOL0     C31552   5.981   5.048   4.054  1.0966  1.3872 -0.6329
  240MOL0     C31553   5.966   4.957   4.161 -0.1991  0.0032 -0.0068
  240MOL0     C31554   5.846   4.967   4.234  0.8404  0.1963  0.3699
  240MOL0     C31555   5.745   5.056   4.199 -0.2501  0.3988  0.5250
  240MOL0     O31556   5.622   5.070   4.249  1.0375  0.4901  0.2108
  240MOL0     C31557   5.577   4.966   4.340 -0.4784  0.3388 -0.0856
  240MOL0     C31558   5.433   4.976   4.392  0.3740 -0.0981  0.3058
  240MOL0     C31559   5.418   5.093   4.481  0.7925 -0.8311  0.2286
  240MOL0     C31560   5.267   5.088   4.524 -0.2251  0.9343  0.1627
  240MOL0     C31561   5.246   5.203   4.626  0.6404  0.3463  0.5424
  240MOL0     C31562   5.102   5.194   4.691 -0.3670 -0.1348  0.1315
  240MOL0     C31563   5.084   5.299   4.795  0.3269 -0.6073  0.2098
  240MOL0     C31564   5.161   5.253   4.928 -0.3856  0.6208  0.3041
  240MOL0     N31565   5.102   5.126   4.991 -0.3930 -0.5929  0.0901
  240MOL0     C31566   4.964   5.111   5.006 -0.1484  0.6891 -0.7781
  240MOL0     C31567   4.943   4.992   5.064 -0.0023 -0.2175 -0.2628
  240MOL0     C31568   4.813   4.914   5.092 -0.4618 -0.4745 -0.6612
  240MOL0     C31569   4.712   5.000   5.174 -0.4645  0.4162 -0.8666
  240MOL0     C31570   4.719   4.983   5.330 -0.0353 -0.7454 -0.1628
  240MOL0     C31571   4.854   4.979   5.395 -1.0541 -0.8510  0.2737
  240MOL0     O31572   4.913   4.845   5.412  0.0653  0.1418  0.1622
  240MOL0     C31573   5.050   4.830   5.400 -0.3769 -0.1831  0.3822
  240MOL0     C31574   5.146   4.938   5.417  0.1325  0.1535  0.5612
  240MOL0     C31575   5.279   4.923   5.376  0.2331  1.1304 -0.1242
  240MOL0     C31576   5.329   4.806   5.309  0.1417  0.2481  0.2548
  240MOL0     C31577   5.467   4.793   5.261 -0.1552 -0.2131  0.0802
  240MOL0     O31578   5.485   4.699   5.165  0.1822 -0.0823 -0.3481
  240MOL0     C31579   5.614   4.663   5.149 -0.0385 -0.1680 -0.2851
  240MOL0     C31580   5.660   4.690   5.020  0.0634 -0.0653  0.0013
  240MOL0     C31581   5.794   4.664   4.989 -0.6735 -0.1910 -0.0833
  240MOL0     C31582   5.879   4.601   5.074 -0.1976 -0.2711  0.2875
  240MOL0     O31583   6.002   4.563   5.016 -0.5086  0.3436  0.6609
  240MOL0     C31584   6.067   4.445   5.065 -0.9193  0.4490  0.0013
  240MOL0     C31585   6.174   4.411   4.959 -0.3654  0.2737  1.2094
  240MOL0     C31586   6.267   4.522   4.920  0.3471 -0.7649  0.2168
  240MOL0     C31587   6.328   4.592   5.040  0.7653  0.1787  0.0250
  240MOL0     C31588   6.456   4.673   5.008  0.0539 -0.4441 -0.4430
  240MOL0     C31589   6.425   4.816   4.938  0.1928 -0.1965 -0.3380
  240MOL0     C31590   6.549   4.896   4.892 -0.3270  0.0118  0.4683
  240MOL0     C31591   6.633   4.972   4.999 -0.6484 -0.2055 -0.5680
  240MOL0    Cl31592   6.770   5.041   4.912 -0.0915 -0.5030  0.2767
  240MOL0     C31593   5.838   4.573   5.200 -0.5640  0.2005  0.1041
  240MOL0     C31594   5.707   4.601   5.238 -0.1596 -0.4184 -0.5352
  240MOL0     O31595   5.556   4.860   5.318  0.1719  0.4897 -0.0762
  240MOL0     C31596   5.240   4.691   5.298  0.0673  0.2332  0.0868
  240MOL0     C31597   5.106   4.709   5.341  0.5906 -0.4624 -0.4960
  240MOL0     N31598   5.073   4.941   5.087  0.2344  0.1960 -0.0481
  240MOL0     N31599   5.168   5.022   5.040 -0.2545  0.0290 -0.1875
  240MOL0     C31600   5.770   5.144   4.101  0.5409 -0.2502  0.4765
  240MOL0     C31601   5.886   5.150   4.019 -0.2121  0.7828  0.6329
  240MOL0     C31602   6.327   4.997   3.950  0.3873 -0.7267 -0.3817
  240MOL0     C31603   6.465   5.003   3.999  0.1446 -0.2799  0.2787
  240MOL0     C31604   6.568   4.963   3.919 -0.2488 -0.5564 -0.1070
  240MOL0     C31605   6.535   4.911   3.791  0.0180  0.1708  0.6935
  240MOL0     O31606   6.638   4.886   3.707 -0.9953  0.4079  0.1210
  240MOL0     C31607   6.612   4.851   3.571 -1.0580 -0.3407  0.1746
  240MOL0     C31608   6.636   4.978   3.492 -0.0990 -0.4183  0.2174
  240MOL0     C31609   6.780   5.031   3.509  0.8020  0.0743 -0.4135
  240MOL0     C31610   6.814   5.135   3.401 -0.5641 -0.0210 -0.9843
  240MOL0     C31611   6.944   5.211   3.428  1.0246 -0.8449 -0.6851
  240MOL0     C31612   7.049   5.276   3.450  0.4169  0.8579  0.7286
  240MOL0     C31613   6.400   4.912   3.751 -0.6139 -0.8236 -0.4426
  240MOL0     C31614   6.301   4.942   3.832 -0.2983 -0.8270 -0.0521
  240MOL0     H31615   6.049   4.890   4.182  0.3298  0.7460  0.3508
  240MOL0     H31616   5.821   4.897   4.313 -2.7579  0.4118 -0.3960
  240MOL0     H31617   5.644   4.959   4.426  0.3219  0.1743 -0.7113
  240MOL0     H31618   5.595   4.868   4.294 -1.0590 -0.7994  1.9261
  240MOL0     H31619   5.407   4.882   4.442  0.1915 -0.9067 -1.2591
  240MOL0     H31620   5.375   4.985   4.300  0.9684 -1.8654 -0.2948
  240MOL0     H31621   5.431   5.188   4.427  1.3668 -2.5016 -2.8370
  240MOL0     H31622   5.490   5.110   4.562 -0.6376  1.2751  1.1488
  240MOL0     H31623   5.198   5.105   4.441 -0.4445 -2.2566 -0.4338
  240MOL0     H31624   5.229   4.997   4.571 -0.9185 -0.5261 -3.0304
  240MOL0     H31625   5.257   5.301   4.577  2.2847  0.2747  0.7161
  240MOL0     H31626   5.317   5.194   4.708  2.3417  1.3706 -0.7548
  240MOL0     H31627   5.100   5.097   4.742  1.6495  0.9159  2.3572
  240MOL0     H31628   5.015   5.202   4.625 -1.5771  3.6556  1.9479
  240MOL0     H31629   5.128   5.394   4.762 -0.0110 -0.3559  0.4748
  240MOL0     H31630   4.980   5.312   4.825  0.2496  1.1200 -0.6398
  240MOL0     H31631   5.181   5.332   5.001 -1.4432  1.9623 -0.7927
  240MOL0     H31632   5.261   5.223   4.895 -0.2505  1.6664 -0.2838
  240MOL0     H31633   4.893   5.185   4.969  0.8121  1.9376 -0.2376
  240MOL0     H31634   4.841   4.829   5.154 -0.7517  1.1537  1.8340
  240MOL0     H31635   4.776   4.873   4.998 -2.2305 -0.5832  0.0447
  240MOL0     H31636   4.611   4.974   5.139 -1.8034  3.4211  0.3975
  240MOL0     H31637   4.720   5.108   5.154  1.5326  0.6307  0.8129
  240MOL0     H31638   4.660   5.062   5.378  0.9232 -1.2287  1.9022
  240MOL0     H31639   4.675   4.889   5.366  0.8167 -1.4860 -1.0265
  240MOL0     H31640   4.846   5.032   5.490  1.1458 -0.8220  0.4918
  240MOL0     H31641   4.914   5.030   5.319 -0.0352  0.5827  1.9690
  240MOL0     H31642   5.116   5.038   5.446  1.1839  0.8438 -0.6128
  240MOL0     H31643   5.348   5.005   5.395  0.8510  0.3025  1.3063
  240MOL0     H31644   5.591   4.745   4.957  2.4846  1.5332 -1.4589
  240MOL0     H31645   5.833   4.683   4.889  1.6077 -0.6204  0.6613
  240MOL0     H31646   5.991   4.368   5.085 -0.3230  0.2983  1.9905
  240MOL0     H31647   6.109   4.463   5.165  0.0706 -2.2473  0.1468
  240MOL0     H31648   6.115   4.381   4.871  0.4818  0.7693  0.4592
  240MOL0     H31649   6.225   4.318   4.986  4.6915  1.7955 -1.7550
  240MOL0     H31650   6.223   4.588   4.844 -0.3470 -2.0627 -0.5432
  240MOL0     H31651   6.349   4.474   4.866  1.3246  1.2890 -0.2541
  240MOL0     H31652   6.257   4.655   5.094  1.0555 -0.2421  0.9175
  240MOL0     H31653   6.349   4.509   5.107  0.0385 -0.2115 -0.2104
  240MOL0     H31654   6.515   4.612   4.939  0.5657  1.1821 -1.5051
  240MOL0     H31655   6.498   4.694   5.106  1.0205 -0.0357 -0.9358
  240MOL0     H31656   6.383   4.879   5.016 -2.2897  0.5923 -2.1753
  240MOL0     H31657   6.361   4.811   4.849  0.8502 -5.1929 -0.8245
  240MOL0     H31658   6.619   4.835   4.834  0.0611  1.0372 -0.1779
  240MOL0     H31659   6.526   4.969   4.814  5.0745 -0.7981 -2.3596
  240MOL0     H31660   6.666   4.913   5.085 -1.9650  1.7790  1.4099
  240MOL0     H31661   6.577   5.054   5.044  0.1790 -0.1479  0.3846
  240MOL0     H31662   5.914   4.534   5.267 -1.0443 -2.1588 -0.6365
  240MOL0     H31663   5.680   4.585   5.342 -0.7375  2.9060 -0.0807
  240MOL0     H31664   5.267   4.591   5.263 -0.1503  0.5189 -0.9188
  240MOL0     H31665   5.042   4.625   5.316  0.1208 -0.6366  1.1591
  240MOL0     H31666   5.684   5.203   4.068  1.7330  0.8489 -0.8003
  240MOL0     H31667   5.895   5.218   3.935 -2.2924  0.9274  0.4761
  240MOL0     H31668   6.480   5.026   4.104 -3.1333 -1.4370  1.1506
  240MOL0     H31669   6.670   4.988   3.944 -1.1797  2.8832  0.6928
  240MOL0     H31670   6.509   4.816   3.558 -0.4232 -2.3278  0.2120
  240MOL0     H31671   6.676   4.770   3.534 -1.1044  0.0726 -0.8733
  240MOL0     H31672   6.609   4.961   3.387 -1.5581 -2.0113  0.8228
  240MOL0     H31673   6.559   5.049   3.521 -0.2666 -0.9662  1.1197
  240MOL0     H31674   6.850   4.948   3.497 -1.9772 -2.5387  0.1890
  240MOL0     H31675   6.783   5.086   3.604 -2.0174  2.0169 -1.3081
  240MOL0     H31676   6.832   5.084   3.306 -0.2218 -1.2311 -0.2945
  240MOL0     H31677   6.727   5.199   3.388  0.9612  1.9196 -2.0795
  240MOL0     H31678   7.124   5.352   3.458  2.3581 -0.4031 -3.0835
  240MOL0     H31679   6.359   4.879   3.656 -2.8757  1.2205 -0.2950
  240MOL0     H31680   6.206   4.951   3.782  0.1468  0.5029 -0.6948
  241MOL0     O31681   3.687  11.259   2.064 -0.4153 -0.2993 -0.3158
  241MOL0     C31682   3.679  11.365   1.998  0.0582  0.5355  1.3017
  241MOL0     O31683   3.565  11.414   1.933 -0.1995  0.3996 -0.3717
  241MOL0     C31684   3.451  11.352   1.974  0.5435  0.4574 -0.9950
  241MOL0     C31685   3.347  11.336   1.884 -0.7032  0.0824  0.0096
  241MOL0     C31686   3.223  11.293   1.912  0.7891  0.2060  0.5136
  241MOL0     C31687   3.190  11.249   2.039 -0.5486  0.0817 -0.3094
  241MOL0     O31688   3.066  11.195   2.058  0.7301 -1.1762 -0.3451
  241MOL0     C31689   3.015  11.160   2.191 -0.0926  0.2253 -0.3179
  241MOL0     C31690   2.866  11.129   2.189 -0.0606 -0.8376  0.0477
  241MOL0     C31691   2.832  11.099   2.336 -0.6596 -0.3689  0.6607
  241MOL0     C31692   2.691  11.042   2.366  0.4234 -1.0014  0.2363
  241MOL0     C31693   2.697  10.888   2.346  0.1746  0.5949 -0.8345
  241MOL0     C31694   2.557  10.829   2.396 -1.0041  0.5769  0.0164
  241MOL0     C31695   2.567  10.670   2.379  0.2983  0.6399 -0.2289
  241MOL0     C31696   2.450  10.598   2.453 -0.0982 -0.6526 -1.3991
  241MOL0     N31697   2.482  10.457   2.475 -0.0658 -1.0055  0.2984
  241MOL0     C31698   2.483  10.394   2.602 -1.0844 -0.1805  0.1559
  241MOL0     C31699   2.496  10.260   2.575 -0.3220 -0.0904  0.1263
  241MOL0     C31700   2.480  10.140   2.683  0.0505  0.0828  0.3802
  241MOL0     C31701   2.330  10.090   2.683 -0.4961 -0.0408  0.6810
  241MOL0     C31702   2.299  10.030   2.547  0.2544  0.0360  0.4918
  241MOL0     C31703   2.176   9.934   2.560  0.5857 -0.8175 -0.5543
  241MOL0     O31704   2.075  10.009   2.631  0.2939  0.3710 -0.8224
  241MOL0     C31705   1.944   9.966   2.617  0.0688 -0.3775 -0.7970
  241MOL0     C31706   1.898   9.847   2.562 -0.1227  0.0110 -0.0701
  241MOL0     C31707   1.766   9.800   2.564 -0.5563 -0.2072  0.1367
  241MOL0     C31708   1.667   9.879   2.621 -0.3150  0.5652 -0.6605
  241MOL0     C31709   1.524   9.848   2.613  0.0725  0.2828 -0.1530
  241MOL0     O31710   1.442   9.947   2.668 -0.0895 -0.0459  1.2173
  241MOL0     C31711   1.307   9.937   2.660 -0.0225  0.3182  0.6904
  241MOL0     C31712   1.255   9.869   2.768  0.5893  1.3962 -0.0299
  241MOL0     C31713   1.114   9.835   2.778 -0.0467 -0.2281 -0.0853
  241MOL0     C31714   1.027   9.875   2.679 -0.5841  0.2382  0.3748
  241MOL0     O31715   0.894   9.834   2.674 -0.2960 -0.3766 -0.0662
  241MOL0     C31716   0.779   9.918   2.649  0.9211 -0.5990  0.4117
  241MOL0     C31717   0.749   9.988   2.780  0.1321  0.1430 -0.7916
  241MOL0     C31718   0.626  10.069   2.768  0.4446  0.3642 -0.2454
  241MOL0     C31719   0.601  10.168   2.884 -0.2495 -0.1889 -0.1939
  241MOL0     C31720   0.462  10.238   2.875  1.1917 -0.5179 -0.0358
  241MOL0     C31721   0.335  10.156   2.850  0.5519  0.4258  0.1674
  241MOL0     C31722   0.320  10.054   2.968 -0.0880 -0.0454 -0.0027
  241MOL0     C31723   0.202   9.955   2.948 -0.3023  0.4163  0.8272
  241MOL0    Cl31724   0.049  10.037   2.920  0.0620 -0.2511  0.2242
  241MOL0     C31725   1.078   9.956   2.575 -0.7969  0.1969  0.1285
  241MOL0     C31726   1.217   9.991   2.561  0.1142 -0.4015 -0.5564
  241MOL0     O31727   1.484   9.739   2.555 -0.3142 -0.2375  0.1935
  241MOL0     C31728   1.712   9.997   2.680  0.1902  0.4276 -0.3919
  241MOL0     C31729   1.845  10.045   2.677  0.1467  0.2651  0.3085
  241MOL0     N31730   2.491  10.246   2.435  0.6744  0.6350 -0.4358
  241MOL0     N31731   2.482  10.359   2.376 -0.6015 -0.2238 -0.0729
  241MOL0     C31732   3.289  11.269   2.141 -0.2175  0.3041 -0.5472
  241MOL0     C31733   3.416  11.323   2.113 -0.0612  1.1193  0.5902
  241MOL0     C31734   3.810  11.432   1.974  0.8700 -0.5249  0.1658
  241MOL0     C31735   3.929  11.385   2.031  0.2888  0.3072  0.4280
  241MOL0     C31736   4.054  11.429   1.990 -0.1225  0.3964  0.4127
  241MOL0     C31737   4.060  11.527   1.886  0.4031  0.0973 -0.1097
  241MOL0     O31738   4.184  11.571   1.839 -0.1227 -0.4804  0.0966
  241MOL0     C31739   4.298  11.500   1.863 -0.8932 -0.2434 -0.3888
  241MOL0     C31740   4.403  11.556   1.766  0.2902  0.8098  0.3553
  241MOL0     C31741   4.446  11.696   1.787  0.1835 -0.2804  0.2694
  241MOL0     C31742   4.510  11.730   1.918  0.7384 -0.4237 -0.4678
  241MOL0     C31743   4.620  11.650   1.980  0.4395  0.3465  0.1206
  241MOL0     C31744   4.715  11.587   2.013 -0.3925  0.6671 -0.1594
  241MOL0     C31745   3.940  11.587   1.841 -0.2439 -0.1311  0.6656
  241MOL0     C31746   3.817  11.537   1.881 -0.2004  0.0251 -1.1820
  241MOL0     H31747   3.379  11.359   1.783  1.1592  1.6013  0.8716
  241MOL0     H31748   3.142  11.297   1.840 -0.0921 -1.9599  1.2967
  241MOL0     H31749   3.035  11.238   2.265 -0.0270 -0.8153  0.7969
  241MOL0     H31750   3.076  11.073   2.216  1.9602  1.5303 -0.5592
  241MOL0     H31751   2.848  11.050   2.115 -0.5568  0.2592 -1.0450
  241MOL0     H31752   2.800  11.211   2.162 -0.9835 -1.7878 -0.6938
  241MOL0     H31753   2.844  11.183   2.405  0.2978 -0.8075  1.0391
  241MOL0     H31754   2.908  11.031   2.374  0.8741  2.8274  3.9547
  241MOL0     H31755   2.671  11.065   2.471  1.8356 -0.5865  0.4319
  241MOL0     H31756   2.613  11.096   2.313  1.2559  1.5366  1.4154
  241MOL0     H31757   2.784  10.848   2.398 -1.5079 -0.1278  1.6344
  241MOL0     H31758   2.697  10.865   2.239 -2.5146  1.0823 -1.0103
  241MOL0     H31759   2.476  10.879   2.343  0.0729  0.8996 -1.3833
  241MOL0     H31760   2.542  10.849   2.503  1.8338  0.5271  0.5197
  241MOL0     H31761   2.563  10.639   2.274  1.0649 -2.1715  0.4741
  241MOL0     H31762   2.664  10.639   2.419  0.3633  1.3006  0.1377
  241MOL0     H31763   2.364  10.600   2.387  0.0804 -1.1541 -1.6524
  241MOL0     H31764   2.433  10.639   2.554 -1.1912 -0.5800 -1.6069
  241MOL0     H31765   2.482  10.432   2.704  0.0303 -2.4153  1.0767
  241MOL0     H31766   2.519  10.166   2.782  0.0496 -0.5968  0.5655
  241MOL0     H31767   2.538  10.049   2.666 -1.1961 -1.0975  2.0141
  241MOL0     H31768   2.262  10.170   2.712 -1.6447  0.1199 -2.1111
  241MOL0     H31769   2.308  10.014   2.759  0.6569 -1.6170 -0.5001
  241MOL0     H31770   2.281  10.106   2.469  1.3412  0.0438  0.2391
  241MOL0     H31771   2.389   9.983   2.507  1.3773  0.1625  2.7207
  241MOL0     H31772   2.203   9.851   2.627  3.0658  1.3627  1.3402
  241MOL0     H31773   2.138   9.894   2.465  0.6132 -1.8470 -0.1549
  241MOL0     H31774   1.968   9.780   2.512 -0.6683 -0.5648 -0.0824
  241MOL0     H31775   1.744   9.711   2.505 -1.6041  0.2913 -0.2607
  241MOL0     H31776   1.318   9.822   2.842 -0.6047 -1.0958 -0.4980
  241MOL0     H31777   1.079   9.765   2.854 -1.5625  0.2729 -0.2894
  241MOL0     H31778   0.693   9.858   2.620  0.6086  1.1432 -2.7656
  241MOL0     H31779   0.787   9.990   2.567 -1.7162  0.2730  0.8485
  241MOL0     H31780   0.835  10.054   2.795  0.2902  0.2075 -1.8797
  241MOL0     H31781   0.748   9.916   2.863 -3.0640  0.8955 -0.0329
  241MOL0     H31782   0.549   9.991   2.763  0.0510  0.7591 -0.3851
  241MOL0     H31783   0.625  10.128   2.676 -1.9734 -1.5093 -1.5595
  241MOL0     H31784   0.608  10.116   2.980 -0.5424 -1.1154 -0.6658
  241MOL0     H31785   0.672  10.251   2.889 -2.5880  1.8700  1.1368
  241MOL0     H31786   0.473  10.320   2.803 -0.8210 -0.7057 -0.6227
  241MOL0     H31787   0.444  10.295   2.967  3.0268 -0.6107  0.4236
  241MOL0     H31788   0.353  10.088   2.766 -1.6241 -3.5360  2.5898
  241MOL0     H31789   0.249  10.223   2.848  0.4422  0.4209  2.2678
  241MOL0     H31790   0.414  10.002   2.989  1.8081  3.1269 -0.0432
  241MOL0     H31791   0.289  10.115   3.054  0.2515  0.8419 -0.4976
  241MOL0     H31792   0.196   9.885   3.032 -1.3288  1.4636  1.6600
  241MOL0     H31793   0.219   9.905   2.853  0.1185  1.1241  0.5193
  241MOL0     H31794   1.019   9.987   2.490  0.5157  1.2189 -0.4563
  241MOL0     H31795   1.232  10.068   2.487 -1.1610  0.3271 -0.0952
  241MOL0     H31796   1.639  10.058   2.732 -1.4046 -1.9993  0.3992
  241MOL0     H31797   1.872  10.140   2.720  2.7877  0.3124 -1.2530
  241MOL0     H31798   3.265  11.240   2.243 -1.4545 -1.5826 -1.3133
  241MOL0     H31799   3.481  11.341   2.198  4.2029 -5.0036 -0.7567
  241MOL0     H31800   3.925  11.313   2.112  1.3510  1.3837  1.4634
  241MOL0     H31801   4.137  11.383   2.043 -0.5808  1.5227  2.2078
  241MOL0     H31802   4.285  11.392   1.849 -2.8028  0.0652 -1.3198
  241MOL0     H31803   4.322  11.520   1.968  1.1813 -0.5430 -0.7732
  241MOL0     H31804   4.497  11.504   1.790 -0.1978  0.5594  1.8685
  241MOL0     H31805   4.373  11.529   1.665  0.5568 -1.1497  0.7603
  241MOL0     H31806   4.364  11.768   1.777  2.5213  2.2123 -4.6441
  241MOL0     H31807   4.520  11.718   1.710  1.3722 -1.5406  0.9990
  241MOL0     H31808   4.554  11.827   1.891  1.6072  0.3208  3.0660
  241MOL0     H31809   4.439  11.739   2.000  1.2377 -1.5491  0.1089
  241MOL0     H31810   4.801  11.536   2.049  0.2762  0.8904 -1.3790
  241MOL0     H31811   3.939  11.659   1.759 -1.7541 -0.7250  0.1358
  241MOL0     H31812   3.723  11.572   1.840 -1.1798 -1.6701 -0.5111
  242MOL0     O31813   6.837   3.194   8.241 -0.0376 -0.1850 -1.4128
  242MOL0     C31814   6.827   3.134   8.340 -0.6868  0.7021 -1.0522
  242MOL0     O31815   6.722   3.114   8.414  0.7773  0.2948 -0.4327
  242MOL0     C31816   6.607   3.186   8.383 -0.1730 -0.8665 -0.0033
  242MOL0     C31817   6.547   3.212   8.259 -0.1772  0.6162 -0.6800
  242MOL0     C31818   6.442   3.311   8.241  0.4779 -0.6915 -0.5076
  242MOL0     C31819   6.377   3.367   8.357  0.0320  0.2530  0.5361
  242MOL0     O31820   6.270   3.451   8.345  0.2965 -0.0886  0.6330
  242MOL0     C31821   6.154   3.406   8.414 -1.0483  0.5106  0.4160
  242MOL0     C31822   6.022   3.461   8.364  0.4212 -0.0741  0.8587
  242MOL0     C31823   5.901   3.377   8.408 -1.0608  0.0952  0.5727
  242MOL0     C31824   5.874   3.261   8.316 -0.3231  0.4564  0.0276
  242MOL0     C31825   5.745   3.183   8.348 -0.2862  0.5165  0.2980
  242MOL0     C31826   5.619   3.264   8.316  0.6171  0.1482 -0.1970
  242MOL0     C31827   5.612   3.343   8.188 -0.8280  0.4334  0.5001
  242MOL0     C31828   5.625   3.257   8.060 -0.6050 -0.6029  1.1948
  242MOL0     N31829   5.760   3.248   8.006  0.8757  0.3162  0.2893
  242MOL0     C31830   5.830   3.134   7.964  0.3462 -1.2383  0.0747
  242MOL0     C31831   5.937   3.168   7.892  0.0788  0.0957  0.4743
  242MOL0     C31832   6.041   3.083   7.820  0.5402  0.1042  0.2978
  242MOL0     C31833   6.180   3.106   7.879 -0.4213  0.9027  0.2394
  242MOL0     C31834   6.288   3.053   7.777  0.6048 -0.8467 -0.0283
  242MOL0     C31835   6.418   3.042   7.840 -1.0398  0.3951 -0.0918
  242MOL0     O31836   6.408   2.954   7.956 -0.1174 -0.2471 -0.4237
  242MOL0     C31837   6.516   2.891   7.996  0.8965  0.0941  1.1032
  242MOL0     C31838   6.505   2.754   8.011  0.3300 -1.0943 -0.5188
  242MOL0     C31839   6.620   2.678   8.032 -1.4097 -0.0800  0.3835
  242MOL0     C31840   6.749   2.738   8.050  0.3528  0.5397 -0.1927
  242MOL0     C31841   6.866   2.660   8.080 -1.3734  0.0305 -0.1446
  242MOL0     O31842   6.984   2.711   8.036 -0.3914  0.4526 -0.4916
  242MOL0     C31843   7.097   2.642   8.066 -0.6651 -0.1024  0.3094
  242MOL0     C31844   7.127   2.514   8.021 -0.0356  0.0349  0.2499
  242MOL0     C31845   7.237   2.444   8.061 -0.0514 -0.4246 -0.1278
  242MOL0     C31846   7.327   2.497   8.150 -0.4853  0.3450 -0.3131
  242MOL0     O31847   7.434   2.418   8.192  0.2684 -0.1698  0.5477
  242MOL0     C31848   7.539   2.474   8.278 -0.0595  0.3653  0.9177
  242MOL0     C31849   7.667   2.393   8.274 -0.2481  0.1540 -0.0519
  242MOL0     C31850   7.787   2.465   8.336 -0.5025 -0.0010  0.7021
  242MOL0     C31851   7.919   2.389   8.304 -0.2006  0.5674  0.1756
  242MOL0     C31852   7.929   2.254   8.373 -0.3448  0.7149 -0.2245
  242MOL0     C31853   8.062   2.187   8.322  0.1639  0.4862 -0.3390
  242MOL0     C31854   8.181   2.238   8.403  0.1636 -0.4459 -0.5428
  242MOL0     C31855   8.311   2.166   8.377  0.1605 -0.0866  0.3274
  242MOL0    Cl31856   8.368   2.179   8.220 -0.3845 -0.1596  0.1807
  242MOL0     C31857   7.295   2.616   8.214 -0.8380  0.1143  0.6413
  242MOL0     C31858   7.179   2.685   8.175 -0.3311  0.7018  0.7437
  242MOL0     O31859   6.858   2.555   8.146  0.2046 -0.0386  0.1395
  242MOL0     C31860   6.749   2.876   8.035  0.5308 -0.6357 -0.1500
  242MOL0     C31861   6.638   2.949   7.998  0.7203 -0.4549  0.1321
  242MOL0     N31862   5.924   3.304   7.876 -0.0770  0.3260  0.6200
  242MOL0     N31863   5.828   3.353   7.945  0.4755 -0.3945 -0.3559
  242MOL0     C31864   6.436   3.341   8.481 -0.4758  0.0072  0.0947
  242MOL0     C31865   6.548   3.257   8.486  0.0994 -0.4943 -0.5451
  242MOL0     C31866   6.949   3.051   8.393  0.0405  0.1058  0.9452
  242MOL0     C31867   6.963   2.991   8.518  0.0215 -0.4191 -1.0362
  242MOL0     C31868   7.082   2.928   8.555 -0.4579  0.0847  0.5040
  242MOL0     C31869   7.187   2.923   8.456 -0.3551  0.0297  0.4415
  242MOL0     O31870   7.305   2.858   8.475 -0.2403 -0.0792 -0.3695
  242MOL0     C31871   7.364   2.847   8.606 -0.9249 -0.6971 -0.1434
  242MOL0     C31872   7.498   2.772   8.578 -0.8005  0.0194  0.0620
  242MOL0     C31873   7.592   2.759   8.699  0.6006 -0.2238  0.5138
  242MOL0     C31874   7.716   2.684   8.663  0.2346  0.8069  0.3602
  242MOL0     C31875   7.815   2.707   8.761 -0.8580 -0.5974  0.3301
  242MOL0     C31876   7.886   2.724   8.858 -0.6968  0.1922 -0.1229
  242MOL0     C31877   7.178   2.985   8.336  0.0611 -0.3233  0.1405
  242MOL0     C31878   7.058   3.041   8.300 -0.1546 -1.0170 -0.0369
  242MOL0     H31879   6.584   3.176   8.163 -0.2281 -0.2583 -0.3720
  242MOL0     H31880   6.409   3.343   8.143  1.5682  1.5469 -0.2054
  242MOL0     H31881   6.158   3.437   8.519  0.7125  1.5114  0.0933
  242MOL0     H31882   6.152   3.297   8.405  3.2788  0.1607  1.3240
  242MOL0     H31883   6.018   3.472   8.255 -4.9126  2.0705  1.0011
  242MOL0     H31884   6.010   3.560   8.407  1.1701  0.9552 -1.1759
  242MOL0     H31885   5.818   3.444   8.432 -1.2699 -0.4161  1.3421
  242MOL0     H31886   5.935   3.337   8.505  0.9924  0.2280 -0.0478
  242MOL0     H31887   5.881   3.301   8.214  0.5292  0.9440  0.2640
  242MOL0     H31888   5.957   3.190   8.321  1.5882  2.2404 -3.1666
  242MOL0     H31889   5.737   3.148   8.452 -1.4310 -1.5608 -0.4275
  242MOL0     H31890   5.739   3.094   8.285 -0.7347 -1.1884  2.6227
  242MOL0     H31891   5.617   3.345   8.390 -4.1194  0.8933 -0.8188
  242MOL0     H31892   5.524   3.213   8.332  1.1426 -0.9976 -0.6328
  242MOL0     H31893   5.514   3.390   8.195 -1.3380 -0.5527  0.0780
  242MOL0     H31894   5.688   3.422   8.194 -0.5343  0.1731  0.2361
  242MOL0     H31895   5.561   3.301   7.983  0.1374  0.1189  0.9897
  242MOL0     H31896   5.596   3.152   8.077 -0.7047 -0.5653  1.2581
  242MOL0     H31897   5.806   3.030   7.985  2.6642 -1.9718 -0.5841
  242MOL0     H31898   6.045   3.121   7.718  1.8221 -0.7029  0.0221
  242MOL0     H31899   6.030   2.975   7.835 -0.9860  0.5386  2.9676
  242MOL0     H31900   6.202   3.059   7.975  3.7702  2.8906  0.4553
  242MOL0     H31901   6.205   3.211   7.895 -0.0885  0.6897  1.2050
  242MOL0     H31902   6.244   2.960   7.739 -3.1516  0.3719  0.8278
  242MOL0     H31903   6.295   3.119   7.690 -3.9760 -2.9911 -2.4136
  242MOL0     H31904   6.456   3.137   7.878 -1.6258  1.2983 -1.7184
  242MOL0     H31905   6.491   2.999   7.771 -1.1257 -0.2190  0.1907
  242MOL0     H31906   6.413   2.699   7.999 -0.1412 -0.2748 -0.7345
  242MOL0     H31907   6.604   2.571   8.039  0.3953 -0.5375 -1.5030
  242MOL0     H31908   7.054   2.463   7.960 -0.9535 -0.0017  1.3451
  242MOL0     H31909   7.249   2.345   8.018  0.3427 -0.2723 -0.3700
  242MOL0     H31910   7.515   2.497   8.382 -1.4996  0.9226  0.4793
  242MOL0     H31911   7.573   2.571   8.240  1.9703 -0.3668  0.6971
  242MOL0     H31912   7.694   2.368   8.171  1.9420 -0.0321  0.5127
  242MOL0     H31913   7.653   2.299   8.328 -3.7159 -0.4266 -1.6820
  242MOL0     H31914   7.770   2.481   8.443 -3.3870  1.2962  0.1527
  242MOL0     H31915   7.794   2.567   8.298 -5.8662 -0.2335 -1.8558
  242MOL0     H31916   7.925   2.382   8.195  2.4467 -1.2062  0.3344
  242MOL0     H31917   7.999   2.456   8.335 -0.5707  0.7419  0.7747
  242MOL0     H31918   7.847   2.182   8.360 -0.7570  0.7140  2.0612
  242MOL0     H31919   7.928   2.266   8.481 -2.2899 -2.5982  0.2464
  242MOL0     H31920   8.083   2.191   8.215  0.2752  0.3438 -0.3215
  242MOL0     H31921   8.059   2.086   8.364 -1.6756  0.9926  0.8887
  242MOL0     H31922   8.210   2.344   8.394 -0.7427  0.0465  1.8161
  242MOL0     H31923   8.159   2.213   8.507  1.3778  0.1719 -0.1182
  242MOL0     H31924   8.293   2.059   8.391 -0.4421 -0.1007 -0.4844
  242MOL0     H31925   8.387   2.206   8.445  0.3224  0.1198  0.0257
  242MOL0     H31926   7.364   2.658   8.286  0.2692  1.3081 -1.0414
  242MOL0     H31927   7.155   2.774   8.232 -1.0195  0.6660  0.5107
  242MOL0     H31928   6.841   2.927   8.065  0.7454 -0.4947 -1.0213
  242MOL0     H31929   6.643   3.058   8.001  0.1605 -0.3338 -2.0073
  242MOL0     H31930   6.395   3.375   8.575 -1.6427 -0.2656 -0.3014
  242MOL0     H31931   6.591   3.244   8.585 -2.3648  2.6227  1.1074
  242MOL0     H31932   6.887   3.008   8.593  0.6990 -1.6935 -0.0127
  242MOL0     H31933   7.092   2.882   8.653 -0.4573 -1.0721 -0.0268
  242MOL0     H31934   7.301   2.782   8.667 -0.9853  1.0770  1.8285
  242MOL0     H31935   7.381   2.950   8.640 -0.4862 -0.9021  0.2692
  242MOL0     H31936   7.468   2.671   8.551 -0.9630  0.4671 -1.4807
  242MOL0     H31937   7.555   2.825   8.501  1.6378 -0.3195  1.5133
  242MOL0     H31938   7.532   2.699   8.768  1.6664 -1.6125  0.2911
  242MOL0     H31939   7.612   2.860   8.736  1.5097  0.1284 -0.8911
  242MOL0     H31940   7.696   2.576   8.660 -0.1354  0.8465 -2.7378
  242MOL0     H31941   7.748   2.711   8.561 -0.6020 -0.8487 -0.3711
  242MOL0     H31942   7.944   2.713   8.947  0.7019  0.5821 -0.9485
  242MOL0     H31943   7.257   2.985   8.262 -1.0867 -0.5288 -1.1255
  242MOL0     H31944   7.054   3.084   8.200 -0.4228 -2.4099 -0.6410
  243MOL0     O31945   3.424   2.483   2.625  0.2681 -1.1724  0.6232
  243MOL0     C31946   3.393   2.419   2.719  0.9032  0.1670 -0.1768
  243MOL0     O31947   3.259   2.400   2.759 -0.4833 -0.0913  0.3856
  243MOL0     C31948   3.160   2.469   2.691 -0.1043  0.3369  0.0821
  243MOL0     C31949   3.040   2.401   2.665 -1.0290  0.3685 -0.1932
  243MOL0     C31950   2.931   2.455   2.596 -0.4724  0.5355 -0.2795
  243MOL0     C31951   2.938   2.592   2.562  0.3634  0.3924  0.6323
  243MOL0     O31952   2.823   2.662   2.511 -0.5762 -0.0547 -0.8506
  243MOL0     C31953   2.854   2.780   2.438 -0.4083 -0.0463  0.1433
  243MOL0     C31954   2.719   2.850   2.401 -0.2502 -0.1531 -0.2897
  243MOL0     C31955   2.650   2.921   2.524 -0.5178  0.1740 -0.2918
  243MOL0     C31956   2.533   3.011   2.489  0.6226  0.7606  0.2553
  243MOL0     C31957   2.395   2.981   2.561 -0.2264 -0.2147  1.0076
  243MOL0     C31958   2.360   2.827   2.544 -1.2225  0.8584 -0.1158
  243MOL0     C31959   2.222   2.788   2.600  0.4806  0.1755  0.0132
  243MOL0     C31960   2.116   2.794   2.490 -0.3844  0.7980 -0.5486
  243MOL0     N31961   1.974   2.780   2.535 -0.7977 -1.4566 -0.4053
  243MOL0     C31962   1.914   2.673   2.590  0.1930 -0.9294 -0.2355
  243MOL0     C31963   1.788   2.699   2.614 -0.4968 -0.5992 -0.4909
  243MOL0     C31964   1.685   2.603   2.673  0.2285 -0.8756  0.3530
  243MOL0     C31965   1.580   2.557   2.569  0.7508  0.3172  0.6274
  243MOL0     C31966   1.477   2.462   2.629 -0.9728  0.3886 -0.1367
  243MOL0     C31967   1.382   2.543   2.712  0.6802  0.6812  0.5466
  243MOL0     O31968   1.285   2.448   2.762 -0.1804 -0.3058 -0.1479
  243MOL0     C31969   1.154   2.478   2.795 -0.5458 -0.0823  0.4790
  243MOL0     C31970   1.094   2.603   2.768  0.3998  0.2105  0.6262
  243MOL0     C31971   0.956   2.618   2.798  0.5767  0.1506  0.0426
  243MOL0     C31972   0.881   2.511   2.845  0.1753 -0.7779 -0.3671
  243MOL0     C31973   0.737   2.533   2.867 -0.1181  0.4522  0.1572
  243MOL0     O31974   0.684   2.635   2.792  0.0805  0.5568  0.6044
  243MOL0     C31975   0.549   2.667   2.800  0.2870 -0.2872  0.1355
  243MOL0     C31976   0.514   2.773   2.878  0.4756  0.3693  0.2319
  243MOL0     C31977   0.384   2.803   2.906  1.0602 -0.2896  0.6235
  243MOL0     C31978   0.275   2.721   2.845  0.4134 -0.4437 -0.3864
  243MOL0     O31979   0.143   2.745   2.866  0.5468 -0.4061 -0.5804
  243MOL0     C31980   0.102   2.828   2.974  0.5754  0.3330  0.1107
  243MOL0     C31981  -0.052   2.820   3.006 -0.5172  0.4695 -0.0185
  243MOL0     C31982  -0.140   2.876   2.891  0.2263  0.0022  0.0726
  243MOL0     C31983  -0.200   3.013   2.928  0.1057 -0.2528 -0.5203
  243MOL0     C31984  -0.299   3.047   2.811  0.1333 -0.1372 -0.1561
  243MOL0     C31985  -0.358   3.178   2.843  0.1683 -0.2327 -0.6801
  243MOL0     C31986  -0.451   3.253   2.737  0.5468 -0.3154 -0.4758
  243MOL0     C31987  -0.390   3.272   2.600  0.4094 -0.0145 -1.3744
  243MOL0    Cl31988  -0.512   3.284   2.483  0.6383  0.2471  0.1189
  243MOL0     C31989   0.311   2.630   2.747 -0.4890 -1.0966 -0.4316
  243MOL0     C31990   0.443   2.601   2.721  0.0230  0.3875 -0.4761
  243MOL0     O31991   0.676   2.459   2.937 -0.1783 -0.3057 -0.0109
  243MOL0     C31992   0.947   2.390   2.874  0.4657  0.6666  0.2070
  243MOL0     C31993   1.080   2.367   2.845 -0.1666  0.4317  0.2183
  243MOL0     N31994   1.779   2.831   2.565  0.5506 -0.2527  0.4270
  243MOL0     N31995   1.887   2.879   2.520 -0.2360  0.1572  1.0939
  243MOL0     C31996   3.061   2.661   2.578  0.3608  0.2114  0.1669
  243MOL0     C31997   3.161   2.600   2.653 -0.3593 -0.7994  0.1637
  243MOL0     C31998   3.489   2.336   2.790  0.7577  0.0737  0.0442
  243MOL0     C31999   3.627   2.344   2.750 -0.6921  0.7555 -0.6965
  243MOL0     C32000   3.720   2.265   2.814  1.0026 -0.3893 -0.4120
  243MOL0     C32001   3.675   2.176   2.910  0.0509 -0.4974 -0.3412
  243MOL0     O32002   3.766   2.105   2.969  0.0025 -0.6235 -0.1566
  243MOL0     C32003   3.733   1.967   2.996  0.4231 -0.8981 -0.0847
  243MOL0     C32004   3.870   1.897   2.971  0.1773 -0.2815 -1.0889
  243MOL0     C32005   3.863   1.749   2.991  0.4207 -0.4584  0.8594
  243MOL0     C32006   3.863   1.677   2.861  0.6541  0.1393  0.9466
  243MOL0     C32007   3.869   1.536   2.894 -0.3233  0.5176  0.3532
  243MOL0     C32008   3.880   1.416   2.919  0.5562 -0.2874  0.5544
  243MOL0     C32009   3.544   2.173   2.956  0.3367  0.1434  0.2774
  243MOL0     C32010   3.450   2.250   2.902  0.0092 -0.3821  0.1295
  243MOL0     H32011   3.040   2.302   2.712 -1.6144  0.4680  0.0160
  243MOL0     H32012   2.845   2.391   2.582  0.5103 -0.9118  0.0134
  243MOL0     H32013   2.914   2.745   2.353  3.4329  0.2618  2.5199
  243MOL0     H32014   2.908   2.860   2.488  2.1500 -1.3665 -0.3383
  243MOL0     H32015   2.643   2.783   2.358 -0.5060 -0.6177  0.8564
  243MOL0     H32016   2.737   2.934   2.333 -2.2847  1.5192  1.1022
  243MOL0     H32017   2.728   2.986   2.564 -1.9098  2.3211 -0.9359
  243MOL0     H32018   2.621   2.856   2.608  2.5915  0.9808  1.5779
  243MOL0     H32019   2.556   3.116   2.508  1.5833  0.7772 -0.8382
  243MOL0     H32020   2.517   3.002   2.381  1.3409  0.3932  0.1773
  243MOL0     H32021   2.323   3.046   2.510 -1.9237 -3.7458 -1.4881
  243MOL0     H32022   2.406   3.012   2.665 -0.2716  3.6633 -0.0027
  243MOL0     H32023   2.428   2.767   2.605  2.3225  3.7632 -0.8522
  243MOL0     H32024   2.368   2.802   2.438 -0.9131  1.1800 -0.1673
  243MOL0     H32025   2.242   2.693   2.651  0.3562  0.1215 -0.0393
  243MOL0     H32026   2.200   2.869   2.671  2.4559  1.6278 -0.9250
  243MOL0     H32027   2.149   2.714   2.423  1.2086 -0.8223  1.9698
  243MOL0     H32028   2.132   2.890   2.441  2.0165  1.0752  0.6149
  243MOL0     H32029   1.965   2.577   2.601  2.6287 -0.0441 -2.5415
  243MOL0     H32030   1.640   2.644   2.764  3.1140 -0.0858  1.5426
  243MOL0     H32031   1.742   2.516   2.704  1.3298 -0.4101 -0.3114
  243MOL0     H32032   1.631   2.506   2.487 -0.9223 -0.4482  0.0397
  243MOL0     H32033   1.525   2.637   2.519 -2.8037 -0.5576  2.8139
  243MOL0     H32034   1.417   2.409   2.554 -1.2630  1.6317 -0.8137
  243MOL0     H32035   1.528   2.381   2.683 -0.1686 -0.1317 -1.6160
  243MOL0     H32036   1.324   2.617   2.657 -2.5759 -1.6670  0.4967
  243MOL0     H32037   1.432   2.603   2.788  0.1965  1.4507  0.2698
  243MOL0     H32038   1.148   2.689   2.731  1.4415  0.2886  2.2321
  243MOL0     H32039   0.906   2.713   2.780 -1.0994 -0.3650  1.6981
  243MOL0     H32040   0.600   2.821   2.924  0.8900 -1.2449  1.2565
  243MOL0     H32041   0.364   2.878   2.982 -0.4641 -0.6243  0.5935
  243MOL0     H32042   0.135   2.929   2.950 -3.4705  1.4159 -1.7249
  243MOL0     H32043   0.153   2.789   3.063 -2.3548 -0.5404  1.5379
  243MOL0     H32044  -0.062   2.866   3.105 -0.9407  1.7997 -0.6687
  243MOL0     H32045  -0.068   2.713   3.026  2.0181 -0.0355 -0.2581
  243MOL0     H32046  -0.213   2.798   2.869 -1.0933  1.2100 -0.0269
  243MOL0     H32047  -0.098   2.893   2.792 -1.8178 -2.3062 -1.3157
  243MOL0     H32048  -0.253   3.004   3.024 -0.2668 -0.8226 -0.7735
  243MOL0     H32049  -0.131   3.094   2.951 -0.3097 -0.7116  2.8986
  243MOL0     H32050  -0.372   2.969   2.787  1.7265 -1.1103 -2.1992
  243MOL0     H32051  -0.232   3.066   2.726  0.8760  1.7365  0.7815
  243MOL0     H32052  -0.275   3.247   2.861 -0.9278  1.0244 -0.2478
  243MOL0     H32053  -0.400   3.172   2.944  1.4024 -0.1558 -0.1471
  243MOL0     H32054  -0.534   3.185   2.715  2.0579 -2.5203  0.2940
  243MOL0     H32055  -0.482   3.347   2.783  0.6633 -0.3347 -0.3572
  243MOL0     H32056  -0.335   3.178   2.588  1.8489  0.5545  0.3560
  243MOL0     H32057  -0.323   3.357   2.586  0.4874  0.1218 -0.2496
  243MOL0     H32058   0.242   2.577   2.683 -0.4340 -1.7259  0.0166
  243MOL0     H32059   0.466   2.513   2.662  0.4550  0.6440 -0.6980
  243MOL0     H32060   0.885   2.308   2.909 -0.0870  0.9513 -0.0881
  243MOL0     H32061   1.139   2.276   2.855  0.3209  0.6099 -0.8565
  243MOL0     H32062   3.078   2.766   2.558  2.8194 -0.5354 -2.0988
  243MOL0     H32063   3.252   2.656   2.671  1.1880 -2.8822 -0.6872
  243MOL0     H32064   3.665   2.396   2.663  2.2015 -0.7126 -0.4351
  243MOL0     H32065   3.822   2.265   2.778  0.9007  4.1214 -1.1657
  243MOL0     H32066   3.662   1.923   2.926  1.6425 -1.1798 -1.1740
  243MOL0     H32067   3.706   1.954   3.101 -0.2065  1.8006  0.1786
  243MOL0     H32068   3.905   1.929   2.872  1.9263 -3.0639 -1.4894
  243MOL0     H32069   3.939   1.942   3.042 -0.4871  0.0187 -0.6267
  243MOL0     H32070   3.779   1.717   3.053  0.1653  0.1801  0.8435
  243MOL0     H32071   3.959   1.722   3.036  2.4607  2.4329 -1.3800
  243MOL0     H32072   3.776   1.687   2.796  1.4893  5.1959  0.1658
  243MOL0     H32073   3.944   1.696   2.789 -0.2328 -0.9738 -0.3923
  243MOL0     H32074   3.910   1.316   2.942  0.9391 -0.4980 -0.7356
  243MOL0     H32075   3.503   2.098   3.023  1.4788 -0.4879  0.2818
  243MOL0     H32076   3.346   2.245   2.932 -1.5315  3.6388 -3.4397
  244MOL0     O32077   0.383   1.360   1.891  0.2514 -0.5444  0.4652
  244MOL0     C32078   0.398   1.372   2.012  0.7404  0.1772  0.0275
  244MOL0     O32079   0.310   1.416   2.097  0.0900 -0.6582 -0.1428
  244MOL0     C32080   0.200   1.492   2.051 -0.3274  0.0729  0.6016
  244MOL0     C32081   0.072   1.451   2.091  0.0592 -0.8144  0.3854
  244MOL0     C32082  -0.041   1.526   2.045 -0.6012 -0.4911  0.2070
  244MOL0     C32083  -0.025   1.640   1.963  1.2028 -0.4661 -0.3693
  244MOL0     O32084  -0.128   1.719   1.918 -0.3947 -0.7807 -0.5146
  244MOL0     C32085  -0.260   1.676   1.951  0.2490 -0.2395  0.4933
  244MOL0     C32086  -0.353   1.769   1.889 -0.4062 -0.7525 -0.3265
  244MOL0     C32087  -0.492   1.723   1.917  0.5780 -0.2054  0.4375
  244MOL0     C32088  -0.604   1.802   1.843 -0.0292 -0.1239 -0.5070
  244MOL0     C32089  -0.729   1.727   1.861 -0.0168  0.0925 -0.2633
  244MOL0     C32090  -0.841   1.751   1.754 -0.4556 -0.4648  0.8550
  244MOL0     C32091  -0.907   1.890   1.743 -0.2116 -0.7118  0.2716
  244MOL0     C32092  -0.915   1.951   1.878 -0.4517 -0.1250  0.1111
  244MOL0     N32093  -0.970   2.086   1.883 -0.2237  0.3595  0.0956
  244MOL0     C32094  -1.017   2.151   1.770  1.0472  0.5017 -0.3926
  244MOL0     C32095  -1.041   2.274   1.813 -0.1776 -0.7161 -0.6455
  244MOL0     C32096  -1.054   2.400   1.727  0.2491  0.9822 -0.0091
  244MOL0     C32097  -1.199   2.428   1.706 -0.1890  0.1573  0.1712
  244MOL0     C32098  -1.260   2.316   1.618  1.0242 -0.0992 -0.0946
  244MOL0     C32099  -1.401   2.335   1.585  0.0176 -1.0817  0.1988
  244MOL0     O32100  -1.477   2.319   1.710  0.5166 -0.8861 -0.2942
  244MOL0     C32101  -1.619   2.316   1.700 -0.5326 -0.2058  0.4354
  244MOL0     C32102  -1.691   2.306   1.582  0.3017  0.1057  0.3270
  244MOL0     C32103  -1.829   2.309   1.579 -0.0748 -0.7732 -0.0148
  244MOL0     C32104  -1.894   2.332   1.693  0.3098 -0.1060 -0.0441
  244MOL0     C32105  -2.044   2.345   1.686 -0.9087  0.0977  0.6997
  244MOL0     O32106  -2.083   2.418   1.573  0.3100  0.2084 -0.6058
  244MOL0     C32107  -2.213   2.426   1.551  0.0744  0.2843  0.5609
  244MOL0     C32108  -2.303   2.318   1.557  0.6265  0.7292 -0.5937
  244MOL0     C32109  -2.438   2.352   1.536  0.4181  0.1980 -0.7085
  244MOL0     C32110  -2.483   2.484   1.514 -0.5305 -0.5775 -0.8759
  244MOL0     O32111  -2.619   2.507   1.498  0.4562 -0.3026 -1.1712
  244MOL0     C32112  -2.716   2.452   1.593 -0.5509  0.3533 -0.3271
  244MOL0     C32113  -2.805   2.342   1.522 -0.3972  0.3520  0.4360
  244MOL0     C32114  -2.922   2.423   1.460  0.1272 -0.3158  0.8932
  244MOL0     C32115  -3.051   2.343   1.419 -0.8607  0.7873 -0.0131
  244MOL0     C32116  -3.161   2.435   1.359  0.2202  0.0001 -0.7198
  244MOL0     C32117  -3.233   2.519   1.470 -0.3025  0.6266 -0.9126
  244MOL0     C32118  -3.371   2.557   1.436 -0.8688 -0.1790  0.4171
  244MOL0     C32119  -3.365   2.649   1.310 -0.2755  0.2747  0.4145
  244MOL0    Cl32120  -3.236   2.780   1.295  0.1733 -0.0003 -0.1688
  244MOL0     C32121  -2.390   2.586   1.503  0.1179 -0.3218 -0.6521
  244MOL0     C32122  -2.255   2.559   1.525 -1.1584  0.2176  0.1156
  244MOL0     O32123  -2.118   2.300   1.777 -0.3580  0.2529 -0.2201
  244MOL0     C32124  -1.832   2.341   1.819  0.9570  1.1853  0.4805
  244MOL0     C32125  -1.689   2.334   1.820 -0.5062  0.4536 -0.6306
  244MOL0     N32126  -1.004   2.283   1.951 -0.0972 -0.4207 -0.1891
  244MOL0     N32127  -0.972   2.162   1.990  0.5699 -0.6106  0.7870
  244MOL0     C32128   0.104   1.679   1.923  0.3272  0.2816 -0.1627
  244MOL0     C32129   0.217   1.605   1.972  0.9993 -0.3561  0.2335
  244MOL0     C32130   0.513   1.303   2.084 -0.0396 -0.1954 -0.2576
  244MOL0     C32131   0.628   1.275   2.011 -0.8328 -0.4525 -0.2725
  244MOL0     C32132   0.732   1.206   2.069 -0.1975 -0.8478 -0.5070
  244MOL0     C32133   0.731   1.172   2.207 -0.0661 -0.3161  0.4746
  244MOL0     O32134   0.847   1.108   2.258  0.0258  0.4495 -0.0461
  244MOL0     C32135   0.876   1.100   2.408  0.1766 -0.6369  0.3918
  244MOL0     C32136   0.999   1.022   2.438  0.2886 -0.0051 -0.4172
  244MOL0     C32137   1.116   1.077   2.360 -0.3871 -0.3088  0.5673
  244MOL0     C32138   1.246   1.000   2.380  0.1199  0.1818 -0.0968
  244MOL0     C32139   1.312   1.042   2.501  0.1561  0.3370  0.3716
  244MOL0     C32140   1.362   1.097   2.594  0.0050 -0.0189 -0.4008
  244MOL0     C32141   0.617   1.192   2.285  0.2097 -0.2034 -0.1716
  244MOL0     C32142   0.504   1.257   2.222 -0.1448  0.4824 -0.3707
  244MOL0     H32143   0.065   1.361   2.151 -1.5705 -1.7296 -1.1080
  244MOL0     H32144  -0.135   1.494   2.089 -0.9655  1.8977  1.3231
  244MOL0     H32145  -0.282   1.677   2.058  2.5402 -2.0883  1.0584
  244MOL0     H32146  -0.280   1.571   1.927 -1.5308  0.2975 -0.5923
  244MOL0     H32147  -0.336   1.777   1.781 -3.0527  1.1267 -0.6995
  244MOL0     H32148  -0.338   1.865   1.938 -0.7509  0.2276 -2.0518
  244MOL0     H32149  -0.509   1.737   2.024 -0.5346 -0.4285  0.3073
  244MOL0     H32150  -0.504   1.617   1.892 -1.4915  0.4322 -1.6282
  244MOL0     H32151  -0.608   1.908   1.873  0.5929 -0.2683  0.1229
  244MOL0     H32152  -0.572   1.796   1.739  0.3318 -2.5448 -0.3160
  244MOL0     H32153  -0.763   1.743   1.963 -1.5537  0.7626 -0.8590
  244MOL0     H32154  -0.708   1.620   1.864  0.1319  0.1514  2.1528
  244MOL0     H32155  -0.914   1.670   1.759  2.4953 -3.3664 -0.1006
  244MOL0     H32156  -0.799   1.735   1.654  0.0516 -1.4418  1.2199
  244MOL0     H32157  -0.846   1.943   1.670 -1.2932 -1.6888 -1.4284
  244MOL0     H32158  -1.010   1.890   1.707 -1.2926  1.1462  2.9975
  244MOL0     H32159  -0.822   1.955   1.934 -0.2820 -0.5486 -0.1370
  244MOL0     H32160  -0.982   1.888   1.936  2.1725 -0.6356  2.8082
  244MOL0     H32161  -1.022   2.113   1.669  2.2712 -1.9302  0.3679
  244MOL0     H32162  -1.008   2.377   1.630  0.9968 -0.1813  0.5992
  244MOL0     H32163  -0.999   2.480   1.776  3.8155 -1.6238  0.6182
  244MOL0     H32164  -1.201   2.517   1.642  0.1245 -0.0369 -0.1094
  244MOL0     H32165  -1.249   2.442   1.802  1.5362 -1.2694  1.3515
  244MOL0     H32166  -1.207   2.310   1.522  2.7601 -1.1644  0.8771
  244MOL0     H32167  -1.265   2.216   1.663  0.6192 -0.3102 -0.6063
  244MOL0     H32168  -1.423   2.258   1.510 -0.9561  0.3084 -0.9984
  244MOL0     H32169  -1.425   2.432   1.542 -0.1064 -0.4318  1.6646
  244MOL0     H32170  -1.642   2.308   1.486  0.3752  1.8525  0.3725
  244MOL0     H32171  -1.874   2.300   1.481  1.4415 -3.3849 -0.5602
  244MOL0     H32172  -2.260   2.222   1.583 -2.3267 -0.4840  0.1846
  244MOL0     H32173  -2.516   2.279   1.555 -0.2292  1.2779  1.0787
  244MOL0     H32174  -2.775   2.534   1.636 -1.0459 -0.9299  1.5162
  244MOL0     H32175  -2.675   2.401   1.680 -3.6550 -2.3835 -0.2589
  244MOL0     H32176  -2.844   2.273   1.598  1.3530  0.6054  1.6210
  244MOL0     H32177  -2.756   2.289   1.440 -2.4979  0.9110 -1.2608
  244MOL0     H32178  -2.875   2.458   1.368 -2.0175 -2.2862 -1.1079
  244MOL0     H32179  -2.952   2.508   1.522  0.4993 -1.0706  2.1381
  244MOL0     H32180  -3.012   2.278   1.340  1.7209  0.9178  1.0446
  244MOL0     H32181  -3.084   2.283   1.505  4.9606 -0.3365  1.8819
  244MOL0     H32182  -3.243   2.375   1.319 -0.3164  2.7878 -4.2871
  244MOL0     H32183  -3.130   2.491   1.271 -2.7458 -0.1655 -1.9537
  244MOL0     H32184  -3.182   2.611   1.500 -0.7868  1.6965 -3.1974
  244MOL0     H32185  -3.239   2.461   1.563 -1.5867  1.1074 -0.6778
  244MOL0     H32186  -3.439   2.476   1.408 -0.5761  0.7972 -3.6950
  244MOL0     H32187  -3.415   2.612   1.520  0.0210  0.9542  0.1574
  244MOL0     H32188  -3.466   2.685   1.290 -0.9573 -0.6969  2.0084
  244MOL0     H32189  -3.354   2.586   1.221 -0.9978  0.8936 -0.1350
  244MOL0     H32190  -2.434   2.685   1.504 -1.4830 -1.0006  0.1944
  244MOL0     H32191  -2.174   2.631   1.529  0.5010 -1.6456  1.5551
  244MOL0     H32192  -1.885   2.371   1.909 -3.3768  3.2584 -2.3918
  244MOL0     H32193  -1.624   2.359   1.904 -1.0033  1.7519 -0.6013
  244MOL0     H32194   0.111   1.752   1.843  0.4232  1.3027  0.7683
  244MOL0     H32195   0.317   1.622   1.934  1.8200 -3.6008  0.6593
  244MOL0     H32196   0.633   1.312   1.910 -1.2207 -0.1891 -0.1977
  244MOL0     H32197   0.825   1.182   2.018  1.6604 -2.1743  3.1899
  244MOL0     H32198   0.792   1.053   2.460  0.0089 -0.5686  0.1826
  244MOL0     H32199   0.891   1.203   2.440  0.7392 -0.8486  0.8370
  244MOL0     H32200   1.019   1.031   2.545  1.0200  0.3516 -0.5812
  244MOL0     H32201   0.983   0.917   2.414  1.9963 -0.5215  0.5285
  244MOL0     H32202   1.140   1.181   2.382 -2.2055  0.6899 -1.6879
  244MOL0     H32203   1.093   1.064   2.253  0.4786  2.4577 -0.0162
  244MOL0     H32204   1.233   0.891   2.385  0.7784  0.1391  1.8526
  244MOL0     H32205   1.302   1.025   2.290  0.1408 -3.0722 -1.1089
  244MOL0     H32206   1.376   1.136   2.693 -1.6145 -1.1424  0.3166
  244MOL0     H32207   0.621   1.169   2.391  1.7482 -0.7849 -0.3199
  244MOL0     H32208   0.415   1.261   2.284  1.2035 -2.6098  2.0544
  245MOL0     O32209   4.951   0.067   6.922 -0.6691 -0.0301 -0.0302
  245MOL0     C32210   4.958  -0.053   6.940  0.2979 -0.4069 -0.6593
  245MOL0     O32211   4.863  -0.141   6.909 -0.0598  0.5100 -0.4229
  245MOL0     C32212   4.760  -0.106   6.836 -0.8142  0.3449  0.3869
  245MOL0     C32213   4.777  -0.048   6.713 -0.0217 -0.6570 -0.9193
  245MOL0     C32214   4.665  -0.009   6.636  0.5388  0.6622 -0.2899
  245MOL0     C32215   4.541  -0.063   6.673  0.1613 -0.0059 -1.1189
  245MOL0     O32216   4.437  -0.039   6.590 -0.4513  0.0678  0.4103
  245MOL0     C32217   4.294  -0.047   6.625  0.5728  0.3609  0.2850
  245MOL0     C32218   4.231  -0.176   6.573  0.2191 -0.8972  1.1064
  245MOL0     C32219   4.089  -0.190   6.616 -0.2647 -0.5158  0.2643
  245MOL0     C32220   3.995  -0.092   6.534 -0.1579  0.5998 -0.4704
  245MOL0     C32221   3.850  -0.138   6.560 -0.4004  0.4641  0.1683
  245MOL0     C32222   3.812  -0.278   6.518 -0.5827 -0.3904  0.0817
  245MOL0     C32223   3.660  -0.295   6.516  0.9965  0.7481 -0.8190
  245MOL0     C32224   3.581  -0.192   6.439 -0.2418  0.2479  0.4176
  245MOL0     N32225   3.444  -0.230   6.423 -0.3736 -0.1481  0.0264
  245MOL0     C32226   3.353  -0.149   6.367 -0.1465  0.5501  0.5022
  245MOL0     C32227   3.245  -0.229   6.340 -0.8526 -0.8455 -0.6992
  245MOL0     C32228   3.124  -0.184   6.253 -0.7846 -0.4665 -0.7864
  245MOL0     C32229   2.999  -0.192   6.350  0.4349 -0.0008 -0.1211
  245MOL0     C32230   2.880  -0.124   6.283  0.1674 -0.2974 -0.5601
  245MOL0     C32231   2.906   0.019   6.245 -0.7919  0.8576  0.2979
  245MOL0     O32232   2.973   0.100   6.337  0.5361 -0.1940 -0.4833
  245MOL0     C32233   3.080   0.170   6.290 -1.7170  0.8423  0.6209
  245MOL0     C32234   3.071   0.249   6.181  0.3473 -0.4442  0.5390
  245MOL0     C32235   3.186   0.322   6.127 -0.2533  0.7771  0.2541
  245MOL0     C32236   3.296   0.339   6.215  0.2936 -0.4674  0.2581
  245MOL0     C32237   3.420   0.420   6.173 -0.2585 -0.5432  0.0629
  245MOL0     O32238   3.530   0.397   6.241  0.5252  0.0002  0.5354
  245MOL0     C32239   3.651   0.431   6.182 -0.0376 -0.3595  0.0005
  245MOL0     C32240   3.676   0.407   6.048 -0.0318  0.6240 -0.1510
  245MOL0     C32241   3.792   0.445   5.983  0.6008 -0.3026  0.2055
  245MOL0     C32242   3.897   0.504   6.057  0.0185  0.4175  0.1672
  245MOL0     O32243   4.015   0.542   6.004  0.4751  0.3224 -0.1152
  245MOL0     C32244   4.069   0.463   5.898 -0.3140  0.6514  0.1956
  245MOL0     C32245   4.214   0.429   5.932 -0.4059  0.2356  1.0170
  245MOL0     C32246   4.286   0.328   5.834  0.2887 -0.4572  0.5503
  245MOL0     C32247   4.259   0.366   5.690 -0.3825  0.5525  0.3735
  245MOL0     C32248   4.343   0.277   5.595 -0.3208  0.3100 -0.2450
  245MOL0     C32249   4.349   0.355   5.461  0.7320  0.4144  0.1198
  245MOL0     C32250   4.420   0.265   5.367  0.5458  0.3257 -0.8207
  245MOL0     C32251   4.411   0.313   5.217 -0.2158  0.0564 -0.7896
  245MOL0    Cl32252   4.484   0.196   5.107 -0.1250 -0.3378 -0.0756
  245MOL0     C32253   3.870   0.518   6.201  0.4355  0.5522  0.3477
  245MOL0     C32254   3.755   0.476   6.260  0.0570 -1.2781  0.1438
  245MOL0     O32255   3.410   0.493   6.074 -0.8863 -0.0998  1.1729
  245MOL0     C32256   3.304   0.264   6.328  0.5731  0.5127  0.2772
  245MOL0     C32257   3.195   0.184   6.368 -0.1847 -0.1449  0.4356
  245MOL0     N32258   3.271  -0.356   6.391  0.1594 -0.1957  0.4775
  245MOL0     N32259   3.395  -0.356   6.431 -0.7075 -0.0899  0.0495
  245MOL0     C32260   4.524  -0.138   6.793  0.8833 -0.0964  0.0714
  245MOL0     C32261   4.637  -0.160   6.866  0.2263  0.4054  0.1483
  245MOL0     C32262   5.069  -0.108   7.021  0.1815  1.4540 -0.3543
  245MOL0     C32263   5.183  -0.029   7.059  0.6468 -0.8284  0.2084
  245MOL0     C32264   5.284  -0.087   7.126  0.3713  0.6279 -0.1509
  245MOL0     C32265   5.281  -0.226   7.169 -0.0624 -0.9867  0.2763
  245MOL0     O32266   5.379  -0.295   7.235 -0.4888 -0.2330 -0.2126
  245MOL0     C32267   5.504  -0.226   7.268  0.2520  1.0221  0.9171
  245MOL0     C32268   5.592  -0.210   7.142 -0.0773 -0.0288 -0.0791
  245MOL0     C32269   5.655  -0.342   7.100  0.2803 -0.2232 -0.8205
  245MOL0     C32270   5.760  -0.324   6.982 -1.1217  0.9110  0.3081
  245MOL0     C32271   5.905  -0.345   7.036  0.8813 -0.6402  0.6036
  245MOL0     C32272   6.019  -0.365   7.069 -0.4979  0.4584 -0.2672
  245MOL0     C32273   5.164  -0.296   7.138  1.1434  0.9941  0.0621
  245MOL0     C32274   5.060  -0.244   7.067 -0.0079  0.4601 -0.0985
  245MOL0     H32275   4.875  -0.011   6.687  0.6290 -1.9706 -0.4511
  245MOL0     H32276   4.668   0.049   6.544 -3.2242 -1.6761 -2.1464
  245MOL0     H32277   4.248   0.043   6.583 -2.4462 -0.3354  1.7848
  245MOL0     H32278   4.273  -0.035   6.732 -1.5325  1.5577 -0.1929
  245MOL0     H32279   4.287  -0.264   6.604  1.3872 -1.7117 -2.7867
  245MOL0     H32280   4.235  -0.189   6.464  0.3867 -1.0245  1.1280
  245MOL0     H32281   4.075  -0.179   6.724 -1.1641  0.6168  0.0609
  245MOL0     H32282   4.054  -0.288   6.583 -1.4056 -0.1651  0.3603
  245MOL0     H32283   3.997   0.013   6.564 -2.2742  0.8308 -0.9575
  245MOL0     H32284   4.014  -0.101   6.427 -0.3169 -0.7765 -0.3976
  245MOL0     H32285   3.786  -0.061   6.516  0.5317  1.9449  1.2989
  245MOL0     H32286   3.834  -0.139   6.668  3.1221  1.4652  0.8070
  245MOL0     H32287   3.838  -0.367   6.575 -3.9606 -0.6555  1.4092
  245MOL0     H32288   3.831  -0.287   6.410  0.5487 -0.5429  0.2817
  245MOL0     H32289   3.639  -0.398   6.488  1.4631  0.3066  0.3793
  245MOL0     H32290   3.625  -0.284   6.619  1.8224 -1.1192 -0.2974
  245MOL0     H32291   3.620  -0.179   6.337 -4.4415 -3.9187 -2.1414
  245MOL0     H32292   3.590  -0.093   6.483  0.3486  0.8412 -0.9694
  245MOL0     H32293   3.356  -0.049   6.324 -0.6043 -0.5732 -2.3546
  245MOL0     H32294   3.100  -0.244   6.164 -3.6356  3.4834 -3.0123
  245MOL0     H32295   3.144  -0.084   6.214 -1.4607 -1.0098 -2.6263
  245MOL0     H32296   3.019  -0.146   6.447  1.4453  0.1060 -0.3728
  245MOL0     H32297   2.964  -0.294   6.370 -4.1281  1.5075  0.7684
  245MOL0     H32298   2.839  -0.179   6.199 -1.6762 -0.5917  0.4660
  245MOL0     H32299   2.793  -0.109   6.349  1.0327  0.0873  0.5304
  245MOL0     H32300   2.806   0.063   6.234 -2.7854 -2.1604  3.8914
  245MOL0     H32301   2.971   0.013   6.157  2.4319 -2.7425  2.5960
  245MOL0     H32302   2.990   0.255   6.109 -0.4357 -5.2246  0.7455
  245MOL0     H32303   3.174   0.372   6.031  0.1304 -0.3763 -0.4206
  245MOL0     H32304   3.592   0.358   5.999 -0.9770  0.8423  1.2091
  245MOL0     H32305   3.792   0.434   5.875  0.5915  3.1606 -0.2525
  245MOL0     H32306   4.063   0.522   5.806  0.6635 -0.2537 -0.4767
  245MOL0     H32307   4.017   0.368   5.885  0.2694  0.3597 -0.0794
  245MOL0     H32308   4.212   0.387   6.033  0.9881 -0.5476  0.7557
  245MOL0     H32309   4.271   0.522   5.931 -0.1665  0.1636  3.1315
  245MOL0     H32310   4.268   0.221   5.848 -0.5060 -0.9022 -2.9520
  245MOL0     H32311   4.394   0.343   5.845  0.4780  0.0798 -1.6523
  245MOL0     H32312   4.151   0.358   5.671 -0.2680  0.0103 -0.0641
  245MOL0     H32313   4.285   0.472   5.680 -1.1073  0.8511  1.4739
  245MOL0     H32314   4.293   0.179   5.595  1.6890 -0.7730  0.5989
  245MOL0     H32315   4.448   0.275   5.623  0.3907  1.4805 -2.5949
  245MOL0     H32316   4.405   0.445   5.488  2.4165 -1.0740  1.8920
  245MOL0     H32317   4.248   0.371   5.422  1.1057  0.6151 -0.7854
  245MOL0     H32318   4.522   0.255   5.405  0.1658 -0.8233 -0.0119
  245MOL0     H32319   4.373   0.166   5.374 -0.8576  1.0271  0.3141
  245MOL0     H32320   4.448   0.416   5.213 -2.1299  0.8389  0.4745
  245MOL0     H32321   4.303   0.321   5.202 -0.2844  2.4956  0.4659
  245MOL0     H32322   3.956   0.563   6.249  2.0341 -0.2264 -1.6172
  245MOL0     H32323   3.755   0.460   6.368  0.3907  0.0271  0.3537
  245MOL0     H32324   3.392   0.266   6.391  1.6406  1.4570 -1.1785
  245MOL0     H32325   3.196   0.125   6.459  2.5914 -3.0784 -1.3049
  245MOL0     H32326   4.426  -0.173   6.823  0.2872  1.4067 -0.0143
  245MOL0     H32327   4.632  -0.223   6.954 -0.4137 -0.4445 -0.4854
  245MOL0     H32328   5.178   0.078   7.041  1.1650 -1.1295 -2.0671
  245MOL0     H32329   5.371  -0.023   7.138  0.8298 -0.0210  0.0296
  245MOL0     H32330   5.561  -0.295   7.331 -0.9219 -0.0548  0.8406
  245MOL0     H32331   5.480  -0.127   7.309  0.1064  1.4333 -0.1144
  245MOL0     H32332   5.539  -0.174   7.053  3.1470  3.6587 -0.7530
  245MOL0     H32333   5.663  -0.130   7.164 -1.2052  0.5867  1.5404
  245MOL0     H32334   5.573  -0.398   7.055  1.3357 -0.6731 -2.2560
  245MOL0     H32335   5.686  -0.413   7.176  1.9830  1.7137  0.4069
  245MOL0     H32336   5.754  -0.395   6.899 -0.9483  1.9901 -0.6493
  245MOL0     H32337   5.746  -0.224   6.940 -0.9084  0.3856 -1.0662
  245MOL0     H32338   6.114  -0.397   7.107 -2.3147 -3.8978  1.3446
  245MOL0     H32339   5.163  -0.404   7.147  0.1304  0.8406 -1.4398
  245MOL0     H32340   4.976  -0.306   7.038  0.9756 -1.2070  0.5051
  246MOL0     O32341   1.802   7.688   9.871 -0.3926 -0.3029 -0.6458
  246MOL0     C32342   1.873   7.595   9.902 -0.0230  0.3229 -0.2872
  246MOL0     O32343   1.828   7.468   9.921  0.1937 -1.1145  1.2073
  246MOL0     C32344   1.689   7.452   9.923  0.3695  0.0075  0.2133
  246MOL0     C32345   1.637   7.384  10.034  0.7436  0.1445  0.4709
  246MOL0     C32346   1.503   7.348  10.055  0.3820  0.4811  0.2429
  246MOL0     C32347   1.413   7.395   9.956  0.1399  0.1428 -0.0750
  246MOL0     O32348   1.279   7.355   9.960  0.0715 -0.5997 -0.7282
  246MOL0     C32349   1.212   7.370  10.087  0.5714 -0.5536  0.0278
  246MOL0     C32350   1.111   7.258  10.084  0.7298 -0.3628  0.3391
  246MOL0     C32351   1.035   7.260  10.218  0.5865  0.3111  0.2026
  246MOL0     C32352   0.937   7.139  10.227  0.1228 -0.0781 -0.1487
  246MOL0     C32353   0.889   7.126  10.373  0.2270  0.2965 -0.8299
  246MOL0     C32354   0.774   7.226  10.411  0.3556  0.0849 -0.2574
  246MOL0     C32355   0.707   7.195  10.547  0.2229 -0.4320  0.8798
  246MOL0     C32356   0.610   7.080  10.525 -0.5509  0.4327 -0.9065
  246MOL0     N32357   0.501   7.090  10.628 -0.3326 -0.3912 -0.3722
  246MOL0     C32358   0.520   7.112  10.760  0.4603 -1.2233  0.0519
  246MOL0     C32359   0.398   7.130  10.810  0.3303 -1.0170  0.2455
  246MOL0     C32360   0.377   7.151  10.957 -0.0868  0.7116 -0.4672
  246MOL0     C32361   0.234   7.091  10.990  0.5160 -0.0581  0.1691
  246MOL0     C32362   0.204   7.102  11.136  0.8733  0.0184 -0.3389
  246MOL0     C32363   0.071   7.069  11.185 -0.1188 -0.3972 -0.7092
  246MOL0     O32364   0.052   6.930  11.164 -0.6409  0.9592  0.5581
  246MOL0     C32365  -0.077   6.882  11.181  0.2580  0.5779 -0.0165
  246MOL0     C32366  -0.194   6.955  11.224  0.5450  0.0276  0.6419
  246MOL0     C32367  -0.320   6.893  11.227  1.0516 -0.5764 -0.1007
  246MOL0     C32368  -0.345   6.758  11.192  0.6499 -0.3064  0.6553
  246MOL0     C32369  -0.481   6.703  11.191 -0.4161  0.3518  0.5133
  246MOL0     O32370  -0.506   6.573  11.143  0.0631 -0.1396  0.6472
  246MOL0     C32371  -0.624   6.511  11.168  0.5028 -0.1668  0.5687
  246MOL0     C32372  -0.624   6.404  11.253 -0.4920  0.2185  0.1710
  246MOL0     C32373  -0.736   6.321  11.267 -0.2930 -0.6686  0.0985
  246MOL0     C32374  -0.862   6.362  11.209 -0.3427  0.3820  0.9012
  246MOL0     O32375  -0.978   6.281  11.231  0.2599  0.2777 -0.1571
  246MOL0     C32376  -0.960   6.164  11.313 -0.1590  0.9769  0.2009
  246MOL0     C32377  -1.066   6.055  11.301  0.3450 -0.4356 -0.0282
  246MOL0     C32378  -1.062   5.950  11.417  0.7833  0.1623  0.7645
  246MOL0     C32379  -1.153   5.825  11.375 -1.2957  0.6846 -0.3106
  246MOL0     C32380  -1.133   5.709  11.472  0.0099  1.0987  0.5385
  246MOL0     C32381  -1.219   5.591  11.410 -0.0963  0.0287  0.0670
  246MOL0     C32382  -1.202   5.456  11.481 -0.7472 -0.4494  0.6486
  246MOL0     C32383  -1.278   5.353  11.404 -0.4434  0.0547 -0.7739
  246MOL0    Cl32384  -1.255   5.179  11.481 -0.5415 -0.5536 -0.3324
  246MOL0     C32385  -0.866   6.470  11.123 -0.5460  0.2165 -0.1440
  246MOL0     C32386  -0.746   6.544  11.100  0.1664 -0.0451  0.2704
  246MOL0     O32387  -0.570   6.772  11.239  0.4666  0.0754  0.5131
  246MOL0     C32388  -0.229   6.686  11.166  0.4787  0.1775 -0.5997
  246MOL0     C32389  -0.105   6.747  11.151 -0.8810 -0.5620  0.7134
  246MOL0     N32390   0.304   7.131  10.709 -1.3899  0.2778  0.5352
  246MOL0     N32391   0.369   7.113  10.600  0.3541  0.0687  0.2801
  246MOL0     C32392   1.460   7.462   9.840  0.1453  0.2914 -0.5802
  246MOL0     C32393   1.593   7.490   9.826 -1.4051  0.2335  0.6965
  246MOL0     C32394   2.020   7.617   9.897 -0.6353  0.2475  0.3467
  246MOL0     C32395   2.066   7.755   9.882 -0.7487 -0.2409  0.1457
  246MOL0     C32396   2.204   7.777   9.861  0.1034  0.4181 -0.3618
  246MOL0     C32397   2.298   7.673   9.863 -0.8032  0.1442 -0.5791
  246MOL0     O32398   2.439   7.682   9.844 -0.1237 -0.0318  0.7896
  246MOL0     C32399   2.502   7.807   9.878 -0.4604 -0.3500  0.2446
  246MOL0     C32400   2.646   7.784   9.927 -0.0480  0.4810 -0.2847
  246MOL0     C32401   2.727   7.905   9.970  0.7288 -0.2885  0.2526
  246MOL0     C32402   2.828   7.876  10.082 -0.2445 -0.3138 -0.3867
  246MOL0     C32403   2.875   7.978  10.175 -0.3337 -0.3561  0.5617
  246MOL0     C32404   2.905   8.056  10.261  0.8094 -0.0654 -0.5118
  246MOL0     C32405   2.249   7.540   9.887  0.4810 -0.2865  0.4892
  246MOL0     C32406   2.113   7.511   9.895  0.0129  0.9214 -0.1733
  246MOL0     H32407   1.712   7.358  10.109  1.9863  0.8062 -0.4952
  246MOL0     H32408   1.484   7.281  10.138  1.2109 -1.6932 -1.2302
  246MOL0     H32409   1.160   7.466  10.083  1.7101  0.0507 -0.7806
  246MOL0     H32410   1.267   7.370  10.182  0.2118 -0.7329  0.2376
  246MOL0     H32411   1.165   7.165  10.065  2.0822 -0.3173  3.3354
  246MOL0     H32412   1.046   7.289  10.002  0.9809  2.0739  0.9720
  246MOL0     H32413   0.978   7.354  10.218  0.0442  0.0407 -2.3376
  246MOL0     H32414   1.111   7.254  10.297 -0.5215 -3.0657  1.2062
  246MOL0     H32415   0.847   7.148  10.166  0.4174 -1.3284 -0.8051
  246MOL0     H32416   0.995   7.050  10.199  0.5295 -0.7627  2.5771
  246MOL0     H32417   0.969   7.140  10.447 -1.3036  1.3918  0.7106
  246MOL0     H32418   0.849   7.025  10.382  0.5288  0.3438  2.3128
  246MOL0     H32419   0.703   7.229  10.328  0.2155  1.6642 -0.1051
  246MOL0     H32420   0.810   7.329  10.417 -3.6677  1.6222  0.4678
  246MOL0     H32421   0.792   7.164  10.608  1.5621  1.6443  0.1640
  246MOL0     H32422   0.651   7.284  10.576 -0.5641 -0.5180 -0.2775
  246MOL0     H32423   0.664   6.985  10.538 -3.5058 -1.2036  0.5406
  246MOL0     H32424   0.555   7.082  10.430 -1.4895 -2.3968 -0.5364
  246MOL0     H32425   0.615   7.106  10.814 -0.6535 -1.3042  2.1174
  246MOL0     H32426   0.391   7.255  10.989  0.4329  0.1905  1.0941
  246MOL0     H32427   0.457   7.095  11.006  1.4911  4.2389  1.4160
  246MOL0     H32428   0.230   6.986  10.960  3.4410  0.3401 -2.0343
  246MOL0     H32429   0.161   7.149  10.932  1.7897  0.8400 -0.5828
  246MOL0     H32430   0.275   7.031  11.180  0.3608 -0.6623 -0.5884
  246MOL0     H32431   0.216   7.203  11.176 -0.9022  0.5497 -1.0566
  246MOL0     H32432   0.002   7.135  11.133  0.9594  3.7268  2.4763
  246MOL0     H32433   0.069   7.092  11.292 -2.6150 -0.9859 -0.5908
  246MOL0     H32434  -0.183   7.050  11.275 -1.2003 -0.0059  1.1585
  246MOL0     H32435  -0.393   6.963  11.267  3.2948  2.6830 -1.2910
  246MOL0     H32436  -0.530   6.361  11.284 -1.1031 -3.3712 -2.3699
  246MOL0     H32437  -0.736   6.236  11.334 -0.9508 -2.6793 -2.2629
  246MOL0     H32438  -0.941   6.191  11.418  0.3931 -2.3405  1.0605
  246MOL0     H32439  -0.877   6.101  11.280 -0.9854 -0.4093  0.7038
  246MOL0     H32440  -1.037   6.000  11.211 -2.7704 -0.5243 -1.0976
  246MOL0     H32441  -1.165   6.101  11.293  0.5793  0.0208 -0.3405
  246MOL0     H32442  -1.088   5.994  11.513 -2.0686  3.0592 -1.1224
  246MOL0     H32443  -0.961   5.909  11.408  1.3417  1.7783 -1.0467
  246MOL0     H32444  -1.258   5.858  11.371 -0.7625  2.3743 -1.7187
  246MOL0     H32445  -1.122   5.799  11.273 -1.8468 -0.8851 -0.0983
  246MOL0     H32446  -1.160   5.736  11.574  0.5979 -1.4260  1.4209
  246MOL0     H32447  -1.031   5.671  11.468 -0.7239 -0.8812 -1.1886
  246MOL0     H32448  -1.183   5.571  11.309  0.2278  0.0044  0.1862
  246MOL0     H32449  -1.326   5.614  11.407 -0.6008 -2.1676 -0.3021
  246MOL0     H32450  -1.097   5.428  11.480  0.1853  2.7044  0.9677
  246MOL0     H32451  -1.236   5.456  11.586  1.3191 -2.7682  1.4081
  246MOL0     H32452  -1.245   5.348  11.300  4.5484  1.5827  0.4824
  246MOL0     H32453  -1.381   5.389  11.410  0.0913  1.4320  1.5219
  246MOL0     H32454  -0.957   6.500  11.071 -0.6283 -0.3627 -0.3411
  246MOL0     H32455  -0.750   6.627  11.029  0.8639 -1.6301 -1.7239
  246MOL0     H32456  -0.231   6.582  11.134  0.6023  0.2953 -0.9916
  246MOL0     H32457  -0.019   6.683  11.135 -1.0872 -0.8545  0.7594
  246MOL0     H32458   1.396   7.484   9.756 -1.3865  1.8324  0.9057
  246MOL0     H32459   1.632   7.546   9.741 -1.2760 -1.4988 -0.4372
  246MOL0     H32460   1.998   7.840   9.886  0.7190  1.0672 -1.3667
  246MOL0     H32461   2.228   7.877   9.826 -2.7243  1.1379 -0.5034
  246MOL0     H32462   2.446   7.867   9.951 -2.9421  0.2518 -1.9829
  246MOL0     H32463   2.502   7.875   9.792  0.2338  0.0485  0.5477
  246MOL0     H32464   2.641   7.709  10.007  2.2021  2.6026  2.0287
  246MOL0     H32465   2.699   7.731   9.848  1.8768  1.1732  0.4773
  246MOL0     H32466   2.665   7.990  10.000  0.6892 -0.4454  0.6196
  246MOL0     H32467   2.783   7.936   9.881 -1.0510 -1.0242 -1.1959
  246MOL0     H32468   2.793   7.792  10.143 -0.1200  0.4414  0.7560
  246MOL0     H32469   2.922   7.853  10.030  1.0082  0.5058  1.3927
  246MOL0     H32470   2.942   8.120  10.338 -1.2081  0.3026  0.2076
  246MOL0     H32471   2.318   7.457   9.874  1.1051  0.3359 -0.2729
  246MOL0     H32472   2.080   7.407   9.899  2.4033  0.0531  4.4645
  247MOL0     O32473  10.425  10.434   5.294 -0.0732  0.9439 -0.3009
  247MOL0     C32474  10.495  10.457   5.198 -0.8526  0.6076  0.5997
  247MOL0     O32475  10.452  10.519   5.079  0.0655 -0.6086 -0.1666
  247MOL0     C32476  10.317  10.545   5.072  0.2037 -0.0402  0.2026
  247MOL0     C32477  10.219  10.452   5.078  0.2235  0.0355  0.0128
  247MOL0     C32478  10.084  10.487   5.062  0.1556  0.1627  0.6776
  247MOL0     C32479  10.048  10.623   5.027  0.0461  0.1473  0.0408
  247MOL0     O32480   9.923  10.660   4.998 -0.2594  0.2356 -0.3876
  247MOL0     C32481   9.836  10.653   5.114  0.5024  0.4900  0.1232
  247MOL0     C32482   9.691  10.649   5.053  0.4478  0.2108 -0.8694
  247MOL0     C32483   9.580  10.633   5.155  0.0204 -0.1022 -0.1901
  247MOL0     C32484   9.443  10.690   5.106 -0.0306  0.2533  0.6497
  247MOL0     C32485   9.355  10.691   5.225  0.1026  0.2076 -0.3256
  247MOL0     C32486   9.213  10.737   5.173  0.4400 -0.0707  0.6137
  247MOL0     C32487   9.104  10.737   5.288  0.4117 -0.1088  0.5420
  247MOL0     C32488   8.978  10.805   5.256 -0.3898 -0.1061 -0.4343
  247MOL0     N32489   8.985  10.952   5.230 -0.1373  0.5094 -0.3831
  247MOL0     C32490   8.993  11.051   5.324 -1.3688 -0.8388  0.5492
  247MOL0     C32491   8.963  11.162   5.243  0.3736  0.0391  0.1885
  247MOL0     C32492   8.926  11.292   5.295 -0.0744 -0.7758  0.0521
  247MOL0     C32493   8.799  11.344   5.232 -1.4068 -1.1409 -0.1434
  247MOL0     C32494   8.742  11.473   5.299 -0.9915  0.6003 -0.0119
  247MOL0     C32495   8.625  11.511   5.207  0.8459  0.1636  0.1935
  247MOL0     O32496   8.532  11.574   5.295 -0.4407  0.0176  0.3541
  247MOL0     C32497   8.411  11.617   5.250 -1.1711 -0.6641 -0.0300
  247MOL0     C32498   8.307  11.603   5.339 -0.7175 -0.0545  0.3949
  247MOL0     C32499   8.180  11.647   5.298  0.0907 -0.1245  0.1021
  247MOL0     C32500   8.161  11.706   5.174  0.8142 -1.2081  0.4708
  247MOL0     C32501   8.027  11.757   5.145  0.0560 -0.8929  0.5252
  247MOL0     O32502   8.007  11.818   5.023 -0.1807  0.7632  0.7397
  247MOL0     C32503   7.885  11.868   4.975  0.5665  0.5014  0.0712
  247MOL0     C32504   7.892  11.966   4.874 -0.9436 -0.1140  0.4285
  247MOL0     C32505   7.772  12.011   4.815 -0.2497 -0.5158  0.1061
  247MOL0     C32506   7.647  11.959   4.844  0.5127 -0.3170  1.2327
  247MOL0     O32507   7.535  12.001   4.778  0.4524  0.7315  0.1568
  247MOL0     C32508   7.494  12.133   4.792  0.5918  0.1200 -0.0506
  247MOL0     C32509   7.419  12.155   4.917 -0.2725  0.4680 -0.0056
  247MOL0     C32510   7.283  12.086   4.910 -0.3473  0.1946  0.4652
  247MOL0     C32511   7.186  12.156   5.000  0.0355 -0.0901  0.2102
  247MOL0     C32512   7.054  12.076   4.988 -0.0755 -0.6920 -0.0308
  247MOL0     C32513   6.949  12.132   5.087  0.7487 -0.7172  1.0913
  247MOL0     C32514   6.969  12.116   5.235  0.0652 -0.0465  0.4354
  247MOL0     C32515   7.042  11.983   5.282  0.4581 -0.1463  0.7564
  247MOL0    Cl32516   7.076  12.017   5.456 -0.0152 -0.0785 -0.2980
  247MOL0     C32517   7.639  11.856   4.947  0.5872 -0.0829  0.5574
  247MOL0     C32518   7.760  11.811   5.010  0.1630 -0.3573 -0.0852
  247MOL0     O32519   7.944  11.747   5.228  0.9015 -0.2709 -0.4006
  247MOL0     C32520   8.261  11.712   5.076 -0.6187  0.5035 -0.9784
  247MOL0     C32521   8.389  11.666   5.119 -0.2649  0.4862 -0.1977
  247MOL0     N32522   8.958  11.129   5.114  0.3974  0.2559  0.4369
  247MOL0     N32523   8.977  11.000   5.102  0.1339  0.1691 -0.4577
  247MOL0     C32524  10.149  10.715   5.025  1.0052 -0.5686  0.5289
  247MOL0     C32525  10.281  10.675   5.046  0.0390  0.9557  0.4226
  247MOL0     C32526  10.644  10.434   5.210  0.4069 -0.5992  0.1027
  247MOL0     C32527  10.693  10.349   5.317  0.5120  1.0680 -0.2839
  247MOL0     C32528  10.833  10.332   5.339  0.9025 -0.2883  0.2194
  247MOL0     C32529  10.919  10.399   5.251 -0.8329  0.3022  0.6186
  247MOL0     O32530  11.061  10.404   5.273 -0.6471  0.2347 -0.0502
  247MOL0     C32531  11.127  10.276   5.267  0.1336 -0.4650 -0.1761
  247MOL0     C32532  11.159  10.253   5.113 -0.1736  0.0298  0.0384
  247MOL0     C32533  11.228  10.369   5.033 -0.1718 -0.3254 -0.4016
  247MOL0     C32534  11.314  10.459   5.127 -0.6751 -0.5076  0.3814
  247MOL0     C32535  11.422  10.395   5.196  0.1315 -0.7940 -0.3229
  247MOL0     C32536  11.512  10.342   5.257  0.4930  0.0233 -0.5096
  247MOL0     C32537  10.869  10.486   5.143 -0.5129 -0.1356 -0.8289
  247MOL0     C32538  10.733  10.512   5.127  1.0761  0.3506  0.3023
  247MOL0     H32539  10.237  10.349   5.106 -1.0449 -0.1176  0.3662
  247MOL0     H32540  10.012  10.406   5.066  2.2947 -1.8190  0.8027
  247MOL0     H32541   9.833  10.747   5.169 -0.3247 -0.0049  0.9586
  247MOL0     H32542   9.853  10.569   5.184 -1.8716  1.9015  2.5851
  247MOL0     H32543   9.681  10.567   4.982 -0.2603  1.7888 -2.6820
  247MOL0     H32544   9.678  10.746   5.003  1.8442  0.4936 -0.7225
  247MOL0     H32545   9.606  10.697   5.240  2.2812  0.0559 -0.9068
  247MOL0     H32546   9.586  10.530   5.192 -2.6181 -0.3989 -0.4595
  247MOL0     H32547   9.449  10.789   5.060 -0.3014 -0.4256 -0.8993
  247MOL0     H32548   9.398  10.625   5.030  0.5832  0.6940 -0.1116
  247MOL0     H32549   9.399  10.763   5.295  3.8822  0.0261 -2.2715
  247MOL0     H32550   9.334  10.601   5.283  0.9529  0.9831  1.2676
  247MOL0     H32551   9.171  10.666   5.101  0.7157  0.4267 -0.0388
  247MOL0     H32552   9.214  10.839   5.133 -0.7495 -0.9948 -2.0035
  247MOL0     H32553   9.080  10.635   5.319 -3.4269  0.6399  0.5742
  247MOL0     H32554   9.151  10.790   5.371  3.2880  2.7970 -2.6208
  247MOL0     H32555   8.908  10.799   5.339 -0.9399  3.0065 -0.5369
  247MOL0     H32556   8.922  10.755   5.176  1.6947  1.5660 -3.1384
  247MOL0     H32557   9.007  11.056   5.431  0.5865 -1.6791  0.3886
  247MOL0     H32558   9.008  11.362   5.276  0.2939 -1.3638 -0.5612
  247MOL0     H32559   8.900  11.281   5.400 -2.5235  0.2234 -0.3900
  247MOL0     H32560   8.726  11.264   5.242 -0.7368 -1.6901  0.4462
  247MOL0     H32561   8.811  11.358   5.124 -1.8935 -1.2908 -0.2200
  247MOL0     H32562   8.704  11.450   5.399 -1.0670  0.6427 -0.0306
  247MOL0     H32563   8.816  11.552   5.304 -0.7590  0.4122 -0.4501
  247MOL0     H32564   8.578  11.422   5.167 -1.6707  0.0029  3.1230
  247MOL0     H32565   8.666  11.571   5.125 -0.6268  2.1603  0.8384
  247MOL0     H32566   8.327  11.548   5.431 -2.5916  0.2501  1.0150
  247MOL0     H32567   8.100  11.632   5.371  1.2041  2.2147  1.9568
  247MOL0     H32568   7.989  11.992   4.834 -1.3096  1.7277  0.6082
  247MOL0     H32569   7.776  12.081   4.732 -1.4084  1.3636  1.5451
  247MOL0     H32570   7.448  12.154   4.695  0.1238  2.2791  0.5825
  247MOL0     H32571   7.577  12.202   4.780 -1.6025  2.4624 -7.0435
  247MOL0     H32572   7.416  12.263   4.931 -0.9259  0.4448  0.0507
  247MOL0     H32573   7.471  12.114   5.004 -0.6350 -2.6801 -1.1090
  247MOL0     H32574   7.295  11.983   4.945  1.0208 -0.3747 -1.4849
  247MOL0     H32575   7.255  12.090   4.804  1.0459 -0.5337  0.0463
  247MOL0     H32576   7.224  12.175   5.101 -2.3638  3.8322  0.5642
  247MOL0     H32577   7.177  12.260   4.970  4.1201  0.2025 -0.7123
  247MOL0     H32578   7.069  11.970   5.007  2.3715 -0.1471  1.5988
  247MOL0     H32579   7.026  12.087   4.883 -0.7750  1.1203  0.3016
  247MOL0     H32580   6.853  12.088   5.058 -0.6610  1.9507  1.4445
  247MOL0     H32581   6.931  12.236   5.060  3.1982  0.0949  2.3279
  247MOL0     H32582   7.034  12.197   5.269 -0.4038  1.5559 -2.2208
  247MOL0     H32583   6.870  12.104   5.281 -1.1381 -0.7488 -2.1845
  247MOL0     H32584   7.139  11.980   5.230 -0.7136 -1.3844 -1.4796
  247MOL0     H32585   6.991  11.887   5.268 -0.6238  0.3777  1.0145
  247MOL0     H32586   7.542  11.818   4.976  0.3853  1.2441  1.7335
  247MOL0     H32587   7.755  11.719   5.066 -1.1261 -1.0310 -1.2303
  247MOL0     H32588   8.238  11.752   4.978 -0.0619  1.8116 -0.5919
  247MOL0     H32589   8.469  11.669   5.047 -0.4066 -1.0565 -0.4510
  247MOL0     H32590  10.130  10.820   5.008 -1.3975 -0.3650  3.5236
  247MOL0     H32591  10.354  10.755   5.033  1.6557 -0.4462  0.4833
  247MOL0     H32592  10.623  10.295   5.380  0.4578  3.3299  1.7570
  247MOL0     H32593  10.875  10.262   5.410  2.4247 -0.2714 -0.6027
  247MOL0     H32594  11.075  10.193   5.317 -1.3880  0.7114  0.2445
  247MOL0     H32595  11.220  10.280   5.325 -1.2350 -0.5476  2.1635
  247MOL0     H32596  11.230  10.170   5.116 -2.4072 -1.9781  0.8675
  247MOL0     H32597  11.070  10.220   5.058  0.2043  1.0015 -1.2018
  247MOL0     H32598  11.158  10.430   4.974 -0.6401 -1.5545 -1.1507
  247MOL0     H32599  11.292  10.310   4.967  0.6060 -1.7267  1.5394
  247MOL0     H32600  11.367  10.536   5.072  0.1759 -0.8441  0.7046
  247MOL0     H32601  11.253  10.513   5.200  1.6717 -0.6194  2.5705
  247MOL0     H32602  11.597  10.304   5.310 -0.0559  1.8609  1.8808
  247MOL0     H32603  10.931  10.549   5.082 -0.2281 -0.3147 -0.7274
  247MOL0     H32604  10.689  10.584   5.059 -0.1549  1.6827  2.4083
  248MOL0     O32605   8.535   8.490   5.162 -0.1921 -0.6151 -0.1391
  248MOL0     C32606   8.631   8.565   5.141  0.2229  0.5476 -0.2164
  248MOL0     O32607   8.742   8.536   5.057  0.1357  0.3825 -0.2574
  248MOL0     C32608   8.738   8.417   4.982 -0.4203 -0.0153 -0.1221
  248MOL0     C32609   8.729   8.297   5.052 -1.0408  1.1870  0.9939
  248MOL0     C32610   8.734   8.179   4.972 -1.1102  0.1300 -0.7869
  248MOL0     C32611   8.738   8.189   4.831  0.6175 -0.1113 -0.2538
  248MOL0     O32612   8.755   8.074   4.754  0.1248  0.3801 -0.0313
  248MOL0     C32613   8.892   8.059   4.716  0.2327  0.2810 -0.0305
  248MOL0     C32614   8.920   7.912   4.671 -0.0888  0.5704 -0.3558
  248MOL0     C32615   8.948   7.830   4.806  0.3422 -0.1736  0.4315
  248MOL0     C32616   9.005   7.699   4.763  0.5120 -0.0254  0.1397
  248MOL0     C32617   8.998   7.582   4.860 -0.0912 -0.4171 -0.1735
  248MOL0     C32618   8.848   7.530   4.871 -0.2593 -0.2781  0.1223
  248MOL0     C32619   8.845   7.444   5.004  0.4789 -0.6837 -0.0863
  248MOL0     C32620   8.901   7.306   4.975  0.1438 -0.5088  0.6727
  248MOL0     N32621   8.876   7.229   5.096 -0.0513 -0.3489 -0.3501
  248MOL0     C32622   8.928   7.243   5.226  0.0357  0.0001 -0.3752
  248MOL0     C32623   8.852   7.165   5.310  0.5287  0.5012  0.0676
  248MOL0     C32624   8.881   7.163   5.456  0.5226 -0.2136 -0.1454
  248MOL0     C32625   9.010   7.093   5.499 -0.2208  0.3631  0.7913
  248MOL0     C32626   9.028   6.966   5.422  0.0056  0.0739  0.4175
  248MOL0     C32627   9.147   6.893   5.488 -0.0642 -0.4964  0.4584
  248MOL0     O32628   9.266   6.965   5.454  0.0235  0.1308  0.7774
  248MOL0     C32629   9.376   6.889   5.446 -1.0862 -0.6057 -0.5646
  248MOL0     C32630   9.424   6.806   5.545 -0.0388 -0.6731 -0.0715
  248MOL0     C32631   9.552   6.745   5.534  0.2516  0.2687 -1.2273
  248MOL0     C32632   9.621   6.733   5.417 -0.8046  0.5906 -0.3514
  248MOL0     C32633   9.752   6.655   5.404 -0.9631 -0.4521 -0.3504
  248MOL0     O32634   9.804   6.658   5.281  0.2116  0.3336  0.4173
  248MOL0     C32635   9.933   6.605   5.252  0.1762 -0.3376 -0.0371
  248MOL0     C32636  10.036   6.569   5.336  0.3691 -0.1234 -0.2885
  248MOL0     C32637  10.165   6.528   5.290  0.2482 -1.2482  0.5784
  248MOL0     C32638  10.176   6.491   5.151 -0.6315  0.7377 -0.3403
  248MOL0     O32639  10.279   6.421   5.098 -0.3504  0.5285 -0.7644
  248MOL0     C32640  10.374   6.348   5.177 -0.2420  0.4820  0.1405
  248MOL0     C32641  10.502   6.430   5.206  0.4635 -0.3436 -0.9840
  248MOL0     C32642  10.593   6.441   5.085  0.3593  0.9774  0.4248
  248MOL0     C32643  10.644   6.310   5.027  0.5833  0.2330  0.5255
  248MOL0     C32644  10.777   6.327   4.947 -0.7802  0.5152 -0.1882
  248MOL0     C32645  10.754   6.414   4.822 -0.3477 -0.1323  0.6543
  248MOL0     C32646  10.877   6.426   4.730 -0.6755 -0.3070 -0.4598
  248MOL0     C32647  10.998   6.491   4.804 -0.4035  0.2142 -0.3236
  248MOL0    Cl32648  11.086   6.377   4.896 -0.0982  0.5328  0.0823
  248MOL0     C32649  10.067   6.520   5.067  0.6703  0.2595  0.2720
  248MOL0     C32650   9.952   6.580   5.117 -0.1822  0.4251 -0.7176
  248MOL0     O32651   9.809   6.624   5.507  0.2048 -0.0842 -0.2254
  248MOL0     C32652   9.571   6.808   5.315  0.5980 -0.1551  0.1000
  248MOL0     C32653   9.455   6.888   5.328 -0.5816 -0.3536  0.4470
  248MOL0     N32654   8.752   7.093   5.232 -0.1505 -0.1113 -0.7041
  248MOL0     N32655   8.770   7.133   5.109 -0.0443  0.4757 -1.0782
  248MOL0     C32656   8.757   8.313   4.766 -0.1195  0.1309  1.1325
  248MOL0     C32657   8.760   8.429   4.845  0.8881 -0.4615 -0.2543
  248MOL0     C32658   8.648   8.689   5.217 -0.2527 -0.1975 -0.0083
  248MOL0     C32659   8.709   8.798   5.155 -0.7401  0.8881  0.9586
  248MOL0     C32660   8.705   8.922   5.211 -0.0510  0.3566 -0.4656
  248MOL0     C32661   8.647   8.946   5.334  0.2807 -0.6267 -0.4787
  248MOL0     O32662   8.666   9.075   5.379  0.4390  0.1193 -1.2760
  248MOL0     C32663   8.638   9.095   5.521  0.6147  0.3868  0.7887
  248MOL0     C32664   8.702   9.224   5.560  0.0446 -0.2529  0.7905
  248MOL0     C32665   8.646   9.354   5.481  0.2298  0.2888  0.2400
  248MOL0     C32666   8.596   9.464   5.567  0.3570  0.3440 -0.3968
  248MOL0     C32667   8.472   9.418   5.624 -1.0002  1.3857  0.1616
  248MOL0     C32668   8.372   9.371   5.675 -0.3021 -0.3690  0.2646
  248MOL0     C32669   8.589   8.844   5.396  0.1357  0.1826 -0.8480
  248MOL0     C32670   8.586   8.716   5.346 -0.3291 -0.3221  0.8262
  248MOL0     H32671   8.747   8.291   5.159 -0.7217 -0.6380  0.8811
  248MOL0     H32672   8.731   8.084   5.025  0.9544  0.8382  0.7090
  248MOL0     H32673   8.967   8.078   4.794  1.6539 -2.0977 -0.7085
  248MOL0     H32674   8.903   8.122   4.628 -1.5394 -0.4363 -0.8075
  248MOL0     H32675   9.005   7.918   4.602 -1.0332  0.1510 -1.5952
  248MOL0     H32676   8.832   7.868   4.622 -1.4924 -0.4730  2.8428
  248MOL0     H32677   8.856   7.813   4.863  0.5245 -1.0439  0.4726
  248MOL0     H32678   9.029   7.875   4.865  2.9731 -1.3916 -2.0022
  248MOL0     H32679   8.963   7.673   4.666  0.0069  2.3733 -0.3381
  248MOL0     H32680   9.110   7.708   4.733  0.8740 -1.0219  1.0228
  248MOL0     H32681   9.032   7.628   4.954 -0.1203 -0.2319 -0.2531
  248MOL0     H32682   9.066   7.506   4.820 -2.1423 -1.7548 -1.2589
  248MOL0     H32683   8.825   7.467   4.785  3.2546 -1.2896 -0.2263
  248MOL0     H32684   8.773   7.610   4.869 -0.4534 -0.4250 -2.8160
  248MOL0     H32685   8.897   7.508   5.077  2.6976 -0.2119 -1.9741
  248MOL0     H32686   8.741   7.427   5.034 -0.1754  0.4121 -1.6184
  248MOL0     H32687   9.010   7.298   4.962 -0.2341 -4.7664 -1.8556
  248MOL0     H32688   8.849   7.268   4.887  0.6003  0.1596  0.1096
  248MOL0     H32689   9.001   7.321   5.247 -1.6033  2.0061 -1.7578
  248MOL0     H32690   8.807   7.101   5.508  0.3931  1.5377  1.8896
  248MOL0     H32691   8.880   7.259   5.507 -0.0804  0.1461 -0.8177
  248MOL0     H32692   9.014   7.063   5.605 -0.6126 -0.0254  0.6975
  248MOL0     H32693   9.084   7.171   5.480 -0.2507 -0.2829 -2.5714
  248MOL0     H32694   8.939   6.904   5.436 -0.4586  0.3880 -0.9575
  248MOL0     H32695   9.053   6.976   5.316  1.3396  0.5058  0.7535
  248MOL0     H32696   9.151   6.791   5.449  0.4416  0.2245 -1.5238
  248MOL0     H32697   9.129   6.888   5.595 -1.3354 -1.6115  0.2151
  248MOL0     H32698   9.361   6.795   5.634 -0.2068 -2.0743 -0.3391
  248MOL0     H32699   9.576   6.687   5.622  0.1256  3.4658  1.0663
  248MOL0     H32700  10.032   6.579   5.444 -2.0385 -0.5367 -0.2784
  248MOL0     H32701  10.249   6.507   5.355  2.1923  0.8902 -1.0861
  248MOL0     H32702  10.382   6.247   5.135 -3.1888  0.5451 -0.7759
  248MOL0     H32703  10.332   6.330   5.277  2.0354 -2.9631  0.6603
  248MOL0     H32704  10.550   6.382   5.292 -0.6203  0.7073  0.2623
  248MOL0     H32705  10.479   6.528   5.248  1.1000 -0.5332 -0.1656
  248MOL0     H32706  10.679   6.498   5.121  0.0216  1.0332  1.1483
  248MOL0     H32707  10.549   6.500   5.004 -3.2701 -0.2208  1.3488
  248MOL0     H32708  10.659   6.234   5.105  0.1196 -2.3076 -1.7341
  248MOL0     H32709  10.562   6.277   4.963  0.0314 -0.6095  1.6267
  248MOL0     H32710  10.812   6.228   4.916  1.0678  1.6470 -1.9903
  248MOL0     H32711  10.854   6.364   5.015 -1.4079  3.7282 -1.0702
  248MOL0     H32712  10.729   6.515   4.855  0.4235  0.3612 -0.2315
  248MOL0     H32713  10.668   6.374   4.767 -0.2941 -0.2284  0.6398
  248MOL0     H32714  10.902   6.330   4.684  1.9996 -0.7737  1.7354
  248MOL0     H32715  10.850   6.486   4.643  0.7922  1.3539  0.1773
  248MOL0     H32716  10.967   6.569   4.874  0.3121 -0.8715  1.2656
  248MOL0     H32717  11.057   6.536   4.723 -0.5729  1.0251 -0.0027
  248MOL0     H32718  10.077   6.504   4.960  1.4012  2.5241 -0.0618
  248MOL0     H32719   9.875   6.595   5.043 -0.4945 -1.0159 -0.7064
  248MOL0     H32720   9.627   6.819   5.222 -0.9570  1.3446 -0.7156
  248MOL0     H32721   9.439   6.950   5.240  2.0409  1.1911  0.9729
  248MOL0     H32722   8.771   8.318   4.659 -1.8241 -0.3325  0.8529
  248MOL0     H32723   8.780   8.532   4.815 -1.8385  0.8191  1.8791
  248MOL0     H32724   8.753   8.794   5.055 -1.7541  0.1416  0.5301
  248MOL0     H32725   8.750   9.009   5.163  0.2483  0.9780  0.9121
  248MOL0     H32726   8.692   9.014   5.571  0.0057 -0.9710 -0.6712
  248MOL0     H32727   8.530   9.106   5.527  0.5318  1.9535 -1.8613
  248MOL0     H32728   8.690   9.234   5.668 -4.1935 -3.6626  0.8907
  248MOL0     H32729   8.808   9.219   5.531  0.0291 -2.8881  0.9649
  248MOL0     H32730   8.564   9.319   5.418  0.6641  2.8279 -1.8946
  248MOL0     H32731   8.729   9.387   5.419 -0.3958 -0.2035 -0.8868
  248MOL0     H32732   8.659   9.494   5.651 -1.8321  1.9330  0.8026
  248MOL0     H32733   8.582   9.553   5.504 -1.0234  0.6310  0.2741
  248MOL0     H32734   8.283   9.334   5.722 -1.3175  1.4869 -0.0890
  248MOL0     H32735   8.545   8.858   5.494  2.0537  2.0916 -0.1890
  248MOL0     H32736   8.526   8.640   5.395 -1.5600 -0.8650 -1.3800
  249MOL0     O32737   2.642   0.561   8.153  0.2337 -0.4424  1.0500
  249MOL0     C32738   2.704   0.664   8.123 -0.6489  0.4808 -0.1530
  249MOL0     O32739   2.668   0.789   8.118  0.5266 -0.2804 -0.5302
  249MOL0     C32740   2.538   0.820   8.115  0.2145 -0.1237 -0.3570
  249MOL0     C32741   2.424   0.743   8.155  0.6570 -0.8054 -0.2495
  249MOL0     C32742   2.296   0.799   8.127  0.6084 -1.0369  0.0533
  249MOL0     C32743   2.279   0.933   8.093 -0.3934  1.0047 -0.6636
  249MOL0     O32744   2.153   0.977   8.056  0.1901  0.6220 -0.0486
  249MOL0     C32745   2.141   1.127   8.058 -0.7773  1.4718 -0.4168
  249MOL0     C32746   1.990   1.145   8.072 -0.7144 -0.4776 -0.3270
  249MOL0     C32747   1.953   1.126   8.224  0.4084 -0.3615  0.5712
  249MOL0     C32748   1.808   1.151   8.234 -1.1625  0.6893  0.2880
  249MOL0     C32749   1.764   1.149   8.382  1.0543  0.4167  0.8184
  249MOL0     C32750   1.644   1.244   8.407  0.1668 -0.0282 -0.5312
  249MOL0     C32751   1.516   1.191   8.330 -0.3766  0.6364  0.5822
  249MOL0     C32752   1.391   1.265   8.382  0.3103 -0.3588 -0.3531
  249MOL0     N32753   1.265   1.220   8.322  0.0400 -0.5115 -0.5901
  249MOL0     C32754   1.222   1.252   8.198  0.8770 -0.2978  0.4507
  249MOL0     C32755   1.087   1.228   8.202 -0.1840 -0.1028 -0.5312
  249MOL0     C32756   0.999   1.248   8.079  0.3731  0.1079 -0.2954
  249MOL0     C32757   0.851   1.213   8.113 -0.1979  0.1892 -1.0822
  249MOL0     C32758   0.760   1.256   7.995  0.8908  0.6610  0.2411
  249MOL0     C32759   0.610   1.192   8.011 -1.4159 -0.9414 -0.6242
  249MOL0     O32760   0.521   1.239   7.912  0.3074 -0.1648  0.9614
  249MOL0     C32761   0.386   1.202   7.937 -0.5520 -0.4679  1.2878
  249MOL0     C32762   0.351   1.098   8.018 -0.1938  0.7189 -0.2132
  249MOL0     C32763   0.214   1.059   8.030  0.3139  0.3269 -0.7281
  249MOL0     C32764   0.114   1.138   7.973  0.2428  0.5409  0.0324
  249MOL0     C32765  -0.026   1.094   7.986  0.3873  0.1437 -0.0325
  249MOL0     O32766  -0.108   1.119   7.886  0.7692 -0.0513  0.0774
  249MOL0     C32767  -0.242   1.095   7.907 -0.0374  0.1481  0.1759
  249MOL0     C32768  -0.292   0.976   7.933  0.6914  0.0705  0.1224
  249MOL0     C32769  -0.426   0.962   7.966 -0.6392 -0.6424  0.1089
  249MOL0     C32770  -0.506   1.072   7.957  0.1216 -0.3393 -0.5593
  249MOL0     O32771  -0.638   1.046   7.974 -0.1506 -0.2655 -0.4966
  249MOL0     C32772  -0.734   1.117   7.900 -0.3475 -0.3930  0.2737
  249MOL0     C32773  -0.875   1.073   7.945  0.3065  0.3676  0.1221
  249MOL0     C32774  -0.981   1.128   7.853  0.3057  0.0631 -0.0167
  249MOL0     C32775  -1.112   1.049   7.874  0.3426  1.0871  0.4753
  249MOL0     C32776  -1.226   1.112   7.793 -0.1482  0.3110 -0.4543
  249MOL0     C32777  -1.350   1.028   7.818 -1.2174  0.4766 -0.5327
  249MOL0     C32778  -1.474   1.058   7.728 -0.5356 -0.0395 -0.9338
  249MOL0     C32779  -1.441   1.091   7.587 -0.7298 -0.3271 -0.4791
  249MOL0    Cl32780  -1.584   1.109   7.479  0.2680  0.4586 -0.3961
  249MOL0     C32781  -0.450   1.191   7.926 -0.2996 -0.8884  0.0746
  249MOL0     C32782  -0.312   1.205   7.897  0.4823 -0.1946  0.7542
  249MOL0     O32783  -0.056   1.047   8.095  0.6824  0.3453 -0.0360
  249MOL0     C32784   0.147   1.253   7.900  0.0601  0.4636  0.1792
  249MOL0     C32785   0.279   1.278   7.879 -0.5609  0.5441  0.1299
  249MOL0     N32786   1.065   1.169   8.327 -0.1803 -0.1599  0.8386
  249MOL0     N32787   1.161   1.166   8.403 -0.4474  0.5156 -0.0720
  249MOL0     C32788   2.394   1.003   8.073 -0.0326  0.2698 -0.3856
  249MOL0     C32789   2.516   0.952   8.093 -0.9299  0.8025 -0.2544
  249MOL0     C32790   2.846   0.641   8.078 -0.3393  0.5062 -0.0421
  249MOL0     C32791   2.891   0.504   8.044  0.4880 -0.2855  0.8552
  249MOL0     C32792   3.014   0.481   7.994  0.0960 -0.6104  0.4959
  249MOL0     C32793   3.099   0.590   7.963 -0.0510 -0.3700 -0.9931
  249MOL0     O32794   3.210   0.562   7.886 -0.6042  0.3685 -0.1343
  249MOL0     C32795   3.260   0.679   7.815 -0.1590 -0.5686  0.6748
  249MOL0     C32796   3.375   0.646   7.715  0.6427 -0.5961  0.1748
  249MOL0     C32797   3.489   0.572   7.777  0.1753 -0.5750 -0.0950
  249MOL0     C32798   3.613   0.578   7.686 -0.7383  0.3268 -0.4488
  249MOL0     C32799   3.724   0.496   7.735  0.3628  0.6257  0.2906
  249MOL0     C32800   3.814   0.434   7.790 -0.7188  0.4933 -0.3542
  249MOL0     C32801   3.061   0.718   8.015 -1.2095  0.8061  0.1677
  249MOL0     C32802   2.933   0.744   8.069 -0.6271 -0.3604  0.9021
  249MOL0     H32803   2.440   0.645   8.196  0.5517  0.1697  2.3072
  249MOL0     H32804   2.214   0.729   8.144 -1.9591  2.1937  2.3367
  249MOL0     H32805   2.186   1.173   7.970 -0.3696  0.5639 -0.7038
  249MOL0     H32806   2.192   1.180   8.139 -2.5814  1.3390  0.8701
  249MOL0     H32807   1.935   1.078   8.005 -2.6309  0.4044  0.2806
  249MOL0     H32808   1.982   1.248   8.038  2.2603  0.1018  0.5239
  249MOL0     H32809   2.017   1.198   8.276  1.3300  0.0472 -1.0525
  249MOL0     H32810   1.972   1.022   8.254  0.2017 -0.9742 -1.3022
  249MOL0     H32811   1.784   1.246   8.187 -0.0802  0.4797 -0.7391
  249MOL0     H32812   1.744   1.079   8.182  0.4373 -0.2500 -0.4631
  249MOL0     H32813   1.848   1.181   8.445  0.9648  0.4319  0.9295
  249MOL0     H32814   1.749   1.044   8.409  1.5448  0.0106 -0.4433
  249MOL0     H32815   1.671   1.342   8.365 -1.0180  0.2546 -0.6770
  249MOL0     H32816   1.625   1.264   8.513  1.3408 -0.8459 -0.1473
  249MOL0     H32817   1.526   1.212   8.223  0.0684 -5.3665 -0.8925
  249MOL0     H32818   1.513   1.083   8.344  2.5224  0.4662  0.3801
  249MOL0     H32819   1.387   1.372   8.358 -0.0125 -0.0992  0.7698
  249MOL0     H32820   1.392   1.254   8.491 -0.3031  3.6149  0.1934
  249MOL0     H32821   1.271   1.301   8.115 -1.0034  1.1818  0.1519
  249MOL0     H32822   1.043   1.181   8.004 -0.0989 -2.5244  1.6243
  249MOL0     H32823   1.009   1.349   8.040 -1.5184  0.4230 -0.0567
  249MOL0     H32824   0.824   1.258   8.209  3.2584  0.4912 -0.1131
  249MOL0     H32825   0.847   1.105   8.129 -0.1249  0.2803 -0.4080
  249MOL0     H32826   0.751   1.365   7.995  1.6601  0.7671  2.4464
  249MOL0     H32827   0.804   1.210   7.906 -2.7091 -1.1550 -0.8059
  249MOL0     H32828   0.579   1.216   8.113 -1.9523 -1.1391 -0.7410
  249MOL0     H32829   0.623   1.084   8.003 -2.0587 -1.2435  1.6237
  249MOL0     H32830   0.423   1.031   8.063  1.6536  0.8671 -2.7680
  249MOL0     H32831   0.187   0.972   8.088 -0.3787  1.8328  1.3195
  249MOL0     H32832  -0.228   0.891   7.954  1.3147  0.9173  1.8661
  249MOL0     H32833  -0.467   0.864   7.990  0.7885 -0.7333  2.5123
  249MOL0     H32834  -0.726   1.100   7.792 -1.3135 -2.6094  0.4916
  249MOL0     H32835  -0.724   1.223   7.924 -0.1709 -0.6534  1.3892
  249MOL0     H32836  -0.889   1.112   8.046 -1.3975 -1.0389  0.4695
  249MOL0     H32837  -0.880   0.964   7.940 -1.5013  0.4326 -0.1554
  249MOL0     H32838  -0.950   1.121   7.748  0.8540  0.2293  0.1344
  249MOL0     H32839  -0.995   1.234   7.873 -0.3732 -0.2495  1.2196
  249MOL0     H32840  -1.094   0.949   7.834  1.1534  1.0923  0.8021
  249MOL0     H32841  -1.143   1.040   7.979 -0.1036  0.9155  0.3304
  249MOL0     H32842  -1.192   1.122   7.690 -1.3352 -0.3284 -0.9258
  249MOL0     H32843  -1.240   1.215   7.827 -0.9793 -0.5009  1.8516
  249MOL0     H32844  -1.376   1.045   7.923  3.5172  1.2149  0.7449
  249MOL0     H32845  -1.314   0.925   7.808  1.1696  1.0582  1.2366
  249MOL0     H32846  -1.545   0.975   7.727  2.0046 -2.3804 -2.7711
  249MOL0     H32847  -1.533   1.139   7.773 -0.2850  0.1098 -0.8715
  249MOL0     H32848  -1.380   1.007   7.554 -0.4008 -1.5316  2.7659
  249MOL0     H32849  -1.375   1.177   7.597 -1.2895 -0.0670  1.3133
  249MOL0     H32850  -0.520   1.272   7.908  1.3011  0.6746  0.6406
  249MOL0     H32851  -0.262   1.299   7.873  2.4089 -1.9014 -2.6318
  249MOL0     H32852   0.076   1.323   7.856 -0.6959 -0.8883 -0.8214
  249MOL0     H32853   0.294   1.359   7.807 -0.4784 -0.2244 -0.7416
  249MOL0     H32854   2.390   1.104   8.034 -1.8168  1.2153  1.9985
  249MOL0     H32855   2.607   1.005   8.071 -0.4527  0.0249 -0.2124
  249MOL0     H32856   2.834   0.415   8.070 -2.8709  2.2954  3.2700
  249MOL0     H32857   3.046   0.380   7.970 -4.4197 -1.9887 -0.7322
  249MOL0     H32858   3.298   0.751   7.888  1.1085 -2.0395  1.5143
  249MOL0     H32859   3.178   0.730   7.763  0.1511 -0.8175 -0.0614
  249MOL0     H32860   3.335   0.578   7.639  0.2859  0.1794 -0.3344
  249MOL0     H32861   3.406   0.742   7.674 -0.8365  1.0928  2.7014
  249MOL0     H32862   3.471   0.466   7.793 -1.6998 -0.1183  1.0422
  249MOL0     H32863   3.512   0.617   7.874  0.7826  1.0643 -0.9525
  249MOL0     H32864   3.578   0.538   7.590 -2.2222  0.9400 -0.1891
  249MOL0     H32865   3.658   0.678   7.678  0.8609 -0.2415  0.7487
  249MOL0     H32866   3.889   0.376   7.838 -1.2335  0.8625  0.9488
  249MOL0     H32867   3.139   0.794   8.014 -0.2873 -0.1056 -0.0384
  249MOL0     H32868   2.915   0.847   8.099 -0.2650  0.6908 -2.1598
  250MOL0     O32869  10.450   5.629   9.909  0.4384 -0.0645  0.1160
  250MOL0     C32870  10.419   5.700   9.812 -0.0248  0.2459 -0.8106
  250MOL0     O32871  10.501   5.771   9.734 -0.4971  0.0492 -0.7154
  250MOL0     C32872  10.638   5.767   9.749 -0.6388  0.8061 -0.5742
  250MOL0     C32873  10.709   5.814   9.861  0.5658 -0.4482 -0.9103
  250MOL0     C32874  10.845   5.810   9.868 -0.0789 -0.2231  0.0027
  250MOL0     C32875  10.916   5.763   9.752 -0.4593  0.8259  0.3429
  250MOL0     O32876  11.058   5.753   9.726 -0.0446 -0.4288 -1.1234
  250MOL0     C32877  11.136   5.791   9.845 -0.1026  0.7164 -0.6360
  250MOL0     C32878  11.286   5.809   9.814 -0.2169 -0.8721 -0.0850
  250MOL0     C32879  11.373   5.703   9.874  0.0141 -0.2230  0.0848
  250MOL0     C32880  11.371   5.689  10.033 -1.3514  0.2619 -1.0606
  250MOL0     C32881  11.466   5.591  10.095  0.7965 -0.1589  0.2917
  250MOL0     C32882  11.611   5.602  10.054 -0.1543  0.3012 -0.2920
  250MOL0     C32883  11.694   5.499  10.127  0.2109 -0.6368 -0.1058
  250MOL0     C32884  11.651   5.358  10.095  0.0287  0.0602 -0.5955
  250MOL0     N32885  11.771   5.272  10.106  0.6625 -0.0007 -0.0544
  250MOL0     C32886  11.798   5.231  10.232  0.8086 -0.4454  0.5182
  250MOL0     C32887  11.901   5.150  10.204 -0.7682  0.9923  1.2241
  250MOL0     C32888  12.008   5.095  10.308  0.0309  0.0106  0.1021
  250MOL0     C32889  12.121   5.205  10.307 -0.4479  0.1377  0.6696
  250MOL0     C32890  12.262   5.146  10.352 -0.0086  0.3047  0.3832
  250MOL0     C32891  12.377   5.240  10.353 -0.4421 -0.2307 -0.2766
  250MOL0     O32892  12.403   5.273  10.219 -0.5283 -0.5299 -0.1142
  250MOL0     C32893  12.505   5.369  10.193  0.8879  0.1942 -0.9633
  250MOL0     C32894  12.542   5.387  10.069 -0.0427 -0.1422  0.1467
  250MOL0     C32895  12.644   5.475  10.033 -0.6609 -0.4930 -0.0869
  250MOL0     C32896  12.704   5.567  10.123  0.3462 -0.0298  1.0760
  250MOL0     C32897  12.810   5.658  10.084  0.0078 -0.4659 -0.3257
  250MOL0     O32898  12.826   5.685   9.948 -0.3943 -0.0557 -0.8018
  250MOL0     C32899  12.945   5.743   9.908  0.8220  0.0143  0.0808
  250MOL0     C32900  12.951   5.874   9.862 -0.7813  0.4561  0.0583
  250MOL0     C32901  13.066   5.927   9.809  0.1185  0.1857  1.3515
  250MOL0     C32902  13.181   5.834   9.808  0.0834 -0.4228 -0.1496
  250MOL0     O32903  13.298   5.869   9.755  0.0468  0.4030  1.2968
  250MOL0     C32904  13.291   5.880   9.610 -0.3243 -1.0995 -0.1964
  250MOL0     C32905  13.381   5.984   9.549 -0.1623 -0.2981  0.1821
  250MOL0     C32906  13.332   6.121   9.574  0.2326 -1.2794 -0.3078
  250MOL0     C32907  13.435   6.240   9.587 -0.0313 -0.4881 -0.5610
  250MOL0     C32908  13.499   6.272   9.448  0.2249  0.7653  0.2928
  250MOL0     C32909  13.626   6.352   9.457  0.3786  0.4210 -0.1153
  250MOL0     C32910  13.609   6.497   9.499 -0.3034  0.2061 -0.3327
  250MOL0     C32911  13.734   6.578   9.476  0.0087  0.3337 -0.2016
  250MOL0    Cl32912  13.879   6.516   9.572  0.1113 -0.0351  0.2438
  250MOL0     C32913  13.165   5.702   9.855 -0.7308  0.6974 -0.1345
  250MOL0     C32914  13.053   5.655   9.906  0.5494 -0.0113 -1.1102
  250MOL0     O32915  12.888   5.693  10.174  0.9101  0.7307  0.7030
  250MOL0     C32916  12.669   5.536  10.255  0.1714  0.5691 -0.0114
  250MOL0     C32917  12.565   5.447  10.288 -0.9164 -0.6467 -0.1241
  250MOL0     N32918  11.929   5.123  10.071  0.5398  0.6432 -1.0346
  250MOL0     N32919  11.854   5.214  10.013 -0.3184 -1.0191 -0.1303
  250MOL0     C32920  10.840   5.714   9.648  0.8299 -1.1810 -0.1025
  250MOL0     C32921  10.709   5.719   9.646  0.6376  0.2018  0.4543
  250MOL0     C32922  10.273   5.726   9.794  1.0196  1.1826 -0.7912
  250MOL0     C32923  10.233   5.763   9.665  0.1547  1.0287 -0.0046
  250MOL0     C32924  10.103   5.808   9.648 -0.4264 -0.6149 -0.7205
  250MOL0     C32925  10.010   5.776   9.748  0.7146  0.4214 -0.5539
  250MOL0     O32926   9.866   5.790   9.739  0.3061  0.2679 -0.2670
  250MOL0     C32927   9.807   5.857   9.625 -0.0859  0.6671  0.2225
  250MOL0     C32928   9.658   5.821   9.625  0.6462 -0.4401  0.9445
  250MOL0     C32929   9.633   5.676   9.579  0.0440  0.6564 -0.7962
  250MOL0     C32930   9.520   5.613   9.659  0.0997 -0.0954 -0.9606
  250MOL0     C32931   9.391   5.681   9.667  0.0592  0.0334 -0.0184
  250MOL0     C32932   9.280   5.729   9.687 -0.0893  0.0323 -0.7643
  250MOL0     C32933  10.051   5.743   9.880 -0.2502 -0.2474 -0.0270
  250MOL0     C32934  10.186   5.723   9.904  0.1891 -0.3284 -0.1353
  250MOL0     H32935  10.649   5.862   9.938  2.5544 -0.3940  0.7059
  250MOL0     H32936  10.903   5.843   9.954  2.2043  0.3726 -1.6681
  250MOL0     H32937  11.135   5.717   9.926 -1.4725  0.2787 -1.0286
  250MOL0     H32938  11.098   5.886   9.883  0.3417  0.7593 -0.2889
  250MOL0     H32939  11.328   5.904   9.846 -1.5427 -0.1225 -0.5003
  250MOL0     H32940  11.302   5.811   9.706  0.6359  1.1382  0.0493
  250MOL0     H32941  11.472   5.729   9.837  0.1721 -0.1734  0.5342
  250MOL0     H32942  11.333   5.610   9.831  1.8541  0.0864 -2.4908
  250MOL0     H32943  11.402   5.782  10.082  1.4986 -2.0781  2.0976
  250MOL0     H32944  11.270   5.686  10.074 -0.4587  3.4874  1.8969
  250MOL0     H32945  11.425   5.493  10.069 -1.1562  1.2850 -2.8017
  250MOL0     H32946  11.455   5.618  10.200 -1.8549  0.0870  0.0209
  250MOL0     H32947  11.637   5.704  10.085  1.4296 -0.4835  1.1091
  250MOL0     H32948  11.622   5.586   9.946  2.0905 -0.7294  0.0292
  250MOL0     H32949  11.794   5.507  10.082  0.8650 -1.1369  1.2190
  250MOL0     H32950  11.709   5.523  10.233  0.2648 -2.4199  0.3093
  250MOL0     H32951  11.608   5.349   9.995 -1.6010  0.3329  0.0466
  250MOL0     H32952  11.573   5.326  10.165  0.7242  0.0430  0.1798
  250MOL0     H32953  11.762   5.276  10.324 -0.2640 -1.1019  0.4416
  250MOL0     H32954  12.046   4.997  10.278 -2.6990 -2.0343  2.7010
  250MOL0     H32955  11.965   5.079  10.407 -2.2911  1.5200 -0.5722
  250MOL0     H32956  12.096   5.284  10.379 -2.3156 -0.9292  1.2433
  250MOL0     H32957  12.139   5.241  10.205 -1.7425 -1.5444 -0.2113
  250MOL0     H32958  12.243   5.120  10.457 -1.7179 -0.6164 -0.1174
  250MOL0     H32959  12.302   5.060  10.297  0.7686  0.6498  0.3965
  250MOL0     H32960  12.476   5.207  10.385 -0.1624  0.8677  0.0326
  250MOL0     H32961  12.348   5.321  10.420  0.3812 -1.6934  1.9605
  250MOL0     H32962  12.501   5.325   9.990  0.5584 -0.2805 -0.0678
  250MOL0     H32963  12.674   5.469   9.929 -2.1442  0.8878 -0.6352
  250MOL0     H32964  12.859   5.931   9.857  0.8402  3.2054 -0.4707
  250MOL0     H32965  13.084   6.022   9.759  3.6273 -0.1374  1.6866
  250MOL0     H32966  13.193   5.892   9.564 -0.5717 -1.2551  0.2869
  250MOL0     H32967  13.331   5.784   9.576  0.3383 -0.6585 -0.6875
  250MOL0     H32968  13.399   5.979   9.442  2.2541 -0.3915  0.5250
  250MOL0     H32969  13.476   5.961   9.598 -1.2604 -1.6309  1.7937
  250MOL0     H32970  13.278   6.119   9.669  2.6865  0.4965  1.2379
  250MOL0     H32971  13.266   6.156   9.494  0.8739  2.8700  0.7434
  250MOL0     H32972  13.364   6.318   9.614 -0.9443 -0.9749 -1.4549
  250MOL0     H32973  13.508   6.213   9.664  1.8417  4.0896 -0.4256
  250MOL0     H32974  13.428   6.317   9.378  1.9042  1.8015 -0.8125
  250MOL0     H32975  13.532   6.174   9.410 -0.9541 -0.3461  2.0057
  250MOL0     H32976  13.682   6.339   9.363 -0.9498 -1.1678 -0.7330
  250MOL0     H32977  13.675   6.310   9.546 -2.6361  1.9334  2.4438
  250MOL0     H32978  13.524   6.531   9.439 -1.1203 -1.6280 -0.2869
  250MOL0     H32979  13.586   6.507   9.605 -0.2613  0.5685 -0.3554
  250MOL0     H32980  13.721   6.680   9.513 -0.5694 -0.2069  1.1363
  250MOL0     H32981  13.754   6.581   9.369 -3.2537  0.3882 -0.9111
  250MOL0     H32982  13.252   5.638   9.852 -0.5560  0.8985  0.4472
  250MOL0     H32983  13.040   5.555   9.947 -0.5261  0.5473 -0.0107
  250MOL0     H32984  12.725   5.593  10.329  2.5135 -1.2831 -0.2497
  250MOL0     H32985  12.542   5.456  10.394  0.2773  4.0491 -0.0256
  250MOL0     H32986  10.901   5.663   9.574  2.3625  4.1445 -3.0443
  250MOL0     H32987  10.658   5.679   9.559  1.4221 -0.3426  0.2403
  250MOL0     H32988  10.296   5.752   9.577  2.2256  1.0662  1.4018
  250MOL0     H32989  10.068   5.854   9.556 -1.9451  1.0630  0.6280
  250MOL0     H32990   9.858   5.825   9.534  1.4440 -0.0836  1.3152
  250MOL0     H32991   9.826   5.964   9.638  0.8093  0.6344 -0.7121
  250MOL0     H32992   9.611   5.852   9.719  1.2539  3.2646  0.1742
  250MOL0     H32993   9.607   5.886   9.553  1.2517 -0.0822  0.8345
  250MOL0     H32994   9.729   5.625   9.587  0.8137  2.2628  1.0291
  250MOL0     H32995   9.607   5.678   9.473  0.3118 -0.1490 -0.8874
  250MOL0     H32996   9.499   5.515   9.615  1.3544 -1.6897  1.7127
  250MOL0     H32997   9.550   5.591   9.762 -2.6430 -1.4173 -0.3436
  250MOL0     H32998   9.200   5.794   9.713  2.3997  1.7444  3.7740
  250MOL0     H32999   9.988   5.744   9.969  1.3350 -3.0509  1.3054
  250MOL0     H33000  10.217   5.710  10.008  0.0240 -1.5254 -0.2163
  251MOL0     O33001   3.893   0.846   9.132  0.3730  0.3273  1.0591
  251MOL0     C33002   3.978   0.896   9.208  0.6403 -0.1294 -0.4953
  251MOL0     O33003   3.942   0.942   9.335 -0.2857 -0.3402  0.3562
  251MOL0     C33004   3.804   0.942   9.363 -0.0904  0.8404  0.0049
  251MOL0     C33005   3.724   1.050   9.323 -0.1250  0.3377 -0.6164
  251MOL0     C33006   3.590   1.045   9.354  0.5286  0.4632 -0.1011
  251MOL0     C33007   3.532   0.927   9.419  0.6054 -1.2064  0.1753
  251MOL0     O33008   3.402   0.931   9.455 -0.5257 -0.4480  0.3177
  251MOL0     C33009   3.310   0.834   9.389 -0.1794 -0.8820 -0.1799
  251MOL0     C33010   3.177   0.844   9.455  0.3154 -0.6220 -0.1101
  251MOL0     C33011   3.077   0.743   9.390 -1.2696 -0.4668  0.1479
  251MOL0     C33012   2.940   0.777   9.449  0.0081 -0.5515 -0.2349
  251MOL0     C33013   2.840   0.710   9.354  0.6431 -1.0476 -0.1055
  251MOL0     C33014   2.698   0.753   9.406 -0.4457  0.6294 -0.1138
  251MOL0     C33015   2.590   0.683   9.315  1.5408 -0.4659 -0.2738
  251MOL0     C33016   2.462   0.778   9.307 -0.2652 -0.2207  0.6255
  251MOL0     N33017   2.488   0.909   9.239  0.6774 -0.2696 -0.6343
  251MOL0     C33018   2.533   0.928   9.112  0.7390  0.5172  0.5465
  251MOL0     C33019   2.514   1.063   9.096 -0.3868  0.8438 -0.3015
  251MOL0     C33020   2.557   1.149   8.974  0.9191 -0.0175 -0.4662
  251MOL0     C33021   2.699   1.125   8.920 -0.5903 -0.0982  0.5029
  251MOL0     C33022   2.719   1.181   8.773  0.2683  0.5941  1.0805
  251MOL0     C33023   2.869   1.190   8.734  0.3298 -0.4433 -0.5995
  251MOL0     O33024   2.924   1.302   8.799  0.1573 -0.2820 -0.0642
  251MOL0     C33025   3.052   1.329   8.760 -0.9363  0.0027 -0.3522
  251MOL0     C33026   3.140   1.237   8.693 -0.4651  0.5355 -0.3929
  251MOL0     C33027   3.258   1.280   8.622 -0.9332  0.2421  0.3989
  251MOL0     C33028   3.294   1.417   8.620  1.2748  0.9881  0.1026
  251MOL0     C33029   3.417   1.471   8.574 -0.1057  0.6822  0.5474
  251MOL0     O33030   3.491   1.382   8.493 -0.4620  0.7709 -0.3194
  251MOL0     C33031   3.617   1.418   8.466  0.6543  0.1619 -0.2199
  251MOL0     C33032   3.713   1.411   8.571  0.5142 -0.6645 -0.5890
  251MOL0     C33033   3.849   1.426   8.539  0.5378  0.0516 -1.1887
  251MOL0     C33034   3.898   1.457   8.415  0.1229  0.2782  1.0172
  251MOL0     O33035   4.028   1.478   8.376  0.8311 -0.1231  0.5642
  251MOL0     C33036   4.125   1.398   8.442  0.3992  0.5779 -0.2581
  251MOL0     C33037   4.198   1.454   8.561 -0.6207  0.8649 -0.7007
  251MOL0     C33038   4.274   1.587   8.529  0.5070 -0.1786 -0.2755
  251MOL0     C33039   4.404   1.595   8.615  0.4297 -0.1386 -0.0199
  251MOL0     C33040   4.446   1.738   8.615 -0.7494 -0.4952 -0.4513
  251MOL0     C33041   4.582   1.743   8.691 -0.5276  0.0390 -0.3547
  251MOL0     C33042   4.676   1.851   8.643 -0.0314  0.5718 -0.6797
  251MOL0     C33043   4.810   1.851   8.725  0.1300  0.9091 -0.6228
  251MOL0    Cl33044   4.775   1.851   8.897  0.2072  0.0363  0.1761
  251MOL0     C33045   3.801   1.472   8.318  1.0694 -0.2239 -0.5973
  251MOL0     C33046   3.662   1.457   8.341  0.0913 -0.2912  0.1575
  251MOL0     O33047   3.457   1.582   8.610 -0.0377  0.0027  0.0558
  251MOL0     C33048   3.208   1.501   8.697 -0.2427 -0.3256  1.0504
  251MOL0     C33049   3.092   1.459   8.767 -1.0084 -0.2595  0.1642
  251MOL0     N33050   2.451   1.111   9.205 -0.2389 -1.0449 -0.4699
  251MOL0     N33051   2.449   1.022   9.300  0.9263 -1.0350  0.4723
  251MOL0     C33052   3.609   0.824   9.452 -0.2210  0.2908 -0.7756
  251MOL0     C33053   3.747   0.825   9.423 -0.1278  0.4703  0.7360
  251MOL0     C33054   4.115   0.901   9.165 -0.1630 -0.0730  0.2582
  251MOL0     C33055   4.166   0.829   9.050 -0.3655 -0.1484  0.1806
  251MOL0     C33056   4.306   0.817   9.032 -0.4640 -0.9630  0.1384
  251MOL0     C33057   4.398   0.883   9.112  0.1100 -0.6504 -0.3234
  251MOL0     O33058   4.532   0.883   9.096 -0.4922 -0.6153 -0.0885
  251MOL0     C33059   4.593   0.849   8.969  1.3436 -0.4168  0.2567
  251MOL0     C33060   4.731   0.913   8.963  0.6103  0.4135  0.5144
  251MOL0     C33061   4.820   0.835   9.055 -0.5997 -0.8223  0.9733
  251MOL0     C33062   4.967   0.819   9.005  0.4357 -0.0877  0.1992
  251MOL0     C33063   5.038   0.726   9.090 -1.0371 -0.2520 -0.3639
  251MOL0     C33064   5.116   0.662   9.159  0.7351  0.2808  0.5638
  251MOL0     C33065   4.339   0.970   9.205  0.5093  0.2076 -0.1276
  251MOL0     C33066   4.202   0.974   9.239 -0.0099  0.5255 -0.6134
  251MOL0     H33067   3.755   1.141   9.273  0.1485  0.8559  0.4631
  251MOL0     H33068   3.530   1.130   9.324  0.4182  0.4829  0.1791
  251MOL0     H33069   3.353   0.736   9.365  1.4080 -0.0394 -0.9502
  251MOL0     H33070   3.300   0.871   9.286  3.8520 -0.5141 -0.6058
  251MOL0     H33071   3.136   0.944   9.445 -1.1037 -1.1668  0.0614
  251MOL0     H33072   3.185   0.828   9.563 -0.9806  0.3558  0.1496
  251MOL0     H33073   3.104   0.638   9.401 -1.4615 -0.5185  0.1154
  251MOL0     H33074   3.074   0.757   9.282  2.4844 -1.1260 -0.1888
  251MOL0     H33075   2.928   0.746   9.554 -0.7074 -2.0340 -0.7194
  251MOL0     H33076   2.917   0.883   9.463 -1.4987 -1.2928  5.1687
  251MOL0     H33077   2.846   0.601   9.355  0.9929 -1.0413 -0.8895
  251MOL0     H33078   2.856   0.728   9.247 -0.0180  1.9595  0.2091
  251MOL0     H33079   2.691   0.860   9.384 -2.0373  0.7126  0.6444
  251MOL0     H33080   2.685   0.727   9.512  0.7373  0.0103 -0.1007
  251MOL0     H33081   2.630   0.646   9.221  1.4619  0.7403 -0.8014
  251MOL0     H33082   2.563   0.585   9.356 -1.8113  0.3361 -0.2739
  251MOL0     H33083   2.426   0.796   9.409  0.8532 -1.0871  1.1917
  251MOL0     H33084   2.380   0.727   9.255  0.9466 -2.1358  0.5135
  251MOL0     H33085   2.581   0.848   9.056  1.9652  0.1021  2.1132
  251MOL0     H33086   2.546   1.254   9.003  3.3090  0.2735 -0.3938
  251MOL0     H33087   2.479   1.130   8.900  0.4715 -0.4270  0.1104
  251MOL0     H33088   2.728   1.020   8.932  0.0089  0.2044  1.9526
  251MOL0     H33089   2.759   1.177   8.995 -1.6213 -0.4638  1.6127
  251MOL0     H33090   2.669   1.119   8.698  2.7749 -0.7444  0.4135
  251MOL0     H33091   2.675   1.281   8.769 -0.1426  0.4306  1.4616
  251MOL0     H33092   2.880   1.194   8.625 -1.3558  1.0955 -0.7617
  251MOL0     H33093   2.920   1.103   8.776  1.6478 -1.9229 -4.7453
  251MOL0     H33094   3.114   1.132   8.692 -1.8575  0.7832  2.2762
  251MOL0     H33095   3.321   1.210   8.568  3.8025  2.3408  2.6051
  251MOL0     H33096   3.683   1.392   8.674  0.0726 -0.1738 -0.6277
  251MOL0     H33097   3.908   1.417   8.630 -0.6537  0.0527 -0.4023
  251MOL0     H33098   4.196   1.363   8.366 -1.3953 -1.3370 -1.1289
  251MOL0     H33099   4.068   1.316   8.485  1.8451 -0.4258 -0.1860
  251MOL0     H33100   4.281   1.388   8.589 -1.6832  0.5024  1.8217
  251MOL0     H33101   4.136   1.468   8.650 -0.4623  3.6789 -0.9270
  251MOL0     H33102   4.205   1.672   8.533  1.3773  0.6019 -1.2159
  251MOL0     H33103   4.312   1.573   8.427  0.1374 -2.5348 -0.1482
  251MOL0     H33104   4.381   1.563   8.718 -0.2185 -2.9771 -0.9464
  251MOL0     H33105   4.481   1.537   8.564 -1.9749 -2.8547 -0.8542
  251MOL0     H33106   4.376   1.804   8.667  0.4494 -0.1589  0.8181
  251MOL0     H33107   4.462   1.761   8.510  2.5473 -1.7485 -0.3384
  251MOL0     H33108   4.634   1.648   8.674  2.7825  1.4952  0.8086
  251MOL0     H33109   4.557   1.749   8.797 -0.0727  1.4663 -0.3096
  251MOL0     H33110   4.689   1.843   8.535 -3.8211  2.3047 -1.4278
  251MOL0     H33111   4.628   1.947   8.666  1.7038  1.5691 -0.9636
  251MOL0     H33112   4.872   1.937   8.698 -0.3307  1.9383  1.3684
  251MOL0     H33113   4.865   1.757   8.718 -2.8731 -1.0187 -0.1926
  251MOL0     H33114   3.832   1.495   8.216  0.3443 -3.2646 -1.6147
  251MOL0     H33115   3.591   1.473   8.260 -0.2437 -2.8872 -0.1476
  251MOL0     H33116   3.231   1.607   8.706 -0.7454 -0.2854  2.0015
  251MOL0     H33117   3.034   1.535   8.818 -0.1402  0.6230 -0.1406
  251MOL0     H33118   3.576   0.737   9.508  2.7742 -1.0269 -0.8876
  251MOL0     H33119   3.812   0.741   9.444 -0.6091  0.1474  0.9496
  251MOL0     H33120   4.096   0.767   8.994  0.0154  0.4715 -1.0058
  251MOL0     H33121   4.340   0.773   8.939  1.5068 -1.1520  0.9007
  251MOL0     H33122   4.534   0.885   8.884  0.5753 -0.9687  0.5422
  251MOL0     H33123   4.603   0.740   8.966 -1.9660 -0.8170 -0.8550
  251MOL0     H33124   4.763   0.915   8.859 -1.3224 -3.1703 -0.3143
  251MOL0     H33125   4.712   1.013   9.003 -1.4708  0.7304 -1.0680
  251MOL0     H33126   4.781   0.733   9.064  0.3588 -1.1490  1.5844
  251MOL0     H33127   4.818   0.880   9.155  2.4939 -1.0746  1.2302
  251MOL0     H33128   4.955   0.781   8.903  1.0291 -0.6630  0.3393
  251MOL0     H33129   5.023   0.912   9.006  3.5119 -1.8231  0.5365
  251MOL0     H33130   5.184   0.600   9.214 -0.1603 -1.6011 -0.3643
  251MOL0     H33131   4.410   1.040   9.248 -0.9986  2.4339 -1.0681
  251MOL0     H33132   4.165   1.041   9.316  3.1849  1.4399  0.2616
  252MOL0     O33133   9.302   4.939   0.121  0.7902 -0.6918  0.8841
  252MOL0     C33134   9.280   4.839   0.184  0.1298 -0.1975  0.4436
  252MOL0     O33135   9.188   4.829   0.271  0.4776  0.6300  0.1087
  252MOL0     C33136   9.104   4.932   0.306 -0.2342 -0.8077 -0.4458
  252MOL0     C33137   8.979   4.885   0.341 -0.9520  0.3140  0.0276
  252MOL0     C33138   8.867   4.970   0.372 -0.4921  0.2642  0.0655
  252MOL0     C33139   8.887   5.109   0.377  0.4808 -0.1581 -0.0224
  252MOL0     O33140   8.777   5.178   0.419  0.8946  0.4085 -0.2200
  252MOL0     C33141   8.801   5.313   0.466  0.7210  0.5291  0.4641
  252MOL0     C33142   8.669   5.365   0.524  0.5958 -0.5859  0.1224
  252MOL0     C33143   8.552   5.401   0.441 -0.0882 -0.2074 -0.3255
  252MOL0     C33144   8.477   5.280   0.381 -0.0175 -0.2662 -0.5926
  252MOL0     C33145   8.336   5.310   0.322  0.1185  0.6748  0.4861
  252MOL0     C33146   8.301   5.433   0.254  0.5157  0.0574 -0.9659
  252MOL0     C33147   8.395   5.468   0.140  0.1651 -0.1470  0.1614
  252MOL0     C33148   8.363   5.611   0.084 -0.8895 -0.4851  0.3549
  252MOL0     N33149   8.251   5.616  -0.015  1.0229 -0.1291 -0.3384
  252MOL0     C33150   8.244   5.553  -0.132  0.3936 -0.2029  0.7532
  252MOL0     C33151   8.114   5.531  -0.157  0.9080 -0.3767  0.7315
  252MOL0     C33152   8.047   5.462  -0.277 -1.0096 -0.1608  0.3217
  252MOL0     C33153   8.123   5.502  -0.403  0.5195 -0.1073  0.8565
  252MOL0     C33154   8.044   5.458  -0.527 -0.1357  0.6706 -0.4047
  252MOL0     C33155   8.137   5.414  -0.649 -0.2456  0.1470  0.3045
  252MOL0     O33156   8.255   5.501  -0.655  0.0676 -0.5157  0.2161
  252MOL0     C33157   8.382   5.452  -0.650 -0.6322  0.4967  0.4704
  252MOL0     C33158   8.416   5.336  -0.582  0.2690 -0.2240 -0.1864
  252MOL0     C33159   8.544   5.302  -0.543  0.1210  0.3061 -0.6681
  252MOL0     C33160   8.651   5.395  -0.570  0.1380  0.4720  0.2884
  252MOL0     C33161   8.790   5.359  -0.546 -0.2771  0.3847 -0.0436
  252MOL0     O33162   8.873   5.466  -0.544 -0.1639  0.1614  0.3643
  252MOL0     C33163   9.010   5.448  -0.518 -0.3483 -0.5506 -0.3040
  252MOL0     C33164   9.103   5.542  -0.571 -0.0196  0.4368  0.0258
  252MOL0     C33165   9.239   5.533  -0.541  0.3720  0.0661 -0.7373
  252MOL0     C33166   9.293   5.434  -0.467  0.4575  0.3314 -0.3213
  252MOL0     O33167   9.421   5.430  -0.414  0.1105  0.0571  0.2310
  252MOL0     C33168   9.511   5.546  -0.434  0.2833 -0.1669 -0.2525
  252MOL0     C33169   9.596   5.528  -0.559 -1.7868 -0.1857 -0.4641
  252MOL0     C33170   9.728   5.607  -0.552  0.2769 -0.4599  0.1473
  252MOL0     C33171   9.794   5.622  -0.689 -0.2112  0.3812 -0.8408
  252MOL0     C33172   9.933   5.678  -0.663  0.3805  0.2988  0.4225
  252MOL0     C33173   9.998   5.711  -0.799  0.2610 -0.7739  0.1733
  252MOL0     C33174  10.145   5.738  -0.775  0.0832 -0.2531 -0.3551
  252MOL0     C33175  10.218   5.794  -0.895 -0.0345 -0.5176  0.0994
  252MOL0    Cl33176  10.170   5.704  -1.041  0.7413  0.2482 -0.0681
  252MOL0     C33177   9.202   5.347  -0.402 -0.3137  0.9417  0.0815
  252MOL0     C33178   9.064   5.356  -0.423 -0.1645 -0.8166  0.0877
  252MOL0     O33179   8.818   5.238  -0.558  0.6164  0.3825  0.0406
  252MOL0     C33180   8.624   5.518  -0.635 -0.2130  0.2110  0.8000
  252MOL0     C33181   8.495   5.532  -0.686  0.1943  0.0430 -0.9649
  252MOL0     N33182   8.041   5.578  -0.051  0.8041  1.0718  0.0695
  252MOL0     N33183   8.116   5.631   0.030 -0.4764  0.1349 -0.0770
  252MOL0     C33184   9.012   5.161   0.334 -0.2385 -1.0436  0.1055
  252MOL0     C33185   9.118   5.079   0.297 -0.1197 -0.0155  0.2940
  252MOL0     C33186   9.375   4.723   0.163 -0.2218 -0.5037  0.5475
  252MOL0     C33187   9.500   4.733   0.089  0.5490 -0.0530 -0.1959
  252MOL0     C33188   9.594   4.625   0.077  0.2851  0.3214  0.2680
  252MOL0     C33189   9.570   4.511   0.157 -0.0767  0.5038  0.0715
  252MOL0     O33190   9.653   4.402   0.156 -0.1875 -0.2851  0.3545
  252MOL0     C33191   9.645   4.319   0.269  0.0815 -0.0142  0.5206
  252MOL0     C33192   9.754   4.221   0.291  0.6987  0.7963  0.6251
  252MOL0     C33193   9.891   4.282   0.327 -0.2706  0.6125 -0.4764
  252MOL0     C33194   9.891   4.358   0.457  0.0368  0.0536  0.3428
  252MOL0     C33195   9.862   4.274   0.568 -0.2417  0.6702 -0.2785
  252MOL0     C33196   9.847   4.182   0.654  0.9378  0.9173  0.7409
  252MOL0     C33197   9.451   4.504   0.239 -0.6745  0.2088 -0.1094
  252MOL0     C33198   9.355   4.611   0.242  0.4641 -0.4274  0.6120
  252MOL0     H33199   8.973   4.777   0.353  3.9512 -0.3800 -1.7145
  252MOL0     H33200   8.772   4.926   0.400  0.8670 -1.2313  2.6018
  252MOL0     H33201   8.829   5.380   0.385 -2.4733  0.9201 -0.4405
  252MOL0     H33202   8.881   5.309   0.541  0.1320 -0.7671  1.0635
  252MOL0     H33203   8.686   5.465   0.565 -1.5773  0.1845 -0.7054
  252MOL0     H33204   8.632   5.308   0.611 -0.1033  0.1144  0.2981
  252MOL0     H33205   8.574   5.476   0.364  0.8954  0.3385  0.4590
  252MOL0     H33206   8.489   5.452   0.514  1.3068  1.5433 -0.2606
  252MOL0     H33207   8.543   5.238   0.305  1.2773  3.0250 -1.4576
  252MOL0     H33208   8.470   5.200   0.456  4.2142 -0.6550 -0.4128
  252MOL0     H33209   8.274   5.316   0.413 -0.5400  0.3569  0.0603
  252MOL0     H33210   8.318   5.225   0.256 -0.2867  1.2886 -0.2176
  252MOL0     H33211   8.309   5.513   0.328  0.1234  0.4595 -1.3517
  252MOL0     H33212   8.200   5.415   0.216  0.1705  2.5447 -1.3478
  252MOL0     H33213   8.496   5.451   0.177  0.4204 -0.2552 -0.5771
  252MOL0     H33214   8.375   5.393   0.063  0.6990 -3.0153  2.5952
  252MOL0     H33215   8.449   5.654   0.031 -0.9694 -2.5932 -1.6253
  252MOL0     H33216   8.334   5.679   0.165  1.2547 -3.0630  3.5038
  252MOL0     H33217   8.331   5.521  -0.189  1.2461  1.7934  0.8460
  252MOL0     H33218   7.943   5.496  -0.276 -0.5274  1.4792  3.0913
  252MOL0     H33219   8.047   5.353  -0.265 -3.7824 -0.0441  2.1490
  252MOL0     H33220   8.215   5.444  -0.400  0.2983 -0.3993  2.1717
  252MOL0     H33221   8.144   5.610  -0.401  1.5307 -0.2714  4.1924
  252MOL0     H33222   7.995   5.364  -0.501  0.3927  0.1750 -1.1455
  252MOL0     H33223   7.973   5.536  -0.556 -2.3232 -0.6623  1.0683
  252MOL0     H33224   8.081   5.431  -0.742 -1.7560  1.7205  1.4357
  252MOL0     H33225   8.178   5.313  -0.645 -1.1753 -0.5027 -3.2491
  252MOL0     H33226   8.343   5.263  -0.549 -1.2565  1.8649  1.2441
  252MOL0     H33227   8.569   5.208  -0.494  2.3877  1.8354  1.4045
  252MOL0     H33228   9.065   5.620  -0.636 -1.8960  0.9974  1.6960
  252MOL0     H33229   9.305   5.605  -0.590  1.9703 -1.2814 -0.6491
  252MOL0     H33230   9.576   5.559  -0.347 -0.0710  1.4939 -0.1991
  252MOL0     H33231   9.455   5.639  -0.440 -1.4145 -1.1988 -1.3398
  252MOL0     H33232   9.536   5.577  -0.636 -2.9490 -0.5349  0.1815
  252MOL0     H33233   9.610   5.424  -0.589 -0.9749 -0.2996  0.2885
  252MOL0     H33234   9.791   5.556  -0.479  2.0679  0.8354 -0.4483
  252MOL0     H33235   9.706   5.710  -0.523  0.4876  0.9131 -3.9567
  252MOL0     H33236   9.810   5.527  -0.741 -0.7501  0.8430 -1.8827
  252MOL0     H33237   9.726   5.677  -0.755 -0.3123  0.5186 -0.6237
  252MOL0     H33238   9.997   5.608  -0.609 -0.1747 -1.4444 -1.0523
  252MOL0     H33239   9.926   5.769  -0.603 -3.1173 -0.6659  1.7275
  252MOL0     H33240   9.949   5.800  -0.840  1.1790 -0.3460 -0.0232
  252MOL0     H33241   9.997   5.622  -0.864 -0.3654 -0.4113 -0.3308
  252MOL0     H33242  10.155   5.813  -0.696  0.5571  1.8511 -2.2987
  252MOL0     H33243  10.198   5.647  -0.745  0.4037 -0.3981 -1.3483
  252MOL0     H33244  10.326   5.785  -0.880  0.0122 -1.3152 -0.5921
  252MOL0     H33245  10.202   5.899  -0.921  3.1354  0.1856  0.4789
  252MOL0     H33246   9.235   5.276  -0.327 -0.8628  1.4010  0.7644
  252MOL0     H33247   8.994   5.296  -0.367 -0.9958 -1.0984 -1.2055
  252MOL0     H33248   8.710   5.574  -0.674  1.4470 -3.1637 -0.8353
  252MOL0     H33249   8.474   5.622  -0.743 -2.0482 -1.0521 -1.9730
  252MOL0     H33250   9.023   5.268   0.331  0.2469 -1.1086 -1.5290
  252MOL0     H33251   9.206   5.138   0.273  0.3913  0.3046  2.6938
  252MOL0     H33252   9.508   4.820   0.025  1.0857  0.2028  0.2129
  252MOL0     H33253   9.675   4.629   0.005 -0.1390  2.3388 -0.1375
  252MOL0     H33254   9.554   4.261   0.250  0.0312  0.4980 -0.8772
  252MOL0     H33255   9.646   4.382   0.359  0.3522 -2.0358  2.0097
  252MOL0     H33256   9.723   4.151   0.370  1.6958  0.9904  1.2164
  252MOL0     H33257   9.769   4.161   0.201  0.8118  0.2157  1.0201
  252MOL0     H33258   9.932   4.343   0.246 -1.9833  0.3548 -1.5754
  252MOL0     H33259   9.972   4.209   0.335 -0.7427  0.0866 -0.4282
  252MOL0     H33260   9.992   4.398   0.475  0.3545 -1.0662  1.1895
  252MOL0     H33261   9.821   4.442   0.457  0.5447  0.4853  0.8622
  252MOL0     H33262   9.831   4.102   0.724 -2.8112  1.1158  0.3197
  252MOL0     H33263   9.418   4.413   0.289 -2.7802  2.5503  3.1281
  252MOL0     H33264   9.257   4.603   0.288  1.4595  2.0661  3.4739
  253MOL0     O33265   1.222   8.170   8.330  0.6826 -0.6530  0.1885
  253MOL0     C33266   1.304   8.165   8.423  0.4551  0.3169  0.0076
  253MOL0     O33267   1.401   8.258   8.453 -0.2091 -0.5214  0.1607
  253MOL0     C33268   1.397   8.373   8.383 -0.5168 -0.8675 -0.5820
  253MOL0     C33269   1.297   8.470   8.415 -0.4356 -0.5429  0.3664
  253MOL0     C33270   1.298   8.596   8.348 -0.0659  0.8650 -0.0200
  253MOL0     C33271   1.398   8.621   8.251 -0.0309  0.1176  0.7049
  253MOL0     O33272   1.389   8.743   8.195 -0.4948  0.2849  0.3688
  253MOL0     C33273   1.496   8.811   8.132 -0.3351  0.6338 -0.3895
  253MOL0     C33274   1.480   8.966   8.133 -0.6918 -0.6957 -0.0877
  253MOL0     C33275   1.540   9.009   8.272 -0.5711 -0.1242 -0.4925
  253MOL0     C33276   1.598   9.153   8.258  0.2403  0.0284  0.4869
  253MOL0     C33277   1.674   9.187   8.389  0.1694 -0.5872 -0.2832
  253MOL0     C33278   1.730   9.320   8.403  0.1223  0.0438  0.0469
  253MOL0     C33279   1.815   9.328   8.530  0.5997 -0.5159  0.6605
  253MOL0     C33280   1.831   9.472   8.576 -0.7721 -0.0332  0.5374
  253MOL0     N33281   1.716   9.508   8.654  0.0914 -0.6585 -0.2568
  253MOL0     C33282   1.716   9.516   8.793 -0.4975  0.2286  1.0224
  253MOL0     C33283   1.585   9.553   8.817  0.3452 -0.3103 -0.2696
  253MOL0     C33284   1.527   9.575   8.956 -0.7338  0.3138  0.4351
  253MOL0     C33285   1.386   9.529   8.969 -0.4863  0.4136 -0.1894
  253MOL0     C33286   1.376   9.375   8.970  0.0013  0.1719  0.8223
  253MOL0     C33287   1.225   9.324   8.952 -0.5960 -0.5245 -0.4616
  253MOL0     O33288   1.136   9.371   9.062  0.2933 -0.4639 -0.1251
  253MOL0     C33289   0.998   9.368   9.022  0.3707 -0.6849 -0.2898
  253MOL0     C33290   0.944   9.452   8.922  0.6651  0.6622  0.1935
  253MOL0     C33291   0.806   9.452   8.903 -0.0123 -0.4324 -0.0924
  253MOL0     C33292   0.717   9.365   8.975 -0.3186  0.3172 -0.5876
  253MOL0     C33293   0.574   9.367   8.941  0.3058  0.4047 -0.9549
  253MOL0     O33294   0.502   9.287   9.022 -0.8469 -0.2946  0.7303
  253MOL0     C33295   0.391   9.227   8.969  0.0908 -0.5163  0.7687
  253MOL0     C33296   0.387   9.087   8.955  0.1963 -0.4769  0.4656
  253MOL0     C33297   0.270   9.024   8.911 -1.0917  0.6035 -0.2324
  253MOL0     C33298   0.167   9.092   8.870 -0.9333 -0.1785 -0.5496
  253MOL0     O33299   0.055   9.019   8.835 -1.1197 -0.3710 -0.5904
  253MOL0     C33300  -0.071   9.061   8.895  0.8806 -0.6111 -0.0219
  253MOL0     C33301  -0.156   8.937   8.888  0.4799 -0.8551 -0.2599
  253MOL0     C33302  -0.297   8.975   8.950  0.6154 -0.2413 -0.9532
  253MOL0     C33303  -0.346   8.863   9.038  0.8463 -0.2388  0.3749
  253MOL0     C33304  -0.481   8.905   9.099 -0.8279  0.5019 -0.0759
  253MOL0     C33305  -0.596   8.871   9.001 -0.2249  0.7073 -0.2021
  253MOL0     C33306  -0.722   8.932   9.045 -0.1092  0.9513  0.3033
  253MOL0     C33307  -0.837   8.843   9.010 -0.5998  0.0480  0.0397
  253MOL0    Cl33308  -0.994   8.936   9.020 -0.3071 -0.0261  0.3030
  253MOL0     C33309   0.170   9.235   8.876 -0.3050 -0.8575 -0.6891
  253MOL0     C33310   0.281   9.302   8.928 -1.2800  0.5293  1.2351
  253MOL0     O33311   0.533   9.415   8.831  0.1087 -0.0040  0.1709
  253MOL0     C33312   0.776   9.273   9.067 -0.6013  0.2810 -0.0067
  253MOL0     C33313   0.917   9.279   9.099  0.9261 -0.0892 -0.3430
  253MOL0     N33314   1.516   9.581   8.695  0.3547  0.2108 -0.5103
  253MOL0     N33315   1.600   9.554   8.607 -1.3153 -0.3264 -0.0939
  253MOL0     C33316   1.499   8.522   8.230  0.3298 -0.0581  0.9445
  253MOL0     C33317   1.504   8.404   8.293 -0.0385 -0.1199 -1.1939
  253MOL0     C33318   1.302   8.051   8.520  0.5194 -0.3990 -1.4284
  253MOL0     C33319   1.393   8.045   8.626  0.2021  0.1466 -0.5135
  253MOL0     C33320   1.388   7.935   8.707  0.6453 -0.3463 -0.1920
  253MOL0     C33321   1.284   7.848   8.706 -0.6129  0.4082 -0.6982
  253MOL0     O33322   1.279   7.764   8.818 -0.4390  0.0908  0.2851
  253MOL0     C33323   1.152   7.694   8.843  0.0389  0.3144 -0.5883
  253MOL0     C33324   1.160   7.611   8.976  0.2756 -0.3627  0.1980
  253MOL0     C33325   1.250   7.493   8.955 -0.0309 -0.2452  1.2152
  253MOL0     C33326   1.246   7.394   9.070  0.9129  0.9929 -0.1570
  253MOL0     C33327   1.111   7.343   9.091 -0.2452  0.2105  0.7349
  253MOL0     C33328   1.001   7.330   9.118 -0.3167 -1.2672 -0.2419
  253MOL0     C33329   1.192   7.861   8.598  0.7618  0.3179  0.2072
  253MOL0     C33330   1.200   7.959   8.507  0.4993  0.3140 -0.1005
  253MOL0     H33331   1.206   8.459   8.472 -1.3946 -2.8988 -1.4296
  253MOL0     H33332   1.223   8.670   8.374 -0.5534  0.4839 -0.3305
  253MOL0     H33333   1.503   8.782   8.026  1.1561  0.0466 -0.1617
  253MOL0     H33334   1.592   8.781   8.176 -0.8050 -0.4140 -0.0608
  253MOL0     H33335   1.378   9.004   8.131 -0.4018  0.1120  0.2219
  253MOL0     H33336   1.538   9.008   8.051  1.5895 -0.7651  1.4067
  253MOL0     H33337   1.621   8.943   8.305 -0.8986 -1.5084 -2.2601
  253MOL0     H33338   1.463   9.010   8.350 -1.9666  0.2978 -1.8143
  253MOL0     H33339   1.676   9.166   8.183 -0.4189 -4.7993 -1.3899
  253MOL0     H33340   1.522   9.229   8.235  1.2014  1.0864  0.7205
  253MOL0     H33341   1.759   9.119   8.387  0.6733  0.0470 -2.0491
  253MOL0     H33342   1.619   9.154   8.478  0.3210  1.0901  0.4591
  253MOL0     H33343   1.654   9.398   8.401 -0.7091 -0.7575 -1.1303
  253MOL0     H33344   1.796   9.320   8.316 -0.9797 -0.4039 -0.8167
  253MOL0     H33345   1.768   9.270   8.610  1.5474  2.6209  3.7679
  253MOL0     H33346   1.918   9.299   8.506  0.7633 -0.7898  1.6434
  253MOL0     H33347   1.831   9.539   8.489 -4.8447 -1.9058 -1.1396
  253MOL0     H33348   1.927   9.493   8.625 -1.7076  0.9227  2.0357
  253MOL0     H33349   1.800   9.486   8.855 -1.4027  0.6790  2.5193
  253MOL0     H33350   1.524   9.683   8.976 -0.4728  0.8275 -1.9760
  253MOL0     H33351   1.601   9.527   9.021  0.6727  1.1629 -0.4743
  253MOL0     H33352   1.319   9.575   8.895  0.5527  0.1305 -1.3401
  253MOL0     H33353   1.352   9.569   9.064 -1.4180  0.9816 -0.7454
  253MOL0     H33354   1.427   9.331   8.884  1.7699  5.4659 -1.2353
  253MOL0     H33355   1.411   9.328   9.063  0.5334 -1.3849 -0.1355
  253MOL0     H33356   1.215   9.215   8.949 -5.6312 -0.3512  0.9835
  253MOL0     H33357   1.191   9.358   8.854 -1.2326  0.3668  0.0557
  253MOL0     H33358   1.007   9.526   8.874  2.0727  0.1216  1.1357
  253MOL0     H33359   0.765   9.532   8.841 -3.4247 -0.6558  1.6684
  253MOL0     H33360   0.473   9.027   8.984  0.1653 -1.0756 -0.6021
  253MOL0     H33361   0.277   8.916   8.917  1.7236  0.3562 -4.4080
  253MOL0     H33362  -0.111   9.146   8.839  0.1034 -0.2272  1.0875
  253MOL0     H33363  -0.057   9.098   8.997 -2.3250  1.1620 -0.0909
  253MOL0     H33364  -0.102   8.872   8.956  1.3827 -2.5086 -2.4497
  253MOL0     H33365  -0.170   8.893   8.789 -0.8742 -0.5590 -0.2251
  253MOL0     H33366  -0.373   8.978   8.872 -2.7931 -1.3641  2.0698
  253MOL0     H33367  -0.285   9.074   8.995 -0.5822  0.4087 -2.0116
  253MOL0     H33368  -0.369   8.771   8.984  0.5833  0.0847 -0.0684
  253MOL0     H33369  -0.278   8.836   9.120 -0.5286 -0.5585  1.4541
  253MOL0     H33370  -0.472   9.013   9.109  1.1709  0.2530  1.4680
  253MOL0     H33371  -0.502   8.862   9.197 -0.6226 -1.8256 -0.9735
  253MOL0     H33372  -0.597   8.761   9.007  0.6891  0.7195  0.2401
  253MOL0     H33373  -0.577   8.893   8.896  0.5229  1.4796  0.0929
  253MOL0     H33374  -0.721   8.929   9.154 -0.4059 -1.3321  0.2790
  253MOL0     H33375  -0.728   9.037   9.014  2.9825  1.7404  1.9692
  253MOL0     H33376  -0.835   8.759   9.080  0.0864 -1.6502 -1.9084
  253MOL0     H33377  -0.828   8.794   8.912 -0.4193 -0.5883  0.3740
  253MOL0     H33378   0.090   9.294   8.832 -0.6461 -0.2671  0.6690
  253MOL0     H33379   0.287   9.410   8.932  1.6744  0.4719  0.5645
  253MOL0     H33380   0.713   9.192   9.103  1.0612 -1.1493 -0.1611
  253MOL0     H33381   0.944   9.215   9.183 -2.4530 -2.1644 -0.6216
  253MOL0     H33382   1.576   8.544   8.156 -0.6940 -0.0648 -0.1590
  253MOL0     H33383   1.574   8.324   8.269  1.0164  0.8702 -1.5344
  253MOL0     H33384   1.483   8.106   8.630  0.3070  0.2714 -2.9174
  253MOL0     H33385   1.462   7.938   8.787 -0.3619  0.6335  0.7393
  253MOL0     H33386   1.134   7.623   8.762 -1.7464  0.0551 -0.0078
  253MOL0     H33387   1.069   7.766   8.845 -0.1284  0.1214 -0.5651
  253MOL0     H33388   1.200   7.678   9.052  0.3326  1.1970 -1.1392
  253MOL0     H33389   1.056   7.587   9.000  0.1161  0.1347  0.0145
  253MOL0     H33390   1.353   7.523   8.935 -1.0419  1.7264 -1.8653
  253MOL0     H33391   1.227   7.441   8.861  0.3961  2.7974 -0.7128
  253MOL0     H33392   1.299   7.302   9.046 -3.1255 -1.2186 -1.5128
  253MOL0     H33393   1.284   7.441   9.161 -0.1505 -0.6017  1.1634
  253MOL0     H33394   0.898   7.335   9.149  0.3535 -0.0522  1.9728
  253MOL0     H33395   1.100   7.804   8.591  2.1772 -2.3706  1.8974
  253MOL0     H33396   1.110   7.963   8.446  0.2762  2.0183  0.2933
  254MOL0     O33397   2.797   5.027   0.462 -0.4726 -0.5549  0.3644
  254MOL0     C33398   2.870   5.104   0.526 -0.1765  0.9738 -0.3431
  254MOL0     O33399   2.830   5.189   0.616 -0.7033  0.0243 -0.3042
  254MOL0     C33400   2.709   5.168   0.684 -0.5469 -0.3919 -0.2173
  254MOL0     C33401   2.640   5.047   0.704 -0.0779  1.0042 -0.3131
  254MOL0     C33402   2.523   5.037   0.778 -0.0259  0.0668 -0.9254
  254MOL0     C33403   2.472   5.154   0.833 -0.4385  0.2221 -0.1654
  254MOL0     O33404   2.349   5.165   0.886  0.7100 -0.2476 -0.4493
  254MOL0     C33405   2.304   5.057   0.962 -0.5823  0.9069  0.4754
  254MOL0     C33406   2.178   5.076   1.045 -0.1703  0.9236  0.6177
  254MOL0     C33407   2.065   5.135   0.958 -0.0516  0.4759  0.6275
  254MOL0     C33408   1.937   5.134   1.047  0.0652  0.5685  0.3424
  254MOL0     C33409   1.825   5.223   0.976  0.4027  0.2011 -0.4850
  254MOL0     C33410   1.689   5.195   1.050 -0.2631 -0.1885 -0.4580
  254MOL0     C33411   1.559   5.256   0.992  0.7224  0.3419 -0.6069
  254MOL0     C33412   1.566   5.401   0.984  0.5575  0.5266  0.7194
  254MOL0     N33413   1.440   5.444   0.926  0.1933 -0.2659 -0.1290
  254MOL0     C33414   1.342   5.527   0.992  0.2234  0.9326  0.8032
  254MOL0     C33415   1.246   5.561   0.903  0.7642  0.0940 -0.0217
  254MOL0     C33416   1.111   5.630   0.923 -0.1053  0.8626  1.0419
  254MOL0     C33417   1.005   5.542   0.862  0.1559  0.6590  0.2099
  254MOL0     C33418   0.866   5.603   0.910 -0.3647 -0.0911 -0.7468
  254MOL0     C33419   0.747   5.511   0.862 -0.0214  0.4612  0.2298
  254MOL0     O33420   0.623   5.575   0.911 -1.1478  0.3749  0.0431
  254MOL0     C33421   0.521   5.504   0.851  0.3764  0.0034  0.6456
  254MOL0     C33422   0.411   5.584   0.842 -0.6901  0.2795  0.2417
  254MOL0     C33423   0.291   5.536   0.789 -0.6758 -0.4120 -0.5715
  254MOL0     C33424   0.276   5.406   0.771  0.8315 -0.4982  0.2133
  254MOL0     C33425   0.158   5.354   0.715  1.5415 -0.1478 -0.0359
  254MOL0     O33426   0.050   5.444   0.676 -0.0875 -0.7209  0.0169
  254MOL0     C33427  -0.074   5.394   0.644 -0.3473  0.9670 -0.1583
  254MOL0     C33428  -0.137   5.260   0.654 -0.1064 -0.0427  0.4365
  254MOL0     C33429  -0.266   5.237   0.603 -0.3363  1.1110 -0.5039
  254MOL0     C33430  -0.347   5.342   0.564  0.9040 -1.2820 -1.0272
  254MOL0     O33431  -0.481   5.330   0.539  0.1283 -0.1411 -0.0616
  254MOL0     C33432  -0.520   5.348   0.411  0.7177 -0.2808  0.3655
  254MOL0     C33433  -0.609   5.471   0.388 -0.5006  0.5721  0.0346
  254MOL0     C33434  -0.740   5.463   0.454  0.6098 -0.4086 -0.0048
  254MOL0     C33435  -0.847   5.368   0.400 -0.2049 -0.5888  0.5992
  254MOL0     C33436  -0.970   5.349   0.486  0.2644  0.4029 -0.3623
  254MOL0     C33437  -0.954   5.250   0.599 -0.1616 -0.1553  0.2384
  254MOL0     C33438  -1.085   5.205   0.660  0.2257 -0.7162 -0.4125
  254MOL0     C33439  -1.173   5.111   0.564 -0.3776 -0.0228  1.1510
  254MOL0    Cl33440  -1.298   5.027   0.652  0.3946  0.0442 -0.6034
  254MOL0     C33441  -0.286   5.468   0.553  0.0058 -0.7196  0.2007
  254MOL0     C33442  -0.160   5.495   0.597 -0.2521  0.9948  0.2608
  254MOL0     O33443   0.136   5.227   0.730  0.2090  0.5108 -0.4477
  254MOL0     C33444   0.379   5.320   0.796 -0.9905  0.2155  0.6934
  254MOL0     C33445   0.506   5.372   0.821  0.0774  0.5309  0.1839
  254MOL0     N33446   1.292   5.500   0.786 -0.2111  0.1863  0.2498
  254MOL0     N33447   1.413   5.440   0.796 -0.3386 -0.6601  0.0003
  254MOL0     C33448   2.538   5.279   0.814 -0.8116  0.6287  0.0758
  254MOL0     C33449   2.654   5.283   0.738 -0.0499  0.1247  0.6198
  254MOL0     C33450   3.007   5.106   0.473  1.3751 -0.3968 -0.0224
  254MOL0     C33451   3.047   5.013   0.373 -0.1807 -0.0572 -0.3779
  254MOL0     C33452   3.180   5.027   0.329 -1.1489  0.0029 -0.2092
  254MOL0     C33453   3.260   5.133   0.367 -0.4635  0.4591  0.6704
  254MOL0     O33454   3.378   5.141   0.304 -0.1362  0.7965  0.2616
  254MOL0     C33455   3.463   5.261   0.317  1.1076 -0.4520 -0.0490
  254MOL0     C33456   3.575   5.255   0.227 -0.2617  0.4270  0.1424
  254MOL0     C33457   3.671   5.369   0.264 -0.2043 -0.4677  0.4096
  254MOL0     C33458   3.801   5.331   0.178  0.1529 -0.1719 -0.2709
  254MOL0     C33459   3.893   5.445   0.165 -0.1785 -0.3388  0.6723
  254MOL0     C33460   3.978   5.535   0.146  0.0863 -0.0278 -0.8352
  254MOL0     C33461   3.207   5.229   0.450  0.8127  0.4887 -0.5214
  254MOL0     C33462   3.082   5.218   0.504  0.8636  0.2380  0.2893
  254MOL0     H33463   2.668   4.952   0.659 -0.9151  0.1996  0.8120
  254MOL0     H33464   2.484   4.936   0.784  1.6470 -0.5714 -0.1008
  254MOL0     H33465   2.378   5.026   1.035  1.1558 -2.4514 -2.4031
  254MOL0     H33466   2.285   4.969   0.900 -0.5309  3.1353 -2.9952
  254MOL0     H33467   2.202   5.137   1.133  3.2458  0.5939  0.0605
  254MOL0     H33468   2.147   4.979   1.085  1.7157 -0.7013 -1.5611
  254MOL0     H33469   2.052   5.092   0.859 -1.1313  0.1783  0.8866
  254MOL0     H33470   2.091   5.240   0.941 -1.9539  0.5972 -2.3153
  254MOL0     H33471   1.906   5.033   1.078 -2.7676  1.1718 -0.3173
  254MOL0     H33472   1.962   5.176   1.145  1.3787 -0.2831  0.4047
  254MOL0     H33473   1.832   5.196   0.870 -1.3797 -0.8302 -0.3764
  254MOL0     H33474   1.848   5.330   0.982  1.5332 -0.1126  2.8564
  254MOL0     H33475   1.699   5.237   1.151  1.0416  1.5384 -1.2516
  254MOL0     H33476   1.680   5.086   1.047  1.1051 -0.2917 -2.4071
  254MOL0     H33477   1.557   5.205   0.895 -0.8953  0.2841 -0.5589
  254MOL0     H33478   1.472   5.224   1.049  1.4799 -0.5196  0.1038
  254MOL0     H33479   1.646   5.435   0.918  0.8637  0.3659  1.0092
  254MOL0     H33480   1.585   5.447   1.081  1.9652 -0.3785  0.8983
  254MOL0     H33481   1.338   5.550   1.098  0.6948 -0.5252  1.1624
  254MOL0     H33482   1.108   5.726   0.871 -0.9668 -0.5666 -1.6995
  254MOL0     H33483   1.084   5.638   1.029  1.0615 -1.3521  1.5720
  254MOL0     H33484   1.007   5.443   0.909 -3.6675  0.8080  1.0444
  254MOL0     H33485   0.998   5.533   0.754 -2.1825  0.7626  0.2897
  254MOL0     H33486   0.857   5.606   1.019 -1.4702  0.0278 -0.8319
  254MOL0     H33487   0.844   5.705   0.877  1.4130  1.7948  3.2799
  254MOL0     H33488   0.762   5.410   0.901 -1.1570 -0.3908 -1.3968
  254MOL0     H33489   0.752   5.504   0.753  0.4837 -0.0036  0.2832
  254MOL0     H33490   0.429   5.687   0.872 -1.0901 -0.0412  1.6471
  254MOL0     H33491   0.209   5.605   0.770 -0.5602 -0.9706 -3.6301
  254MOL0     H33492  -0.076   5.175   0.684  0.9143 -0.2186 -1.9529
  254MOL0     H33493  -0.316   5.141   0.598 -0.9862  1.4717 -1.0411
  254MOL0     H33494  -0.568   5.259   0.368 -0.1789 -0.5724  1.9112
  254MOL0     H33495  -0.426   5.343   0.355  1.1097  0.6160  0.9260
  254MOL0     H33496  -0.637   5.469   0.283 -1.6991 -1.1062  0.3559
  254MOL0     H33497  -0.547   5.558   0.412  0.4528 -0.4698  1.5779
  254MOL0     H33498  -0.781   5.562   0.435 -0.2447 -0.5035  1.2257
  254MOL0     H33499  -0.720   5.447   0.561 -0.0175 -0.4779  0.1044
  254MOL0     H33500  -0.885   5.407   0.305 -1.2787  0.0977  1.2920
  254MOL0     H33501  -0.788   5.280   0.371  2.4345  0.8473  1.3312
  254MOL0     H33502  -1.037   5.311   0.409 -0.1110 -1.0852  0.6554
  254MOL0     H33503  -0.998   5.440   0.539 -0.6842 -0.4696  0.6924
  254MOL0     H33504  -0.892   5.297   0.676 -1.1454 -0.5278  1.2750
  254MOL0     H33505  -0.898   5.166   0.556  1.9179  0.6086  1.3122
  254MOL0     H33506  -1.054   5.129   0.733 -3.2527 -1.1650  0.8015
  254MOL0     H33507  -1.154   5.275   0.709 -1.3582 -2.3992 -0.1336
  254MOL0     H33508  -1.115   5.037   0.509  0.4655  0.3610  1.4958
  254MOL0     H33509  -1.210   5.168   0.478 -0.4027 -1.9278 -0.1454
  254MOL0     H33510  -0.350   5.542   0.506  0.8797  1.5736  2.4043
  254MOL0     H33511  -0.119   5.595   0.592 -0.8917  1.3162  1.2489
  254MOL0     H33512   0.365   5.214   0.781  3.2897 -0.5585  0.7698
  254MOL0     H33513   0.593   5.309   0.835 -1.5438 -1.6902  0.8720
  254MOL0     H33514   2.486   5.370   0.840 -1.1916  0.7345 -1.0215
  254MOL0     H33515   2.702   5.377   0.714 -0.2359 -0.6012 -3.2448
  254MOL0     H33516   2.988   4.926   0.346  1.6425 -1.0635 -1.3276
  254MOL0     H33517   3.233   4.951   0.272  3.1559 -0.1605  3.4518
  254MOL0     H33518   3.497   5.258   0.421  1.2236  0.3104 -0.0576
  254MOL0     H33519   3.414   5.357   0.297  0.0774 -0.2856  2.8720
  254MOL0     H33520   3.614   5.153   0.229 -0.0474  0.4588 -1.0928
  254MOL0     H33521   3.546   5.263   0.121  0.8168  2.5597 -0.0561
  254MOL0     H33522   3.713   5.358   0.364 -1.4575  0.8514  1.1242
  254MOL0     H33523   3.634   5.469   0.240  2.6768  0.2092 -1.7941
  254MOL0     H33524   3.844   5.239   0.221  1.2713  0.3561 -0.2125
  254MOL0     H33525   3.758   5.306   0.081  0.3479 -3.5622  0.3920
  254MOL0     H33526   4.043   5.619   0.134  0.8673 -0.5698 -0.5032
  254MOL0     H33527   3.254   5.325   0.471  0.0824  1.0458 -1.3677
  254MOL0     H33528   3.058   5.283   0.588 -0.4239 -1.2806  1.1474
  255MOL0     O33529   5.277   1.499   8.612 -0.2580 -0.4643 -0.6724
  255MOL0     C33530   5.334   1.440   8.702  0.1895 -0.1949 -0.2460
  255MOL0     O33531   5.328   1.470   8.836 -0.3642 -0.3950 -0.5503
  255MOL0     C33532   5.244   1.576   8.877  0.6661  0.2717  0.6722
  255MOL0     C33533   5.245   1.704   8.818  1.1540  0.0337 -1.4699
  255MOL0     C33534   5.165   1.804   8.872  0.6796  0.6501 -0.9149
  255MOL0     C33535   5.089   1.784   8.983 -0.6074 -0.1514 -0.5053
  255MOL0     O33536   5.019   1.873   9.052  0.0065  0.2516 -0.3344
  255MOL0     C33537   5.026   2.016   9.024  0.8636  0.7640 -0.1297
  255MOL0     C33538   5.148   2.089   9.071  0.0928  0.1753 -0.2854
  255MOL0     C33539   5.137   2.239   9.058 -0.3087 -0.2841  0.8278
  255MOL0     C33540   5.256   2.313   9.115 -0.3225 -0.0293 -0.3377
  255MOL0     C33541   5.259   2.469   9.109  0.5317  0.8886 -0.0820
  255MOL0     C33542   5.176   2.530   9.224  0.3267 -0.1973  0.0805
  255MOL0     C33543   5.200   2.684   9.222 -0.4822 -0.1768 -0.1096
  255MOL0     C33544   5.124   2.766   9.330  0.8965  0.4824 -0.1297
  255MOL0     N33545   4.980   2.774   9.295 -0.6406  0.1777 -0.6721
  255MOL0     C33546   4.939   2.874   9.209 -0.6097 -0.3339 -0.6635
  255MOL0     C33547   4.798   2.880   9.221 -0.2144 -0.2570  0.4510
  255MOL0     C33548   4.709   2.974   9.131  0.3133  0.0956  0.5959
  255MOL0     C33549   4.714   2.940   8.978 -0.3539  0.4427  0.2703
  255MOL0     C33550   4.656   3.059   8.886  0.4209  0.3297 -0.1379
  255MOL0     C33551   4.719   3.065   8.756 -0.4329  0.4530 -0.2492
  255MOL0     O33552   4.687   2.953   8.684 -0.0943 -0.5368  0.2865
  255MOL0     C33553   4.558   2.940   8.624  0.1214  0.0544 -1.0326
  255MOL0     C33554   4.506   3.040   8.549  0.1507 -0.2303 -0.4480
  255MOL0     C33555   4.378   3.028   8.500  1.4133 -1.0691  0.0942
  255MOL0     C33556   4.290   2.919   8.546  0.1290 -0.2743  0.3585
  255MOL0     C33557   4.145   2.894   8.507 -0.5425 -0.2736  0.6950
  255MOL0     O33558   4.064   2.865   8.605 -0.3837 -0.0444  0.1630
  255MOL0     C33559   3.930   2.832   8.586 -0.1038  0.4268  0.4090
  255MOL0     C33560   3.854   2.836   8.694 -0.4166  0.2555 -0.0141
  255MOL0     C33561   3.717   2.836   8.698  0.1004  0.0293  0.3828
  255MOL0     C33562   3.647   2.798   8.580  0.4527 -0.2008  0.4101
  255MOL0     O33563   3.518   2.778   8.575 -0.5535  0.6949  0.5922
  255MOL0     C33564   3.455   2.714   8.677  0.2730  0.5998 -0.0421
  255MOL0     C33565   3.307   2.760   8.682 -0.8374  0.1477  0.4987
  255MOL0     C33566   3.222   2.655   8.755  0.1310  0.0171 -0.6759
  255MOL0     C33567   3.071   2.674   8.749  0.0241 -0.5812  0.0095
  255MOL0     C33568   2.992   2.551   8.681  0.0240  0.1342 -0.4113
  255MOL0     C33569   2.845   2.580   8.686 -0.7699 -0.2619  0.0627
  255MOL0     C33570   2.798   2.668   8.571  0.0610  0.4200  0.7339
  255MOL0     C33571   2.644   2.695   8.567 -0.5971 -0.1889 -0.1951
  255MOL0    Cl33572   2.532   2.541   8.581  0.2086  0.0319  0.0923
  255MOL0     C33573   3.720   2.774   8.461 -0.0342  0.0516 -0.3268
  255MOL0     C33574   3.867   2.794   8.463 -0.4786 -0.0524  0.1446
  255MOL0     O33575   4.111   2.942   8.399  0.2807 -0.9639 -0.4640
  255MOL0     C33576   4.344   2.829   8.638  0.5013 -1.4780 -0.5814
  255MOL0     C33577   4.473   2.830   8.667  0.4790 -0.6597  0.1674
  255MOL0     N33578   4.765   2.776   9.303  0.4851 -0.0119 -0.2447
  255MOL0     N33579   4.877   2.726   9.360 -0.8461  0.5326  0.3191
  255MOL0     C33580   5.080   1.651   9.036  0.2776  0.1889  0.3511
  255MOL0     C33581   5.157   1.546   8.983  0.6521 -0.0941 -0.6692
  255MOL0     C33582   5.420   1.327   8.673  0.3113  0.6684  0.2772
  255MOL0     C33583   5.393   1.239   8.563 -0.0360  0.0676  0.6146
  255MOL0     C33584   5.473   1.124   8.546  0.7983  0.2286  0.1096
  255MOL0     C33585   5.576   1.096   8.630  0.1251  0.3532 -0.0359
  255MOL0     O33586   5.659   0.989   8.601  0.5908  0.0823 -0.0117
  255MOL0     C33587   5.792   0.983   8.655  0.0141 -0.4643  0.0490
  255MOL0     C33588   5.865   0.865   8.585  0.6368 -0.1570  0.0425
  255MOL0     C33589   6.006   0.862   8.635 -1.1045 -0.3510  0.2025
  255MOL0     C33590   6.089   0.974   8.575  0.4368 -0.1075  0.7476
  255MOL0     C33591   6.229   0.931   8.577 -0.5776 -0.0702 -0.3803
  255MOL0     C33592   6.350   0.909   8.598  0.3919 -0.2366 -0.6306
  255MOL0     C33593   5.612   1.183   8.731  0.2015 -0.2415 -0.0572
  255MOL0     C33594   5.529   1.297   8.757  0.4327  0.0840 -0.4134
  255MOL0     H33595   5.306   1.733   8.733  3.1722 -2.5884 -1.0469
  255MOL0     H33596   5.175   1.904   8.829  1.9269  1.2629  0.7097
  255MOL0     H33597   4.948   2.053   9.091  1.7453  0.4202  1.1282
  255MOL0     H33598   4.990   2.040   8.923 -0.1210 -0.6468 -0.1336
  255MOL0     H33599   5.231   2.054   9.008 -1.3818 -3.6251 -0.3913
  255MOL0     H33600   5.166   2.067   9.177 -0.9598  0.8923  0.0612
  255MOL0     H33601   5.049   2.279   9.109 -0.4281  1.4617 -0.6510
  255MOL0     H33602   5.130   2.255   8.950  2.0351 -3.2553  0.0858
  255MOL0     H33603   5.263   2.279   9.219 -0.6137  1.0930  0.0616
  255MOL0     H33604   5.342   2.279   9.057 -1.8143  0.2128 -2.8512
  255MOL0     H33605   5.236   2.499   9.006 -1.5609  1.0214  0.3911
  255MOL0     H33606   5.364   2.497   9.125  0.2507  1.7153  0.3641
  255MOL0     H33607   5.215   2.489   9.317 -2.3653 -2.2032  0.4084
  255MOL0     H33608   5.071   2.502   9.214  0.5294 -0.8117 -0.3597
  255MOL0     H33609   5.305   2.705   9.244 -0.0805 -4.7051  4.0249
  255MOL0     H33610   5.160   2.716   9.125 -1.0793 -0.4997  0.0299
  255MOL0     H33611   5.162   2.868   9.338 -3.4986  2.2398  0.5956
  255MOL0     H33612   5.131   2.706   9.422  1.0240 -1.7775 -1.5387
  255MOL0     H33613   4.993   2.939   9.141  0.0170 -0.2617 -0.1091
  255MOL0     H33614   4.745   3.075   9.152 -1.0102  1.1235 -1.7610
  255MOL0     H33615   4.608   2.966   9.171  0.1621  1.2555  0.4695
  255MOL0     H33616   4.666   2.844   8.955 -1.4826  0.4438  2.4174
  255MOL0     H33617   4.821   2.927   8.959  0.1102 -0.4197  3.0605
  255MOL0     H33618   4.547   3.048   8.880  0.4224  0.7575 -1.1749
  255MOL0     H33619   4.664   3.152   8.943 -0.4099 -0.1805  0.8327
  255MOL0     H33620   4.827   3.079   8.771 -0.7935  5.3534 -0.4088
  255MOL0     H33621   4.679   3.156   8.709 -0.5546  0.1928 -0.6500
  255MOL0     H33622   4.578   3.118   8.526  0.1430 -0.6005 -1.8134
  255MOL0     H33623   4.354   3.111   8.434 -0.2933  0.5241  2.5260
  255MOL0     H33624   3.913   2.848   8.784 -1.5010  2.3477  0.4963
  255MOL0     H33625   3.675   2.854   8.796 -1.2094  0.0067 -0.1625
  255MOL0     H33626   3.489   2.743   8.777  0.7865  0.4068 -0.1560
  255MOL0     H33627   3.450   2.607   8.655  0.8384  0.2282  1.4984
  255MOL0     H33628   3.279   2.772   8.577  1.8273 -1.3954 -0.4805
  255MOL0     H33629   3.300   2.860   8.726 -0.3781  0.1380  0.6085
  255MOL0     H33630   3.247   2.657   8.862 -1.2787  2.5714 -0.3024
  255MOL0     H33631   3.245   2.551   8.732  1.3797 -1.0658  4.2893
  255MOL0     H33632   3.044   2.693   8.853 -2.5369 -2.5798 -0.1878
  255MOL0     H33633   3.053   2.768   8.695  3.4826  1.3758  1.9071
  255MOL0     H33634   3.012   2.468   8.749 -2.5925  1.1017  1.7386
  255MOL0     H33635   3.036   2.518   8.587  0.8764  1.3732 -0.4769
  255MOL0     H33636   2.816   2.618   8.785 -0.0726 -0.6064  0.4020
  255MOL0     H33637   2.793   2.489   8.656 -0.1777 -0.1206 -1.4849
  255MOL0     H33638   2.846   2.766   8.573  0.6495  0.1201  1.5220
  255MOL0     H33639   2.816   2.617   8.476 -1.3493  0.5464  0.3805
  255MOL0     H33640   2.619   2.748   8.475 -2.0609 -0.0927  0.2422
  255MOL0     H33641   2.622   2.749   8.660 -3.5747 -0.7022 -0.5165
  255MOL0     H33642   3.668   2.743   8.371 -1.6851 -0.1229  0.6602
  255MOL0     H33643   3.915   2.797   8.366 -0.3704  4.5523  0.1157
  255MOL0     H33644   4.274   2.759   8.682 -1.0318  0.8556  0.9707
  255MOL0     H33645   4.517   2.768   8.744  1.9299  0.1348  0.0025
  255MOL0     H33646   5.012   1.645   9.120  0.4333  3.6873  0.8480
  255MOL0     H33647   5.143   1.448   9.028  1.5384  0.0353 -0.0620
  255MOL0     H33648   5.320   1.259   8.487  2.3765 -0.8220 -2.1264
  255MOL0     H33649   5.458   1.060   8.460 -0.3974  1.3507 -0.5504
  255MOL0     H33650   5.782   0.969   8.763 -0.4216  0.5021  0.1489
  255MOL0     H33651   5.842   1.079   8.636 -0.4350 -0.4505 -1.1990
  255MOL0     H33652   5.822   0.770   8.617  4.8274 -1.6745  1.9010
  255MOL0     H33653   5.862   0.878   8.477 -2.6329 -1.6863 -0.1713
  255MOL0     H33654   6.045   0.764   8.604 -0.4484  0.3863 -1.4222
  255MOL0     H33655   6.016   0.865   8.744  0.5189 -0.4347  0.0809
  255MOL0     H33656   6.058   0.992   8.472  0.1764  2.1328  1.1681
  255MOL0     H33657   6.070   1.066   8.631  0.3519  1.6548 -1.9930
  255MOL0     H33658   6.455   0.893   8.613  0.3704  1.6138  2.3083
  255MOL0     H33659   5.710   1.179   8.779  1.0855 -1.3398 -1.8636
  255MOL0     H33660   5.548   1.359   8.844 -2.0471  0.9384 -0.3993
  256MOL0     O33661   1.580   3.954   4.893 -0.2039 -0.0834  0.2893
  256MOL0     C33662   1.648   4.050   4.886 -0.7949 -0.3986  0.0063
  256MOL0     O33663   1.614   4.177   4.853  0.0656 -0.2074  0.1458
  256MOL0     C33664   1.482   4.214   4.822  0.1848 -0.3825  0.3634
  256MOL0     C33665   1.369   4.155   4.877  0.6612  1.7270  0.1465
  256MOL0     C33666   1.240   4.185   4.834 -0.0219 -0.5687  0.1469
  256MOL0     C33667   1.222   4.274   4.732  0.4504 -0.1440 -0.0049
  256MOL0     O33668   1.103   4.307   4.664 -0.0747  0.3182 -0.4644
  256MOL0     C33669   0.976   4.283   4.719 -0.4085  0.3804 -0.2472
  256MOL0     C33670   0.874   4.311   4.603  0.0563  0.0394 -0.0009
  256MOL0     C33671   0.729   4.326   4.668  0.5084  0.6851 -1.1196
  256MOL0     C33672   0.621   4.357   4.559  0.2033 -1.0544 -0.5691
  256MOL0     C33673   0.481   4.342   4.626 -0.6692  0.1561 -0.6206
  256MOL0     C33674   0.378   4.325   4.514 -0.6261  0.7193 -0.5300
  256MOL0     C33675   0.231   4.305   4.571 -0.3837 -0.6001  0.3120
  256MOL0     C33676   0.186   4.442   4.618  0.2545 -0.4203  0.1264
  256MOL0     N33677   0.033   4.448   4.633 -0.1610  0.3602 -0.3056
  256MOL0     C33678  -0.042   4.553   4.678 -0.6991 -0.0327  0.1828
  256MOL0     C33679  -0.170   4.521   4.695 -0.1436  0.6202  0.0598
  256MOL0     C33680  -0.287   4.597   4.736  0.1535 -0.4805  0.0661
  256MOL0     C33681  -0.414   4.517   4.753 -0.0084  0.3272 -0.5934
  256MOL0     C33682  -0.489   4.494   4.626  0.6516 -0.3224  0.5298
  256MOL0     C33683  -0.639   4.449   4.630  0.1312 -0.9169 -0.7338
  256MOL0     O33684  -0.626   4.358   4.740  0.2455  0.2289  0.8293
  256MOL0     C33685  -0.719   4.370   4.842 -0.1542 -0.1821 -0.1436
  256MOL0     C33686  -0.695   4.309   4.966 -0.9455 -1.5823 -0.4644
  256MOL0     C33687  -0.788   4.318   5.062  0.1474  0.3611  0.4887
  256MOL0     C33688  -0.918   4.383   5.036 -0.6385  0.7769 -0.1968
  256MOL0     C33689  -1.024   4.396   5.135 -0.4204 -0.1241 -0.9084
  256MOL0     O33690  -1.120   4.493   5.115  0.2936 -0.2772 -0.2104
  256MOL0     C33691  -1.229   4.505   5.191  0.4661  0.0932 -0.3061
  256MOL0     C33692  -1.285   4.407   5.274 -0.6417 -0.4331  0.8755
  256MOL0     C33693  -1.409   4.441   5.341  0.0715 -0.1802 -0.4789
  256MOL0     C33694  -1.481   4.563   5.321 -0.3488  0.7096  0.0835
  256MOL0     O33695  -1.593   4.576   5.392 -0.6592  0.1710  0.3959
  256MOL0     C33696  -1.566   4.658   5.501  0.1073 -0.3326 -0.4640
  256MOL0     C33697  -1.641   4.798   5.491  0.4279  0.5085  0.0329
  256MOL0     C33698  -1.789   4.766   5.510  0.1718 -0.5680 -0.3596
  256MOL0     C33699  -1.813   4.725   5.653 -0.8575 -0.3225  0.3950
  256MOL0     C33700  -1.946   4.758   5.704  0.6808 -0.2130  0.1386
  256MOL0     C33701  -2.064   4.660   5.677 -0.4186  0.0437  0.3809
  256MOL0     C33702  -2.172   4.665   5.789 -0.2109 -0.0576 -0.7661
  256MOL0     C33703  -2.273   4.557   5.769 -0.1505 -0.0194 -0.4390
  256MOL0    Cl33704  -2.326   4.481   5.927  0.2258  0.2921  0.0650
  256MOL0     C33705  -1.432   4.651   5.228 -0.3171 -0.0188 -1.0948
  256MOL0     C33706  -1.305   4.625   5.170 -0.6616 -0.2935  0.8310
  256MOL0     O33707  -1.020   4.314   5.225 -0.0916  0.2012 -0.9756
  256MOL0     C33708  -0.950   4.409   4.911  0.0794 -0.7127 -0.2227
  256MOL0     C33709  -0.857   4.407   4.810  0.5506  0.0469  0.6049
  256MOL0     N33710  -0.174   4.386   4.645 -0.5040  0.2803  0.1945
  256MOL0     N33711  -0.058   4.344   4.611  1.0610  0.5420  0.7231
  256MOL0     C33712   1.329   4.340   4.681 -0.7144  0.6368  0.6809
  256MOL0     C33713   1.457   4.315   4.729 -0.3076 -0.1120  0.0292
  256MOL0     C33714   1.794   4.020   4.910 -0.6304  0.0051 -1.7048
  256MOL0     C33715   1.897   4.115   4.883 -0.6602  0.6766 -0.4099
  256MOL0     C33716   2.035   4.077   4.898 -0.3543 -0.0090  0.6381
  256MOL0     C33717   2.070   3.954   4.945  0.1214 -0.5236 -0.2597
  256MOL0     O33718   2.205   3.920   4.957  0.1754 -0.4968 -0.6144
  256MOL0     C33719   2.257   3.867   5.085  0.9261  0.3416 -0.2015
  256MOL0     C33720   2.219   3.945   5.216  0.4968  0.4166  0.0697
  256MOL0     C33721   2.314   4.067   5.227 -0.1741 -0.4180  0.0933
  256MOL0     C33722   2.244   4.174   5.312 -0.2845  0.1786  0.7973
  256MOL0     C33723   2.351   4.268   5.361  0.1324  0.1981 -0.0249
  256MOL0     C33724   2.437   4.343   5.416 -0.0345  0.1870 -0.7754
  256MOL0     C33725   1.980   3.864   4.966  0.6579  0.1633 -0.8803
  256MOL0     C33726   1.838   3.894   4.950 -0.6425 -0.4758 -0.0859
  256MOL0     H33727   1.372   4.078   4.954  1.5123  0.0929 -1.4444
  256MOL0     H33728   1.157   4.130   4.878 -0.5761 -1.4425 -1.8926
  256MOL0     H33729   0.958   4.340   4.810 -0.1416 -0.0631  0.0932
  256MOL0     H33730   0.964   4.178   4.749  1.0774  0.9341  2.5914
  256MOL0     H33731   0.877   4.229   4.532 -3.5664 -0.8875  0.6871
  256MOL0     H33732   0.901   4.401   4.547  0.5820  0.3501  0.7333
  256MOL0     H33733   0.729   4.405   4.744  0.3363  0.0571 -0.4576
  256MOL0     H33734   0.698   4.231   4.714  1.8262 -1.2116 -3.8590
  256MOL0     H33735   0.639   4.454   4.512 -0.0595  0.3608  2.0420
  256MOL0     H33736   0.630   4.289   4.474 -0.7694 -0.2329 -1.3570
  256MOL0     H33737   0.458   4.426   4.691 -1.5244  0.2300 -1.0096
  256MOL0     H33738   0.484   4.252   4.689  2.2658  0.8475  0.3852
  256MOL0     H33739   0.407   4.241   4.450 -0.1954  0.6031 -0.1821
  256MOL0     H33740   0.380   4.406   4.440  1.1625  0.6452 -0.6051
  256MOL0     H33741   0.169   4.269   4.488 -0.0068 -1.4146  0.3672
  256MOL0     H33742   0.221   4.234   4.654  0.1296 -1.3332 -0.2444
  256MOL0     H33743   0.220   4.528   4.561  1.0595 -1.3561 -0.8483
  256MOL0     H33744   0.225   4.454   4.720 -0.3438 -3.8060  0.8874
  256MOL0     H33745   0.004   4.651   4.685  1.2503 -0.9223  0.5217
  256MOL0     H33746  -0.313   4.674   4.664 -1.6185 -3.1999 -2.4173
  256MOL0     H33747  -0.265   4.647   4.831  0.0126 -2.3681  1.1325
  256MOL0     H33748  -0.480   4.564   4.827  0.0136 -2.8426  1.6634
  256MOL0     H33749  -0.394   4.416   4.790  1.4790  0.4960 -0.8798
  256MOL0     H33750  -0.489   4.583   4.563 -1.3834 -0.2881  0.5147
  256MOL0     H33751  -0.427   4.421   4.572  0.6663  0.6023 -0.7497
  256MOL0     H33752  -0.676   4.408   4.536 -2.8648  1.5988 -0.8283
  256MOL0     H33753  -0.686   4.546   4.651  3.0543  1.1047 -2.6743
  256MOL0     H33754  -0.594   4.273   4.986  0.4388  1.1591 -1.9124
  256MOL0     H33755  -0.777   4.287   5.165 -2.2503  2.9741  1.6625
  256MOL0     H33756  -1.243   4.310   5.300  0.9667 -0.0612 -0.1768
  256MOL0     H33757  -1.460   4.367   5.402  0.1599 -0.6936 -1.0230
  256MOL0     H33758  -1.461   4.684   5.516 -0.2909  0.5145  1.0304
  256MOL0     H33759  -1.589   4.593   5.586  0.5755 -0.7476 -0.6509
  256MOL0     H33760  -1.625   4.832   5.389 -0.1710  1.2595  0.1854
  256MOL0     H33761  -1.600   4.871   5.561  1.8596 -0.1712 -0.0566
  256MOL0     H33762  -1.827   4.691   5.440 -0.1266 -2.0029  1.2702
  256MOL0     H33763  -1.838   4.861   5.491  1.4568 -0.1787 -1.9637
  256MOL0     H33764  -1.802   4.617   5.668 -2.2915 -0.3769  1.3092
  256MOL0     H33765  -1.738   4.775   5.714  1.9755 -2.6220 -1.0011
  256MOL0     H33766  -1.987   4.858   5.683  0.1511 -0.5550 -0.4679
  256MOL0     H33767  -1.929   4.760   5.813  0.0410  1.5776  0.2476
  256MOL0     H33768  -2.028   4.557   5.678  0.0010  0.1812  0.0036
  256MOL0     H33769  -2.102   4.686   5.578  0.4849 -0.5913 -0.1474
  256MOL0     H33770  -2.118   4.633   5.880  1.7608 -0.1747 -1.9144
  256MOL0     H33771  -2.204   4.768   5.805 -0.4670 -0.3778  0.9922
  256MOL0     H33772  -2.236   4.486   5.695  2.3838  0.5410  0.1661
  256MOL0     H33773  -2.361   4.597   5.719 -1.7789 -3.4528 -0.6525
  256MOL0     H33774  -1.484   4.744   5.208  0.1091  0.7455  1.0295
  256MOL0     H33775  -1.271   4.701   5.100  2.1991 -2.6205 -0.5432
  256MOL0     H33776  -1.038   4.468   4.887  0.5278  0.5790  1.1828
  256MOL0     H33777  -0.878   4.430   4.707  4.4720 -0.8527 -0.5777
  256MOL0     H33778   1.317   4.408   4.598  1.6690 -0.4395 -0.6590
  256MOL0     H33779   1.546   4.365   4.691 -1.9877  2.3071 -1.0035
  256MOL0     H33780   1.858   4.211   4.854  0.5804  1.3026 -0.0783
  256MOL0     H33781   2.121   4.143   4.889 -0.6397  0.1584 -0.9560
  256MOL0     H33782   2.365   3.857   5.068  0.6678 -2.0161 -0.7508
  256MOL0     H33783   2.226   3.765   5.108  1.3032  1.1174  4.9691
  256MOL0     H33784   2.115   3.976   5.210  0.7758  1.5486  0.7101
  256MOL0     H33785   2.234   3.874   5.298  0.2699  0.6865  0.3426
  256MOL0     H33786   2.331   4.114   5.130 -0.0663  0.3146  0.4625
  256MOL0     H33787   2.407   4.035   5.276 -1.9226 -5.0918  0.8685
  256MOL0     H33788   2.164   4.222   5.254 -0.4083  0.5235  1.2376
  256MOL0     H33789   2.203   4.122   5.399 -0.7044  0.4984  0.7968
  256MOL0     H33790   2.503   4.410   5.466 -1.1637 -0.2072  1.3568
  256MOL0     H33791   1.996   3.764   5.006 -0.5822  0.5654  0.7436
  256MOL0     H33792   1.764   3.818   4.975 -2.3787  1.4831  1.0727
  257MOL0     O33793   4.760   4.669   3.311  0.7571  0.1639  0.2303
  257MOL0     C33794   4.852   4.589   3.281 -0.6327 -0.4436  0.3063
  257MOL0     O33795   4.843   4.454   3.295  0.2745 -0.2466 -0.1348
  257MOL0     C33796   4.732   4.397   3.338  0.3139  0.0607 -0.0533
  257MOL0     C33797   4.754   4.279   3.412  0.3456  0.0541  0.3017
  257MOL0     C33798   4.648   4.204   3.460 -0.1055  0.0287  0.3782
  257MOL0     C33799   4.523   4.240   3.425 -0.6544 -0.5253  0.5926
  257MOL0     O33800   4.421   4.153   3.465  0.5563 -0.4684  0.2569
  257MOL0     C33801   4.286   4.165   3.404 -0.3501  0.3376 -0.5187
  257MOL0     C33802   4.189   4.068   3.467 -0.1407  0.3661  0.2091
  257MOL0     C33803   4.042   4.083   3.440 -0.6157  0.6386  0.2000
  257MOL0     C33804   3.952   3.971   3.489 -0.0027 -0.1794  0.3328
  257MOL0     C33805   3.808   3.997   3.444 -0.2332 -0.1197 -0.0338
  257MOL0     C33806   3.707   3.902   3.511 -0.1271  0.2697 -0.3636
  257MOL0     C33807   3.563   3.920   3.458 -0.6493 -0.5610 -0.8536
  257MOL0     C33808   3.470   3.840   3.555 -0.3795 -0.0199  0.6566
  257MOL0     N33809   3.462   3.699   3.513  0.3130 -1.4773 -0.2771
  257MOL0     C33810   3.420   3.652   3.388 -0.2207  0.2428 -0.0234
  257MOL0     C33811   3.474   3.527   3.384 -0.3314 -0.0432 -0.3263
  257MOL0     C33812   3.476   3.431   3.269 -0.3991  0.3368 -0.0502
  257MOL0     C33813   3.575   3.480   3.161  0.4351 -0.0820 -0.1157
  257MOL0     C33814   3.715   3.502   3.210  0.1326  0.0331  0.0969
  257MOL0     C33815   3.765   3.372   3.266  0.1420  0.7529 -0.6293
  257MOL0     O33816   3.903   3.372   3.262  0.6677  0.0582 -0.9062
  257MOL0     C33817   3.976   3.421   3.366 -0.4598 -0.2170 -0.1123
  257MOL0     C33818   4.115   3.402   3.348 -0.3848 -0.7848 -0.3722
  257MOL0     C33819   4.206   3.462   3.435  0.5156  0.3599 -0.5135
  257MOL0     C33820   4.165   3.537   3.555 -0.4774  0.3185  0.8769
  257MOL0     C33821   4.264   3.605   3.639 -0.1217  0.3581  0.3591
  257MOL0     O33822   4.389   3.643   3.578 -0.0264 -0.1235  0.3572
  257MOL0     C33823   4.489   3.695   3.650  0.8343 -0.3643 -0.5502
  257MOL0     C33824   4.467   3.813   3.733 -1.2009 -0.1911 -0.1139
  257MOL0     C33825   4.585   3.878   3.786  1.1282  0.2628  0.1729
  257MOL0     C33826   4.708   3.828   3.773  0.0071 -0.2892  0.5447
  257MOL0     O33827   4.812   3.885   3.845  0.2408  0.2317 -0.1968
  257MOL0     C33828   4.831   4.023   3.820  0.2914  0.9142  0.5274
  257MOL0     C33829   4.957   4.079   3.871 -0.0593 -0.8053 -1.6972
  257MOL0     C33830   4.973   4.062   4.033 -0.1422 -0.7910 -0.3013
  257MOL0     C33831   5.086   4.153   4.095 -0.2316  0.1046  0.7328
  257MOL0     C33832   5.226   4.111   4.043 -0.1884  0.5342  0.3090
  257MOL0     C33833   5.321   4.222   4.079 -0.6672  0.3627 -0.0835
  257MOL0     C33834   5.456   4.186   4.025 -0.1560 -0.1296  0.2598
  257MOL0     C33835   5.565   4.206   4.131  0.0748 -0.1147 -0.6048
  257MOL0    Cl33836   5.715   4.124   4.090 -0.0540  0.0340 -0.1674
  257MOL0     C33837   4.724   3.711   3.700 -0.6120  0.1292 -0.0096
  257MOL0     C33838   4.621   3.643   3.633  0.7695 -0.8299 -0.2215
  257MOL0     O33839   4.243   3.611   3.761 -0.0897 -0.1047  0.7963
  257MOL0     C33840   4.031   3.550   3.573 -0.4135  0.4907  0.3141
  257MOL0     C33841   3.935   3.484   3.486 -0.6451  0.3036 -0.5689
  257MOL0     N33842   3.540   3.503   3.502 -1.5758 -1.2237  0.1448
  257MOL0     N33843   3.547   3.610   3.572  0.8636 -0.2791 -0.6737
  257MOL0     C33844   4.502   4.360   3.352 -0.0078  0.1651 -0.0525
  257MOL0     C33845   4.601   4.436   3.299  0.5173 -0.4201 -0.5164
  257MOL0     C33846   4.996   4.632   3.260  0.2501 -0.6137 -0.6226
  257MOL0     C33847   5.037   4.741   3.182  0.3016  0.6158  0.4104
  257MOL0     C33848   5.170   4.763   3.160  0.3252 -1.2818  0.7199
  257MOL0     C33849   5.273   4.684   3.213 -0.6402 -0.6346 -0.4758
  257MOL0     O33850   5.414   4.696   3.194  1.0057  0.0640  0.6418
  257MOL0     C33851   5.465   4.828   3.167 -0.0115  0.4624 -0.2669
  257MOL0     C33852   5.578   4.819   3.061  0.1176  0.0109  0.4502
  257MOL0     C33853   5.712   4.781   3.125 -0.0220 -0.4219  0.8311
  257MOL0     C33854   5.797   4.884   3.196 -0.1068 -0.1492  0.0618
  257MOL0     C33855   5.928   4.820   3.202  0.0831 -0.5761  0.3530
  257MOL0     C33856   6.037   4.779   3.217 -1.0376 -0.3062  0.2650
  257MOL0     C33857   5.234   4.583   3.288  0.0001  0.7193 -0.4123
  257MOL0     C33858   5.102   4.559   3.325 -0.2116  0.2096 -0.6601
  257MOL0     H33859   4.859   4.260   3.434  0.5870  1.4206  0.4730
  257MOL0     H33860   4.661   4.108   3.510 -1.3302 -0.7116 -0.6526
  257MOL0     H33861   4.293   4.147   3.297 -1.1739  0.4299 -0.5954
  257MOL0     H33862   4.236   4.262   3.414 -2.0307 -0.2926 -2.1459
  257MOL0     H33863   4.200   4.078   3.575  0.3462  4.9160 -0.0649
  257MOL0     H33864   4.220   3.968   3.436  0.5656  0.5717  0.2274
  257MOL0     H33865   4.036   4.096   3.332 -0.0140  0.4303  0.1388
  257MOL0     H33866   4.011   4.175   3.492 -1.3724  1.2240 -1.2471
  257MOL0     H33867   3.989   3.880   3.441 -0.7931  0.1228 -0.9058
  257MOL0     H33868   3.968   3.975   3.597  3.1302 -2.5296  0.1009
  257MOL0     H33869   3.792   3.980   3.337 -0.7274 -2.4106  0.3384
  257MOL0     H33870   3.782   4.100   3.467  0.1009  0.3919 -1.7593
  257MOL0     H33871   3.714   3.935   3.615 -1.3232 -0.5976  0.0117
  257MOL0     H33872   3.744   3.800   3.500 -0.7560  0.2027 -2.2162
  257MOL0     H33873   3.528   4.024   3.460 -2.6479 -1.1817 -1.3833
  257MOL0     H33874   3.563   3.886   3.354  2.5017 -0.3704 -0.9967
  257MOL0     H33875   3.368   3.880   3.556 -0.4213 -0.0723 -0.6285
  257MOL0     H33876   3.512   3.851   3.656  2.3846  0.1924 -0.4258
  257MOL0     H33877   3.374   3.709   3.308 -0.1040  0.1709 -0.1420
  257MOL0     H33878   3.376   3.422   3.224  0.4520  0.1199 -2.0084
  257MOL0     H33879   3.495   3.325   3.293 -1.7234  0.5090  2.0813
  257MOL0     H33880   3.528   3.572   3.125  1.0039 -0.7599 -2.8309
  257MOL0     H33881   3.580   3.415   3.073 -1.0410  0.9258 -0.9777
  257MOL0     H33882   3.774   3.525   3.121  0.9212  0.9117  0.8289
  257MOL0     H33883   3.721   3.591   3.272  2.1873 -0.9297  1.4036
  257MOL0     H33884   3.729   3.287   3.207  0.4030  0.3937 -0.2744
  257MOL0     H33885   3.726   3.351   3.366 -1.2744 -1.7285 -1.6004
  257MOL0     H33886   4.152   3.358   3.255 -2.6534  1.4578 -2.5108
  257MOL0     H33887   4.313   3.450   3.416  0.7064 -2.2334  1.5012
  257MOL0     H33888   4.368   3.855   3.747 -0.6222  2.1180 -2.2932
  257MOL0     H33889   4.560   3.954   3.859 -0.0813  1.7551 -1.6862
  257MOL0     H33890   4.754   4.079   3.874 -2.7090 -2.0750 -0.2844
  257MOL0     H33891   4.812   4.046   3.714 -0.5202  1.1066  0.7033
  257MOL0     H33892   4.958   4.187   3.856  1.2654  0.2493  3.6440
  257MOL0     H33893   5.041   4.025   3.827  1.0303 -0.9460  0.4057
  257MOL0     H33894   4.996   3.956   4.046 -0.0236 -0.8080 -0.6457
  257MOL0     H33895   4.879   4.087   4.082 -0.0691  2.7061 -1.6482
  257MOL0     H33896   5.069   4.256   4.060  1.7401  0.0588 -0.5308
  257MOL0     H33897   5.079   4.155   4.204  1.4349 -0.7704  0.8952
  257MOL0     H33898   5.229   4.091   3.936 -0.2904 -0.7694  0.5293
  257MOL0     H33899   5.246   4.016   4.094 -3.1542 -0.5285 -0.3196
  257MOL0     H33900   5.322   4.232   4.188 -3.1566 -0.2215  0.0506
  257MOL0     H33901   5.292   4.319   4.038 -2.8009 -0.0698  0.2817
  257MOL0     H33902   5.464   4.080   4.001  0.2518 -1.0027  3.7564
  257MOL0     H33903   5.475   4.258   3.945 -1.1192 -0.0230  0.1243
  257MOL0     H33904   5.537   4.168   4.230  0.2982 -0.6410 -0.7432
  257MOL0     H33905   5.582   4.314   4.133 -0.5177 -0.0240  0.7457
  257MOL0     H33906   4.826   3.686   3.676 -0.8181 -1.5481  0.6960
  257MOL0     H33907   4.624   3.561   3.562 -3.3952 -0.4881 -1.0572
  257MOL0     H33908   4.001   3.607   3.661  1.0427 -2.1793  2.7281
  257MOL0     H33909   3.832   3.494   3.517 -0.3113  0.7469  0.4621
  257MOL0     H33910   4.398   4.386   3.333 -0.2538 -0.6976  0.0588
  257MOL0     H33911   4.565   4.517   3.236  0.3379  0.4540  0.6882
  257MOL0     H33912   4.954   4.800   3.144 -0.6173  0.9334  2.7403
  257MOL0     H33913   5.192   4.847   3.094 -0.9207 -1.6490 -0.1883
  257MOL0     H33914   5.509   4.856   3.263 -3.9206  0.3685  1.7704
  257MOL0     H33915   5.394   4.904   3.134  0.5139  1.0310 -0.0910
  257MOL0     H33916   5.551   4.761   2.972  2.9991  0.0122 -0.5303
  257MOL0     H33917   5.588   4.920   3.020 -2.5048 -0.1193 -0.6984
  257MOL0     H33918   5.779   4.739   3.050 -0.7300 -0.4399  0.1984
  257MOL0     H33919   5.690   4.699   3.195  0.1817 -0.2988  1.0402
  257MOL0     H33920   5.810   4.974   3.136  3.1886  0.3044  1.2575
  257MOL0     H33921   5.754   4.906   3.294 -0.9046  2.7897 -0.8254
  257MOL0     H33922   6.133   4.734   3.233  0.9847  3.8442  1.2498
  257MOL0     H33923   5.306   4.515   3.332 -0.4829  1.2581  1.2868
  257MOL0     H33924   5.073   4.477   3.391  1.1197 -1.8753 -2.5369
  258MOL0     O33925  10.320   1.371   9.360 -0.1120 -0.0926 -0.5443
  258MOL0     C33926  10.352   1.394   9.246 -1.2470 -0.0697 -0.4930
  258MOL0     O33927  10.282   1.473   9.160 -0.0239 -0.4399 -0.7410
  258MOL0     C33928  10.152   1.499   9.191 -0.0127  0.5404 -0.4690
  258MOL0     C33929  10.102   1.618   9.138 -0.1501  0.7175 -0.2293
  258MOL0     C33930   9.970   1.669   9.160 -0.4733 -0.1566 -1.3499
  258MOL0     C33931   9.890   1.590   9.250 -0.1318  0.3832  0.2880
  258MOL0     O33932   9.773   1.636   9.298  0.1614  0.0426 -0.1028
  258MOL0     C33933   9.786   1.750   9.391 -0.6121 -0.3688  0.4939
  258MOL0     C33934   9.659   1.756   9.484  0.7628 -0.5770  1.1406
  258MOL0     C33935   9.522   1.740   9.417  0.6163 -0.4083 -0.5326
  258MOL0     C33936   9.489   1.855   9.335 -0.7919  0.6871  0.1052
  258MOL0     C33937   9.358   1.832   9.240  0.5496 -0.4185  0.2638
  258MOL0     C33938   9.223   1.867   9.311 -0.0894  0.6114  0.3472
  258MOL0     C33939   9.192   2.014   9.334 -0.2303 -0.2624  0.6837
  258MOL0     C33940   9.079   2.050   9.432 -0.3539 -1.5860 -0.1166
  258MOL0     N33941   9.051   2.200   9.424  0.4540  0.9158  1.0183
  258MOL0     C33942   9.127   2.292   9.481 -0.6785  0.0582 -0.3843
  258MOL0     C33943   9.065   2.409   9.461 -1.3007  0.6363 -0.8200
  258MOL0     C33944   9.105   2.541   9.519 -0.6091 -0.3477  0.1337
  258MOL0     C33945   9.094   2.544   9.675  0.5091 -0.0658 -1.3164
  258MOL0     C33946   8.955   2.495   9.726  0.5352  0.1209  0.3915
  258MOL0     C33947   8.941   2.497   9.879 -0.5973  0.3096  0.4906
  258MOL0     O33948   8.837   2.426   9.940 -0.9184  0.6821  0.0879
  258MOL0     C33949   8.715   2.481   9.962 -0.7111 -0.5909  0.8845
  258MOL0     C33950   8.617   2.418  10.035  0.0176  0.2911  0.3515
  258MOL0     C33951   8.488   2.472  10.046 -0.5724 -0.3365  0.6643
  258MOL0     C33952   8.461   2.598   9.998  0.3485 -0.9462 -0.0454
  258MOL0     C33953   8.320   2.646  10.014 -0.2559  0.4226 -0.2832
  258MOL0     O33954   8.225   2.556  10.063  0.1158  0.6698  0.0373
  258MOL0     C33955   8.095   2.595  10.079 -0.4257  0.9618  0.3109
  258MOL0     C33956   8.035   2.539  10.193  0.2703  0.5477  0.1664
  258MOL0     C33957   7.910   2.582  10.233  0.2021 -0.2183 -0.2930
  258MOL0     C33958   7.834   2.665  10.139  0.5199  0.5497 -0.5898
  258MOL0     O33959   7.720   2.724  10.185 -0.0044  1.3849  0.2730
  258MOL0     C33960   7.641   2.806  10.104  0.8124 -0.3673 -0.2026
  258MOL0     C33961   7.510   2.828  10.185 -0.1399 -1.0290 -0.1638
  258MOL0     C33962   7.437   2.694  10.172 -0.4327 -0.7852  0.2858
  258MOL0     C33963   7.295   2.704  10.213  0.3766  0.8337  0.0177
  258MOL0     C33964   7.233   2.563  10.229 -0.0574  0.4988 -0.7156
  258MOL0     C33965   7.081   2.548  10.214 -0.8162 -0.2391 -0.5107
  258MOL0     C33966   7.038   2.412  10.263 -0.4589  0.5524  0.4681
  258MOL0     C33967   6.893   2.404  10.316 -0.0448 -0.7076  0.2817
  258MOL0    Cl33968   6.793   2.457  10.177  0.1259  0.0818  0.1036
  258MOL0     C33969   7.894   2.696  10.018  0.0903 -0.1261  0.0087
  258MOL0     C33970   8.020   2.656   9.987 -0.6826 -0.2365 -0.4520
  258MOL0     O33971   8.295   2.764   9.993  0.4823  0.5528 -0.1330
  258MOL0     C33972   8.563   2.666   9.931  0.0670 -0.3197 -0.2982
  258MOL0     C33973   8.683   2.607   9.906  0.1744 -0.4380 -0.1433
  258MOL0     N33974   8.966   2.387   9.381  0.6614 -0.3391  0.5113
  258MOL0     N33975   8.958   2.266   9.344 -0.1664 -0.2917  0.2253
  258MOL0     C33976   9.933   1.461   9.283 -0.5335  0.1330 -0.7163
  258MOL0     C33977  10.066   1.416   9.261 -0.2906  0.3615  1.2655
  258MOL0     C33978  10.483   1.335   9.206 -0.0618 -0.2139  1.0691
  258MOL0     C33979  10.539   1.226   9.278 -0.2278 -0.3423  1.0331
  258MOL0     C33980  10.653   1.161   9.221  0.0419  1.1059 -0.4786
  258MOL0     C33981  10.725   1.220   9.120 -0.4100  0.0297 -0.3578
  258MOL0     O33982  10.849   1.174   9.078 -0.5929  0.0374 -0.2735
  258MOL0     C33983  10.941   1.094   9.159 -0.0247 -0.0700  0.2992
  258MOL0     C33984  11.083   1.139   9.115  0.3748 -0.1350 -0.3368
  258MOL0     C33985  11.185   1.035   9.174 -0.6157  0.4333  0.2442
  258MOL0     C33986  11.314   1.024   9.096 -0.5949  0.3268  0.0949
  258MOL0     C33987  11.384   1.157   9.098 -0.0247 -0.7889  0.0418
  258MOL0     C33988  11.447   1.265   9.098 -0.7049  0.1795  0.0331
  258MOL0     C33989  10.684   1.334   9.057 -0.4025 -0.6630 -0.0714
  258MOL0     C33990  10.557   1.382   9.091 -0.0738 -0.7616  0.3456
  258MOL0     H33991  10.157   1.689   9.077 -1.0404  4.0853  2.6031
  258MOL0     H33992   9.929   1.761   9.120  0.2496  0.6427 -0.2980
  258MOL0     H33993   9.783   1.846   9.339 -1.4319 -0.3680  0.5294
  258MOL0     H33994   9.871   1.745   9.459 -1.0225  0.2763  1.0601
  258MOL0     H33995   9.665   1.846   9.545  1.1034 -1.0964  1.8787
  258MOL0     H33996   9.666   1.662   9.539  1.5139 -1.4876 -0.4270
  258MOL0     H33997   9.442   1.721   9.489  0.4501 -1.1407 -0.9032
  258MOL0     H33998   9.529   1.649   9.356  0.8542 -0.3753 -0.5540
  258MOL0     H33999   9.479   1.941   9.402 -0.3990  1.9731 -1.4316
  258MOL0     H34000   9.573   1.886   9.272 -2.0897 -0.2855 -2.2254
  258MOL0     H34001   9.359   1.731   9.198 -0.1854 -0.2906 -0.0790
  258MOL0     H34002   9.364   1.906   9.160 -1.9489  1.5822  1.7884
  258MOL0     H34003   9.211   1.812   9.405 -0.4172 -1.4416 -0.8469
  258MOL0     H34004   9.140   1.825   9.253  0.1012 -0.4536  0.8181
  258MOL0     H34005   9.289   2.055   9.363  1.7390 -4.3592  0.5797
  258MOL0     H34006   9.159   2.054   9.237 -0.8867 -0.1562  0.9457
  258MOL0     H34007   9.115   2.029   9.534  0.7020  1.1589  0.1446
  258MOL0     H34008   8.989   1.990   9.419  1.0606 -3.6150 -1.1582
  258MOL0     H34009   9.225   2.274   9.524 -1.0824 -2.3703 -0.3640
  258MOL0     H34010   9.051   2.622   9.468  0.3730  0.6161  0.5898
  258MOL0     H34011   9.210   2.547   9.492 -0.8190 -1.4329 -0.9921
  258MOL0     H34012   9.098   2.640   9.727  0.4546 -1.4546  1.4425
  258MOL0     H34013   9.162   2.473   9.721  0.4754  0.3974 -0.5383
  258MOL0     H34014   8.884   2.564   9.679  0.8125  1.2788  1.6241
  258MOL0     H34015   8.951   2.390   9.697  0.8350 -0.1153  1.1923
  258MOL0     H34016   8.948   2.603   9.906  1.3996  0.0359  1.2470
  258MOL0     H34017   9.025   2.451   9.932 -1.5759 -2.3530 -0.1033
  258MOL0     H34018   8.638   2.317  10.067  1.2936 -0.5034 -2.6501
  258MOL0     H34019   8.414   2.405  10.088 -0.5177 -0.9156 -0.1433
  258MOL0     H34020   8.096   2.485  10.264 -1.0560  0.1723  1.0430
  258MOL0     H34021   7.878   2.558  10.334 -1.4185 -0.6210 -0.8751
  258MOL0     H34022   7.622   2.754  10.010  4.4386 -1.0677 -0.6979
  258MOL0     H34023   7.687   2.900  10.070  2.7942 -1.4159 -0.5726
  258MOL0     H34024   7.443   2.897  10.134 -0.2684 -1.7518 -1.0030
  258MOL0     H34025   7.524   2.859  10.289 -1.7276  1.0043 -0.5024
  258MOL0     H34026   7.485   2.622  10.238 -1.1119 -0.4090  1.2020
  258MOL0     H34027   7.449   2.652  10.071  2.0825 -1.2129  0.6929
  258MOL0     H34028   7.294   2.770  10.300 -0.4549  2.8776 -1.4530
  258MOL0     H34029   7.245   2.758  10.132  0.1326 -0.3610 -0.6479
  258MOL0     H34030   7.266   2.519  10.324 -4.2129 -0.8441  0.3366
  258MOL0     H34031   7.274   2.504  10.147 -0.6291  1.2351 -1.5467
  258MOL0     H34032   7.053   2.551  10.108 -0.8088 -1.7467 -0.5789
  258MOL0     H34033   7.035   2.631  10.268  1.2539  1.3961 -1.1269
  258MOL0     H34034   7.059   2.345  10.179  1.1224 -2.1674  2.8424
  258MOL0     H34035   7.100   2.399  10.352 -1.0322  1.9509  1.1030
  258MOL0     H34036   6.901   2.476  10.398  2.8679  1.9029 -2.0266
  258MOL0     H34037   6.869   2.302  10.348  0.2430 -0.6565  0.6704
  258MOL0     H34038   7.833   2.754   9.950  0.1248  1.5667  1.3377
  258MOL0     H34039   8.052   2.682   9.887 -1.3739  2.2271 -0.0991
  258MOL0     H34040   8.527   2.759   9.887  2.6254  2.5594  3.0176
  258MOL0     H34041   8.754   2.663   9.846  0.0142 -0.8081 -0.6954
  258MOL0     H34042   9.860   1.402   9.337 -0.9242 -0.8830 -2.2858
  258MOL0     H34043  10.084   1.314   9.292 -0.9506 -1.2111 -2.8920
  258MOL0     H34044  10.483   1.183   9.360 -0.1286 -1.0089  0.7541
  258MOL0     H34045  10.690   1.071   9.268  1.1274  0.8029 -1.8338
  258MOL0     H34046  10.930   0.987   9.136  1.8180 -0.0108 -1.0669
  258MOL0     H34047  10.932   1.108   9.267  0.0714  1.3992  0.1327
  258MOL0     H34048  11.085   1.148   9.006  1.0414  0.2160 -0.3005
  258MOL0     H34049  11.113   1.239   9.148  0.9920 -1.0704  2.2092
  258MOL0     H34050  11.140   0.935   9.176 -1.2050  0.6257 -1.2694
  258MOL0     H34051  11.206   1.061   9.277 -2.5817  0.7087  0.6195
  258MOL0     H34052  11.379   0.950   9.143  0.5035  0.5330 -1.0376
  258MOL0     H34053  11.300   0.993   8.992 -0.4150  1.4658 -0.2849
  258MOL0     H34054  11.497   1.359   9.086  1.7139 -1.1976 -1.7066
  258MOL0     H34055  10.742   1.384   8.979 -1.2943 -0.1279 -0.4052
  258MOL0     H34056  10.517   1.465   9.033 -0.0172 -0.9648  0.0173
  259MOL0     O34057  10.166   4.191  10.353  0.7915 -0.0816 -0.4078
  259MOL0     C34058  10.195   4.106  10.430 -0.3316 -0.0476  0.0224
  259MOL0     O34059  10.155   4.105  10.562  0.1716  0.9319  0.1338
  259MOL0     C34060  10.033   4.170  10.584 -0.2353 -0.9095  0.1705
  259MOL0     C34061   9.906   4.100  10.599  0.1022 -0.2423  0.3170
  259MOL0     C34062   9.793   4.170  10.610  0.3369 -0.0282 -0.2629
  259MOL0     C34063   9.784   4.306  10.612  0.5018 -1.2753 -1.1117
  259MOL0     O34064   9.670   4.380  10.617 -0.1624 -0.0521 -0.8896
  259MOL0     C34065   9.543   4.317  10.640  0.2121 -0.5130 -0.0284
  259MOL0     C34066   9.427   4.431  10.648 -0.2572  0.2123  0.2824
  259MOL0     C34067   9.296   4.374  10.673 -0.4506 -0.7204 -0.1688
  259MOL0     C34068   9.204   4.486  10.708  0.2242  0.2766 -0.3727
  259MOL0     C34069   9.061   4.445  10.748 -0.2918 -0.4487  0.1184
  259MOL0     C34070   9.040   4.377  10.880 -0.2932  0.4306  0.1709
  259MOL0     C34071   8.893   4.320  10.898  0.3574  0.4403  0.2092
  259MOL0     C34072   8.873   4.283  11.052 -0.4452  0.1396 -0.1244
  259MOL0     N34073   8.739   4.218  11.074 -0.6129 -0.1911 -0.3921
  259MOL0     C34074   8.674   4.190  11.195  0.2342  0.5196  0.0276
  259MOL0     C34075   8.541   4.159  11.159 -0.0402 -0.6404  0.6952
  259MOL0     C34076   8.444   4.117  11.269 -0.1720 -0.5076 -0.0955
  259MOL0     C34077   8.341   4.219  11.319 -0.9329  0.7718  0.1541
  259MOL0     C34078   8.411   4.352  11.364  0.3015  0.7306 -0.2367
  259MOL0     C34079   8.291   4.448  11.403  0.2994  0.4810  0.2542
  259MOL0     O34080   8.218   4.387  11.512 -0.0831  0.1323 -0.7088
  259MOL0     C34081   8.105   4.444  11.570 -0.5399 -0.5225 -0.1939
  259MOL0     C34082   8.034   4.557  11.527  0.1645 -0.5717 -0.1086
  259MOL0     C34083   7.926   4.619  11.599  0.1859  0.4819  0.6795
  259MOL0     C34084   7.880   4.551  11.710  0.4045  0.5876 -0.0991
  259MOL0     C34085   7.770   4.603  11.791  1.0598 -0.3371  0.3949
  259MOL0     O34086   7.689   4.704  11.743 -0.1524  0.0110 -0.3185
  259MOL0     C34087   7.582   4.737  11.820  0.4203 -0.3504 -0.6398
  259MOL0     C34088   7.459   4.723  11.775  0.8613  0.3937  0.0099
  259MOL0     C34089   7.342   4.751  11.849  0.8277  0.6432  0.1621
  259MOL0     C34090   7.354   4.798  11.978 -0.4562 -0.6928 -0.2280
  259MOL0     O34091   7.248   4.839  12.063 -0.6039 -0.4782  0.0156
  259MOL0     C34092   7.121   4.782  12.038 -0.4095  0.7174  0.3667
  259MOL0     C34093   7.020   4.826  12.145 -0.6391 -0.2618  0.0138
  259MOL0     C34094   6.883   4.769  12.116  0.5891  0.7319  0.0315
  259MOL0     C34095   6.777   4.819  12.219 -0.0285 -0.0633  0.3538
  259MOL0     C34096   6.635   4.777  12.189  0.6259 -0.4275  1.1675
  259MOL0     C34097   6.525   4.864  12.248 -1.4576 -0.7677  0.6770
  259MOL0     C34098   6.518   4.847  12.394  0.1051 -0.4037 -0.9880
  259MOL0     C34099   6.428   4.950  12.460  0.4548  0.5028  0.8049
  259MOL0    Cl34100   6.265   4.913  12.412  0.6913  0.5048  0.2506
  259MOL0     C34101   7.486   4.810  12.030  0.2824 -1.2341 -0.0283
  259MOL0     C34102   7.592   4.776  11.953 -0.1525  0.0827 -0.3829
  259MOL0     O34103   7.754   4.541  11.896  0.2377  0.4241  0.1382
  259MOL0     C34104   7.953   4.433  11.753 -0.2588  0.4229  0.4963
  259MOL0     C34105   8.061   4.383  11.682  0.5074 -0.0207 -0.8625
  259MOL0     N34106   8.533   4.152  11.022 -0.0394 -0.0414  0.5760
  259MOL0     N34107   8.651   4.185  10.973  0.3642  0.4042  0.5768
  259MOL0     C34108   9.909   4.366  10.617  0.5920 -0.2819  0.5971
  259MOL0     C34109  10.028   4.305  10.598  0.5908 -0.0672 -0.4508
  259MOL0     C34110  10.301   4.010  10.395 -0.2354 -0.9745  0.3192
  259MOL0     C34111  10.317   3.973  10.261 -0.2665  1.0155 -0.0355
  259MOL0     C34112  10.411   3.870  10.225  0.6494 -0.5891 -0.4296
  259MOL0     C34113  10.489   3.814  10.320 -0.1703 -0.3823 -0.3898
  259MOL0     O34114  10.585   3.713  10.303  0.6024  0.1309 -0.2389
  259MOL0     C34115  10.658   3.721  10.179  0.3540  0.0674 -0.0582
  259MOL0     C34116  10.796   3.766  10.208 -0.3243  0.5989 -0.0782
  259MOL0     C34117  10.853   3.824  10.075  0.1155  0.1850  0.5303
  259MOL0     C34118  10.900   3.712   9.979  0.0756  0.4526 -0.1278
  259MOL0     C34119  11.004   3.757   9.877 -0.5609 -0.3496 -0.3512
  259MOL0     C34120  11.080   3.788   9.795  0.1291  0.2560  0.2421
  259MOL0     C34121  10.469   3.857  10.452  0.8438  0.1726 -0.7221
  259MOL0     C34122  10.383   3.961  10.496  0.2792  0.7847  0.3628
  259MOL0     H34123   9.915   3.992  10.591 -0.4240 -0.2232 -0.6589
  259MOL0     H34124   9.697   4.124  10.634 -1.5045  3.2697 -0.6296
  259MOL0     H34125   9.538   4.257  10.731  1.0017  2.0128  1.7978
  259MOL0     H34126   9.519   4.259  10.550 -1.7500  0.8008 -0.4145
  259MOL0     H34127   9.425   4.486  10.553  0.5321 -1.6584 -0.8679
  259MOL0     H34128   9.454   4.501  10.727 -0.0736  0.5917 -0.1118
  259MOL0     H34129   9.306   4.315  10.764  1.2464  0.0991  0.2213
  259MOL0     H34130   9.261   4.316  10.588 -0.7650  0.0241 -0.5579
  259MOL0     H34131   9.232   4.538  10.801 -4.6913  1.0943  0.9469
  259MOL0     H34132   9.198   4.565  10.633  1.0644  0.7292  0.0256
  259MOL0     H34133   9.010   4.392  10.666  1.7552  0.4771 -1.8627
  259MOL0     H34134   9.007   4.540  10.753 -0.3362 -0.3431 -1.6832
  259MOL0     H34135   9.053   4.455  10.956  2.3431  0.8025 -0.5507
  259MOL0     H34136   9.129   4.315  10.897  1.1068  2.4241  0.4635
  259MOL0     H34137   8.822   4.397  10.866 -1.2918 -1.3888 -0.6857
  259MOL0     H34138   8.885   4.228  10.840  0.0386  0.3056  0.4665
  259MOL0     H34139   8.882   4.376  11.110 -0.1792 -1.7160  3.0645
  259MOL0     H34140   8.940   4.201  11.082  0.1107  0.4607 -0.4715
  259MOL0     H34141   8.712   4.176  11.295  1.1769 -4.3680 -0.7882
  259MOL0     H34142   8.508   4.097  11.355 -1.6526  0.3138  1.2416
  259MOL0     H34143   8.389   4.025  11.245 -0.4770  0.1601 -2.1664
  259MOL0     H34144   8.281   4.176  11.400 -1.6256  0.0210 -0.7394
  259MOL0     H34145   8.280   4.247  11.233  0.0509  1.8030 -0.2221
  259MOL0     H34146   8.469   4.337  11.456 -0.2781  1.0299  0.1857
  259MOL0     H34147   8.468   4.398  11.283  0.7414 -0.6349 -0.7279
  259MOL0     H34148   8.230   4.484  11.320  0.4256  1.6458  0.6435
  259MOL0     H34149   8.330   4.544  11.438  0.6136  1.3303 -2.2857
  259MOL0     H34150   8.091   4.613  11.453  3.6245 -3.7520 -0.0918
  259MOL0     H34151   7.885   4.710  11.556 -2.4685 -2.2106 -3.1642
  259MOL0     H34152   7.446   4.698  11.670  0.0288  0.8463  0.0003
  259MOL0     H34153   7.256   4.741  11.785  1.0551 -2.5767  0.2069
  259MOL0     H34154   7.134   4.674  12.049  1.2384  0.9160  0.5945
  259MOL0     H34155   7.078   4.814  11.943 -0.0426  0.2164  0.0329
  259MOL0     H34156   7.010   4.935  12.154  0.2498 -0.1900  0.2001
  259MOL0     H34157   7.041   4.795  12.248  0.2390  2.1038  0.6245
  259MOL0     H34158   6.877   4.660  12.112 -1.2378  0.8310 -0.8419
  259MOL0     H34159   6.858   4.803  12.015  1.1776 -1.3238 -0.8463
  259MOL0     H34160   6.797   4.802  12.326 -3.2012  2.2471  1.4785
  259MOL0     H34161   6.776   4.929  12.217 -0.9105 -0.0666  0.3475
  259MOL0     H34162   6.618   4.672  12.211  0.0647 -0.7736 -0.7330
  259MOL0     H34163   6.620   4.786  12.081 -0.8528  1.0202  1.4481
  259MOL0     H34164   6.428   4.832  12.208 -2.1578 -0.8627  2.3809
  259MOL0     H34165   6.548   4.965  12.213  2.2228 -2.0549 -1.2225
  259MOL0     H34166   6.469   4.749  12.403  1.0123 -0.8416 -0.6703
  259MOL0     H34167   6.613   4.849  12.447  0.4709 -0.7370 -1.6191
  259MOL0     H34168   6.453   5.048  12.419 -1.6064  1.5050  1.7658
  259MOL0     H34169   6.449   4.951  12.567 -1.0294  2.5862  1.1492
  259MOL0     H34170   7.510   4.847  12.129  0.9163 -2.6569  0.3674
  259MOL0     H34171   7.694   4.789  11.988  1.1673 -2.2545 -2.9309
  259MOL0     H34172   7.900   4.373  11.825 -3.3333  2.1066 -0.1527
  259MOL0     H34173   8.109   4.296  11.723  0.7924  0.2303 -0.6579
  259MOL0     H34174   9.912   4.475  10.624  0.9991 -0.2565  0.0596
  259MOL0     H34175  10.123   4.359  10.599  0.2551  0.5388  0.8974
  259MOL0     H34176  10.250   4.023  10.191 -1.0130  0.9068  0.5961
  259MOL0     H34177  10.398   3.830  10.125  0.1954  1.4003 -1.2150
  259MOL0     H34178  10.618   3.786  10.101  0.5579  0.2139 -0.0416
  259MOL0     H34179  10.665   3.624  10.129  0.7927 -1.1046  2.1626
  259MOL0     H34180  10.794   3.852  10.276  1.2101  2.9854 -2.8192
  259MOL0     H34181  10.860   3.690  10.254  1.6692  3.2597  1.8392
  259MOL0     H34182  10.941   3.874  10.114 -0.5303  1.1608  0.7763
  259MOL0     H34183  10.798   3.895  10.013  2.5032  1.8094  0.1568
  259MOL0     H34184  10.954   3.629  10.025  1.7228 -0.2758 -3.0872
  259MOL0     H34185  10.811   3.679   9.924 -1.2292  1.0978  1.5281
  259MOL0     H34186  11.147   3.834   9.724  1.2290 -0.9915  0.4377
  259MOL0     H34187  10.524   3.814  10.534  1.1304 -0.2768 -1.1450
  259MOL0     H34188  10.386   4.003  10.596  1.6826  1.4008  0.0834
  260MOL0     O34189   0.886   4.934   1.780  0.1596  0.5645 -0.4818
  260MOL0     C34190   0.933   5.039   1.740  0.4382 -1.2023 -0.8724
  260MOL0     O34191   0.868   5.142   1.679  0.7362  0.4849 -0.6366
  260MOL0     C34192   0.734   5.151   1.688  0.6673  0.6417 -1.2625
  260MOL0     C34193   0.680   5.204   1.571  0.8459  0.1472  1.1300
  260MOL0     C34194   0.539   5.231   1.569 -0.2515 -0.1240 -0.5939
  260MOL0     C34195   0.453   5.186   1.667 -0.1145  0.0746 -0.3839
  260MOL0     O34196   0.315   5.192   1.657 -0.2590  0.6319 -0.6483
  260MOL0     C34197   0.265   5.308   1.591  0.7437 -0.0382  0.0642
  260MOL0     C34198   0.119   5.315   1.636 -0.2250 -0.4917 -0.8576
  260MOL0     C34199   0.035   5.436   1.590 -0.4962 -0.1505 -0.0374
  260MOL0     C34200  -0.112   5.410   1.619 -0.2740 -0.6583 -0.3532
  260MOL0     C34201  -0.202   5.532   1.595  0.2315  0.5033  1.0248
  260MOL0     C34202  -0.336   5.499   1.537  0.1245 -0.1863  0.4837
  260MOL0     C34203  -0.422   5.410   1.625 -0.7678  0.5895 -0.2879
  260MOL0     C34204  -0.555   5.368   1.566 -0.5532 -0.5094  0.2425
  260MOL0     N34205  -0.651   5.297   1.658  0.0175  0.4447  0.3234
  260MOL0     C34206  -0.788   5.327   1.663 -0.1546 -0.3954 -0.2886
  260MOL0     C34207  -0.830   5.262   1.775 -0.1509 -0.5716 -0.9876
  260MOL0     C34208  -0.978   5.213   1.798  0.0352 -0.3875  0.2919
  260MOL0     C34209  -1.036   5.319   1.896 -0.5662  0.4385  0.3446
  260MOL0     C34210  -1.154   5.247   1.968 -0.7286  0.0589 -0.0988
  260MOL0     C34211  -1.241   5.345   2.039  0.1711 -0.7605  0.6248
  260MOL0     O34212  -1.350   5.282   2.107 -0.4422 -0.1518 -0.2952
  260MOL0     C34213  -1.413   5.340   2.211  0.2671  0.5910 -0.6068
  260MOL0     C34214  -1.527   5.281   2.260  0.0867 -0.2271  0.2144
  260MOL0     C34215  -1.599   5.336   2.367 -0.4059  0.0737 -0.6019
  260MOL0     C34216  -1.565   5.461   2.425  0.6611 -1.0394 -0.7082
  260MOL0     C34217  -1.649   5.533   2.523  0.2637 -0.3170 -0.8296
  260MOL0     O34218  -1.625   5.667   2.555  0.0449  0.1364 -0.0017
  260MOL0     C34219  -1.722   5.728   2.627 -1.0257  0.2115  0.7274
  260MOL0     C34220  -1.847   5.730   2.585  0.7062  0.4150 -0.1443
  260MOL0     C34221  -1.942   5.780   2.672 -0.4867  0.2101  1.0118
  260MOL0     C34222  -1.918   5.831   2.803  1.0058  0.1723  0.0772
  260MOL0     O34223  -2.032   5.873   2.867 -0.6233 -0.1940  0.1815
  260MOL0     C34224  -2.025   6.007   2.912 -0.5242 -0.4636 -0.5687
  260MOL0     C34225  -2.164   6.052   2.943 -0.4061  0.5091 -0.6221
  260MOL0     C34226  -2.169   6.204   2.976 -0.4304  0.3353 -0.0193
  260MOL0     C34227  -2.322   6.240   3.002  0.0700 -0.1339 -0.3648
  260MOL0     C34228  -2.348   6.164   3.138  0.1234 -0.3940 -0.7538
  260MOL0     C34229  -2.473   6.209   3.215 -0.4630  0.6133  0.6067
  260MOL0     C34230  -2.605   6.180   3.150 -0.1112 -0.3497 -0.0373
  260MOL0     C34231  -2.722   6.251   3.221 -0.1879 -0.1237  0.5534
  260MOL0    Cl34232  -2.698   6.426   3.258  0.1852 -0.1173 -0.2014
  260MOL0     C34233  -1.790   5.828   2.847  0.2313 -0.2921  0.1237
  260MOL0     C34234  -1.695   5.778   2.750  0.2852 -0.0402 -0.3193
  260MOL0     O34235  -1.717   5.462   2.590 -0.0262  1.1324 -0.6625
  260MOL0     C34236  -1.458   5.534   2.363  0.8293 -0.0830  0.0700
  260MOL0     C34237  -1.377   5.464   2.268 -0.6731 -0.2989 -0.7062
  260MOL0     N34238  -0.722   5.206   1.837 -0.3053  0.1067 -0.4919
  260MOL0     N34239  -0.617   5.225   1.764  0.3240  0.8520  0.7908
  260MOL0     C34240   0.510   5.136   1.787  0.0985  0.0152 -0.0765
  260MOL0     C34241   0.648   5.115   1.803 -0.1228 -1.0021  0.0923
  260MOL0     C34242   1.077   5.075   1.771 -0.2022  0.3367 -1.2629
  260MOL0     C34243   1.140   5.169   1.698 -0.7035  0.8246 -0.1668
  260MOL0     C34244   1.271   5.205   1.733 -0.2464  0.2303 -0.1406
  260MOL0     C34245   1.335   5.165   1.849 -0.5345 -0.1543  0.0743
  260MOL0     O34246   1.459   5.214   1.897  1.0627 -0.0007 -0.1561
  260MOL0     C34247   1.556   5.291   1.822  0.2187 -0.0270  1.0641
  260MOL0     C34248   1.672   5.310   1.914 -0.0100 -0.9595 -1.1354
  260MOL0     C34249   1.814   5.316   1.854 -0.4498  1.1935 -0.2439
  260MOL0     C34250   1.828   5.421   1.739 -0.1292  0.0612  0.0046
  260MOL0     C34251   1.852   5.560   1.773 -0.7034  0.1301  0.4394
  260MOL0     C34252   1.891   5.665   1.803 -0.7514  0.1627  0.4522
  260MOL0     C34253   1.262   5.078   1.934 -0.1568  0.7883  0.1134
  260MOL0     C34254   1.137   5.025   1.891 -1.3168  0.0998 -0.5800
  260MOL0     H34255   0.735   5.224   1.479  0.0715 -1.1828  0.3465
  260MOL0     H34256   0.493   5.274   1.480  1.2001 -0.5453 -1.5831
  260MOL0     H34257   0.269   5.306   1.482 -3.2502  2.1842 -0.3427
  260MOL0     H34258   0.318   5.400   1.618  1.0442 -0.6527  1.6348
  260MOL0     H34259   0.119   5.337   1.743  0.8080  2.6782 -1.4137
  260MOL0     H34260   0.072   5.222   1.602 -0.7155  0.4326 -2.8776
  260MOL0     H34261   0.041   5.431   1.481 -5.5259  1.1942 -0.5960
  260MOL0     H34262   0.074   5.525   1.641 -1.2623 -1.0566  2.2781
  260MOL0     H34263  -0.153   5.329   1.559 -1.2295  1.2030 -2.3532
  260MOL0     H34264  -0.113   5.385   1.725  3.2010  2.2174  0.5743
  260MOL0     H34265  -0.145   5.597   1.528  0.4718  0.4339  1.1601
  260MOL0     H34266  -0.213   5.586   1.689 -1.8968  3.1072 -0.5605
  260MOL0     H34267  -0.326   5.463   1.434  3.5094 -0.9061  0.9451
  260MOL0     H34268  -0.376   5.601   1.532  4.3163  1.8633  3.3715
  260MOL0     H34269  -0.351   5.329   1.643  0.2062  0.7979 -2.8674
  260MOL0     H34270  -0.439   5.457   1.723  0.0064 -1.4704  0.9051
  260MOL0     H34271  -0.533   5.302   1.481  0.3547 -1.2223  1.0067
  260MOL0     H34272  -0.613   5.456   1.536 -3.1001 -1.0985  3.0419
  260MOL0     H34273  -0.841   5.381   1.586  0.8447 -1.4713 -1.7932
  260MOL0     H34274  -0.988   5.108   1.827  0.5703  0.1167  2.4684
  260MOL0     H34275  -1.032   5.229   1.704  0.5413  4.2786  0.5690
  260MOL0     H34276  -1.067   5.408   1.840  2.0799  1.5332  0.4661
  260MOL0     H34277  -0.959   5.351   1.967 -0.4487  0.9413 -0.0023
  260MOL0     H34278  -1.212   5.183   1.901  1.0235 -0.4679 -1.1635
  260MOL0     H34279  -1.108   5.191   2.051  2.2803  1.9374 -0.3463
  260MOL0     H34280  -1.282   5.406   1.958 -0.2567 -0.6866  0.8939
  260MOL0     H34281  -1.180   5.417   2.096  1.7797  0.9758 -2.9585
  260MOL0     H34282  -1.556   5.186   2.217  0.3364  0.0700 -0.6199
  260MOL0     H34283  -1.696   5.292   2.390 -0.9569  1.3429 -0.3692
  260MOL0     H34284  -1.880   5.678   2.496 -1.9283 -0.6494  1.3470
  260MOL0     H34285  -2.047   5.777   2.644 -1.1175 -0.3681  3.1734
  260MOL0     H34286  -1.989   6.065   2.826 -2.8177 -0.0538 -1.3217
  260MOL0     H34287  -1.959   6.026   2.997  0.2691  1.6515 -1.5662
  260MOL0     H34288  -2.189   5.991   3.030  3.0052  1.4955  1.2231
  260MOL0     H34289  -2.224   6.036   2.853  0.6795  0.3274 -1.3321
  260MOL0     H34290  -2.138   6.254   2.884  1.7319 -1.5800 -0.4311
  260MOL0     H34291  -2.105   6.238   3.058 -0.5180 -0.4058  0.3633
  260MOL0     H34292  -2.329   6.349   3.012  0.1828 -0.1831  0.3082
  260MOL0     H34293  -2.391   6.212   2.922 -1.4564 -0.7325  1.1087
  260MOL0     H34294  -2.261   6.185   3.200 -0.5025  3.0524 -0.8806
  260MOL0     H34295  -2.341   6.055   3.135  1.3337 -0.3753  0.4178
  260MOL0     H34296  -2.462   6.318   3.221 -1.2524  0.7900 -0.7909
  260MOL0     H34297  -2.471   6.154   3.310  3.2508 -0.6976 -0.0761
  260MOL0     H34298  -2.604   6.227   3.051  3.3383  0.1008  0.0926
  260MOL0     H34299  -2.625   6.073   3.136 -0.2487 -0.1402 -1.5363
  260MOL0     H34300  -2.753   6.209   3.317 -1.7297  0.8487  0.5269
  260MOL0     H34301  -2.807   6.240   3.152 -0.7876 -0.4350  1.3182
  260MOL0     H34302  -1.745   5.864   2.939  0.6404 -1.4046  0.3731
  260MOL0     H34303  -1.589   5.778   2.775  0.1865 -1.1728  0.1583
  260MOL0     H34304  -1.431   5.637   2.382  0.6385 -0.2153  1.1009
  260MOL0     H34305  -1.286   5.511   2.232 -1.8994  2.2210 -0.6745
  260MOL0     H34306   0.446   5.125   1.874 -3.5358 -2.7449 -2.7324
  260MOL0     H34307   0.695   5.089   1.898  0.2035 -0.3898  0.1075
  260MOL0     H34308   1.093   5.212   1.610  0.1398  1.1938 -0.4505
  260MOL0     H34309   1.310   5.279   1.664  1.3929 -0.2371  0.2534
  260MOL0     H34310   1.515   5.384   1.780 -0.9672 -0.0589  2.0825
  260MOL0     H34311   1.582   5.229   1.736 -3.1898 -1.8991  1.2237
  260MOL0     H34312   1.668   5.403   1.970  1.7190 -0.7039 -1.3733
  260MOL0     H34313   1.673   5.229   1.988  1.4880 -1.4277 -1.6312
  260MOL0     H34314   1.845   5.223   1.804 -0.6106  0.6368  0.6756
  260MOL0     H34315   1.892   5.329   1.929 -0.9426  0.1383  0.4816
  260MOL0     H34316   1.919   5.405   1.680  1.9788  0.9569  2.7951
  260MOL0     H34317   1.742   5.420   1.671  0.6220  0.1037 -0.9781
  260MOL0     H34318   1.921   5.765   1.825  1.8007  0.1214 -2.2350
  260MOL0     H34319   1.302   5.045   2.029  3.3425 -0.2905 -1.5693
  260MOL0     H34320   1.089   4.951   1.954 -1.0715 -0.5847 -1.1851
  261MOL0     O34321   0.586   8.734  11.013  0.1683 -0.9126  0.5024
  261MOL0     C34322   0.672   8.764  11.097  0.3638  0.8560 -0.1720
  261MOL0     O34323   0.652   8.775  11.232  0.4299 -0.0259 -0.3803
  261MOL0     C34324   0.528   8.799  11.288  0.1888  0.0413 -0.0841
  261MOL0     C34325   0.506   8.936  11.314 -0.1413  0.6994 -0.0467
  261MOL0     C34326   0.378   8.971  11.359 -0.4895 -0.1840  0.1214
  261MOL0     C34327   0.275   8.877  11.379 -0.1677  0.0239 -0.0690
  261MOL0     O34328   0.148   8.939  11.395 -1.1808 -0.3608 -0.0115
  261MOL0     C34329   0.059   8.868  11.487  0.4091 -0.0541 -0.0665
  261MOL0     C34330  -0.087   8.865  11.432  0.8307  0.4710 -0.9825
  261MOL0     C34331  -0.183   8.835  11.551  0.4834  1.0963 -0.2060
  261MOL0     C34332  -0.319   8.787  11.490 -0.0137  0.0030 -0.1734
  261MOL0     C34333  -0.396   8.703  11.596  0.5790 -0.4949 -0.0077
  261MOL0     C34334  -0.534   8.665  11.542  0.4541 -0.4349 -0.0426
  261MOL0     C34335  -0.615   8.604  11.656 -0.0608 -0.0585 -0.2455
  261MOL0     C34336  -0.768   8.633  11.637 -0.3922  0.4490 -0.3529
  261MOL0     N34337  -0.827   8.574  11.759  0.0016 -0.2652 -0.2248
  261MOL0     C34338  -0.837   8.438  11.774  0.1655 -0.6209 -0.9580
  261MOL0     C34339  -0.929   8.424  11.871  0.2035 -0.7839  0.0352
  261MOL0     C34340  -1.003   8.308  11.921 -0.4654 -0.2969 -0.8019
  261MOL0     C34341  -1.144   8.315  11.871  0.0034 -1.1658 -0.0500
  261MOL0     C34342  -1.211   8.181  11.903  0.7494 -0.4167  0.2889
  261MOL0     C34343  -1.361   8.201  11.874  0.0416 -0.3566  0.1135
  261MOL0     O34344  -1.420   8.272  11.991 -0.4371  0.3603  0.0511
  261MOL0     C34345  -1.546   8.239  12.021  0.1278  1.3099 -0.3782
  261MOL0     C34346  -1.654   8.267  11.952  0.2038  0.0800  0.5316
  261MOL0     C34347  -1.778   8.238  12.000  0.2562 -0.9362  0.0309
  261MOL0     C34348  -1.809   8.199  12.136 -0.2048 -0.1588  0.3559
  261MOL0     C34349  -1.949   8.195  12.196 -0.2671  0.9075 -0.1255
  261MOL0     O34350  -2.044   8.249  12.121  0.5949  0.1451 -0.0843
  261MOL0     C34351  -2.170   8.269  12.181 -0.7719  0.7589 -0.6205
  261MOL0     C34352  -2.187   8.297  12.319 -0.5808  0.0280 -0.1876
  261MOL0     C34353  -2.310   8.286  12.383  0.3335 -0.6562  0.5738
  261MOL0     C34354  -2.420   8.255  12.307 -0.4662  0.3906  0.2104
  261MOL0     O34355  -2.550   8.234  12.348 -0.0806 -0.4405  0.2275
  261MOL0     C34356  -2.563   8.156  12.465  0.1122  0.1613 -0.4250
  261MOL0     C34357  -2.709   8.109  12.479  0.1502 -0.3609  0.5706
  261MOL0     C34358  -2.754   8.033  12.356 -0.3597  0.0100 -0.8072
  261MOL0     C34359  -2.894   7.985  12.357 -0.8026 -0.3017  0.6501
  261MOL0     C34360  -2.924   7.886  12.241  0.4673 -0.0120 -0.3212
  261MOL0     C34361  -2.942   7.952  12.104  0.1724 -1.2890 -0.7596
  261MOL0     C34362  -2.933   7.851  11.987 -0.5211  0.5150 -0.0714
  261MOL0     C34363  -2.852   7.905  11.868 -0.7028  0.0054 -1.0718
  261MOL0    Cl34364  -2.943   8.039  11.788 -0.0644 -0.1585 -0.0485
  261MOL0     C34365  -2.403   8.254  12.166  0.6620  0.5038  0.4155
  261MOL0     C34366  -2.287   8.251  12.104 -1.2414 -0.5014  1.1941
  261MOL0     O34367  -1.961   8.146  12.308  0.6016 -0.1493  0.2945
  261MOL0     C34368  -1.698   8.180  12.219  0.2469 -0.3467 -0.2784
  261MOL0     C34369  -1.569   8.202  12.156  0.4084  0.5708 -0.3832
  261MOL0     N34370  -0.975   8.550  11.910 -0.0937 -0.2613 -0.1583
  261MOL0     N34371  -0.902   8.637  11.858  0.3106  0.6389 -0.4690
  261MOL0     C34372   0.296   8.747  11.341  0.6105  0.3103 -0.1465
  261MOL0     C34373   0.421   8.700  11.293 -0.3769 -0.4220 -0.0932
  261MOL0     C34374   0.807   8.787  11.057  0.3042  0.5304 -0.2769
  261MOL0     C34375   0.835   8.797  10.921  0.0057  0.0762  0.1851
  261MOL0     C34376   0.972   8.806  10.879  0.6848 -1.1601 -0.3395
  261MOL0     C34377   1.078   8.822  10.974  0.0144  0.6085 -0.0161
  261MOL0     O34378   1.201   8.839  10.917 -0.7241 -0.3694 -0.2713
  261MOL0     C34379   1.303   8.872  11.018  0.5159  0.7057 -0.4415
  261MOL0     C34380   1.417   8.927  10.946 -1.0930  0.1119  0.0415
  261MOL0     C34381   1.523   8.978  11.039  0.3515 -1.0955  0.4825
  261MOL0     C34382   1.671   8.994  10.996  0.2601 -0.7335 -0.6236
  261MOL0     C34383   1.683   9.105  10.896  0.0981 -0.2725 -0.7018
  261MOL0     C34384   1.694   9.186  10.801  0.6954  0.7122 -0.1851
  261MOL0     C34385   1.042   8.822  11.110  0.2682  0.2141  0.2677
  261MOL0     C34386   0.913   8.805  11.151 -0.3597 -0.1148 -0.0406
  261MOL0     H34387   0.595   8.997  11.300  1.3089 -1.5384 -1.2185
  261MOL0     H34388   0.359   9.074  11.387  1.1247 -0.4844  2.7274
  261MOL0     H34389   0.066   8.929  11.578  0.0887  1.8902 -1.2777
  261MOL0     H34390   0.095   8.769  11.516  0.0524  0.2636  1.6108
  261MOL0     H34391  -0.080   8.785  11.357  0.7156 -1.1116  0.6380
  261MOL0     H34392  -0.114   8.957  11.379 -4.1621 -0.9808 -1.5391
  261MOL0     H34393  -0.194   8.924  11.614  1.5023  0.5484  0.7787
  261MOL0     H34394  -0.146   8.750  11.610 -1.0091 -0.0812 -0.9001
  261MOL0     H34395  -0.375   8.875  11.459  0.6472  1.5607  2.7006
  261MOL0     H34396  -0.300   8.727  11.401 -1.3634 -1.6553  0.5973
  261MOL0     H34397  -0.411   8.782  11.670 -5.2012  2.1139 -3.2394
  261MOL0     H34398  -0.346   8.614  11.637 -1.6491 -1.5552  0.5888
  261MOL0     H34399  -0.522   8.598  11.456  2.0998  0.6415 -0.7051
  261MOL0     H34400  -0.594   8.752  11.514  2.5875  1.0634 -0.2446
  261MOL0     H34401  -0.598   8.497  11.668 -1.7391 -0.1307  2.1020
  261MOL0     H34402  -0.566   8.660  11.736  0.9012 -0.6432 -0.4069
  261MOL0     H34403  -0.779   8.581  11.541 -0.7581 -1.1355  0.5143
  261MOL0     H34404  -0.779   8.741  11.630 -0.0313  0.4890 -0.3264
  261MOL0     H34405  -0.798   8.363  11.706 -0.0514 -1.1641 -0.4866
  261MOL0     H34406  -1.009   8.314  12.030 -4.1305 -1.5723 -0.8070
  261MOL0     H34407  -0.958   8.216  11.884 -0.4737  1.1601 -5.1047
  261MOL0     H34408  -1.158   8.323  11.763  0.0236 -1.9817 -0.1165
  261MOL0     H34409  -1.196   8.401  11.914  1.4706 -0.5011  0.4962
  261MOL0     H34410  -1.168   8.110  11.832  0.2867  0.1429 -0.5715
  261MOL0     H34411  -1.199   8.149  12.007 -0.0301  3.2529  1.6600
  261MOL0     H34412  -1.408   8.103  11.868  2.8332 -1.7246 -2.1012
  261MOL0     H34413  -1.385   8.262  11.786  0.8557 -0.2174 -0.0232
  261MOL0     H34414  -1.648   8.304  11.850  1.2375  0.9854  0.8962
  261MOL0     H34415  -1.859   8.275  11.939  1.4474  2.5375  0.3476
  261MOL0     H34416  -2.109   8.319  12.391 -1.5752  1.9842  0.3495
  261MOL0     H34417  -2.310   8.288  12.492 -1.0453 -1.8166  0.6257
  261MOL0     H34418  -2.541   8.208  12.558 -0.7079  0.7191 -0.5260
  261MOL0     H34419  -2.499   8.068  12.455  0.8061  0.6815 -0.6013
  261MOL0     H34420  -2.779   8.193  12.480  0.2656 -0.2079 -1.1085
  261MOL0     H34421  -2.721   8.043  12.566 -1.2892 -1.7970 -0.6460
  261MOL0     H34422  -2.691   7.946  12.336  0.6389  0.1788  1.2926
  261MOL0     H34423  -2.747   8.089  12.262 -0.9896  0.9338 -0.3213
  261MOL0     H34424  -2.925   7.946  12.454  1.9066 -2.2338  0.8567
  261MOL0     H34425  -2.944   8.080  12.336  3.5055  1.8167 -1.4823
  261MOL0     H34426  -3.015   7.829  12.264  0.7081 -0.1732  0.2495
  261MOL0     H34427  -2.845   7.811  12.243 -0.1077 -0.6429  1.9191
  261MOL0     H34428  -2.870   8.031  12.080 -0.9745 -0.2483 -0.9011
  261MOL0     H34429  -3.038   8.005  12.103 -0.0154 -1.4446  2.0798
  261MOL0     H34430  -2.881   7.759  12.017  1.4575  1.8922  0.9957
  261MOL0     H34431  -3.034   7.821  11.959  0.0363 -0.1434 -1.4750
  261MOL0     H34432  -2.843   7.830  11.790  1.5371 -0.7617 -0.1685
  261MOL0     H34433  -2.752   7.921  11.908 -1.5686 -2.3711  2.5733
  261MOL0     H34434  -2.490   8.229  12.107  2.0895  0.1399 -1.6384
  261MOL0     H34435  -2.267   8.217  12.003  0.1175 -2.4482  2.0560
  261MOL0     H34436  -1.707   8.149  12.323 -0.8341  2.1968  0.4543
  261MOL0     H34437  -1.488   8.193  12.228 -0.2881 -0.5842  0.3012
  261MOL0     H34438   0.237   8.657  11.359  1.3581  0.0712  1.2627
  261MOL0     H34439   0.451   8.597  11.278  2.3993  0.1990  0.6349
  261MOL0     H34440   0.760   8.803  10.842  0.8919  0.0976 -0.6729
  261MOL0     H34441   1.001   8.807  10.774  0.8222 -1.3040 -0.3020
  261MOL0     H34442   1.330   8.783  11.077 -0.2924 -0.2289 -1.4391
  261MOL0     H34443   1.265   8.944  11.091 -1.1772 -0.0853 -0.4987
  261MOL0     H34444   1.462   8.854  10.878  0.9556  1.2643  0.1002
  261MOL0     H34445   1.370   9.009  10.891 -1.0294  0.9137  1.1660
  261MOL0     H34446   1.519   8.916  11.128 -1.3348 -0.2677  1.0249
  261MOL0     H34447   1.477   9.072  11.072 -5.3704 -3.3342  0.0774
  261MOL0     H34448   1.731   9.021  11.084 -0.3472 -0.9401 -0.1377
  261MOL0     H34449   1.716   8.900  10.962  0.1881 -0.6812 -0.8606
  261MOL0     H34450   1.696   9.256  10.720 -1.7143  1.4130  0.2946
  261MOL0     H34451   1.121   8.823  11.185  0.2411 -0.7512  0.3299
  261MOL0     H34452   0.902   8.799  11.258 -0.8354 -0.5510 -0.1079
  262MOL0     O34453   4.974   1.034   7.071  0.4355  0.0721 -0.7516
  262MOL0     C34454   5.043   1.070   7.163  0.3829  0.1302 -0.2644
  262MOL0     O34455   4.993   1.113   7.284 -0.4019  0.0847 -0.3126
  262MOL0     C34456   4.859   1.119   7.322 -0.7564  0.6639  0.5701
  262MOL0     C34457   4.841   1.194   7.435 -0.2571  0.3522 -0.2292
  262MOL0     C34458   4.709   1.215   7.486  1.0578  0.2668  0.4286
  262MOL0     C34459   4.595   1.165   7.414 -0.3870  0.1799  0.5364
  262MOL0     O34460   4.466   1.193   7.465 -0.2454 -0.0503  0.4523
  262MOL0     C34461   4.351   1.179   7.385  1.1215  0.8575  0.3770
  262MOL0     C34462   4.218   1.214   7.464 -0.5520  0.1863 -0.0499
  262MOL0     C34463   4.088   1.189   7.383 -0.5963  0.3442  0.9919
  262MOL0     C34464   3.979   1.273   7.454 -0.4622 -0.2069 -0.3881
  262MOL0     C34465   3.930   1.208   7.588 -0.0689  0.2569  0.3829
  262MOL0     C34466   3.796   1.276   7.614  0.0310  0.2809  0.1553
  262MOL0     C34467   3.724   1.223   7.741 -0.1684  0.6688  0.3575
  262MOL0     C34468   3.697   1.075   7.736 -0.6416 -0.0845  0.2762
  262MOL0     N34469   3.581   1.053   7.831 -0.0676  0.0865 -0.2106
  262MOL0     C34470   3.551   1.124   7.941  0.0037  0.0032  0.5849
  262MOL0     C34471   3.438   1.077   7.984  0.9168 -0.2926  0.1103
  262MOL0     C34472   3.363   1.128   8.108 -0.4019  0.2571 -0.6773
  262MOL0     C34473   3.254   1.024   8.157 -0.5282 -0.2760  0.2518
  262MOL0     C34474   3.239   1.050   8.301  0.0910 -0.5953 -1.1792
  262MOL0     C34475   3.142   0.954   8.372 -0.6830  0.1692  0.2077
  262MOL0     O34476   3.014   0.982   8.321  0.0903 -0.6501 -0.1568
  262MOL0     C34477   2.900   0.956   8.396 -0.0862  0.6966 -0.3230
  262MOL0     C34478   2.775   0.991   8.343  0.1588 -0.6479  0.5642
  262MOL0     C34479   2.656   0.954   8.415  0.1164 -0.6016 -0.0948
  262MOL0     C34480   2.665   0.891   8.541  0.9551  0.0447 -0.3227
  262MOL0     C34481   2.546   0.854   8.625 -0.0569  0.2828  0.0115
  262MOL0     O34482   2.424   0.900   8.590 -0.1747  0.6251 -0.4276
  262MOL0     C34483   2.310   0.871   8.672 -0.5808  0.0323 -0.5515
  262MOL0     C34484   2.300   0.842   8.805  0.0943  0.5797  0.0677
  262MOL0     C34485   2.179   0.795   8.856  0.1849 -0.5164  1.2065
  262MOL0     C34486   2.059   0.793   8.787 -0.4114  0.2813 -0.3839
  262MOL0     O34487   1.944   0.748   8.837  0.4212  0.4041 -0.5319
  262MOL0     C34488   1.867   0.858   8.891  0.2892  0.5941 -0.4833
  262MOL0     C34489   1.745   0.797   8.969  0.0547 -0.4877  0.1465
  262MOL0     C34490   1.786   0.701   9.079 -0.0390  0.3415 -0.2929
  262MOL0     C34491   1.671   0.660   9.173  0.4985  0.1113 -0.3686
  262MOL0     C34492   1.697   0.674   9.319  0.5135 -0.7711  0.1735
  262MOL0     C34493   1.617   0.583   9.410  0.2286 -0.4370  0.2698
  262MOL0     C34494   1.465   0.619   9.402 -0.7046 -0.1600  0.6071
  262MOL0     C34495   1.415   0.747   9.472 -0.6437 -0.4147  0.4277
  262MOL0    Cl34496   1.437   0.882   9.362 -0.4568 -0.3433  0.3139
  262MOL0     C34497   2.066   0.835   8.656 -0.1630 -0.5377  0.4971
  262MOL0     C34498   2.195   0.874   8.598 -0.2026  0.7134  0.0508
  262MOL0     O34499   2.558   0.789   8.730  0.3674 -0.3143  0.1558
  262MOL0     C34500   2.795   0.845   8.576 -0.2843 -0.8421  0.4760
  262MOL0     C34501   2.912   0.872   8.507  0.5377  0.7097  0.0747
  262MOL0     N34502   3.400   0.978   7.893 -0.5910  0.0771 -0.8634
  262MOL0     N34503   3.482   0.971   7.800 -0.3252  0.7074  0.2469
  262MOL0     C34504   4.611   1.076   7.310 -0.6945 -0.5681  0.1818
  262MOL0     C34505   4.741   1.058   7.257 -0.1549 -0.7458  0.0066
  262MOL0     C34506   5.186   1.062   7.161  0.9990  0.6736  0.0544
  262MOL0     C34507   5.260   1.109   7.266 -0.2481 -1.0312  1.3645
  262MOL0     C34508   5.398   1.132   7.255 -0.0594 -0.0125  0.3782
  262MOL0     C34509   5.470   1.074   7.146 -0.0867 -0.0080 -0.7177
  262MOL0     O34510   5.607   1.075   7.143  0.1078  0.0700 -0.0737
  262MOL0     C34511   5.684   1.151   7.238 -0.5624 -0.6269 -0.8541
  262MOL0     C34512   5.702   1.299   7.199  0.6087  0.1271 -0.2986
  262MOL0     C34513   5.760   1.300   7.061 -0.0914 -0.2867 -1.5407
  262MOL0     C34514   5.797   1.447   7.018 -0.0235  0.4658  1.1337
  262MOL0     C34515   5.869   1.448   6.886 -0.0190  0.1323  0.6535
  262MOL0     C34516   5.935   1.442   6.785  0.4518  0.1127  0.1580
  262MOL0     C34517   5.390   1.016   7.048 -0.0587  0.2666 -0.8259
  262MOL0     C34518   5.247   1.013   7.049 -0.4358  0.8133 -0.0769
  262MOL0     H34519   4.921   1.238   7.494 -2.8425  1.7030  2.5414
  262MOL0     H34520   4.700   1.266   7.581 -6.0687 -4.6830  3.3014
  262MOL0     H34521   4.346   1.077   7.346 -0.1557  1.4498 -1.1348
  262MOL0     H34522   4.360   1.231   7.288  0.5965 -1.2505 -0.8594
  262MOL0     H34523   4.225   1.319   7.496  0.1306  0.5744 -1.3713
  262MOL0     H34524   4.210   1.145   7.548 -1.7672 -0.7774 -0.9335
  262MOL0     H34525   4.062   1.083   7.375  0.1782  0.3031 -2.1445
  262MOL0     H34526   4.097   1.221   7.279  0.7240  0.4125  1.1136
  262MOL0     H34527   4.015   1.373   7.479 -3.3580  0.9782 -0.5891
  262MOL0     H34528   3.897   1.278   7.381  1.2766  1.0115 -2.3524
  262MOL0     H34529   4.003   1.229   7.667 -0.8936  1.5696  0.8492
  262MOL0     H34530   3.929   1.100   7.576 -1.8047  0.0860  1.6912
  262MOL0     H34531   3.724   1.260   7.533  0.4689  0.7422 -0.3293
  262MOL0     H34532   3.804   1.385   7.614  0.2864  0.2618 -0.2998
  262MOL0     H34533   3.780   1.249   7.831 -0.4515  3.4179 -0.1765
  262MOL0     H34534   3.633   1.283   7.754  1.2148  2.4090  2.6305
  262MOL0     H34535   3.784   1.024   7.778  1.5744 -0.1610 -3.8954
  262MOL0     H34536   3.677   1.036   7.636 -1.6457 -0.9882  0.8027
  262MOL0     H34537   3.607   1.204   7.989  0.7527  0.1746 -0.5382
  262MOL0     H34538   3.314   1.221   8.079 -1.1869 -0.1366 -0.6123
  262MOL0     H34539   3.445   1.144   8.180 -1.8314 -0.0878  1.0929
  262MOL0     H34540   3.294   0.922   8.152 -0.9791 -0.3980 -1.0591
  262MOL0     H34541   3.160   1.026   8.101  0.4245 -1.8191 -1.5104
  262MOL0     H34542   3.328   1.029   8.362 -0.8012  0.9295  0.7445
  262MOL0     H34543   3.212   1.153   8.327  0.6325 -1.1503  1.9235
  262MOL0     H34544   3.138   0.973   8.480  0.3606 -0.5497  0.3944
  262MOL0     H34545   3.173   0.850   8.355  2.0104  0.5888  1.9969
  262MOL0     H34546   2.786   1.040   8.247 -0.6318  1.3484  1.4313
  262MOL0     H34547   2.560   0.990   8.380 -0.6124 -1.7959  0.5708
  262MOL0     H34548   2.385   0.868   8.866  1.3740 -0.6857 -1.1086
  262MOL0     H34549   2.179   0.758   8.959 -1.6994 -0.6831  1.1822
  262MOL0     H34550   1.828   0.923   8.813 -5.2934 -1.1903  0.3533
  262MOL0     H34551   1.932   0.913   8.960  0.0563 -1.2558  1.3153
  262MOL0     H34552   1.679   0.734   8.908 -1.3301  1.3262 -0.3117
  262MOL0     H34553   1.677   0.874   9.006 -0.0744 -1.2248  1.5051
  262MOL0     H34554   1.869   0.742   9.139  0.2861 -2.7744  1.6317
  262MOL0     H34555   1.839   0.614   9.040  3.5927  1.5162  1.4828
  262MOL0     H34556   1.582   0.721   9.150 -1.4658 -1.1053  3.2415
  262MOL0     H34557   1.639   0.560   9.142  1.2752 -0.5318  0.8616
  262MOL0     H34558   1.701   0.780   9.346 -0.9363 -0.4047 -0.9379
  262MOL0     H34559   1.799   0.637   9.336  0.6006 -1.3170 -1.3745
  262MOL0     H34560   1.651   0.596   9.513 -1.3182 -0.5480  0.8263
  262MOL0     H34561   1.626   0.480   9.375 -1.7670 -0.9370  1.0950
  262MOL0     H34562   1.434   0.633   9.297 -0.8533  0.5439  0.7398
  262MOL0     H34563   1.412   0.535   9.448 -0.3262  0.0979  1.5267
  262MOL0     H34564   1.474   0.764   9.562  1.2161 -3.2287 -0.1110
  262MOL0     H34565   1.308   0.753   9.491 -0.3462  2.9395  1.7451
  262MOL0     H34566   1.981   0.839   8.589 -0.4312  0.3378  0.8727
  262MOL0     H34567   2.202   0.903   8.493 -2.1797  1.0811 -0.0206
  262MOL0     H34568   2.812   0.776   8.658  0.3861 -0.2714  0.8426
  262MOL0     H34569   3.001   0.831   8.553 -1.4933 -1.4283  2.3918
  262MOL0     H34570   4.530   1.031   7.252  0.4601 -0.5681 -1.5023
  262MOL0     H34571   4.755   0.991   7.173 -0.2073 -1.5753  0.6497
  262MOL0     H34572   5.205   1.135   7.356 -0.2038 -0.7565  1.3134
  262MOL0     H34573   5.442   1.179   7.342  0.5068 -1.0955  0.6904
  262MOL0     H34574   5.782   1.102   7.239 -0.0553  0.3116 -2.0181
  262MOL0     H34575   5.642   1.149   7.339 -0.3199  2.7984 -0.5700
  262MOL0     H34576   5.606   1.350   7.195  0.0415 -0.9649 -1.4079
  262MOL0     H34577   5.769   1.354   7.266 -1.0452  3.2819 -1.0468
  262MOL0     H34578   5.689   1.272   6.983 -2.5006  1.6968 -0.2230
  262MOL0     H34579   5.850   1.239   7.055 -0.0688 -0.2618 -1.4686
  262MOL0     H34580   5.707   1.508   7.008 -0.2844 -0.2809 -2.1706
  262MOL0     H34581   5.869   1.498   7.083  1.1938 -0.0991  0.2678
  262MOL0     H34582   5.980   1.451   6.688 -1.2981 -0.1120 -0.7031
  262MOL0     H34583   5.442   0.973   6.963  3.0043  0.3805  0.8404
  262MOL0     H34584   5.186   0.978   6.966 -1.4324 -2.2395  1.7615
  263MOL0     O34585   4.661   7.710   0.369  0.7218  0.1874  0.0599
  263MOL0     C34586   4.683   7.752   0.261 -0.5559 -0.0564  0.8165
  263MOL0     O34587   4.621   7.710   0.145  0.6155  0.1820  0.0971
  263MOL0     C34588   4.557   7.592   0.155  0.0830 -0.2993  0.1202
  263MOL0     C34589   4.633   7.473   0.166  0.2033  0.2352 -0.7584
  263MOL0     C34590   4.562   7.351   0.156  0.1199 -0.0867  0.2512
  263MOL0     C34591   4.418   7.345   0.124 -0.2310 -0.2110  0.1666
  263MOL0     O34592   4.355   7.229   0.093  0.2894  0.5802 -0.0005
  263MOL0     C34593   4.413   7.097   0.122 -0.0195 -0.4508 -0.3197
  263MOL0     C34594   4.301   7.000   0.102 -0.4249 -0.2023 -0.3265
  263MOL0     C34595   4.238   6.961   0.243 -0.2968 -0.3815  0.6145
  263MOL0     C34596   4.126   6.861   0.239 -0.0360 -0.2291 -0.2351
  263MOL0     C34597   4.177   6.717   0.269  0.0883 -0.1346  0.5404
  263MOL0     C34598   4.078   6.631   0.349  0.7477  0.2454 -0.0966
  263MOL0     C34599   3.938   6.596   0.273 -1.2898  0.1348  0.2613
  263MOL0     C34600   3.845   6.707   0.248 -0.1873 -0.4820 -0.0469
  263MOL0     N34601   3.720   6.661   0.196  0.3026  0.4549  0.4903
  263MOL0     C34602   3.706   6.589   0.076  0.5099 -0.0113  0.5248
  263MOL0     C34603   3.574   6.550   0.061  0.4518  0.1838 -0.3893
  263MOL0     C34604   3.503   6.483  -0.049  0.7934 -0.9026  0.4914
  263MOL0     C34605   3.494   6.339  -0.005  0.3259  0.2136 -0.1576
  263MOL0     C34606   3.400   6.270  -0.100 -0.9629  0.2443  0.6645
  263MOL0     C34607   3.383   6.127  -0.063  0.9191  0.4321 -0.3773
  263MOL0     O34608   3.304   6.060  -0.168 -0.3180 -0.3813 -0.2680
  263MOL0     C34609   3.198   5.972  -0.137 -0.0853 -0.5688 -0.0498
  263MOL0     C34610   3.134   5.919  -0.243  0.1408  0.6921  0.1542
  263MOL0     C34611   3.033   5.822  -0.231  0.7033 -0.0772 -0.3513
  263MOL0     C34612   2.987   5.793  -0.100  0.2300 -0.6307  0.0296
  263MOL0     C34613   2.881   5.699  -0.075 -1.2445 -0.0624 -0.5863
  263MOL0     O34614   2.793   5.675  -0.174 -0.4694  0.2539 -0.6275
  263MOL0     C34615   2.681   5.602  -0.156  0.2147 -0.1177  0.8022
  263MOL0     C34616   2.601   5.597  -0.048 -0.6137 -0.6763 -1.3365
  263MOL0     C34617   2.475   5.530  -0.038 -0.1731 -0.2471 -0.0634
  263MOL0     C34618   2.429   5.445  -0.141 -0.1803  0.1999  0.3896
  263MOL0     O34619   2.316   5.367  -0.149  0.3424 -0.1880  0.0375
  263MOL0     C34620   2.237   5.379  -0.029 -0.4778 -0.0693 -0.1101
  263MOL0     C34621   2.101   5.323  -0.057 -0.7860  0.1840  0.1117
  263MOL0     C34622   2.007   5.327   0.056 -0.4718  0.8261 -0.3079
  263MOL0     C34623   1.883   5.247   0.021 -0.4167  0.9209  1.0782
  263MOL0     C34624   1.764   5.261   0.107 -0.0421 -0.4926 -0.7050
  263MOL0     C34625   1.634   5.200   0.067 -0.5683  0.2696 -0.4804
  263MOL0     C34626   1.652   5.042   0.051  0.8251  0.1201  0.2514
  263MOL0     C34627   1.525   4.963   0.078 -0.1028  0.4894  0.5649
  263MOL0    Cl34628   1.478   4.997   0.259 -0.5755  0.0220 -0.1484
  263MOL0     C34629   2.508   5.443  -0.255 -0.6020  0.1471  0.6660
  263MOL0     C34630   2.629   5.518  -0.264  0.5833 -0.2311 -0.0196
  263MOL0     O34631   2.884   5.638   0.033 -0.1638 -0.0889 -0.3769
  263MOL0     C34632   3.047   5.860   0.008 -0.1203  0.9594  0.4580
  263MOL0     C34633   3.144   5.945  -0.013 -1.2223 -0.5620 -0.2546
  263MOL0     N34634   3.515   6.586   0.183  0.2371 -0.3487 -0.5814
  263MOL0     N34635   3.605   6.648   0.262 -0.1400  0.0001  0.3566
  263MOL0     C34636   4.342   7.470   0.121  0.4274  0.1736  0.4930
  263MOL0     C34637   4.413   7.595   0.133  0.4251 -0.6237 -0.2597
  263MOL0     C34638   4.763   7.872   0.238  0.4191 -0.1972 -0.7261
  263MOL0     C34639   4.866   7.909   0.330 -0.2885 -0.2665 -0.1171
  263MOL0     C34640   4.953   8.015   0.303 -0.1693 -0.2841 -0.0585
  263MOL0     C34641   4.952   8.088   0.191  0.8285 -0.1224 -0.0706
  263MOL0     O34642   5.043   8.195   0.178 -0.6106  0.2885  0.0939
  263MOL0     C34643   5.039   8.283   0.065  0.7149 -1.1416 -0.0541
  263MOL0     C34644   5.177   8.344   0.040  0.2355  0.0427  0.1431
  263MOL0     C34645   5.207   8.475   0.125  0.6211 -0.7086  0.3655
  263MOL0     C34646   5.289   8.447   0.254  0.4668 -1.1998  0.0327
  263MOL0     C34647   5.308   8.570   0.329 -0.1285 -0.5403  0.2405
  263MOL0     C34648   5.336   8.669   0.388  0.1988 -0.2585 -0.6743
  263MOL0     C34649   4.847   8.065   0.106  0.1963  0.6490  0.5148
  263MOL0     C34650   4.758   7.952   0.123 -0.3280  0.3225 -0.6011
  263MOL0     H34651   4.740   7.468   0.182  0.0841 -3.3694 -0.3000
  263MOL0     H34652   4.616   7.257   0.155  1.1034  0.4304  1.6716
  263MOL0     H34653   4.449   7.105   0.225  0.2445 -2.0251 -0.2562
  263MOL0     H34654   4.496   7.062   0.060  0.9667  1.2512 -0.0140
  263MOL0     H34655   4.340   6.915   0.046  1.4980  1.4741 -1.6649
  263MOL0     H34656   4.226   7.043   0.035  0.9792 -1.2223 -2.6535
  263MOL0     H34657   4.194   7.056   0.274  0.2499  1.0783 -2.6841
  263MOL0     H34658   4.312   6.933   0.318 -2.2170  0.7709  3.0888
  263MOL0     H34659   4.052   6.909   0.304  1.3424  3.7138 -1.3085
  263MOL0     H34660   4.082   6.868   0.139 -1.4236  0.9426  0.4178
  263MOL0     H34661   4.268   6.716   0.330 -0.0343 -0.9118  0.7219
  263MOL0     H34662   4.200   6.667   0.174 -0.8173 -2.4417  1.4690
  263MOL0     H34663   4.051   6.686   0.440 -2.2718  0.2493 -0.8958
  263MOL0     H34664   4.130   6.539   0.377 -1.3748 -0.8671  0.3592
  263MOL0     H34665   3.961   6.548   0.178  1.1375  1.3112  0.1795
  263MOL0     H34666   3.886   6.513   0.323 -1.9069 -0.8676 -1.9399
  263MOL0     H34667   3.884   6.773   0.170 -2.3258  0.9097 -0.0413
  263MOL0     H34668   3.823   6.764   0.338  0.8741  0.1968 -0.2038
  263MOL0     H34669   3.775   6.570  -0.005 -0.1922  2.7214 -0.8308
  263MOL0     H34670   3.558   6.497  -0.142  2.0975 -1.0563  1.2132
  263MOL0     H34671   3.402   6.523  -0.062 -0.3737 -2.4634  3.7318
  263MOL0     H34672   3.464   6.324   0.099  0.3843 -4.5085 -0.5999
  263MOL0     H34673   3.595   6.296  -0.013 -0.6486 -2.2076 -0.2183
  263MOL0     H34674   3.306   6.325  -0.112 -0.8667  0.5294  1.1697
  263MOL0     H34675   3.446   6.266  -0.199  0.1261 -1.0867  1.2055
  263MOL0     H34676   3.344   6.117   0.039  0.0468  0.3138 -0.7135
  263MOL0     H34677   3.479   6.076  -0.063  0.3290 -0.7101  0.3316
  263MOL0     H34678   3.159   5.934  -0.348 -1.4954  0.5590 -0.2898
  263MOL0     H34679   2.996   5.772  -0.321 -0.6396 -0.3258  0.3115
  263MOL0     H34680   2.628   5.670   0.028 -1.2544  0.1710 -1.9057
  263MOL0     H34681   2.427   5.546   0.058  0.5354  0.4381  0.1911
  263MOL0     H34682   2.208   5.481   0.001 -3.0637 -0.4591 -1.0325
  263MOL0     H34683   2.276   5.326   0.058  1.2025 -1.3617 -1.5694
  263MOL0     H34684   2.125   5.217  -0.071  0.7512  0.2220  1.9979
  263MOL0     H34685   2.053   5.365  -0.145  1.1041  3.0471  0.2836
  263MOL0     H34686   2.008   5.433   0.085  3.0762  0.4699  1.3104
  263MOL0     H34687   2.047   5.276   0.144 -2.5239 -1.9882 -0.8878
  263MOL0     H34688   1.848   5.252  -0.083 -0.7798 -1.9164  0.9642
  263MOL0     H34689   1.908   5.140   0.028 -0.3944  0.7801 -0.6471
  263MOL0     H34690   1.752   5.367   0.135 -1.1225 -1.3193  2.4393
  263MOL0     H34691   1.785   5.216   0.205  1.4309 -1.4463 -1.4270
  263MOL0     H34692   1.612   5.249  -0.028  1.0892  2.4452  0.1815
  263MOL0     H34693   1.558   5.231   0.139 -0.1951  0.0021  0.0355
  263MOL0     H34694   1.690   5.014  -0.048 -1.0342 -0.8985 -0.2085
  263MOL0     H34695   1.720   4.998   0.125 -0.0106 -0.5206  0.6462
  263MOL0     H34696   1.538   4.857   0.057  3.3487  1.1898 -1.7141
  263MOL0     H34697   1.457   4.994  -0.002  0.3033 -4.6666 -2.1690
  263MOL0     H34698   2.466   5.386  -0.337  2.3521 -1.0875 -0.1078
  263MOL0     H34699   2.673   5.526  -0.363 -1.1898 -0.0142 -0.8325
  263MOL0     H34700   2.994   5.854   0.102  0.5124 -0.2086  0.7592
  263MOL0     H34701   3.178   6.006   0.070  0.0514 -1.0438 -0.4004
  263MOL0     H34702   4.233   7.468   0.112  0.3411 -2.2051  1.3586
  263MOL0     H34703   4.359   7.688   0.147  2.8244  0.7646  0.2497
  263MOL0     H34704   4.874   7.862   0.428 -3.1577  0.5046  0.5927
  263MOL0     H34705   5.038   8.034   0.368  0.4418 -2.2968 -0.2035
  263MOL0     H34706   4.952   8.346   0.086  0.1891 -1.1389 -2.0553
  263MOL0     H34707   4.997   8.237  -0.025  2.4605 -3.9609  0.4688
  263MOL0     H34708   5.258   8.270   0.044 -1.4900 -2.0032 -1.0792
  263MOL0     H34709   5.175   8.376  -0.065 -0.5293 -0.2917  0.0505
  263MOL0     H34710   5.107   8.510   0.153  0.8858 -1.5959  2.6164
  263MOL0     H34711   5.244   8.548   0.052  1.2963 -1.1025  0.3082
  263MOL0     H34712   5.233   8.377   0.317 -0.2121 -1.0684 -0.4109
  263MOL0     H34713   5.380   8.392   0.230  2.4152  0.1989  3.5394
  263MOL0     H34714   5.353   8.764   0.436 -1.1020 -0.9117  1.2171
  263MOL0     H34715   4.839   8.116   0.011  3.7564 -0.2525 -0.4409
  263MOL0     H34716   4.704   7.915   0.036  0.5364 -0.2035 -0.9321
  264MOL0     O34717   5.921   1.945   8.562 -0.6339 -0.4587 -0.3054
  264MOL0     C34718   5.880   1.872   8.649 -0.9778  0.9758  0.0526
  264MOL0     O34719   5.768   1.802   8.654  0.3077  0.1707  0.3755
  264MOL0     C34720   5.660   1.826   8.576  0.5805 -0.1236  0.7587
  264MOL0     C34721   5.581   1.708   8.567  0.5335  0.5120 -0.4515
  264MOL0     C34722   5.468   1.702   8.479  0.4478 -0.4647  0.1628
  264MOL0     C34723   5.445   1.813   8.391  0.3946 -0.7960 -0.1163
  264MOL0     O34724   5.340   1.831   8.301  0.0272 -0.5142 -0.3654
  264MOL0     C34725   5.257   1.711   8.298 -0.7297  0.1922  0.6550
  264MOL0     C34726   5.147   1.759   8.207  0.0995  0.5415 -0.4273
  264MOL0     C34727   5.057   1.642   8.202 -0.0517 -0.0608  0.7130
  264MOL0     C34728   4.980   1.624   8.330 -0.0272  0.3886 -0.6614
  264MOL0     C34729   4.864   1.532   8.311  1.0469 -0.1485 -0.5666
  264MOL0     C34730   4.907   1.384   8.309 -0.8990  1.0450  1.1941
  264MOL0     C34731   4.802   1.284   8.349 -0.5996  0.2853  0.2669
  264MOL0     C34732   4.668   1.307   8.280  1.0212  0.4419  0.6371
  264MOL0     N34733   4.549   1.232   8.325 -1.2765  0.1902 -0.6236
  264MOL0     C34734   4.538   1.180   8.452  0.5630  0.3379  0.1577
  264MOL0     C34735   4.419   1.120   8.446 -0.0766 -0.5647  0.6226
  264MOL0     C34736   4.364   1.033   8.556  0.0090 -0.1242 -0.1697
  264MOL0     C34737   4.217   1.066   8.580  1.6185  0.3332 -0.3220
  264MOL0     C34738   4.162   0.994   8.703  0.0768  0.3793  0.5659
  264MOL0     C34739   4.055   1.078   8.769  0.6531 -0.3405  0.6519
  264MOL0     O34740   3.947   1.094   8.669 -0.1064  0.1559 -0.6656
  264MOL0     C34741   3.818   1.059   8.709 -1.0098  0.2718  0.0423
  264MOL0     C34742   3.719   1.059   8.609  0.4025  0.5598  0.2150
  264MOL0     C34743   3.589   1.017   8.639  0.1619 -0.4429 -0.6736
  264MOL0     C34744   3.549   0.990   8.771  0.8747 -0.5767  0.3753
  264MOL0     C34745   3.416   0.935   8.800  0.1476  0.2935  0.2859
  264MOL0     O34746   3.372   0.924   8.943 -0.1278 -0.6057  0.3820
  264MOL0     C34747   3.255   0.858   8.972 -0.2710 -0.0737  0.2452
  264MOL0     C34748   3.273   0.726   9.000 -0.7974  0.2052  0.0092
  264MOL0     C34749   3.158   0.652   9.019  0.1419  0.1389  0.2657
  264MOL0     C34750   3.030   0.704   8.998  0.3512  0.4402 -0.7820
  264MOL0     O34751   2.930   0.618   9.000 -0.2993 -0.4933  0.1094
  264MOL0     C34752   2.925   0.541   8.878  0.1265 -0.0119  0.6354
  264MOL0     C34753   2.805   0.445   8.885 -0.3148  0.5014  0.6355
  264MOL0     C34754   2.672   0.519   8.910 -1.4463  0.2356  0.4295
  264MOL0     C34755   2.572   0.403   8.941 -1.5069 -0.5640 -0.7252
  264MOL0     C34756   2.479   0.455   9.055 -1.0193  0.5975 -0.0384
  264MOL0     C34757   2.350   0.367   9.067  0.0790  1.2642  0.7481
  264MOL0     C34758   2.265   0.405   9.182  0.1233  0.2709 -0.6505
  264MOL0     C34759   2.144   0.468   9.141  0.4925 -1.4506 -0.7397
  264MOL0    Cl34760   2.066   0.546   9.286 -0.4303  0.2421  0.0210
  264MOL0     C34761   3.014   0.836   8.966 -0.5428 -0.5425  0.2279
  264MOL0     C34762   3.131   0.917   8.946  0.6041 -0.4309 -0.1714
  264MOL0     O34763   3.360   0.877   8.710  0.4128  0.4444 -0.0657
  264MOL0     C34764   3.647   0.997   8.872 -0.0244  0.9075  0.1298
  264MOL0     C34765   3.776   1.024   8.841 -0.5166 -0.6449 -0.1235
  264MOL0     N34766   4.363   1.135   8.324  1.5255  0.2752 -0.0814
  264MOL0     N34767   4.440   1.200   8.248  0.0698 -0.0269 -0.1177
  264MOL0     C34768   5.531   1.924   8.398 -0.7315 -0.3168  1.3843
  264MOL0     C34769   5.632   1.938   8.496  0.8123  0.1461 -1.0367
  264MOL0     C34770   5.978   1.862   8.765 -0.3048 -0.4239 -0.5878
  264MOL0     C34771   6.098   1.937   8.759  0.5055  0.2173 -1.0310
  264MOL0     C34772   6.197   1.918   8.853  0.8056  0.5247  0.0700
  264MOL0     C34773   6.190   1.831   8.959  0.3015  0.2778 -0.1831
  264MOL0     O34774   6.300   1.837   9.042 -0.1526 -0.7461  0.1198
  264MOL0     C34775   6.314   1.752   9.158  0.1404  0.4109 -0.3557
  264MOL0     C34776   6.463   1.742   9.193  0.2671  0.5230  0.3514
  264MOL0     C34777   6.515   1.869   9.242 -0.2598  0.6367  0.0960
  264MOL0     C34778   6.457   1.918   9.376 -0.8622 -0.3339 -0.1855
  264MOL0     C34779   6.456   1.808   9.483 -1.0579  0.6113  0.2380
  264MOL0     C34780   6.453   1.721   9.564  0.5816  0.2647 -0.4063
  264MOL0     C34781   6.067   1.766   8.968 -0.5869  0.4613 -0.6183
  264MOL0     C34782   5.965   1.776   8.873 -0.2603 -0.7439 -0.5694
  264MOL0     H34783   5.596   1.627   8.636  0.3914  1.1875  0.3907
  264MOL0     H34784   5.402   1.616   8.477 -1.0833  0.6563  0.5190
  264MOL0     H34785   5.223   1.667   8.392 -0.3434 -0.1691  0.6323
  264MOL0     H34786   5.316   1.630   8.253  0.5777  1.6197 -0.2826
  264MOL0     H34787   5.179   1.782   8.105 -0.5877  1.9554 -0.3450
  264MOL0     H34788   5.099   1.848   8.250 -0.7617  0.1435 -0.5438
  264MOL0     H34789   5.106   1.551   8.167 -1.3609  0.4777 -2.8696
  264MOL0     H34790   4.994   1.658   8.114  1.9088 -0.9504 -0.9289
  264MOL0     H34791   5.036   1.582   8.414  2.8840  3.8983 -0.5715
  264MOL0     H34792   4.943   1.725   8.353  1.8762  0.9041  0.3544
  264MOL0     H34793   4.788   1.565   8.239 -0.8134 -2.2063  0.3125
  264MOL0     H34794   4.809   1.540   8.406 -1.3008  1.0368 -1.9407
  264MOL0     H34795   4.992   1.371   8.377 -1.4191 -2.0303  1.3798
  264MOL0     H34796   4.940   1.360   8.207 -0.6467  0.2557  1.4535
  264MOL0     H34797   4.840   1.183   8.333 -0.9637  0.6213 -3.4443
  264MOL0     H34798   4.785   1.300   8.456 -1.9166  0.5490  0.0373
  264MOL0     H34799   4.675   1.277   8.175 -1.6281 -2.3200  1.1111
  264MOL0     H34800   4.635   1.411   8.287 -1.5234 -0.3699  1.8031
  264MOL0     H34801   4.610   1.184   8.533  2.1144 -0.4310 -1.1251
  264MOL0     H34802   4.428   1.048   8.644 -1.2360  2.6079  0.3782
  264MOL0     H34803   4.378   0.928   8.529 -2.5540 -0.1713 -1.5602
  264MOL0     H34804   4.163   1.024   8.495 -0.2269 -0.5480  1.2094
  264MOL0     H34805   4.199   1.173   8.595  0.4085 -0.1056  1.6900
  264MOL0     H34806   4.116   0.900   8.670  2.7754 -1.0704  0.6524
  264MOL0     H34807   4.241   0.975   8.776  0.0866 -4.0812 -0.2886
  264MOL0     H34808   4.084   1.182   8.791  0.4035  0.1077 -1.0023
  264MOL0     H34809   4.029   1.029   8.863 -1.7917 -3.5102 -1.4719
  264MOL0     H34810   3.747   1.083   8.507 -0.9391 -0.2046 -0.3606
  264MOL0     H34811   3.520   1.019   8.556 -1.4041 -2.0704  0.5300
  264MOL0     H34812   3.369   0.676   8.998 -1.9227 -2.0854 -0.7679
  264MOL0     H34813   3.186   0.549   9.034  2.1325  0.9295  2.6090
  264MOL0     H34814   3.013   0.483   8.850 -0.7264 -1.4977  0.9574
  264MOL0     H34815   2.917   0.615   8.797 -1.6170  0.6454  1.3473
  264MOL0     H34816   2.828   0.381   8.971 -0.8192 -0.9596 -0.2713
  264MOL0     H34817   2.798   0.392   8.789  2.3085  3.3557 -1.3301
  264MOL0     H34818   2.651   0.573   8.817  1.2152 -1.6373 -1.4084
  264MOL0     H34819   2.680   0.594   8.988 -0.8953  0.5187  0.1049
  264MOL0     H34820   2.511   0.380   8.853 -1.7155 -0.8928 -0.5000
  264MOL0     H34821   2.620   0.308   8.968  0.0151 -0.2541 -2.2032
  264MOL0     H34822   2.439   0.549   9.016  0.0405  1.2738  0.4634
  264MOL0     H34823   2.528   0.469   9.152 -2.5862 -0.9500  1.0388
  264MOL0     H34824   2.372   0.260   9.070  2.1069  1.5689 -0.9262
  264MOL0     H34825   2.295   0.384   8.974  0.9466 -1.5285 -0.3838
  264MOL0     H34826   2.239   0.332   9.259 -2.9697  2.8754  1.0711
  264MOL0     H34827   2.324   0.479   9.238  1.0914  0.7391 -2.2449
  264MOL0     H34828   2.078   0.397   9.090 -0.9656 -0.1642 -0.7197
  264MOL0     H34829   2.156   0.549   9.068 -2.2035 -0.3851 -0.1004
  264MOL0     H34830   2.915   0.876   8.953 -0.2098  0.3687  0.4175
  264MOL0     H34831   3.110   1.023   8.943  0.2632 -0.3682  2.1468
  264MOL0     H34832   3.626   0.966   8.974 -2.3967 -0.1511 -0.6171
  264MOL0     H34833   3.827   1.017   8.937 -1.5007  1.3833  0.6064
  264MOL0     H34834   5.525   1.999   8.320 -1.0112 -2.2211 -0.4944
  264MOL0     H34835   5.697   2.025   8.492 -0.1866  0.9497 -0.5204
  264MOL0     H34836   6.124   2.007   8.680 -0.5445 -0.4514 -1.9988
  264MOL0     H34837   6.295   1.962   8.836  1.5051 -0.5654  1.1682
  264MOL0     H34838   6.270   1.653   9.141 -0.9075  0.2721  2.6087
  264MOL0     H34839   6.251   1.786   9.240  0.3517 -3.0985  1.4789
  264MOL0     H34840   6.487   1.664   9.265  0.4269  0.5857  0.3658
  264MOL0     H34841   6.503   1.712   9.097 -0.5759  0.8323 -0.1087
  264MOL0     H34842   6.526   1.945   9.163  1.6768  0.4536  0.1330
  264MOL0     H34843   6.619   1.842   9.263 -0.0990  1.4384  0.3663
  264MOL0     H34844   6.517   2.003   9.411 -1.7366 -0.0432  0.6253
  264MOL0     H34845   6.359   1.952   9.343  0.6074  3.4801 -1.2705
  264MOL0     H34846   6.461   1.639   9.633  0.5131  0.5311 -0.0745
  264MOL0     H34847   6.056   1.703   9.055  1.2159  1.9687  0.7987
  264MOL0     H34848   5.871   1.730   8.901 -0.7174 -0.4982 -1.6729
  265MOL0     O34849   7.087   5.882   1.449  0.4823 -0.1383 -0.0250
  265MOL0     C34850   7.165   5.884   1.544  1.0140  0.4047  1.1268
  265MOL0     O34851   7.139   5.831   1.662  0.2648  0.0992 -0.4907
  265MOL0     C34852   7.024   5.764   1.691 -1.1155 -0.6371 -0.2635
  265MOL0     C34853   6.965   5.786   1.822  0.0868 -0.5850 -0.8571
  265MOL0     C34854   6.848   5.709   1.847  0.5463 -1.1677 -0.7062
  265MOL0     C34855   6.788   5.619   1.765  0.0617 -0.6193  0.1234
  265MOL0     O34856   6.670   5.550   1.811 -1.0486  0.2926  0.0175
  265MOL0     C34857   6.593   5.487   1.704  0.8146 -0.4031  0.0258
  265MOL0     C34858   6.463   5.424   1.762  0.4710 -0.2191  0.4657
  265MOL0     C34859   6.389   5.360   1.642 -0.3855 -0.6069 -0.1019
  265MOL0     C34860   6.281   5.268   1.689  0.3899  0.4706 -0.5452
  265MOL0     C34861   6.252   5.150   1.598 -0.9318 -0.2475 -0.5054
  265MOL0     C34862   6.119   5.080   1.625 -0.0230 -0.5903 -0.1651
  265MOL0     C34863   6.115   4.968   1.527  0.4703 -0.6642 -0.4522
  265MOL0     C34864   5.985   4.891   1.527 -0.0591 -0.1964 -1.0776
  265MOL0     N34865   5.974   4.820   1.403 -0.0423  0.0808  0.2080
  265MOL0     C34866   5.924   4.880   1.286  0.4603 -0.5128 -0.7466
  265MOL0     C34867   5.913   4.773   1.205 -0.3588  0.7228 -0.1860
  265MOL0     C34868   5.847   4.752   1.076  0.9436  0.0320 -0.5955
  265MOL0     C34869   5.882   4.872   0.988 -0.9762 -0.0612 -0.2998
  265MOL0     C34870   5.777   4.870   0.878 -0.8750 -0.2093 -0.1732
  265MOL0     C34871   5.644   4.929   0.916  0.5387 -0.3040  0.2318
  265MOL0     O34872   5.658   5.067   0.945  0.9616 -0.3130  0.2470
  265MOL0     C34873   5.542   5.134   0.978  0.5155  0.0090 -0.6472
  265MOL0     C34874   5.450   5.180   0.884 -0.0029 -0.9221  0.8668
  265MOL0     C34875   5.331   5.250   0.919  0.2814 -0.1484 -0.1348
  265MOL0     C34876   5.308   5.278   1.054  0.0977 -0.1949 -0.1826
  265MOL0     C34877   5.194   5.362   1.104  0.6765  0.5756  1.1575
  265MOL0     O34878   5.093   5.388   1.022  0.2042  0.5004 -0.6612
  265MOL0     C34879   4.988   5.472   1.054  0.5422  0.7043  0.1976
  265MOL0     C34880   5.003   5.599   1.098 -0.5111 -0.0315  0.3426
  265MOL0     C34881   4.892   5.687   1.099 -0.4000  0.6090 -0.0214
  265MOL0     C34882   4.765   5.642   1.073  0.6443  0.1221  0.6644
  265MOL0     O34883   4.671   5.738   1.088  0.9958 -0.1785  0.1337
  265MOL0     C34884   4.537   5.718   1.035 -0.4236 -0.3512 -1.3977
  265MOL0     C34885   4.450   5.850   1.070  0.2064  0.4312  0.1394
  265MOL0     C34886   4.304   5.807   1.067 -0.3124 -0.2359 -0.3318
  265MOL0     C34887   4.242   5.774   0.935 -0.1443  0.4596 -0.1973
  265MOL0     C34888   4.094   5.728   0.964  1.0673  0.3701  0.5229
  265MOL0     C34889   4.032   5.679   0.827 -0.6520  0.1274 -0.0337
  265MOL0     C34890   3.931   5.567   0.845  0.4311 -0.0223 -0.0402
  265MOL0     C34891   3.832   5.592   0.965 -0.0390 -0.0158 -0.5143
  265MOL0    Cl34892   3.744   5.755   0.959 -0.2171  0.2746 -0.6650
  265MOL0     C34893   4.746   5.508   1.037 -0.4985  0.3202  0.4217
  265MOL0     C34894   4.860   5.423   1.022  0.6762  0.1692  0.1832
  265MOL0     O34895   5.197   5.403   1.223 -0.1376  0.2996  0.7686
  265MOL0     C34896   5.411   5.241   1.148 -0.2428 -0.3013  0.3990
  265MOL0     C34897   5.525   5.172   1.109  0.2654 -0.1280  0.8176
  265MOL0     N34898   5.978   4.665   1.262  0.3649  0.2998  0.8421
  265MOL0     N34899   6.003   4.689   1.387 -0.3035 -0.5191 -0.2098
  265MOL0     C34900   6.851   5.598   1.643  0.0641  0.0827 -0.1089
  265MOL0     C34901   6.972   5.667   1.605 -0.0377  0.3931 -0.3255
  265MOL0     C34902   7.297   5.926   1.517  0.0386 -0.0469 -1.1578
  265MOL0     C34903   7.324   5.997   1.406 -0.4761 -0.0080 -1.4229
  265MOL0     C34904   7.456   6.028   1.376 -0.6573 -0.4159  0.0576
  265MOL0     C34905   7.566   6.001   1.465 -0.0067 -0.5390 -0.2510
  265MOL0     O34906   7.693   6.039   1.432 -0.2154 -0.0497 -0.1718
  265MOL0     C34907   7.778   5.925   1.394 -0.2089 -1.4053 -0.6506
  265MOL0     C34908   7.821   5.944   1.249 -0.1605 -0.3684  0.0458
  265MOL0     C34909   7.762   5.828   1.162  0.4343  0.1585  0.8615
  265MOL0     C34910   7.784   5.844   1.005 -0.0386 -0.3212  0.0493
  265MOL0     C34911   7.915   5.790   0.974 -0.0416  0.0995  0.1056
  265MOL0     C34912   8.025   5.741   0.986 -0.4094  0.3312 -0.0393
  265MOL0     C34913   7.533   5.934   1.580  0.5106 -0.0370  0.6133
  265MOL0     C34914   7.400   5.898   1.612  0.0556 -0.9704  0.2489
  265MOL0     H34915   7.013   5.855   1.891 -0.2742  2.0558 -3.0819
  265MOL0     H34916   6.813   5.723   1.948 -0.2596 -0.0041 -1.1152
  265MOL0     H34917   6.650   5.410   1.652 -2.0299 -2.0359 -0.8831
  265MOL0     H34918   6.560   5.564   1.632  0.2575  1.6490  2.3369
  265MOL0     H34919   6.402   5.505   1.805  0.3071  0.4395 -0.9572
  265MOL0     H34920   6.483   5.352   1.842  0.4143  1.9789  2.5925
  265MOL0     H34921   6.455   5.301   1.578 -0.8413  0.2445 -1.4160
  265MOL0     H34922   6.357   5.443   1.577  0.9511  0.4460  0.5195
  265MOL0     H34923   6.288   5.239   1.794 -0.4380  2.1859  0.0256
  265MOL0     H34924   6.192   5.332   1.688  1.1449  1.5927  0.6726
  265MOL0     H34925   6.332   5.080   1.622 -0.4800  0.7283  0.9373
  265MOL0     H34926   6.258   5.182   1.493  0.7823  1.8025  0.1628
  265MOL0     H34927   6.043   5.153   1.599  1.0178 -0.2956 -2.6625
  265MOL0     H34928   6.101   5.047   1.728  0.0116  0.3466  0.1561
  265MOL0     H34929   6.105   5.015   1.429 -5.4262  2.7131  1.2867
  265MOL0     H34930   6.203   4.905   1.545  1.2451  0.5429  0.1095
  265MOL0     H34931   5.898   4.956   1.525  1.9040  2.6084 -0.8752
  265MOL0     H34932   5.967   4.829   1.615  1.3347  1.8620  0.7448
  265MOL0     H34933   5.878   4.975   1.262 -5.4047 -3.0140 -0.8931
  265MOL0     H34934   5.740   4.753   1.098  0.2367  1.6707 -3.5842
  265MOL0     H34935   5.867   4.654   1.030  0.3432 -2.0071  3.0908
  265MOL0     H34936   5.983   4.869   0.947 -0.8772 -0.6739 -0.0205
  265MOL0     H34937   5.875   4.964   1.048 -1.7462 -0.3071 -0.0057
  265MOL0     H34938   5.819   4.922   0.791 -0.4133  0.3943  0.3956
  265MOL0     H34939   5.759   4.769   0.839  1.6638 -1.1477  0.9196
  265MOL0     H34940   5.608   4.880   1.007  1.0527  0.4653  0.8641
  265MOL0     H34941   5.565   4.912   0.842  1.2332  0.8525 -0.8056
  265MOL0     H34942   5.469   5.174   0.777  0.1034 -1.7418  0.9268
  265MOL0     H34943   5.267   5.274   0.834  1.2688 -1.7216 -1.3674
  265MOL0     H34944   5.102   5.637   1.123 -0.3445  3.4770 -4.2036
  265MOL0     H34945   4.915   5.792   1.115 -0.6257  0.9344 -1.7318
  265MOL0     H34946   4.494   5.627   1.079 -0.3032  0.8010  1.2436
  265MOL0     H34947   4.533   5.704   0.926  0.3834  0.2819 -1.5168
  265MOL0     H34948   4.467   5.920   0.988 -0.7448  0.7872  0.2423
  265MOL0     H34949   4.486   5.892   1.165  1.8711  1.4774 -0.9031
  265MOL0     H34950   4.245   5.879   1.124 -1.6416 -2.4630  1.2779
  265MOL0     H34951   4.278   5.725   1.135 -0.4642 -1.1535 -1.4598
  265MOL0     H34952   4.243   5.868   0.879 -0.7852  1.7087  1.7727
  265MOL0     H34953   4.314   5.704   0.892  0.6289  0.9278  0.2967
  265MOL0     H34954   4.039   5.811   1.008 -1.4509 -1.4372  1.0034
  265MOL0     H34955   4.088   5.644   1.034  1.4530 -0.4391 -0.3891
  265MOL0     H34956   4.108   5.638   0.760 -1.4715  2.2452 -2.4553
  265MOL0     H34957   3.990   5.768   0.779 -0.4057 -0.8891 -2.2702
  265MOL0     H34958   3.865   5.548   0.759 -2.4980 -0.2615  2.0804
  265MOL0     H34959   3.984   5.473   0.863  0.6871  0.3389  1.1288
  265MOL0     H34960   3.876   5.589   1.065  1.9531  1.6534 -1.2567
  265MOL0     H34961   3.773   5.501   0.962  3.7263 -2.6737 -1.1806
  265MOL0     H34962   4.650   5.462   1.013  0.6661 -1.4189 -1.2535
  265MOL0     H34963   4.848   5.320   0.990  0.9496  0.0308  0.5210
  265MOL0     H34964   5.404   5.265   1.254 -0.2882  0.7652  0.1619
  265MOL0     H34965   5.601   5.136   1.178  1.3550 -1.1905 -0.8441
  265MOL0     H34966   6.804   5.537   1.566  1.3250 -1.0833  0.0160
  265MOL0     H34967   7.011   5.645   1.506  1.2238 -1.6728  0.5536
  265MOL0     H34968   7.247   6.024   1.334  0.6658  1.9434 -1.9805
  265MOL0     H34969   7.469   6.084   1.284 -1.1373  0.8095  0.7037
  265MOL0     H34970   7.725   5.831   1.412  1.4509 -2.4411 -0.9647
  265MOL0     H34971   7.861   5.931   1.465 -0.3894  2.7482 -0.5577
  265MOL0     H34972   7.788   6.043   1.216  0.9316 -0.7476 -2.4543
  265MOL0     H34973   7.931   5.941   1.246 -0.1259 -0.4265  1.0211
  265MOL0     H34974   7.656   5.810   1.180 -0.0410  1.2667 -0.7046
  265MOL0     H34975   7.814   5.734   1.184  0.0505  0.0143  1.1698
  265MOL0     H34976   7.711   5.787   0.946 -1.8880  1.8755  0.0657
  265MOL0     H34977   7.771   5.948   0.973 -0.6655  0.2859  2.1229
  265MOL0     H34978   8.110   5.677   0.989 -2.8454 -3.1726  1.7809
  265MOL0     H34979   7.602   5.901   1.657  0.3467 -0.0588  0.7522
  265MOL0     H34980   7.378   5.847   1.706 -0.8486  2.1452  1.8852
  266MOL0     O34981   4.258  10.728   5.881 -0.2356 -0.4465  0.2259
  266MOL0     C34982   4.260  10.669   5.774  0.2711 -0.9197 -0.4268
  266MOL0     O34983   4.207  10.709   5.656  0.4757 -0.1507 -0.5591
  266MOL0     C34984   4.160  10.835   5.657 -0.2235 -0.1494  0.2161
  266MOL0     C34985   4.245  10.949   5.662 -0.0067 -1.2185  0.0195
  266MOL0     C34986   4.176  11.075   5.679 -0.5861  0.9727 -0.0430
  266MOL0     C34987   4.035  11.078   5.661 -0.4140  0.1050  0.0329
  266MOL0     O34988   3.979  11.202   5.671 -0.0504 -0.1410 -0.3806
  266MOL0     C34989   3.889  11.245   5.567 -0.5291  0.2689 -0.2106
  266MOL0     C34990   3.925  11.391   5.525 -0.7335  0.1660  0.1948
  266MOL0     C34991   3.885  11.503   5.621 -0.6456 -0.6977  0.2714
  266MOL0     C34992   3.760  11.585   5.571 -0.4752 -0.0181 -0.1866
  266MOL0     C34993   3.627  11.521   5.600 -0.3945 -0.0936 -0.0490
  266MOL0     C34994   3.505  11.608   5.570  0.0871  0.6187  0.1568
  266MOL0     C34995   3.389  11.573   5.669  0.0429 -0.0902  0.1818
  266MOL0     C34996   3.275  11.675   5.642 -0.6740  0.0472 -0.5766
  266MOL0     N34997   3.148  11.643   5.715  0.1626 -0.4369 -0.0038
  266MOL0     C34998   3.076  11.531   5.706 -0.1148 -0.2609 -0.4432
  266MOL0     C34999   2.959  11.561   5.764  0.1751 -0.3693  0.0928
  266MOL0     C35000   2.834  11.483   5.766  0.1232 -0.6571 -0.1859
  266MOL0     C35001   2.743  11.541   5.662  0.1499  0.8455  0.0229
  266MOL0     C35002   2.630  11.442   5.653 -0.3176  0.4578  0.0731
  266MOL0     C35003   2.543  11.466   5.534  0.3794 -0.2545 -0.6901
  266MOL0     O35004   2.433  11.370   5.524 -0.8182  0.0327 -0.6243
  266MOL0     C35005   2.307  11.402   5.573  0.3185  0.2397  0.9385
  266MOL0     C35006   2.237  11.518   5.536  0.9199  1.0333 -0.2723
  266MOL0     C35007   2.110  11.538   5.578  0.1898 -0.0968 -0.5573
  266MOL0     C35008   2.047  11.438   5.654  0.3578 -0.0947 -0.9710
  266MOL0     C35009   1.904  11.440   5.695  0.5406  0.5475  0.0526
  266MOL0     O35010   1.860  11.346   5.789 -0.2875 -0.0085  0.4762
  266MOL0     C35011   1.729  11.344   5.818  0.1674  0.9426  0.2246
  266MOL0     C35012   1.665  11.450   5.895 -0.6029 -0.4908 -0.3493
  266MOL0     C35013   1.528  11.427   5.932  1.0789  0.0767  0.1699
  266MOL0     C35014   1.457  11.316   5.882 -0.5968 -0.1979 -0.0497
  266MOL0     O35015   1.321  11.321   5.906  0.0703 -0.1162 -0.3804
  266MOL0     C35016   1.236  11.204   5.897 -0.6238 -0.0489 -0.4799
  266MOL0     C35017   1.102  11.269   5.907 -0.0126 -0.3530  0.5742
  266MOL0     C35018   0.998  11.157   5.894  0.5801 -0.3653  0.6721
  266MOL0     C35019   0.859  11.227   5.901  0.1957  0.5602  0.0804
  266MOL0     C35020   0.745  11.136   5.886  0.0909  1.5817  0.3234
  266MOL0     C35021   0.615  11.222   5.913 -0.3191  0.2383  0.0262
  266MOL0     C35022   0.483  11.144   5.862  0.0905 -0.6099  0.6461
  266MOL0     C35023   0.357  11.193   5.922 -0.1832 -0.2716  1.0166
  266MOL0    Cl35024   0.344  11.166   6.098 -0.1481 -0.0265 -0.0016
  266MOL0     C35025   1.524  11.209   5.820 -0.1778  0.0644 -0.6454
  266MOL0     C35026   1.662  11.225   5.798  0.3459  0.4875  0.2920
  266MOL0     O35027   1.835  11.524   5.644 -0.5022 -0.6304  0.0322
  266MOL0     C35028   2.120  11.323   5.681  0.1983  0.9751 -0.7708
  266MOL0     C35029   2.251  11.299   5.646 -0.6407 -0.0731  0.2098
  266MOL0     N35030   2.965  11.689   5.819 -0.7871  1.3295  0.4912
  266MOL0     N35031   3.082  11.737   5.789 -0.3662 -0.3378 -0.6711
  266MOL0     C35032   3.960  10.965   5.631  0.4996 -0.5624  0.1273
  266MOL0     C35033   4.022  10.846   5.626 -0.0902 -0.2677 -0.0217
  266MOL0     C35034   4.306  10.523   5.783  0.6159 -0.3348 -1.0424
  266MOL0     C35035   4.381  10.478   5.894 -0.7431 -0.8427 -0.2436
  266MOL0     C35036   4.398  10.340   5.916  0.5969  0.4911 -0.3458
  266MOL0     C35037   4.352  10.246   5.816 -0.3063 -0.2244 -0.4528
  266MOL0     O35038   4.382  10.112   5.838  0.0955  0.1581  0.0892
  266MOL0     C35039   4.315  10.006   5.770  0.0623 -0.3476 -0.3113
  266MOL0     C35040   4.375   9.880   5.824  0.2386  0.2132 -0.4899
  266MOL0     C35041   4.326   9.762   5.747 -0.3453  0.1669  0.3041
  266MOL0     C35042   4.187   9.721   5.795  0.5214 -0.8278 -0.2348
  266MOL0     C35043   4.133   9.639   5.694  0.9276  0.7251 -0.2825
  266MOL0     C35044   4.062   9.569   5.621  0.9926 -0.6957 -0.4648
  266MOL0     C35045   4.285  10.287   5.705  1.1774 -0.1921  0.9353
  266MOL0     C35046   4.264  10.427   5.684 -0.2713 -0.4314 -0.0594
  266MOL0     H35047   4.353  10.940   5.670  0.2541 -0.4004 -2.0399
  266MOL0     H35048   4.232  11.168   5.678 -0.6954  1.0415 -1.1783
  266MOL0     H35049   3.790  11.233   5.613  0.0437 -0.6886  0.8237
  266MOL0     H35050   3.883  11.183   5.477 -0.2988 -1.0672  0.6644
  266MOL0     H35051   3.886  11.416   5.426 -0.8389 -1.0668 -0.0921
  266MOL0     H35052   4.033  11.396   5.508 -0.5572  0.4513  1.3050
  266MOL0     H35053   3.953  11.586   5.600 -1.0032 -0.5731 -0.3976
  266MOL0     H35054   3.877  11.486   5.729 -0.4263  0.0235  0.4046
  266MOL0     H35055   3.767  11.679   5.627 -1.4810 -0.3619  0.5384
  266MOL0     H35056   3.760  11.608   5.464 -0.9600  2.4862  0.2931
  266MOL0     H35057   3.634  11.486   5.704  1.3476 -0.0273 -0.1207
  266MOL0     H35058   3.631  11.438   5.529  0.6664  1.4751 -1.9157
  266MOL0     H35059   3.469  11.587   5.469 -1.2669 -3.0968  1.2452
  266MOL0     H35060   3.547  11.708   5.588 -0.4421  0.3717  3.4280
  266MOL0     H35061   3.353  11.471   5.654  0.0617  0.2283 -2.6451
  266MOL0     H35062   3.421  11.593   5.772  0.8406 -0.2850 -0.0191
  266MOL0     H35063   3.262  11.694   5.535  1.0938 -2.4193 -1.3359
  266MOL0     H35064   3.307  11.765   5.694  2.8515 -2.1191  1.4452
  266MOL0     H35065   3.099  11.437   5.657 -0.1430 -1.3843  1.6141
  266MOL0     H35066   2.786  11.493   5.864 -1.7132 -3.9625 -0.6190
  266MOL0     H35067   2.851  11.376   5.758 -0.2242 -1.0891  3.1405
  266MOL0     H35068   2.791  11.539   5.564 -1.2169 -2.5933 -0.7430
  266MOL0     H35069   2.712  11.644   5.677  0.0211  0.5883  1.7399
  266MOL0     H35070   2.653  11.336   5.658 -1.5180  0.2032  0.5692
  266MOL0     H35071   2.566  11.457   5.740  2.1529  2.3420  1.7089
  266MOL0     H35072   2.604  11.469   5.443  0.6927 -0.5080 -0.4923
  266MOL0     H35073   2.494  11.563   5.540  0.1265 -0.3525 -1.0863
  266MOL0     H35074   2.284  11.597   5.478 -1.1008  1.9304 -0.7990
  266MOL0     H35075   2.056  11.624   5.538  0.4443 -0.2494 -1.2417
  266MOL0     H35076   1.723  11.535   5.928 -2.9354  1.6300 -1.4316
  266MOL0     H35077   1.477  11.503   5.989  0.4082  2.0636 -2.8211
  266MOL0     H35078   1.259  11.128   5.972 -1.5960 -0.1138 -0.2425
  266MOL0     H35079   1.244  11.155   5.799  0.7760  0.0005 -0.4192
  266MOL0     H35080   1.100  11.349   5.833  0.3199  0.3621  1.3176
  266MOL0     H35081   1.083  11.331   5.996 -2.4892 -1.0497  0.5960
  266MOL0     H35082   1.002  11.076   5.968  1.3527  1.0966  2.3026
  266MOL0     H35083   1.005  11.109   5.795 -2.8840 -0.5814  0.4164
  266MOL0     H35084   0.853  11.285   5.993  1.5319 -2.1308  2.0116
  266MOL0     H35085   0.856  11.308   5.827  2.5832  2.0563  1.4839
  266MOL0     H35086   0.747  11.055   5.960  3.0195  0.3402 -0.9719
  266MOL0     H35087   0.754  11.090   5.787 -2.0607 -0.2377  0.8874
  266MOL0     H35088   0.622  11.320   5.866 -0.8953 -1.0850 -3.0974
  266MOL0     H35089   0.609  11.232   6.022 -2.4292  0.7218 -0.0838
  266MOL0     H35090   0.472  11.171   5.757 -1.4010  1.1907  1.1938
  266MOL0     H35091   0.483  11.036   5.873 -3.0304 -0.5653  2.5460
  266MOL0     H35092   0.274  11.155   5.863  1.0884  0.6625 -1.5089
  266MOL0     H35093   0.360  11.300   5.904 -0.5573 -0.5676 -1.0208
  266MOL0     H35094   1.479  11.112   5.804 -0.2378 -0.4444  2.0682
  266MOL0     H35095   1.721  11.138   5.771  1.0100  0.0374  2.9233
  266MOL0     H35096   2.069  11.249   5.742  0.2279  1.8341  0.3361
  266MOL0     H35097   2.295  11.202   5.669  1.0032 -0.2080 -2.9659
  266MOL0     H35098   3.854  10.973   5.610  1.0295  0.8183 -2.5706
  266MOL0     H35099   3.966  10.758   5.596 -0.3077  0.0797 -0.6688
  266MOL0     H35100   4.436  10.548   5.956 -1.6534 -0.9872  0.7542
  266MOL0     H35101   4.451  10.296   5.999 -2.1568 -1.5345  0.4488
  266MOL0     H35102   4.338  10.013   5.664  2.8313  2.1600  0.3073
  266MOL0     H35103   4.206  10.017   5.778  0.2611  0.6257  1.9131
  266MOL0     H35104   4.484   9.883   5.828  0.1875  2.1435  1.2304
  266MOL0     H35105   4.349   9.884   5.930  3.0056  1.0821  0.2455
  266MOL0     H35106   4.392   9.675   5.761 -1.2688 -0.7632 -0.9124
  266MOL0     H35107   4.323   9.771   5.638  3.2233  1.0927  0.1619
  266MOL0     H35108   4.191   9.663   5.888 -0.5479  1.8155  1.5565
  266MOL0     H35109   4.123   9.808   5.812  2.8494  1.2854 -1.6824
  266MOL0     H35110   4.004   9.516   5.547 -0.7366  2.6383 -1.7292
  266MOL0     H35111   4.235  10.214   5.641  1.9758 -3.4030  3.6552
  266MOL0     H35112   4.199  10.462   5.605  1.0469  2.7278  0.1187
  267MOL0     O35113   0.930   5.433   7.104  0.5342  0.0804  0.0174
  267MOL0     C35114   0.951   5.314   7.078 -0.3642 -0.4477  0.2830
  267MOL0     O35115   0.866   5.218   7.027  0.2010 -0.0920 -0.8247
  267MOL0     C35116   0.738   5.265   6.994 -0.0609 -0.9171  0.4429
  267MOL0     C35117   0.631   5.207   7.058 -0.7449  0.4194 -0.0510
  267MOL0     C35118   0.503   5.252   7.034  0.1624  0.1528 -0.5417
  267MOL0     C35119   0.478   5.363   6.948 -0.1574  0.5541  1.0165
  267MOL0     O35120   0.350   5.419   6.965 -0.2322 -0.1156 -0.7385
  267MOL0     C35121   0.246   5.344   6.902  0.6200  0.1110  0.4211
  267MOL0     C35122   0.117   5.425   6.878 -0.1697 -0.1065 -0.9824
  267MOL0     C35123   0.033   5.446   7.004 -1.6083  0.0508 -0.4173
  267MOL0     C35124  -0.083   5.550   6.968 -1.1511  0.7448  0.4517
  267MOL0     C35125  -0.202   5.554   7.056  1.4247 -0.2076 -0.0219
  267MOL0     C35126  -0.336   5.585   6.981 -0.7750 -0.1506  0.3411
  267MOL0     C35127  -0.344   5.732   6.933  0.2113 -0.5964 -0.1344
  267MOL0     C35128  -0.470   5.772   6.853 -0.5054 -0.3116  0.5203
  267MOL0     N35129  -0.580   5.784   6.945 -0.5812 -0.3337  1.2353
  267MOL0     C35130  -0.666   5.679   6.979 -0.5455 -0.4290  0.5532
  267MOL0     C35131  -0.767   5.743   7.055 -1.0146 -0.0925 -0.1347
  267MOL0     C35132  -0.883   5.685   7.118  0.5515  0.3741  0.4879
  267MOL0     C35133  -0.862   5.668   7.269  0.6868  0.0870 -0.6549
  267MOL0     C35134  -0.868   5.805   7.340  0.2038 -0.9856  0.3678
  267MOL0     C35135  -0.854   5.781   7.492  0.6482 -0.2892  0.2950
  267MOL0     O35136  -0.855   5.913   7.547 -0.1917  0.0099  0.5134
  267MOL0     C35137  -0.972   5.979   7.574  0.1986 -0.1353  0.4379
  267MOL0     C35138  -0.949   6.107   7.637  0.2832  0.5836 -1.2657
  267MOL0     C35139  -1.057   6.176   7.697  0.0062 -0.0319  0.0064
  267MOL0     C35140  -1.187   6.126   7.678  0.0644 -0.1236 -1.3410
  267MOL0     C35141  -1.305   6.202   7.725  0.4601  0.4184 -0.5603
  267MOL0     O35142  -1.425   6.136   7.727 -0.4932  0.2426  0.0289
  267MOL0     C35143  -1.543   6.192   7.771 -0.6868  0.0346 -0.0651
  267MOL0     C35144  -1.593   6.323   7.748  0.5378  0.2215 -0.9482
  267MOL0     C35145  -1.732   6.354   7.768  0.4928  0.0182  0.5416
  267MOL0     C35146  -1.822   6.258   7.824  0.0336 -0.5440 -0.9736
  267MOL0     O35147  -1.953   6.279   7.851 -0.3173 -0.8653  0.1481
  267MOL0     C35148  -2.004   6.258   7.983  0.6878  0.3681 -0.0640
  267MOL0     C35149  -2.157   6.219   7.955 -0.6889  0.1775  0.7038
  267MOL0     C35150  -2.240   6.223   8.085  0.1083 -0.1254 -0.1477
  267MOL0     C35151  -2.379   6.172   8.083  0.0916 -0.5043  0.2746
  267MOL0     C35152  -2.432   6.191   8.224 -0.2462 -0.5430  0.1539
  267MOL0     C35153  -2.575   6.135   8.234 -0.8955 -0.9217  0.2096
  267MOL0     C35154  -2.634   6.118   8.370  0.1448 -0.4995 -0.0455
  267MOL0     C35155  -2.765   6.049   8.371  0.4375 -0.0930 -0.6183
  267MOL0    Cl35156  -2.886   6.153   8.294  0.4431  0.4248 -0.4792
  267MOL0     C35157  -1.761   6.140   7.864 -0.5808 -0.6073 -0.7941
  267MOL0     C35158  -1.622   6.107   7.842 -0.0213 -0.3710  0.3332
  267MOL0     O35159  -1.287   6.309   7.779  0.3815  1.0705  0.0643
  267MOL0     C35160  -1.204   6.008   7.602 -0.1428  0.0872 -0.0839
  267MOL0     C35161  -1.098   5.937   7.543  0.7933  0.0367  0.7029
  267MOL0     N35162  -0.746   5.880   7.042  0.8185 -0.5862  0.2149
  267MOL0     N35163  -0.642   5.900   6.967  0.3622 -0.1391 -0.5952
  267MOL0     C35164   0.587   5.426   6.885 -0.1324  0.6086  0.5930
  267MOL0     C35165   0.715   5.375   6.899  0.0409 -0.1253 -0.6728
  267MOL0     C35166   1.091   5.272   7.096 -0.4782 -0.0009 -0.7762
  267MOL0     C35167   1.197   5.362   7.113 -0.4223  0.0784  0.3806
  267MOL0     C35168   1.327   5.314   7.135 -0.9034 -0.2229  0.6101
  267MOL0     C35169   1.359   5.184   7.146 -0.0003 -0.2868 -0.1830
  267MOL0     O35170   1.475   5.120   7.201  0.3088  0.0403  0.0777
  267MOL0     C35171   1.598   5.203   7.214  0.3934  0.3835 -0.7215
  267MOL0     C35172   1.677   5.211   7.083  0.4340  0.0298  0.3995
  267MOL0     C35173   1.750   5.078   7.051 -0.2374  0.2757  0.4319
  267MOL0     C35174   1.863   5.109   6.947 -0.2400 -0.7245 -0.5385
  267MOL0     C35175   1.952   5.212   6.993  0.3678  0.3523  0.6462
  267MOL0     C35176   2.016   5.297   7.051  0.3859  0.4671  0.4213
  267MOL0     C35177   1.254   5.093   7.130  0.2414  0.9365 -0.5814
  267MOL0     C35178   1.125   5.138   7.098  0.0474  1.0813 -0.8927
  267MOL0     H35179   0.639   5.130   7.134  1.0755  1.1416  0.5483
  267MOL0     H35180   0.418   5.214   7.090 -1.2194  2.4833 -0.9072
  267MOL0     H35181   0.236   5.252   6.960  1.8816  0.4768  1.2629
  267MOL0     H35182   0.290   5.295   6.814  3.5402 -1.8008  2.7283
  267MOL0     H35183   0.058   5.366   6.808  1.1775 -1.9407 -0.6434
  267MOL0     H35184   0.142   5.525   6.841  2.8790 -0.2262  0.4322
  267MOL0     H35185   0.091   5.491   7.086 -3.1580 -2.5345  2.2872
  267MOL0     H35186  -0.006   5.347   7.030 -2.2939  0.7089  1.1465
  267MOL0     H35187  -0.038   5.650   6.960  1.6582 -0.3717  0.8011
  267MOL0     H35188  -0.123   5.518   6.872  1.5445 -0.9718 -0.2377
  267MOL0     H35189  -0.186   5.623   7.140  1.2088  2.7719 -2.2543
  267MOL0     H35190  -0.222   5.457   7.103 -0.1697  0.2638  0.3370
  267MOL0     H35191  -0.413   5.564   7.055  0.7312  0.3762  2.1133
  267MOL0     H35192  -0.340   5.516   6.896 -1.9521  2.3244 -1.7981
  267MOL0     H35193  -0.323   5.804   7.013  2.2966 -0.6976 -0.5127
  267MOL0     H35194  -0.264   5.740   6.859 -0.0623 -0.4222 -0.4106
  267MOL0     H35195  -0.498   5.698   6.777 -0.5141  0.7570 -0.5406
  267MOL0     H35196  -0.472   5.866   6.798 -0.7260  1.0164  2.7031
  267MOL0     H35197  -0.655   5.575   6.953 -0.9047 -0.2613 -0.2834
  267MOL0     H35198  -0.904   5.593   7.063 -0.0068  1.2765 -0.8711
  267MOL0     H35199  -0.974   5.745   7.102 -0.0107  0.1456  2.5095
  267MOL0     H35200  -0.759   5.630   7.276 -0.4995 -3.3766  0.3922
  267MOL0     H35201  -0.925   5.594   7.319  0.6304  0.7083  0.2010
  267MOL0     H35202  -0.799   5.871   7.288  0.2121 -1.8987 -0.8343
  267MOL0     H35203  -0.968   5.847   7.324  1.0029  1.0122  0.3278
  267MOL0     H35204  -0.758   5.730   7.504  1.6065  1.7103  1.5701
  267MOL0     H35205  -0.927   5.712   7.535  0.7262 -0.0946  0.7416
  267MOL0     H35206  -0.849   6.149   7.649  0.9184 -1.1895  0.0404
  267MOL0     H35207  -1.055   6.266   7.758  0.7174 -0.5834  0.8273
  267MOL0     H35208  -1.523   6.389   7.699  2.2109 -1.4746 -0.9377
  267MOL0     H35209  -1.764   6.455   7.746  0.7699 -0.3504 -1.8393
  267MOL0     H35210  -1.988   6.345   8.047  0.2923 -0.2528  0.8951
  267MOL0     H35211  -1.948   6.174   8.027  0.1721 -0.3641 -0.7704
  267MOL0     H35212  -2.167   6.119   7.913  0.9250  0.1591  0.3208
  267MOL0     H35213  -2.195   6.295   7.886 -0.7799 -1.0780 -0.6573
  267MOL0     H35214  -2.245   6.324   8.127 -0.0554 -1.2486  2.7225
  267MOL0     H35215  -2.186   6.167   8.161 -2.1943 -0.5406  1.2560
  267MOL0     H35216  -2.440   6.235   8.016  1.4071  1.3986  0.7655
  267MOL0     H35217  -2.374   6.065   8.065  0.7322 -0.2776 -1.0574
  267MOL0     H35218  -2.412   6.294   8.254  1.3514 -0.9687  0.6598
  267MOL0     H35219  -2.381   6.124   8.294  1.6986 -0.7567 -1.3877
  267MOL0     H35220  -2.586   6.033   8.194 -3.0465 -1.4595  1.9784
  267MOL0     H35221  -2.644   6.201   8.181  0.6430  0.7707  0.2396
  267MOL0     H35222  -2.567   6.078   8.447 -0.0673 -1.9412 -0.5786
  267MOL0     H35223  -2.653   6.222   8.397 -0.1514 -0.8640  1.2229
  267MOL0     H35224  -2.798   6.040   8.475  2.0513  2.0850  0.1476
  267MOL0     H35225  -2.766   5.947   8.331 -2.3215 -0.3781 -0.0806
  267MOL0     H35226  -1.820   6.064   7.914  0.0666 -0.6638 -0.0942
  267MOL0     H35227  -1.608   6.004   7.872 -4.3857 -1.6100 -1.0735
  267MOL0     H35228  -1.306   5.972   7.588 -0.2369 -0.0878  0.9619
  267MOL0     H35229  -1.120   5.853   7.477 -0.6004  0.0560  1.0954
  267MOL0     H35230   0.553   5.503   6.816  0.2782 -0.5139 -0.9078
  267MOL0     H35231   0.802   5.422   6.854 -1.1182  1.8734 -0.9789
  267MOL0     H35232   1.175   5.469   7.115  1.9770  0.6833 -1.2652
  267MOL0     H35233   1.399   5.393   7.155  0.1726 -0.6767 -1.2319
  267MOL0     H35234   1.654   5.139   7.284 -2.8213 -2.0571 -0.1542
  267MOL0     H35235   1.573   5.301   7.255  0.3261 -0.4899  1.4899
  267MOL0     H35236   1.612   5.239   6.999 -0.5252 -0.8215  0.8401
  267MOL0     H35237   1.754   5.289   7.089  1.1746 -0.5988 -0.5685
  267MOL0     H35238   1.675   5.010   7.009 -1.0698  1.4401 -0.0149
  267MOL0     H35239   1.794   5.037   7.143  2.2063 -0.1232 -0.8368
  267MOL0     H35240   1.927   5.025   6.918  2.7080  0.9476  0.6502
  267MOL0     H35241   1.810   5.130   6.854 -0.0824 -1.9905 -0.9402
  267MOL0     H35242   2.063   5.373   7.109  0.6948  0.2242  0.4924
  267MOL0     H35243   1.279   4.988   7.149 -0.8220  1.2631  3.5475
  267MOL0     H35244   1.046   5.066   7.081 -3.4095  4.5558 -0.7419
  268MOL0     O35245  10.409   1.126   0.434 -0.8684 -1.0299  0.9970
  268MOL0     C35246  10.419   1.008   0.395  0.4891  1.2967  0.8992
  268MOL0     O35247  10.311   0.931   0.350 -0.9345 -0.1850 -0.2001
  268MOL0     C35248  10.184   0.989   0.345 -0.3675  0.8098 -0.9774
  268MOL0     C35249  10.118   1.054   0.448  0.4740 -0.0767  0.2525
  268MOL0     C35250   9.984   1.093   0.431  1.0644 -0.3629  0.8943
  268MOL0     C35251   9.909   1.075   0.312  1.0531  0.7754  0.4238
  268MOL0     O35252   9.776   1.109   0.303 -0.2271 -0.5938  0.6722
  268MOL0     C35253   9.689   1.010   0.259  0.4428 -0.3675  0.5682
  268MOL0     C35254   9.540   1.047   0.285  0.1713 -1.1723  0.3127
  268MOL0     C35255   9.445   0.923   0.270  1.2372 -0.0844  0.5081
  268MOL0     C35256   9.296   0.952   0.247  0.0424 -1.0705  0.3683
  268MOL0     C35257   9.195   0.837   0.228  0.3477  0.2417  0.1153
  268MOL0     C35258   9.060   0.882   0.196 -1.1951  0.2363 -0.2911
  268MOL0     C35259   8.972   0.754   0.183  0.1672  0.1510  0.6442
  268MOL0     C35260   8.826   0.807   0.179 -0.1611 -0.4912 -0.4873
  268MOL0     N35261   8.736   0.688   0.180 -0.1169  0.4549  0.0404
  268MOL0     C35262   8.698   0.620   0.296 -0.1294 -0.2774 -0.3504
  268MOL0     C35263   8.631   0.515   0.253 -0.2999 -0.9335  0.0294
  268MOL0     C35264   8.584   0.406   0.331  0.6771  0.9500  0.1217
  268MOL0     C35265   8.655   0.276   0.276 -1.1053 -0.4215 -0.6251
  268MOL0     C35266   8.617   0.161   0.372  0.4716 -0.1955  0.1846
  268MOL0     C35267   8.612   0.032   0.301  0.1810  1.0194  0.6033
  268MOL0     O35268   8.711   0.010   0.192  0.7561  0.1213  0.4108
  268MOL0     C35269   8.843  -0.005   0.221  0.4988 -0.6635  0.4852
  268MOL0     C35270   8.901   0.006   0.350 -0.0187  1.3810 -0.6642
  268MOL0     C35271   9.037   0.005   0.369 -0.2829 -1.1720 -0.2595
  268MOL0     C35272   9.131  -0.015   0.266  0.5691 -1.4422  0.1450
  268MOL0     C35273   9.275  -0.006   0.291  0.0496  0.3603 -0.5586
  268MOL0     O35274   9.315   0.016   0.430  0.4568  0.3869 -0.1171
  268MOL0     C35275   9.448   0.032   0.467 -0.4991  0.5187 -0.0132
  268MOL0     C35276   9.467   0.068   0.598 -0.5165 -0.1498  0.2277
  268MOL0     C35277   9.596   0.088   0.648  0.1861  1.0095 -0.4077
  268MOL0     C35278   9.708   0.074   0.568 -0.0622  0.0931  0.1675
  268MOL0     O35279   9.833   0.089   0.613  0.3138 -0.5256  0.1558
  268MOL0     C35280   9.866   0.021   0.729  0.4351  0.1848 -1.2282
  268MOL0     C35281  10.018   0.045   0.746  0.6931  0.0070 -0.5322
  268MOL0     C35282  10.089  -0.057   0.655  0.9305  0.4096  0.1317
  268MOL0     C35283  10.238  -0.042   0.689  0.4945  0.5922 -0.5294
  268MOL0     C35284  10.317  -0.165   0.648  0.6432 -0.2486  0.3004
  268MOL0     C35285  10.461  -0.135   0.638  0.6113  0.7027  0.8691
  268MOL0     C35286  10.556  -0.265   0.625  0.4431 -0.0405 -0.9409
  268MOL0     C35287  10.706  -0.250   0.646 -0.3120  0.1886 -0.1439
  268MOL0    Cl35288  10.773  -0.113   0.550 -0.5760 -0.0807 -0.4024
  268MOL0     C35289   9.697   0.048   0.429  0.0826 -0.2222 -0.2463
  268MOL0     C35290   9.566   0.023   0.382 -0.7503 -0.1584  0.2844
  268MOL0     O35291   9.343  -0.052   0.204 -0.6440  0.5750 -0.5238
  268MOL0     C35292   9.082  -0.015   0.138  0.3049  0.3088  0.3987
  268MOL0     C35293   8.940  -0.002   0.114  0.3080 -0.4503 -0.6900
  268MOL0     N35294   8.616   0.522   0.115 -0.3983 -0.0005 -0.1508
  268MOL0     N35295   8.679   0.630   0.072  0.1545  0.7701  0.7075
  268MOL0     C35296   9.974   1.003   0.211 -0.6714 -0.5261  0.7776
  268MOL0     C35297  10.102   0.957   0.230 -1.0951  0.7339 -0.6271
  268MOL0     C35298  10.558   0.959   0.371  0.7147 -0.0478 -0.4240
  268MOL0     C35299  10.585   0.857   0.289 -0.4288  0.4116  0.1750
  268MOL0     C35300  10.713   0.819   0.259 -0.5072  0.2080 -0.6911
  268MOL0     C35301  10.820   0.899   0.289 -0.1563  1.2101 -0.5745
  268MOL0     O35302  10.936   0.858   0.243 -0.0008  0.2180  0.4157
  268MOL0     C35303  11.044   0.952   0.248  0.1046  0.2307  0.8918
  268MOL0     C35304  11.171   0.873   0.218  0.3148  0.2541 -0.7723
  268MOL0     C35305  11.178   0.843   0.063 -0.3255 -0.3765 -0.1374
  268MOL0     C35306  11.286   0.739   0.033  1.7293  0.8825 -0.7464
  268MOL0     C35307  11.432   0.770   0.060  0.4196  0.5694  0.4134
  268MOL0     C35308  11.547   0.784   0.077 -0.3501  0.8979  0.0428
  268MOL0     C35309  10.792   1.006   0.375  0.6403  0.2458 -1.0143
  268MOL0     C35310  10.667   1.038   0.420  0.5674  0.1861  0.4975
  268MOL0     H35311  10.165   1.074   0.544  2.7231  3.2137 -1.3761
  268MOL0     H35312   9.941   1.151   0.512  1.8563  3.2540 -1.0171
  268MOL0     H35313   9.704   0.923   0.323  0.2196  0.1414  1.3318
  268MOL0     H35314   9.709   0.973   0.159  0.3650  1.1236 -0.0217
  268MOL0     H35315   9.519   1.123   0.209 -0.2626 -0.7148  0.8791
  268MOL0     H35316   9.536   1.101   0.381 -1.7962  2.1420 -1.4523
  268MOL0     H35317   9.455   0.856   0.356 -2.5004  0.2008  1.3424
  268MOL0     H35318   9.484   0.885   0.175  0.5802  1.5705 -0.4612
  268MOL0     H35319   9.267   1.013   0.334 -2.2470 -1.7273  0.1370
  268MOL0     H35320   9.295   1.008   0.154 -3.1511 -0.3116  0.7220
  268MOL0     H35321   9.188   0.766   0.312 -1.5876 -0.5353 -0.6477
  268MOL0     H35322   9.227   0.770   0.148  0.9311 -2.0832  2.1377
  268MOL0     H35323   9.057   0.939   0.103 -1.3567 -1.4522 -1.3558
  268MOL0     H35324   9.023   0.942   0.280 -1.3452 -0.0613 -0.1423
  268MOL0     H35325   8.994   0.689   0.098  1.3930  3.4551 -1.7702
  268MOL0     H35326   8.983   0.696   0.275  0.7979 -0.3671  0.2489
  268MOL0     H35327   8.801   0.877   0.098 -0.8263  0.5857  0.6207
  268MOL0     H35328   8.812   0.860   0.273 -0.7226 -1.6222  0.0903
  268MOL0     H35329   8.733   0.632   0.398 -0.2603  0.7327 -0.4146
  268MOL0     H35330   8.477   0.409   0.306  0.7868  2.1646 -0.2611
  268MOL0     H35331   8.605   0.412   0.439 -0.2097 -1.1606  0.4798
  268MOL0     H35332   8.763   0.293   0.269 -1.0661  0.6645  1.7819
  268MOL0     H35333   8.615   0.261   0.175 -1.2402  0.4981 -0.7185
  268MOL0     H35334   8.701   0.157   0.442  2.7677  3.7604 -1.9082
  268MOL0     H35335   8.518   0.171   0.416  0.1743 -0.5545 -0.3950
  268MOL0     H35336   8.513   0.027   0.256  0.7167 -1.5770 -0.5173
  268MOL0     H35337   8.617  -0.046   0.378 -1.5883  0.4905  0.2290
  268MOL0     H35338   8.830   0.011   0.432 -0.3370 -0.8990 -0.7273
  268MOL0     H35339   9.073   0.035   0.467  1.0656 -1.4956 -0.6373
  268MOL0     H35340   9.377   0.097   0.650 -1.1521 -1.3434 -0.1712
  268MOL0     H35341   9.614   0.132   0.745  2.8910  1.6244 -1.0946
  268MOL0     H35342   9.847  -0.086   0.726  1.0544  0.0755 -1.5004
  268MOL0     H35343   9.807   0.055   0.815  2.1543 -0.6971  0.3750
  268MOL0     H35344  10.039   0.047   0.853  0.5574  2.3269 -0.5015
  268MOL0     H35345  10.047   0.144   0.711 -2.0812  1.5221  1.0961
  268MOL0     H35346  10.080  -0.022   0.552 -1.9018  0.4002  0.2939
  268MOL0     H35347  10.053  -0.160   0.666  1.1716  0.4543  1.5144
  268MOL0     H35348  10.282   0.045   0.638  1.2555 -1.1244 -3.0028
  268MOL0     H35349  10.248  -0.026   0.797 -0.3458  0.8090 -0.4815
  268MOL0     H35350  10.278  -0.183   0.547 -1.5496 -2.2299  1.4078
  268MOL0     H35351  10.298  -0.253   0.709  0.3735 -0.2491  0.2169
  268MOL0     H35352  10.492  -0.075   0.723 -1.6755  1.1119  1.4857
  268MOL0     H35353  10.475  -0.064   0.556  1.2629  0.1230  0.4645
  268MOL0     H35354  10.521  -0.345   0.690  0.0273  0.3443 -0.6839
  268MOL0     H35355  10.544  -0.301   0.523  1.2394 -1.6115 -0.5065
  268MOL0     H35356  10.753  -0.344   0.616 -0.4593 -0.2314  0.8890
  268MOL0     H35357  10.728  -0.238   0.752 -1.0275 -1.4730  0.2207
  268MOL0     H35358   9.781   0.044   0.361 -1.9526 -0.8082 -2.8983
  268MOL0     H35359   9.561   0.004   0.275 -0.4145 -0.8625  0.3875
  268MOL0     H35360   9.150   0.009   0.057  0.0627 -0.3384 -0.0104
  268MOL0     H35361   8.900  -0.014   0.014 -1.8147 -0.6916  0.1160
  268MOL0     H35362   9.920   0.976   0.121  0.3983  2.2069 -0.8217
  268MOL0     H35363  10.148   0.885   0.165 -3.7133  0.2022 -2.0172
  268MOL0     H35364  10.501   0.800   0.250 -0.0440 -0.4455  0.5903
  268MOL0     H35365  10.721   0.739   0.185 -1.2277 -1.4719  0.9536
  268MOL0     H35366  11.053   0.994   0.349 -1.5087 -0.7647  1.5032
  268MOL0     H35367  11.039   1.035   0.177 -0.6905 -0.9923 -0.5315
  268MOL0     H35368  11.254   0.936   0.251  1.1302 -1.8815  1.6610
  268MOL0     H35369  11.183   0.781   0.276  1.3249  1.8537  1.7303
  268MOL0     H35370  11.188   0.934   0.004 -0.4009 -0.9586 -1.0603
  268MOL0     H35371  11.083   0.807   0.024  0.0388  0.1929 -1.6004
  268MOL0     H35372  11.256   0.652   0.091  1.5997  1.2737 -0.2227
  268MOL0     H35373  11.276   0.712  -0.073  0.2771 -1.4342 -0.1007
  268MOL0     H35374  11.654   0.787   0.088 -0.2984 -1.4198  0.8945
  268MOL0     H35375  10.878   1.061   0.414  2.0202 -2.6410  0.2866
  268MOL0     H35376  10.646   1.120   0.487 -0.2211  0.6399 -0.2774
  269MOL0     O35377   1.199   3.950   0.279  0.3442 -0.1819 -0.2587
  269MOL0     C35378   1.127   3.986   0.182 -0.6395 -0.1259 -0.7829
  269MOL0     O35379   1.180   4.047   0.075  0.2777 -0.1203 -0.0181
  269MOL0     C35380   1.317   4.042   0.045  0.6036  0.1037 -0.0941
  269MOL0     C35381   1.426   4.036   0.135 -0.1270 -1.0310  0.5290
  269MOL0     C35382   1.560   4.034   0.089  0.2456 -0.4771  0.5991
  269MOL0     C35383   1.581   4.050  -0.048 -0.0124  0.0390  0.4492
  269MOL0     O35384   1.715   4.043  -0.081 -0.2068 -0.1909  0.0436
  269MOL0     C35385   1.756   4.083  -0.213  0.5363 -0.4309  0.2022
  269MOL0     C35386   1.905   4.058  -0.224  0.4829 -0.4165  0.7450
  269MOL0     C35387   1.984   4.160  -0.147  0.5349 -0.8076 -0.1363
  269MOL0     C35388   2.138   4.152  -0.169  0.7820 -0.7058  0.2007
  269MOL0     C35389   2.193   4.299  -0.177  0.3476  0.3048 -0.5636
  269MOL0     C35390   2.337   4.279  -0.200  0.2568 -0.2286  0.0234
  269MOL0     C35391   2.373   4.239  -0.345 -0.4229 -0.3404  0.5248
  269MOL0     C35392   2.516   4.271  -0.388 -0.0097  0.2602  0.3927
  269MOL0     N35393   2.537   4.419  -0.392  0.2301 -0.5504 -0.7834
  269MOL0     C35394   2.479   4.500  -0.482  0.1670  0.0908  0.2244
  269MOL0     C35395   2.517   4.625  -0.443 -0.1281  0.4577 -0.1652
  269MOL0     C35396   2.466   4.760  -0.491 -0.0162  0.7638 -0.1478
  269MOL0     C35397   2.415   4.758  -0.633  0.0357 -0.5442  0.1413
  269MOL0     C35398   2.274   4.809  -0.659 -0.4373 -0.2689  0.1739
  269MOL0     C35399   2.167   4.714  -0.610 -0.3619 -0.5506  0.3237
  269MOL0     O35400   2.167   4.601  -0.686  0.7788  0.2091 -0.1747
  269MOL0     C35401   2.068   4.505  -0.652 -0.1998  0.1011  0.8422
  269MOL0     C35402   2.047   4.404  -0.741 -0.0486  0.6873  0.2481
  269MOL0     C35403   1.950   4.297  -0.719 -0.2702 -1.0662 -0.5775
  269MOL0     C35404   1.864   4.306  -0.613 -0.1216  0.1064 -0.2997
  269MOL0     C35405   1.750   4.212  -0.607  0.9796  0.5300 -0.7498
  269MOL0     O35406   1.669   4.209  -0.493  0.0207  0.1222  0.2504
  269MOL0     C35407   1.546   4.151  -0.522 -1.0557 -0.1927 -0.1634
  269MOL0     C35408   1.431   4.231  -0.500  0.3652 -0.3574  0.4145
  269MOL0     C35409   1.313   4.167  -0.503 -1.0632  0.3136  0.5779
  269MOL0     C35410   1.304   4.024  -0.510  0.1712  0.6998 -0.1207
  269MOL0     O35411   1.182   3.963  -0.504  1.5276 -0.4388 -0.0324
  269MOL0     C35412   1.155   3.853  -0.406  0.2799 -0.4010 -0.6439
  269MOL0     C35413   1.001   3.824  -0.381  0.1432 -0.0291 -0.1772
  269MOL0     C35414   0.976   3.708  -0.283  0.5147 -0.3589 -0.1049
  269MOL0     C35415   0.996   3.571  -0.342 -0.6209 -0.1637  0.1217
  269MOL0     C35416   0.948   3.455  -0.261 -0.9170  0.7642 -0.1103
  269MOL0     C35417   0.799   3.432  -0.268  0.6997  1.0545 -0.4183
  269MOL0     C35418   0.766   3.321  -0.164 -0.3014  0.2007  1.5089
  269MOL0     C35419   0.624   3.281  -0.137  0.6243  0.3760  0.2531
  269MOL0    Cl35420   0.540   3.238  -0.301  0.4541 -0.0098  0.2917
  269MOL0     C35421   1.421   3.942  -0.534  0.2665 -0.0588  0.3718
  269MOL0     C35422   1.536   4.013  -0.549 -0.3981 -0.6983 -0.2153
  269MOL0     O35423   1.737   4.133  -0.704  1.0834 -0.0656  0.1854
  269MOL0     C35424   1.888   4.408  -0.520  0.3437 -1.2478 -0.0107
  269MOL0     C35425   1.985   4.508  -0.547  0.0870 -0.5713 -0.3050
  269MOL0     N35426   2.594   4.611  -0.322  0.2460  0.2983  0.2428
  269MOL0     N35427   2.612   4.489  -0.296 -0.4282 -0.3545 -1.2722
  269MOL0     C35428   1.475   4.075  -0.138 -0.2536 -0.0352 -0.1426
  269MOL0     C35429   1.353   4.074  -0.086 -0.2497 -0.7537  0.7963
  269MOL0     C35430   0.977   3.974   0.202  0.4882 -0.0219  0.1667
  269MOL0     C35431   0.883   4.031   0.106  0.3791  0.2589 -0.1222
  269MOL0     C35432   0.748   4.045   0.137 -0.5170 -0.3708 -0.2475
  269MOL0     C35433   0.702   3.990   0.261  0.6144 -0.1803  0.2148
  269MOL0     O35434   0.574   4.016   0.297 -0.7631 -0.2810 -0.1370
  269MOL0     C35435   0.551   4.083   0.432 -0.0377 -0.3684 -0.4374
  269MOL0     C35436   0.438   4.184   0.401  0.4537 -0.1087  0.0885
  269MOL0     C35437   0.440   4.299   0.510  0.1859 -1.2967  0.6352
  269MOL0     C35438   0.397   4.261   0.650  0.9818  0.7413 -0.1283
  269MOL0     C35439   0.493   4.181   0.723 -0.5025  0.3811  0.6573
  269MOL0     C35440   0.568   4.120   0.795 -0.2015 -0.1610 -0.0504
  269MOL0     C35441   0.786   3.918   0.339  0.3061 -0.4776  0.2679
  269MOL0     C35442   0.921   3.915   0.313  0.3102  0.0043  0.0742
  269MOL0     H35443   1.409   4.026   0.242 -1.8008  0.0340  0.4019
  269MOL0     H35444   1.637   4.010   0.162 -0.2207 -1.4467  0.7895
  269MOL0     H35445   1.728   4.186  -0.236  0.3072 -0.6692 -0.6307
  269MOL0     H35446   1.694   4.026  -0.283 -2.3994  1.7313  0.8396
  269MOL0     H35447   1.927   4.059  -0.332 -0.2461 -3.8107  0.4518
  269MOL0     H35448   1.924   3.953  -0.202 -1.0016 -0.8683  0.0009
  269MOL0     H35449   1.955   4.152  -0.042 -1.5243  2.3246 -0.3147
  269MOL0     H35450   1.948   4.259  -0.176  0.4872 -0.7172  0.2319
  269MOL0     H35451   2.180   4.097  -0.085  0.2280  1.9132  2.3182
  269MOL0     H35452   2.155   4.095  -0.261 -1.1799 -2.5603  0.8876
  269MOL0     H35453   2.165   4.352  -0.086 -0.3462 -0.3160 -0.4062
  269MOL0     H35454   2.152   4.347  -0.267  0.7666  1.6342 -0.0676
  269MOL0     H35455   2.377   4.206  -0.129  0.6984  2.0225  2.2204
  269MOL0     H35456   2.376   4.380  -0.184  0.9007 -0.2384 -1.3423
  269MOL0     H35457   2.345   4.135  -0.364 -0.8570 -0.4442  1.6721
  269MOL0     H35458   2.311   4.294  -0.417  1.8875  0.5175 -0.9044
  269MOL0     H35459   2.538   4.229  -0.487  1.0313  2.5916 -0.4222
  269MOL0     H35460   2.586   4.224  -0.318  1.7427 -1.0007 -2.0725
  269MOL0     H35461   2.408   4.471  -0.560  0.4930 -4.7690  1.4241
  269MOL0     H35462   2.556   4.822  -0.491  1.1100 -0.7638 -1.6794
  269MOL0     H35463   2.384   4.799  -0.431 -1.4920 -0.6085 -1.1964
  269MOL0     H35464   2.423   4.656  -0.670 -1.7869 -1.9812  3.3397
  269MOL0     H35465   2.491   4.820  -0.684 -1.9003  0.0100 -2.2813
  269MOL0     H35466   2.263   4.908  -0.615  2.3791  1.0867 -1.8729
  269MOL0     H35467   2.259   4.815  -0.767 -1.9576 -2.1751  0.2188
  269MOL0     H35468   2.066   4.755  -0.621  0.9297  2.1587 -2.9216
  269MOL0     H35469   2.193   4.692  -0.506  3.3773 -1.7946 -0.7409
  269MOL0     H35470   2.104   4.398  -0.833  2.1484  0.5731  1.5261
  269MOL0     H35471   1.930   4.223  -0.795  0.7837 -0.8863 -1.0467
  269MOL0     H35472   1.446   4.338  -0.490 -0.4460 -0.1522 -0.3906
  269MOL0     H35473   1.228   4.230  -0.481 -1.4511  0.3198 -0.8683
  269MOL0     H35474   1.180   3.879  -0.303 -2.6201  4.3835 -0.8434
  269MOL0     H35475   1.198   3.760  -0.444 -2.7691 -1.6494 -1.3327
  269MOL0     H35476   0.968   3.793  -0.481  1.0881  3.2002 -1.6305
  269MOL0     H35477   0.958   3.916  -0.341 -0.2213 -1.0549  1.9016
  269MOL0     H35478   0.879   3.711  -0.232  0.3460 -2.1341 -0.2707
  269MOL0     H35479   1.037   3.712  -0.193 -1.2876  0.4413  1.1451
  269MOL0     H35480   0.948   3.556  -0.439  0.4558  1.6510 -0.7650
  269MOL0     H35481   1.104   3.560  -0.358 -0.1789  0.7667  2.0689
  269MOL0     H35482   0.983   3.481  -0.161 -0.5272  0.3284 -0.1351
  269MOL0     H35483   1.007   3.367  -0.288 -3.0270 -0.3353 -1.3910
  269MOL0     H35484   0.757   3.408  -0.366  1.2863  0.1407 -0.4595
  269MOL0     H35485   0.742   3.523  -0.250  0.9811  0.7357  2.4330
  269MOL0     H35486   0.811   3.233  -0.210  0.1104 -0.4195  3.0327
  269MOL0     H35487   0.817   3.322  -0.067  0.7719 -1.9525  1.0249
  269MOL0     H35488   0.566   3.361  -0.089  0.4232  0.7184 -0.5342
  269MOL0     H35489   0.620   3.197  -0.068  2.4349  0.1580  0.1553
  269MOL0     H35490   1.427   3.834  -0.536 -0.3033 -0.0902  0.2130
  269MOL0     H35491   1.630   3.960  -0.567  1.6043  1.4130  2.9711
  269MOL0     H35492   1.824   4.434  -0.437  0.8100  3.0576 -0.7592
  269MOL0     H35493   1.983   4.573  -0.461  1.3804 -1.4995  0.4660
  269MOL0     H35494   1.488   4.096  -0.243  1.0087  0.5992  0.1174
  269MOL0     H35495   1.266   4.091  -0.148  1.8849  0.1408 -2.1549
  269MOL0     H35496   0.928   4.085   0.024  4.8473 -0.7279  1.3750
  269MOL0     H35497   0.678   4.092   0.069  0.4166 -0.2046 -1.1261
  269MOL0     H35498   0.637   4.140   0.469 -2.0889  0.3930  3.6461
  269MOL0     H35499   0.516   4.008   0.504  1.3280  0.9009  1.6541
  269MOL0     H35500   0.450   4.233   0.304 -2.0373 -0.3614 -0.4222
  269MOL0     H35501   0.347   4.124   0.395  1.5203 -1.9608  1.4739
  269MOL0     H35502   0.383   4.387   0.479  0.9561 -1.7078 -2.2799
  269MOL0     H35503   0.544   4.328   0.528  0.1655 -0.8835  0.1142
  269MOL0     H35504   0.403   4.344   0.721  3.3541  0.0952  0.5129
  269MOL0     H35505   0.299   4.213   0.647  1.5919 -0.5412 -0.0945
  269MOL0     H35506   0.637   4.076   0.864 -0.4101  1.1382  1.0223
  269MOL0     H35507   0.751   3.878   0.434  0.2441  1.1224  0.9388
  269MOL0     H35508   0.995   3.876   0.384  0.2217  0.5776  0.4882
  270MOL0     O35509   0.054  10.899   5.081  1.0491 -0.2143 -0.0156
  270MOL0     C35510  -0.027  10.986   5.097  0.5131  0.0752 -1.0248
  270MOL0     O35511  -0.010  11.123   5.067 -0.0194  0.3643 -0.0074
  270MOL0     C35512   0.119  11.175   5.053  0.1118 -0.2553 -0.2962
  270MOL0     C35513   0.235  11.145   5.126 -0.1114 -0.7138  0.4926
  270MOL0     C35514   0.353  11.219   5.104 -0.2168  0.5640 -0.0632
  270MOL0     C35515   0.362  11.324   5.015 -0.4811  0.3732 -0.3478
  270MOL0     O35516   0.481  11.392   4.999  0.1560  1.0699 -0.4271
  270MOL0     C35517   0.483  11.502   4.915  0.1833 -0.2917 -0.2103
  270MOL0     C35518   0.615  11.566   4.895 -0.1967  0.0854  0.0204
  270MOL0     C35519   0.713  11.475   4.835  1.1460 -0.4203 -0.8012
  270MOL0     C35520   0.854  11.529   4.843  0.0309 -0.0863 -0.0275
  270MOL0     C35521   0.951  11.432   4.779 -0.8468  0.3149  0.2337
  270MOL0     C35522   1.103  11.480   4.801 -0.3960 -0.1480 -0.0885
  270MOL0     C35523   1.208  11.378   4.778  0.2894 -0.0108  0.3426
  270MOL0     C35524   1.230  11.383   4.623  0.3716 -0.3309 -0.0422
  270MOL0     N35525   1.359  11.320   4.588  0.7983 -0.1139 -0.2572
  270MOL0     C35526   1.483  11.355   4.639 -0.1539  0.5671  0.0735
  270MOL0     C35527   1.557  11.250   4.586  0.1218  0.1806 -0.6567
  270MOL0     C35528   1.704  11.236   4.608  1.0628  0.8178 -0.5278
  270MOL0     C35529   1.780  11.370   4.587  0.8266 -0.2038  0.3391
  270MOL0     C35530   1.775  11.407   4.442 -0.0080 -0.1493  0.5939
  270MOL0     C35531   1.819  11.549   4.422 -0.3906 -0.1022 -0.2444
  270MOL0     O35532   1.836  11.558   4.284  0.0512 -0.5143  0.7118
  270MOL0     C35533   1.960  11.599   4.245 -0.3832 -0.3420  0.7619
  270MOL0     C35534   1.990  11.735   4.254 -0.1311 -0.2261 -0.3663
  270MOL0     C35535   2.113  11.784   4.220  0.1176 -0.8118  0.0758
  270MOL0     C35536   2.215  11.693   4.161  0.3364 -0.1275  0.1957
  270MOL0     C35537   2.350  11.733   4.143  0.7544 -0.1912 -0.1545
  270MOL0     O35538   2.370  11.870   4.147 -0.2839  0.8351 -0.0418
  270MOL0     C35539   2.473  11.909   4.065  0.5357  0.4243 -0.3798
  270MOL0     C35540   2.472  11.929   3.929  0.8954 -0.4744  0.6137
  270MOL0     C35541   2.579  11.976   3.852  0.1177  0.1316 -0.2737
  270MOL0     C35542   2.695  12.013   3.927 -0.2959  0.4762  0.6066
  270MOL0     O35543   2.822  12.034   3.871  0.4485 -0.3842  0.6707
  270MOL0     C35544   2.846  12.117   3.758 -0.5116 -0.1725  0.6672
  270MOL0     C35545   2.903  12.030   3.646  1.0253  0.4128  0.2060
  270MOL0     C35546   2.873  12.089   3.506  0.0657 -0.5007  0.2635
  270MOL0     C35547   2.937  12.002   3.396 -0.1896  0.4093  1.0913
  270MOL0     C35548   2.927  12.049   3.247 -1.5399  0.5719  0.0695
  270MOL0     C35549   2.973  11.924   3.170  0.2125 -0.6039  0.5855
  270MOL0     C35550   3.132  11.894   3.174 -0.3355  0.2463  0.4341
  270MOL0     C35551   3.223  12.006   3.124  0.2773  0.5041  1.0436
  270MOL0    Cl35552   3.162  12.089   2.977  0.4661  0.0120 -0.3807
  270MOL0     C35553   2.707  11.995   4.068  0.1193  0.2283 -0.8369
  270MOL0     C35554   2.592  11.952   4.136  0.0066  0.2191  0.6936
  270MOL0     O35555   2.436  11.648   4.111 -1.0108 -0.6915 -0.0097
  270MOL0     C35556   2.176  11.560   4.142 -0.4813  0.0107  0.2545
  270MOL0     C35557   2.055  11.516   4.186  0.1374 -0.2596 -0.5556
  270MOL0     N35558   1.483  11.157   4.515  0.9682  0.0364 -0.1319
  270MOL0     N35559   1.357  11.207   4.513  0.0274  0.2809  0.3966
  270MOL0     C35560   0.236  11.363   4.953 -0.5306 -0.2867  0.1201
  270MOL0     C35561   0.120  11.286   4.962 -0.4432 -0.5049 -0.6416
  270MOL0     C35562  -0.161  10.951   5.160 -0.9263 -0.0218 -0.6870
  270MOL0     C35563  -0.259  11.045   5.165  0.1394 -0.2297 -0.4222
  270MOL0     C35564  -0.387  11.019   5.218  0.4656 -0.2775 -0.5083
  270MOL0     C35565  -0.421  10.895   5.275 -0.2368  0.9297  0.7584
  270MOL0     O35566  -0.542  10.849   5.323 -0.0749 -0.4179 -0.1017
  270MOL0     C35567  -0.656  10.926   5.294 -0.5615  0.8842 -0.4447
  270MOL0     C35568  -0.755  10.877   5.388  0.2295 -0.1918  0.1799
  270MOL0     C35569  -0.898  10.927   5.361  0.0012  0.5482  0.4271
  270MOL0     C35570  -0.997  10.854   5.465 -0.7448 -0.1722  0.2192
  270MOL0     C35571  -1.140  10.867   5.422  0.4970  1.1580  0.5398
  270MOL0     C35572  -1.260  10.872   5.389 -0.5991 -0.3058  0.0731
  270MOL0     C35573  -0.321  10.798   5.265 -0.4515 -0.4926 -0.2669
  270MOL0     C35574  -0.190  10.823   5.208  0.8050 -0.1461 -0.2457
  270MOL0     H35575   0.230  11.064   5.198 -1.7170 -0.5880  0.5534
  270MOL0     H35576   0.437  11.192   5.167 -0.2346  0.2823 -0.1588
  270MOL0     H35577   0.425  11.583   4.961  1.5379 -0.1218  1.2780
  270MOL0     H35578   0.437  11.478   4.819 -0.7695  0.5594  0.0093
  270MOL0     H35579   0.651  11.610   4.988  1.4439  0.4254 -0.7371
  270MOL0     H35580   0.604  11.655   4.832  2.0863  1.1288  0.9980
  270MOL0     H35581   0.687  11.456   4.730  0.5948 -1.5119 -0.4868
  270MOL0     H35582   0.713  11.382   4.892  2.3516  0.7543  1.2159
  270MOL0     H35583   0.858  11.624   4.789  0.0692 -1.6980 -3.0437
  270MOL0     H35584   0.877  11.553   4.947  3.2413  1.5385 -0.9728
  270MOL0     H35585   0.932  11.429   4.671 -1.6055  2.9823  0.2303
  270MOL0     H35586   0.931  11.332   4.819 -2.0324  0.2756 -0.4136
  270MOL0     H35587   1.110  11.517   4.904  0.2708  1.7595 -0.7623
  270MOL0     H35588   1.118  11.574   4.747 -0.4004 -0.2128 -0.2007
  270MOL0     H35589   1.305  11.404   4.821  1.1186 -0.8734 -0.9321
  270MOL0     H35590   1.179  11.281   4.818  3.3607 -1.6158 -1.0361
  270MOL0     H35591   1.235  11.486   4.586  0.7771 -0.8010 -1.3241
  270MOL0     H35592   1.144  11.341   4.571  0.9960 -2.0898  0.2934
  270MOL0     H35593   1.520  11.427   4.711  0.7474 -0.7549  0.9621
  270MOL0     H35594   1.749  11.151   4.558  1.4797  0.9187 -0.3304
  270MOL0     H35595   1.725  11.217   4.714  1.8687 -0.7300 -0.9482
  270MOL0     H35596   1.884  11.353   4.614  1.7079  1.6730 -1.6334
  270MOL0     H35597   1.729  11.444   4.650  0.6732 -0.2529  0.2725
  270MOL0     H35598   1.855  11.349   4.394  1.6264  1.2614  1.5208
  270MOL0     H35599   1.673  11.408   4.402  0.7117  2.4374 -1.4833
  270MOL0     H35600   1.913  11.576   4.471  1.0426  0.2100 -2.9290
  270MOL0     H35601   1.740  11.616   4.455  0.4303  0.6136  0.2873
  270MOL0     H35602   1.917  11.809   4.286  1.0706  0.3484  1.1965
  270MOL0     H35603   2.120  11.889   4.246 -0.7559 -1.2148  2.1324
  270MOL0     H35604   2.385  11.907   3.867  1.5104 -3.0090  0.5005
  270MOL0     H35605   2.585  11.981   3.744  4.8043 -0.8802 -0.2682
  270MOL0     H35606   2.912  12.201   3.782 -1.4097  1.8433 -3.1964
  270MOL0     H35607   2.758  12.159   3.708  0.3199 -2.1843 -2.8170
  270MOL0     H35608   2.844  11.938   3.652  1.9060 -0.0791  2.2990
  270MOL0     H35609   3.009  12.013   3.666  2.0226  5.2007  0.1506
  270MOL0     H35610   2.909  12.192   3.504  2.2797 -1.2111  0.9390
  270MOL0     H35611   2.766  12.083   3.486 -0.2110 -1.1204  1.8197
  270MOL0     H35612   3.042  11.985   3.424 -0.5804  1.1016  3.1614
  270MOL0     H35613   2.887  11.906   3.411 -1.2133  1.0825  2.1156
  270MOL0     H35614   3.002  12.122   3.215 -0.0235 -1.1457 -0.4827
  270MOL0     H35615   2.823  12.070   3.220 -1.5943  1.0963  0.6678
  270MOL0     H35616   2.935  11.922   3.068  0.2385 -1.4523  0.5876
  270MOL0     H35617   2.926  11.836   3.214 -1.2811  0.2854  0.8500
  270MOL0     H35618   3.159  11.872   3.278  1.4869  0.4360  0.0387
  270MOL0     H35619   3.151  11.804   3.116  0.0260  0.8399 -0.3947
  270MOL0     H35620   3.325  11.971   3.102 -1.1975 -0.7648 -6.4838
  270MOL0     H35621   3.212  12.085   3.199 -3.6751  0.7594  0.3827
  270MOL0     H35622   2.783  12.011   4.144  0.2290  0.6116 -1.0263
  270MOL0     H35623   2.593  11.952   4.245  1.6302  0.4311  0.6951
  270MOL0     H35624   2.251  11.491   4.105 -2.1666 -1.0930 -1.2450
  270MOL0     H35625   2.034  11.410   4.180 -2.2659 -0.2163  3.4083
  270MOL0     H35626   0.223  11.438   4.876  0.5188  0.3273  0.5212
  270MOL0     H35627   0.035  11.308   4.898  0.8693 -0.5965 -2.5012
  270MOL0     H35628  -0.237  11.138   5.113  2.3260 -2.1529 -3.2758
  270MOL0     H35629  -0.458  11.100   5.202  1.7870  0.6388 -1.9829
  270MOL0     H35630  -0.679  10.915   5.187 -0.4470 -1.5501 -0.2631
  270MOL0     H35631  -0.637  11.032   5.313  1.3669  0.0064  3.5428
  270MOL0     H35632  -0.748  10.768   5.397 -1.7099 -0.1871  2.8533
  270MOL0     H35633  -0.737  10.911   5.490 -3.0867  3.6002 -0.2343
  270MOL0     H35634  -0.917  10.909   5.255  1.3832 -0.3348  0.3045
  270MOL0     H35635  -0.905  11.035   5.380 -0.0045  0.5012  0.7085
  270MOL0     H35636  -0.968  10.749   5.481  0.8014  0.2369  0.2825
  270MOL0     H35637  -0.989  10.894   5.567  2.4393 -1.7737  0.7449
  270MOL0     H35638  -1.355  10.873   5.340 -0.7512 -2.8100  0.2204
  270MOL0     H35639  -0.359  10.701   5.299 -2.2472 -0.1366 -1.1372
  270MOL0     H35640  -0.124  10.737   5.210 -0.2287 -1.0588  3.3806
  271MOL0     O35641   1.880   9.365   2.567  0.7083 -0.2971  0.1686
  271MOL0     C35642   1.919   9.311   2.669 -0.3336  0.5131 -0.7305
  271MOL0     O35643   1.834   9.276   2.769 -0.1838 -0.6754  0.8147
  271MOL0     C35644   1.700   9.296   2.751 -0.7412 -0.6171  0.0620
  271MOL0     C35645   1.620   9.190   2.776  0.1694  0.2031 -0.1687
  271MOL0     C35646   1.482   9.191   2.767 -0.0412 -0.3989 -0.8039
  271MOL0     C35647   1.421   9.314   2.726 -0.6661 -0.0391 -0.5619
  271MOL0     O35648   1.278   9.319   2.693 -0.2835  0.2667  0.3630
  271MOL0     C35649   1.216   9.444   2.670 -0.1313 -0.3197 -0.1886
  271MOL0     C35650   1.065   9.424   2.655  0.1318 -0.3703  0.0485
  271MOL0     C35651   1.010   9.315   2.753  0.0352 -0.3237  0.0478
  271MOL0     C35652   0.858   9.294   2.713  0.1471 -0.3082  0.3577
  271MOL0     C35653   0.783   9.224   2.828 -0.1522 -0.0985 -0.4394
  271MOL0     C35654   0.637   9.179   2.789 -0.3615  0.3138 -0.3053
  271MOL0     C35655   0.553   9.137   2.918  0.1522 -0.7148  0.1809
  271MOL0     C35656   0.421   9.080   2.866  0.5687 -0.3718  0.8406
  271MOL0     N35657   0.343   9.028   2.977  0.5524 -0.8256 -0.3709
  271MOL0     C35658   0.335   8.898   3.030 -0.3912 -0.3561 -0.9612
  271MOL0     C35659   0.229   8.904   3.111 -0.3571  0.8529 -0.3496
  271MOL0     C35660   0.169   8.778   3.179 -0.0842  0.6062  0.4169
  271MOL0     C35661   0.264   8.687   3.259  0.2010 -0.5703  0.2794
  271MOL0     C35662   0.251   8.545   3.231  0.5975  1.1601  0.2655
  271MOL0     C35663   0.355   8.456   3.295 -0.0790 -0.4974  0.4878
  271MOL0     O35664   0.471   8.481   3.224  0.0309 -0.3550  0.2955
  271MOL0     C35665   0.587   8.435   3.286  0.3413 -0.3932  0.0598
  271MOL0     C35666   0.608   8.301   3.326 -0.8248 -0.6355  0.2676
  271MOL0     C35667   0.731   8.267   3.390 -0.5475  0.3794 -0.6520
  271MOL0     C35668   0.834   8.359   3.412  0.8680  0.2082  0.5345
  271MOL0     C35669   0.971   8.319   3.459 -0.0614 -0.2001 -0.1563
  271MOL0     O35670   0.982   8.181   3.488 -0.0758 -0.7112 -0.0144
  271MOL0     C35671   1.089   8.142   3.564 -0.7711 -0.1016  0.2591
  271MOL0     C35672   1.066   8.120   3.700  0.4520 -0.0408 -0.9243
  271MOL0     C35673   1.172   8.088   3.783 -0.4733 -0.3213 -0.5489
  271MOL0     C35674   1.304   8.069   3.735 -0.0928 -0.4847  0.1594
  271MOL0     O35675   1.414   8.050   3.817 -0.6508 -0.8841 -0.1816
  271MOL0     C35676   1.438   8.171   3.889 -0.3744 -0.1128 -0.5623
  271MOL0     C35677   1.574   8.156   3.949  0.0675 -0.5027  0.5172
  271MOL0     C35678   1.598   8.053   4.058  0.6116 -0.1148  0.2511
  271MOL0     C35679   1.752   8.022   4.093  0.1076 -0.3745 -0.0494
  271MOL0     C35680   1.838   8.149   4.125  0.0327  0.1162  0.3435
  271MOL0     C35681   1.978   8.108   4.162 -0.3393 -0.3859 -0.3303
  271MOL0     C35682   2.064   8.234   4.201  0.8071  0.0413  0.3527
  271MOL0     C35683   2.207   8.189   4.166  0.0213 -0.3379  0.1228
  271MOL0    Cl35684   2.316   8.317   4.220 -0.2735 -0.2695  0.2901
  271MOL0     C35685   1.326   8.089   3.597  0.6098  0.5782 -0.3727
  271MOL0     C35686   1.224   8.127   3.512  0.4462  1.2177  0.4771
  271MOL0     O35687   1.063   8.398   3.471  0.2299 -0.1578  0.1531
  271MOL0     C35688   0.815   8.486   3.361 -0.2344  0.6332  0.1935
  271MOL0     C35689   0.698   8.519   3.303  1.3162 -0.9737  0.8970
  271MOL0     N35690   0.166   9.026   3.095  0.0192  0.7619  0.4451
  271MOL0     N35691   0.236   9.096   3.021  0.7691  0.1379 -0.0116
  271MOL0     C35692   1.504   9.426   2.707  0.9786 -0.0721 -0.3888
  271MOL0     C35693   1.644   9.420   2.721  0.8495 -0.8584  0.6203
  271MOL0     C35694   2.057   9.281   2.677  0.1274 -0.1301  0.1922
  271MOL0     C35695   2.114   9.265   2.803 -0.8187 -0.1683 -0.1772
  271MOL0     C35696   2.258   9.262   2.822  0.0372  0.0547 -0.6903
  271MOL0     C35697   2.343   9.276   2.713  0.1690  0.1802  0.1325
  271MOL0     O35698   2.480   9.281   2.734  0.1583  0.0272  0.5710
  271MOL0     C35699   2.579   9.268   2.624 -0.3719 -0.3360  0.1135
  271MOL0     C35700   2.596   9.130   2.561  0.6970  0.0776 -0.4276
  271MOL0     C35701   2.657   9.124   2.413  0.4413 -0.9983 -0.3120
  271MOL0     C35702   2.808   9.135   2.422 -0.2220 -0.8038 -0.5361
  271MOL0     C35703   2.871   9.007   2.460  0.2518 -0.5727 -0.1880
  271MOL0     C35704   2.920   8.900   2.487 -0.0239 -1.1736  0.1027
  271MOL0     C35705   2.285   9.297   2.583 -0.2799 -0.2791  0.0488
  271MOL0     C35706   2.143   9.299   2.569 -0.3912 -0.1728  0.0153
  271MOL0     H35707   1.667   9.098   2.808 -1.0309  0.1069  1.4295
  271MOL0     H35708   1.433   9.100   2.802  0.3112  0.1722  1.3173
  271MOL0     H35709   1.256   9.497   2.583  2.0847 -0.7781  0.4939
  271MOL0     H35710   1.220   9.510   2.756 -0.4240  0.7072 -0.9384
  271MOL0     H35711   1.046   9.390   2.553 -4.5863  4.5225 -1.1405
  271MOL0     H35712   1.014   9.519   2.671 -0.0297 -0.6669  1.4225
  271MOL0     H35713   1.014   9.335   2.860 -1.1210  1.5366 -0.2091
  271MOL0     H35714   1.064   9.219   2.746  0.3416 -0.6219  4.0859
  271MOL0     H35715   0.815   9.386   2.674  2.1941 -0.2541 -2.0520
  271MOL0     H35716   0.853   9.231   2.623  2.4410 -0.3079  0.1535
  271MOL0     H35717   0.776   9.293   2.913  1.0788 -2.3554  1.6173
  271MOL0     H35718   0.844   9.136   2.847  1.4304  0.9759 -0.2840
  271MOL0     H35719   0.639   9.094   2.721 -0.3319  1.0951 -1.2959
  271MOL0     H35720   0.579   9.260   2.745  0.2342  1.3360  0.7384
  271MOL0     H35721   0.608   9.063   2.977  0.5236 -2.7856 -2.5862
  271MOL0     H35722   0.539   9.216   2.993 -0.6406 -1.9057  1.3407
  271MOL0     H35723   0.438   9.002   2.791  2.1392  0.7463 -0.0151
  271MOL0     H35724   0.367   9.166   2.827  2.0739  0.2815  0.1070
  271MOL0     H35725   0.395   8.808   3.021 -1.8645 -1.3918 -0.7503
  271MOL0     H35726   0.119   8.713   3.107  1.5885 -0.1678 -0.1188
  271MOL0     H35727   0.095   8.816   3.250 -2.9821 -1.9607 -1.0177
  271MOL0     H35728   0.239   8.702   3.364 -1.0935  0.7323 -0.1756
  271MOL0     H35729   0.363   8.733   3.245 -0.3074  0.4711  0.0207
  271MOL0     H35730   0.156   8.515   3.276  1.8520  0.8986  2.9430
  271MOL0     H35731   0.268   8.521   3.125 -0.2070 -1.5891  0.6745
  271MOL0     H35732   0.325   8.351   3.284 -0.9017 -0.0941 -1.5000
  271MOL0     H35733   0.366   8.494   3.397 -0.3845 -0.3470  0.4658
  271MOL0     H35734   0.541   8.224   3.290 -0.9164 -1.3534  1.8721
  271MOL0     H35735   0.744   8.166   3.428  0.0465  0.1779 -1.3768
  271MOL0     H35736   0.964   8.138   3.734  0.6399  0.0501 -0.3881
  271MOL0     H35737   1.141   8.080   3.887 -2.6054 -1.2400 -1.2096
  271MOL0     H35738   1.369   8.187   3.972 -0.0677  1.4862 -0.5782
  271MOL0     H35739   1.437   8.259   3.824 -0.7634  1.0902  1.0068
  271MOL0     H35740   1.592   8.256   3.989 -0.0558 -0.8889  1.5678
  271MOL0     H35741   1.644   8.133   3.868  1.2385 -0.4744  1.4889
  271MOL0     H35742   1.552   7.960   4.022  0.0402  0.3788 -0.3168
  271MOL0     H35743   1.562   8.090   4.154 -0.2201  0.4512 -0.2720
  271MOL0     H35744   1.733   7.952   4.175 -3.1065 -1.9505 -1.9610
  271MOL0     H35745   1.788   7.958   4.012 -1.0023 -0.4261 -0.5256
  271MOL0     H35746   1.797   8.195   4.216  2.0806 -0.2773  1.5293
  271MOL0     H35747   1.838   8.216   4.039 -3.1955  1.4802  1.2511
  271MOL0     H35748   2.024   8.060   4.075  1.3764 -0.8407  0.7782
  271MOL0     H35749   1.973   8.034   4.243 -2.8126  0.5859  0.4878
  271MOL0     H35750   2.030   8.323   4.148 -1.8042 -0.0387  1.7182
  271MOL0     H35751   2.065   8.257   4.308 -0.1918  0.1177  0.3537
  271MOL0     H35752   2.216   8.176   4.058  0.9514 -1.3435  0.2940
  271MOL0     H35753   2.217   8.090   4.212 -1.1380 -0.3611  0.3404
  271MOL0     H35754   1.422   8.080   3.548 -0.1935  0.0198 -1.8942
  271MOL0     H35755   1.238   8.159   3.410 -1.0596  1.8977  0.4636
  271MOL0     H35756   0.896   8.554   3.384  0.6555 -0.1966 -0.3471
  271MOL0     H35757   0.676   8.621   3.274 -1.9092 -1.5437  0.9826
  271MOL0     H35758   1.467   9.515   2.658  0.7174 -1.1745 -2.2939
  271MOL0     H35759   1.715   9.497   2.693  1.1799  0.7103  5.0222
  271MOL0     H35760   2.064   9.248   2.897 -0.0049 -1.2053  0.0928
  271MOL0     H35761   2.296   9.241   2.922 -1.6435 -1.6355 -0.3429
  271MOL0     H35762   2.674   9.285   2.675 -1.7181 -3.7472  4.4309
  271MOL0     H35763   2.565   9.347   2.549  1.4936 -1.2799 -1.3199
  271MOL0     H35764   2.665   9.074   2.625 -1.2113 -1.1839  0.6369
  271MOL0     H35765   2.499   9.079   2.552  0.0578  1.5430 -2.7778
  271MOL0     H35766   2.623   9.212   2.359 -1.7994 -0.4189  1.8553
  271MOL0     H35767   2.636   9.031   2.359  1.3260 -1.9474  0.9285
  271MOL0     H35768   2.848   9.159   2.323 -1.1122 -2.0551 -1.2100
  271MOL0     H35769   2.837   9.215   2.492 -0.0830 -2.6861  1.6710
  271MOL0     H35770   2.963   8.803   2.496  3.5455  0.1213 -1.0898
  271MOL0     H35771   2.354   9.328   2.505  0.5401  0.6433  1.1031
  271MOL0     H35772   2.105   9.315   2.468 -3.1005 -0.2565  0.9436
  272MOL0     O35773   1.969   0.855   2.009 -0.6491 -0.2920  0.0624
  272MOL0     C35774   1.917   0.868   2.117 -0.5027  0.5923  0.0182
  272MOL0     O35775   1.791   0.921   2.142  0.5137 -0.0120 -0.0989
  272MOL0     C35776   1.699   0.934   2.037 -0.1265 -0.1947 -0.1280
  272MOL0     C35777   1.723   1.035   1.934  0.8500  0.0541  0.2724
  272MOL0     C35778   1.616   1.068   1.845 -1.2302 -0.1524 -0.8622
  272MOL0     C35779   1.503   0.993   1.853  0.8203  0.0793 -0.5655
  272MOL0     O35780   1.399   1.010   1.770  0.6419 -0.3396  0.3233
  272MOL0     C35781   1.336   1.138   1.759  0.9622 -0.0367  0.7377
  272MOL0     C35782   1.228   1.141   1.644 -0.7692 -0.3576  0.4210
  272MOL0     C35783   1.107   1.223   1.660 -0.0269 -1.2124 -0.7212
  272MOL0     C35784   0.992   1.185   1.561  0.4982 -0.2962 -0.1769
  272MOL0     C35785   0.859   1.257   1.597 -0.7358 -0.0950  0.1538
  272MOL0     C35786   0.748   1.213   1.496  0.3397  0.7362 -0.1195
  272MOL0     C35787   0.621   1.318   1.514  0.3539 -0.2002 -0.2281
  272MOL0     C35788   0.653   1.462   1.476  0.2618 -0.3834 -0.8378
  272MOL0     N35789   0.526   1.529   1.452  0.2004 -0.9547 -0.0119
  272MOL0     C35790   0.446   1.571   1.560 -0.8156 -0.9459 -0.4096
  272MOL0     C35791   0.337   1.624   1.503  0.1904  0.8409 -1.0422
  272MOL0     C35792   0.221   1.690   1.578 -0.6595  0.2932  0.4187
  272MOL0     C35793   0.091   1.612   1.545 -0.2485 -0.7336 -1.0678
  272MOL0     C35794  -0.021   1.703   1.546  0.8652  0.2550 -0.0873
  272MOL0     C35795  -0.151   1.622   1.561  1.2946  0.1696 -0.1636
  272MOL0     O35796  -0.176   1.550   1.438 -0.5988 -0.0938 -0.1255
  272MOL0     C35797  -0.302   1.497   1.423 -0.1617  0.7283  0.4253
  272MOL0     C35798  -0.326   1.431   1.302  0.3798 -0.2044  0.3672
  272MOL0     C35799  -0.445   1.366   1.281 -0.0418 -0.0184 -0.1506
  272MOL0     C35800  -0.545   1.367   1.380 -0.1913  0.0598  0.5164
  272MOL0     C35801  -0.675   1.314   1.350 -0.4773 -0.3641 -0.1316
  272MOL0     O35802  -0.775   1.339   1.445  0.6034  0.4375 -0.4830
  272MOL0     C35803  -0.907   1.292   1.424 -0.7429 -0.8041  0.1400
  272MOL0     C35804  -0.952   1.174   1.373 -0.4285 -0.1689  0.0367
  272MOL0     C35805  -1.089   1.137   1.374  0.0258 -0.2821  0.0652
  272MOL0     C35806  -1.182   1.230   1.416 -0.7875 -0.3320  1.0654
  272MOL0     O35807  -1.309   1.189   1.441 -0.5057  0.2816 -0.6446
  272MOL0     C35808  -1.354   1.052   1.399 -0.1181 -0.0894 -0.1225
  272MOL0     C35809  -1.502   1.038   1.442  0.1489  0.1016  0.1535
  272MOL0     C35810  -1.603   1.152   1.391 -0.3409  0.2037  0.7425
  272MOL0     C35811  -1.743   1.163   1.463  0.2037 -0.2128  0.0183
  272MOL0     C35812  -1.836   1.038   1.428 -0.1481  0.5247 -0.0565
  272MOL0     C35813  -1.881   1.059   1.284  0.0098  0.4344  0.5237
  272MOL0     C35814  -1.913   0.934   1.212  0.3112 -0.4691 -0.1487
  272MOL0     C35815  -1.799   0.861   1.144  0.0420 -0.0441 -0.7845
  272MOL0    Cl35816  -1.715   0.776   1.274 -0.2911 -0.3240  0.1040
  272MOL0     C35817  -1.138   1.352   1.462  0.5413  0.3635 -0.1371
  272MOL0     C35818  -0.998   1.382   1.471 -0.0358 -0.3430  0.4303
  272MOL0     O35819  -0.696   1.257   1.241  0.2885  0.4365  0.0671
  272MOL0     C35820  -0.521   1.439   1.495  0.1585 -0.0713  0.0098
  272MOL0     C35821  -0.403   1.505   1.515  0.2692  0.6824 -0.3856
  272MOL0     N35822   0.346   1.600   1.362  0.0729 -1.1560  0.2272
  272MOL0     N35823   0.463   1.564   1.338  0.4243  0.2417  0.3538
  272MOL0     C35824   1.493   0.880   1.930 -0.6583  0.3445 -1.2729
  272MOL0     C35825   1.581   0.856   2.029 -0.8027 -0.2106 -0.5466
  272MOL0     C35826   2.005   0.843   2.235 -0.0272  0.1503 -0.1306
  272MOL0     C35827   1.957   0.864   2.368 -0.1599  0.0986 -0.2107
  272MOL0     C35828   2.031   0.830   2.481 -0.0193  0.0671  0.6656
  272MOL0     C35829   2.159   0.784   2.473 -0.1894  0.3108  0.2299
  272MOL0     O35830   2.230   0.756   2.583 -0.1881  0.2840 -0.6375
  272MOL0     C35831   2.376   0.782   2.584  0.6426 -0.2157 -0.4546
  272MOL0     C35832   2.423   0.764   2.737 -0.4239 -0.1743  0.1262
  272MOL0     C35833   2.574   0.790   2.754 -0.3341 -0.5390 -0.1271
  272MOL0     C35834   2.619   0.793   2.897 -1.0393  0.2639  0.0493
  272MOL0     C35835   2.640   0.653   2.948 -0.4343 -0.5685  0.0601
  272MOL0     C35836   2.678   0.539   2.978  1.1462 -0.8198 -0.1433
  272MOL0     C35837   2.214   0.772   2.344 -0.7066 -0.3053  0.4412
  272MOL0     C35838   2.139   0.790   2.230  0.1323  0.6574 -0.7188
  272MOL0     H35839   1.816   1.091   1.941  0.1113  1.3651 -0.0457
  272MOL0     H35840   1.619   1.160   1.788  2.3677  0.1601 -0.3981
  272MOL0     H35841   1.406   1.218   1.734 -1.6568  1.9231 -0.8873
  272MOL0     H35842   1.276   1.155   1.849  0.7228  0.1655  0.5403
  272MOL0     H35843   1.195   1.037   1.654  0.0525 -0.7123 -0.4362
  272MOL0     H35844   1.284   1.155   1.551 -1.0233 -3.2457 -0.2842
  272MOL0     H35845   1.138   1.324   1.634  1.9383 -0.7516  2.7242
  272MOL0     H35846   1.070   1.228   1.763 -0.1368  2.0015 -0.8228
  272MOL0     H35847   1.018   1.228   1.464  3.6496 -1.4539  0.0373
  272MOL0     H35848   0.985   1.079   1.535 -1.6396 -0.3751  0.5512
  272MOL0     H35849   0.878   1.364   1.581 -0.6062 -0.1360  0.0313
  272MOL0     H35850   0.817   1.241   1.697 -0.6499  0.8894  0.3553
  272MOL0     H35851   0.722   1.110   1.520  0.8471  0.4942 -0.5968
  272MOL0     H35852   0.769   1.229   1.390 -0.8358  0.0296 -0.4776
  272MOL0     H35853   0.541   1.284   1.446  0.6117  0.1256 -0.6965
  272MOL0     H35854   0.577   1.305   1.613  0.4816 -2.6417 -0.4314
  272MOL0     H35855   0.728   1.475   1.397  1.5886  0.8976  0.5533
  272MOL0     H35856   0.696   1.506   1.567  1.9441  0.9824 -2.2346
  272MOL0     H35857   0.476   1.584   1.663 -0.1329 -1.2174 -0.5721
  272MOL0     H35858   0.212   1.792   1.539  0.7148 -0.1585 -1.2355
  272MOL0     H35859   0.240   1.688   1.685 -2.8695  1.2983  0.8829
  272MOL0     H35860   0.080   1.542   1.629  0.1849  0.8069  0.3405
  272MOL0     H35861   0.100   1.559   1.450  1.4950  0.3004 -1.5151
  272MOL0     H35862  -0.026   1.772   1.631 -2.6393  0.6757 -0.4825
  272MOL0     H35863  -0.021   1.763   1.454 -0.3394  0.0469 -0.2452
  272MOL0     H35864  -0.231   1.696   1.575  0.0866 -1.5022  2.5553
  272MOL0     H35865  -0.149   1.563   1.653 -0.5573  1.4274  0.7570
  272MOL0     H35866  -0.247   1.438   1.227  1.2352 -0.0303  1.2762
  272MOL0     H35867  -0.455   1.317   1.184 -1.3612 -1.3123  0.5989
  272MOL0     H35868  -0.872   1.107   1.344 -0.2815 -0.6707  1.5094
  272MOL0     H35869  -1.119   1.039   1.340 -1.1262  0.7275 -2.1019
  272MOL0     H35870  -1.292   0.979   1.452  1.2915  0.5230 -0.8902
  272MOL0     H35871  -1.330   1.045   1.293  1.2575  0.6702  0.1217
  272MOL0     H35872  -1.514   1.061   1.548 -1.1702  3.1795 -0.5539
  272MOL0     H35873  -1.538   0.937   1.420 -1.8949  1.1470 -1.7865
  272MOL0     H35874  -1.623   1.136   1.285 -1.8911  0.4040  0.9798
  272MOL0     H35875  -1.555   1.250   1.398  2.4077 -0.9915  0.0784
  272MOL0     H35876  -1.728   1.172   1.571 -1.3720  1.7390  0.1306
  272MOL0     H35877  -1.807   1.244   1.427  0.2731 -1.3515 -2.9781
  272MOL0     H35878  -1.923   1.035   1.495  1.1191 -1.9331  1.6599
  272MOL0     H35879  -1.779   0.945   1.440  0.1041  0.8511  1.5854
  272MOL0     H35880  -1.810   1.121   1.230 -2.0544  0.5407 -2.2649
  272MOL0     H35881  -1.975   1.115   1.283 -0.6453 -0.5029 -3.2080
  272MOL0     H35882  -1.969   0.864   1.275 -2.6404  3.1840  1.6975
  272MOL0     H35883  -1.981   0.965   1.132  2.2056 -1.8346 -2.4309
  272MOL0     H35884  -1.738   0.932   1.088 -1.0499  0.6756 -1.0957
  272MOL0     H35885  -1.837   0.792   1.068  2.3147 -1.3528 -0.8053
  272MOL0     H35886  -1.212   1.419   1.506  1.5532  0.8958  0.8028
  272MOL0     H35887  -0.961   1.482   1.493  0.2669 -0.2598 -0.4079
  272MOL0     H35888  -0.595   1.438   1.575 -1.2479  2.0166 -1.1629
  272MOL0     H35889  -0.402   1.552   1.612 -3.1105 -0.4499  0.3632
  272MOL0     H35890   1.413   0.807   1.925  0.5822 -1.2474  0.4028
  272MOL0     H35891   1.552   0.768   2.087  0.3263 -0.4592 -0.3363
  272MOL0     H35892   1.858   0.906   2.379 -0.4583 -0.3214 -1.2209
  272MOL0     H35893   1.982   0.848   2.577 -2.0077 -0.5756 -0.1771
  272MOL0     H35894   2.405   0.876   2.536  0.1585 -1.0695 -2.5363
  272MOL0     H35895   2.435   0.714   2.522  1.9140 -0.0364  0.5074
  272MOL0     H35896   2.365   0.835   2.797 -0.3395  0.8341 -0.9536
  272MOL0     H35897   2.400   0.663   2.771  0.3789 -0.7448 -0.9644
  272MOL0     H35898   2.610   0.877   2.698 -1.5189 -0.0096 -0.0870
  272MOL0     H35899   2.626   0.706   2.708 -2.1095 -1.2315 -0.9537
  272MOL0     H35900   2.713   0.849   2.905 -0.6615 -0.4345  0.5773
  272MOL0     H35901   2.544   0.834   2.965  0.5764  0.7486  1.6020
  272MOL0     H35902   2.716   0.441   2.997  1.0036 -0.5527  1.6996
  272MOL0     H35903   2.312   0.728   2.326 -0.1127  1.5519 -1.1875
  272MOL0     H35904   2.175   0.766   2.131  0.6448 -0.7500 -0.2082
  273MOL0     O35905  10.637   4.184   8.345 -0.6232  0.4555 -0.0607
  273MOL0     C35906  10.751   4.170   8.379 -0.7742 -0.8753  0.1840
  273MOL0     O35907  10.810   4.243   8.477 -0.0393 -0.1303  0.2522
  273MOL0     C35908  10.729   4.306   8.566 -0.7619 -0.4322 -0.0587
  273MOL0     C35909  10.770   4.441   8.599 -0.0728  0.1836  0.8901
  273MOL0     C35910  10.684   4.535   8.662  0.1523  0.1862  0.4494
  273MOL0     C35911  10.564   4.478   8.712  0.0709 -0.6913 -0.5237
  273MOL0     O35912  10.468   4.555   8.777 -0.7071 -0.0730 -0.4429
  273MOL0     C35913  10.493   4.686   8.803 -0.5839  1.0286  0.6703
  273MOL0     C35914  10.370   4.712   8.891  0.6085 -0.0928  0.3716
  273MOL0     C35915  10.233   4.689   8.825  0.0017  0.4987 -0.7019
  273MOL0     C35916  10.180   4.819   8.762 -0.5521 -0.4270 -0.4964
  273MOL0     C35917  10.071   4.793   8.653  0.8162 -0.3247 -0.0897
  273MOL0     C35918   9.938   4.734   8.703 -0.0990  0.5004 -0.0322
  273MOL0     C35919   9.833   4.716   8.592  0.3477  0.9745  0.7814
  273MOL0     C35920   9.714   4.647   8.645 -0.0880  0.8239  0.5320
  273MOL0     N35921   9.622   4.748   8.683 -0.2245  0.7395  0.7774
  273MOL0     C35922   9.610   4.814   8.802 -0.3362  0.8350 -0.3210
  273MOL0     C35923   9.514   4.901   8.788 -0.0679 -0.2617 -0.8617
  273MOL0     C35924   9.462   5.000   8.886 -0.1588 -0.2785  0.4114
  273MOL0     C35925   9.308   4.983   8.913  0.5965  0.0728 -0.5637
  273MOL0     C35926   9.283   4.977   9.060  0.2771  0.2984 -0.5759
  273MOL0     C35927   9.136   4.960   9.095 -0.7463  0.0002  0.1826
  273MOL0     O35928   9.118   4.963   9.230  0.6787 -0.0595 -0.4243
  273MOL0     C35929   8.986   4.992   9.267  0.3538 -0.2591 -0.2876
  273MOL0     C35930   8.872   5.012   9.187 -0.4807 -0.4608  0.1323
  273MOL0     C35931   8.755   5.067   9.243 -0.5912 -0.0788 -0.9220
  273MOL0     C35932   8.732   5.061   9.376  0.3881  0.5476 -0.2763
  273MOL0     C35933   8.604   5.104   9.438 -0.6143  1.2916  0.0899
  273MOL0     O35934   8.495   5.114   9.363  0.2847  0.0134 -0.2099
  273MOL0     C35935   8.390   5.189   9.400 -0.1597 -0.8080  0.6371
  273MOL0     C35936   8.372   5.318   9.344  0.2886 -1.1785  0.1415
  273MOL0     C35937   8.271   5.402   9.379  0.6445  0.0567 -0.5206
  273MOL0     C35938   8.172   5.354   9.470  0.4763  0.0369 -0.0571
  273MOL0     O35939   8.062   5.432   9.502  0.0374 -0.0696  0.7676
  273MOL0     C35940   7.945   5.361   9.545  0.2207 -0.1405 -0.2513
  273MOL0     C35941   7.822   5.451   9.522  0.6897 -0.3104  0.2579
  273MOL0     C35942   7.689   5.377   9.528 -1.0403  1.1391  0.1667
  273MOL0     C35943   7.562   5.454   9.540 -0.5955  0.0232 -0.2852
  273MOL0     C35944   7.541   5.550   9.424 -0.0819 -0.2867 -0.2061
  273MOL0     C35945   7.390   5.578   9.397 -0.4960  0.5532  0.3399
  273MOL0     C35946   7.337   5.666   9.502 -0.6224 -0.0070 -0.4959
  273MOL0     C35947   7.186   5.696   9.489 -0.6904  0.7546  0.2986
  273MOL0    Cl35948   7.126   5.748   9.650 -0.2453 -0.1647  0.5502
  273MOL0     C35949   8.193   5.226   9.533 -0.1715 -0.0635  0.4061
  273MOL0     C35950   8.300   5.149   9.500  0.8420  0.6081 -0.4322
  273MOL0     O35951   8.613   5.132   9.561 -0.2229  0.4556  0.4022
  273MOL0     C35952   8.843   5.017   9.454  1.0573  0.4575 -0.6637
  273MOL0     C35953   8.970   5.003   9.404  0.5236  0.3541  0.4505
  273MOL0     N35954   9.461   4.888   8.660 -0.0533  1.0108 -0.2943
  273MOL0     N35955   9.531   4.799   8.597  0.4959  0.8623 -0.5945
  273MOL0     C35956  10.538   4.342   8.710 -0.7974  0.0007 -0.1245
  273MOL0     C35957  10.611   4.259   8.628  0.2742  0.5107 -0.3377
  273MOL0     C35958  10.834   4.059   8.315 -0.2026  0.0012 -0.4689
  273MOL0     C35959  10.972   4.042   8.351 -0.1386 -0.0264 -0.0170
  273MOL0     C35960  11.044   3.944   8.285 -0.0205 -1.2670 -0.2721
  273MOL0     C35961  10.993   3.848   8.198 -0.1000 -0.2563  0.1858
  273MOL0     O35962  11.072   3.761   8.130 -0.2065 -0.0858  0.4000
  273MOL0     C35963  11.040   3.718   8.000  0.1309 -0.1690 -0.5499
  273MOL0     C35964  11.176   3.656   7.959 -0.4499 -0.5443 -0.1496
  273MOL0     C35965  11.182   3.508   7.990  0.3734  0.0986  0.1384
  273MOL0     C35966  11.322   3.463   7.997  0.1123 -0.0339  0.1991
  273MOL0     C35967  11.344   3.320   8.010  1.0450  0.0481  1.0741
  273MOL0     C35968  11.352   3.201   8.025  0.3247 -0.5550 -0.0817
  273MOL0     C35969  10.854   3.861   8.172  0.0080 -0.0295  0.3010
  273MOL0     C35970  10.782   3.969   8.230  0.3465 -0.0142  0.4454
  273MOL0     H35971  10.862   4.474   8.551 -0.6928 -1.2748 -1.4975
  273MOL0     H35972  10.711   4.637   8.688 -1.8867  0.4427  1.7293
  273MOL0     H35973  10.496   4.750   8.714 -1.7945  0.8133  0.4650
  273MOL0     H35974  10.586   4.688   8.861 -1.0601  0.2703  1.4760
  273MOL0     H35975  10.372   4.812   8.936  0.2473 -0.1361  0.4862
  273MOL0     H35976  10.379   4.642   8.975 -1.9879  0.6337  1.3625
  273MOL0     H35977  10.165   4.676   8.909  1.9454  1.5972  1.1413
  273MOL0     H35978  10.223   4.600   8.762  0.7451  0.4505 -0.7561
  273MOL0     H35979  10.147   4.881   8.846  0.5990 -1.4753  0.7544
  273MOL0     H35980  10.272   4.857   8.717  2.4138 -3.0366  2.8957
  273MOL0     H35981  10.105   4.722   8.577  1.1612 -0.7316  0.4383
  273MOL0     H35982  10.052   4.889   8.605  2.1348  0.9661  1.8285
  273MOL0     H35983   9.884   4.805   8.767  0.7320  1.3592 -0.2670
  273MOL0     H35984   9.956   4.642   8.759 -1.0738  1.7423  2.5306
  273MOL0     H35985   9.810   4.819   8.562 -1.9834  0.5978  1.0706
  273MOL0     H35986   9.871   4.653   8.511  1.0599  1.2942  0.8577
  273MOL0     H35987   9.741   4.587   8.732 -1.2006  1.2401  1.1912
  273MOL0     H35988   9.670   4.578   8.571 -0.3469  1.5341  0.0062
  273MOL0     H35989   9.666   4.795   8.893  0.4354 -0.5102 -1.0412
  273MOL0     H35990   9.473   5.102   8.846 -0.5397 -0.4719 -0.2099
  273MOL0     H35991   9.512   4.997   8.983 -0.5077  0.3351  0.6175
  273MOL0     H35992   9.283   4.887   8.865  0.0450  0.2664 -0.6703
  273MOL0     H35993   9.249   5.064   8.869 -1.3740 -0.6332  0.6381
  273MOL0     H35994   9.338   4.891   9.098 -0.6712 -0.4039 -0.7460
  273MOL0     H35995   9.304   5.067   9.118 -2.6383 -0.4132  1.8199
  273MOL0     H35996   9.092   4.872   9.048 -1.7853  0.4219  0.3467
  273MOL0     H35997   9.089   5.048   9.050  1.6901  0.4368 -1.7578
  273MOL0     H35998   8.875   5.002   9.079  0.8919 -2.7216  0.3017
  273MOL0     H35999   8.677   5.106   9.177 -0.2589  2.0261 -0.1540
  273MOL0     H36000   8.454   5.353   9.282 -0.5904 -4.1476 -3.0020
  273MOL0     H36001   8.259   5.502   9.339 -0.2449  1.4038  2.7425
  273MOL0     H36002   7.962   5.339   9.650  2.0605 -2.3210 -0.9082
  273MOL0     H36003   7.929   5.266   9.492  2.2012 -0.2505 -0.7327
  273MOL0     H36004   7.841   5.512   9.433 -2.5639  4.8493  2.6034
  273MOL0     H36005   7.820   5.527   9.600 -0.4800  0.0717 -0.1248
  273MOL0     H36006   7.686   5.310   9.614  0.1129 -2.1328 -2.1013
  273MOL0     H36007   7.681   5.311   9.440  2.6917  1.1855 -0.3552
  273MOL0     H36008   7.473   5.391   9.555 -0.3304  0.1919  2.5829
  273MOL0     H36009   7.565   5.511   9.633  3.2490  0.0715 -0.2598
  273MOL0     H36010   7.578   5.510   9.329  0.5168 -0.9604  0.3059
  273MOL0     H36011   7.600   5.640   9.446 -0.3003  0.4228 -2.2979
  273MOL0     H36012   7.335   5.485   9.383 -0.9285  0.5955  1.5899
  273MOL0     H36013   7.374   5.635   9.305 -2.4865 -0.2448  0.1495
  273MOL0     H36014   7.354   5.628   9.604 -1.6677  0.4389 -0.1380
  273MOL0     H36015   7.403   5.753   9.505 -0.1541 -0.2695  3.7211
  273MOL0     H36016   7.118   5.621   9.448  1.7843 -2.5488  1.7349
  273MOL0     H36017   7.171   5.783   9.424  0.0921 -0.3117 -1.3849
  273MOL0     H36018   8.132   5.186   9.614 -2.1513  3.6572  0.9802
  273MOL0     H36019   8.332   5.059   9.551 -0.0286  2.3091  3.4062
  273MOL0     H36020   8.835   5.007   9.562 -1.0651 -2.0009 -0.9493
  273MOL0     H36021   9.057   4.975   9.463 -0.2231 -0.0653  1.3753
  273MOL0     H36022  10.444   4.308   8.752 -1.1399  1.6854  0.5845
  273MOL0     H36023  10.567   4.160   8.617  1.7451 -0.1937 -0.1765
  273MOL0     H36024  11.015   4.099   8.432 -2.5945 -0.2918  1.6089
  273MOL0     H36025  11.149   3.931   8.309  0.7288 -0.3844 -2.7348
  273MOL0     H36026  11.021   3.796   7.926  1.6378 -0.2076 -1.0036
  273MOL0     H36027  10.971   3.634   8.002  1.6452 -1.4547  0.6391
  273MOL0     H36028  11.191   3.669   7.851 -0.8931 -0.4698 -0.2048
  273MOL0     H36029  11.258   3.703   8.013 -2.3042  1.5089  1.0863
  273MOL0     H36030  11.125   3.444   7.922  0.4046  1.3599 -1.1348
  273MOL0     H36031  11.128   3.499   8.084 -1.6170  1.1547 -0.8265
  273MOL0     H36032  11.367   3.479   7.899  1.2349  1.1898  0.8864
  273MOL0     H36033  11.377   3.521   8.071 -1.1175  1.3208  0.0986
  273MOL0     H36034  11.363   3.096   8.041  2.1234 -0.0949  2.1660
  273MOL0     H36035  10.811   3.787   8.105 -2.7418  0.1592  1.7217
  273MOL0     H36036  10.674   3.981   8.226  0.5601  2.1119 -0.4125
  274MOL0     O36037   4.721  10.650   4.457 -0.4908 -0.3614  0.1138
  274MOL0     C36038   4.709  10.763   4.505  0.8009 -0.7404  0.5297
  274MOL0     O36039   4.593  10.847   4.502 -0.4649 -0.2477  0.3660
  274MOL0     C36040   4.478  10.790   4.453  0.0991  0.5639 -0.3008
  274MOL0     C36041   4.414  10.844   4.338 -0.0881  0.4919 -1.2890
  274MOL0     C36042   4.293  10.785   4.285  0.5578 -1.1649 -0.4626
  274MOL0     C36043   4.230  10.681   4.362 -0.4516 -0.7026  0.4557
  274MOL0     O36044   4.119  10.616   4.334  0.0015 -0.3789 -0.3000
  274MOL0     C36045   4.018  10.680   4.254 -0.1153  1.0563  0.1475
  274MOL0     C36046   3.890  10.597   4.283 -0.5311 -0.3500  0.3083
  274MOL0     C36047   3.769  10.657   4.233  0.1596 -0.4253 -0.1944
  274MOL0     C36048   3.636  10.570   4.260  0.1959  0.3950 -0.7674
  274MOL0     C36049   3.532  10.635   4.171 -0.0946 -0.0234  0.1771
  274MOL0     C36050   3.397  10.569   4.189 -0.2452  0.2078  0.2988
  274MOL0     C36051   3.288  10.657   4.138 -0.1649 -0.4973 -0.5400
  274MOL0     C36052   3.153  10.589   4.165  0.0668 -0.0413 -0.3937
  274MOL0     N36053   3.056  10.689   4.149  0.3805  0.0744  0.3313
  274MOL0     C36054   2.992  10.708   4.029  0.6491  0.2209 -0.4438
  274MOL0     C36055   2.924  10.828   4.050  1.4015 -0.0788  0.2686
  274MOL0     C36056   2.868  10.910   3.937 -0.0819 -0.4398 -0.1337
  274MOL0     C36057   2.723  10.877   3.899  0.0213  0.4774  0.1412
  274MOL0     C36058   2.630  10.914   4.012  1.0310 -0.7760  0.4029
  274MOL0     C36059   2.485  10.881   3.977 -0.3905  0.5251  0.2078
  274MOL0     O36060   2.453  10.741   3.996 -0.2741 -0.3401 -0.5000
  274MOL0     C36061   2.322  10.702   4.006 -0.4684  1.1990  0.6302
  274MOL0     C36062   2.218  10.787   4.027  0.6729  0.9217  0.3229
  274MOL0     C36063   2.084  10.744   4.008 -0.1573 -0.3732 -0.0007
  274MOL0     C36064   2.055  10.613   3.976  0.4470  0.1906  0.2092
  274MOL0     C36065   1.926  10.565   3.943  0.0622  0.2249  0.1035
  274MOL0     O36066   1.836  10.667   3.910 -0.1969  0.1904  0.3447
  274MOL0     C36067   1.702  10.638   3.896  0.6363  1.2832  0.0397
  274MOL0     C36068   1.634  10.547   3.979  0.6436 -0.1250 -0.6167
  274MOL0     C36069   1.498  10.532   3.965  0.4606 -0.3938 -0.0733
  274MOL0     C36070   1.422  10.612   3.880 -0.1715  0.7239 -0.4942
  274MOL0     O36071   1.288  10.597   3.896 -0.4644  0.5980  0.0451
  274MOL0     C36072   1.202  10.686   3.823 -0.9505  0.0144  0.7294
  274MOL0     C36073   1.055  10.656   3.852 -0.1419 -0.2402 -0.8847
  274MOL0     C36074   1.004  10.530   3.797  0.7654  0.3141  0.1001
  274MOL0     C36075   0.843  10.531   3.790 -0.0918  0.6006 -0.8060
  274MOL0     C36076   0.789  10.401   3.739 -1.0456  0.4577  0.6096
  274MOL0     C36077   0.639  10.410   3.736 -0.2475 -0.3893  0.7192
  274MOL0     C36078   0.572  10.273   3.682 -0.0724 -0.8101 -0.4199
  274MOL0     C36079   0.540  10.172   3.794 -0.5115 -0.4298  0.8100
  274MOL0    Cl36080   0.442  10.245   3.918  0.8932 -0.2972  0.2872
  274MOL0     C36081   1.486  10.694   3.785 -0.0140  0.0071 -0.6855
  274MOL0     C36082   1.623  10.716   3.801 -0.9641  0.0511 -0.0146
  274MOL0     O36083   1.902  10.445   3.933  0.8298  0.4579 -0.0415
  274MOL0     C36084   2.170  10.533   3.969  1.2195  0.7550 -0.1540
  274MOL0     C36085   2.299  10.569   3.992  0.3142 -0.5344 -0.0706
  274MOL0     N36086   2.933  10.866   4.185 -0.8331  0.3855  0.0784
  274MOL0     N36087   3.009  10.778   4.246  0.6296 -0.4857  0.5473
  274MOL0     C36088   4.298  10.622   4.467  0.6188  0.1224  0.1676
  274MOL0     C36089   4.423  10.675   4.516  0.1545 -0.4714  0.2280
  274MOL0     C36090   4.830  10.839   4.555 -0.2128  0.6368  0.1697
  274MOL0     C36091   4.814  10.963   4.614 -0.4130 -0.1803 -0.3897
  274MOL0     C36092   4.929  11.028   4.666  0.5720  0.2149 -0.0203
  274MOL0     C36093   5.054  10.974   4.648  1.1602 -0.9511 -0.9035
  274MOL0     O36094   5.150  11.052   4.701  0.2152  0.3692  0.2576
  274MOL0     C36095   5.291  11.013   4.699 -0.6080  0.2964  0.0182
  274MOL0     C36096   5.366  11.140   4.682  0.4064  0.0395 -0.1158
  274MOL0     C36097   5.513  11.117   4.654 -0.0929 -0.2783 -0.5356
  274MOL0     C36098   5.583  11.248   4.657  0.2564  0.4399 -1.3905
  274MOL0     C36099   5.727  11.228   4.637  0.6320  0.4522  0.9474
  274MOL0     C36100   5.842  11.209   4.606  0.3742 -0.1102  0.6847
  274MOL0     C36101   5.075  10.856   4.594 -0.7483  0.7110 -0.3029
  274MOL0     C36102   4.968  10.784   4.543  0.8015 -0.3776 -0.5501
  274MOL0     H36103   4.461  10.930   4.291  1.4720  0.3825 -0.0443
  274MOL0     H36104   4.252  10.825   4.193 -0.3930  1.1337  0.8866
  274MOL0     H36105   4.039  10.672   4.147  0.9486  2.8241  0.1822
  274MOL0     H36106   3.995  10.784   4.281 -0.2905  0.5949  1.8866
  274MOL0     H36107   3.893  10.593   4.392 -0.5891  2.8308  0.5185
  274MOL0     H36108   3.910  10.497   4.245  3.9036 -0.5165  2.4565
  274MOL0     H36109   3.769  10.672   4.124  0.9087 -1.9294 -0.4198
  274MOL0     H36110   3.750  10.751   4.285 -0.9332 -0.0728 -1.1692
  274MOL0     H36111   3.643  10.463   4.236  1.8714 -0.6046  3.2912
  274MOL0     H36112   3.607  10.569   4.365 -0.1958  1.4116 -0.8551
  274MOL0     H36113   3.560  10.630   4.065  0.5625  1.5764  0.2320
  274MOL0     H36114   3.532  10.742   4.194  1.3888  0.2223 -0.8425
  274MOL0     H36115   3.379  10.543   4.294 -1.4993 -0.3081 -0.0396
  274MOL0     H36116   3.393  10.478   4.128 -3.3105 -0.0122  0.7008
  274MOL0     H36117   3.289  10.748   4.199 -0.5005  0.1453 -1.4758
  274MOL0     H36118   3.311  10.688   4.036  1.8007 -0.1826 -0.0370
  274MOL0     H36119   3.140  10.555   4.269  0.9065  1.7853  0.3531
  274MOL0     H36120   3.125  10.502   4.105 -2.8009 -0.0852  0.8357
  274MOL0     H36121   2.991  10.640   3.945  3.5856 -4.3899  2.7699
  274MOL0     H36122   2.930  10.913   3.848 -1.4916 -1.2331 -1.1818
  274MOL0     H36123   2.875  11.015   3.966  1.3665 -0.9081  1.3840
  274MOL0     H36124   2.708  10.771   3.877  1.2274  0.1890  0.6276
  274MOL0     H36125   2.689  10.938   3.815 -0.1623  0.8608  0.4913
  274MOL0     H36126   2.650  10.857   4.103 -1.6160 -1.0889  0.8856
  274MOL0     H36127   2.629  11.022   4.031 -1.9858 -0.5512 -0.4633
  274MOL0     H36128   2.471  10.897   3.870  0.2412 -1.0643 -0.1401
  274MOL0     H36129   2.418  10.946   4.035 -0.1871  0.1307  0.9063
  274MOL0     H36130   2.237  10.893   4.038  2.4834  0.4317  2.9189
  274MOL0     H36131   2.008  10.816   4.037  1.2508  0.2014  2.5750
  274MOL0     H36132   1.690  10.496   4.056  3.1328  3.0546 -0.1438
  274MOL0     H36133   1.454  10.461   4.034  0.1460 -1.3347 -1.2209
  274MOL0     H36134   1.221  10.674   3.716 -3.3621 -0.7235  0.3246
  274MOL0     H36135   1.219  10.789   3.856 -0.1273 -0.3204  1.3929
  274MOL0     H36136   0.995  10.737   3.809  0.7426  0.8630 -0.1014
  274MOL0     H36137   1.046  10.641   3.960  0.3707 -0.1030 -0.8240
  274MOL0     H36138   1.037  10.441   3.853 -0.4713  0.4706  1.1123
  274MOL0     H36139   1.034  10.516   3.693  1.9679 -0.2538  0.5063
  274MOL0     H36140   0.806  10.536   3.893  2.0220 -2.8091  0.2784
  274MOL0     H36141   0.804  10.611   3.728 -1.4924 -1.1647 -2.3017
  274MOL0     H36142   0.827  10.321   3.802 -2.6316  0.4254  1.5714
  274MOL0     H36143   0.815  10.395   3.633 -0.4802  1.6279  0.6586
  274MOL0     H36144   0.608  10.495   3.674  0.0050 -1.8331 -1.5222
  274MOL0     H36145   0.601  10.435   3.835 -1.6645  0.4817 -0.0088
  274MOL0     H36146   0.484  10.299   3.624 -0.6056 -1.8356 -0.0959
  274MOL0     H36147   0.632  10.234   3.599  0.8055 -0.2539 -0.0617
  274MOL0     H36148   0.637  10.138   3.832 -0.8079 -2.2358  0.0728
  274MOL0     H36149   0.492  10.083   3.751 -3.3115  1.2585  0.1621
  274MOL0     H36150   1.435  10.768   3.725 -1.5103  0.1329  0.6883
  274MOL0     H36151   1.668  10.790   3.735 -2.7569 -1.3323 -3.0216
  274MOL0     H36152   2.168  10.426   3.950 -0.7338  0.9174 -1.0748
  274MOL0     H36153   2.379  10.498   3.971 -2.3879 -3.9015  0.2344
  274MOL0     H36154   4.265  10.530   4.514  1.0113 -0.9447 -1.5743
  274MOL0     H36155   4.469  10.633   4.605  1.4940 -0.3695 -0.3904
  274MOL0     H36156   4.725  11.015   4.647  0.8179  1.8762 -0.1772
  274MOL0     H36157   4.901  11.113   4.729 -3.6793 -1.8850  1.2991
  274MOL0     H36158   5.315  10.952   4.612  1.0177  0.6624  0.1685
  274MOL0     H36159   5.321  10.949   4.783  1.2985 -0.3350 -1.0863
  274MOL0     H36160   5.327  11.211   4.609  1.6696 -1.2031 -2.1003
  274MOL0     H36161   5.362  11.199   4.774  1.2870 -2.5353  1.6896
  274MOL0     H36162   5.526  11.066   4.558 -1.5238  1.2294 -1.5868
  274MOL0     H36163   5.548  11.041   4.724 -2.3320 -3.8397 -2.9516
  274MOL0     H36164   5.558  11.316   4.575 -0.6881  1.2104 -0.4735
  274MOL0     H36165   5.572  11.278   4.761 -1.2569 -2.1995 -0.6780
  274MOL0     H36166   5.945  11.201   4.575  0.6426  1.4626  1.0872
  274MOL0     H36167   5.176  10.818   4.590 -1.4073 -1.0483 -2.5321
  274MOL0     H36168   4.978  10.698   4.477  3.5834 -0.7250  0.2322
  275MOL0     O36169  10.689   5.500   5.497  0.1068  0.1572 -0.3782
  275MOL0     C36170  10.728   5.591   5.571 -0.2826 -0.3407  0.8868
  275MOL0     O36171  10.659   5.673   5.654  1.2876 -0.5880 -0.1755
  275MOL0     C36172  10.521   5.666   5.626  0.5673 -0.3635 -0.2324
  275MOL0     C36173  10.435   5.660   5.736  0.2239 -0.0508  0.6773
  275MOL0     C36174  10.296   5.661   5.723  0.1153  1.0785 -0.4897
  275MOL0     C36175  10.234   5.666   5.597 -0.0435  0.0875  0.5172
  275MOL0     O36176  10.102   5.672   5.563  0.1840 -0.3553  0.5009
  275MOL0     C36177  10.001   5.670   5.666  0.1189 -0.5840 -0.2324
  275MOL0     C36178   9.869   5.718   5.618 -0.4399 -0.2709 -0.1812
  275MOL0     C36179   9.823   5.651   5.491  0.4717 -0.1454  0.1134
  275MOL0     C36180   9.693   5.688   5.437 -0.1170 -0.0114 -0.1529
  275MOL0     C36181   9.654   5.636   5.297  0.8742  0.3696  0.7651
  275MOL0     C36182   9.707   5.706   5.176 -0.0157  0.0399 -0.4164
  275MOL0     C36183   9.624   5.671   5.051  0.4160 -0.3035  0.0620
  275MOL0     C36184   9.469   5.709   5.042  0.0382  0.4896 -0.0037
  275MOL0     N36185   9.439   5.851   5.085  0.5180  0.6308  1.0994
  275MOL0     C36186   9.425   5.948   4.995  0.2224  0.8634 -0.0083
  275MOL0     C36187   9.390   6.066   5.063 -0.8800  0.8926  0.1443
  275MOL0     C36188   9.348   6.192   5.001 -0.6060 -0.9484 -0.0863
  275MOL0     C36189   9.201   6.199   4.977 -0.5437  0.6309  0.4371
  275MOL0     C36190   9.140   6.265   5.101 -0.3168 -0.3305 -0.1351
  275MOL0     C36191   8.991   6.286   5.069  0.2346  0.4754 -0.3903
  275MOL0     O36192   8.909   6.252   5.184  0.6153 -0.1041  0.4690
  275MOL0     C36193   8.768   6.265   5.171 -0.3439 -0.6035  0.3325
  275MOL0     C36194   8.700   6.314   5.064  0.0653 -0.2146  0.1924
  275MOL0     C36195   8.562   6.337   5.062  0.0194  0.1260  0.5409
  275MOL0     C36196   8.493   6.297   5.170  0.0108  0.4716  0.5382
  275MOL0     C36197   8.347   6.306   5.171  0.0196 -0.3323 -0.3804
  275MOL0     O36198   8.282   6.242   5.275  0.2624 -0.0268  0.2058
  275MOL0     C36199   8.147   6.243   5.314 -0.1547 -0.4805 -0.0681
  275MOL0     C36200   8.056   6.335   5.262  0.0833  0.5765  0.9572
  275MOL0     C36201   7.922   6.336   5.300 -0.1153 -0.3207  0.2164
  275MOL0     C36202   7.875   6.250   5.397  0.5938  0.9136  0.5652
  275MOL0     O36203   7.746   6.242   5.436  0.1830 -0.1673 -0.1882
  275MOL0     C36204   7.642   6.308   5.360  0.1515  1.2297  0.1996
  275MOL0     C36205   7.507   6.232   5.389 -0.0654  0.4574 -0.1163
  275MOL0     C36206   7.466   6.217   5.540  0.3335  0.1394 -0.4535
  275MOL0     C36207   7.378   6.331   5.598  1.1232 -0.2132 -0.1463
  275MOL0     C36208   7.233   6.320   5.556  0.1698 -1.1170  0.6188
  275MOL0     C36209   7.150   6.428   5.632 -0.1956 -0.3828 -0.3895
  275MOL0     C36210   6.998   6.388   5.622  0.1077  0.6944 -0.0243
  275MOL0     C36211   6.916   6.510   5.677  0.2873  0.4949  0.3944
  275MOL0    Cl36212   6.926   6.518   5.843 -0.5963 -0.1804 -0.1308
  275MOL0     C36213   7.971   6.168   5.454  0.0007 -0.0585 -0.1773
  275MOL0     C36214   8.096   6.159   5.415 -0.6574 -0.4232 -0.7146
  275MOL0     O36215   8.286   6.371   5.082 -0.3120 -0.0512  0.7322
  275MOL0     C36216   8.562   6.230   5.276  0.1760  0.3294  1.0834
  275MOL0     C36217   8.700   6.221   5.278  0.1504  0.4360 -0.3566
  275MOL0     N36218   9.392   6.026   5.200  0.8276 -0.1936  0.3830
  275MOL0     N36219   9.428   5.901   5.209  0.2335  0.1472 -0.6276
  275MOL0     C36220  10.328   5.676   5.490  0.7882  0.1629 -0.7244
  275MOL0     C36221  10.467   5.681   5.502 -0.2205 -0.1813 -0.1294
  275MOL0     C36222  10.874   5.622   5.563  0.5855 -0.1893 -0.5170
  275MOL0     C36223  10.927   5.737   5.616  1.1809 -0.2048  0.6367
  275MOL0     C36224  11.058   5.777   5.589 -0.4128 -0.1648 -0.0540
  275MOL0     C36225  11.146   5.681   5.522  0.2894  0.5808  0.1060
  275MOL0     O36226  11.282   5.703   5.508 -0.4152 -0.2610 -0.1096
  275MOL0     C36227  11.350   5.807   5.587 -0.0019  0.1194  0.3185
  275MOL0     C36228  11.501   5.776   5.595  0.0990 -0.4881  0.1910
  275MOL0     C36229  11.529   5.646   5.677 -0.7907  0.7656 -0.0084
  275MOL0     C36230  11.524   5.514   5.600 -0.1911 -0.6459  0.1749
  275MOL0     C36231  11.407   5.429   5.631 -0.7849 -0.0590 -0.7722
  275MOL0     C36232  11.313   5.359   5.660  0.6999 -0.0998 -0.1612
  275MOL0     C36233  11.094   5.556   5.476 -0.9152 -0.7341  0.4027
  275MOL0     C36234  10.958   5.530   5.490 -0.6501  0.2777 -0.8862
  275MOL0     H36235  10.476   5.664   5.837  1.6635 -1.1576  0.1754
  275MOL0     H36236  10.243   5.654   5.818 -0.5233 -1.2796 -0.9694
  275MOL0     H36237  10.046   5.717   5.754  1.2278  1.8752 -2.0036
  275MOL0     H36238   9.987   5.562   5.676 -1.1054 -0.3679  0.5797
  275MOL0     H36239   9.876   5.824   5.592 -2.9217  0.2311  0.9179
  275MOL0     H36240   9.795   5.712   5.698 -0.1149  1.3178  0.2731
  275MOL0     H36241   9.822   5.542   5.506 -2.3162 -0.6128 -2.4168
  275MOL0     H36242   9.901   5.661   5.414 -0.5399 -0.1710 -0.9495
  275MOL0     H36243   9.623   5.636   5.503  1.4434 -4.3700 -1.5977
  275MOL0     H36244   9.668   5.794   5.427  0.6215 -0.0241 -2.9503
  275MOL0     H36245   9.545   5.645   5.304  0.7813 -0.1019  0.0261
  275MOL0     H36246   9.685   5.532   5.282 -1.0681 -0.2703  0.8439
  275MOL0     H36247   9.816   5.705   5.167  0.0985 -1.0372  0.8710
  275MOL0     H36248   9.681   5.812   5.185 -0.0107 -0.0250  0.3912
  275MOL0     H36249   9.675   5.718   4.965 -0.5175  1.2302  0.3082
  275MOL0     H36250   9.628   5.562   5.051 -1.1667 -0.4098 -1.7007
  275MOL0     H36251   9.417   5.654   5.121 -0.9689 -0.0384 -1.0026
  275MOL0     H36252   9.423   5.682   4.947  0.4410  0.1826 -0.1151
  275MOL0     H36253   9.427   5.932   4.887  2.2257  0.2660  0.0746
  275MOL0     H36254   9.400   6.200   4.905 -0.1759  4.2327  0.2700
  275MOL0     H36255   9.372   6.284   5.055  0.5271 -2.3671  1.9672
  275MOL0     H36256   9.156   6.100   4.966 -1.4106  0.9055  1.3782
  275MOL0     H36257   9.180   6.269   4.896  1.8409  1.1735  0.2259
  275MOL0     H36258   9.157   6.203   5.189  2.4455 -0.6274 -0.8036
  275MOL0     H36259   9.182   6.365   5.115  0.0364 -0.5484  0.3667
  275MOL0     H36260   8.958   6.231   4.981 -2.1520 -0.8105  1.2007
  275MOL0     H36261   8.975   6.391   5.042  2.1358  0.4181 -1.9436
  275MOL0     H36262   8.750   6.356   4.978 -0.2119 -0.8229 -0.2742
  275MOL0     H36263   8.506   6.364   4.973 -0.3502  1.2982  1.1107
  275MOL0     H36264   8.089   6.398   5.181  2.1590 -0.1091  1.2036
  275MOL0     H36265   7.859   6.406   5.246  0.8995  0.4529  0.0164
  275MOL0     H36266   7.658   6.307   5.252 -1.3529 -1.6449 -0.0972
  275MOL0     H36267   7.633   6.413   5.390  2.5788  1.2769  1.0162
  275MOL0     H36268   7.526   6.128   5.362  3.4276  1.0390 -0.2658
  275MOL0     H36269   7.429   6.284   5.332  1.5793  3.8334  0.4928
  275MOL0     H36270   7.539   6.204   5.620 -1.1191  0.0685  0.8911
  275MOL0     H36271   7.409   6.124   5.544  2.6082 -1.3025  0.5995
  275MOL0     H36272   7.377   6.326   5.707 -1.1290 -0.2164 -0.1328
  275MOL0     H36273   7.426   6.424   5.566  1.5494 -0.4156 -0.1157
  275MOL0     H36274   7.202   6.218   5.583  1.8644 -1.6642  0.6209
  275MOL0     H36275   7.222   6.345   5.451  0.7750  1.7396  1.1498
  275MOL0     H36276   7.166   6.530   5.595 -1.1131 -1.1986 -3.3542
  275MOL0     H36277   7.168   6.434   5.739 -2.8044  1.6716  0.0583
  275MOL0     H36278   6.967   6.393   5.517  0.0662 -0.6726 -0.0999
  275MOL0     H36279   6.970   6.291   5.664 -3.8235  1.1259 -1.2819
  275MOL0     H36280   6.811   6.505   5.644  0.7165  0.7011 -1.0655
  275MOL0     H36281   6.962   6.602   5.641  0.6608  0.2668  0.2862
  275MOL0     H36282   7.956   6.093   5.531  3.0556  0.3430  0.9359
  275MOL0     H36283   8.166   6.095   5.468  0.3569  1.0853 -0.1562
  275MOL0     H36284   8.507   6.160   5.337 -0.3017  0.0682  0.3645
  275MOL0     H36285   8.752   6.153   5.345 -1.8370 -0.0100  0.8428
  275MOL0     H36286  10.283   5.671   5.391 -3.0437  0.4838  0.8380
  275MOL0     H36287  10.530   5.696   5.415  1.6375  2.2338  1.4948
  275MOL0     H36288  10.858   5.810   5.657 -0.1055 -0.3869 -1.1106
  275MOL0     H36289  11.101   5.868   5.630  1.4990 -0.7357 -0.7120
  275MOL0     H36290  11.316   5.809   5.691 -1.3175  1.4110 -0.0928
  275MOL0     H36291  11.327   5.905   5.543 -2.7124  0.3860  2.0645
  275MOL0     H36292  11.543   5.769   5.494 -1.1678  1.4612 -0.5301
  275MOL0     H36293  11.554   5.854   5.650  1.9647 -0.8923 -0.9464
  275MOL0     H36294  11.467   5.661   5.766  1.9207  4.2815  1.5438
  275MOL0     H36295  11.635   5.666   5.694 -0.9615  0.9310  0.8636
  275MOL0     H36296  11.522   5.541   5.494  1.5998 -1.4163 -0.0880
  275MOL0     H36297  11.610   5.447   5.612 -0.1641 -0.4553  1.0866
  275MOL0     H36298  11.237   5.294   5.699  1.4699 -0.0955  1.4425
  275MOL0     H36299  11.171   5.490   5.436  0.3323  0.9461 -0.0583
  275MOL0     H36300  10.923   5.441   5.439 -1.4765  0.3561 -0.4636
  276MOL0     O36301   9.489   2.081   5.066  0.5926  0.0349 -0.9688
  276MOL0     C36302   9.479   2.079   4.944 -0.9471  0.8639  0.2821
  276MOL0     O36303   9.368   2.072   4.863 -0.1725 -0.4455  0.0027
  276MOL0     C36304   9.248   2.094   4.908  0.2515 -0.2685 -0.0561
  276MOL0     C36305   9.223   2.209   4.989  0.4760  0.4132  0.5331
  276MOL0     C36306   9.091   2.239   5.012 -0.7811 -0.0201 -0.6166
  276MOL0     C36307   8.978   2.155   4.976 -0.5408 -0.6333 -0.8662
  276MOL0     O36308   8.845   2.193   4.991  0.2000  0.3674  0.7289
  276MOL0     C36309   8.800   2.235   5.120  0.0047  0.5532  0.5661
  276MOL0     C36310   8.669   2.163   5.126 -0.5221  0.0374 -0.8835
  276MOL0     C36311   8.604   2.188   5.263  0.9414 -0.1947  0.2668
  276MOL0     C36312   8.465   2.135   5.265 -0.2480  0.6596 -0.0355
  276MOL0     C36313   8.400   2.179   5.393  0.3189 -0.0638 -0.4312
  276MOL0     C36314   8.289   2.081   5.432 -0.9806 -0.9169  0.1337
  276MOL0     C36315   8.163   2.081   5.332  0.9952 -0.9244 -1.1351
  276MOL0     C36316   8.085   2.222   5.334 -0.6154  0.1470 -0.0032
  276MOL0     N36317   7.955   2.220   5.261  0.2852  0.0306  0.2458
  276MOL0     C36318   7.848   2.149   5.298 -0.5843  0.0808  1.0173
  276MOL0     C36319   7.757   2.186   5.206  0.0753 -0.7004 -0.0542
  276MOL0     C36320   7.610   2.151   5.209  0.1944 -1.0869  0.0787
  276MOL0     C36321   7.534   2.228   5.323 -0.1018 -0.9043 -0.1857
  276MOL0     C36322   7.544   2.380   5.307  0.0578  1.1453  0.7426
  276MOL0     C36323   7.477   2.466   5.407 -0.4641  0.1551 -0.5317
  276MOL0     O36324   7.334   2.444   5.393 -0.5101  0.5244  0.3034
  276MOL0     C36325   7.238   2.500   5.473 -0.5473 -0.8402  0.3125
  276MOL0     C36326   7.108   2.496   5.428  0.1048 -0.1422  0.7174
  276MOL0     C36327   7.020   2.586   5.484  0.1197 -0.0140 -1.1383
  276MOL0     C36328   7.052   2.670   5.594  0.1365 -0.4334  0.0713
  276MOL0     C36329   6.958   2.769   5.645 -0.3908  0.0142  0.0338
  276MOL0     O36330   7.013   2.869   5.715  0.0755  0.2958 -0.0234
  276MOL0     C36331   6.937   2.971   5.783 -0.5515 -0.5408  0.6263
  276MOL0     C36332   6.821   2.959   5.862  0.0388  1.0194 -0.9471
  276MOL0     C36333   6.743   3.059   5.905  0.7049 -0.1065  0.1420
  276MOL0     C36334   6.773   3.190   5.863 -0.1949 -0.5977  0.1774
  276MOL0     O36335   6.709   3.304   5.900  0.9818  0.6642 -0.3365
  276MOL0     C36336   6.779   3.427   5.918 -0.1825 -0.2594  0.7975
  276MOL0     C36337   6.704   3.521   6.012 -0.9672 -0.0252  0.6222
  276MOL0     C36338   6.576   3.568   5.941  0.9773 -0.2320 -0.4597
  276MOL0     C36339   6.495   3.656   6.033  0.4493 -0.3723 -0.3085
  276MOL0     C36340   6.354   3.687   5.977 -0.4055  0.9502  0.2010
  276MOL0     C36341   6.353   3.790   5.851  0.2610  0.7290  0.1074
  276MOL0     C36342   6.214   3.848   5.826 -0.4548 -0.3962  0.0878
  276MOL0     C36343   6.198   3.994   5.858  0.6473 -0.3415  1.3454
  276MOL0    Cl36344   6.268   4.083   5.723  0.1151 -0.4678  0.0271
  276MOL0     C36345   6.885   3.207   5.772  0.3988 -0.7816 -0.8186
  276MOL0     C36346   6.961   3.103   5.737  0.2096 -0.8703 -0.2562
  276MOL0     O36347   6.836   2.756   5.635  0.3487  0.3152 -0.2446
  276MOL0     C36348   7.172   2.657   5.655 -0.7617 -0.9740  0.2331
  276MOL0     C36349   7.261   2.575   5.590 -1.2756 -0.1819 -1.1417
  276MOL0     N36350   7.808   2.284   5.125  0.7094 -0.5391 -0.1896
  276MOL0     N36351   7.926   2.307   5.162  0.1679  0.2649  0.5152
  276MOL0     C36352   9.010   2.031   4.911 -0.2358 -0.7715  0.6267
  276MOL0     C36353   9.147   2.003   4.878 -0.6510  0.7916  0.0037
  276MOL0     C36354   9.608   2.063   4.876 -0.5418 -0.7207 -1.0581
  276MOL0     C36355   9.617   2.036   4.741  0.1703 -0.0746  0.8680
  276MOL0     C36356   9.741   1.992   4.686  0.7517 -0.1412 -0.6640
  276MOL0     C36357   9.861   2.023   4.754 -0.4936 -0.7568 -0.2323
  276MOL0     O36358   9.981   2.006   4.685 -0.5156  0.0718 -0.0297
  276MOL0     C36359  10.087   1.957   4.763 -0.3064  0.5317  1.1518
  276MOL0     C36360  10.220   1.999   4.710 -0.0720  0.2361  0.3805
  276MOL0     C36361  10.327   1.970   4.815  0.0581  0.0065  0.1125
  276MOL0     C36362  10.387   1.827   4.807  0.7598 -0.3372 -0.9807
  276MOL0     C36363  10.469   1.809   4.689 -0.3782  0.2458  0.5566
  276MOL0     C36364  10.534   1.766   4.595 -0.5008 -0.4279  0.2475
  276MOL0     C36365   9.846   2.064   4.888 -0.3070 -0.3453 -0.4022
  276MOL0     C36366   9.726   2.075   4.946  0.4863  0.7555 -0.7286
  276MOL0     H36367   9.315   2.262   5.013  1.4428  0.4660 -2.7909
  276MOL0     H36368   9.079   2.325   5.078 -1.6114 -0.0957 -0.6584
  276MOL0     H36369   8.798   2.345   5.121  1.9227  0.6295  0.8094
  276MOL0     H36370   8.858   2.199   5.206  1.0585  0.2480 -0.2473
  276MOL0     H36371   8.686   2.055   5.115 -1.6290  0.0793 -3.8254
  276MOL0     H36372   8.599   2.189   5.047  1.0435 -3.7915 -3.8568
  276MOL0     H36373   8.592   2.292   5.296 -1.3770 -0.1334 -0.6118
  276MOL0     H36374   8.662   2.134   5.339  0.9001 -3.4197 -1.8087
  276MOL0     H36375   8.410   2.158   5.173  1.0253 -0.1502 -1.0188
  276MOL0     H36376   8.474   2.026   5.263  3.2654  0.8213  1.1370
  276MOL0     H36377   8.353   2.277   5.385  1.0074  0.2267 -0.9139
  276MOL0     H36378   8.478   2.179   5.470 -0.1406 -1.3354  0.0725
  276MOL0     H36379   8.258   2.102   5.535  4.4719 -0.0188  1.8931
  276MOL0     H36380   8.339   1.984   5.426  1.5125  0.3901 -2.2958
  276MOL0     H36381   8.195   2.066   5.228  0.9528  3.0785 -1.9022
  276MOL0     H36382   8.095   2.000   5.359 -1.1220  1.2980  0.6375
  276MOL0     H36383   8.142   2.292   5.271 -0.8233 -0.0832 -0.4485
  276MOL0     H36384   8.086   2.265   5.434 -1.2304  3.3599 -1.2642
  276MOL0     H36385   7.822   2.079   5.376 -1.7722 -0.1716  0.4268
  276MOL0     H36386   7.594   2.044   5.227  3.2178 -2.0035 -1.9930
  276MOL0     H36387   7.559   2.176   5.116  1.4484 -2.0188 -0.8922
  276MOL0     H36388   7.579   2.207   5.420  1.4298  2.6005  0.0326
  276MOL0     H36389   7.434   2.183   5.311  0.7810 -2.4914 -2.3018
  276MOL0     H36390   7.650   2.408   5.298  0.1234  0.7761  0.3325
  276MOL0     H36391   7.501   2.403   5.209 -1.3331  1.3459  1.3873
  276MOL0     H36392   7.512   2.566   5.380  3.1924 -1.1214 -1.1331
  276MOL0     H36393   7.509   2.441   5.509  0.2972  1.1194 -0.5190
  276MOL0     H36394   7.090   2.439   5.337 -0.3103  0.9545  0.0931
  276MOL0     H36395   6.915   2.582   5.459 -0.8497 -1.3668  2.4969
  276MOL0     H36396   6.803   2.858   5.897 -1.5498  1.3206 -0.8271
  276MOL0     H36397   6.666   3.030   5.976  1.2171  1.7777  1.5787
  276MOL0     H36398   6.786   3.472   5.819 -1.8261 -1.8078 -0.0865
  276MOL0     H36399   6.884   3.409   5.945  1.1068  2.5985 -1.7416
  276MOL0     H36400   6.776   3.602   6.023 -0.1676 -0.6320 -0.0106
  276MOL0     H36401   6.694   3.479   6.113 -0.1691 -0.5770  0.4833
  276MOL0     H36402   6.511   3.481   5.924 -0.5678  0.7623  0.1604
  276MOL0     H36403   6.603   3.616   5.846 -0.3215  0.5420 -0.4559
  276MOL0     H36404   6.477   3.604   6.128 -1.3896 -0.1783 -0.5151
  276MOL0     H36405   6.547   3.748   6.062  1.7954 -1.7726  1.9915
  276MOL0     H36406   6.292   3.733   6.055 -0.4382  0.3383  0.5447
  276MOL0     H36407   6.313   3.590   5.947 -2.3091  2.4110 -2.2504
  276MOL0     H36408   6.358   3.735   5.757 -3.5801 -0.8708  0.6571
  276MOL0     H36409   6.425   3.872   5.863  0.5264  0.3114  1.7058
  276MOL0     H36410   6.179   3.836   5.723 -2.6137 -1.1941  0.8519
  276MOL0     H36411   6.148   3.793   5.893  1.3335 -1.2482  1.2520
  276MOL0     H36412   6.246   4.016   5.954 -0.1275  2.1284  1.2386
  276MOL0     H36413   6.094   4.027   5.869  0.9554  0.8339  0.8999
  276MOL0     H36414   6.914   3.303   5.731  0.7427 -1.1065 -1.3331
  276MOL0     H36415   7.052   3.114   5.680 -0.0185  1.5213 -0.2804
  276MOL0     H36416   7.217   2.699   5.744  2.6769 -2.4097 -0.6429
  276MOL0     H36417   7.354   2.562   5.645 -2.5509 -1.1681  0.9176
  276MOL0     H36418   8.939   1.954   4.883 -1.3740  1.4852 -3.5002
  276MOL0     H36419   9.158   1.904   4.834 -0.7173  1.3683 -1.3810
  276MOL0     H36420   9.521   2.038   4.690 -2.0034 -2.2894  4.4058
  276MOL0     H36421   9.728   1.967   4.581 -3.0909 -2.3321  0.1480
  276MOL0     H36422  10.083   1.847   4.764 -0.5911  0.5454  1.6143
  276MOL0     H36423  10.086   1.990   4.867 -0.8257  1.7728  0.7704
  276MOL0     H36424  10.239   1.941   4.619  1.6040 -0.0840  0.8989
  276MOL0     H36425  10.211   2.106   4.692 -1.2324 -0.1128 -1.4246
  276MOL0     H36426  10.295   1.988   4.918  1.6392 -0.5170  0.7302
  276MOL0     H36427  10.409   2.041   4.796 -2.5619  2.4889 -3.1111
  276MOL0     H36428  10.448   1.814   4.897 -0.1400  4.3419  0.5958
  276MOL0     H36429  10.307   1.752   4.808  2.2758 -2.0117 -0.1238
  276MOL0     H36430  10.593   1.733   4.511 -0.2530  0.7259 -0.0568
  276MOL0     H36431   9.934   2.079   4.950 -1.8463 -0.7706  2.0089
  276MOL0     H36432   9.716   2.082   5.054  1.9820 -0.6593 -0.4579
  277MOL0     O36433   8.384   5.291   6.721  0.4055  0.3019  0.0987
  277MOL0     C36434   8.436   5.307   6.831 -0.3777 -0.2704 -0.0522
  277MOL0     O36435   8.433   5.427   6.891  0.0969  0.0483 -0.4297
  277MOL0     C36436   8.360   5.528   6.837 -0.3333 -0.2112 -1.3653
  277MOL0     C36437   8.224   5.537   6.880  0.0521 -0.8129 -0.0136
  277MOL0     C36438   8.157   5.660   6.860 -0.6467 -0.0770 -0.3961
  277MOL0     C36439   8.216   5.777   6.790 -0.0362  0.6160 -0.0109
  277MOL0     O36440   8.139   5.880   6.766  0.1631  0.3924 -0.6749
  277MOL0     C36441   8.082   5.955   6.878 -0.0531  1.7444 -0.2270
  277MOL0     C36442   8.034   6.098   6.839 -0.5080  0.2566  0.8853
  277MOL0     C36443   7.900   6.092   6.759  0.2809 -0.1830  0.5886
  277MOL0     C36444   7.854   6.232   6.739  0.2600 -0.5976  0.2578
  277MOL0     C36445   7.786   6.254   6.604  0.0123 -0.5108  0.2936
  277MOL0     C36446   7.746   6.404   6.585  0.1451 -0.1316  0.1060
  277MOL0     C36447   7.637   6.460   6.683  0.0105 -0.0824 -0.0230
  277MOL0     C36448   7.651   6.605   6.711 -0.1333  0.7854  0.3930
  277MOL0     N36449   7.770   6.642   6.782 -0.0625  0.5408 -0.5327
  277MOL0     C36450   7.837   6.560   6.875 -0.3030  0.7258  1.0252
  277MOL0     C36451   7.931   6.631   6.935  0.0095 -1.1673  0.2012
  277MOL0     C36452   8.013   6.572   7.045 -0.6347 -0.8405  0.4372
  277MOL0     C36453   8.085   6.451   7.011 -0.1766 -0.0638 -0.2479
  277MOL0     C36454   8.212   6.435   7.094  0.1713 -1.3466  0.2285
  277MOL0     C36455   8.274   6.297   7.081 -0.4373  0.1006 -1.0068
  277MOL0     O36456   8.331   6.259   6.960  0.3052  0.0281  0.2945
  277MOL0     C36457   8.424   6.163   6.955  0.0040  1.0365 -0.6772
  277MOL0     C36458   8.514   6.155   6.857 -0.1499 -0.9880  0.3409
  277MOL0     C36459   8.601   6.046   6.843  1.4036 -0.0882 -0.2251
  277MOL0     C36460   8.614   5.940   6.932  0.1620  0.6443 -0.4459
  277MOL0     C36461   8.720   5.837   6.927 -0.1476  0.0827  0.1069
  277MOL0     O36462   8.698   5.714   6.989  0.6533 -0.1362 -0.6274
  277MOL0     C36463   8.792   5.609   6.995  0.1490  0.3416 -0.2852
  277MOL0     C36464   8.880   5.587   6.887 -0.1666 -0.8809 -0.0455
  277MOL0     C36465   8.973   5.482   6.883  0.4981  0.4351  0.2213
  277MOL0     C36466   8.983   5.410   7.007  0.1809  0.9477  0.1822
  277MOL0     O36467   9.072   5.310   7.011  0.3377 -0.2637  0.0574
  277MOL0     C36468   9.205   5.356   7.031  0.0672  1.1646  0.8987
  277MOL0     C36469   9.300   5.231   7.030 -0.0737  0.6029  0.3513
  277MOL0     C36470   9.441   5.269   7.040  0.1707 -0.7486  0.4176
  277MOL0     C36471   9.511   5.292   6.904 -0.7050  0.8092  0.2138
  277MOL0     C36472   9.663   5.316   6.909 -0.1055 -0.4443 -0.0724
  277MOL0     C36473   9.712   5.328   6.764  0.5623  0.7886 -0.8893
  277MOL0     C36474   9.843   5.398   6.761 -0.4827  0.6252 -0.6510
  277MOL0     C36475   9.908   5.400   6.624  0.0107 -0.0248  1.0236
  277MOL0    Cl36476   9.787   5.461   6.503 -0.5222 -0.1536 -0.2085
  277MOL0     C36477   8.902   5.432   7.119  0.0328  0.9685  0.0606
  277MOL0     C36478   8.803   5.527   7.105  0.3913  0.6804  0.2367
  277MOL0     O36479   8.823   5.873   6.869 -0.0512 -0.2155  0.3382
  277MOL0     C36480   8.518   5.946   7.036 -0.0503 -0.3591  0.1667
  277MOL0     C36481   8.421   6.050   7.045  0.1893 -0.5338  0.0473
  277MOL0     N36482   7.899   6.759   6.901  0.9624 -0.4938  0.0160
  277MOL0     N36483   7.805   6.764   6.811 -0.0182 -0.0833  0.0956
  277MOL0     C36484   8.352   5.765   6.740  0.7165  0.8703 -0.1481
  277MOL0     C36485   8.422   5.642   6.774 -0.5091 -0.1422  0.7730
  277MOL0     C36486   8.493   5.184   6.899 -0.1720 -0.1563 -0.6120
  277MOL0     C36487   8.465   5.052   6.865 -0.5468 -0.5949 -0.2267
  277MOL0     C36488   8.523   4.945   6.930  0.6028 -0.6959 -0.0832
  277MOL0     C36489   8.620   4.976   7.032 -0.5154 -0.2473 -0.2868
  277MOL0     O36490   8.678   4.869   7.103 -0.2033  0.5442 -0.0231
  277MOL0     C36491   8.819   4.859   7.120  0.1063  0.8765 -0.1057
  277MOL0     C36492   8.866   4.897   7.251  0.2299  0.3476  0.5521
  277MOL0     C36493   8.987   4.811   7.289 -0.5443 -0.3404  0.6114
  277MOL0     C36494   9.030   4.830   7.435  1.2321 -0.0266  0.0359
  277MOL0     C36495   9.159   4.764   7.445  0.2799  0.9406 -0.1814
  277MOL0     C36496   9.261   4.701   7.453 -0.5824 -0.6058 -0.5489
  277MOL0     C36497   8.646   5.106   7.070 -0.3702  0.6879 -0.1431
  277MOL0     C36498   8.580   5.203   7.006  0.4971 -0.2065 -0.1809
  277MOL0     H36499   8.160   5.459   6.919 -3.0145  0.2252 -2.4779
  277MOL0     H36500   8.051   5.652   6.881 -0.6082 -0.9780 -0.5076
  277MOL0     H36501   8.155   5.963   6.959 -1.1349  2.3726  0.7178
  277MOL0     H36502   8.012   5.882   6.920  3.0240 -1.6965 -0.5503
  277MOL0     H36503   8.116   6.153   6.791 -0.3568  1.1651  2.1360
  277MOL0     H36504   8.020   6.158   6.929  0.6070  0.6899  0.7929
  277MOL0     H36505   7.829   6.027   6.811 -0.2126 -0.0295  0.1127
  277MOL0     H36506   7.907   6.046   6.660 -3.6412 -0.1864  0.1800
  277MOL0     H36507   7.779   6.253   6.816  0.1883  0.7284 -0.1541
  277MOL0     H36508   7.935   6.302   6.763  1.7734 -2.1315 -0.1660
  277MOL0     H36509   7.693   6.200   6.582 -0.2327 -0.3559  0.9126
  277MOL0     H36510   7.859   6.228   6.527  0.2296  2.1231 -0.5078
  277MOL0     H36511   7.707   6.419   6.484 -0.9016 -1.8820  0.2188
  277MOL0     H36512   7.837   6.465   6.595  0.1767  0.3306 -2.4068
  277MOL0     H36513   7.535   6.440   6.648 -0.6706 -1.1388  2.3770
  277MOL0     H36514   7.641   6.417   6.783  3.0677  0.1557  0.0510
  277MOL0     H36515   7.559   6.625   6.765 -1.7438  2.5110 -2.7277
  277MOL0     H36516   7.650   6.673   6.625 -0.9726  0.7428  0.3623
  277MOL0     H36517   7.815   6.456   6.897 -2.3652  0.8209 -0.3291
  277MOL0     H36518   7.944   6.556   7.128 -2.3439 -2.1496 -1.1484
  277MOL0     H36519   8.088   6.643   7.079  2.0358 -2.7777 -1.0002
  277MOL0     H36520   8.117   6.466   6.907 -0.4412  0.0113 -0.3196
  277MOL0     H36521   8.016   6.368   7.028  1.2931 -0.8977  1.9747
  277MOL0     H36522   8.290   6.510   7.078 -0.0134 -1.5118 -1.7011
  277MOL0     H36523   8.184   6.444   7.199  0.7805  0.8866  0.2565
  277MOL0     H36524   8.190   6.228   7.097 -0.9974  1.1613  1.0042
  277MOL0     H36525   8.348   6.286   7.161 -1.3904 -0.6999 -0.2060
  277MOL0     H36526   8.532   6.241   6.793  1.0181 -2.7384 -1.8187
  277MOL0     H36527   8.668   6.050   6.758 -0.2835  2.7470 -1.5648
  277MOL0     H36528   8.894   5.654   6.803  0.3686 -0.7864  0.1119
  277MOL0     H36529   9.036   5.451   6.800  2.7678  1.0265  1.6144
  277MOL0     H36530   9.212   5.416   7.122 -2.6901  0.7277  1.4696
  277MOL0     H36531   9.236   5.410   6.942  1.9529 -0.5914  0.4016
  277MOL0     H36532   9.289   5.168   6.941 -0.4398  1.5996 -0.3224
  277MOL0     H36533   9.264   5.162   7.107 -0.7229 -2.9244 -2.7993
  277MOL0     H36534   9.494   5.184   7.084  2.9843  0.0973 -1.1129
  277MOL0     H36535   9.449   5.351   7.112 -2.4155 -0.4836  0.5249
  277MOL0     H36536   9.497   5.205   6.840 -1.8220  0.9352  0.2511
  277MOL0     H36537   9.468   5.384   6.862  0.1971  1.4608  0.6828
  277MOL0     H36538   9.719   5.239   6.962  0.2186 -0.2408 -0.1143
  277MOL0     H36539   9.673   5.407   6.969 -2.4344 -1.2377  1.6602
  277MOL0     H36540   9.638   5.368   6.694  2.2545  0.0393 -3.2188
  277MOL0     H36541   9.733   5.228   6.725 -3.2446  0.2890 -2.1433
  277MOL0     H36542   9.828   5.495   6.809  0.4822  1.0088 -1.0738
  277MOL0     H36543   9.909   5.334   6.820 -1.3564 -0.3909 -0.7648
  277MOL0     H36544   9.937   5.297   6.599 -1.6585 -0.6164  1.3673
  277MOL0     H36545   9.997   5.462   6.617 -1.8251  2.7227  0.6211
  277MOL0     H36546   8.908   5.365   7.205 -2.1066 -2.8992 -2.4948
  277MOL0     H36547   8.726   5.531   7.182  0.9636 -0.8513  0.9452
  277MOL0     H36548   8.520   5.872   7.116 -1.8074  0.9389  1.4860
  277MOL0     H36549   8.353   6.037   7.129 -1.1305  0.5445 -0.8055
  277MOL0     H36550   8.393   5.843   6.676 -3.2605  2.0022 -1.6486
  277MOL0     H36551   8.528   5.636   6.752 -0.5251  0.7488  0.3695
  277MOL0     H36552   8.398   5.026   6.783 -1.8082  0.9861  0.2471
  277MOL0     H36553   8.490   4.842   6.916 -0.6228  0.0302 -3.4018
  277MOL0     H36554   8.875   4.910   7.041 -0.4464  0.9062 -0.4846
  277MOL0     H36555   8.837   4.754   7.097 -0.3523  0.8997 -0.6162
  277MOL0     H36556   8.886   5.004   7.255  1.4414  0.1466  0.2453
  277MOL0     H36557   8.782   4.861   7.311 -1.6233  1.1039 -1.4666
  277MOL0     H36558   9.071   4.839   7.225 -0.5171 -0.3557  0.6394
  277MOL0     H36559   8.980   4.704   7.267 -2.3921  0.1342 -1.3802
  277MOL0     H36560   9.028   4.939   7.450 -0.1435 -0.0403  0.0600
  277MOL0     H36561   8.959   4.791   7.509 -1.5522 -0.4488 -2.6474
  277MOL0     H36562   9.354   4.649   7.457  1.0796  2.0097 -2.1116
  277MOL0     H36563   8.698   5.128   7.163  0.7800 -0.9155 -0.3641
  277MOL0     H36564   8.614   5.305   7.023 -3.3414  0.7833  3.1608
  278MOL0     O36565   7.522   0.364  10.836 -0.0185 -0.0756 -0.5036
  278MOL0     C36566   7.631   0.354  10.899  0.3035 -0.5386  0.6272
  278MOL0     O36567   7.649   0.273  11.010  0.4209 -0.1551  0.2584
  278MOL0     C36568   7.539   0.240  11.076  0.4017  0.2630 -0.6428
  278MOL0     C36569   7.542   0.255  11.211 -0.7526  0.8953 -0.1942
  278MOL0     C36570   7.433   0.234  11.287 -0.4012 -0.0083 -0.5801
  278MOL0     C36571   7.314   0.182  11.242 -0.4496  0.4220  0.4268
  278MOL0     O36572   7.203   0.173  11.330 -0.2688 -0.0678  0.6644
  278MOL0     C36573   7.075   0.231  11.275  0.2638 -0.8891  0.1562
  278MOL0     C36574   6.986   0.292  11.382  0.3018 -0.4798  0.2194
  278MOL0     C36575   6.932   0.179  11.471  0.6447  0.6873 -0.2425
  278MOL0     C36576   6.824   0.236  11.567 -0.5453 -0.0556 -0.3927
  278MOL0     C36577   6.678   0.210  11.539  0.9757  0.4048  0.6235
  278MOL0     C36578   6.652   0.060  11.530 -0.0509 -0.6850  0.6154
  278MOL0     C36579   6.505   0.013  11.540  0.1829 -0.0702  0.9317
  278MOL0     C36580   6.407   0.089  11.631  0.5394 -0.3968  1.0031
  278MOL0     N36581   6.272   0.042  11.597 -0.6145  0.1603 -0.5730
  278MOL0     C36582   6.160   0.114  11.623 -0.6340  0.3507  0.3507
  278MOL0     C36583   6.053   0.073  11.553 -0.0160 -0.0890 -0.3925
  278MOL0     C36584   5.904   0.121  11.548  0.7343 -0.4984  0.1630
  278MOL0     C36585   5.819   0.035  11.455  0.0623 -0.3291  0.3901
  278MOL0     C36586   5.676   0.094  11.440 -0.2762 -0.7869  0.4644
  278MOL0     C36587   5.584   0.079  11.564  0.5034 -0.4967 -0.4396
  278MOL0     O36588   5.450   0.105  11.513 -0.2728  0.0920 -0.0293
  278MOL0     C36589   5.345   0.088  11.603 -0.1910  0.2521  0.5629
  278MOL0     C36590   5.355   0.067  11.742 -0.1297  0.4659 -1.1609
  278MOL0     C36591   5.246   0.061  11.823  0.6305  1.0370  0.4209
  278MOL0     C36592   5.115   0.075  11.769 -0.3965  0.9251  0.8736
  278MOL0     C36593   5.001   0.098  11.849  0.1767  1.2181 -0.1785
  278MOL0     O36594   4.904   0.186  11.808  0.4231 -1.8930  0.4409
  278MOL0     C36595   4.793   0.219  11.883  0.8613  0.4516  0.5347
  278MOL0     C36596   4.791   0.342  11.944  0.4889 -1.5075  0.0256
  278MOL0     C36597   4.683   0.389  12.015 -0.0504  0.2494 -0.6653
  278MOL0     C36598   4.564   0.310  12.009 -0.3450 -0.0863 -0.6136
  278MOL0     O36599   4.452   0.345  12.068  0.5450  0.2730  0.4797
  278MOL0     C36600   4.439   0.468  12.131  0.1850  0.2126 -0.1108
  278MOL0     C36601   4.344   0.561  12.053  0.0818 -0.0346  0.2626
  278MOL0     C36602   4.196   0.521  12.068 -0.9518  0.5037 -0.8203
  278MOL0     C36603   4.105   0.622  12.000  0.0404 -0.0436 -0.0660
  278MOL0     C36604   4.060   0.742  12.091 -0.1807 -0.4692  0.2343
  278MOL0     C36605   4.002   0.713  12.233 -0.4319  0.7242  0.5464
  278MOL0     C36606   3.881   0.809  12.256 -0.0270  0.2869  0.1391
  278MOL0     C36607   3.824   0.781  12.394 -0.0590 -0.7053  0.2764
  278MOL0    Cl36608   3.759   0.608  12.426  0.2817 -0.1737  0.2083
  278MOL0     C36609   4.564   0.190  11.938 -0.5282 -0.0149 -1.0286
  278MOL0     C36610   4.673   0.142  11.876 -0.5954  0.6443  0.7821
  278MOL0     O36611   4.997   0.025  11.952 -0.2450 -0.4832 -0.0191
  278MOL0     C36612   5.103   0.092  11.630 -0.5558 -0.0635  1.3411
  278MOL0     C36613   5.216   0.093  11.547 -0.0901 -0.4654 -0.2881
  278MOL0     N36614   6.096  -0.024  11.475 -0.2151 -0.0199  1.1784
  278MOL0     N36615   6.222  -0.047  11.502 -0.2319  0.2986 -0.1829
  278MOL0     C36616   7.310   0.149  11.106 -0.9714  0.3830  1.0304
  278MOL0     C36617   7.423   0.177  11.023  0.5713  0.0239  0.5638
  278MOL0     C36618   7.737   0.433  10.843 -0.0363  0.7539  0.2401
  278MOL0     C36619   7.713   0.517  10.732  0.3152  1.0995 -0.0924
  278MOL0     C36620   7.806   0.612  10.695 -0.0977 -0.1366  0.4372
  278MOL0     C36621   7.933   0.620  10.769  0.7627  0.1953 -0.3206
  278MOL0     O36622   8.033   0.710  10.732  0.4014 -0.3977  0.3266
  278MOL0     C36623   8.049   0.762  10.603  0.3511 -0.4755 -0.4622
  278MOL0     C36624   8.171   0.838  10.577  0.5882 -0.4749 -0.2944
  278MOL0     C36625   8.277   0.727  10.529  0.8723 -0.7531  0.0703
  278MOL0     C36626   8.396   0.788  10.468 -0.8219 -0.3585 -0.0322
  278MOL0     C36627   8.483   0.683  10.413  0.5099  0.1931 -0.3387
  278MOL0     C36628   8.552   0.591  10.372 -0.6363 -0.5758 -0.4041
  278MOL0     C36629   7.950   0.539  10.882 -0.7250  0.5412 -0.1339
  278MOL0     C36630   7.851   0.451  10.925  0.0094  0.1597  0.0267
  278MOL0     H36631   7.631   0.305  11.248  0.2912 -0.6115 -0.5623
  278MOL0     H36632   7.457   0.260  11.390 -1.0772 -2.1550  0.1584
  278MOL0     H36633   7.024   0.153  11.217  3.4627 -1.6585 -1.8463
  278MOL0     H36634   7.094   0.311  11.203 -1.7592 -2.5929 -2.4761
  278MOL0     H36635   6.896   0.323  11.329  0.5173  0.3576  0.3387
  278MOL0     H36636   7.036   0.376  11.431  3.3374 -2.4996  0.8865
  278MOL0     H36637   7.010   0.129  11.529 -0.4334 -2.7116 -1.4797
  278MOL0     H36638   6.900   0.093  11.412 -1.0115  1.0290  0.0882
  278MOL0     H36639   6.838   0.193  11.666 -2.2812  0.4350  0.1018
  278MOL0     H36640   6.839   0.344  11.567  1.5856 -0.3024  1.2093
  278MOL0     H36641   6.645   0.264  11.450 -0.9661  0.7774  1.5001
  278MOL0     H36642   6.614   0.252  11.617 -0.5510 -0.6961  0.0161
  278MOL0     H36643   6.712   0.005  11.603  2.4311 -1.0923 -1.5938
  278MOL0     H36644   6.701   0.013  11.444 -0.1321 -2.5359  1.5249
  278MOL0     H36645   6.472   0.024  11.436  0.5881  2.0022  0.9814
  278MOL0     H36646   6.501  -0.093  11.568 -2.1577 -0.3759 -0.2789
  278MOL0     H36647   6.410   0.191  11.593  0.4222  0.4758  3.1678
  278MOL0     H36648   6.424   0.096  11.739  0.4484  0.9785  0.9437
  278MOL0     H36649   6.161   0.197  11.694 -0.2905  1.0400 -0.4460
  278MOL0     H36650   5.903   0.225  11.514 -4.7262  0.3078  1.8660
  278MOL0     H36651   5.871   0.118  11.653  2.5832  0.9873  0.8555
  278MOL0     H36652   5.804  -0.072  11.474 -1.5869 -0.2352 -0.2312
  278MOL0     H36653   5.866   0.033  11.356 -1.0647 -0.9553 -0.1523
  278MOL0     H36654   5.693   0.200  11.415 -1.3682 -0.2335  1.9446
  278MOL0     H36655   5.630   0.033  11.361  2.8538 -1.5974 -0.9004
  278MOL0     H36656   5.610   0.155  11.639 -0.3970  0.7917 -1.3940
  278MOL0     H36657   5.602  -0.021  11.604  0.1313 -1.1739 -1.9018
  278MOL0     H36658   5.451   0.071  11.791 -2.4494  2.7019  3.9111
  278MOL0     H36659   5.266   0.063  11.930  1.7306  2.4686  0.2306
  278MOL0     H36660   4.880   0.402  11.932 -1.5585  1.4921 -1.1885
  278MOL0     H36661   4.700   0.484  12.064  1.7451  1.1561 -2.8197
  278MOL0     H36662   4.531   0.515  12.166  0.8564 -0.0368 -1.4892
  278MOL0     H36663   4.396   0.455  12.231  0.6254 -0.1103  0.0420
  278MOL0     H36664   4.363   0.556  11.945 -0.9954 -1.6753  0.1097
  278MOL0     H36665   4.362   0.661  12.092 -0.1587  0.5678 -1.1166
  278MOL0     H36666   4.169   0.518  12.174  0.3831  0.0022 -0.4814
  278MOL0     H36667   4.174   0.424  12.023 -0.8876 -1.4955  3.0549
  278MOL0     H36668   4.150   0.657  11.906  0.1829 -0.8521 -0.3008
  278MOL0     H36669   4.012   0.572  11.969  1.4721 -2.6375 -0.3911
  278MOL0     H36670   3.990   0.806  12.037  0.9094  1.2553  0.7827
  278MOL0     H36671   4.148   0.801  12.116 -0.4005  0.1573 -0.4352
  278MOL0     H36672   4.080   0.720  12.309 -0.1438  0.4534  0.2764
  278MOL0     H36673   3.977   0.606  12.239  0.4248  0.5866  2.9164
  278MOL0     H36674   3.912   0.914  12.252  1.2178 -0.0963 -1.5569
  278MOL0     H36675   3.813   0.796  12.172  1.5836  0.3319 -1.2336
  278MOL0     H36676   3.746   0.852  12.423 -1.1336 -1.2524 -1.1220
  278MOL0     H36677   3.903   0.801  12.467  0.7396  0.7066 -0.8985
  278MOL0     H36678   4.471   0.134  11.936 -0.5952  0.1002 -1.1343
  278MOL0     H36679   4.669   0.047  11.823  1.5445 -1.2181  3.6040
  278MOL0     H36680   5.007   0.098  11.579 -0.4845 -1.4581  1.0165
  278MOL0     H36681   5.201   0.107  11.440 -0.2641  1.8363 -0.0254
  278MOL0     H36682   7.230   0.094  11.059 -1.1694  2.7155 -1.6518
  278MOL0     H36683   7.429   0.130  10.925 -0.4591 -0.3926  0.6885
  278MOL0     H36684   7.623   0.529  10.673  1.3001  0.3700 -1.8150
  278MOL0     H36685   7.777   0.675  10.612 -3.0568 -1.7913  0.0838
  278MOL0     H36686   7.968   0.833  10.585  1.3459  1.0170  0.6887
  278MOL0     H36687   8.034   0.690  10.522 -0.3499  1.8836 -2.5715
  278MOL0     H36688   8.131   0.909  10.505 -2.8288 -0.7012  1.2141
  278MOL0     H36689   8.201   0.897  10.664 -0.1592 -0.8663  0.2331
  278MOL0     H36690   8.232   0.663  10.453  1.5784  0.4306 -1.3895
  278MOL0     H36691   8.299   0.668  10.619  0.4435 -1.8849 -0.5454
  278MOL0     H36692   8.366   0.841  10.377 -2.9608  0.9021  1.3085
  278MOL0     H36693   8.446   0.854  10.540 -2.8382 -1.7646  2.8523
  278MOL0     H36694   8.602   0.506  10.329 -2.3610 -1.8616  0.0543
  278MOL0     H36695   8.044   0.540  10.936 -0.8388  0.3566  0.0690
  278MOL0     H36696   7.873   0.410  11.023 -0.6024  1.4314  0.7331
  279MOL0     O36697   2.280   7.192   0.140 -0.5109 -0.5926  0.4016
  279MOL0     C36698   2.178   7.155   0.080 -0.5720 -0.1376  1.4220
  279MOL0     O36699   2.144   7.019   0.059 -0.2653 -0.0653  0.7076
  279MOL0     C36700   2.239   6.927   0.101 -0.9969 -0.0537  0.5604
  279MOL0     C36701   2.354   6.897   0.022 -0.2080 -0.8191  0.7077
  279MOL0     C36702   2.447   6.801   0.060 -0.2055 -0.0813  0.0918
  279MOL0     C36703   2.439   6.734   0.185  0.9007  0.1721  1.1065
  279MOL0     O36704   2.536   6.648   0.224 -0.3971  0.9755 -0.4113
  279MOL0     C36705   2.551   6.607   0.360 -0.1497 -0.8666 -0.4780
  279MOL0     C36706   2.701   6.576   0.385 -0.1458  0.5023  0.0539
  279MOL0     C36707   2.740   6.449   0.316 -0.4773  0.3602  0.2238
  279MOL0     C36708   2.882   6.407   0.364  0.3538 -0.1366 -0.1186
  279MOL0     C36709   2.927   6.271   0.295  0.5243 -1.5109 -0.6366
  279MOL0     C36710   2.876   6.152   0.369  0.2120  0.0934  0.3089
  279MOL0     C36711   2.893   6.028   0.280 -0.1484  0.0055  0.4792
  279MOL0     C36712   2.811   5.908   0.348 -0.7556  0.1956  0.5950
  279MOL0     N36713   2.667   5.930   0.344 -0.0963 -0.0648 -1.2018
  279MOL0     C36714   2.580   5.922   0.238 -0.3998 -0.1522 -0.1093
  279MOL0     C36715   2.460   5.924   0.294  0.3532  0.3787  0.0629
  279MOL0     C36716   2.336   5.884   0.222 -0.2761 -0.5692  0.6780
  279MOL0     C36717   2.280   5.744   0.271  0.3189  0.1747 -0.1991
  279MOL0     C36718   2.144   5.724   0.202  0.0848  1.0290  0.3441
  279MOL0     C36719   2.034   5.811   0.252  0.0541  1.3786  0.3242
  279MOL0     O36720   1.916   5.780   0.181  0.0087 -0.8551 -0.4108
  279MOL0     C36721   1.802   5.769   0.257  0.5589  0.0024  0.0364
  279MOL0     C36722   1.773   5.853   0.371  0.6967  0.1313 -0.0994
  279MOL0     C36723   1.639   5.872   0.417  0.3286  0.8086  1.0962
  279MOL0     C36724   1.541   5.792   0.367  0.4242  0.0337 -0.3258
  279MOL0     C36725   1.400   5.799   0.427 -0.2523  0.9105  0.3068
  279MOL0     O36726   1.303   5.725   0.368  0.5337 -0.2331 -0.6202
  279MOL0     C36727   1.171   5.738   0.397  0.3312  0.1338  0.3411
  279MOL0     C36728   1.124   5.727   0.529 -0.0386 -0.0164 -0.1534
  279MOL0     C36729   0.990   5.753   0.558 -0.6136 -0.4396  0.7313
  279MOL0     C36730   0.907   5.791   0.452  0.1865  0.3256 -0.1749
  279MOL0     O36731   0.771   5.807   0.471 -1.1918  0.4661  0.6158
  279MOL0     C36732   0.716   5.795   0.596  0.6301  0.7503 -0.3342
  279MOL0     C36733   0.565   5.821   0.600  0.1254 -0.2856  0.5750
  279MOL0     C36734   0.481   5.718   0.519  0.0469 -0.5887  0.1950
  279MOL0     C36735   0.337   5.777   0.500  0.0825 -0.6218  0.1468
  279MOL0     C36736   0.244   5.696   0.412  0.2344 -0.2819  0.7775
  279MOL0     C36737   0.122   5.779   0.362  0.1137  0.7443  0.8340
  279MOL0     C36738   0.024   5.701   0.270 -0.5446  0.3245 -0.1504
  279MOL0     C36739   0.037   5.766   0.130 -0.1949  0.8668 -0.4645
  279MOL0    Cl36740   0.197   5.720   0.063  0.1826 -0.3334  0.1718
  279MOL0     C36741   0.957   5.788   0.321 -0.2282  0.8247  0.4385
  279MOL0     C36742   1.089   5.765   0.294 -0.4416  0.6380  0.0752
  279MOL0     O36743   1.395   5.885   0.518  0.2372  0.0448  0.2136
  279MOL0     C36744   1.571   5.713   0.262  0.4195  0.2495 -0.1507
  279MOL0     C36745   1.692   5.697   0.206 -0.4135  0.5903 -0.2903
  279MOL0     N36746   2.474   5.952   0.425 -0.4126  0.4686 -0.4905
  279MOL0     N36747   2.597   5.951   0.457  0.1034  0.3174 -0.4409
  279MOL0     C36748   2.330   6.759   0.257  0.0214 -0.5425 -0.7868
  279MOL0     C36749   2.237   6.862   0.221  0.0842  0.5803 -0.8879
  279MOL0     C36750   2.089   7.261   0.034  0.0959 -0.2252  0.1806
  279MOL0     C36751   2.024   7.246  -0.093 -0.0843 -0.4554  0.7504
  279MOL0     C36752   1.948   7.347  -0.148  0.3826  0.1321  0.7493
  279MOL0     C36753   1.935   7.468  -0.077 -0.3271 -0.0580 -0.3479
  279MOL0     O36754   1.853   7.566  -0.134 -0.9551 -0.6682 -0.0080
  279MOL0     C36755   1.834   7.692  -0.063  0.0732 -0.7499 -0.1831
  279MOL0     C36756   1.763   7.791  -0.150 -0.6111 -0.3132  0.6081
  279MOL0     C36757   1.735   7.916  -0.057 -0.4918 -0.4958  0.3661
  279MOL0     C36758   1.675   8.024  -0.143  0.0311  0.8594 -0.4029
  279MOL0     C36759   1.530   7.999  -0.160  0.0971  0.4984  0.0093
  279MOL0     C36760   1.410   7.974  -0.182 -0.8012  0.5067 -0.0275
  279MOL0     C36761   1.984   7.478   0.049 -1.1900  0.5485 -0.2350
  279MOL0     C36762   2.061   7.376   0.101  1.3717 -0.7409 -0.7014
  279MOL0     H36763   2.366   6.955  -0.068  1.2274  0.6328  1.7714
  279MOL0     H36764   2.532   6.785  -0.006  0.2110  2.4507 -0.1077
  279MOL0     H36765   2.492   6.518   0.384 -2.5920  1.1439  1.6585
  279MOL0     H36766   2.515   6.684   0.429 -1.6805 -1.3215 -0.7142
  279MOL0     H36767   2.713   6.572   0.493 -2.0602 -1.0299  0.2515
  279MOL0     H36768   2.769   6.659   0.362  0.1904  1.0981  2.8982
  279MOL0     H36769   2.735   6.454   0.207 -4.5100 -0.0046  0.2548
  279MOL0     H36770   2.676   6.368   0.351  1.1692 -0.3487  1.7342
  279MOL0     H36771   2.954   6.483   0.330 -3.4389  2.9907 -1.9850
  279MOL0     H36772   2.898   6.404   0.472  2.7565 -0.2755 -0.4083
  279MOL0     H36773   3.036   6.269   0.291  0.8163  1.3168  1.8097
  279MOL0     H36774   2.899   6.270   0.189  0.1756  1.9257 -0.6907
  279MOL0     H36775   2.769   6.162   0.387  0.3231  2.4691 -0.0318
  279MOL0     H36776   2.926   6.148   0.467 -0.5772  0.2412  0.7228
  279MOL0     H36777   2.867   6.036   0.174  1.1795  1.4354  0.2297
  279MOL0     H36778   3.001   6.011   0.275 -0.0615  0.8023 -0.7504
  279MOL0     H36779   2.849   5.900   0.450 -2.8708  0.9703  1.4942
  279MOL0     H36780   2.829   5.816   0.291  0.3515  1.4871 -1.2560
  279MOL0     H36781   2.604   5.904   0.133 -0.9349 -4.6640  0.3126
  279MOL0     H36782   2.358   5.898   0.116 -0.1321  0.1608  0.7964
  279MOL0     H36783   2.272   5.967   0.254  1.3522  0.7025  0.7693
  279MOL0     H36784   2.258   5.742   0.378 -4.6468  1.4389 -0.9404
  279MOL0     H36785   2.359   5.675   0.240  1.2443  1.4568 -0.7685
  279MOL0     H36786   2.168   5.727   0.095  2.5586  0.7031  0.8302
  279MOL0     H36787   2.115   5.619   0.204  3.8009 -0.2405 -2.0561
  279MOL0     H36788   2.052   5.918   0.233 -1.1844  1.3902 -0.9902
  279MOL0     H36789   2.021   5.795   0.359 -0.8083  0.6552  0.1258
  279MOL0     H36790   1.857   5.906   0.415  0.9332 -1.3109  1.2682
  279MOL0     H36791   1.619   5.948   0.492  3.3738  0.4828  2.4063
  279MOL0     H36792   1.194   5.694   0.606 -1.3563 -3.0138 -0.1080
  279MOL0     H36793   0.961   5.735   0.661  1.9741 -3.4656  1.0897
  279MOL0     H36794   0.768   5.867   0.661 -2.9243  3.4250 -0.1275
  279MOL0     H36795   0.730   5.690   0.623  0.6125  0.1213 -2.6164
  279MOL0     H36796   0.551   5.923   0.564 -0.7742 -1.1407 -1.6580
  279MOL0     H36797   0.528   5.821   0.703  1.1926  0.3853  0.9781
  279MOL0     H36798   0.480   5.622   0.572  0.3609 -0.9243 -0.4021
  279MOL0     H36799   0.540   5.715   0.427 -2.7050  2.6943 -1.9805
  279MOL0     H36800   0.289   5.793   0.597  0.0845  0.0220  0.0431
  279MOL0     H36801   0.360   5.876   0.460 -1.1047  0.1239  1.2254
  279MOL0     H36802   0.220   5.607   0.470  0.5007  0.9042  2.8171
  279MOL0     H36803   0.300   5.665   0.323  0.4896  1.5495  0.2546
  279MOL0     H36804   0.151   5.873   0.314 -2.0428 -0.5502 -3.5528
  279MOL0     H36805   0.059   5.812   0.446  0.5159  4.3276 -0.1184
  279MOL0     H36806   0.072   5.603   0.264  0.6922  0.8781  0.3766
  279MOL0     H36807  -0.079   5.696   0.307 -0.7467 -3.4173 -0.8769
  279MOL0     H36808   0.044   5.875   0.125 -0.8922  0.9541  0.2796
  279MOL0     H36809  -0.040   5.733   0.060 -0.1441  3.4559 -1.8785
  279MOL0     H36810   0.899   5.814   0.233 -0.7247 -2.6056 -0.3930
  279MOL0     H36811   1.123   5.765   0.191  0.6137 -0.1259  0.4117
  279MOL0     H36812   1.485   5.664   0.217 -0.1448 -0.9838  2.0796
  279MOL0     H36813   1.712   5.650   0.110  0.1560  3.7147 -1.8292
  279MOL0     H36814   2.309   6.712   0.352 -1.9181  0.9601 -0.4174
  279MOL0     H36815   2.159   6.886   0.292  0.4921 -0.8964  0.1074
  279MOL0     H36816   2.019   7.152  -0.147  0.2465 -0.5163  0.8213
  279MOL0     H36817   1.896   7.343  -0.243 -0.9818  1.0245  1.4079
  279MOL0     H36818   1.921   7.744  -0.021  1.7189 -2.1383 -1.7565
  279MOL0     H36819   1.781   7.675   0.031 -1.0175  0.1738 -0.6049
  279MOL0     H36820   1.828   7.802  -0.237  1.2325 -2.1255  1.6565
  279MOL0     H36821   1.671   7.741  -0.182 -2.3414  2.4499  0.9583
  279MOL0     H36822   1.823   7.952  -0.003 -0.1658  1.2197 -1.2139
  279MOL0     H36823   1.675   7.894   0.031  0.7342 -1.4048  1.0062
  279MOL0     H36824   1.690   8.119  -0.092 -1.5735  1.4540 -0.9819
  279MOL0     H36825   1.718   8.044  -0.241 -1.0287  0.1301 -1.0429
  279MOL0     H36826   1.305   7.971  -0.203 -0.2861 -0.3088 -2.9518
  279MOL0     H36827   1.977   7.572   0.103  4.0566  0.9649  0.2515
  279MOL0     H36828   2.104   7.396   0.199 -1.2524  1.3901  0.1258
  280MOL0     O36829   6.724   3.521   1.409  0.5494 -0.1947  0.8920
  280MOL0     C36830   6.759   3.616   1.339 -1.2318  0.1146 -0.2538
  280MOL0     O36831   6.678   3.686   1.248 -0.2507 -0.5599 -0.8513
  280MOL0     C36832   6.545   3.699   1.255  0.3355 -0.1483  0.0006
  280MOL0     C36833   6.521   3.790   1.163  0.2842 -0.8748 -0.1523
  280MOL0     C36834   6.390   3.836   1.136 -0.9451  0.1158  0.0735
  280MOL0     C36835   6.285   3.764   1.201 -0.8806 -0.3689 -0.4634
  280MOL0     O36836   6.158   3.781   1.160  0.4691 -0.2189  0.0462
  280MOL0     C36837   6.051   3.696   1.209  1.1881  0.4490  0.1555
  280MOL0     C36838   5.988   3.736   1.342 -0.7356 -0.2010  0.5820
  280MOL0     C36839   5.917   3.867   1.316 -0.2254  0.8170  0.1469
  280MOL0     C36840   5.786   3.888   1.393 -0.0891 -0.2565 -0.3829
  280MOL0     C36841   5.705   4.013   1.360  0.1048 -0.2267 -0.3637
  280MOL0     C36842   5.650   4.006   1.214  0.4363  0.2006  0.6535
  280MOL0     C36843   5.561   4.130   1.183  0.3967 -0.3295  0.5180
  280MOL0     C36844   5.417   4.088   1.204 -0.5926 -0.2180 -0.5207
  280MOL0     N36845   5.327   4.200   1.243 -0.1324  0.1995  0.8314
  280MOL0     C36846   5.279   4.296   1.159  0.0522 -0.6197 -0.5287
  280MOL0     C36847   5.182   4.362   1.233 -0.1947 -0.7384  0.3096
  280MOL0     C36848   5.085   4.468   1.181  0.4517 -0.3558 -0.7353
  280MOL0     C36849   4.970   4.394   1.116 -0.1977  1.3774  0.1122
  280MOL0     C36850   4.851   4.477   1.070  0.3947 -0.0093  0.0882
  280MOL0     C36851   4.785   4.562   1.179 -0.1193 -0.5771 -0.3183
  280MOL0     O36852   4.666   4.637   1.125  0.0028  0.3314  0.1338
  280MOL0     C36853   4.539   4.590   1.157 -0.8246 -0.3560  0.3077
  280MOL0     C36854   4.441   4.688   1.168 -0.0585  0.1722 -0.7618
  280MOL0     C36855   4.309   4.656   1.205 -0.3754 -0.3030 -0.2207
  280MOL0     C36856   4.282   4.520   1.236  0.3827  0.2925 -0.0304
  280MOL0     C36857   4.141   4.473   1.251  0.6915  0.5301  0.3513
  280MOL0     O36858   4.114   4.337   1.237 -0.5866 -0.8067  0.4965
  280MOL0     C36859   3.979   4.292   1.249 -0.3476 -0.3292  0.0841
  280MOL0     C36860   3.934   4.197   1.156 -0.1797  0.9501 -0.5258
  280MOL0     C36861   3.806   4.147   1.160  0.2232 -0.6365 -0.9789
  280MOL0     C36862   3.711   4.188   1.263 -0.3155  0.0895 -0.8145
  280MOL0     O36863   3.584   4.136   1.273 -0.1760  0.2302  0.3876
  280MOL0     C36864   3.490   4.219   1.212  0.3903  0.0137  0.8943
  280MOL0     C36865   3.366   4.150   1.249  0.3184 -0.5791 -0.1728
  280MOL0     C36866   3.320   4.198   1.389 -0.1517 -0.0354 -0.8904
  280MOL0     C36867   3.167   4.176   1.424 -0.6395 -0.5779  0.3407
  280MOL0     C36868   3.079   4.298   1.385  0.0676  0.0501  0.4420
  280MOL0     C36869   2.935   4.281   1.436 -0.5191 -0.8558  0.4696
  280MOL0     C36870   2.929   4.287   1.587 -0.6290 -0.0900 -0.7816
  280MOL0     C36871   2.782   4.259   1.631 -0.1350 -0.1026  0.5675
  280MOL0    Cl36872   2.658   4.382   1.600  0.0751  0.3325 -0.0641
  280MOL0     C36873   3.753   4.278   1.364  0.3377  0.1701  0.3653
  280MOL0     C36874   3.889   4.326   1.352 -0.1501  0.6251 -0.7337
  280MOL0     O36875   4.051   4.561   1.274 -0.2317  0.1955 -0.1827
  280MOL0     C36876   4.383   4.424   1.228  1.0941  0.6441 -0.1510
  280MOL0     C36877   4.510   4.453   1.183  0.2196  0.3672 -1.1877
  280MOL0     N36878   5.177   4.311   1.363 -1.0966 -0.4808 -0.1405
  280MOL0     N36879   5.259   4.212   1.370 -0.8052  0.2704 -0.5838
  280MOL0     C36880   6.320   3.687   1.313 -0.1972 -0.5742 -0.4410
  280MOL0     C36881   6.453   3.652   1.345  1.1840 -0.9400  0.4667
  280MOL0     C36882   6.903   3.634   1.324  0.1112  0.8618  1.0312
  280MOL0     C36883   6.957   3.733   1.240  1.3426 -1.0326  0.3873
  280MOL0     C36884   7.090   3.761   1.219  0.0048  0.6500  0.1973
  280MOL0     C36885   7.179   3.683   1.285  0.0534  0.1739  0.1188
  280MOL0     O36886   7.313   3.698   1.256  0.4575  0.1244 -0.4899
  280MOL0     C36887   7.413   3.662   1.351 -0.3277  0.1454  0.6598
  280MOL0     C36888   7.549   3.728   1.328  0.0473 -0.8163 -1.0335
  280MOL0     C36889   7.614   3.698   1.198 -0.9460 -0.4021 -0.1274
  280MOL0     C36890   7.720   3.797   1.147  0.4883  0.4487  0.9452
  280MOL0     C36891   7.770   3.747   1.019  0.0126 -0.3500  0.9377
  280MOL0     C36892   7.826   3.723   0.916 -0.0282  0.1864 -0.1076
  280MOL0     C36893   7.137   3.584   1.371 -0.3844  0.1457 -0.7687
  280MOL0     C36894   6.996   3.550   1.387 -0.6863 -0.5070 -0.7270
  280MOL0     H36895   6.601   3.831   1.102 -1.2901  3.2520  0.2224
  280MOL0     H36896   6.365   3.917   1.068 -1.2511  1.0553  1.2602
  280MOL0     H36897   6.083   3.591   1.208 -1.1144 -0.3402  1.2985
  280MOL0     H36898   5.971   3.697   1.134  0.9834  2.2457  0.3551
  280MOL0     H36899   6.056   3.747   1.426 -1.9148  0.3114  1.5110
  280MOL0     H36900   5.911   3.662   1.366 -1.6569  0.3947 -0.4145
  280MOL0     H36901   5.892   3.872   1.209 -0.5545  0.6877  0.2159
  280MOL0     H36902   5.984   3.950   1.341  0.1924  0.5037  0.0722
  280MOL0     H36903   5.723   3.800   1.380  0.6350 -0.8859  0.2276
  280MOL0     H36904   5.797   3.883   1.501 -2.5629 -3.3398 -0.1482
  280MOL0     H36905   5.768   4.101   1.365  0.2637 -0.4181  1.6203
  280MOL0     H36906   5.626   4.018   1.436  0.6005  2.0114  0.0642
  280MOL0     H36907   5.599   3.913   1.189 -2.0378  1.5429  0.4038
  280MOL0     H36908   5.735   4.021   1.147  1.9672 -2.2523  1.9114
  280MOL0     H36909   5.595   4.213   1.246  0.6523 -0.0491  0.0158
  280MOL0     H36910   5.579   4.155   1.079 -0.3384  0.5898  0.5922
  280MOL0     H36911   5.410   4.018   1.287 -1.4330  0.9994  0.4837
  280MOL0     H36912   5.381   4.042   1.111 -0.8935 -1.5609  0.2375
  280MOL0     H36913   5.308   4.319   1.057  2.2686  1.5918  0.4596
  280MOL0     H36914   5.139   4.527   1.106 -0.3756 -0.5979 -1.5417
  280MOL0     H36915   5.039   4.524   1.263  0.0000 -0.9188 -0.5955
  280MOL0     H36916   4.941   4.325   1.195 -1.1988  1.2877 -0.3200
  280MOL0     H36917   5.002   4.320   1.041  0.6160  2.0657 -0.2407
  280MOL0     H36918   4.885   4.550   0.996  2.5469 -0.9642  0.0470
  280MOL0     H36919   4.779   4.409   1.022  0.5472  0.5724 -1.0004
  280MOL0     H36920   4.852   4.644   1.204 -3.6710  2.2609  0.7188
  280MOL0     H36921   4.766   4.507   1.272  0.3243  0.6625  0.5282
  280MOL0     H36922   4.453   4.794   1.147 -0.3484  0.5527  0.8549
  280MOL0     H36923   4.247   4.743   1.221 -1.2531 -1.1331  1.0455
  280MOL0     H36924   4.012   4.165   1.089  1.1772 -1.7432  2.1143
  280MOL0     H36925   3.783   4.070   1.087  0.9547  0.5319 -2.5016
  280MOL0     H36926   3.489   4.214   1.103 -1.1208 -0.3880  0.8917
  280MOL0     H36927   3.502   4.323   1.242  0.5406  0.7065 -1.3720
  280MOL0     H36928   3.363   4.041   1.252 -1.4545 -0.5543 -0.0214
  280MOL0     H36929   3.296   4.185   1.173 -0.2093  0.4022  0.7456
  280MOL0     H36930   3.346   4.303   1.407  0.3930 -0.3516  0.2721
  280MOL0     H36931   3.382   4.143   1.461 -0.4446  0.9409  0.1367
  280MOL0     H36932   3.122   4.093   1.369  3.0454 -1.3862 -1.7720
  280MOL0     H36933   3.161   4.177   1.533 -0.4861  1.9449  0.3940
  280MOL0     H36934   3.084   4.313   1.277 -3.8289 -0.4217  0.0703
  280MOL0     H36935   3.129   4.385   1.430  1.3536 -0.8688  0.8700
  280MOL0     H36936   2.898   4.186   1.396 -2.5020  0.3244 -0.6434
  280MOL0     H36937   2.873   4.357   1.388 -0.3986  0.3066  2.0761
  280MOL0     H36938   2.998   4.216   1.635  0.5003 -0.9845 -3.5495
  280MOL0     H36939   2.959   4.390   1.610  4.2319 -1.0461 -1.7145
  280MOL0     H36940   2.785   4.239   1.739  1.1245 -0.5300  0.4785
  280MOL0     H36941   2.749   4.166   1.582 -0.7033  1.0865 -1.4035
  280MOL0     H36942   3.680   4.287   1.444 -2.2164  0.3104 -1.8340
  280MOL0     H36943   3.919   4.375   1.444 -0.1454 -1.3761  0.3984
  280MOL0     H36944   4.373   4.319   1.256  2.0964  0.6765  0.4157
  280MOL0     H36945   4.578   4.368   1.190 -1.6131 -1.0455  1.8493
  280MOL0     H36946   6.241   3.625   1.355 -0.3686 -0.4730 -0.6084
  280MOL0     H36947   6.480   3.587   1.427  1.8996 -0.3702  0.6928
  280MOL0     H36948   6.883   3.783   1.179 -1.3743 -4.3607  0.6967
  280MOL0     H36949   7.116   3.843   1.153  0.7037  1.2975  1.2568
  280MOL0     H36950   7.426   3.554   1.361  3.7397  0.3330 -0.6366
  280MOL0     H36951   7.387   3.699   1.451 -1.7669  2.2233 -0.4282
  280MOL0     H36952   7.552   3.835   1.347 -0.2754 -0.8967 -0.4944
  280MOL0     H36953   7.618   3.692   1.405  0.0708  1.6991  0.2162
  280MOL0     H36954   7.533   3.686   1.125 -0.8523  0.1194 -0.3204
  280MOL0     H36955   7.657   3.598   1.202  1.2282  0.4877 -0.0889
  280MOL0     H36956   7.675   3.894   1.126 -4.8508 -1.8984 -0.0877
  280MOL0     H36957   7.799   3.798   1.224 -0.3076 -1.2805  1.8331
  280MOL0     H36958   7.874   3.694   0.824  1.2187 -0.6867  0.7881
  280MOL0     H36959   7.204   3.508   1.410  1.7500  1.8211 -1.0006
  280MOL0     H36960   6.967   3.477   1.461 -0.0826 -0.3362 -0.3169
  281MOL0     O36961   4.534  10.503   9.200  0.3133 -0.1649 -0.2738
  281MOL0     C36962   4.551  10.615   9.246 -0.0253 -0.0808 -0.0712
  281MOL0     O36963   4.466  10.685   9.321 -0.4025  0.6247  0.2230
  281MOL0     C36964   4.352  10.626   9.381 -0.3627  0.1898 -1.0515
  281MOL0     C36965   4.318  10.663   9.524 -0.3948  0.2115  0.0509
  281MOL0     C36966   4.194  10.617   9.571 -0.0074 -0.5696 -0.0276
  281MOL0     C36967   4.100  10.550   9.488 -0.1001  0.2380 -0.2194
  281MOL0     O36968   3.974  10.514   9.526  0.5746  0.2183  0.1046
  281MOL0     C36969   3.928  10.543   9.661 -0.0847 -0.0269 -0.2626
  281MOL0     C36970   3.775  10.509   9.655 -0.2662 -0.5294 -0.8668
  281MOL0     C36971   3.717  10.475   9.788  0.5486 -0.4027 -0.4996
  281MOL0     C36972   3.557  10.481   9.787 -0.2931 -0.2216 -0.2687
  281MOL0     C36973   3.499  10.493   9.927  0.6096  0.6661  0.0862
  281MOL0     C36974   3.351  10.448   9.910 -0.0640  0.7274 -0.1538
  281MOL0     C36975   3.270  10.505  10.028  0.7873  0.5987 -0.1368
  281MOL0     C36976   3.130  10.435  10.015 -0.2012  0.4459 -0.1568
  281MOL0     N36977   3.059  10.449  10.141 -0.0580 -0.0360  0.6150
  281MOL0     C36978   3.024  10.341  10.214  0.2871 -0.5358 -0.5443
  281MOL0     C36979   2.946  10.398  10.305 -0.2642 -0.8505  0.0589
  281MOL0     C36980   2.885  10.326  10.424  0.2064 -0.1936 -0.1950
  281MOL0     C36981   2.729  10.368  10.447  1.0497 -0.2507  0.2019
  281MOL0     C36982   2.632  10.279  10.361  0.7200 -0.0069 -0.0541
  281MOL0     C36983   2.505  10.254  10.447  0.5914 -0.1689  0.4214
  281MOL0     O36984   2.399  10.208  10.366  0.6406 -0.0583  0.2581
  281MOL0     C36985   2.290  10.153  10.425 -0.1607  0.8055  0.0552
  281MOL0     C36986   2.281  10.127  10.565  0.4012  0.5385 -0.9795
  281MOL0     C36987   2.164  10.064  10.626 -0.7871  0.4873  0.2047
  281MOL0     C36988   2.058  10.024  10.545 -0.2793  0.1723  0.7187
  281MOL0     C36989   1.941   9.946  10.602  0.2399  1.0613  1.1703
  281MOL0     O36990   1.954   9.881  10.722 -0.2694  1.1070 -0.4843
  281MOL0     C36991   1.848   9.815  10.763  0.1472  0.8093  0.1474
  281MOL0     C36992   1.823   9.677  10.712 -0.7911  0.5516  0.8379
  281MOL0     C36993   1.730   9.591  10.770  0.1398  0.9214 -1.4582
  281MOL0     C36994   1.647   9.639  10.878  0.4245  0.4875  0.0158
  281MOL0     O36995   1.563   9.549  10.938 -0.1593  0.1567  0.6791
  281MOL0     C36996   1.434   9.598  10.978  0.7074  0.8142  0.4748
  281MOL0     C36997   1.331   9.491  10.986 -0.0596  1.4521  0.7178
  281MOL0     C36998   1.188   9.552  10.992 -0.6868 -0.7372  0.2438
  281MOL0     C36999   1.080   9.447  11.018 -0.4947 -0.0062 -0.4989
  281MOL0     C37000   0.940   9.512  10.993 -0.7707  0.2400 -0.7260
  281MOL0     C37001   0.825   9.412  10.982 -0.0951 -0.1633  0.0198
  281MOL0     C37002   0.801   9.331  11.113  0.1751  0.5160 -0.1619
  281MOL0     C37003   0.715   9.206  11.089  0.4373 -0.4893  0.5601
  281MOL0    Cl37004   0.539   9.258  11.059  0.3059 -0.1937 -0.2824
  281MOL0     C37005   1.656   9.774  10.917 -0.1688  0.7275 -0.3154
  281MOL0     C37006   1.762   9.856  10.868  0.4152  0.5940 -0.1337
  281MOL0     O37007   1.843   9.942  10.522 -0.2493 -0.3508  0.0923
  281MOL0     C37008   2.070  10.051  10.404 -0.2740  0.1949  0.6720
  281MOL0     C37009   2.183  10.111  10.346  0.1246  0.7844 -0.3334
  281MOL0     N37010   2.933  10.535  10.280  1.0542 -0.5620 -0.3285
  281MOL0     N37011   3.004  10.566  10.178  0.5699  0.9505 -1.2009
  281MOL0     C37012   4.136  10.521   9.358 -1.0457  0.8519  0.7905
  281MOL0     C37013   4.260  10.556   9.307 -0.1339  1.3227  0.9171
  281MOL0     C37014   4.681  10.678   9.208  0.1239 -0.3519 -0.4171
  281MOL0     C37015   4.752  10.651   9.092 -0.9802  0.0866  0.2975
  281MOL0     C37016   4.867  10.718   9.069 -0.9418 -0.0705 -0.2632
  281MOL0     C37017   4.924  10.813   9.151 -1.0631 -0.1604 -0.4051
  281MOL0     O37018   5.047  10.861   9.120 -1.2411 -0.5723 -0.1427
  281MOL0     C37019   5.107  10.966   9.202 -0.1176  0.7203  0.2263
  281MOL0     C37020   5.239  11.034   9.158 -0.0928 -0.0813  0.1314
  281MOL0     C37021   5.299  11.138   9.263 -0.3317 -0.3900 -0.8846
  281MOL0     C37022   5.202  11.252   9.309  0.3957 -0.2236  0.3574
  281MOL0     C37023   5.115  11.224   9.424 -0.3861  0.5961 -0.5431
  281MOL0     C37024   5.047  11.205   9.521  0.7660  0.0419 -0.5529
  281MOL0     C37025   4.848  10.844   9.269  0.2057  0.1674  0.4542
  281MOL0     C37026   4.726  10.782   9.284  0.2251 -0.9043  1.0207
  281MOL0     H37027   4.388  10.704   9.595 -1.7019 -1.6799  2.5636
  281MOL0     H37028   4.163  10.650   9.670 -0.6616 -0.7971 -0.1538
  281MOL0     H37029   3.960  10.640   9.700  2.7338 -1.6129  1.7514
  281MOL0     H37030   3.972  10.472   9.732  0.3490  0.0400 -0.4601
  281MOL0     H37031   3.752  10.424   9.590  1.6704 -1.8660  0.1235
  281MOL0     H37032   3.719  10.595   9.615  1.0993 -0.2897 -2.3894
  281MOL0     H37033   3.747  10.553   9.858 -0.9274  1.7155 -2.1032
  281MOL0     H37034   3.769  10.384   9.820  0.6235 -0.9843 -2.2021
  281MOL0     H37035   3.517  10.562   9.726 -0.3114 -0.5560 -0.6984
  281MOL0     H37036   3.538  10.385   9.738  0.5352  0.9655 -3.0682
  281MOL0     H37037   3.512  10.591   9.972 -0.5676  1.6732 -1.6317
  281MOL0     H37038   3.542  10.424  10.001 -1.4645 -1.3136 -0.4187
  281MOL0     H37039   3.344  10.341   9.892 -1.7484  1.0907 -2.0165
  281MOL0     H37040   3.311  10.489   9.817 -2.0313  0.7730  0.6656
  281MOL0     H37041   3.321  10.466  10.116  2.7038 -0.5318 -1.6937
  281MOL0     H37042   3.271  10.614  10.036  0.1008  0.4967  1.9970
  281MOL0     H37043   3.154  10.329  10.005 -0.9737  0.2331  0.1525
  281MOL0     H37044   3.060  10.471   9.938 -1.0802 -0.5160  0.1693
  281MOL0     H37045   3.061  10.239  10.220  0.2866 -0.4301  2.4757
  281MOL0     H37046   2.937  10.368  10.511  1.9294  2.5191 -2.3613
  281MOL0     H37047   2.906  10.219  10.424  0.4348 -0.2122  2.0453
  281MOL0     H37048   2.714  10.475  10.431 -2.8916 -0.8876 -1.8153
  281MOL0     H37049   2.695  10.351  10.550 -1.7998 -0.5737 -0.6922
  281MOL0     H37050   2.608  10.323  10.264  2.1848 -1.8785 -1.3410
  281MOL0     H37051   2.670  10.178  10.343  0.9457 -0.1594  1.1953
  281MOL0     H37052   2.473  10.348  10.492 -1.5555 -0.7292  0.1490
  281MOL0     H37053   2.531  10.179  10.522 -2.3660 -1.4815  0.2602
  281MOL0     H37054   2.347  10.166  10.642  0.0990 -1.1362  0.1828
  281MOL0     H37055   2.168  10.043  10.733  1.4084 -0.9827 -0.1121
  281MOL0     H37056   1.883   9.638  10.631 -1.8014 -0.1083  0.3785
  281MOL0     H37057   1.715   9.490  10.732  2.1675 -0.3105  0.7834
  281MOL0     H37058   1.400   9.673  10.907  0.5013 -1.2782 -1.7935
  281MOL0     H37059   1.443   9.639  11.079  2.4932 -0.1468  0.7574
  281MOL0     H37060   1.341   9.440  11.083 -2.5077  0.2042  0.3965
  281MOL0     H37061   1.325   9.423  10.901 -2.3378  1.6578  0.6468
  281MOL0     H37062   1.163   9.598  10.896  0.6009 -0.2376  0.1296
  281MOL0     H37063   1.184   9.621  11.077 -4.6302 -1.9615  1.2880
  281MOL0     H37064   1.108   9.372  10.943  1.4473 -2.9228  2.8773
  281MOL0     H37065   1.096   9.400  11.115 -0.9055  2.6342  0.9175
  281MOL0     H37066   0.945   9.585  10.912 -1.6695  0.1815 -0.8396
  281MOL0     H37067   0.917   9.567  11.084 -1.2253 -0.1276 -0.6165
  281MOL0     H37068   0.848   9.346  10.898 -0.4077  2.2729 -2.0770
  281MOL0     H37069   0.733   9.467  10.960  1.2524  1.0913 -3.1200
  281MOL0     H37070   0.898   9.290  11.144  1.2560 -1.6684 -5.3677
  281MOL0     H37071   0.755   9.395  11.189 -3.0471 -0.2811 -1.3020
  281MOL0     H37072   0.720   9.124  11.160  2.3680 -0.3669  0.6054
  281MOL0     H37073   0.757   9.163  10.998  0.4938  0.1138  0.2916
  281MOL0     H37074   1.599   9.803  11.004 -0.4550  1.2065 -0.6611
  281MOL0     H37075   1.771   9.947  10.925 -0.8079 -0.6836  2.2561
  281MOL0     H37076   1.984  10.021  10.345 -0.5766 -2.1741  2.1353
  281MOL0     H37077   2.190  10.122  10.238 -1.3153  1.0506 -0.4283
  281MOL0     H37078   4.086  10.463   9.281  2.2352 -0.5995 -0.4158
  281MOL0     H37079   4.280  10.531   9.203 -1.5374  0.1516  0.8845
  281MOL0     H37080   4.706  10.586   9.018  0.8807 -2.2045  1.0288
  281MOL0     H37081   4.931  10.690   8.986  2.0954 -1.2696  2.2950
  281MOL0     H37082   5.138  10.910   9.291  1.1414  2.6200  1.0445
  281MOL0     H37083   5.028  11.042   9.213 -1.4675  0.0355 -3.4012
  281MOL0     H37084   5.310  10.951   9.147  2.2335  1.7246  0.5936
  281MOL0     H37085   5.229  11.091   9.066  0.8378 -0.5500 -0.2727
  281MOL0     H37086   5.390  11.178   9.216  1.0591 -3.2641 -0.8713
  281MOL0     H37087   5.334  11.082   9.350 -0.0599 -0.7379 -1.2121
  281MOL0     H37088   5.274  11.324   9.348  1.4926 -1.6540  1.0924
  281MOL0     H37089   5.141  11.292   9.228  1.2509  0.5931  0.0970
  281MOL0     H37090   4.971  11.182   9.593  2.1939 -1.8241  0.4420
  281MOL0     H37091   4.876  10.920   9.342 -1.9865  4.5428 -2.7686
  281MOL0     H37092   4.663  10.822   9.363 -2.2275 -2.1734 -0.1856
  282MOL0     O37093  10.816   8.579   8.518 -0.3166 -0.4724  0.1625
  282MOL0     C37094  10.850   8.482   8.580  0.1847 -0.0418  0.3107
  282MOL0     O37095  10.763   8.396   8.630 -0.1704  0.3229 -0.7900
  282MOL0     C37096  10.634   8.435   8.622  0.2225 -0.3730 -0.0480
  282MOL0     C37097  10.565   8.441   8.740  0.4219 -1.0182  0.7052
  282MOL0     C37098  10.427   8.462   8.746 -0.6733  0.1243 -0.1995
  282MOL0     C37099  10.361   8.483   8.630  0.6902 -0.1539  0.9232
  282MOL0     O37100  10.232   8.533   8.623  0.5634 -0.0551  0.1783
  282MOL0     C37101  10.142   8.560   8.742 -0.5154  0.7613  0.8719
  282MOL0     C37102  10.021   8.619   8.671 -0.7019  0.0179  0.1374
  282MOL0     C37103   9.939   8.711   8.776 -0.3330  0.7664  0.3456
  282MOL0     C37104   9.866   8.635   8.892 -0.8967 -0.2023  0.4343
  282MOL0     C37105   9.760   8.710   8.969 -0.0076 -0.8459  0.1931
  282MOL0     C37106   9.712   8.626   9.092 -0.4522 -0.4097 -0.1806
  282MOL0     C37107   9.588   8.672   9.174 -0.0906 -0.3104  0.0502
  282MOL0     C37108   9.467   8.666   9.085  0.4172  0.3780  0.3418
  282MOL0     N37109   9.346   8.689   9.170  0.1382 -0.3764  0.2768
  282MOL0     C37110   9.292   8.815   9.204 -0.1283  0.6183 -0.2636
  282MOL0     C37111   9.171   8.794   9.259 -0.5124 -0.1840  0.7565
  282MOL0     C37112   9.073   8.903   9.308 -0.5206  0.3420  0.1428
  282MOL0     C37113   8.930   8.870   9.269 -0.1294 -0.2597 -0.3118
  282MOL0     C37114   8.844   8.988   9.307  0.3550  0.0246 -0.6542
  282MOL0     C37115   8.695   8.959   9.293  0.2727  0.7852 -0.7475
  282MOL0     O37116   8.659   8.863   9.385  0.1408  0.0447  0.0044
  282MOL0     C37117   8.527   8.829   9.380 -0.1341 -0.2517 -0.4326
  282MOL0     C37118   8.479   8.752   9.271  0.6721 -0.3415  0.9404
  282MOL0     C37119   8.347   8.719   9.271  0.1568 -0.2674 -0.0637
  282MOL0     C37120   8.262   8.759   9.379  0.3739  0.8032 -0.2934
  282MOL0     C37121   8.127   8.705   9.403 -0.0778 -0.1777 -0.0350
  282MOL0     O37122   8.056   8.678   9.287 -0.6723 -0.0036  0.3099
  282MOL0     C37123   7.915   8.667   9.298  0.5107  0.2678  0.0211
  282MOL0     C37124   7.845   8.545   9.284 -0.1286  0.3452 -0.5994
  282MOL0     C37125   7.703   8.544   9.286 -0.5350  0.6065 -0.4718
  282MOL0     C37126   7.637   8.665   9.302  0.6383 -0.8603  0.7234
  282MOL0     O37127   7.495   8.677   9.321 -0.2614 -1.1411  0.3268
  282MOL0     C37128   7.413   8.564   9.328 -0.0801 -0.1481  0.5630
  282MOL0     C37129   7.288   8.610   9.378  0.5996  0.9558  0.0909
  282MOL0     C37130   7.165   8.515   9.345 -0.4547 -0.4895 -0.0371
  282MOL0     C37131   7.034   8.586   9.332  0.7710  1.0458  0.8500
  282MOL0     C37132   6.998   8.666   9.446 -0.3702  0.2467 -0.3008
  282MOL0     C37133   6.855   8.716   9.429 -0.3268  0.4946  0.3045
  282MOL0     C37134   6.799   8.786   9.556  0.8462  0.4800  0.3624
  282MOL0     C37135   6.788   8.697   9.682 -0.1245  0.1419  1.3339
  282MOL0    Cl37136   6.720   8.537   9.636  0.2470  0.3995 -0.2719
  282MOL0     C37137   7.705   8.781   9.327 -1.6998  0.0075  0.2937
  282MOL0     C37138   7.844   8.784   9.310  0.5075  1.2020 -0.1947
  282MOL0     O37139   8.083   8.709   9.514  0.6628  0.7900  0.2179
  282MOL0     C37140   8.311   8.832   9.487 -0.0448 -0.8928 -0.5483
  282MOL0     C37141   8.445   8.879   9.485 -0.0106 -0.0210  0.4117
  282MOL0     N37142   9.152   8.662   9.245  0.8609  0.1854  0.1464
  282MOL0     N37143   9.254   8.602   9.203  0.6996 -0.3238 -0.6318
  282MOL0     C37144  10.425   8.469   8.505 -0.0073  0.8142  0.3337
  282MOL0     C37145  10.565   8.441   8.504  0.1714 -1.7011 -0.2792
  282MOL0     C37146  10.993   8.484   8.625 -0.1880 -0.3875 -0.9853
  282MOL0     C37147  11.066   8.598   8.668  0.2868 -0.4009  0.2235
  282MOL0     C37148  11.202   8.596   8.694  0.2677  0.2462  0.1607
  282MOL0     C37149  11.259   8.479   8.718 -0.5521  0.6819  0.8282
  282MOL0     O37150  11.384   8.471   8.770  0.3764  0.2988  1.0904
  282MOL0     C37151  11.496   8.456   8.679  0.8551 -0.0520  0.9196
  282MOL0     C37152  11.581   8.580   8.693  0.3682 -0.6799  0.3826
  282MOL0     C37153  11.700   8.574   8.590  0.4289 -0.0161  0.1648
  282MOL0     C37154  11.808   8.669   8.638  0.9266  0.4885 -0.1425
  282MOL0     C37155  11.918   8.690   8.545 -0.3611 -0.3184 -0.1589
  282MOL0     C37156  12.005   8.718   8.463  0.4281  0.1507 -0.1333
  282MOL0     C37157  11.194   8.355   8.697  0.4163 -0.9109 -0.9817
  282MOL0     C37158  11.060   8.359   8.644 -0.1830  0.1868  0.1444
  282MOL0     H37159  10.615   8.421   8.834  2.0250 -0.5997 -0.0150
  282MOL0     H37160  10.392   8.470   8.849 -1.5035 -2.6572 -0.2005
  282MOL0     H37161  10.182   8.631   8.815 -2.1682  3.8440 -1.0136
  282MOL0     H37162  10.106   8.470   8.793  0.3097 -0.9523 -1.4249
  282MOL0     H37163   9.973   8.532   8.625  0.0123 -1.2850  1.7163
  282MOL0     H37164  10.053   8.674   8.582  2.0008  0.6666  1.3757
  282MOL0     H37165   9.859   8.764   8.725 -0.4765  0.4768  0.2623
  282MOL0     H37166  10.002   8.783   8.828 -1.1931  2.0937 -0.3917
  282MOL0     H37167   9.829   8.540   8.852 -2.9482  1.5903 -2.2574
  282MOL0     H37168   9.945   8.615   8.965 -1.2373 -2.8756  0.1595
  282MOL0     H37169   9.676   8.726   8.902 -1.5323  0.5753  2.3168
  282MOL0     H37170   9.790   8.804   9.016  1.8698 -1.6797  0.7634
  282MOL0     H37171   9.797   8.632   9.161  1.5233  1.6806 -2.5596
  282MOL0     H37172   9.701   8.526   9.048 -0.7295  0.0048 -1.0862
  282MOL0     H37173   9.586   8.603   9.259 -1.3256  0.1416  0.4133
  282MOL0     H37174   9.605   8.773   9.212 -2.8941  1.5068 -2.9943
  282MOL0     H37175   9.456   8.571   9.032 -0.5173  0.1552  0.9094
  282MOL0     H37176   9.465   8.738   9.003 -2.4564 -0.9216 -0.8690
  282MOL0     H37177   9.340   8.909   9.178  3.8685 -0.0531  3.5898
  282MOL0     H37178   9.103   8.999   9.265 -2.1639  1.4309  1.2639
  282MOL0     H37179   9.072   8.908   9.418 -0.5548 -1.2106  0.2368
  282MOL0     H37180   8.912   8.778   9.325 -0.3369 -0.1332 -0.1679
  282MOL0     H37181   8.919   8.845   9.163  1.7103 -2.2087 -0.0931
  282MOL0     H37182   8.858   9.031   9.407  1.5790 -0.3827 -0.6399
  282MOL0     H37183   8.869   9.064   9.232 -0.8722 -0.8991 -2.0465
  282MOL0     H37184   8.672   8.912   9.197 -0.5291 -1.0454  0.2675
  282MOL0     H37185   8.634   9.049   9.308 -0.9874 -0.5308  3.8965
  282MOL0     H37186   8.542   8.711   9.192  2.1453  2.3254  0.5827
  282MOL0     H37187   8.315   8.659   9.187  0.6683 -0.3494 -0.2029
  282MOL0     H37188   7.900   8.452   9.269  0.1845  0.7613 -2.1842
  282MOL0     H37189   7.659   8.447   9.265 -2.8480  1.3703  0.4785
  282MOL0     H37190   7.458   8.476   9.375  1.4493 -0.9971 -2.2092
  282MOL0     H37191   7.386   8.538   9.225 -1.2433 -0.6315  0.9825
  282MOL0     H37192   7.259   8.707   9.337 -1.8821  0.5674  0.8025
  282MOL0     H37193   7.300   8.605   9.486  0.8084 -0.1835  0.0375
  282MOL0     H37194   7.158   8.447   9.430  0.9052 -0.0569  0.4487
  282MOL0     H37195   7.182   8.455   9.255  1.4272 -0.6679  0.3985
  282MOL0     H37196   7.042   8.655   9.247  0.7708  3.4037  2.6500
  282MOL0     H37197   6.953   8.516   9.308  1.0481  0.8791  0.3827
  282MOL0     H37198   7.071   8.746   9.453 -2.5991  2.3927 -0.1687
  282MOL0     H37199   6.989   8.600   9.533 -2.0363  2.0361  0.9730
  282MOL0     H37200   6.800   8.622   9.416 -0.4534  0.7715 -1.3312
  282MOL0     H37201   6.840   8.767   9.334  1.1529 -0.5640 -0.5288
  282MOL0     H37202   6.863   8.865   9.596 -1.9262  2.2716  1.5079
  282MOL0     H37203   6.696   8.819   9.539  1.1358  0.5591 -1.5065
  282MOL0     H37204   6.725   8.750   9.754 -3.3054 -0.9346 -0.4547
  282MOL0     H37205   6.889   8.680   9.718  1.1691 -0.1746 -2.0486
  282MOL0     H37206   7.653   8.872   9.352 -0.6072  0.3396  1.4500
  282MOL0     H37207   7.873   8.888   9.310 -2.9446  2.3641  2.4785
  282MOL0     H37208   8.248   8.869   9.567  0.3816  1.9615 -1.3927
  282MOL0     H37209   8.477   8.956   9.555 -0.2135 -0.1977  0.7004
  282MOL0     H37210  10.370   8.468   8.412  2.4056 -0.8692 -1.2152
  282MOL0     H37211  10.602   8.436   8.403 -1.8395  0.5159 -1.2158
  282MOL0     H37212  11.009   8.688   8.647  0.0331 -0.6755 -0.2794
  282MOL0     H37213  11.266   8.682   8.713  1.9998 -0.9344 -0.0079
  282MOL0     H37214  11.460   8.439   8.577  1.3238 -0.8442  0.8798
  282MOL0     H37215  11.556   8.370   8.707 -1.1105 -1.8353 -0.0887
  282MOL0     H37216  11.516   8.663   8.665  1.5190  0.1197  0.0179
  282MOL0     H37217  11.613   8.589   8.797  2.3103  0.8453 -0.2711
  282MOL0     H37218  11.663   8.620   8.497 -0.1072  0.0108  0.3878
  282MOL0     H37219  11.746   8.475   8.587  2.8073  1.0374 -0.2029
  282MOL0     H37220  11.777   8.771   8.664  2.1390  1.0913 -0.9717
  282MOL0     H37221  11.848   8.622   8.729 -0.6675 -1.5267 -0.3964
  282MOL0     H37222  12.053   8.751   8.373  0.3361 -1.1211 -0.6791
  282MOL0     H37223  11.254   8.276   8.741  1.0786  0.4365  0.6674
  282MOL0     H37224  10.998   8.273   8.622 -5.1829  3.0458  1.4062
  283MOL0     O37225   3.605   2.745   0.434  0.1603 -0.4825  0.7166
  283MOL0     C37226   3.617   2.642   0.498 -0.3242 -0.5241 -0.4256
  283MOL0     O37227   3.527   2.584   0.578  0.4438  0.1315  0.7568
  283MOL0     C37228   3.408   2.650   0.596 -0.1176 -0.7256  0.4312
  283MOL0     C37229   3.296   2.586   0.551 -0.6135 -0.4763 -0.2934
  283MOL0     C37230   3.173   2.652   0.561  0.0652  0.5932 -0.5773
  283MOL0     C37231   3.152   2.761   0.649  0.2382  0.3358 -0.4953
  283MOL0     O37232   3.030   2.828   0.665  0.4793  0.1899 -0.2325
  283MOL0     C37233   2.909   2.771   0.608 -0.2055  0.0484 -0.3823
  283MOL0     C37234   2.812   2.889   0.652  0.2709  0.7152 -0.7393
  283MOL0     C37235   2.688   2.877   0.569 -0.8470  0.8046 -0.6319
  283MOL0     C37236   2.584   2.978   0.601 -0.9754 -0.4260  0.2067
  283MOL0     C37237   2.475   2.992   0.512  0.8428  0.0209  0.0987
  283MOL0     C37238   2.383   2.866   0.508 -0.2772  0.3555 -0.4850
  283MOL0     C37239   2.245   2.882   0.442 -0.3006 -0.8326  0.1639
  283MOL0     C37240   2.245   2.919   0.291  0.2727 -0.3507 -0.8831
  283MOL0     N37241   2.306   2.816   0.210  0.0192  0.2938  0.2033
  283MOL0     C37242   2.434   2.798   0.170 -0.1706  0.2944  0.3884
  283MOL0     C37243   2.437   2.699   0.078 -0.1787  0.7712 -0.1495
  283MOL0     C37244   2.568   2.648   0.027  0.0957  0.6992  0.1450
  283MOL0     C37245   2.614   2.537   0.115 -0.6560 -0.3076  0.0734
  283MOL0     C37246   2.685   2.573   0.245  0.0091 -1.4060  0.3050
  283MOL0     C37247   2.704   2.446   0.329 -0.2319  0.3724  0.3039
  283MOL0     O37248   2.707   2.478   0.468  0.1330  0.5203 -0.0922
  283MOL0     C37249   2.582   2.495   0.532 -1.4232  0.1543  0.2592
  283MOL0     C37250   2.596   2.522   0.672  0.1904 -0.9094  0.0049
  283MOL0     C37251   2.487   2.561   0.756 -0.4737  0.2199  0.2113
  283MOL0     C37252   2.355   2.557   0.696  0.0079 -0.6382  0.5473
  283MOL0     C37253   2.235   2.582   0.776 -0.0151 -0.5520  0.3303
  283MOL0     O37254   2.122   2.558   0.709 -0.5112 -0.2395  0.4443
  283MOL0     C37255   1.994   2.573   0.773 -0.6035  0.3440 -0.3172
  283MOL0     C37256   1.929   2.698   0.780  0.1934 -0.7945  0.4734
  283MOL0     C37257   1.812   2.716   0.850  0.1276 -0.1240 -0.6356
  283MOL0     C37258   1.754   2.610   0.915 -0.1014 -0.2601  0.1754
  283MOL0     O37259   1.638   2.608   0.990  0.1185 -0.9431 -0.1969
  283MOL0     C37260   1.655   2.693   1.103 -0.0117  0.1171  0.4627
  283MOL0     C37261   1.516   2.722   1.158 -0.4741 -0.3138 -0.0004
  283MOL0     C37262   1.523   2.818   1.281 -1.3023  0.7984 -0.3451
  283MOL0     C37263   1.394   2.868   1.337  0.2781  0.9481  0.7596
  283MOL0     C37264   1.409   2.943   1.468  0.5228 -0.1513  0.1767
  283MOL0     C37265   1.275   2.993   1.526 -0.0796 -0.2737 -0.3255
  283MOL0     C37266   1.192   2.869   1.589  0.6988 -0.2325  0.0613
  283MOL0     C37267   1.072   2.913   1.672  0.3488 -0.6428 -1.2263
  283MOL0    Cl37268   1.126   3.015   1.812 -0.2248 -0.2760 -0.4290
  283MOL0     C37269   1.821   2.485   0.910  0.2906 -0.2233 -1.1053
  283MOL0     C37270   1.937   2.467   0.837  0.1775 -0.4342  1.0488
  283MOL0     O37271   2.240   2.616   0.892 -0.1175  0.2199  0.0002
  283MOL0     C37272   2.350   2.539   0.559  0.0253 -0.1911 -0.3263
  283MOL0     C37273   2.457   2.508   0.481  0.0021  0.2179 -0.3388
  283MOL0     N37274   2.309   2.657   0.059  0.1041  0.0956  0.5585
  283MOL0     N37275   2.237   2.718   0.142 -0.0971  0.2201 -0.3887
  283MOL0     C37276   3.267   2.813   0.704 -0.0880  0.3836  0.5720
  283MOL0     C37277   3.398   2.765   0.675  1.0649  0.6104  0.3784
  283MOL0     C37278   3.745   2.570   0.494  0.2086  0.4602 -0.5184
  283MOL0     C37279   3.860   2.627   0.440  0.1791 -0.1093  0.4802
  283MOL0     C37280   3.987   2.578   0.463  0.1023  0.2790  0.6407
  283MOL0     C37281   3.999   2.456   0.521 -0.5531  0.6800 -1.2728
  283MOL0     O37282   4.123   2.398   0.548 -0.5403  0.6380  0.4792
  283MOL0     C37283   4.247   2.468   0.518 -0.0551 -0.1636 -0.1227
  283MOL0     C37284   4.362   2.395   0.587 -0.4814 -0.4844 -0.1731
  283MOL0     C37285   4.482   2.493   0.607 -0.0254  0.6143  0.1044
  283MOL0     C37286   4.609   2.418   0.652 -0.7523 -0.4322  0.7965
  283MOL0     C37287   4.719   2.523   0.649 -0.7118  0.5864  0.4145
  283MOL0     C37288   4.811   2.596   0.648  0.0084 -0.2695 -0.4298
  283MOL0     C37289   3.883   2.388   0.557 -0.1332  0.1632  0.4412
  283MOL0     C37290   3.764   2.442   0.548  0.3402 -0.3240 -1.1823
  283MOL0     H37291   3.317   2.494   0.498  2.4987  1.5807 -3.0466
  283MOL0     H37292   3.091   2.599   0.511  0.6503 -2.0056  1.0268
  283MOL0     H37293   2.871   2.673   0.638 -2.2569  1.5772  2.5297
  283MOL0     H37294   2.908   2.769   0.499  1.1412 -0.9004 -0.4021
  283MOL0     H37295   2.860   2.985   0.634 -0.2957  1.5506  1.7512
  283MOL0     H37296   2.782   2.875   0.756 -0.0629  4.1929 -0.2619
  283MOL0     H37297   2.648   2.775   0.576  4.5303 -1.6378 -0.8514
  283MOL0     H37298   2.725   2.887   0.466  1.0746 -0.6221 -0.1387
  283MOL0     H37299   2.548   2.958   0.702 -0.7602 -1.0296  0.1685
  283MOL0     H37300   2.625   3.079   0.609 -2.3865  0.1853  0.0950
  283MOL0     H37301   2.508   3.021   0.412 -1.0428 -0.2042 -0.6369
  283MOL0     H37302   2.421   3.082   0.542 -1.5172 -1.1895 -0.2031
  283MOL0     H37303   2.360   2.824   0.606  1.9182 -1.0452 -0.5149
  283MOL0     H37304   2.436   2.791   0.449  0.2386 -1.3796  2.0155
  283MOL0     H37305   2.190   2.790   0.462 -5.1597  1.9189  1.0065
  283MOL0     H37306   2.193   2.969   0.483  0.0570  0.4449 -1.9488
  283MOL0     H37307   2.295   3.016   0.286 -0.9316  0.3430  0.1727
  283MOL0     H37308   2.142   2.940   0.262  0.0282 -0.1435  0.1036
  283MOL0     H37309   2.525   2.848   0.202  0.9181 -0.4918 -1.2871
  283MOL0     H37310   2.653   2.717   0.032 -1.4086  2.5309  1.9797
  283MOL0     H37311   2.543   2.614  -0.074  0.4636  0.7898  0.0202
  283MOL0     H37312   2.682   2.476   0.055 -1.2107 -2.3890  1.4557
  283MOL0     H37313   2.536   2.460   0.125  0.0128 -0.8505  1.3442
  283MOL0     H37314   2.784   2.617   0.232 -0.3429  1.1521  4.3970
  283MOL0     H37315   2.634   2.651   0.303  1.7641  0.0694 -0.0421
  283MOL0     H37316   2.802   2.405   0.305 -0.4248  0.2979 -0.3763
  283MOL0     H37317   2.634   2.366   0.304  0.6359 -0.5172  0.6564
  283MOL0     H37318   2.696   2.513   0.714 -0.5375 -1.7338  1.6882
  283MOL0     H37319   2.511   2.577   0.860  1.2620 -1.0160  0.0458
  283MOL0     H37320   1.970   2.785   0.729 -1.2714  0.1961  0.9301
  283MOL0     H37321   1.761   2.812   0.845  2.3977  1.1669 -0.4536
  283MOL0     H37322   1.704   2.785   1.070 -0.0566  0.3988  1.1566
  283MOL0     H37323   1.718   2.646   1.180  0.4715 -1.4362 -0.8214
  283MOL0     H37324   1.472   2.633   1.204 -0.8933  0.6907  1.5917
  283MOL0     H37325   1.459   2.764   1.074  2.2853 -0.4038 -2.0780
  283MOL0     H37326   1.595   2.899   1.263 -0.3037  0.6420  2.5387
  283MOL0     H37327   1.569   2.757   1.359 -2.6142 -1.0278 -0.9224
  283MOL0     H37328   1.343   2.939   1.272 -0.6110  0.8529  1.3324
  283MOL0     H37329   1.325   2.783   1.338 -2.1083  2.7734  0.3707
  283MOL0     H37330   1.479   3.025   1.453  3.4997 -2.5153  0.0530
  283MOL0     H37331   1.453   2.875   1.541 -1.6512 -0.8285  0.9351
  283MOL0     H37332   1.210   3.041   1.452  0.3847  2.1310  0.7296
  283MOL0     H37333   1.300   3.065   1.604  1.4696  0.4037 -1.3970
  283MOL0     H37334   1.164   2.807   1.503 -0.6085 -2.0911  1.7418
  283MOL0     H37335   1.260   2.813   1.655  0.3762  0.8834  1.3852
  283MOL0     H37336   1.018   2.824   1.705 -2.1059  1.3517  0.6195
  283MOL0     H37337   0.998   2.958   1.606  0.3935 -0.2600 -1.0198
  283MOL0     H37338   1.800   2.396   0.968  1.6284  0.6874  0.8909
  283MOL0     H37339   1.988   2.372   0.847  1.1284 -0.1277 -0.4288
  283MOL0     H37340   2.255   2.532   0.507  0.1377 -5.1637 -0.2952
  283MOL0     H37341   2.435   2.494   0.375 -0.4946 -2.2490  0.0304
  283MOL0     H37342   3.279   2.896   0.773  0.8798 -0.3423  1.3227
  283MOL0     H37343   3.496   2.790   0.713  1.8644 -1.3305 -0.2669
  283MOL0     H37344   3.839   2.718   0.384 -1.9518 -2.2738 -2.5609
  283MOL0     H37345   4.077   2.629   0.433  1.7092 -2.2710  0.8063
  283MOL0     H37346   4.240   2.569   0.561 -0.5822 -0.8516  1.5060
  283MOL0     H37347   4.272   2.471   0.412 -1.3938 -0.6018 -0.4816
  283MOL0     H37348   4.330   2.349   0.682 -0.3230 -1.1299 -0.4250
  283MOL0     H37349   4.400   2.311   0.528  0.3545  0.7702 -1.4677
  283MOL0     H37350   4.456   2.570   0.679  0.1946 -1.8885  3.0411
  283MOL0     H37351   4.495   2.549   0.514 -1.4854 -1.6703 -1.5866
  283MOL0     H37352   4.578   2.372   0.747 -4.4506 -0.2953 -0.1721
  283MOL0     H37353   4.634   2.339   0.582 -0.7473 -0.0300  0.3431
  283MOL0     H37354   4.880   2.677   0.637  0.9030 -0.7113  1.5212
  283MOL0     H37355   3.891   2.297   0.614 -4.1410 -0.1584  0.7516
  283MOL0     H37356   3.677   2.390   0.587  0.6650  1.4397  2.3086
  284MOL0     O37357   1.938   1.159  10.617 -0.6860 -0.7783 -0.2304
  284MOL0     C37358   1.918   1.037  10.620  0.6801 -0.0163  0.9128
  284MOL0     O37359   1.799   0.973  10.603  1.1664 -0.5903 -0.6683
  284MOL0     C37360   1.680   1.038  10.617 -0.1513 -1.5602  0.5962
  284MOL0     C37361   1.572   0.974  10.563  0.8078  0.4345  0.3023
  284MOL0     C37362   1.444   1.018  10.563  0.4360 -0.5807 -0.8908
  284MOL0     C37363   1.415   1.142  10.619 -0.0170 -0.2404 -0.1080
  284MOL0     O37364   1.288   1.190  10.608 -0.3140  0.0475 -0.1790
  284MOL0     C37365   1.234   1.227  10.728  0.4436 -0.2953  0.6409
  284MOL0     C37366   1.095   1.279  10.721  0.4035  0.0967  1.4013
  284MOL0     C37367   0.997   1.167  10.681  0.2420  0.3851  0.0504
  284MOL0     C37368   0.854   1.201  10.682  0.5484  0.3376 -0.3330
  284MOL0     C37369   0.769   1.079  10.660 -0.2194 -0.9431 -0.3146
  284MOL0     C37370   0.626   1.117  10.626  0.1542  0.4508 -0.6905
  284MOL0     C37371   0.549   0.990  10.580 -0.6470  0.4064  0.3194
  284MOL0     C37372   0.405   1.013  10.550 -0.1306 -0.9731 -0.3637
  284MOL0     N37373   0.347   0.899  10.477  0.5574 -1.2199  0.6843
  284MOL0     C37374   0.370   0.767  10.490 -0.0628 -0.1841 -0.2489
  284MOL0     C37375   0.283   0.713  10.397  0.1407  0.5134  0.6385
  284MOL0     C37376   0.284   0.576  10.345 -0.2971  0.1971  0.4598
  284MOL0     C37377   0.142   0.518  10.293 -0.4074  0.8200 -0.2040
  284MOL0     C37378   0.117   0.582  10.149 -0.4258  0.5775 -0.7183
  284MOL0     C37379  -0.028   0.534  10.106  0.6453  0.2400 -0.7888
  284MOL0     O37380  -0.049   0.391  10.120  0.3005 -0.1033 -0.5017
  284MOL0     C37381  -0.179   0.343  10.108  0.0907 -0.2386  0.1142
  284MOL0     C37382  -0.206   0.205  10.126 -0.1231  0.1831 -0.0511
  284MOL0     C37383  -0.343   0.158  10.106 -0.4049  0.3665  0.2562
  284MOL0     C37384  -0.443   0.232  10.055 -0.2768 -0.7187 -0.9076
  284MOL0     C37385  -0.580   0.179  10.037  0.0974  1.1246  0.6200
  284MOL0     O37386  -0.687   0.267  10.052 -0.5352  0.3968  0.5772
  284MOL0     C37387  -0.820   0.222  10.058  0.0719  0.4768  1.0167
  284MOL0     C37388  -0.861   0.103  10.123 -0.2037 -0.5438  0.2717
  284MOL0     C37389  -0.998   0.074  10.146  0.3384 -0.9729 -0.0158
  284MOL0     C37390  -1.096   0.144  10.075  0.3010 -0.7748  0.0184
  284MOL0     O37391  -1.227   0.098  10.096  0.1608  0.1992  0.1551
  284MOL0     C37392  -1.333   0.186  10.053  0.2394 -0.4534  0.1615
  284MOL0     C37393  -1.362   0.299  10.155 -0.1049 -0.0088  0.0508
  284MOL0     C37394  -1.496   0.371  10.126 -0.2897  0.2926  0.0297
  284MOL0     C37395  -1.619   0.311  10.193  0.8052 -0.3261  0.4028
  284MOL0     C37396  -1.737   0.409  10.202 -0.2590 -0.4257  0.4777
  284MOL0     C37397  -1.753   0.483  10.073 -0.7981  0.3637  1.0771
  284MOL0     C37398  -1.896   0.552  10.067  0.8659 -0.1695  0.4251
  284MOL0     C37399  -1.928   0.660  10.165 -0.3722  0.0336  0.1624
  284MOL0    Cl37400  -2.095   0.722  10.150 -0.3358 -0.3677  0.6684
  284MOL0     C37401  -1.056   0.264  10.010  0.4757  0.1350 -0.5299
  284MOL0     C37402  -0.923   0.296   9.990 -0.4987 -0.1953  0.5564
  284MOL0     O37403  -0.594   0.054  10.021  0.1103 -0.8021 -0.0006
  284MOL0     C37404  -0.410   0.367  10.027  0.0453 -0.3048 -0.4680
  284MOL0     C37405  -0.284   0.424  10.063  1.2487  0.2365  0.4504
  284MOL0     N37406   0.202   0.814  10.349 -0.6194 -0.5631 -0.3547
  284MOL0     N37407   0.239   0.926  10.396 -0.3655  0.6423 -0.9762
  284MOL0     C37408   1.523   1.215  10.673 -0.6080  0.2006 -0.0854
  284MOL0     C37409   1.656   1.161  10.675 -0.3084 -0.1909 -0.9503
  284MOL0     C37410   2.032   0.954  10.596 -0.3431 -0.4609  0.5200
  284MOL0     C37411   2.150   1.001  10.530 -0.0524  0.8022 -0.1935
  284MOL0     C37412   2.276   0.925  10.540  0.9329 -1.2183  0.4226
  284MOL0     C37413   2.273   0.794  10.593 -0.2047 -0.4814  0.0257
  284MOL0     O37414   2.393   0.736  10.611  0.2211  0.4606  0.0385
  284MOL0     C37415   2.413   0.626  10.515 -0.0667  0.3247  0.3546
  284MOL0     C37416   2.560   0.566  10.514 -0.6016 -0.6688 -0.3876
  284MOL0     C37417   2.594   0.467  10.406  0.2581  0.5772  0.1225
  284MOL0     C37418   2.505   0.336  10.407 -0.7047  0.4494 -0.9942
  284MOL0     C37419   2.541   0.243  10.294  1.4909 -0.0377  0.0771
  284MOL0     C37420   2.556   0.180  10.192 -0.0220 -0.1143  0.5977
  284MOL0     C37421   2.153   0.744  10.644  0.4382 -0.1864 -0.1480
  284MOL0     C37422   2.035   0.816  10.644 -0.4166 -0.3056  0.0629
  284MOL0     H37423   1.584   0.879  10.510 -1.3907  0.4775 -0.3852
  284MOL0     H37424   1.367   0.956  10.520  0.5554 -1.0608 -0.4225
  284MOL0     H37425   1.286   1.315  10.768 -1.7531  0.3229  2.3615
  284MOL0     H37426   1.239   1.148  10.804  0.6152  0.8785  1.8971
  284MOL0     H37427   1.091   1.361  10.649 -1.9036 -0.0206  1.3056
  284MOL0     H37428   1.059   1.321  10.815 -1.6593  1.1411  0.2133
  284MOL0     H37429   1.006   1.081  10.748 -0.7669 -0.2938 -0.6568
  284MOL0     H37430   1.033   1.136  10.582  2.7748  1.3001  0.6125
  284MOL0     H37431   0.825   1.242  10.779  0.1267  2.7611 -1.4085
  284MOL0     H37432   0.830   1.281  10.612  3.3068 -0.1700 -1.9814
  284MOL0     H37433   0.781   1.012  10.746 -1.2953 -2.3345 -1.1899
  284MOL0     H37434   0.810   1.040  10.566 -2.0529  0.5647 -1.8279
  284MOL0     H37435   0.603   1.192  10.549  0.7101 -0.3054 -1.6219
  284MOL0     H37436   0.579   1.161  10.714  0.2417  0.5327 -0.6847
  284MOL0     H37437   0.600   0.954  10.490  1.1913  0.5402  1.2587
  284MOL0     H37438   0.547   0.908  10.652 -3.1013  0.6670  0.6612
  284MOL0     H37439   0.402   1.110  10.499  1.0067  1.9851  4.4830
  284MOL0     H37440   0.362   1.026  10.650 -0.1658  2.7516 -0.7146
  284MOL0     H37441   0.439   0.703  10.543 -0.2557 -2.0514 -2.1322
  284MOL0     H37442   0.306   0.509  10.429 -0.0739 -0.5469 -0.1821
  284MOL0     H37443   0.368   0.575  10.275 -0.1496  0.4432  0.6319
  284MOL0     H37444   0.067   0.545  10.367 -0.9593 -1.8202  0.2977
  284MOL0     H37445   0.159   0.411  10.305  2.6116  1.4935  3.2385
  284MOL0     H37446   0.126   0.691  10.147 -1.3109  0.6507 -1.5258
  284MOL0     H37447   0.194   0.539  10.084  0.3859 -0.5670  0.9179
  284MOL0     H37448  -0.036   0.560  10.000 -0.6597  0.2074 -0.7098
  284MOL0     H37449  -0.095   0.603  10.158  0.4086 -0.6364  0.0947
  284MOL0     H37450  -0.119   0.142  10.145 -0.5589 -1.0761 -1.9934
  284MOL0     H37451  -0.355   0.051  10.121 -0.6444  0.5881  1.8458
  284MOL0     H37452  -0.780   0.051  10.173  0.5251 -0.2336 -0.5602
  284MOL0     H37453  -1.036  -0.002  10.214 -0.9300  0.1424  0.5729
  284MOL0     H37454  -1.419   0.119  10.045  1.5948 -2.2829  0.2663
  284MOL0     H37455  -1.318   0.237   9.957  0.9315  3.5551  2.1994
  284MOL0     H37456  -1.282   0.373  10.164 -1.3136  1.0421  4.2402
  284MOL0     H37457  -1.356   0.257  10.256  3.0171  0.3776  0.1426
  284MOL0     H37458  -1.502   0.386  10.018  0.0260 -0.0434 -0.0352
  284MOL0     H37459  -1.492   0.472  10.169 -1.9563  0.9340 -1.2181
  284MOL0     H37460  -1.650   0.221  10.139  0.6041 -0.1500  0.2195
  284MOL0     H37461  -1.605   0.271  10.294 -1.5933 -3.1593 -0.2534
  284MOL0     H37462  -1.726   0.489  10.277 -1.0594 -1.9529  2.3165
  284MOL0     H37463  -1.830   0.369  10.244  1.4852 -5.9782 -0.1426
  284MOL0     H37464  -1.763   0.418   9.986 -1.1034  0.1815  1.2451
  284MOL0     H37465  -1.670   0.551  10.055  0.1965 -0.7113  1.4985
  284MOL0     H37466  -1.906   0.599   9.968  3.0197  2.9890  1.5457
  284MOL0     H37467  -1.982   0.484  10.068  1.2528 -0.7293 -1.0143
  284MOL0     H37468  -1.856   0.741  10.152 -0.2635 -0.4768 -3.0856
  284MOL0     H37469  -1.915   0.618  10.265  1.3195  0.6085  0.2084
  284MOL0     H37470  -1.130   0.326   9.960 -0.8205 -0.7398  0.2558
  284MOL0     H37471  -0.895   0.380   9.928 -1.1306 -2.0111 -2.4417
  284MOL0     H37472  -0.492   0.429   9.991  0.0311 -0.3795 -0.5633
  284MOL0     H37473  -0.272   0.528  10.033  2.1825  0.1379  0.4466
  284MOL0     H37474   1.500   1.318  10.700 -0.8796  0.6352 -1.8194
  284MOL0     H37475   1.737   1.212  10.726 -2.4784 -0.7073  3.5354
  284MOL0     H37476   2.144   1.100  10.488  0.8747  0.8605 -0.2098
  284MOL0     H37477   2.362   0.981  10.504 -1.2707  2.2606  0.1254
  284MOL0     H37478   2.382   0.654  10.414 -2.0413  0.0262  0.8376
  284MOL0     H37479   2.338   0.551  10.542 -2.6298  2.1977 -1.1157
  284MOL0     H37480   2.631   0.649  10.515 -3.1652  1.6509 -0.3459
  284MOL0     H37481   2.579   0.518  10.611 -0.2634 -2.1180 -1.1313
  284MOL0     H37482   2.701   0.446  10.409  1.0503  3.6545 -1.6086
  284MOL0     H37483   2.579   0.515  10.308  2.2714 -0.4750 -0.7435
  284MOL0     H37484   2.521   0.288  10.504  0.7262 -1.5742 -2.1638
  284MOL0     H37485   2.401   0.370  10.404 -1.5268 -1.7970 -0.1777
  284MOL0     H37486   2.578   0.111  10.113 -0.3967  0.6141 -0.1655
  284MOL0     H37487   2.152   0.641  10.678 -0.3766  0.3602  1.5987
  284MOL0     H37488   1.938   0.776  10.672 -1.9135  2.7275 -0.3216
  285MOL0     O37489   8.621   5.754   0.492  0.2577 -0.4566 -0.8247
  285MOL0     C37490   8.629   5.814   0.388  0.6478  0.1342  0.4955
  285MOL0     O37491   8.730   5.813   0.296 -0.2348  0.3121 -0.2258
  285MOL0     C37492   8.848   5.747   0.315  0.1905 -0.0808  0.3311
  285MOL0     C37493   8.940   5.752   0.208 -0.0232  0.3663 -0.8410
  285MOL0     C37494   9.069   5.700   0.229  0.8909 -0.3038  0.3767
  285MOL0     C37495   9.109   5.634   0.340  0.6154 -0.1434  0.4084
  285MOL0     O37496   9.237   5.590   0.339  1.1059  0.3025 -0.5624
  285MOL0     C37497   9.284   5.526   0.458  0.1756 -0.3839  0.0912
  285MOL0     C37498   9.423   5.478   0.418 -0.5975  0.4062 -0.7864
  285MOL0     C37499   9.482   5.387   0.528 -0.1794 -1.0577  0.6219
  285MOL0     C37500   9.598   5.298   0.510 -0.0312  0.3092  0.8563
  285MOL0     C37501   9.701   5.324   0.411 -0.3261 -0.6331  0.4163
  285MOL0     C37502   9.826   5.393   0.458  0.1101 -0.8832 -0.3172
  285MOL0     C37503   9.788   5.545   0.474  0.4807  0.1170 -0.0426
  285MOL0     C37504   9.892   5.627   0.550 -0.7524 -0.1364 -0.0609
  285MOL0     N37505   9.928   5.586   0.694  0.2955 -0.5789 -0.6814
  285MOL0     C37506   9.846   5.500   0.775  0.0548 -0.5180  0.4663
  285MOL0     C37507   9.923   5.467   0.876 -0.1696  0.8165  0.2791
  285MOL0     C37508   9.882   5.369   0.985  0.1227 -0.4087 -0.2495
  285MOL0     C37509   9.824   5.435   1.121  1.0152 -0.2181 -0.3160
  285MOL0     C37510   9.768   5.324   1.211  0.2230  0.5155 -0.5087
  285MOL0     C37511   9.688   5.379   1.328 -0.9188 -0.7788 -0.0116
  285MOL0     O37512   9.554   5.425   1.299 -0.2534  1.3581 -0.6118
  285MOL0     C37513   9.461   5.399   1.398  0.7089 -1.6729 -0.0289
  285MOL0     C37514   9.490   5.377   1.530  0.8413  0.4187 -0.0613
  285MOL0     C37515   9.386   5.380   1.629 -0.7920  0.7134  1.3362
  285MOL0     C37516   9.247   5.370   1.596 -0.4766 -1.0483 -0.6278
  285MOL0     C37517   9.138   5.347   1.696 -0.4636  0.0888  0.7733
  285MOL0     O37518   9.181   5.318   1.825  0.1661 -0.0777 -0.0740
  285MOL0     C37519   9.088   5.312   1.919  0.0194 -0.1779  0.0155
  285MOL0     C37520   9.018   5.427   1.978 -0.8243  1.2888  0.2464
  285MOL0     C37521   8.916   5.394   2.057  0.6414 -0.1571 -0.7581
  285MOL0     C37522   8.878   5.269   2.101 -0.4664  0.0567  0.4658
  285MOL0     O37523   8.774   5.236   2.183 -0.8305 -0.0869  0.0919
  285MOL0     C37524   8.726   5.340   2.268 -0.2692 -0.7178  0.1153
  285MOL0     C37525   8.602   5.386   2.197  0.5365  0.2479 -0.0556
  285MOL0     C37526   8.474   5.290   2.198 -0.1494  0.1477 -0.2360
  285MOL0     C37527   8.345   5.361   2.161 -0.3176 -0.3803  0.2981
  285MOL0     C37528   8.225   5.266   2.158  0.4676  0.2608  1.0724
  285MOL0     C37529   8.127   5.323   2.062 -0.0233 -0.3730 -0.2169
  285MOL0     C37530   8.178   5.337   1.918  0.3661 -0.7742  0.5627
  285MOL0     C37531   8.079   5.331   1.812  0.6510 -0.7601  0.0762
  285MOL0    Cl37532   7.953   5.472   1.847 -0.2008 -0.1444 -0.2565
  285MOL0     C37533   8.956   5.161   2.061  0.3048 -0.1600 -0.6602
  285MOL0     C37534   9.064   5.178   1.971  0.4214  0.3698  0.2925
  285MOL0     O37535   9.020   5.363   1.657  0.1442  0.5960 -0.8293
  285MOL0     C37536   9.215   5.381   1.458  0.7315  0.0780  0.1520
  285MOL0     C37537   9.325   5.385   1.365 -0.7229 -0.3460  0.1982
  285MOL0     N37538  10.048   5.511   0.844  1.1168 -0.2955  0.5072
  285MOL0     N37539  10.051   5.579   0.740  0.3550 -0.6663  0.5193
  285MOL0     C37540   9.020   5.627   0.448 -0.2162 -0.6918  0.5795
  285MOL0     C37541   8.897   5.685   0.429  1.1785 -0.2677 -0.1699
  285MOL0     C37542   8.500   5.878   0.350  0.7796  0.7452  0.8937
  285MOL0     C37543   8.384   5.879   0.432 -0.0860 -0.3766 -0.4698
  285MOL0     C37544   8.260   5.936   0.384  0.2309 -0.0921 -0.3874
  285MOL0     C37545   8.245   5.994   0.262 -0.2317 -0.1008  0.0592
  285MOL0     O37546   8.127   6.050   0.217  0.0070  0.3117  0.0906
  285MOL0     C37547   8.084   6.024   0.090 -0.1468  0.1618  0.0278
  285MOL0     C37548   7.930   6.021   0.084 -0.7038 -0.3196 -0.4246
  285MOL0     C37549   7.872   6.009  -0.045  0.7261  0.0286  0.4093
  285MOL0     C37550   7.734   6.074  -0.057 -0.5089  0.4489  0.0090
  285MOL0     C37551   7.637   6.002   0.022  0.7539 -0.8933  0.0639
  285MOL0     C37552   7.557   5.937   0.080  0.1458  0.4766  0.4443
  285MOL0     C37553   8.355   5.977   0.179 -0.6318  0.2907  1.0664
  285MOL0     C37554   8.479   5.933   0.222 -0.1807  0.8766  0.4154
  285MOL0     H37555   8.906   5.802   0.118  0.6742  2.8980  0.2388
  285MOL0     H37556   9.142   5.701   0.148 -1.3321 -3.5444 -1.8968
  285MOL0     H37557   9.213   5.446   0.480 -0.2829 -0.2839 -0.9490
  285MOL0     H37558   9.293   5.589   0.547  1.1049 -2.7740  1.7921
  285MOL0     H37559   9.491   5.563   0.409  0.4433 -0.3535 -0.3422
  285MOL0     H37560   9.412   5.430   0.320 -0.7278  1.4614 -1.2998
  285MOL0     H37561   9.391   5.332   0.555 -1.8265  0.7127 -1.0818
  285MOL0     H37562   9.497   5.439   0.623 -1.8103 -0.5975  0.6619
  285MOL0     H37563   9.650   5.287   0.606  0.7357  1.2584  0.5645
  285MOL0     H37564   9.562   5.198   0.484  1.3615 -0.3855  1.5068
  285MOL0     H37565   9.671   5.370   0.316 -0.2474  1.9374  1.5453
  285MOL0     H37566   9.728   5.222   0.384  0.0664 -0.2831 -0.5451
  285MOL0     H37567   9.904   5.371   0.385  0.1340  1.2308 -0.9915
  285MOL0     H37568   9.865   5.357   0.554  2.9052 -1.2079 -1.4675
  285MOL0     H37569   9.786   5.585   0.372  6.3299  0.9765 -0.1533
  285MOL0     H37570   9.692   5.563   0.524  0.9801 -1.7045  1.7279
  285MOL0     H37571   9.862   5.732   0.543  0.7948  0.4635  1.5538
  285MOL0     H37572   9.983   5.624   0.491 -1.3498 -0.9117 -0.9830
  285MOL0     H37573   9.745   5.466   0.755 -0.5058  1.4534 -0.2786
  285MOL0     H37574   9.967   5.307   1.015 -0.9581 -0.8706  2.0430
  285MOL0     H37575   9.804   5.306   0.942  1.0941 -0.8158 -1.4955
  285MOL0     H37576   9.744   5.504   1.093  0.2652  0.0653  2.2860
  285MOL0     H37577   9.910   5.487   1.165 -0.1479  0.2272  1.5417
  285MOL0     H37578   9.700   5.255   1.161 -1.0924 -0.1725  2.0290
  285MOL0     H37579   9.856   5.272   1.251  0.2379  0.6669 -0.3379
  285MOL0     H37580   9.739   5.465   1.373 -3.1274 -0.2377  1.6462
  285MOL0     H37581   9.688   5.295   1.397  1.2131  1.2893  2.7486
  285MOL0     H37582   9.589   5.385   1.575 -0.5811  0.4292  3.3764
  285MOL0     H37583   9.421   5.369   1.731  0.8773 -0.5730  0.6764
  285MOL0     H37584   9.031   5.529   1.944 -0.4223  0.1811 -3.4389
  285MOL0     H37585   8.853   5.476   2.092  0.2939  0.8190 -3.3923
  285MOL0     H37586   8.794   5.425   2.270 -1.0399 -0.0541 -0.8091
  285MOL0     H37587   8.703   5.317   2.373  0.5069  1.3889  0.8006
  285MOL0     H37588   8.625   5.410   2.093 -0.8200  3.3355  0.2638
  285MOL0     H37589   8.578   5.480   2.247 -1.8995 -0.2530 -0.1678
  285MOL0     H37590   8.443   5.247   2.293 -2.7183 -1.3537 -1.6507
  285MOL0     H37591   8.491   5.198   2.141  0.7037 -2.3892  3.7059
  285MOL0     H37592   8.319   5.437   2.236 -1.4238 -1.3751  0.9647
  285MOL0     H37593   8.364   5.408   2.064  0.6572  3.1852  2.0406
  285MOL0     H37594   8.188   5.240   2.258 -0.4773 -0.4547  0.5491
  285MOL0     H37595   8.266   5.174   2.116  2.3058  1.2175  0.6759
  285MOL0     H37596   8.091   5.423   2.087 -0.2602 -0.7320  0.9264
  285MOL0     H37597   8.039   5.258   2.050 -0.2262  0.2962 -3.2812
  285MOL0     H37598   8.211   5.441   1.912 -0.8763 -0.1120  3.4300
  285MOL0     H37599   8.259   5.266   1.900  1.7447  0.3651  1.9555
  285MOL0     H37600   8.036   5.231   1.808  1.2088 -0.9798 -0.5245
  285MOL0     H37601   8.136   5.350   1.721 -0.8739  0.7349 -0.6279
  285MOL0     H37602   8.920   5.061   2.085 -5.2625  1.8948  1.0540
  285MOL0     H37603   9.134   5.100   1.942  0.1474  0.1327  0.2607
  285MOL0     H37604   9.108   5.377   1.442  0.5086 -3.1963  1.7776
  285MOL0     H37605   9.290   5.391   1.262 -3.8412 -3.0137  0.9262
  285MOL0     H37606   9.043   5.588   0.547 -2.1699  3.1305  2.7823
  285MOL0     H37607   8.837   5.689   0.519  0.0271 -1.9837 -0.7943
  285MOL0     H37608   8.401   5.843   0.533  2.3531 -0.2533 -0.7688
  285MOL0     H37609   8.175   5.946   0.451 -0.3072 -0.8462 -0.9290
  285MOL0     H37610   8.122   5.928   0.054  0.7366  0.5457 -0.0856
  285MOL0     H37611   8.117   6.106   0.026  0.8955 -0.7888 -0.7043
  285MOL0     H37612   7.906   5.945   0.158  0.7476  0.5052  0.9587
  285MOL0     H37613   7.899   6.117   0.125  0.8783  0.1660 -0.2721
  285MOL0     H37614   7.861   5.907  -0.082 -0.3268  0.6777 -1.1632
  285MOL0     H37615   7.931   6.056  -0.125 -1.6675  0.8816 -0.9705
  285MOL0     H37616   7.760   6.177  -0.031 -0.8744  0.1606  1.5975
  285MOL0     H37617   7.687   6.067  -0.156  0.4215 -0.3189 -0.3976
  285MOL0     H37618   7.477   5.880   0.121 -0.0113  0.9470  0.8049
  285MOL0     H37619   8.352   5.993   0.072  0.8982  0.6352  1.0470
  285MOL0     H37620   8.548   5.928   0.138 -3.4027  0.4671 -2.4725
  286MOL0     O37621   7.614   3.266  10.587  0.3503 -0.7789  0.6798
  286MOL0     C37622   7.646   3.208  10.484 -0.3464 -0.1611  0.0050
  286MOL0     O37623   7.566   3.188  10.373 -0.0996  0.3515  0.3483
  286MOL0     C37624   7.444   3.245  10.370 -0.2925 -0.6250  0.0798
  286MOL0     C37625   7.422   3.383  10.366  0.3664 -0.7979  0.2084
  286MOL0     C37626   7.290   3.440  10.351 -0.1156 -0.2300  0.0418
  286MOL0     C37627   7.178   3.351  10.342  1.3298  0.0423  0.0317
  286MOL0     O37628   7.041   3.388  10.338  0.1941 -0.2571 -0.4228
  286MOL0     C37629   7.009   3.527  10.315  1.1154  0.2113  0.2726
  286MOL0     C37630   6.971   3.608  10.436 -0.3829 -0.0408 -0.3200
  286MOL0     C37631   6.884   3.526  10.526 -0.5174  0.3860 -0.3487
  286MOL0     C37632   6.816   3.601  10.644  0.5575  0.6457  0.7087
  286MOL0     C37633   6.703   3.525  10.700  0.5302  0.0948  0.5219
  286MOL0     C37634   6.605   3.614  10.775 -0.2839  0.1387  0.6945
  286MOL0     C37635   6.514   3.536  10.875 -0.1599 -0.9935  0.9775
  286MOL0     C37636   6.432   3.429  10.798 -0.2150 -0.7658 -0.4270
  286MOL0     N37637   6.317   3.382  10.882 -0.4559  0.4348 -0.4934
  286MOL0     C37638   6.238   3.265  10.864  0.3687 -0.1653  0.4680
  286MOL0     C37639   6.134   3.269  10.949  0.4970 -0.9293 -0.1854
  286MOL0     C37640   6.042   3.156  10.984 -0.4571 -0.2169  0.0823
  286MOL0     C37641   5.944   3.108  10.879  0.5470  0.3359  0.1472
  286MOL0     C37642   5.855   3.231  10.849 -0.1827  0.4892  0.9575
  286MOL0     C37643   5.740   3.204  10.761  0.1315 -0.3837  0.3324
  286MOL0     O37644   5.668   3.089  10.804 -0.3637  0.3054 -0.5326
  286MOL0     C37645   5.534   3.109  10.784 -0.1249  0.5466  0.2803
  286MOL0     C37646   5.456   3.205  10.862 -0.9141  0.8276 -0.1983
  286MOL0     C37647   5.322   3.207  10.854 -0.0480 -0.3366  0.0353
  286MOL0     C37648   5.254   3.124  10.766 -0.0616 -0.6353  0.2975
  286MOL0     C37649   5.111   3.145  10.757  0.2810 -0.8369 -0.0051
  286MOL0     O37650   5.051   3.189  10.867 -0.0812  0.1924 -0.3939
  286MOL0     C37651   4.921   3.177  10.876  0.1269 -1.0726 -1.0338
  286MOL0     C37652   4.847   3.283  10.931  0.3086  0.1533  0.3853
  286MOL0     C37653   4.707   3.262  10.940 -0.2659  0.7404 -0.0065
  286MOL0     C37654   4.642   3.140  10.905 -0.3264 -0.0322  0.0027
  286MOL0     O37655   4.502   3.148  10.914  0.0988  0.2770 -0.1567
  286MOL0     C37656   4.431   3.067  10.816  0.1515  0.0109 -0.1494
  286MOL0     C37657   4.297   3.137  10.793  0.9400 -0.1369 -0.1533
  286MOL0     C37658   4.223   3.149  10.924  0.1015 -0.3086 -0.5727
  286MOL0     C37659   4.087   3.206  10.925 -0.0252 -0.7706  0.1010
  286MOL0     C37660   3.985   3.103  10.880 -0.1727  1.6043  0.0867
  286MOL0     C37661   3.853   3.173  10.859  0.9202 -0.2035  0.0743
  286MOL0     C37662   3.740   3.078  10.804 -0.1331  0.2160  0.1728
  286MOL0     C37663   3.607   3.157  10.777 -0.5288  0.8213 -0.0517
  286MOL0    Cl37664   3.554   3.238  10.925 -0.1281 -0.4533  0.3226
  286MOL0     C37665   4.721   3.035  10.860 -0.5152  0.0523 -0.1563
  286MOL0     C37666   4.859   3.059  10.837  0.2569  0.4787  0.1891
  286MOL0     O37667   5.057   3.122  10.647 -0.3538 -0.5802 -0.2104
  286MOL0     C37668   5.324   3.033  10.685  0.4172  0.2297  0.6287
  286MOL0     C37669   5.465   3.028  10.697  0.4087 -0.4382  0.5289
  286MOL0     N37670   6.158   3.379  11.031 -0.2418 -0.4228 -0.0199
  286MOL0     N37671   6.267   3.442  10.989 -0.1271 -0.3213 -0.0421
  286MOL0     C37672   7.205   3.211  10.338 -0.2503  0.1985  0.2593
  286MOL0     C37673   7.331   3.164  10.355 -0.4525  0.5050  0.0716
  286MOL0     C37674   7.774   3.135  10.490 -0.8124  0.9213  0.2974
  286MOL0     C37675   7.811   3.035  10.399 -0.2955  0.7540 -0.3543
  286MOL0     C37676   7.930   2.971  10.402  0.7418 -0.1902  0.2290
  286MOL0     C37677   8.021   2.995  10.505 -0.3753 -0.5031  0.2718
  286MOL0     O37678   8.143   2.932  10.528  0.1190  0.6333  0.7847
  286MOL0     C37679   8.205   2.861  10.427 -0.1802 -0.2117  0.6039
  286MOL0     C37680   8.323   2.787  10.490  0.0111  0.3573  0.1711
  286MOL0     C37681   8.346   2.656  10.421  0.6944  0.2678  0.0353
  286MOL0     C37682   8.486   2.597  10.448 -0.8081  0.2052  0.6392
  286MOL0     C37683   8.594   2.683  10.400 -0.5155 -0.6051  0.5054
  286MOL0     C37684   8.694   2.734  10.352  0.0991 -0.1011  0.2991
  286MOL0     C37685   7.983   3.071  10.610 -0.1381 -0.0009  0.2525
  286MOL0     C37686   7.862   3.147  10.607 -0.0371  0.1475 -0.0799
  286MOL0     H37687   7.507   3.449  10.379  1.6578 -2.2776 -0.4150
  286MOL0     H37688   7.290   3.549  10.355  3.8429 -0.0655  4.1156
  286MOL0     H37689   6.914   3.527  10.261  1.8687  1.2163 -1.1099
  286MOL0     H37690   7.090   3.573  10.258  0.3540 -0.9657 -1.8726
  286MOL0     H37691   6.914   3.698  10.411 -2.7373 -1.9737 -2.3449
  286MOL0     H37692   7.068   3.640  10.477 -1.5999  4.3336 -0.3154
  286MOL0     H37693   6.946   3.449  10.573  3.5816  3.5446  0.0253
  286MOL0     H37694   6.810   3.481  10.460 -1.2680 -1.1598  1.4523
  286MOL0     H37695   6.898   3.619  10.714  2.0240  6.2811 -1.8374
  286MOL0     H37696   6.791   3.700  10.605 -0.2290  0.3603  0.4611
  286MOL0     H37697   6.737   3.454  10.775 -0.8099  2.2199  3.3184
  286MOL0     H37698   6.651   3.467  10.622 -2.2556  1.9105  0.8522
  286MOL0     H37699   6.543   3.670  10.705  2.2241  0.3330 -1.5592
  286MOL0     H37700   6.659   3.685  10.838  0.2424  1.2554 -0.9383
  286MOL0     H37701   6.585   3.491  10.945 -0.2955 -2.1178  0.4070
  286MOL0     H37702   6.452   3.612  10.924  0.5425  1.1501 -1.2097
  286MOL0     H37703   6.499   3.347  10.772 -0.2555 -1.6060  1.8343
  286MOL0     H37704   6.395   3.467  10.702 -0.6873  0.8172  0.3473
  286MOL0     H37705   6.265   3.179  10.803 -1.4919 -1.5144  1.4370
  286MOL0     H37706   5.967   3.182  11.059  1.1222  0.5422  1.4781
  286MOL0     H37707   6.106   3.078  11.027 -0.5154  0.7433  2.0118
  286MOL0     H37708   5.886   3.024  10.917 -2.2619  0.5439 -3.1902
  286MOL0     H37709   5.987   3.067  10.787 -2.7656 -0.4794 -1.1786
  286MOL0     H37710   5.819   3.277  10.941 -2.0145 -0.2921  0.6756
  286MOL0     H37711   5.920   3.302  10.798 -0.5995  1.7742  2.1458
  286MOL0     H37712   5.775   3.184  10.659 -0.6903 -2.1897  0.3592
  286MOL0     H37713   5.682   3.296  10.757  0.1213 -0.4046 -0.0148
  286MOL0     H37714   5.507   3.275  10.928 -1.3422  0.3786  0.6253
  286MOL0     H37715   5.262   3.281  10.907 -1.5450  1.5899 -3.9088
  286MOL0     H37716   4.895   3.374  10.964 -2.3451  1.1671  1.8373
  286MOL0     H37717   4.649   3.348  10.971  1.0035  1.5462  0.1910
  286MOL0     H37718   4.417   2.966  10.856  0.1263  0.5181  1.1739
  286MOL0     H37719   4.477   3.064  10.717  3.8843 -0.9599  1.4701
  286MOL0     H37720   4.248   3.076  10.716  3.7769 -1.7530 -0.8326
  286MOL0     H37721   4.316   3.238  10.753  1.1447 -0.3940 -0.7092
  286MOL0     H37722   4.282   3.215  10.989  1.2711 -2.9334  1.1819
  286MOL0     H37723   4.212   3.063  10.989 -2.5604  1.4294  1.4889
  286MOL0     H37724   4.077   3.236  11.029  1.8762  1.3968 -0.2707
  286MOL0     H37725   4.080   3.293  10.860 -1.7597 -2.7814 -2.6297
  286MOL0     H37726   3.971   3.028  10.959 -1.6362 -1.8212 -3.1417
  286MOL0     H37727   4.011   3.045  10.791  1.4873 -0.3299  1.7287
  286MOL0     H37728   3.860   3.258  10.790 -0.4961 -0.4415 -0.3920
  286MOL0     H37729   3.831   3.219  10.956  0.7333  3.3501 -1.4691
  286MOL0     H37730   3.775   3.032  10.711  2.3342  1.8226  0.2168
  286MOL0     H37731   3.717   3.001  10.878  0.8923 -0.2865 -0.0059
  286MOL0     H37732   3.533   3.084  10.745 -1.7167  2.6625 -1.7772
  286MOL0     H37733   3.612   3.232  10.697 -1.1848  1.1694  0.2222
  286MOL0     H37734   4.675   2.941  10.831  0.8697 -0.9020  0.6210
  286MOL0     H37735   4.925   2.981  10.801  3.1770  2.3823  1.0874
  286MOL0     H37736   5.273   2.971  10.612 -3.0434  2.1528  1.1994
  286MOL0     H37737   5.511   2.949  10.639 -0.1393  0.3321 -1.0221
  286MOL0     H37738   7.121   3.142  10.336 -3.2043  3.3898  2.1009
  286MOL0     H37739   7.332   3.056  10.352  0.1640  0.5168 -2.3113
  286MOL0     H37740   7.738   3.019  10.320  0.9430  2.7770 -2.0333
  286MOL0     H37741   7.948   2.903  10.319  2.0478 -0.2453  0.5395
  286MOL0     H37742   8.239   2.919  10.341 -1.0308  2.5782  2.0289
  286MOL0     H37743   8.143   2.778  10.391  1.8289 -0.0789 -3.9075
  286MOL0     H37744   8.411   2.851  10.489 -0.7883  1.4895 -0.5835
  286MOL0     H37745   8.287   2.766  10.591 -0.2405  4.8069  1.1860
  286MOL0     H37746   8.343   2.682  10.315  1.4346  0.8069  0.1351
  286MOL0     H37747   8.266   2.585  10.442  1.4517 -0.7262 -0.3569
  286MOL0     H37748   8.497   2.587  10.556  1.6836  0.4912  0.4663
  286MOL0     H37749   8.492   2.497  10.403 -1.5740  1.8904 -3.7326
  286MOL0     H37750   8.768   2.791  10.300  0.2096 -0.2591  0.2827
  286MOL0     H37751   8.053   3.083  10.692 -1.1301  1.5302  0.9316
  286MOL0     H37752   7.847   3.213  10.692 -0.8821  0.7441 -0.6763
  287MOL0     O37753   3.729  10.180  11.218 -0.0214  0.5517  0.7751
  287MOL0     C37754   3.735  10.117  11.109 -0.0980  0.2103 -0.6939
  287MOL0     O37755   3.631  10.050  11.049 -0.0925  0.4625  0.0712
  287MOL0     C37756   3.533  10.012  11.131  1.0400 -0.9320  0.0075
  287MOL0     C37757   3.537   9.901  11.213 -1.4617  0.2550 -1.0393
  287MOL0     C37758   3.439   9.872  11.309 -0.4585 -0.8710  0.0591
  287MOL0     C37759   3.324   9.964  11.316 -0.1012 -0.0637 -0.5513
  287MOL0     O37760   3.213   9.946  11.393  0.7187  0.2805  0.0206
  287MOL0     C37761   3.216   9.849  11.491 -0.7464  0.5015 -0.5315
  287MOL0     C37762   3.102   9.839  11.584  0.1800 -0.4659 -0.6631
  287MOL0     C37763   2.971   9.800  11.510  0.2888  0.8665 -0.9103
  287MOL0     C37764   2.860   9.775  11.613 -0.2637  0.1496 -0.2891
  287MOL0     C37765   2.735   9.726  11.545 -0.3196 -0.7369  0.2497
  287MOL0     C37766   2.629   9.713  11.648 -0.2147  0.5588 -0.5235
  287MOL0     C37767   2.484   9.706  11.597  0.4667  0.4408 -0.3348
  287MOL0     C37768   2.421   9.810  11.503  0.0435  0.3036  0.4061
  287MOL0     N37769   2.406   9.944  11.565  0.2791 -0.2707  0.7404
  287MOL0     C37770   2.350  10.051  11.491 -0.8079  0.3336  0.6365
  287MOL0     C37771   2.299  10.133  11.574 -0.1759  0.6455  0.4034
  287MOL0     C37772   2.215  10.248  11.541  0.3696 -1.2278 -0.3823
  287MOL0     C37773   2.081  10.215  11.472  0.6322 -0.0713 -0.2581
  287MOL0     C37774   1.984  10.331  11.456 -0.0284 -0.0074 -0.3728
  287MOL0     C37775   1.892  10.341  11.575 -0.4092  0.1802  0.1877
  287MOL0     O37776   1.832  10.206  11.585  0.2678  0.2269 -0.3141
  287MOL0     C37777   1.700  10.205  11.597  0.5737  0.0629 -1.1288
  287MOL0     C37778   1.636  10.174  11.714  1.1379 -0.3098 -0.1676
  287MOL0     C37779   1.500  10.180  11.732  0.3326  0.4671 -0.0976
  287MOL0     C37780   1.418  10.219  11.625  0.3407 -0.2431 -0.4305
  287MOL0     C37781   1.277  10.239  11.643 -0.9601  0.3281 -0.1065
  287MOL0     O37782   1.213  10.214  11.527  0.1536  0.9067 -0.8364
  287MOL0     C37783   1.073  10.198  11.509 -0.5434  0.1735 -0.0981
  287MOL0     C37784   0.998  10.107  11.575  0.0868  0.0667 -0.0472
  287MOL0     C37785   0.863  10.083  11.550  0.7635 -0.4834 -0.4827
  287MOL0     C37786   0.796  10.163  11.452  0.4124 -0.1374  1.0881
  287MOL0     O37787   0.661  10.136  11.435  0.1563 -0.3374  0.1353
  287MOL0     C37788   0.604  10.213  11.321  0.2347 -0.4349  0.2598
  287MOL0     C37789   0.459  10.180  11.319 -0.6680 -0.4225 -0.9285
  287MOL0     C37790   0.384  10.268  11.219 -0.2609 -0.1123 -0.2816
  287MOL0     C37791   0.228  10.226  11.238 -1.0319  0.5207 -1.1361
  287MOL0     C37792   0.147  10.320  11.140  0.4930  0.4981  0.0446
  287MOL0     C37793  -0.002  10.309  11.154 -0.0559 -0.5453 -0.1964
  287MOL0     C37794  -0.055  10.357  11.289  1.1374  0.3071 -0.5985
  287MOL0     C37795  -0.167  10.462  11.273 -0.3856 -0.1353  0.3747
  287MOL0    Cl37796  -0.316  10.384  11.195  0.2458 -0.0875  0.2111
  287MOL0     C37797   0.877  10.252  11.378  0.7725 -0.1581  0.1270
  287MOL0     C37798   1.009  10.264  11.403  0.5903  0.7892  0.3989
  287MOL0     O37799   1.227  10.266  11.755  0.2357  0.1431 -0.1550
  287MOL0     C37800   1.482  10.250  11.505  1.9147 -0.3388 -0.2619
  287MOL0     C37801   1.619  10.234  11.488  0.7837  0.4610  0.7039
  287MOL0     N37802   2.323  10.086  11.704 -0.2784  0.2021 -0.3756
  287MOL0     N37803   2.396   9.978  11.699 -1.1288  1.0487  0.5349
  287MOL0     C37804   3.318  10.074  11.229 -0.2838 -0.4187 -0.1252
  287MOL0     C37805   3.422  10.098  11.134 -0.4665 -0.4279 -0.6311
  287MOL0     C37806   3.854  10.126  11.019  0.3421 -0.0207 -0.0211
  287MOL0     C37807   3.969  10.187  11.070 -0.3640 -0.4864  0.4092
  287MOL0     C37808   4.084  10.219  10.984  0.3269  0.5393  0.3320
  287MOL0     C37809   4.088  10.186  10.850  0.1189  0.8502 -1.1729
  287MOL0     O37810   4.202  10.228  10.791  0.6320  0.8355  0.9766
  287MOL0     C37811   4.226  10.190  10.648  0.3821 -0.9375  0.0066
  287MOL0     C37812   4.147  10.284  10.556  0.8630  0.2321  0.8867
  287MOL0     C37813   4.246  10.401  10.530  0.0682 -0.3702  0.3715
  287MOL0     C37814   4.166  10.523  10.468 -0.4513 -0.8997 -0.5137
  287MOL0     C37815   4.085  10.589  10.578  0.1963 -0.5758 -0.1616
  287MOL0     C37816   4.011  10.626  10.661  0.6532 -0.5339 -0.2593
  287MOL0     C37817   3.976  10.116  10.803  0.2073 -0.3494 -0.2671
  287MOL0     C37818   3.862  10.091  10.878  0.1754 -0.5070 -0.2462
  287MOL0     H37819   3.613   9.826  11.195 -1.5913  0.2115 -1.4234
  287MOL0     H37820   3.447   9.778  11.364  1.6224  0.4533  2.2023
  287MOL0     H37821   3.316   9.862  11.533 -0.2974 -1.5937 -0.8276
  287MOL0     H37822   3.232   9.752  11.442  2.0015  0.2520  0.6744
  287MOL0     H37823   3.086   9.938  11.628  1.1605 -1.0607  1.1072
  287MOL0     H37824   3.132   9.765  11.657 -0.8363 -1.8622 -1.6012
  287MOL0     H37825   2.986   9.703  11.460  1.5282  1.5080 -1.8462
  287MOL0     H37826   2.935   9.877  11.442 -6.1982 -0.6399  0.1662
  287MOL0     H37827   2.894   9.697  11.681  1.3784  0.4418 -0.7278
  287MOL0     H37828   2.839   9.861  11.677  3.3404 -0.2435  1.6588
  287MOL0     H37829   2.755   9.626  11.505  1.2506 -0.0000 -0.9434
  287MOL0     H37830   2.706   9.791  11.463  1.6742 -1.8429 -1.4528
  287MOL0     H37831   2.629   9.795  11.721 -5.4658 -1.4759  2.2958
  287MOL0     H37832   2.643   9.627  11.713  0.1820  2.4961  2.1381
  287MOL0     H37833   2.484   9.610  11.545 -1.8659  0.6853 -0.8666
  287MOL0     H37834   2.419   9.700  11.684  0.8346 -0.2554 -0.1019
  287MOL0     H37835   2.331   9.766  11.460  0.6541 -1.6044  0.9762
  287MOL0     H37836   2.488   9.825  11.418 -2.6127 -1.4033 -2.1506
  287MOL0     H37837   2.353  10.056  11.383  1.4249 -0.9993  0.5744
  287MOL0     H37838   2.281  10.317  11.486 -0.6645 -0.1203 -0.2770
  287MOL0     H37839   2.177  10.297  11.631  0.2909  0.4349 -1.2740
  287MOL0     H37840   2.031  10.123  11.502 -0.0813 -0.8266 -3.4200
  287MOL0     H37841   2.103  10.185  11.369  1.4162 -3.0095  0.6792
  287MOL0     H37842   2.049  10.418  11.448  0.6765 -0.5561 -0.7422
  287MOL0     H37843   1.933  10.317  11.360 -0.4033 -2.1748  0.0895
  287MOL0     H37844   1.824  10.424  11.552  0.9115  0.9912 -0.9258
  287MOL0     H37845   1.942  10.362  11.670  0.3628 -1.3708  0.1549
  287MOL0     H37846   1.691  10.140  11.801  1.0011  0.3548  0.1864
  287MOL0     H37847   1.451  10.155  11.825  0.9069  1.7803  0.5734
  287MOL0     H37848   1.047  10.057  11.658  0.0711  1.7924  1.0671
  287MOL0     H37849   0.802  10.029  11.621  0.0288 -0.3744 -1.0217
  287MOL0     H37850   0.654  10.196  11.225 -1.1060  3.2624 -1.2532
  287MOL0     H37851   0.607  10.320  11.342  0.1977  0.3742 -3.2215
  287MOL0     H37852   0.413  10.198  11.417  1.1219 -0.7472  0.0018
  287MOL0     H37853   0.459  10.072  11.298 -0.4159 -0.5371 -0.3510
  287MOL0     H37854   0.409  10.252  11.114  1.9889 -1.0878  0.3304
  287MOL0     H37855   0.403  10.372  11.250  0.1464 -0.5396  0.9865
  287MOL0     H37856   0.222  10.117  11.228  0.6951  0.1937  0.7144
  287MOL0     H37857   0.187  10.240  11.339 -0.4424 -4.5882  0.0901
  287MOL0     H37858   0.176  10.286  11.040 -0.0115 -1.1305  0.4182
  287MOL0     H37859   0.177  10.424  11.153  1.4876  0.2079  0.1605
  287MOL0     H37860  -0.019  10.201  11.152 -0.9337 -0.3977 -0.9669
  287MOL0     H37861  -0.042  10.361  11.067 -0.7072 -0.7294 -0.0088
  287MOL0     H37862  -0.096  10.268  11.338  1.7631  0.1097 -0.4095
  287MOL0     H37863   0.027  10.395  11.352 -0.6557  1.2157  1.2876
  287MOL0     H37864  -0.144  10.552  11.215 -0.9774 -0.6501 -0.7030
  287MOL0     H37865  -0.203  10.509  11.365  1.3070  1.7286  0.1591
  287MOL0     H37866   0.834  10.318  11.303  1.1580 -2.6444 -2.4586
  287MOL0     H37867   1.064  10.337  11.345  1.3159 -1.5387 -2.0382
  287MOL0     H37868   1.428  10.290  11.420  1.2595  3.0480  1.5849
  287MOL0     H37869   1.662  10.268  11.394 -1.4299  0.2577 -0.4467
  287MOL0     H37870   3.237  10.145  11.240  1.4708  1.2683  3.5321
  287MOL0     H37871   3.411  10.186  11.071  1.5334  1.4049  1.3551
  287MOL0     H37872   3.979  10.214  11.175 -2.4640 -0.1042  0.5442
  287MOL0     H37873   4.176  10.264  11.018  0.7094  0.9274 -1.1316
  287MOL0     H37874   4.195  10.087  10.632 -0.0949 -0.7582 -0.2702
  287MOL0     H37875   4.334  10.205  10.640  0.2087  2.0204  1.5143
  287MOL0     H37876   4.118  10.230  10.466  3.4074  0.9181 -0.4348
  287MOL0     H37877   4.055  10.313  10.607 -0.9643  0.0476 -2.0839
  287MOL0     H37878   4.318  10.374  10.452 -1.1955 -1.8338 -0.3457
  287MOL0     H37879   4.290  10.441  10.621 -0.4686 -1.8418  1.3017
  287MOL0     H37880   4.227  10.603  10.425  0.3208 -0.8993  0.5243
  287MOL0     H37881   4.108  10.476  10.388  1.5070 -0.7318 -2.1015
  287MOL0     H37882   3.952  10.662  10.743 -0.0860 -1.9372 -0.1545
  287MOL0     H37883   3.979  10.083  10.700  2.2340 -1.7529  0.1752
  287MOL0     H37884   3.781  10.045  10.822  0.2939 -1.6979  0.5228
  288MOL0     O37885   7.697   0.174   0.195  0.1124 -0.2356  0.3530
  288MOL0     C37886   7.721   0.077   0.255  0.0451 -0.0325 -0.2897
  288MOL0     O37887   7.697   0.056   0.387 -0.4306  0.2323  0.5077
  288MOL0     C37888   7.590   0.125   0.441  0.3802  0.5389  0.7539
  288MOL0     C37889   7.455   0.099   0.414 -0.3356  0.5263 -0.4486
  288MOL0     C37890   7.353   0.167   0.473  0.8283  0.2991  0.5800
  288MOL0     C37891   7.385   0.272   0.566 -0.3687  0.6921  0.1334
  288MOL0     O37892   7.300   0.364   0.621 -0.0619  0.7042 -0.0227
  288MOL0     C37893   7.174   0.315   0.676 -0.9823 -0.1612  0.4051
  288MOL0     C37894   7.106   0.428   0.747  0.3913  0.3961 -0.3170
  288MOL0     C37895   6.973   0.380   0.813 -0.6477 -0.0711 -0.8268
  288MOL0     C37896   6.870   0.324   0.706 -0.2924 -0.7495  0.1484
  288MOL0     C37897   6.727   0.340   0.747  0.0640 -0.3204 -0.3632
  288MOL0     C37898   6.620   0.329   0.633 -0.6542  0.4845  0.7015
  288MOL0     C37899   6.470   0.320   0.676 -0.5624  0.4328 -0.4411
  288MOL0     C37900   6.429   0.175   0.715 -0.5272  1.4490  0.4570
  288MOL0     N37901   6.280   0.151   0.712  0.0278 -0.3427 -1.1647
  288MOL0     C37902   6.185   0.217   0.774  0.1210  0.5758 -0.7886
  288MOL0     C37903   6.068   0.148   0.763  0.2547  0.4434 -0.4826
  288MOL0     C37904   5.930   0.172   0.818 -0.4389 -0.0316  0.1915
  288MOL0     C37905   5.829   0.110   0.736 -0.9467  0.2824 -0.4505
  288MOL0     C37906   5.690   0.143   0.794 -0.0458 -0.2382  0.2524
  288MOL0     C37907   5.649   0.045   0.899  0.4647 -0.3608 -0.8151
  288MOL0     O37908   5.543  -0.045   0.873 -0.6276  0.5252 -0.2355
  288MOL0     C37909   5.419  -0.020   0.931 -0.3858  0.5302 -0.1250
  288MOL0     C37910   5.388   0.079   1.032 -0.6718 -0.9573 -0.0378
  288MOL0     C37911   5.256   0.097   1.060 -0.3103 -0.5661 -0.4298
  288MOL0     C37912   5.151   0.011   1.008 -0.1667 -0.3821 -0.2992
  288MOL0     C37913   5.011   0.034   1.047  0.2172 -0.4137 -0.1006
  288MOL0     O37914   4.913  -0.036   0.980 -0.8578  0.0720 -0.5747
  288MOL0     C37915   4.783  -0.021   1.008  0.8071  0.5081 -0.3666
  288MOL0     C37916   4.723   0.096   0.964  0.2061 -0.4137 -1.0739
  288MOL0     C37917   4.583   0.111   0.999 -0.5931 -0.8193 -1.4031
  288MOL0     C37918   4.510   0.005   1.056 -0.9101  0.4977 -0.2106
  288MOL0     O37919   4.375   0.014   1.063 -0.7605  0.1579  1.1041
  288MOL0     C37920   4.312   0.070   0.947 -0.1832 -0.2675 -0.6471
  288MOL0     C37921   4.160   0.056   0.963 -0.0146  0.4438  0.4203
  288MOL0     C37922   4.109   0.169   1.057  0.4283 -0.6750 -0.1025
  288MOL0     C37923   3.961   0.142   1.096 -0.0449 -0.2362  0.4362
  288MOL0     C37924   3.914   0.243   1.199 -0.0865 -0.3857 -0.9457
  288MOL0     C37925   3.778   0.203   1.248 -0.4883  0.0362  0.3122
  288MOL0     C37926   3.740   0.282   1.378 -1.0398 -0.2752  0.0163
  288MOL0     C37927   3.596   0.271   1.410  0.1439 -0.4365 -0.0892
  288MOL0    Cl37928   3.562   0.133   1.519 -0.1220  0.2688  0.1837
  288MOL0     C37929   4.573  -0.116   1.093 -0.2614 -0.1862 -0.3818
  288MOL0     C37930   4.714  -0.132   1.066  0.5557  0.2325  0.1359
  288MOL0     O37931   4.991   0.116   1.144  0.5170  0.4122  0.3361
  288MOL0     C37932   5.186  -0.087   0.915 -0.6616  0.2405 -0.2394
  288MOL0     C37933   5.319  -0.108   0.887 -0.1557 -0.5429  0.9730
  288MOL0     N37934   6.103   0.052   0.675 -0.3757  0.0610  0.2324
  288MOL0     N37935   6.222   0.056   0.638  0.8676 -0.5226 -0.2656
  288MOL0     C37936   7.516   0.304   0.596 -0.6478  0.5572 -0.7861
  288MOL0     C37937   7.618   0.229   0.536  1.0089 -0.8346 -0.0198
  288MOL0     C37938   7.779  -0.034   0.183 -0.2161  0.3571 -0.0638
  288MOL0     C37939   7.796  -0.040   0.036  0.0780 -0.3844 -0.4349
  288MOL0     C37940   7.855  -0.143  -0.029 -0.7350  0.3266 -0.0413
  288MOL0     C37941   7.925  -0.240   0.046 -0.2069  0.9705  0.0367
  288MOL0     O37942   7.980  -0.329  -0.033 -0.4879  0.1057 -0.0588
  288MOL0     C37943   8.054  -0.432   0.039  0.0001 -0.0140  1.0547
  288MOL0     C37944   8.104  -0.527  -0.063 -0.1573 -0.6106 -0.1286
  288MOL0     C37945   8.233  -0.473  -0.133 -0.6935 -0.2788 -0.8718
  288MOL0     C37946   8.351  -0.496  -0.043 -0.7609  0.2959  0.0474
  288MOL0     C37947   8.476  -0.475  -0.109  0.2015 -0.4747 -0.0940
  288MOL0     C37948   8.570  -0.488  -0.189 -0.0634 -0.2288 -0.1951
  288MOL0     C37949   7.922  -0.233   0.188 -0.0872 -0.9691 -0.9513
  288MOL0     C37950   7.841  -0.136   0.251  0.1327  0.2757  0.0271
  288MOL0     H37951   7.429   0.017   0.347  0.0371 -1.4870  1.7254
  288MOL0     H37952   7.250   0.147   0.444  0.4033  0.9562  1.5631
  288MOL0     H37953   7.190   0.234   0.748 -3.0702 -1.5066 -0.5091
  288MOL0     H37954   7.106   0.287   0.595 -1.9851  1.4448  0.6505
  288MOL0     H37955   7.084   0.514   0.684 -0.6547  0.5038  0.1776
  288MOL0     H37956   7.176   0.465   0.823  2.5088 -2.9138 -0.4720
  288MOL0     H37957   6.925   0.451   0.881 -0.1188 -2.0648  1.7996
  288MOL0     H37958   6.995   0.303   0.887 -1.7867  0.1452 -0.2457
  288MOL0     H37959   6.885   0.377   0.611  3.5848  1.0353  1.5501
  288MOL0     H37960   6.884   0.218   0.684  1.0510 -0.1326 -2.3368
  288MOL0     H37961   6.701   0.431   0.802 -2.0067 -1.7042  1.1279
  288MOL0     H37962   6.697   0.263   0.819  1.2244 -1.3586 -0.9695
  288MOL0     H37963   6.643   0.248   0.564 -1.2631  0.5121  0.4550
  288MOL0     H37964   6.621   0.421   0.573 -1.3933  0.1261  0.1198
  288MOL0     H37965   6.451   0.387   0.760 -0.5232  1.1700 -1.0040
  288MOL0     H37966   6.409   0.357   0.593 -0.2703  3.4049  0.5285
  288MOL0     H37967   6.460   0.146   0.816 -1.3577 -1.3919 -0.0161
  288MOL0     H37968   6.468   0.094   0.653  2.8328  2.1624  1.4428
  288MOL0     H37969   6.199   0.304   0.837  0.0618 -0.0841  0.1703
  288MOL0     H37970   5.922   0.281   0.826  0.8196 -0.0126  1.6820
  288MOL0     H37971   5.917   0.140   0.922 -1.2240 -1.1987 -0.2432
  288MOL0     H37972   5.848   0.002   0.739  4.2478  0.7861 -3.3877
  288MOL0     H37973   5.832   0.149   0.634 -1.7407  1.3669 -0.0827
  288MOL0     H37974   5.687   0.248   0.825  1.0722  0.5515 -2.0906
  288MOL0     H37975   5.612   0.128   0.719 -1.5657 -2.5220  2.1200
  288MOL0     H37976   5.634   0.105   0.989 -1.9301 -0.6901 -0.9308
  288MOL0     H37977   5.729  -0.024   0.927  1.3505  0.7553 -0.5454
  288MOL0     H37978   5.456   0.152   1.073 -1.5256  0.5426 -1.1634
  288MOL0     H37979   5.232   0.187   1.116  0.4046 -0.6720  0.0613
  288MOL0     H37980   4.784   0.171   0.915  1.2506  0.8793  1.9697
  288MOL0     H37981   4.534   0.205   0.975  0.7458  0.1374 -0.5461
  288MOL0     H37982   4.350   0.017   0.860 -1.1186 -0.4128 -0.9766
  288MOL0     H37983   4.336   0.174   0.925 -0.0770  0.0913  1.0071
  288MOL0     H37984   4.145  -0.039   1.015  0.4292  0.6768  0.9881
  288MOL0     H37985   4.112   0.059   0.865  2.6660 -0.8516 -1.0677
  288MOL0     H37986   4.104   0.257   0.993 -2.0487 -1.8696 -1.7082
  288MOL0     H37987   4.160   0.189   1.152 -3.8485  0.6966  2.1914
  288MOL0     H37988   3.902   0.130   1.005 -0.5652 -2.1712  0.9702
  288MOL0     H37989   3.957   0.041   1.139  1.5541  0.0744  1.4290
  288MOL0     H37990   3.918   0.344   1.157 -1.5789  0.0074 -0.2226
  288MOL0     H37991   3.985   0.243   1.282  2.6942  2.4589 -3.0670
  288MOL0     H37992   3.765   0.097   1.271 -0.1809  0.0295  0.4563
  288MOL0     H37993   3.703   0.243   1.178 -1.7494  0.1775  1.7009
  288MOL0     H37994   3.802   0.249   1.462 -0.9294  0.2346  0.1404
  288MOL0     H37995   3.763   0.385   1.351  1.3703 -1.8027 -5.0123
  288MOL0     H37996   3.534   0.247   1.323  0.5819  0.8677 -0.7792
  288MOL0     H37997   3.567   0.367   1.454  0.4779 -1.1345  1.7742
  288MOL0     H37998   4.512  -0.196   1.134  1.4376 -1.0160  0.6438
  288MOL0     H37999   4.760  -0.225   1.097 -1.8596 -1.4158 -0.8938
  288MOL0     H38000   5.106  -0.146   0.874 -1.0135  2.5814 -3.2694
  288MOL0     H38001   5.337  -0.188   0.816  2.3135  2.7300 -2.5165
  288MOL0     H38002   7.535   0.382   0.670  1.8274  0.7233 -1.5053
  288MOL0     H38003   7.723   0.251   0.553  1.5491 -0.3620 -3.2110
  288MOL0     H38004   7.756   0.043  -0.022 -1.4006 -0.4858  0.3910
  288MOL0     H38005   7.865  -0.138  -0.137  1.3778  2.2687  0.1651
  288MOL0     H38006   7.984  -0.492   0.098 -0.7939 -1.2052 -0.9924
  288MOL0     H38007   8.138  -0.404   0.103 -0.5272  0.7542  1.4223
  288MOL0     H38008   8.126  -0.620  -0.010  4.0409 -0.0358 -0.5632
  288MOL0     H38009   8.030  -0.530  -0.144  2.0249  1.6517 -2.3944
  288MOL0     H38010   8.212  -0.369  -0.162  1.0544 -0.3685 -2.6490
  288MOL0     H38011   8.250  -0.529  -0.225 -3.4160  1.7751 -2.7782
  288MOL0     H38012   8.345  -0.437   0.049 -2.2746 -1.0667  0.8742
  288MOL0     H38013   8.351  -0.598  -0.003 -1.9516 -0.3394 -1.4556
  288MOL0     H38014   8.641  -0.498  -0.268 -2.1251 -3.2161 -1.8866
  288MOL0     H38015   7.981  -0.303   0.247 -0.1411  1.1472  1.7607
  288MOL0     H38016   7.845  -0.145   0.359  2.7147 -0.6101 -0.0741
  289MOL0     O38017   8.813   6.397   8.998 -0.1256  0.2992 -0.3702
  289MOL0     C38018   8.804   6.369   8.879  0.4824  0.9848  1.2050
  289MOL0     O38019   8.688   6.383   8.804 -0.1552  0.0457 -0.9071
  289MOL0     C38020   8.572   6.419   8.868  0.3354  0.0923 -0.5294
  289MOL0     C38021   8.529   6.553   8.857 -0.0208  0.0666 -0.1280
  289MOL0     C38022   8.408   6.581   8.918  0.0222 -0.2551  0.1970
  289MOL0     C38023   8.331   6.487   8.985  0.4268  0.4335 -0.5473
  289MOL0     O38024   8.202   6.515   9.025 -0.1369 -0.0333 -1.0285
  289MOL0     C38025   8.108   6.413   9.005 -0.3493 -0.4660 -0.0129
  289MOL0     C38026   7.960   6.464   8.989 -0.3644 -0.0757 -0.5769
  289MOL0     C38027   7.922   6.548   9.113  1.0431 -0.6077 -0.1364
  289MOL0     C38028   7.780   6.606   9.100 -0.3183  0.9328 -0.1204
  289MOL0     C38029   7.743   6.725   9.193 -1.1910 -0.7061  0.3499
  289MOL0     C38030   7.691   6.689   9.332  0.2351 -0.7514  0.0121
  289MOL0     C38031   7.630   6.809   9.393  0.0658 -0.6891 -0.1789
  289MOL0     C38032   7.579   6.800   9.541  0.8417 -0.5569  1.3823
  289MOL0     N38033   7.448   6.731   9.537 -0.7665  0.9458 -0.7096
  289MOL0     C38034   7.432   6.593   9.553 -0.1761  0.8471 -0.8577
  289MOL0     C38035   7.299   6.578   9.559  0.1944  0.2884 -0.8028
  289MOL0     C38036   7.222   6.454   9.579 -0.5679 -0.6546 -0.0230
  289MOL0     C38037   7.173   6.409   9.448  0.5164  1.1608  0.4603
  289MOL0     C38038   7.119   6.260   9.470  0.2726  0.1714  0.3040
  289MOL0     C38039   6.968   6.253   9.476  0.1765 -0.1274 -1.1273
  289MOL0     O38040   6.926   6.301   9.607  0.3795  0.2058  0.7712
  289MOL0     C38041   6.793   6.312   9.619  0.5367  0.3073 -0.1035
  289MOL0     C38042   6.715   6.200   9.654 -0.3742 -0.5268  0.3976
  289MOL0     C38043   6.573   6.218   9.660  0.6538  0.5798  0.6340
  289MOL0     C38044   6.516   6.345   9.644  0.8193 -0.2263  0.4967
  289MOL0     C38045   6.366   6.369   9.650  0.4467  0.2413 -0.7397
  289MOL0     O38046   6.309   6.489   9.621  0.0558  0.6536  0.0267
  289MOL0     C38047   6.171   6.520   9.626 -1.2536  0.2892 -0.1733
  289MOL0     C38048   6.104   6.474   9.738  0.6113 -0.8212 -0.0107
  289MOL0     C38049   5.963   6.502   9.743  0.0574 -0.1226  1.3601
  289MOL0     C38050   5.899   6.582   9.640  0.4956  0.5472  0.4278
  289MOL0     O38051   5.765   6.621   9.662 -0.2140 -0.2489 -0.4823
  289MOL0     C38052   5.694   6.707   9.566 -0.4333  0.8079 -1.0254
  289MOL0     C38053   5.551   6.715   9.617  0.8900 -0.9230  0.4334
  289MOL0     C38054   5.455   6.790   9.518 -0.4833  0.1015 -0.5126
  289MOL0     C38055   5.306   6.755   9.543  0.1770  0.4348  0.1721
  289MOL0     C38056   5.239   6.815   9.414 -0.6350 -0.0771 -0.1269
  289MOL0     C38057   5.100   6.769   9.400  0.1153  0.5177 -0.7775
  289MOL0     C38058   5.078   6.624   9.367  0.4219 -0.2150  0.4130
  289MOL0     C38059   4.946   6.606   9.295 -0.2899 -0.0621  0.0358
  289MOL0    Cl38060   4.942   6.690   9.142 -0.3787 -0.2637 -0.3872
  289MOL0     C38061   5.985   6.625   9.531 -0.5212  1.0242 -0.4910
  289MOL0     C38062   6.118   6.597   9.522 -0.3756  0.3673 -0.3373
  289MOL0     O38063   6.307   6.278   9.709 -0.3469 -0.5413  0.7213
  289MOL0     C38064   6.599   6.453   9.609  0.5290 -0.9274  0.6758
  289MOL0     C38065   6.733   6.439   9.602  0.8489 -0.2784  0.2166
  289MOL0     N38066   7.236   6.705   9.554 -0.4297  0.4933  0.3063
  289MOL0     N38067   7.329   6.798   9.545  0.3051  0.0642  0.7201
  289MOL0     C38068   8.379   6.359   9.008 -0.2425  0.3110 -0.0747
  289MOL0     C38069   8.502   6.324   8.943  0.7509 -0.1688  0.5277
  289MOL0     C38070   8.921   6.322   8.792 -0.7946 -0.3110 -0.2502
  289MOL0     C38071   8.912   6.270   8.660 -0.0666  0.1024 -0.2799
  289MOL0     C38072   9.026   6.238   8.585 -1.4124  0.2953  0.5828
  289MOL0     C38073   9.158   6.258   8.638 -0.3476 -0.6241  0.9785
  289MOL0     O38074   9.282   6.241   8.577  0.0662 -0.2659 -0.0608
  289MOL0     C38075   9.277   6.209   8.435  0.2272 -0.7750 -1.3393
  289MOL0     C38076   9.407   6.192   8.367 -0.6728 -0.0448 -0.2604
  289MOL0     C38077   9.460   6.048   8.389 -0.5240  0.2190 -0.3917
  289MOL0     C38078   9.608   6.033   8.374  1.0538  0.3171 -0.9772
  289MOL0     C38079   9.675   6.100   8.270 -0.1342 -0.7827 -1.0959
  289MOL0     C38080   9.722   6.160   8.181 -0.6775  0.3225  0.2480
  289MOL0     C38081   9.168   6.320   8.761 -0.1773  0.0993 -0.3251
  289MOL0     C38082   9.055   6.336   8.838  0.7278  0.2548  0.5540
  289MOL0     H38083   8.583   6.615   8.787  1.9245 -2.6030 -1.1678
  289MOL0     H38084   8.370   6.682   8.904  2.2072  0.3566 -1.8587
  289MOL0     H38085   8.109   6.342   9.089 -2.6839  0.3805  0.8052
  289MOL0     H38086   8.141   6.362   8.914 -0.8088 -0.4353 -0.2041
  289MOL0     H38087   7.893   6.378   8.986  1.6496 -1.7052 -1.2667
  289MOL0     H38088   7.939   6.518   8.896 -2.2127 -1.2241 -0.8716
  289MOL0     H38089   7.995   6.629   9.123 -0.5027  0.8337  0.0346
  289MOL0     H38090   7.912   6.495   9.208 -3.5280  0.5392  0.2947
  289MOL0     H38091   7.775   6.636   8.995  2.7011  1.3521 -0.2354
  289MOL0     H38092   7.709   6.523   9.110 -1.3826  2.0408  2.5766
  289MOL0     H38093   7.658   6.774   9.145 -0.2088 -1.4506 -2.3471
  289MOL0     H38094   7.820   6.803   9.189  0.7993 -2.5558  0.6638
  289MOL0     H38095   7.776   6.653   9.391 -1.9950 -4.3023  1.3687
  289MOL0     H38096   7.613   6.613   9.327  0.1127 -0.5904 -0.6339
  289MOL0     H38097   7.697   6.895   9.392 -1.8995  0.9222 -0.8778
  289MOL0     H38098   7.544   6.839   9.332  1.3942  3.5223 -0.3073
  289MOL0     H38099   7.584   6.895   9.594  4.1932  0.4068 -0.4011
  289MOL0     H38100   7.664   6.757   9.594  2.2237 -0.8348 -0.9602
  289MOL0     H38101   7.513   6.522   9.562 -0.5674  0.7183  3.2062
  289MOL0     H38102   7.133   6.483   9.636 -2.9220 -1.1607 -3.1584
  289MOL0     H38103   7.289   6.379   9.622 -1.4184 -1.3231  0.1657
  289MOL0     H38104   7.248   6.408   9.369 -0.1899 -2.4154 -0.3160
  289MOL0     H38105   7.093   6.476   9.413  2.6727  3.2007 -0.8889
  289MOL0     H38106   7.151   6.189   9.393 -0.3356 -1.6762  1.6707
  289MOL0     H38107   7.157   6.227   9.568 -2.8972 -1.4010  1.1655
  289MOL0     H38108   6.921   6.156   9.457  2.3924 -1.0430 -2.3234
  289MOL0     H38109   6.932   6.323   9.400  3.1522  0.1987 -2.3508
  289MOL0     H38110   6.754   6.105   9.688 -3.4998 -1.9466  0.3234
  289MOL0     H38111   6.509   6.135   9.690 -0.8067  0.3975 -2.6221
  289MOL0     H38112   6.153   6.418   9.817  0.8894 -1.6485 -0.7587
  289MOL0     H38113   5.909   6.464   9.829 -0.1379  2.7459  2.6173
  289MOL0     H38114   5.707   6.660   9.468 -0.3835 -1.5228  0.0378
  289MOL0     H38115   5.736   6.808   9.564 -0.3599  0.7709 -2.0842
  289MOL0     H38116   5.540   6.760   9.716 -0.4428  0.9075 -0.4972
  289MOL0     H38117   5.507   6.615   9.630  0.1758 -0.5065  1.3428
  289MOL0     H38118   5.487   6.756   9.419 -0.9741 -1.4976 -0.1508
  289MOL0     H38119   5.467   6.898   9.530 -3.2673  0.7182 -2.3071
  289MOL0     H38120   5.288   6.647   9.554 -0.5368  0.7495  2.7273
  289MOL0     H38121   5.269   6.796   9.637  1.0192 -1.5383  1.4311
  289MOL0     H38122   5.295   6.787   9.324  1.1770  0.2848  0.8389
  289MOL0     H38123   5.247   6.924   9.411  1.5088 -0.1387  1.4151
  289MOL0     H38124   5.040   6.839   9.341 -1.1894 -0.1455 -0.2960
  289MOL0     H38125   5.064   6.781   9.503  2.5725  1.3945  0.0344
  289MOL0     H38126   5.159   6.590   9.302  0.3223  2.6624 -1.3958
  289MOL0     H38127   5.081   6.573   9.464  0.8651  0.7895  0.9408
  289MOL0     H38128   4.870   6.634   9.368  1.8513  3.2987  1.2152
  289MOL0     H38129   4.938   6.499   9.272 -2.4145 -0.0187  0.3413
  289MOL0     H38130   5.947   6.687   9.450 -1.4224  3.0756  1.3800
  289MOL0     H38131   6.180   6.624   9.438 -0.6092 -1.8775 -1.2892
  289MOL0     H38132   6.564   6.553   9.585  2.0786 -0.7959 -1.3472
  289MOL0     H38133   6.792   6.527   9.580 -0.4948  0.5721 -0.1201
  289MOL0     H38134   8.333   6.281   9.068  0.8771 -1.7504 -1.7690
  289MOL0     H38135   8.540   6.223   8.951  0.8484 -0.1822 -0.0539
  289MOL0     H38136   8.815   6.277   8.612  0.7280  2.3242 -1.7504
  289MOL0     H38137   9.007   6.211   8.482  0.4324  1.5456 -0.1472
  289MOL0     H38138   9.230   6.297   8.390  0.5881  0.7455  1.0909
  289MOL0     H38139   9.223   6.114   8.428 -0.0222 -0.9961  1.8974
  289MOL0     H38140   9.394   6.196   8.258 -1.6243 -1.4585 -0.2276
  289MOL0     H38141   9.480   6.260   8.412  0.7042 -1.0794 -0.8884
  289MOL0     H38142   9.412   5.971   8.327 -0.0489 -1.1726  0.8888
  289MOL0     H38143   9.436   6.018   8.491 -2.7084  1.1404 -0.5884
  289MOL0     H38144   9.657   6.068   8.466  1.3736 -2.6526  0.0895
  289MOL0     H38145   9.628   5.926   8.380  0.3371  0.2223 -0.1716
  289MOL0     H38146   9.752   6.230   8.105 -2.0226  0.5416 -0.1042
  289MOL0     H38147   9.267   6.337   8.802 -1.4917  0.8515  2.7355
  289MOL0     H38148   9.075   6.388   8.931 -0.0412  2.2210 -0.3214
  290MOL0     O38149   9.937   9.605   2.369  0.2240  0.0083  0.3642
  290MOL0     C38150  10.053   9.638   2.348 -0.8130  0.9245 -1.4291
  290MOL0     O38151  10.079   9.739   2.254  1.2256  0.7175 -0.3785
  290MOL0     C38152   9.984   9.747   2.155 -0.2640 -0.1644 -0.4512
  290MOL0     C38153   9.974   9.658   2.044 -0.1780 -0.4488  0.0753
  290MOL0     C38154   9.866   9.666   1.951 -0.4871  0.0990  0.1925
  290MOL0     C38155   9.777   9.768   1.956  0.4631  0.1355  0.4236
  290MOL0     O38156   9.683   9.779   1.860  0.2419 -0.1043  0.0289
  290MOL0     C38157   9.584   9.882   1.870  0.0284 -0.4738 -1.2578
  290MOL0     C38158   9.516   9.883   1.737  0.2417  0.1980 -0.2220
  290MOL0     C38159   9.414   9.998   1.712  1.0426 -0.2473  0.1268
  290MOL0     C38160   9.277   9.974   1.785  0.1447 -0.0298 -0.2430
  290MOL0     C38161   9.191  10.100   1.779 -0.4706  0.0550  0.0658
  290MOL0     C38162   9.047  10.070   1.834 -0.1041 -0.0008 -0.0649
  290MOL0     C38163   8.957  10.186   1.789  0.1664  0.1368  0.5181
  290MOL0     C38164   8.838  10.211   1.885 -0.0170 -0.0714 -0.2132
  290MOL0     N38165   8.764  10.332   1.834 -0.8681 -0.3123 -0.3814
  290MOL0     C38166   8.790  10.460   1.871  0.3155 -0.2994 -0.4632
  290MOL0     C38167   8.731  10.532   1.774  0.4614 -0.0261  0.2651
  290MOL0     C38168   8.733  10.677   1.760 -0.4455  0.4333  0.1450
  290MOL0     C38169   8.598  10.731   1.717  0.2187 -0.4792 -0.1744
  290MOL0     C38170   8.583  10.887   1.733  0.0972  0.1588 -0.2536
  290MOL0     C38171   8.439  10.932   1.689 -0.8462  0.4105 -0.8530
  290MOL0     O38172   8.403  10.881   1.562 -0.0143 -0.6808 -0.5142
  290MOL0     C38173   8.272  10.855   1.527  0.7544  0.4155  0.1063
  290MOL0     C38174   8.252  10.760   1.426 -0.3739 -0.5728  0.4064
  290MOL0     C38175   8.131  10.748   1.364 -0.3894  0.3258 -0.1032
  290MOL0     C38176   8.020  10.815   1.416  0.0201  0.4180  1.0514
  290MOL0     C38177   7.889  10.818   1.348  0.4324  0.2490 -0.3883
  290MOL0     O38178   7.810  10.923   1.381  0.2189  0.2922  0.2723
  290MOL0     C38179   7.682  10.912   1.332 -0.2808  0.2703  0.0736
  290MOL0     C38180   7.659  11.000   1.226 -0.3978 -0.2348 -0.3895
  290MOL0     C38181   7.529  11.011   1.180 -0.6154 -0.4701 -0.1585
  290MOL0     C38182   7.424  10.937   1.238 -0.1898 -0.1333 -0.1889
  290MOL0     O38183   7.305  10.977   1.194  0.3849  0.5368  0.5353
  290MOL0     C38184   7.191  10.933   1.252 -0.3520  0.4135  0.2795
  290MOL0     C38185   7.160  11.034   1.362  0.4483  0.2158 -0.3999
  290MOL0     C38186   7.122  11.161   1.293 -0.2981  0.4684 -0.5010
  290MOL0     C38187   7.022  11.241   1.378  0.0209 -0.2885 -0.8107
  290MOL0     C38188   6.962  11.362   1.314 -0.3072 -1.0140 -0.2202
  290MOL0     C38189   7.061  11.476   1.281 -0.2201 -0.4175 -0.5183
  290MOL0     C38190   7.138  11.537   1.405  0.1781 -0.1530  0.4643
  290MOL0     C38191   7.058  11.585   1.523  0.4485  0.2834 -0.4850
  290MOL0    Cl38192   7.180  11.613   1.647 -0.7279 -0.1106  0.0343
  290MOL0     C38193   7.455  10.843   1.343 -0.5632 -0.0983 -0.2614
  290MOL0     C38194   7.583  10.829   1.397  0.2165 -0.9384 -0.2810
  290MOL0     O38195   7.853  10.731   1.268 -1.2117 -0.0379 -0.4469
  290MOL0     C38196   8.034  10.901   1.531 -0.9635  0.5974 -0.8632
  290MOL0     C38197   8.160  10.923   1.584 -0.0013 -0.4987  1.2414
  290MOL0     N38198   8.663  10.447   1.684 -0.5074 -0.3508  0.1134
  290MOL0     N38199   8.681  10.325   1.725  0.2779 -0.7259 -0.4206
  290MOL0     C38200   9.792   9.857   2.063  0.1546  0.5046  0.6142
  290MOL0     C38201   9.895   9.856   2.155  0.1253  0.2698 -0.0898
  290MOL0     C38202  10.157   9.565   2.428  0.5069 -0.5762 -0.3030
  290MOL0     C38203  10.124   9.468   2.526 -0.2758 -0.3543 -0.8897
  290MOL0     C38204  10.225   9.419   2.615 -0.7521  0.1236  0.0314
  290MOL0     C38205  10.359   9.467   2.609 -1.2275  0.1425  0.3638
  290MOL0     O38206  10.473   9.423   2.680 -0.1707  0.9163  0.0668
  290MOL0     C38207  10.449   9.362   2.808 -0.1454  1.0736 -0.5365
  290MOL0     C38208  10.579   9.385   2.880 -0.2668  0.4977 -0.2416
  290MOL0     C38209  10.576   9.299   3.015  0.1448 -1.9988  0.5183
  290MOL0     C38210  10.649   9.377   3.129 -0.1713 -0.2346  0.1035
  290MOL0     C38211  10.789   9.399   3.103 -0.3165 -0.2032 -1.3438
  290MOL0     C38212  10.907   9.417   3.097  0.9446  1.1667 -0.8628
  290MOL0     C38213  10.390   9.545   2.497 -0.4240 -1.1291 -0.9669
  290MOL0     C38214  10.290   9.596   2.413  0.1347 -0.4307  0.4327
  290MOL0     H38215  10.044   9.576   2.034  0.3711 -0.2040  1.6612
  290MOL0     H38216   9.858   9.588   1.876  1.3163 -0.5098  0.5870
  290MOL0     H38217   9.623   9.984   1.869  1.8512 -1.1096 -0.1619
  290MOL0     H38218   9.515   9.855   1.950 -0.8108 -0.2846 -1.9075
  290MOL0     H38219   9.465   9.789   1.712 -2.5430  1.5661 -0.1390
  290MOL0     H38220   9.593   9.895   1.660 -0.4882  2.6644 -0.6502
  290MOL0     H38221   9.384  10.012   1.608  0.7129  3.7941  0.6044
  290MOL0     H38222   9.453  10.096   1.741 -1.0933  0.8243 -0.4125
  290MOL0     H38223   9.229   9.884   1.747  0.7917 -2.3235  3.7296
  290MOL0     H38224   9.308   9.951   1.888  4.0313  0.8457 -1.0574
  290MOL0     H38225   9.192  10.148   1.680  1.3464  1.1888  0.5749
  290MOL0     H38226   9.234  10.172   1.849 -0.0793 -0.4620  0.3619
  290MOL0     H38227   9.045  10.043   1.940 -0.4616  0.1217 -0.0397
  290MOL0     H38228   9.019   9.981   1.777  0.5481 -0.4953  0.3653
  290MOL0     H38229   9.010  10.282   1.788 -0.5434  0.5596  1.4258
  290MOL0     H38230   8.920  10.167   1.688 -2.2948  0.5858  1.2905
  290MOL0     H38231   8.873  10.225   1.987  0.9515 -0.4030 -0.4935
  290MOL0     H38232   8.785  10.115   1.885  2.9031 -1.9090  2.7116
  290MOL0     H38233   8.848  10.514   1.945  2.7191 -1.7782 -1.1661
  290MOL0     H38234   8.801  10.705   1.678 -1.2392  0.5047 -0.5048
  290MOL0     H38235   8.765  10.714   1.858 -1.1928 -3.5526  2.1008
  290MOL0     H38236   8.517  10.686   1.775  0.7970  1.5004  2.4235
  290MOL0     H38237   8.581  10.685   1.620 -0.4568 -0.5839 -0.0124
  290MOL0     H38238   8.599  10.915   1.837  1.0799  2.2613 -0.9168
  290MOL0     H38239   8.653  10.941   1.669  2.3037  1.9122  3.3290
  290MOL0     H38240   8.441  11.041   1.684 -1.0863  0.5929  1.7379
  290MOL0     H38241   8.365  10.901   1.764  1.0529 -2.7334 -0.0731
  290MOL0     H38242   8.326  10.698   1.376 -1.1317 -1.1666 -0.0018
  290MOL0     H38243   8.130  10.678   1.281  1.7608 -0.4318  0.4442
  290MOL0     H38244   7.734  11.068   1.187 -3.5393  3.0921 -1.2354
  290MOL0     H38245   7.508  11.078   1.097  0.5263 -1.0073 -0.9175
  290MOL0     H38246   7.198  10.833   1.297 -0.4784  0.6171  0.7616
  290MOL0     H38247   7.106  10.940   1.183 -1.3299 -5.0140  0.4456
  290MOL0     H38248   7.242  11.054   1.432  0.5700 -0.8358 -0.2230
  290MOL0     H38249   7.069  11.003   1.415 -0.6058  2.0704 -1.0177
  290MOL0     H38250   7.090  11.139   1.191  2.9381 -1.2707 -1.2772
  290MOL0     H38251   7.212  11.222   1.277  0.9311 -0.2301  3.0038
  290MOL0     H38252   6.939  11.173   1.396  0.9273 -1.6017 -1.4702
  290MOL0     H38253   7.069  11.274   1.472  1.8959 -0.9924 -1.4437
  290MOL0     H38254   6.884  11.410   1.374  0.0379  0.2117 -0.7069
  290MOL0     H38255   6.916  11.324   1.222  0.2716 -0.7769 -0.6124
  290MOL0     H38256   6.996  11.553   1.238 -0.3687 -1.0156 -1.3790
  290MOL0     H38257   7.135  11.440   1.210  0.8266 -1.7825  1.1985
  290MOL0     H38258   7.209  11.461   1.437  2.7177  1.5820 -0.7616
  290MOL0     H38259   7.201  11.620   1.371 -1.7460  0.1996 -2.6972
  290MOL0     H38260   6.999  11.497   1.548 -1.3044  1.4183 -0.5017
  290MOL0     H38261   6.992  11.668   1.499  0.5836  1.2607  2.1860
  290MOL0     H38262   7.375  10.791   1.395 -0.6506 -0.9833 -1.2441
  290MOL0     H38263   7.610  10.760   1.477  0.4950 -2.9238 -1.9971
  290MOL0     H38264   7.958  10.964   1.576 -1.0989  1.6193 -2.4315
  290MOL0     H38265   8.171  11.005   1.654  1.3308  1.9183 -1.5620
  290MOL0     H38266   9.724   9.940   2.077 -2.1517 -1.4296  1.7212
  290MOL0     H38267   9.905   9.933   2.231  1.6048 -0.2684  0.2975
  290MOL0     H38268  10.024   9.440   2.555 -0.2219  0.2858 -0.0222
  290MOL0     H38269  10.195   9.352   2.695  2.0886  0.2561  1.3269
  290MOL0     H38270  10.413   9.261   2.791 -3.0097  2.2061 -1.8726
  290MOL0     H38271  10.368   9.410   2.863 -0.7523  0.2731 -0.7182
  290MOL0     H38272  10.659   9.347   2.816  2.3271  1.6489  2.1052
  290MOL0     H38273  10.603   9.490   2.902  0.3293 -0.2146  3.0499
  290MOL0     H38274  10.617   9.199   2.999 -0.5816 -1.9226 -2.4271
  290MOL0     H38275  10.473   9.291   3.051 -0.7619  2.9446 -0.2073
  290MOL0     H38276  10.589   9.467   3.147 -0.0331  0.1078 -1.0893
  290MOL0     H38277  10.644   9.324   3.224 -2.8239 -0.1573  0.0762
  290MOL0     H38278  11.013   9.434   3.101  0.7848  1.9629  0.9746
  290MOL0     H38279  10.494   9.570   2.482 -0.2997 -0.6538  0.4686
  290MOL0     H38280  10.324   9.653   2.327 -0.1969  0.0853  0.6400
  291MOL0     O38281   0.025   3.020   4.923  0.0637 -0.8685 -0.6314
  291MOL0     C38282   0.068   2.944   5.014  0.3968  0.4072  0.4201
  291MOL0     O38283  -0.009   2.893   5.107  0.4280  0.4619 -0.1958
  291MOL0     C38284  -0.138   2.925   5.142 -0.3659  0.4607  0.6284
  291MOL0     C38285  -0.203   2.818   5.206  0.4149 -0.2899  0.8522
  291MOL0     C38286  -0.331   2.832   5.250 -0.4492  0.6311  0.0098
  291MOL0     C38287  -0.397   2.952   5.227  0.1031 -0.7025  0.1547
  291MOL0     O38288  -0.530   2.960   5.267 -0.5237 -0.2331  0.9097
  291MOL0     C38289  -0.602   3.082   5.251  0.6708 -0.1937 -0.0409
  291MOL0     C38290  -0.744   3.067   5.312  0.3302  0.0650 -0.2709
  291MOL0     C38291  -0.834   3.190   5.286 -0.2804 -0.5825  0.0062
  291MOL0     C38292  -0.895   3.194   5.143  0.5090 -0.1137  0.4119
  291MOL0     C38293  -0.950   3.337   5.126  0.5206  0.2337 -0.1956
  291MOL0     C38294  -1.006   3.355   4.990 -0.4307 -0.4785 -0.0932
  291MOL0     C38295  -1.037   3.501   4.966  1.0139 -1.0001 -0.3515
  291MOL0     C38296  -1.088   3.530   4.822  0.8897  0.3621  0.0833
  291MOL0     N38297  -1.227   3.574   4.823 -0.1011  0.4148  0.0253
  291MOL0     C38298  -1.269   3.700   4.804  0.8235 -0.1121  0.0947
  291MOL0     C38299  -1.401   3.695   4.797 -0.3640  0.1057  0.1707
  291MOL0     C38300  -1.482   3.802   4.741 -0.4282 -0.2421  1.3022
  291MOL0     C38301  -1.585   3.847   4.842  0.0118  0.0422 -0.1161
  291MOL0     C38302  -1.645   3.987   4.797 -0.2962 -0.1502  0.0935
  291MOL0     C38303  -1.761   4.039   4.886 -0.0974  0.4754  0.0395
  291MOL0     O38304  -1.871   3.949   4.870 -0.6097  0.6211 -0.5574
  291MOL0     C38305  -1.989   3.967   4.932 -0.4549  0.6234  1.4184
  291MOL0     C38306  -2.008   4.067   5.024 -0.0746 -0.3831  0.2370
  291MOL0     C38307  -2.134   4.086   5.076  0.6113 -0.1576 -0.2068
  291MOL0     C38308  -2.233   3.988   5.064 -0.3257  0.5960 -0.2480
  291MOL0     C38309  -2.351   3.993   5.151  0.2096  0.9409  0.3943
  291MOL0     O38310  -2.403   3.875   5.197  0.5650 -0.0889 -0.0857
  291MOL0     C38311  -2.506   3.866   5.284  0.3022  0.0982  0.5145
  291MOL0     C38312  -2.618   3.790   5.258  0.3671  0.0427  0.9128
  291MOL0     C38313  -2.733   3.795   5.345 -0.5099  0.1438  0.2437
  291MOL0     C38314  -2.731   3.865   5.461 -0.3130  0.1963 -0.9883
  291MOL0     O38315  -2.832   3.860   5.556  0.2559 -0.0073  0.3174
  291MOL0     C38316  -2.950   3.779   5.541  0.4708 -0.2200 -0.3795
  291MOL0     C38317  -3.051   3.840   5.635  0.5667  0.1496  0.7142
  291MOL0     C38318  -3.190   3.781   5.610  0.0514  0.0024  0.2125
  291MOL0     C38319  -3.285   3.847   5.707 -0.2620 -0.2316  0.1760
  291MOL0     C38320  -3.404   3.756   5.749  0.1093  0.6847  0.6007
  291MOL0     C38321  -3.495   3.833   5.845  0.1750  0.0717 -0.8303
  291MOL0     C38322  -3.600   3.741   5.894  0.2741  1.3628 -0.4107
  291MOL0     C38323  -3.697   3.797   5.992  0.5832  0.1028 -0.5892
  291MOL0    Cl38324  -3.850   3.696   6.023  0.1626 -0.0957  0.1355
  291MOL0     C38325  -2.609   3.938   5.486 -0.1512  0.8092 -0.4770
  291MOL0     C38326  -2.500   3.942   5.400  0.1929  1.4401  0.6394
  291MOL0     O38327  -2.397   4.105   5.177 -0.5588  0.2983 -0.7127
  291MOL0     C38328  -2.214   3.884   4.974  0.2133 -0.4050  0.1788
  291MOL0     C38329  -2.090   3.873   4.908 -0.0776  0.1520 -0.2854
  291MOL0     N38330  -1.436   3.567   4.827  0.1374  0.7164 -0.1173
  291MOL0     N38331  -1.335   3.493   4.830 -0.4294  0.3176  0.1637
  291MOL0     C38332  -0.322   3.061   5.169  0.3882  0.1117 -0.2048
  291MOL0     C38333  -0.196   3.046   5.121 -0.1981 -0.1122  0.5221
  291MOL0     C38334   0.210   2.892   5.001  1.0206 -0.7383 -0.8144
  291MOL0     C38335   0.301   2.959   4.926 -0.7786 -0.0021 -0.8561
  291MOL0     C38336   0.428   2.909   4.914  0.3562 -0.0466 -0.0288
  291MOL0     C38337   0.485   2.806   4.983  0.2767  0.1088 -0.6846
  291MOL0     O38338   0.615   2.768   4.948  0.2184 -0.1109  0.0584
  291MOL0     C38339   0.670   2.667   5.032 -0.4889 -0.1344  0.3558
  291MOL0     C38340   0.822   2.659   4.980 -0.1691 -0.5988 -1.0950
  291MOL0     C38341   0.897   2.539   5.038  0.2497  0.4261 -1.1822
  291MOL0     C38342   1.046   2.564   5.018  0.0718 -0.4737 -1.0660
  291MOL0     C38343   1.129   2.452   5.079  0.5152 -0.7802  0.2631
  291MOL0     C38344   1.201   2.366   5.117  0.5785  0.3127 -0.0880
  291MOL0     C38345   0.391   2.731   5.067  0.4636 -0.3180  1.0921
  291MOL0     C38346   0.255   2.783   5.078 -0.3445 -0.0856  0.4728
  291MOL0     H38347  -0.158   2.720   5.214 -0.6588 -1.0631 -1.6551
  291MOL0     H38348  -0.391   2.750   5.289  1.1661 -1.2791 -1.2474
  291MOL0     H38349  -0.620   3.108   5.146 -4.3994 -1.0225  0.3356
  291MOL0     H38350  -0.555   3.161   5.308 -0.3181 -0.6181  1.4209
  291MOL0     H38351  -0.737   3.050   5.420 -3.3956 -1.3476 -0.1025
  291MOL0     H38352  -0.802   2.984   5.270 -1.3015 -0.1453  2.2263
  291MOL0     H38353  -0.760   3.271   5.290  0.2928 -1.1450  1.9009
  291MOL0     H38354  -0.911   3.215   5.359  1.3187  4.6930  0.2992
  291MOL0     H38355  -0.823   3.174   5.063  0.6483 -3.3772  1.1957
  291MOL0     H38356  -0.974   3.118   5.141  0.3405  0.0660  0.1063
  291MOL0     H38357  -0.872   3.411   5.146 -0.8782  1.9660 -0.8526
  291MOL0     H38358  -1.028   3.365   5.197  0.1190  1.2517 -1.0161
  291MOL0     H38359  -1.107   3.313   4.978 -0.5934  0.2186 -1.1877
  291MOL0     H38360  -0.932   3.322   4.917 -2.7554 -3.0359 -1.4820
  291MOL0     H38361  -1.105   3.545   5.039  2.2477  2.1940 -0.9645
  291MOL0     H38362  -0.945   3.559   4.967 -1.2558  3.2569 -3.6668
  291MOL0     H38363  -1.070   3.439   4.764 -0.8167  0.7209 -1.0987
  291MOL0     H38364  -1.018   3.607   4.789  1.0631 -0.6905 -2.1981
  291MOL0     H38365  -1.206   3.787   4.787 -0.5405  0.5550 -1.9545
  291MOL0     H38366  -1.525   3.756   4.652 -0.4210 -1.7347  2.0500
  291MOL0     H38367  -1.423   3.891   4.716 -2.3814  1.5163  2.5457
  291MOL0     H38368  -1.546   3.847   4.944  0.0713  6.2480  0.2625
  291MOL0     H38369  -1.666   3.774   4.839 -1.6537  1.4367  3.8981
  291MOL0     H38370  -1.566   4.061   4.785  0.0790 -0.5751 -0.1233
  291MOL0     H38371  -1.689   3.976   4.697 -0.9304 -2.1075  0.5307
  291MOL0     H38372  -1.796   4.135   4.849 -0.2107  0.1708 -0.6696
  291MOL0     H38373  -1.721   4.040   4.987  2.6873  1.8392 -0.9773
  291MOL0     H38374  -1.931   4.139   5.051 -0.7550 -0.6038  3.0557
  291MOL0     H38375  -2.160   4.178   5.128 -1.7775 -0.3893 -0.8800
  291MOL0     H38376  -2.620   3.720   5.174  0.9804 -0.8772  1.6462
  291MOL0     H38377  -2.816   3.732   5.315  0.4111 -1.7369  1.4014
  291MOL0     H38378  -2.918   3.683   5.583 -2.3674  0.0554  2.8443
  291MOL0     H38379  -2.987   3.779   5.438  1.6048  0.8020 -0.8030
  291MOL0     H38380  -3.049   3.949   5.633 -0.2911  0.1588 -0.5941
  291MOL0     H38381  -3.023   3.812   5.737 -1.5683  2.7725  2.1273
  291MOL0     H38382  -3.187   3.674   5.632 -2.5258 -0.4328 -1.1467
  291MOL0     H38383  -3.219   3.792   5.505  2.0441 -0.2647 -0.4174
  291MOL0     H38384  -3.229   3.886   5.792  0.8319 -0.2489 -0.5296
  291MOL0     H38385  -3.332   3.930   5.654  1.4978 -1.5004 -3.7030
  291MOL0     H38386  -3.372   3.661   5.792  2.4736 -0.7962 -3.8080
  291MOL0     H38387  -3.466   3.739   5.661  0.3424  4.1463 -0.3924
  291MOL0     H38388  -3.540   3.922   5.802 -1.9274 -0.7491 -0.4387
  291MOL0     H38389  -3.431   3.866   5.927  0.1770 -1.0914 -0.3334
  291MOL0     H38390  -3.648   3.702   5.804 -0.8292  0.4206  0.5370
  291MOL0     H38391  -3.551   3.662   5.951 -0.6209  1.0640 -0.0250
  291MOL0     H38392  -3.727   3.887   5.937  1.6176  1.2714  0.6671
  291MOL0     H38393  -3.645   3.833   6.082 -0.9113  3.5111 -0.9178
  291MOL0     H38394  -2.602   3.983   5.584  0.9990  0.0472 -0.1961
  291MOL0     H38395  -2.413   3.998   5.433  0.5530  0.6323  1.0907
  291MOL0     H38396  -2.284   3.805   4.949 -0.9521  0.7921 -0.5206
  291MOL0     H38397  -2.060   3.788   4.847 -0.4780  1.1686 -1.9626
  291MOL0     H38398  -0.369   3.157   5.146 -1.8759 -0.6260  0.9551
  291MOL0     H38399  -0.151   3.135   5.077  0.9085  0.0130  1.8346
  291MOL0     H38400   0.263   3.040   4.864 -0.8185 -0.4053 -1.3616
  291MOL0     H38401   0.490   2.946   4.834  1.4283 -0.5108  0.5641
  291MOL0     H38402   0.618   2.574   5.005  0.4480 -0.7767  0.6841
  291MOL0     H38403   0.663   2.698   5.136 -0.6918  1.4967 -0.1145
  291MOL0     H38404   0.827   2.663   4.871 -1.8844 -1.0632 -1.2148
  291MOL0     H38405   0.872   2.746   5.022 -0.7173 -0.6279 -0.3748
  291MOL0     H38406   0.867   2.449   4.984  0.7548  0.8556 -2.2154
  291MOL0     H38407   0.878   2.532   5.145  3.1323  1.5437 -0.4818
  291MOL0     H38408   1.076   2.565   4.913 -3.0273 -1.2834 -2.0906
  291MOL0     H38409   1.063   2.657   5.073 -3.8676 -0.9072  1.2874
  291MOL0     H38410   1.259   2.283   5.150  0.1138 -0.8278 -1.9916
  291MOL0     H38411   0.415   2.639   5.120  1.3953 -0.8063 -0.1205
  291MOL0     H38412   0.187   2.736   5.148 -0.1593  0.8912  1.3196
  292MOL0     O38413   4.680   2.302   9.179  0.5480  0.0610 -0.8772
  292MOL0     C38414   4.732   2.212   9.247  0.3025  1.0921  0.2771
  292MOL0     O38415   4.689   2.086   9.243 -0.0890  0.2129  0.7255
  292MOL0     C38416   4.600   2.042   9.148 -0.4495 -0.1047 -0.4875
  292MOL0     C38417   4.507   1.943   9.186  0.0994 -1.1099 -0.0762
  292MOL0     C38418   4.412   1.885   9.103  0.9565 -0.5920  0.7303
  292MOL0     C38419   4.406   1.934   8.968  0.6497  0.8216 -0.2274
  292MOL0     O38420   4.309   1.891   8.882  0.1173 -0.7193 -0.2037
  292MOL0     C38421   4.221   1.786   8.932 -0.6460  0.0219  0.2065
  292MOL0     C38422   4.118   1.775   8.828 -0.2280 -0.0601 -0.3529
  292MOL0     C38423   3.999   1.711   8.890  0.6881 -0.4553 -0.0037
  292MOL0     C38424   3.864   1.714   8.811  0.0350 -0.1680  0.3581
  292MOL0     C38425   3.749   1.690   8.901  0.4688 -0.2865 -0.5389
  292MOL0     C38426   3.630   1.778   8.858  0.0614  0.6012  0.5400
  292MOL0     C38427   3.502   1.774   8.937 -0.2904  0.5102 -0.5986
  292MOL0     C38428   3.457   1.637   8.963  0.5560  0.0628 -0.2059
  292MOL0     N38429   3.332   1.646   9.042 -0.4688 -0.2606 -0.4535
  292MOL0     C38430   3.334   1.618   9.176 -0.3762  0.6020 -0.4084
  292MOL0     C38431   3.205   1.614   9.210  0.4484  0.1943 -0.1315
  292MOL0     C38432   3.172   1.592   9.360  0.1734  1.2379  0.3055
  292MOL0     C38433   3.037   1.641   9.383 -0.1262  0.6657 -0.3339
  292MOL0     C38434   3.010   1.626   9.540  0.2945  0.1514  0.0592
  292MOL0     C38435   2.873   1.688   9.570 -0.4051 -0.3873  0.5079
  292MOL0     O38436   2.773   1.643   9.496  0.0948 -0.0843 -0.6720
  292MOL0     C38437   2.643   1.680   9.535 -0.7155 -0.1045  0.1390
  292MOL0     C38438   2.612   1.792   9.611 -0.9895 -0.7172  1.4138
  292MOL0     C38439   2.479   1.816   9.655  0.0215  0.3404 -0.2716
  292MOL0     C38440   2.374   1.730   9.629 -0.0545  0.4996 -0.2506
  292MOL0     C38441   2.232   1.739   9.680  0.4614 -0.8047 -0.9706
  292MOL0     O38442   2.141   1.653   9.632 -0.2424  0.4963  1.2403
  292MOL0     C38443   2.013   1.662   9.676 -0.1815 -0.4782 -0.7736
  292MOL0     C38444   1.913   1.725   9.612 -0.3635  0.3218  0.1342
  292MOL0     C38445   1.784   1.728   9.678  1.0692 -0.2866  1.2677
  292MOL0     C38446   1.762   1.674   9.801  0.2759  0.6362 -0.0870
  292MOL0     O38447   1.642   1.695   9.867  0.4654  0.1620  0.5003
  292MOL0     C38448   1.537   1.600   9.833  0.9285  0.1410  0.3446
  292MOL0     C38449   1.397   1.648   9.865 -0.4653  0.4427 -0.1756
  292MOL0     C38450   1.291   1.542   9.847  0.1486  0.1593  0.0231
  292MOL0     C38451   1.145   1.596   9.830  0.4519  0.2032 -0.5996
  292MOL0     C38452   1.049   1.474   9.852  0.4110 -0.9610  0.8905
  292MOL0     C38453   0.911   1.535   9.833  0.4222 -0.1528  0.5901
  292MOL0     C38454   0.791   1.430   9.847  0.0578 -0.1215 -0.7927
  292MOL0     C38455   0.649   1.473   9.795 -0.8642  0.9986 -1.3074
  292MOL0    Cl38456   0.527   1.370   9.865  0.6791  0.0776  0.5726
  292MOL0     C38457   1.868   1.617   9.874  0.4765 -0.4233  0.1485
  292MOL0     C38458   1.993   1.610   9.812  0.4369  0.0951 -0.1540
  292MOL0     O38459   2.205   1.839   9.745 -0.4845 -0.1685  0.3671
  292MOL0     C38460   2.404   1.619   9.546  0.1678 -0.2245 -0.5198
  292MOL0     C38461   2.535   1.598   9.497  0.1082 -0.3110  0.7138
  292MOL0     N38462   3.129   1.649   9.105 -0.3103 -0.8995  0.7316
  292MOL0     N38463   3.202   1.676   9.000  0.3494  0.5534 -0.2918
  292MOL0     C38464   4.502   2.034   8.927  0.4868  0.3911  0.9229
  292MOL0     C38465   4.600   2.090   9.020  0.4816  0.4366 -0.8633
  292MOL0     C38466   4.844   2.238   9.343  0.2960 -0.7076 -0.7174
  292MOL0     C38467   4.857   2.364   9.406 -1.3163 -0.2325  1.3365
  292MOL0     C38468   4.963   2.389   9.485 -0.6809 -0.2106 -0.3393
  292MOL0     C38469   5.071   2.295   9.507 -0.3813 -0.6763  0.0376
  292MOL0     O38470   5.192   2.326   9.568  0.0828  0.0838 -0.4543
  292MOL0     C38471   5.238   2.457   9.620  0.1761 -0.4809  0.5116
  292MOL0     C38472   5.384   2.478   9.562  1.0462  0.6290  0.3619
  292MOL0     C38473   5.481   2.431   9.673  0.2194 -0.2579  0.2124
  292MOL0     C38474   5.464   2.295   9.736  0.7310  0.2511  0.5163
  292MOL0     C38475   5.586   2.216   9.712 -0.1098  0.2933  0.2293
  292MOL0     C38476   5.688   2.163   9.676 -0.7178  1.2470 -0.3016
  292MOL0     C38477   5.059   2.177   9.446 -0.0624  0.6708  0.7915
  292MOL0     C38478   4.947   2.150   9.371  0.0378 -0.2870 -0.5838
  292MOL0     H38479   4.504   1.911   9.289 -0.8837 -0.1119  0.2159
  292MOL0     H38480   4.345   1.807   9.139  0.0924  0.0712  0.5921
  292MOL0     H38481   4.172   1.820   9.024  0.8580  1.7747  0.4181
  292MOL0     H38482   4.270   1.693   8.958 -1.9984 -0.2245  2.1254
  292MOL0     H38483   4.152   1.714   8.744  2.3465 -0.7395  1.0524
  292MOL0     H38484   4.090   1.872   8.786  1.8720  0.2898 -1.0313
  292MOL0     H38485   3.982   1.755   8.988 -1.8325  3.6679 -1.9671
  292MOL0     H38486   4.026   1.607   8.909  0.7338 -0.4740 -0.1661
  292MOL0     H38487   3.866   1.814   8.765 -3.3859  0.9091  2.2232
  292MOL0     H38488   3.858   1.643   8.728 -1.2593 -2.5589  2.3696
  292MOL0     H38489   3.783   1.718   9.001  0.8347  0.6046 -0.9061
  292MOL0     H38490   3.728   1.583   8.915  1.6372 -0.7076 -1.7560
  292MOL0     H38491   3.614   1.747   8.754  2.0152 -0.1792  0.4362
  292MOL0     H38492   3.651   1.885   8.868  0.3319  0.4523  1.6058
  292MOL0     H38493   3.523   1.811   9.038 -0.0294 -0.5661 -0.2412
  292MOL0     H38494   3.428   1.840   8.892 -0.3205  2.9403  2.6946
  292MOL0     H38495   3.533   1.582   9.019  1.7536  0.3242 -1.4975
  292MOL0     H38496   3.441   1.577   8.873  1.7248  1.1817 -1.2035
  292MOL0     H38497   3.427   1.599   9.229 -1.5845 -2.4794  0.8186
  292MOL0     H38498   3.252   1.638   9.419  2.7489 -0.2216 -1.7996
  292MOL0     H38499   3.186   1.484   9.372 -2.4757  0.7032 -0.6424
  292MOL0     H38500   2.954   1.599   9.325  0.3534 -1.4994  0.4582
  292MOL0     H38501   3.023   1.746   9.355 -3.7350  0.2588 -0.4898
  292MOL0     H38502   3.003   1.518   9.558  0.3809 -0.1692 -1.6327
  292MOL0     H38503   3.090   1.665   9.603  1.6996 -2.6780  0.2014
  292MOL0     H38504   2.881   1.797   9.574 -1.6047 -0.1681 -1.5572
  292MOL0     H38505   2.848   1.651   9.670 -1.5267 -1.3057 -0.0902
  292MOL0     H38506   2.690   1.856   9.650 -1.8585  1.4103 -0.1591
  292MOL0     H38507   2.467   1.891   9.732 -0.1397 -0.1498  0.1865
  292MOL0     H38508   1.925   1.765   9.512  1.3280 -0.2416  0.0850
  292MOL0     H38509   1.714   1.799   9.634  3.5853  1.4669 -0.1844
  292MOL0     H38510   1.549   1.506   9.887 -0.1248 -0.8444 -1.0744
  292MOL0     H38511   1.546   1.580   9.726  1.1779  2.8905 -0.2191
  292MOL0     H38512   1.371   1.737   9.807  0.3997  0.9981  0.2739
  292MOL0     H38513   1.400   1.668   9.973  0.7395 -1.8942  0.2955
  292MOL0     H38514   1.294   1.473   9.932 -2.3409  1.2855  1.1153
  292MOL0     H38515   1.316   1.479   9.761 -0.4004  0.4853 -0.3830
  292MOL0     H38516   1.116   1.666   9.910 -1.1263 -1.8092  0.6810
  292MOL0     H38517   1.122   1.642   9.733  1.0684 -0.6998 -1.1873
  292MOL0     H38518   1.066   1.441   9.955  0.7157  0.1316  1.2131
  292MOL0     H38519   1.074   1.392   9.785 -0.1201 -0.0095 -0.5188
  292MOL0     H38520   0.897   1.591   9.740 -0.3838  0.2703  0.9630
  292MOL0     H38521   0.899   1.606   9.915  0.2534 -0.3437  0.7352
  292MOL0     H38522   0.818   1.336   9.797 -2.1563 -1.0290 -0.4013
  292MOL0     H38523   0.770   1.398   9.949 -0.7681  1.8493 -0.3124
  292MOL0     H38524   0.659   1.473   9.686  1.2811  0.7324 -1.1502
  292MOL0     H38525   0.626   1.574   9.830 -0.2004  1.2599 -1.6127
  292MOL0     H38526   1.871   1.571   9.973  0.7043 -1.4053 -0.3024
  292MOL0     H38527   2.072   1.560   9.866 -1.7382 -4.7911 -0.9820
  292MOL0     H38528   2.331   1.551   9.503 -1.4683  3.4651 -4.1384
  292MOL0     H38529   2.560   1.522   9.423  3.0269  2.5487 -1.5246
  292MOL0     H38530   4.505   2.071   8.825  0.1844 -3.8768 -0.8021
  292MOL0     H38531   4.674   2.163   8.989 -1.0022  1.9757 -0.9844
  292MOL0     H38532   4.787   2.443   9.379 -0.3046 -0.3519 -2.1868
  292MOL0     H38533   4.965   2.488   9.528 -0.5048  1.7851 -4.4888
  292MOL0     H38534   5.251   2.459   9.729 -0.6262  1.7083  0.6341
  292MOL0     H38535   5.176   2.538   9.579  2.7668  0.0068 -2.8536
  292MOL0     H38536   5.389   2.412   9.475  0.7621  1.7040 -0.4857
  292MOL0     H38537   5.408   2.583   9.544 -1.7870  1.2535 -0.2849
  292MOL0     H38538   5.475   2.506   9.752 -2.0960  1.6543 -1.6350
  292MOL0     H38539   5.573   2.451   9.617 -2.8689 -1.1277 -6.0830
  292MOL0     H38540   5.446   2.313   9.842  0.9554  1.5674  0.3428
  292MOL0     H38541   5.383   2.235   9.691  0.8124  0.7935 -0.3743
  292MOL0     H38542   5.782   2.126   9.640 -1.4115 -0.9318 -0.0184
  292MOL0     H38543   5.145   2.110   9.443 -0.3225  0.3458  0.5197
  292MOL0     H38544   4.942   2.052   9.324  0.8979 -0.2222 -0.8261
  293MOL0     O38545  10.913   8.059   8.166 -0.4835  0.2994  0.2517
  293MOL0     C38546  10.850   8.139   8.241 -0.2371  0.5705 -0.6057
  293MOL0     O38547  10.894   8.241   8.311 -0.0922  0.7099  0.1547
  293MOL0     C38548  11.026   8.263   8.304  1.2604  0.5725  1.0741
  293MOL0     C38549  11.057   8.395   8.318 -0.1085 -0.1545  0.2600
  293MOL0     C38550  11.196   8.435   8.303  0.9402 -1.1956 -0.5304
  293MOL0     C38551  11.301   8.344   8.290 -0.2893 -0.1064 -0.2915
  293MOL0     O38552  11.438   8.380   8.293  0.1054 -0.5334 -0.5712
  293MOL0     C38553  11.471   8.469   8.189 -0.6766 -1.0268  0.1262
  293MOL0     C38554  11.623   8.469   8.194  0.5357  0.3334  0.0489
  293MOL0     C38555  11.676   8.327   8.214 -0.2095  0.2488  0.8362
  293MOL0     C38556  11.816   8.324   8.160 -0.0614  0.1187  0.2565
  293MOL0     C38557  11.920   8.412   8.239  0.2319 -0.5653 -0.0844
  293MOL0     C38558  12.058   8.351   8.224  0.8794  0.3435  0.2703
  293MOL0     C38559  12.176   8.444   8.279  0.2216  0.1021 -0.1904
  293MOL0     C38560  12.228   8.547   8.183 -0.0224 -1.2073  0.5597
  293MOL0     N38561  12.270   8.481   8.057 -0.4323 -0.3764 -0.6057
  293MOL0     C38562  12.375   8.396   8.036 -0.4724 -0.0133  0.2981
  293MOL0     C38563  12.400   8.400   7.904  0.0920 -0.3604  0.2532
  293MOL0     C38564  12.518   8.352   7.835  0.9603  0.1926 -0.3620
  293MOL0     C38565  12.642   8.433   7.869 -0.3368 -0.3774  0.2260
  293MOL0     C38566  12.770   8.362   7.834 -0.2231  0.4894 -0.8843
  293MOL0     C38567  12.817   8.264   7.935  0.1245  0.2363 -0.7797
  293MOL0     O38568  12.718   8.175   8.001 -0.0738  0.1335 -0.4295
  293MOL0     C38569  12.769   8.062   8.068  0.5647  0.4837 -0.4928
  293MOL0     C38570  12.906   8.028   8.091  0.5137  0.1596 -0.4555
  293MOL0     C38571  12.943   7.915   8.167  0.0533  0.1469 -0.2230
  293MOL0     C38572  12.840   7.843   8.231 -0.2733  0.7177 -0.8099
  293MOL0     C38573  12.876   7.718   8.302 -0.0822  0.5888 -0.9536
  293MOL0     O38574  12.772   7.637   8.339  0.7478 -0.3609 -0.0451
  293MOL0     C38575  12.800   7.505   8.347  0.3172  0.5514  0.3597
  293MOL0     C38576  12.722   7.429   8.441 -0.0211  0.0823  0.2570
  293MOL0     C38577  12.731   7.295   8.445  0.9602 -0.4453  0.3190
  293MOL0     C38578  12.812   7.224   8.353 -0.0030 -0.8453  0.1755
  293MOL0     O38579  12.834   7.083   8.351 -0.1767 -0.3344 -0.3779
  293MOL0     C38580  12.720   7.014   8.390  0.3496  0.6590  0.6648
  293MOL0     C38581  12.792   6.883   8.428 -0.1914  0.2789 -0.0547
  293MOL0     C38582  12.854   6.802   8.312  0.7960  0.0807 -0.1486
  293MOL0     C38583  12.752   6.768   8.211 -0.1261  0.7651  0.1129
  293MOL0     C38584  12.801   6.668   8.107 -0.8042 -0.0379  0.6753
  293MOL0     C38585  12.933   6.716   8.035  0.7654  0.1598  0.5673
  293MOL0     C38586  12.978   6.597   7.947 -0.0542  0.7562 -0.3006
  293MOL0     C38587  13.088   6.636   7.861 -0.8285  0.6773  0.3985
  293MOL0    Cl38588  13.168   6.491   7.789  0.1926  0.1141  0.1296
  293MOL0     C38589  12.888   7.295   8.263 -0.2616  0.1393 -0.7953
  293MOL0     C38590  12.886   7.435   8.262 -0.7176  0.8158 -0.3932
  293MOL0     O38591  12.994   7.695   8.317 -0.4364  0.3747  0.0039
  293MOL0     C38592  12.704   7.879   8.208 -0.9292  0.8863 -0.8316
  293MOL0     C38593  12.670   7.979   8.127 -0.0386  0.0814 -0.3582
  293MOL0     N38594  12.315   8.491   7.849  0.5848  0.3785 -0.0666
  293MOL0     N38595  12.231   8.535   7.935 -0.0504  0.0503 -0.0224
  293MOL0     C38596  11.256   8.207   8.282 -1.6099 -0.0127 -0.8228
  293MOL0     C38597  11.125   8.169   8.299 -0.1087  1.4864 -0.0572
  293MOL0     C38598  10.703   8.109   8.239  0.1062 -0.7135 -0.1136
  293MOL0     C38599  10.634   8.046   8.131 -0.3876 -0.3863  0.4691
  293MOL0     C38600  10.493   8.054   8.122 -0.5015 -0.4089 -0.9024
  293MOL0     C38601  10.414   8.101   8.235 -0.2970 -0.8801 -0.3175
  293MOL0     O38602  10.278   8.123   8.239 -0.2083  0.2836 -0.0552
  293MOL0     C38603  10.250   8.229   8.153 -0.1605 -0.1739 -0.0405
  293MOL0     C38604  10.103   8.262   8.157  0.9005  0.2364  0.1797
  293MOL0     C38605  10.018   8.138   8.107 -0.3854  0.2941  0.1478
  293MOL0     C38606   9.884   8.192   8.024  0.3756 -0.2549 -0.5959
  293MOL0     C38607   9.918   8.262   7.904  0.2221  0.0653 -0.6217
  293MOL0     C38608   9.936   8.335   7.809 -0.1570 -0.0086  0.5849
  293MOL0     C38609  10.484   8.136   8.353 -0.2121  0.0091 -0.5110
  293MOL0     C38610  10.623   8.156   8.349  0.6633 -0.6357 -0.7225
  293MOL0     H38611  10.983   8.473   8.334 -1.0236 -1.3583  2.4036
  293MOL0     H38612  11.216   8.541   8.308  2.6115 -1.5096  0.0542
  293MOL0     H38613  11.432   8.569   8.211  1.5375  0.3442 -1.6767
  293MOL0     H38614  11.432   8.425   8.097  0.6026  0.6122 -1.2669
  293MOL0     H38615  11.652   8.535   8.276 -0.0333  1.3240 -0.5331
  293MOL0     H38616  11.648   8.508   8.095  0.6580 -0.4722 -0.2448
  293MOL0     H38617  11.624   8.238   8.178 -0.7168 -0.0993  2.3745
  293MOL0     H38618  11.676   8.309   8.322  2.4602 -1.3540  0.6693
  293MOL0     H38619  11.849   8.220   8.173  0.6993  0.3364  0.0974
  293MOL0     H38620  11.821   8.355   8.055 -0.4736 -0.9935 -0.1089
  293MOL0     H38621  11.875   8.411   8.339 -0.7431  0.3335 -0.4960
  293MOL0     H38622  11.914   8.517   8.207  0.2830  0.4911  2.9900
  293MOL0     H38623  12.081   8.325   8.120  2.0108  1.5336  0.1960
  293MOL0     H38624  12.049   8.266   8.292 -5.1863  0.5835  0.3087
  293MOL0     H38625  12.142   8.490   8.372 -2.8598 -2.5055  0.1074
  293MOL0     H38626  12.256   8.373   8.301 -0.3698 -1.0741 -1.6681
  293MOL0     H38627  12.317   8.595   8.225  0.6885  0.3399 -2.4223
  293MOL0     H38628  12.154   8.620   8.150 -1.1839 -0.7799  3.8074
  293MOL0     H38629  12.443   8.336   8.095  0.6719 -0.6816 -1.6099
  293MOL0     H38630  12.492   8.363   7.729  1.9950  1.3601 -0.5247
  293MOL0     H38631  12.541   8.249   7.863  0.7792  0.1550 -0.3487
  293MOL0     H38632  12.648   8.464   7.974 -4.8602  2.5198 -0.0555
  293MOL0     H38633  12.653   8.527   7.813  2.5950 -0.1493  1.0377
  293MOL0     H38634  12.757   8.316   7.736 -1.5851  2.2407 -1.5837
  293MOL0     H38635  12.847   8.440   7.823 -0.3685  0.5580 -1.4574
  293MOL0     H38636  12.886   8.301   8.011  1.5098 -1.2244 -1.2769
  293MOL0     H38637  12.868   8.186   7.877  1.7140  1.0958 -0.5860
  293MOL0     H38638  12.992   8.082   8.055  1.6263 -1.3021 -0.1034
  293MOL0     H38639  13.049   7.895   8.180  0.0291 -0.9371 -1.5052
  293MOL0     H38640  12.642   7.467   8.505 -1.7183 -0.1116 -1.6575
  293MOL0     H38641  12.653   7.245   8.503 -2.3679  0.7776 -2.7282
  293MOL0     H38642  12.641   6.994   8.317  2.0268  1.4782 -1.4785
  293MOL0     H38643  12.678   7.045   8.486  2.6986 -2.1545  2.8206
  293MOL0     H38644  12.725   6.821   8.488 -0.2223 -0.1073 -0.4768
  293MOL0     H38645  12.875   6.908   8.494  1.8378 -3.2583 -0.9790
  293MOL0     H38646  12.878   6.708   8.362 -1.7329  0.4865  2.0363
  293MOL0     H38647  12.944   6.847   8.268  1.8385  0.8702  2.5761
  293MOL0     H38648  12.656   6.741   8.255 -1.1958  1.7334 -1.5383
  293MOL0     H38649  12.732   6.865   8.165 -2.9135 -0.1795 -0.8251
  293MOL0     H38650  12.723   6.657   8.031 -0.2730  3.3341 -0.5198
  293MOL0     H38651  12.825   6.573   8.156  0.1285 -0.9956 -1.5173
  293MOL0     H38652  13.007   6.744   8.110 -0.4157  4.4070  0.3772
  293MOL0     H38653  12.907   6.805   7.977 -1.4599 -1.2474 -0.7465
  293MOL0     H38654  13.033   6.528   8.012 -1.3505 -2.3136 -2.2048
  293MOL0     H38655  12.890   6.552   7.898 -1.5923  1.4104  1.7061
  293MOL0     H38656  13.167   6.670   7.930  0.2598 -2.2581  0.7915
  293MOL0     H38657  13.039   6.698   7.786 -1.3665 -2.4851 -2.0951
  293MOL0     H38658  12.956   7.236   8.203 -1.4916 -3.8147  1.3512
  293MOL0     H38659  12.956   7.471   8.187  2.2342 -1.1787  1.2252
  293MOL0     H38660  12.621   7.828   8.255  1.7454 -2.8097  0.3015
  293MOL0     H38661  12.566   8.007   8.122  0.0926  0.6060 -0.2393
  293MOL0     H38662  11.327   8.128   8.260 -1.5055 -0.3882  0.7239
  293MOL0     H38663  11.108   8.064   8.320  0.8854  1.7073  2.2043
  293MOL0     H38664  10.691   8.009   8.047 -0.6314  1.4425 -0.5547
  293MOL0     H38665  10.425   8.019   8.045 -2.2359 -2.5401  1.3942
  293MOL0     H38666  10.276   8.203   8.050 -0.9166 -0.9225 -0.0509
  293MOL0     H38667  10.313   8.317   8.172  0.3450 -0.7565  1.1176
  293MOL0     H38668  10.064   8.273   8.259 -0.0368 -2.0349  0.1469
  293MOL0     H38669  10.093   8.348   8.090 -0.6808  0.4224  0.6018
  293MOL0     H38670   9.986   8.085   8.197  0.4045 -2.3124 -0.9927
  293MOL0     H38671  10.072   8.065   8.046 -0.0082  0.0746  0.7279
  293MOL0     H38672   9.827   8.103   7.995  0.2580 -0.7629  1.0639
  293MOL0     H38673   9.817   8.255   8.083 -1.5049 -0.7247 -2.1365
  293MOL0     H38674   9.957   8.384   7.716  3.1772 -1.7391  0.2344
  293MOL0     H38675  10.447   8.172   8.449  1.2760 -0.1028  0.1254
  293MOL0     H38676  10.675   8.208   8.429  0.2128 -1.6058  0.2286
  294MOL0     O38677   4.148   6.488   6.365  0.4678 -0.4613 -0.3658
  294MOL0     C38678   4.229   6.526   6.457 -0.6284 -0.8854  0.0277
  294MOL0     O38679   4.199   6.530   6.586 -0.6196  0.1860 -0.0223
  294MOL0     C38680   4.070   6.528   6.634 -0.2198  0.2161 -0.1761
  294MOL0     C38681   3.952   6.592   6.586  0.1998  0.4337  0.1856
  294MOL0     C38682   3.838   6.598   6.673 -1.0008  0.0380 -0.3909
  294MOL0     C38683   3.832   6.528   6.789  0.1061 -0.8670 -0.2827
  294MOL0     O38684   3.710   6.545   6.864  0.1515 -0.0471 -0.0244
  294MOL0     C38685   3.666   6.426   6.940  0.3174  0.3287  0.6709
  294MOL0     C38686   3.519   6.444   6.977 -0.2518 -0.6353 -0.5154
  294MOL0     C38687   3.515   6.578   7.054  0.3977  0.6564  0.4744
  294MOL0     C38688   3.375   6.606   7.114  0.3393  0.4085 -0.4590
  294MOL0     C38689   3.258   6.612   7.015  0.0092 -0.6967 -0.6852
  294MOL0     C38690   3.139   6.688   7.091 -0.1417  0.1139 -0.6702
  294MOL0     C38691   3.028   6.597   7.137  0.4557 -0.4041  0.0998
  294MOL0     C38692   2.938   6.682   7.231 -0.3342  0.6665 -0.3022
  294MOL0     N38693   2.800   6.638   7.208 -0.9699 -0.1160 -0.1248
  294MOL0     C38694   2.756   6.519   7.249 -0.1075 -0.1446 -0.7854
  294MOL0     C38695   2.633   6.524   7.206  0.8417  0.7950 -1.1726
  294MOL0     C38696   2.517   6.437   7.236 -0.4774 -0.2842 -0.3053
  294MOL0     C38697   2.414   6.421   7.121  0.2323  0.1165 -0.7555
  294MOL0     C38698   2.311   6.534   7.109 -0.2185 -0.7011  0.0683
  294MOL0     C38699   2.267   6.595   6.980  0.2627  0.2340 -0.5295
  294MOL0     O38700   2.181   6.496   6.921  0.1905 -0.9844 -0.3191
  294MOL0     C38701   2.050   6.489   6.958 -0.1969 -0.0840 -0.1548
  294MOL0     C38702   1.971   6.401   6.889 -0.6458  0.6254 -0.5417
  294MOL0     C38703   1.840   6.377   6.922 -0.7252 -0.3442 -0.3578
  294MOL0     C38704   1.782   6.456   7.030 -0.1596  0.0411 -0.0722
  294MOL0     C38705   1.635   6.444   7.046  0.3100  0.0735  0.5987
  294MOL0     O38706   1.574   6.336   6.987  0.2502  0.0434 -0.4472
  294MOL0     C38707   1.438   6.318   6.994 -0.5751  0.3601  0.3656
  294MOL0     C38708   1.360   6.305   7.119 -0.0857 -0.1065 -0.0633
  294MOL0     C38709   1.225   6.307   7.110 -0.1181  0.5154 -1.2289
  294MOL0     C38710   1.157   6.333   6.993 -0.1183 -0.2890 -0.6586
  294MOL0     O38711   1.022   6.323   6.995  0.3447 -0.4885  0.0936
  294MOL0     C38712   0.966   6.449   6.955  0.4694  1.6688 -0.0189
  294MOL0     C38713   0.833   6.437   6.881 -0.1582  0.1726 -0.1509
  294MOL0     C38714   0.743   6.344   6.954  0.2823 -0.1333  0.5920
  294MOL0     C38715   0.607   6.332   6.865 -0.6350  0.9378 -0.5243
  294MOL0     C38716   0.495   6.272   6.958  0.0675 -0.4613  0.3792
  294MOL0     C38717   0.422   6.391   7.019 -0.2313  0.2735  0.7717
  294MOL0     C38718   0.352   6.352   7.150 -0.0005  0.0768 -0.5892
  294MOL0     C38719   0.264   6.457   7.214 -0.6551  0.0755  1.4085
  294MOL0    Cl38720   0.134   6.497   7.105 -0.1456 -0.3855 -0.4051
  294MOL0     C38721   1.226   6.344   6.873 -0.0294  0.0888 -0.0063
  294MOL0     C38722   1.363   6.332   6.870 -0.8188  0.0207 -0.8555
  294MOL0     O38723   1.575   6.542   7.089 -1.0179  0.6097 -0.3478
  294MOL0     C38724   1.861   6.545   7.103  0.2524  0.7109 -0.0841
  294MOL0     C38725   1.989   6.565   7.059 -0.1897  0.1135 -0.1247
  294MOL0     N38726   2.618   6.644   7.137 -0.5249  0.0334  0.0277
  294MOL0     N38727   2.715   6.723   7.150 -0.0307  0.6904  0.1316
  294MOL0     C38728   3.933   6.449   6.830 -0.1059  0.5468 -0.7075
  294MOL0     C38729   4.056   6.442   6.752  0.0501 -0.2456  0.3066
  294MOL0     C38730   4.377   6.535   6.426  0.1730  0.2762  0.4165
  294MOL0     C38731   4.471   6.594   6.511  0.6408 -0.1733 -0.8340
  294MOL0     C38732   4.604   6.612   6.481  0.1332 -0.2978  0.2261
  294MOL0     C38733   4.651   6.575   6.352  0.7733 -0.7953 -1.0740
  294MOL0     O38734   4.777   6.608   6.338  0.3698  0.5476  0.3256
  294MOL0     C38735   4.835   6.625   6.210  0.6267 -0.5555 -0.0978
  294MOL0     C38736   4.790   6.759   6.138 -0.5401  0.5659  0.2191
  294MOL0     C38737   4.880   6.789   6.010 -0.6087  1.0123 -0.3915
  294MOL0     C38738   4.814   6.851   5.884 -0.1047 -0.0377 -0.5383
  294MOL0     C38739   4.677   6.811   5.852 -0.3959 -0.0632  0.1645
  294MOL0     C38740   4.573   6.756   5.821  0.2794 -0.3881  0.9022
  294MOL0     C38741   4.562   6.521   6.266 -0.1564 -0.5933  0.4841
  294MOL0     C38742   4.427   6.496   6.299 -0.3250 -0.6798  0.3068
  294MOL0     H38743   3.951   6.647   6.492  0.0458 -1.3610 -0.9225
  294MOL0     H38744   3.758   6.660   6.634 -0.9152  1.9201  2.1922
  294MOL0     H38745   3.732   6.411   7.025  0.2995 -2.5816  0.2681
  294MOL0     H38746   3.667   6.333   6.882  1.4615 -1.1176  2.8755
  294MOL0     H38747   3.493   6.360   7.043 -1.7460 -1.2253 -1.7774
  294MOL0     H38748   3.457   6.448   6.887 -0.2105 -2.0547 -0.6345
  294MOL0     H38749   3.548   6.659   6.988  0.1873 -0.1981 -0.7104
  294MOL0     H38750   3.584   6.573   7.139 -1.1035  1.8607  1.8571
  294MOL0     H38751   3.352   6.529   7.189  0.6668  2.9247  2.4008
  294MOL0     H38752   3.380   6.694   7.179 -0.9675 -1.0420  1.7161
  294MOL0     H38753   3.224   6.511   6.990 -2.1959 -0.5410  1.3360
  294MOL0     H38754   3.287   6.656   6.919  1.9813 -1.5158 -0.5142
  294MOL0     H38755   3.116   6.767   7.019  2.6453 -1.2226 -3.2487
  294MOL0     H38756   3.184   6.745   7.174  0.7027  1.1995 -1.8317
  294MOL0     H38757   2.971   6.570   7.048  0.7872  1.0474 -0.5781
  294MOL0     H38758   3.064   6.503   7.181  2.1993 -0.5464 -1.4718
  294MOL0     H38759   2.955   6.786   7.202 -1.1162  0.7524 -0.4560
  294MOL0     H38760   2.959   6.672   7.338  0.6779  0.3621 -0.5143
  294MOL0     H38761   2.802   6.445   7.314 -1.9175 -0.2435  0.4530
  294MOL0     H38762   2.456   6.481   7.316 -0.1299  0.3645 -0.3903
  294MOL0     H38763   2.559   6.341   7.269 -1.0429 -0.0696  1.1401
  294MOL0     H38764   2.356   6.332   7.148 -0.0312  0.4098 -0.3516
  294MOL0     H38765   2.470   6.402   7.029  0.4681  0.7459 -0.7444
  294MOL0     H38766   2.231   6.494   7.173 -0.7598 -1.1949 -0.8914
  294MOL0     H38767   2.360   6.617   7.161  0.1835  1.2216 -3.1212
  294MOL0     H38768   2.349   6.623   6.913 -0.3080 -1.8152 -2.1991
  294MOL0     H38769   2.215   6.690   6.994 -1.8295 -0.9880  0.4620
  294MOL0     H38770   2.013   6.341   6.808 -1.9974  0.0365 -0.8402
  294MOL0     H38771   1.783   6.303   6.866 -3.3975  1.9235 -0.8770
  294MOL0     H38772   1.407   6.289   7.216  1.0473 -0.0612 -0.5914
  294MOL0     H38773   1.165   6.305   7.200  0.2415  2.0306 -0.9345
  294MOL0     H38774   1.038   6.509   6.899  1.8491 -1.0817 -1.3893
  294MOL0     H38775   0.951   6.502   7.050 -0.3270  0.2377  0.6770
  294MOL0     H38776   0.843   6.400   6.779 -1.5053 -1.7706  0.3647
  294MOL0     H38777   0.787   6.536   6.872 -2.1244 -0.6722  0.0443
  294MOL0     H38778   0.718   6.386   7.052  0.2572 -0.4168  0.7084
  294MOL0     H38779   0.783   6.244   6.974 -0.6586 -1.1776 -2.2438
  294MOL0     H38780   0.576   6.429   6.827 -1.9445 -0.3286 -2.9336
  294MOL0     H38781   0.622   6.258   6.786  0.1310 -2.8876  2.8644
  294MOL0     H38782   0.533   6.199   7.030 -1.6484 -1.5100  0.2544
  294MOL0     H38783   0.428   6.218   6.892  0.0540 -1.7799  1.4325
  294MOL0     H38784   0.347   6.425   6.947  0.1385 -0.5504 -0.0374
  294MOL0     H38785   0.489   6.474   7.039 -0.6801  0.2368  2.5452
  294MOL0     H38786   0.294   6.262   7.129  0.1881  0.3608 -2.5421
  294MOL0     H38787   0.438   6.343   7.217 -0.3182  3.5853  0.4798
  294MOL0     H38788   0.323   6.549   7.226  1.9834 -0.4650 -4.2246
  294MOL0     H38789   0.222   6.424   7.310 -1.5064 -1.0911  0.6665
  294MOL0     H38790   1.170   6.343   6.780 -1.1021  2.2968  0.5549
  294MOL0     H38791   1.411   6.356   6.775 -1.9851  0.2712 -1.3964
  294MOL0     H38792   1.819   6.606   7.183  2.6286 -0.2574  2.0329
  294MOL0     H38793   2.047   6.637   7.115  0.2496  0.0774 -0.5220
  294MOL0     H38794   3.915   6.400   6.925 -0.1135  0.4172 -0.7769
  294MOL0     H38795   4.148   6.397   6.789 -0.4544 -1.4430  0.1663
  294MOL0     H38796   4.430   6.633   6.604 -0.3849  0.6608 -1.5930
  294MOL0     H38797   4.668   6.670   6.547 -1.8012  1.6114  0.5336
  294MOL0     H38798   4.812   6.538   6.147 -0.1697 -2.3016  2.4692
  294MOL0     H38799   4.944   6.624   6.219  0.6262 -0.5846 -0.0938
  294MOL0     H38800   4.686   6.752   6.107 -0.4647  2.5703 -0.6017
  294MOL0     H38801   4.803   6.843   6.206 -2.8320  0.6318  0.6264
  294MOL0     H38802   4.928   6.697   5.974  1.3629  2.0200 -0.4781
  294MOL0     H38803   4.958   6.858   6.043  0.2745 -0.4279  0.6538
  294MOL0     H38804   4.811   6.958   5.907 -0.1816 -0.0728 -0.3796
  294MOL0     H38805   4.874   6.829   5.796  0.3564  1.1846 -0.5478
  294MOL0     H38806   4.481   6.703   5.808 -0.6740  1.6981 -1.7519
  294MOL0     H38807   4.587   6.503   6.161 -2.5843 -1.0007 -0.0834
  294MOL0     H38808   4.349   6.467   6.229 -0.7854 -1.7219  1.2297
  295MOL0     O38809   7.642   0.081   5.634 -0.7847  0.0132 -0.4146
  295MOL0     C38810   7.583   0.039   5.535 -0.0348  0.2571 -0.6576
  295MOL0     O38811   7.457  -0.019   5.533  0.5520 -0.0268 -0.3115
  295MOL0     C38812   7.393  -0.043   5.652  0.0057 -0.0781 -0.5848
  295MOL0     C38813   7.272   0.013   5.694  0.0965 -0.2090  0.3451
  295MOL0     C38814   7.199  -0.030   5.793 -0.0164 -0.8774 -0.1510
  295MOL0     C38815   7.240  -0.133   5.879 -0.8407  1.2744  0.7291
  295MOL0     O38816   7.170  -0.180   5.992  0.7329  0.3762  0.2999
  295MOL0     C38817   7.101  -0.077   6.073 -0.4165  0.2734  0.3351
  295MOL0     C38818   7.047  -0.142   6.195 -0.0071  0.8288 -0.2559
  295MOL0     C38819   7.001  -0.046   6.313 -0.4058  0.0069  0.4232
  295MOL0     C38820   6.932  -0.134   6.421  0.3641 -0.6660 -0.8834
  295MOL0     C38821   6.834  -0.042   6.506 -0.3744 -0.0056  0.6079
  295MOL0     C38822   6.702  -0.033   6.417  0.1742  0.1231 -0.2463
  295MOL0     C38823   6.606   0.076   6.464  0.9813 -0.3847  0.7658
  295MOL0     C38824   6.525   0.052   6.594  0.9867  0.3986 -0.5315
  295MOL0     N38825   6.434   0.168   6.615 -0.4276 -0.3548  0.0960
  295MOL0     C38826   6.305   0.182   6.589  0.0579  0.4212 -0.4793
  295MOL0     C38827   6.271   0.300   6.629 -0.5069 -0.4492 -0.1429
  295MOL0     C38828   6.149   0.375   6.600 -0.3292 -0.6180 -0.0382
  295MOL0     C38829   6.049   0.346   6.711  0.3696 -0.2366 -0.0425
  295MOL0     C38830   5.915   0.429   6.699 -0.2103 -0.0998  0.5517
  295MOL0     C38831   5.835   0.417   6.828 -0.6268 -0.1819 -0.3226
  295MOL0     O38832   5.758   0.532   6.857  0.0740 -0.3765 -0.3253
  295MOL0     C38833   5.646   0.521   6.935 -0.1385  0.2889 -0.1471
  295MOL0     C38834   5.533   0.590   6.903  0.1436 -0.5983 -0.5037
  295MOL0     C38835   5.406   0.561   6.962 -0.6063 -0.1524 -0.9309
  295MOL0     C38836   5.398   0.469   7.066  1.0077  0.9632  0.0725
  295MOL0     C38837   5.266   0.431   7.135  1.2020 -0.3123 -0.2760
  295MOL0     O38838   5.266   0.324   7.224 -0.0014  0.2956 -0.1756
  295MOL0     C38839   5.149   0.303   7.292 -0.4448  0.2250  0.2797
  295MOL0     C38840   5.037   0.248   7.247  0.3169  0.2586 -0.7885
  295MOL0     C38841   4.930   0.212   7.342  0.2468  0.4475  0.1164
  295MOL0     C38842   4.935   0.244   7.475  0.4863  0.0369  0.1609
  295MOL0     O38843   4.841   0.204   7.572 -0.2138  0.5851 -0.1254
  295MOL0     C38844   4.725   0.136   7.535 -0.9076  0.1251 -0.5018
  295MOL0     C38845   4.636   0.123   7.662  0.1860  0.9254  0.1606
  295MOL0     C38846   4.598   0.246   7.729 -0.0369 -0.9450  0.3447
  295MOL0     C38847   4.553   0.362   7.630 -0.3713 -0.9063 -0.0234
  295MOL0     C38848   4.507   0.482   7.704 -0.5182 -0.1255 -0.6883
  295MOL0     C38849   4.388   0.455   7.792  0.4235 -0.2213  0.8683
  295MOL0     C38850   4.287   0.380   7.717 -0.2716  0.5776 -0.6993
  295MOL0     C38851   4.146   0.411   7.775  0.0775 -0.9256 -0.0353
  295MOL0    Cl38852   4.129   0.401   7.950  0.1916  0.0051  0.0732
  295MOL0     C38853   5.056   0.300   7.524  0.7017 -0.6371 -0.1028
  295MOL0     C38854   5.165   0.321   7.431 -0.4749 -0.7212 -0.5355
  295MOL0     O38855   5.164   0.495   7.104  0.1494  0.0306 -0.3061
  295MOL0     C38856   5.519   0.417   7.117 -0.0069 -0.4546  0.0062
  295MOL0     C38857   5.638   0.435   7.046 -0.0290 -0.1220  0.7062
  295MOL0     N38858   6.380   0.355   6.693  0.9139  0.2181  0.2898
  295MOL0     N38859   6.480   0.277   6.679  0.4163  0.0730  0.6754
  295MOL0     C38860   7.362  -0.191   5.847  0.5423 -0.1300 -0.8467
  295MOL0     C38861   7.433  -0.149   5.733 -0.3444  0.7517 -0.2470
  295MOL0     C38862   7.665   0.050   5.410  0.4483  1.1026  0.1136
  295MOL0     C38863   7.616  -0.019   5.289 -0.7912  0.1880 -0.1858
  295MOL0     C38864   7.696  -0.026   5.172  0.5378 -0.1091 -0.0140
  295MOL0     C38865   7.818   0.039   5.169  0.0216  0.9186  0.4391
  295MOL0     O38866   7.886   0.042   5.054  0.1097  0.3222  0.4225
  295MOL0     C38867   7.993  -0.051   5.041 -0.3178  0.3346  0.1700
  295MOL0     C38868   8.108  -0.028   5.139  0.1182  0.0350 -0.1061
  295MOL0     C38869   8.216  -0.129   5.119 -0.0122  0.0981 -1.6953
  295MOL0     C38870   8.315  -0.106   5.231 -0.1117 -0.0319  0.2597
  295MOL0     C38871   8.427  -0.199   5.212  0.6406 -0.4946 -0.3117
  295MOL0     C38872   8.510  -0.285   5.194 -0.6232 -0.6487 -1.0204
  295MOL0     C38873   7.867   0.115   5.280  0.1955 -0.3341 -0.1175
  295MOL0     C38874   7.787   0.120   5.398  0.0527  1.1041 -0.1991
  295MOL0     H38875   7.237   0.094   5.631 -1.4238  1.0432  2.6073
  295MOL0     H38876   7.102   0.014   5.817 -0.8791 -3.0864  0.7276
  295MOL0     H38877   7.024  -0.021   6.019  0.0492 -0.6522 -1.3381
  295MOL0     H38878   7.188  -0.015   6.098 -1.4940  1.9495  0.1239
  295MOL0     H38879   7.118  -0.210   6.242 -2.1251 -0.3270  1.4872
  295MOL0     H38880   6.957  -0.195   6.162  0.3470  0.4753 -0.6687
  295MOL0     H38881   6.938   0.034   6.274 -1.8294 -2.1888 -2.1677
  295MOL0     H38882   7.087   0.002   6.361 -2.0804  0.5045  3.1243
  295MOL0     H38883   6.867  -0.217   6.392 -1.1431  0.1013  0.1401
  295MOL0     H38884   7.006  -0.178   6.488  0.2916  1.1651  0.4559
  295MOL0     H38885   6.877   0.056   6.529  0.9672 -0.6874  1.0753
  295MOL0     H38886   6.809  -0.084   6.603 -3.2759 -0.3812 -0.1945
  295MOL0     H38887   6.651  -0.130   6.427  2.8522 -1.2285  1.8117
  295MOL0     H38888   6.728  -0.027   6.311 -3.3604 -3.5063 -1.5626
  295MOL0     H38889   6.652   0.174   6.480 -0.6496  0.7296 -0.9833
  295MOL0     H38890   6.528   0.094   6.389  0.0226  2.2832  2.2626
  295MOL0     H38891   6.597   0.036   6.675  0.1589  0.0657  0.1509
  295MOL0     H38892   6.464  -0.038   6.587 -1.0244  1.5071  1.6521
  295MOL0     H38893   6.232   0.118   6.541 -0.6875 -1.9725  3.3981
  295MOL0     H38894   6.102   0.345   6.505  0.4081 -0.1570 -0.5556
  295MOL0     H38895   6.173   0.481   6.591 -0.0998 -0.6836 -0.2099
  295MOL0     H38896   6.088   0.389   6.804  0.9505  1.7733 -1.1480
  295MOL0     H38897   6.020   0.241   6.708 -0.5327  0.0170 -0.5972
  295MOL0     H38898   5.939   0.534   6.678  0.2803  0.1204  2.1325
  295MOL0     H38899   5.854   0.392   6.616  1.2996  0.2131 -0.7424
  295MOL0     H38900   5.903   0.411   6.913 -1.8869  1.7310  0.9176
  295MOL0     H38901   5.767   0.331   6.825 -0.1722 -0.6675  1.7525
  295MOL0     H38902   5.536   0.661   6.821 -0.4624 -0.2645 -0.2399
  295MOL0     H38903   5.314   0.614   6.938 -3.0460 -2.5696  2.1035
  295MOL0     H38904   5.027   0.220   7.143  0.7622 -1.7461 -0.3266
  295MOL0     H38905   4.849   0.150   7.306  0.9450  0.4550 -1.5711
  295MOL0     H38906   4.752   0.037   7.495  0.6752  1.2378 -2.4208
  295MOL0     H38907   4.666   0.190   7.460  0.6687  1.2906 -0.9581
  295MOL0     H38908   4.688   0.069   7.742 -1.6667  1.5416  1.8445
  295MOL0     H38909   4.546   0.070   7.631  1.5005  0.8762 -4.2845
  295MOL0     H38910   4.691   0.274   7.779  1.8439 -0.9970 -2.8289
  295MOL0     H38911   4.515   0.228   7.798  0.8140  1.0967  2.0134
  295MOL0     H38912   4.642   0.388   7.571  0.4774  0.2231  1.6737
  295MOL0     H38913   4.476   0.322   7.563 -0.1494  0.1463 -0.9352
  295MOL0     H38914   4.478   0.569   7.644  1.8978  0.0431 -1.7280
  295MOL0     H38915   4.596   0.500   7.765 -1.6377 -0.7767  1.1993
  295MOL0     H38916   4.347   0.549   7.830  0.7925  0.5803 -0.6162
  295MOL0     H38917   4.411   0.404   7.886  2.1628 -2.3104 -0.5999
  295MOL0     H38918   4.283   0.402   7.610  0.4200  0.9073 -0.6673
  295MOL0     H38919   4.303   0.272   7.727  0.8875  0.7863  0.0213
  295MOL0     H38920   4.079   0.336   7.733 -1.3022 -0.9283  2.0104
  295MOL0     H38921   4.104   0.507   7.744 -0.2251 -1.4411 -1.2959
  295MOL0     H38922   5.087   0.310   7.628  0.3618 -0.3879 -0.0244
  295MOL0     H38923   5.259   0.359   7.469  1.1305 -4.6337 -0.0624
  295MOL0     H38924   5.518   0.348   7.200 -3.1188 -4.2995 -2.8501
  295MOL0     H38925   5.724   0.376   7.075  2.4077  3.1423  0.7385
  295MOL0     H38926   7.405  -0.263   5.915  0.8788  1.9482  1.2470
  295MOL0     H38927   7.521  -0.198   5.691 -1.7125 -0.0069 -2.3736
  295MOL0     H38928   7.525  -0.077   5.285 -0.2565 -0.6249 -2.3027
  295MOL0     H38929   7.671  -0.079   5.080  0.1017 -1.0957  0.6522
  295MOL0     H38930   8.040  -0.046   4.943 -0.8817 -3.9660 -0.5069
  295MOL0     H38931   7.960  -0.154   5.052  4.1099 -1.5117 -1.4818
  295MOL0     H38932   8.138   0.077   5.141 -3.0070  1.0584 -1.1044
  295MOL0     H38933   8.062  -0.053   5.235 -2.3490 -1.8891 -1.6742
  295MOL0     H38934   8.267  -0.106   5.025 -1.3463  2.6404 -1.9166
  295MOL0     H38935   8.174  -0.229   5.111  1.0763 -0.3452 -1.9331
  295MOL0     H38936   8.347  -0.002   5.232 -3.7508  1.2350  0.8441
  295MOL0     H38937   8.261  -0.120   5.325 -3.3924  1.6257 -1.2037
  295MOL0     H38938   8.588  -0.357   5.181  0.2217  0.4243 -2.0015
  295MOL0     H38939   7.961   0.166   5.266 -0.7263  0.7791 -3.0223
  295MOL0     H38940   7.818   0.164   5.492  0.4134  1.3159 -0.4129
  296MOL0     O38941   6.282   7.368   9.991 -0.6774 -0.0196 -0.4750
  296MOL0     C38942   6.365   7.426  10.062  0.2417  0.0390 -0.6060
  296MOL0     O38943   6.342   7.468  10.188 -0.2548 -0.3864 -0.2112
  296MOL0     C38944   6.224   7.417  10.247 -0.5175 -0.2209  0.2140
  296MOL0     C38945   6.244   7.321  10.339  0.2969  0.1414 -0.7471
  296MOL0     C38946   6.130   7.257  10.404  0.5826  1.4211  0.3233
  296MOL0     C38947   6.002   7.303  10.382  0.8003 -0.3034  0.8594
  296MOL0     O38948   5.886   7.253  10.433  0.4010  0.3854  0.1850
  296MOL0     C38949   5.895   7.149  10.529  0.2457 -0.2427 -0.2347
  296MOL0     C38950   5.754   7.083  10.548  0.0598 -0.0605 -0.0938
  296MOL0     C38951   5.707   7.007  10.429  0.5575  0.9181 -0.2602
  296MOL0     C38952   5.581   6.925  10.455  0.3048  0.0682 -0.6837
  296MOL0     C38953   5.452   7.005  10.403 -0.2518  0.8475  0.6309
  296MOL0     C38954   5.323   6.930  10.440  0.1532  0.5852  0.2740
  296MOL0     C38955   5.197   6.994  10.397  0.1733  0.1293 -0.4103
  296MOL0     C38956   5.182   6.992  10.241  0.1264  0.4913 -0.1892
  296MOL0     N38957   5.042   6.981  10.207  0.7554 -0.5455 -0.2350
  296MOL0     C38958   4.977   7.081  10.129 -0.9220  0.9135  0.5207
  296MOL0     C38959   4.847   7.035  10.124 -0.3475 -1.4224  0.0214
  296MOL0     C38960   4.719   7.107  10.068  0.2671  0.3365  0.4700
  296MOL0     C38961   4.720   7.254  10.104  0.1767  0.1294  0.2359
  296MOL0     C38962   4.588   7.322  10.080  0.1079 -0.0166 -0.4276
  296MOL0     C38963   4.499   7.311  10.208 -0.1186 -0.5561 -0.1894
  296MOL0     O38964   4.401   7.407  10.201 -0.2123  0.1283 -0.5035
  296MOL0     C38965   4.272   7.371  10.150  0.2254 -0.7842  0.5593
  296MOL0     C38966   4.240   7.339  10.017 -0.0443 -0.7779 -0.2641
  296MOL0     C38967   4.112   7.309   9.980  0.4638  0.5463  0.0001
  296MOL0     C38968   4.002   7.300  10.072 -0.1769 -0.2583 -0.2885
  296MOL0     C38969   3.865   7.253  10.034 -0.3533  0.0709 -0.1593
  296MOL0     O38970   3.843   7.273   9.901 -0.1906 -0.3426 -0.2362
  296MOL0     C38971   3.738   7.225   9.833  0.5360 -0.1333 -0.2974
  296MOL0     C38972   3.678   7.311   9.744 -0.4847 -0.3143 -0.3748
  296MOL0     C38973   3.554   7.277   9.687  0.5610 -0.5637  0.7432
  296MOL0     C38974   3.502   7.154   9.692  0.1187  0.4529  0.5640
  296MOL0     O38975   3.396   7.114   9.616  0.7481  0.0031 -0.7498
  296MOL0     C38976   3.288   7.208   9.611  0.8140  0.0107  0.2808
  296MOL0     C38977   3.153   7.148   9.575 -0.6079 -1.0178 -0.4009
  296MOL0     C38978   3.141   7.125   9.423  0.0503 -0.0449 -0.5122
  296MOL0     C38979   3.008   7.053   9.402  0.6766 -0.4566 -0.2427
  296MOL0     C38980   2.877   7.130   9.422 -0.9901  0.5499  0.8584
  296MOL0     C38981   2.871   7.268   9.369 -0.2945  0.3762  0.4383
  296MOL0     C38982   2.743   7.326   9.415 -0.2461 -0.0826 -0.1071
  296MOL0     C38983   2.719   7.466   9.382  0.1646  0.0654 -0.2979
  296MOL0    Cl38984   2.853   7.572   9.446  0.2592 -0.0276  0.3863
  296MOL0     C38985   3.579   7.062   9.767  0.1233  0.3485 -0.2193
  296MOL0     C38986   3.680   7.101   9.847  0.0435  0.8258 -0.4203
  296MOL0     O38987   3.789   7.203  10.118 -0.4265  0.1959  0.2791
  296MOL0     C38988   4.033   7.342  10.208 -0.3829 -0.3191 -0.4045
  296MOL0     C38989   4.163   7.370  10.244 -0.1135  0.2286 -0.2721
  296MOL0     N38990   4.838   6.913  10.194  0.9290  0.0404 -0.0171
  296MOL0     N38991   4.950   6.885  10.244  0.0838  0.5661 -0.7707
  296MOL0     C38992   5.984   7.411  10.294 -0.4676 -0.8815 -0.2107
  296MOL0     C38993   6.092   7.461  10.219  0.0430 -0.2683  0.3563
  296MOL0     C38994   6.509   7.434  10.037 -0.3754  0.6480  0.5514
  296MOL0     C38995   6.600   7.487  10.131  0.4396  0.8339 -0.4543
  296MOL0     C38996   6.737   7.483  10.096 -0.0489  0.0990 -0.3181
  296MOL0     C38997   6.789   7.422   9.978 -0.7354 -0.1702  0.3430
  296MOL0     O38998   6.925   7.414   9.960  0.0525 -0.8430 -0.1516
  296MOL0     C38999   6.984   7.303   9.879  0.2043  0.3805  0.5611
  296MOL0     C39000   7.137   7.328   9.887 -1.0892  0.6409  0.0896
  296MOL0     C39001   7.216   7.226   9.804 -0.7137  0.0884 -0.1266
  296MOL0     C39002   7.356   7.274   9.790  0.7035  0.1367 -0.1373
  296MOL0     C39003   7.433   7.254   9.917  0.1056  0.0989  1.2859
  296MOL0     C39004   7.487   7.241  10.024  0.3024  0.1057 -0.1692
  296MOL0     C39005   6.694   7.367   9.890 -0.7357  0.6402 -0.6372
  296MOL0     C39006   6.553   7.369   9.921  0.2219 -0.8448  0.3579
  296MOL0     H39007   6.348   7.293  10.356 -0.6547 -2.3075  1.9315
  296MOL0     H39008   6.147   7.169  10.464 -1.0968 -0.4682 -1.7873
  296MOL0     H39009   5.921   7.183  10.630 -0.1505  0.3901 -0.3336
  296MOL0     H39010   5.953   7.061  10.500 -0.8360 -0.6295 -1.3127
  296MOL0     H39011   5.680   7.161  10.570  0.7433  0.3953  0.6102
  296MOL0     H39012   5.759   7.014  10.632 -0.3768 -1.9929 -1.5728
  296MOL0     H39013   5.785   6.934  10.405  0.2822  0.8559 -1.0131
  296MOL0     H39014   5.689   7.083  10.351 -0.9170  0.4277 -0.4213
  296MOL0     H39015   5.591   6.830  10.402 -2.2532 -0.0276 -1.1078
  296MOL0     H39016   5.582   6.896  10.560 -1.2187  2.3372  0.0295
  296MOL0     H39017   5.463   7.019  10.295  1.0016 -1.7565  0.3512
  296MOL0     H39018   5.448   7.102  10.453  1.3940  1.3512 -0.1417
  296MOL0     H39019   5.329   6.921  10.549  0.8763  1.5929  0.3299
  296MOL0     H39020   5.318   6.829  10.399 -3.8118 -0.4913  2.8429
  296MOL0     H39021   5.121   6.935  10.449 -0.2329  2.0884  1.3756
  296MOL0     H39022   5.192   7.096  10.436  0.1215 -0.6378  1.7356
  296MOL0     H39023   5.235   6.902  10.207  2.3511  0.8130  2.0751
  296MOL0     H39024   5.236   7.076  10.196  2.5122 -0.7406  0.1865
  296MOL0     H39025   5.021   7.171  10.088 -2.2370  1.6664  0.6955
  296MOL0     H39026   4.631   7.052  10.103 -0.3126 -0.0876 -1.5191
  296MOL0     H39027   4.716   7.096   9.959 -1.7597  0.3279  0.4872
  296MOL0     H39028   4.794   7.294  10.034 -1.3117 -1.7457 -2.6248
  296MOL0     H39029   4.765   7.273  10.202  3.2381 -0.5944 -0.9345
  296MOL0     H39030   4.603   7.428  10.062 -1.0875  0.5174  1.4561
  296MOL0     H39031   4.547   7.269   9.994  1.6641  0.2374 -1.3766
  296MOL0     H39032   4.557   7.332  10.298  1.0382  2.3594 -1.4550
  296MOL0     H39033   4.462   7.209  10.201  2.9185 -1.7209 -1.0305
  296MOL0     H39034   4.325   7.346   9.949  1.6419 -3.0124  1.4501
  296MOL0     H39035   4.087   7.286   9.877 -1.9282 -1.8184  0.9657
  296MOL0     H39036   3.716   7.413   9.734 -0.7890 -0.3166 -1.8494
  296MOL0     H39037   3.512   7.344   9.612 -2.6670 -1.8510  1.2092
  296MOL0     H39038   3.311   7.295   9.549 -1.2031  1.1303  1.0072
  296MOL0     H39039   3.273   7.242   9.714 -0.0011  2.1056 -0.4846
  296MOL0     H39040   3.083   7.219   9.621  1.4588 -0.9567  3.0093
  296MOL0     H39041   3.146   7.056   9.633  2.7019 -0.1186  1.7459
  296MOL0     H39042   3.222   7.060   9.390  1.6282  2.5784 -2.1449
  296MOL0     H39043   3.153   7.216   9.364  1.7675  0.0981  0.0181
  296MOL0     H39044   3.004   7.019   9.298 -1.0434  1.3434 -0.8442
  296MOL0     H39045   3.009   6.956   9.452  3.6312 -0.7394 -0.6904
  296MOL0     H39046   2.871   7.133   9.532  2.2252  1.1983  1.0975
  296MOL0     H39047   2.802   7.061   9.383 -1.2634  1.7392 -0.7948
  296MOL0     H39048   2.873   7.258   9.260 -0.5183 -0.3372  0.4949
  296MOL0     H39049   2.964   7.320   9.395  2.2911 -4.3770  1.8996
  296MOL0     H39050   2.658   7.261   9.391 -0.2647 -1.1856  2.6051
  296MOL0     H39051   2.749   7.316   9.524  3.2962 -1.1484 -0.2690
  296MOL0     H39052   2.626   7.494   9.431 -0.8147  0.1930 -2.1255
  296MOL0     H39053   2.701   7.479   9.274 -3.2498  1.0734  0.2571
  296MOL0     H39054   3.531   6.967   9.789 -3.2969  1.9535 -0.1090
  296MOL0     H39055   3.711   7.032   9.925 -2.9972 -0.2797 -0.0262
  296MOL0     H39056   3.948   7.349  10.275  0.0804  0.5231  0.1171
  296MOL0     H39057   4.191   7.389  10.348 -3.3014 -1.2476  0.9753
  296MOL0     H39058   5.883   7.449  10.281 -0.6224 -1.6072 -1.2828
  296MOL0     H39059   6.077   7.533  10.140 -0.8961 -1.1358 -0.2831
  296MOL0     H39060   6.566   7.530  10.225 -1.2593 -1.6076  0.1326
  296MOL0     H39061   6.798   7.514  10.180 -0.3666 -1.5716  0.5770
  296MOL0     H39062   6.949   7.313   9.776 -0.4091 -3.4036  0.2715
  296MOL0     H39063   6.955   7.204   9.914 -1.8158  1.2198  1.4566
  296MOL0     H39064   7.154   7.431   9.855 -2.2333  0.3098 -1.7548
  296MOL0     H39065   7.162   7.311   9.992  1.0723 -0.4435 -0.5408
  296MOL0     H39066   7.183   7.226   9.700  0.6221 -0.1208 -0.5585
  296MOL0     H39067   7.198   7.120   9.825 -1.6959 -0.1113 -1.8023
  296MOL0     H39068   7.416   7.222   9.715  0.5417 -0.7932  0.3661
  296MOL0     H39069   7.360   7.377   9.752  1.7395  0.1452 -0.0383
  296MOL0     H39070   7.525   7.234  10.124 -1.1609  0.3128  0.4278
  296MOL0     H39071   6.730   7.316   9.801  0.6255 -0.5043  0.5161
  296MOL0     H39072   6.483   7.314   9.860  1.5810 -1.2781 -0.8770
  297MOL0     O39073   2.550  11.155   8.543 -0.2853 -0.3857 -0.6538
  297MOL0     C39074   2.658  11.184   8.600 -0.6147  0.5862 -0.0705
  297MOL0     O39075   2.670  11.211   8.733  0.1822 -0.8226 -0.2211
  297MOL0     C39076   2.555  11.233   8.808  0.1328  0.2148  0.0451
  297MOL0     C39077   2.482  11.351   8.784 -0.7179  0.5406  0.2116
  297MOL0     C39078   2.361  11.372   8.858  0.3979  0.1363 -0.0245
  297MOL0     C39079   2.319  11.284   8.955 -0.1564 -0.1872 -1.0531
  297MOL0     O39080   2.196  11.279   9.016  0.9853 -0.5390 -0.2570
  297MOL0     C39081   2.082  11.351   8.970  0.6553  0.2874  0.6612
  297MOL0     C39082   1.955  11.332   9.052 -0.3284  0.0792  0.4516
  297MOL0     C39083   1.964  11.405   9.188 -0.2337 -0.1684  0.2748
  297MOL0     C39084   1.849  11.385   9.281 -0.6989 -0.4837 -1.2074
  297MOL0     C39085   1.712  11.434   9.218  0.1276 -0.1975 -0.7775
  297MOL0     C39086   1.613  11.343   9.282  0.0846  0.0811 -0.1190
  297MOL0     C39087   1.478  11.378   9.246 -0.1525  0.0758  0.0658
  297MOL0     C39088   1.423  11.500   9.315  0.2459  0.9532  0.2720
  297MOL0     N39089   1.286  11.528   9.279 -0.5701  0.3225 -0.5891
  297MOL0     C39090   1.234  11.562   9.155 -0.2697  0.5424 -0.3086
  297MOL0     C39091   1.106  11.595   9.183  0.0554  0.7292  0.3349
  297MOL0     C39092   0.997  11.640   9.087 -0.7527 -0.2749  0.0659
  297MOL0     C39093   0.925  11.528   9.010 -0.2882 -0.2419  0.0081
  297MOL0     C39094   0.855  11.426   9.103  0.7285  1.1649 -0.8805
  297MOL0     C39095   0.749  11.489   9.200 -0.2702  1.0143  0.0414
  297MOL0     O39096   0.634  11.531   9.133  0.7967 -0.7169 -0.3467
  297MOL0     C39097   0.518  11.574   9.199 -0.6013 -0.1355 -0.0373
  297MOL0     C39098   0.412  11.614   9.117 -0.1584 -1.0795 -0.0081
  297MOL0     C39099   0.291  11.655   9.186  0.3598  0.3229 -0.4404
  297MOL0     C39100   0.269  11.653   9.325  0.2868  0.4460 -0.6195
  297MOL0     C39101   0.141  11.701   9.386 -1.1677  0.4936  0.0866
  297MOL0     O39102   0.068  11.777   9.309 -0.6759  0.1644  0.0028
  297MOL0     C39103  -0.001  11.874   9.370 -0.1305  0.2208  0.4150
  297MOL0     C39104  -0.136  11.888   9.334  0.1722 -0.2504 -0.1144
  297MOL0     C39105  -0.207  11.997   9.384 -0.3963  0.0259  1.1580
  297MOL0     C39106  -0.154  12.093   9.470 -0.4919 -0.7424 -0.0276
  297MOL0     O39107  -0.235  12.191   9.512 -0.2390 -0.6433  0.0561
  297MOL0     C39108  -0.200  12.302   9.590 -0.0739 -1.1997  0.0485
  297MOL0     C39109  -0.314  12.405   9.582 -0.3898 -0.6112 -0.3311
  297MOL0     C39110  -0.327  12.517   9.697  0.6711  0.2552  0.5271
  297MOL0     C39111  -0.463  12.586   9.720 -0.2831 -0.8859 -0.2700
  297MOL0     C39112  -0.510  12.666   9.603 -0.3400  0.0902 -0.3594
  297MOL0     C39113  -0.638  12.737   9.628 -0.3155  0.4380  0.4508
  297MOL0     C39114  -0.673  12.819   9.510  0.3398 -0.6660 -0.1479
  297MOL0     C39115  -0.806  12.884   9.507 -0.3130 -0.3345 -0.3975
  297MOL0    Cl39116  -0.834  12.962   9.336 -0.0012  0.0209  0.3470
  297MOL0     C39117  -0.018  12.075   9.497 -0.2875  1.3740  0.4540
  297MOL0     C39118   0.058  11.969   9.447  0.3333 -0.5727  0.1522
  297MOL0     O39119   0.136  11.691   9.509 -0.2311  0.2109  0.0216
  297MOL0     C39120   0.379  11.605   9.396  1.2459  0.2751  0.0640
  297MOL0     C39121   0.496  11.575   9.335 -0.4459 -0.0115  0.3117
  297MOL0     N39122   1.077  11.576   9.316 -0.1563  0.9895  0.6889
  297MOL0     N39123   1.182  11.527   9.368 -0.1998  0.6435  0.0709
  297MOL0     C39124   2.391  11.171   8.982 -1.1571 -0.0044 -0.1684
  297MOL0     C39125   2.512  11.145   8.916 -0.1903 -0.3695  0.5846
  297MOL0     C39126   2.779  11.166   8.507  0.1526  0.9883  0.8352
  297MOL0     C39127   2.897  11.214   8.540 -0.7820  0.1477 -0.0046
  297MOL0     C39128   3.010  11.183   8.462 -0.7140 -1.3243 -0.0619
  297MOL0     C39129   3.007  11.097   8.349  0.8874 -0.6401  0.9164
  297MOL0     O39130   3.113  11.042   8.283 -1.1902 -0.5619 -0.9901
  297MOL0     C39131   3.240  11.056   8.343 -0.6778  0.1204 -0.6058
  297MOL0     C39132   3.344  10.976   8.259  0.0383 -0.8012  0.2540
  297MOL0     C39133   3.489  11.009   8.294  0.6920  0.8469  0.0572
  297MOL0     C39134   3.526  11.159   8.257 -0.3201  0.2371  0.7000
  297MOL0     C39135   3.662  11.193   8.311 -0.0878  0.4790  0.3898
  297MOL0     C39136   3.773  11.238   8.350  0.8818 -0.3501 -0.2486
  297MOL0     C39137   2.881  11.046   8.316 -0.3166  0.0179 -0.3046
  297MOL0     C39138   2.772  11.080   8.387  0.3105 -0.5926  0.1788
  297MOL0     H39139   2.535  11.419   8.718 -1.1274  0.7265  0.0702
  297MOL0     H39140   2.306  11.465   8.847  2.2150  1.1228 -1.0631
  297MOL0     H39141   2.053  11.308   8.874 -0.8621 -3.1357  2.4882
  297MOL0     H39142   2.107  11.457   8.959  1.3200  0.4688  3.1605
  297MOL0     H39143   1.943  11.228   9.084  0.7468  0.0518  0.8287
  297MOL0     H39144   1.867  11.362   8.994 -1.3710 -2.2116  0.7566
  297MOL0     H39145   1.969  11.512   9.165 -1.1840 -0.4016 -1.0759
  297MOL0     H39146   2.056  11.384   9.245 -0.1047 -0.1939  0.0583
  297MOL0     H39147   1.854  11.279   9.306 -0.3169 -0.0139  0.8572
  297MOL0     H39148   1.867  11.447   9.369  0.3131 -0.9141 -1.1041
  297MOL0     H39149   1.704  11.441   9.110 -1.5295  0.4675 -0.6371
  297MOL0     H39150   1.690  11.536   9.251  3.2519 -0.0044  1.1573
  297MOL0     H39151   1.619  11.340   9.391 -0.8291 -1.5877 -0.0806
  297MOL0     H39152   1.638  11.240   9.255  2.4736  0.5577  0.0604
  297MOL0     H39153   1.478  11.393   9.138  2.0657  2.6790  0.3127
  297MOL0     H39154   1.410  11.295   9.266 -1.3970  0.7783 -1.1083
  297MOL0     H39155   1.476  11.594   9.294 -0.1601  1.0961 -0.1335
  297MOL0     H39156   1.439  11.494   9.423  0.2379  1.0941  0.2817
  297MOL0     H39157   1.280  11.567   9.057 -2.4413  3.4640 -1.3371
  297MOL0     H39158   1.039  11.697   9.004  0.1015 -0.1427  0.5793
  297MOL0     H39159   0.922  11.705   9.132 -1.1495  0.5978 -1.7561
  297MOL0     H39160   1.001  11.471   8.956 -0.2144 -1.3390  1.2130
  297MOL0     H39161   0.855  11.568   8.937 -1.7415  1.3154  2.1254
  297MOL0     H39162   0.815  11.345   9.041  1.1403  0.4174 -0.1861
  297MOL0     H39163   0.922  11.360   9.157 -2.5713 -2.2032 -0.4912
  297MOL0     H39164   0.795  11.575   9.248  4.1936  0.5384 -2.7420
  297MOL0     H39165   0.729  11.426   9.287 -3.8509  3.2248  1.0291
  297MOL0     H39166   0.414  11.633   9.010  0.0216  6.0477  0.7243
  297MOL0     H39167   0.201  11.669   9.127  1.2792 -1.3340 -2.3637
  297MOL0     H39168  -0.188  11.812   9.277 -0.5301 -0.1743  0.4172
  297MOL0     H39169  -0.312  12.004   9.358  0.4457 -0.5283 -3.1666
  297MOL0     H39170  -0.110  12.353   9.556 -1.5624 -0.0206 -2.4701
  297MOL0     H39171  -0.189  12.260   9.690  0.1416 -1.3210 -0.0262
  297MOL0     H39172  -0.404  12.342   9.580  0.5038 -1.9326  0.0742
  297MOL0     H39173  -0.308  12.470   9.494  2.0481 -0.1498  0.1026
  297MOL0     H39174  -0.247  12.588   9.675 -0.2019  0.8621 -0.8724
  297MOL0     H39175  -0.304  12.459   9.787  0.0572  0.1050  0.5971
  297MOL0     H39176  -0.535  12.506   9.740  0.0517 -1.3506 -0.8837
  297MOL0     H39177  -0.455  12.641   9.814 -1.2020  0.3996 -0.9177
  297MOL0     H39178  -0.525  12.602   9.515 -1.5067 -1.5299  0.9508
  297MOL0     H39179  -0.431  12.740   9.584  0.2043 -0.0639  1.1781
  297MOL0     H39180  -0.617  12.800   9.715  5.6695 -2.8234  1.9121
  297MOL0     H39181  -0.716  12.662   9.646  0.6075 -0.3395  1.2706
  297MOL0     H39182  -0.593  12.890   9.487  0.4376 -0.8558 -0.3974
  297MOL0     H39183  -0.678  12.745   9.429  0.0394  0.5194 -1.2440
  297MOL0     H39184  -0.807  12.967   9.578 -1.7805  0.6059 -1.4567
  297MOL0     H39185  -0.885  12.813   9.536 -0.3367  0.3965  1.5139
  297MOL0     H39186   0.028  12.161   9.544 -1.1390  0.1882  3.7839
  297MOL0     H39187   0.166  11.968   9.457  0.6090  3.5883 -0.4265
  297MOL0     H39188   0.364  11.596   9.503  4.1414 -1.7282  0.4422
  297MOL0     H39189   0.573  11.539   9.403 -1.9604 -3.4429  0.4342
  297MOL0     H39190   2.369  11.103   9.064  2.9125 -2.0545 -0.5453
  297MOL0     H39191   2.577  11.065   8.950 -1.7856 -2.9568 -1.9789
  297MOL0     H39192   2.910  11.289   8.617 -1.0294  0.3219 -0.1307
  297MOL0     H39193   3.103  11.233   8.487 -1.8126  0.5716  0.4934
  297MOL0     H39194   3.237  11.019   8.446  0.5003  1.0158 -0.2198
  297MOL0     H39195   3.269  11.161   8.336  1.2261 -0.1750  1.5545
  297MOL0     H39196   3.326  10.870   8.277 -3.5610 -0.6801 -1.5516
  297MOL0     H39197   3.319  10.983   8.152 -1.1243 -2.0063  0.4217
  297MOL0     H39198   3.556  10.940   8.242 -1.5784  0.1735 -2.1539
  297MOL0     H39199   3.509  10.993   8.401  1.2407  0.9398 -0.0277
  297MOL0     H39200   3.521  11.162   8.148 -1.5984 -2.0836  0.6090
  297MOL0     H39201   3.459  11.240   8.288 -1.0661  1.6221 -3.8773
  297MOL0     H39202   3.869  11.280   8.376  0.5958  0.9892 -1.2684
  297MOL0     H39203   2.875  10.974   8.235  1.6497  1.8169 -2.1813
  297MOL0     H39204   2.675  11.034   8.369  0.3189 -0.2789 -0.7744
  298MOL0     O39205  10.569  10.119   1.729  0.9391 -0.0827 -0.8924
  298MOL0     C39206  10.637  10.018   1.702  0.2128 -0.7684  0.2793
  298MOL0     O39207  10.613   9.936   1.599  0.0460 -0.2784 -0.0894
  298MOL0     C39208  10.518   9.971   1.508  0.2262 -0.5386  0.4933
  298MOL0     C39209  10.508  10.098   1.440 -0.1927  0.4566  0.5349
  298MOL0     C39210  10.409  10.123   1.345 -0.4223  1.0494  0.2006
  298MOL0     C39211  10.329  10.012   1.312 -0.2846  0.3255 -0.3383
  298MOL0     O39212  10.235  10.038   1.219  0.1742 -0.2076  0.1149
  298MOL0     C39213  10.104  10.069   1.277  0.8335  0.6076 -0.5628
  298MOL0     C39214  10.002   9.960   1.234  0.3468  0.2474 -0.2035
  298MOL0     C39215   9.858   9.993   1.186  0.2421 -0.6998 -0.7229
  298MOL0     C39216   9.762  10.023   1.305  0.2734  0.3930 -0.2187
  298MOL0     C39217   9.623  10.074   1.259 -0.0636 -0.2718 -0.3055
  298MOL0     C39218   9.550   9.987   1.151 -0.1429  1.0251 -0.0266
  298MOL0     C39219   9.398  10.025   1.151  0.3299 -0.2835 -0.1629
  298MOL0     C39220   9.330   9.983   1.278  0.2837  0.4321 -0.3916
  298MOL0     N39221   9.204  10.049   1.306  0.1544 -0.0462 -0.6562
  298MOL0     C39222   9.084  10.037   1.231 -0.1452  0.4467 -1.1002
  298MOL0     C39223   8.986  10.095   1.306 -0.7916  0.9265 -0.0126
  298MOL0     C39224   8.848  10.110   1.247 -0.1755  0.2439 -0.5422
  298MOL0     C39225   8.790  10.245   1.290  0.3057  1.2373 -0.2722
  298MOL0     C39226   8.656  10.260   1.220 -0.6488 -1.1979  0.5454
  298MOL0     C39227   8.564  10.347   1.303  0.3779  0.4982 -0.4283
  298MOL0     O39228   8.446  10.365   1.231  0.0459 -0.0376 -0.0815
  298MOL0     C39229   8.329  10.393   1.290 -0.3098 -0.0377 -0.0845
  298MOL0     C39230   8.303  10.440   1.419  0.3019  0.2514 -0.8829
  298MOL0     C39231   8.179  10.447   1.469  0.5225  0.1999 -0.6824
  298MOL0     C39232   8.069  10.423   1.389 -0.2842 -0.0022  0.2861
  298MOL0     C39233   7.933  10.443   1.452 -0.0436  0.3385 -0.2413
  298MOL0     O39234   7.829  10.402   1.382  0.8569  0.2380  0.6335
  298MOL0     C39235   7.697  10.404   1.420  0.1662 -0.2070 -0.8630
  298MOL0     C39236   7.600  10.478   1.348  0.2797 -0.2761 -1.1364
  298MOL0     C39237   7.467  10.472   1.378  0.6849  0.2403 -0.2592
  298MOL0     C39238   7.424  10.385   1.480  0.0619 -0.0419  0.1608
  298MOL0     O39239   7.288  10.378   1.512 -0.4858  0.0240 -0.2508
  298MOL0     C39240   7.207  10.343   1.401  0.0017  0.2035  0.0389
  298MOL0     C39241   7.109  10.450   1.362 -0.9020  0.2754 -1.1359
  298MOL0     C39242   7.036  10.509   1.487 -0.2524  0.1447  0.7202
  298MOL0     C39243   6.949  10.629   1.449  1.0136  0.2081  0.1257
  298MOL0     C39244   6.810  10.584   1.384 -0.6813 -0.0705  0.6275
  298MOL0     C39245   6.714  10.704   1.353  0.7164  0.5496  0.3007
  298MOL0     C39246   6.740  10.750   1.205  0.1181  0.7694  0.4316
  298MOL0     C39247   6.682  10.878   1.170 -0.1263  0.0554 -0.4023
  298MOL0    Cl39248   6.760  11.002   1.271  0.1604  0.3414  1.0276
  298MOL0     C39249   7.514  10.312   1.550  0.0038  0.0153 -0.3688
  298MOL0     C39250   7.653  10.314   1.524  0.1812 -0.3829  0.3446
  298MOL0     O39251   7.930  10.491   1.560  0.0519  0.0668 -0.9693
  298MOL0     C39252   8.096  10.374   1.255  0.7250  1.0769 -0.3589
  298MOL0     C39253   8.222  10.366   1.203 -0.4276 -0.5174 -0.1428
  298MOL0     N39254   9.053  10.145   1.418  0.2717 -0.3626 -0.5680
  298MOL0     N39255   9.179  10.119   1.420 -0.2781 -0.2070 -0.6699
  298MOL0     C39256  10.347   9.890   1.363  0.1102 -0.3384  0.3151
  298MOL0     C39257  10.441   9.862   1.456 -0.4421 -0.2356  0.4272
  298MOL0     C39258  10.734   9.975   1.807 -0.6146 -0.2380 -0.1427
  298MOL0     C39259  10.785  10.070   1.898 -0.5371  0.0672 -0.0107
  298MOL0     C39260  10.889  10.031   1.988  0.0371 -0.0850 -0.1131
  298MOL0     C39261  10.948   9.904   1.972 -1.5046 -0.2702 -0.3935
  298MOL0     O39262  11.063   9.866   2.055  1.0014  0.4514  0.2271
  298MOL0     C39263  11.120   9.736   2.046  0.1994 -0.5263 -0.4077
  298MOL0     C39264  11.223   9.725   1.942 -0.1073  0.2098 -0.1302
  298MOL0     C39265  11.361   9.781   1.985  0.2874  0.1212  0.3858
  298MOL0     C39266  11.350   9.928   2.032 -1.3910 -1.4025 -0.6310
  298MOL0     C39267  11.484   9.975   2.039 -0.2507  0.9105 -0.5847
  298MOL0     C39268  11.596  10.023   2.047  0.7810 -0.3025  0.2071
  298MOL0     C39269  10.895   9.810   1.881  0.6123  0.4755 -0.5416
  298MOL0     C39270  10.787   9.851   1.811  0.8509  0.4592  0.1275
  298MOL0     H39271  10.576  10.177   1.469 -2.3207  2.0629  1.4729
  298MOL0     H39272  10.391  10.220   1.299  0.2704  2.3128  2.4681
  298MOL0     H39273  10.077  10.164   1.230  1.5091  1.0772 -0.0095
  298MOL0     H39274  10.110  10.075   1.386 -1.3299 -3.1382 -0.0429
  298MOL0     H39275  10.008   9.877   1.306  1.8959  1.0236  0.6056
  298MOL0     H39276  10.036   9.920   1.139  0.2944 -0.7263  0.1718
  298MOL0     H39277   9.826   9.909   1.123  0.4261 -1.5783  0.3327
  298MOL0     H39278   9.859  10.085   1.126  1.1939  0.8113  1.4795
  298MOL0     H39279   9.750   9.928   1.356 -0.2924 -0.0792 -1.2046
  298MOL0     H39280   9.810  10.107   1.357 -3.3274  2.2307  0.4021
  298MOL0     H39281   9.629  10.175   1.216  0.9539 -0.2254 -0.0886
  298MOL0     H39282   9.565  10.094   1.350 -3.8377  0.4201 -2.6436
  298MOL0     H39283   9.558   9.879   1.164  1.3940  1.0680 -0.4027
  298MOL0     H39284   9.607   9.993   1.058  3.0197  0.7149  1.7541
  298MOL0     H39285   9.386  10.133   1.141 -0.7049 -0.3026  0.6352
  298MOL0     H39286   9.345   9.977   1.068 -0.1855  1.3654 -0.8232
  298MOL0     H39287   9.404   9.974   1.358  1.9359 -2.3992 -2.0891
  298MOL0     H39288   9.293   9.881   1.269 -3.6557  1.1614  3.6954
  298MOL0     H39289   9.058   9.978   1.143 -3.9323 -0.3497  0.3409
  298MOL0     H39290   8.796  10.019   1.280  0.4902  0.1243  0.1982
  298MOL0     H39291   8.862  10.108   1.138 -0.8327 -0.8499 -0.6258
  298MOL0     H39292   8.862  10.320   1.257 -0.6987  1.4862 -2.0245
  298MOL0     H39293   8.784  10.255   1.399 -0.5301  0.9114 -0.2806
  298MOL0     H39294   8.670  10.308   1.122  1.9727 -1.5827  0.6510
  298MOL0     H39295   8.604  10.167   1.197 -2.4737 -0.0870 -0.0172
  298MOL0     H39296   8.620  10.440   1.316 -0.4716  1.0690 -0.7365
  298MOL0     H39297   8.543  10.310   1.404  0.3130 -0.7954 -0.9044
  298MOL0     H39298   8.385  10.479   1.480 -0.1957 -1.3378  0.9107
  298MOL0     H39299   8.155  10.481   1.570 -0.4018 -0.0332 -0.8121
  298MOL0     H39300   7.621  10.540   1.262 -3.3999  2.0421 -0.6030
  298MOL0     H39301   7.380  10.521   1.335 -0.5330 -0.9103  0.7894
  298MOL0     H39302   7.155  10.250   1.427 -0.7167  0.5628 -0.0874
  298MOL0     H39303   7.268  10.316   1.315  1.6812  0.3984  1.1285
  298MOL0     H39304   7.042  10.402   1.289  0.8079 -2.1618 -1.2150
  298MOL0     H39305   7.147  10.539   1.310 -0.7533  0.9683  0.1267
  298MOL0     H39306   7.100  10.533   1.572 -0.6650 -1.1038  1.3958
  298MOL0     H39307   6.972  10.429   1.525 -1.2105 -0.4100 -1.8457
  298MOL0     H39308   6.922  10.693   1.534  1.1964  1.2416 -0.5726
  298MOL0     H39309   7.002  10.696   1.381  0.2531  3.1157  2.2205
  298MOL0     H39310   6.761  10.532   1.467 -1.8902  1.8074  1.1431
  298MOL0     H39311   6.833  10.519   1.300  0.5664 -0.1054  0.9714
  298MOL0     H39312   6.709  10.790   1.420  0.2196  1.4518 -0.8637
  298MOL0     H39313   6.615  10.658   1.358  1.7359 -1.6545  1.3899
  298MOL0     H39314   6.849  10.757   1.198  0.0570  0.2348 -1.3673
  298MOL0     H39315   6.707  10.678   1.130  2.0175  0.3506 -0.0338
  298MOL0     H39316   6.573  10.883   1.185  0.1905  0.5083  2.2925
  298MOL0     H39317   6.699  10.905   1.065 -0.2665  1.5875 -0.0678
  298MOL0     H39318   7.476  10.241   1.623 -3.0245 -0.0459 -1.8485
  298MOL0     H39319   7.727  10.259   1.582 -0.9800 -3.6742 -1.0701
  298MOL0     H39320   8.003  10.354   1.203 -0.2602  3.0167  0.5379
  298MOL0     H39321   8.248  10.327   1.105  1.4879 -0.6949  0.3990
  298MOL0     H39322  10.288   9.807   1.326  1.8391 -0.9983 -1.1048
  298MOL0     H39323  10.456   9.762   1.497  1.9465 -0.8974 -1.7998
  298MOL0     H39324  10.748  10.172   1.898  1.6249  0.9160  0.2346
  298MOL0     H39325  10.934  10.104   2.054 -0.5636 -1.0040  1.3731
  298MOL0     H39326  11.049   9.654   2.040 -0.3939  0.0321 -1.2408
  298MOL0     H39327  11.159   9.719   2.147  1.3893 -0.9570 -0.9235
  298MOL0     H39328  11.242   9.618   1.924 -0.5713 -0.0648  0.8979
  298MOL0     H39329  11.193   9.773   1.848 -1.5275  3.1740  1.6952
  298MOL0     H39330  11.430   9.756   1.903 -2.8446 -4.0187 -1.3605
  298MOL0     H39331  11.404   9.723   2.068  0.3721  0.7010  0.7487
  298MOL0     H39332  11.310   9.982   1.946  1.4871 -0.6937 -1.6072
  298MOL0     H39333  11.305   9.943   2.131  0.0170  2.2017 -0.4081
  298MOL0     H39334  11.689  10.075   2.040  0.6033 -0.0329 -0.2173
  298MOL0     H39335  10.925   9.708   1.859  1.2650  0.6141 -0.3408
  298MOL0     H39336  10.754   9.771   1.746  3.8213 -1.2883  0.5834
  299MOL0     O39337   9.962   4.265   4.196  0.1413 -0.0465 -0.6907
  299MOL0     C39338   9.984   4.147   4.191 -0.6415  0.0355 -0.2779
  299MOL0     O39339   9.898   4.051   4.222 -0.4339 -0.7946  0.2185
  299MOL0     C39340   9.772   4.074   4.265 -1.2039  0.4713 -0.4067
  299MOL0     C39341   9.680   3.978   4.242 -0.4945 -0.0462  1.2422
  299MOL0     C39342   9.552   3.986   4.294 -0.3687 -0.9766  0.6753
  299MOL0     C39343   9.514   4.099   4.369 -0.4588  0.5409  0.4661
  299MOL0     O39344   9.383   4.107   4.388  0.2514 -0.4096 -0.0113
  299MOL0     C39345   9.337   4.133   4.523 -0.9705 -0.1413 -0.5237
  299MOL0     C39346   9.286   4.278   4.545  0.8358  0.4297  1.1192
  299MOL0     C39347   9.243   4.297   4.681 -0.2837 -0.1891 -0.6585
  299MOL0     C39348   9.181   4.437   4.705  0.9070 -0.0236  0.4406
  299MOL0     C39349   9.096   4.449   4.832 -0.0289 -0.2155  0.7513
  299MOL0     C39350   8.964   4.379   4.836  0.7493  0.4603  0.3300
  299MOL0     C39351   8.906   4.369   4.971 -0.4304 -0.7684 -0.1504
  299MOL0     C39352   8.764   4.304   4.960  0.3020  0.1064 -0.7700
  299MOL0     N39353   8.676   4.390   4.880  0.5010 -0.3468  0.0591
  299MOL0     C39354   8.561   4.349   4.813  0.4396  0.6617  0.0758
  299MOL0     C39355   8.481   4.453   4.796 -0.9398 -0.1068 -0.0378
  299MOL0     C39356   8.353   4.447   4.725  0.5465  0.4952  0.0834
  299MOL0     C39357   8.239   4.525   4.774  0.5778 -0.0903 -0.3548
  299MOL0     C39358   8.114   4.501   4.693 -0.1399  0.2084 -0.0077
  299MOL0     C39359   8.005   4.606   4.721  0.6062  0.3409 -0.1228
  299MOL0     O39360   7.971   4.608   4.863  0.3232  0.8866  0.3631
  299MOL0     C39361   7.873   4.523   4.903 -0.3570  0.7072 -0.0342
  299MOL0     C39362   7.823   4.410   4.832 -0.1174 -0.8524  0.8466
  299MOL0     C39363   7.718   4.328   4.883  0.2071  0.6005  0.0802
  299MOL0     C39364   7.685   4.338   5.020  0.4163  0.6297  0.1603
  299MOL0     C39365   7.583   4.260   5.083  0.1868  0.0272 -0.2752
  299MOL0     O39366   7.498   4.188   5.004 -0.7469  0.0900  0.3960
  299MOL0     C39367   7.396   4.113   5.058 -0.5966 -0.8781 -0.0955
  299MOL0     C39368   7.313   4.150   5.164  0.1388 -0.1316 -0.4454
  299MOL0     C39369   7.194   4.072   5.196 -0.5465 -0.6991 -0.2483
  299MOL0     C39370   7.174   3.953   5.133  0.0009  0.3483 -0.8048
  299MOL0     O39371   7.065   3.876   5.165  0.4678 -0.4888 -0.9136
  299MOL0     C39372   6.940   3.941   5.162 -0.2104 -0.9883  0.7798
  299MOL0     C39373   6.845   3.841   5.097  0.0795 -0.4092 -0.2795
  299MOL0     C39374   6.880   3.825   4.945 -0.2287  0.3380  0.5628
  299MOL0     C39375   6.856   3.959   4.872 -0.7936  0.2750 -0.1904
  299MOL0     C39376   6.855   3.972   4.724 -0.0447  0.0974  0.1156
  299MOL0     C39377   6.772   3.875   4.648  1.2461  0.3382  0.2696
  299MOL0     C39378   6.800   3.887   4.492  0.4392  0.5003 -0.8322
  299MOL0     C39379   6.848   3.754   4.441  0.4128 -0.4370 -0.1316
  299MOL0    Cl39380   6.716   3.632   4.458 -0.2025 -0.2556 -0.0982
  299MOL0     C39381   7.269   3.902   5.041 -0.5140 -0.6265 -0.3768
  299MOL0     C39382   7.374   3.988   5.003  0.2870  0.2087  1.0911
  299MOL0     O39383   7.578   4.261   5.208 -0.2459 -0.2161  0.3142
  299MOL0     C39384   7.759   4.432   5.090  0.0632  0.7098 -0.5682
  299MOL0     C39385   7.835   4.527   5.032 -1.1677 -0.2590  0.3225
  299MOL0     N39386   8.550   4.564   4.832  0.0408 -0.3202 -0.5125
  299MOL0     N39387   8.663   4.530   4.887  0.3178  0.4769  0.4516
  299MOL0     C39388   9.610   4.195   4.402 -0.5457 -0.0758  0.0802
  299MOL0     C39389   9.733   4.179   4.353 -0.8883  0.1986 -0.4292
  299MOL0     C39390  10.108   4.094   4.146 -0.3532  0.1024 -0.5282
  299MOL0     C39391  10.202   4.164   4.071 -0.1054 -0.7009 -0.1068
  299MOL0     C39392  10.316   4.099   4.036  0.5458 -0.3120  0.1226
  299MOL0     C39393  10.355   3.976   4.085  0.4056  0.2344  0.1363
  299MOL0     O39394  10.483   3.930   4.066  0.0866  0.1864 -0.0183
  299MOL0     C39395  10.554   3.988   3.955  0.3088 -0.2505  0.3992
  299MOL0     C39396  10.680   3.907   3.950  0.0233  0.2087  0.2921
  299MOL0     C39397  10.766   3.948   3.833  0.2737 -0.3887 -0.0254
  299MOL0     C39398  10.901   3.870   3.846  1.4756  0.1855  0.3448
  299MOL0     C39399  11.008   3.957   3.892 -0.2694 -1.2904 -0.0412
  299MOL0     C39400  11.098   4.036   3.929 -0.9681 -0.3114  0.4699
  299MOL0     C39401  10.262   3.902   4.161 -0.3323 -0.3636 -0.7827
  299MOL0     C39402  10.144   3.965   4.188  0.2229  0.2078 -0.2231
  299MOL0     H39403   9.693   3.883   4.192 -0.3480  1.4062 -1.7105
  299MOL0     H39404   9.466   3.925   4.271 -2.6111  2.5471 -1.1710
  299MOL0     H39405   9.413   4.105   4.596 -1.4736 -0.8537 -0.2635
  299MOL0     H39406   9.256   4.063   4.545  1.3356 -1.6509  4.6386
  299MOL0     H39407   9.203   4.294   4.476  0.8841  1.1321  1.2145
  299MOL0     H39408   9.359   4.356   4.526 -1.5167  2.0975 -1.8783
  299MOL0     H39409   9.330   4.303   4.748 -1.6437  1.1712  1.0700
  299MOL0     H39410   9.182   4.211   4.712  1.1429 -0.8716  0.3999
  299MOL0     H39411   9.247   4.524   4.701 -2.7194  3.0916  1.8169
  299MOL0     H39412   9.124   4.442   4.612  1.4251 -0.6604  0.0798
  299MOL0     H39413   9.072   4.555   4.845 -1.1471 -0.2508 -0.7914
  299MOL0     H39414   9.160   4.412   4.913 -0.1064  2.5335  2.1949
  299MOL0     H39415   8.966   4.274   4.806 -3.6428  0.4711 -0.5251
  299MOL0     H39416   8.892   4.420   4.765  1.4347 -1.7616 -1.7813
  299MOL0     H39417   8.970   4.303   5.030 -0.1606 -0.0658  0.3411
  299MOL0     H39418   8.914   4.465   5.021  0.2312  0.3505 -2.2899
  299MOL0     H39419   8.712   4.300   5.056  2.1052  2.0958  0.3849
  299MOL0     H39420   8.775   4.204   4.917  2.3830  0.4436 -1.1336
  299MOL0     H39421   8.537   4.246   4.790  1.6438  0.1532  0.9982
  299MOL0     H39422   8.308   4.348   4.721 -1.2893  1.3391 -1.5110
  299MOL0     H39423   8.374   4.471   4.620  2.4355 -1.3643 -0.0319
  299MOL0     H39424   8.262   4.632   4.769 -0.9660  0.2100 -2.0366
  299MOL0     H39425   8.215   4.500   4.878  0.3532 -2.1782 -0.8798
  299MOL0     H39426   8.139   4.494   4.587 -0.9082 -0.0308 -0.1747
  299MOL0     H39427   8.079   4.400   4.715  1.2798 -0.1187  0.8766
  299MOL0     H39428   7.918   4.588   4.656 -1.1213  1.3575  1.8116
  299MOL0     H39429   8.047   4.702   4.690  0.6901  0.3024 -0.1295
  299MOL0     H39430   7.859   4.389   4.732  0.5383  3.0155  0.0941
  299MOL0     H39431   7.674   4.237   4.843  1.4763 -0.0197  0.0430
  299MOL0     H39432   7.328   4.246   5.212 -1.0008 -0.7070  1.1512
  299MOL0     H39433   7.132   4.105   5.279  0.6922  0.6626  0.1733
  299MOL0     H39434   6.939   4.042   5.120 -3.3345 -0.5792  1.5694
  299MOL0     H39435   6.913   3.963   5.266 -0.1490 -1.0699  0.8129
  299MOL0     H39436   6.743   3.876   5.115  0.7194  0.3838  2.1865
  299MOL0     H39437   6.844   3.742   5.143 -0.3873  0.5936  1.9898
  299MOL0     H39438   6.828   3.742   4.897  0.5558 -1.1408  2.1718
  299MOL0     H39439   6.985   3.801   4.926 -0.1080  1.2966 -0.0624
  299MOL0     H39440   6.766   4.009   4.910 -0.3506  0.3816  0.7477
  299MOL0     H39441   6.943   4.020   4.899  0.0572 -0.3468 -1.4093
  299MOL0     H39442   6.959   3.977   4.690  0.7453  0.3158  2.3821
  299MOL0     H39443   6.807   4.064   4.690 -0.2877 -0.7168 -1.8819
  299MOL0     H39444   6.667   3.901   4.666  0.9891 -1.9696  2.7318
  299MOL0     H39445   6.795   3.772   4.677  2.2380 -0.0441 -1.7718
  299MOL0     H39446   6.722   3.939   4.435 -1.8706 -1.5220  0.2865
  299MOL0     H39447   6.888   3.951   4.483  0.8998  0.0883  0.4453
  299MOL0     H39448   6.937   3.717   4.493 -0.9723 -3.2871  0.3828
  299MOL0     H39449   6.885   3.766   4.339  2.4729 -3.4099  0.1174
  299MOL0     H39450   7.261   3.800   5.004  1.9567 -0.9692 -0.1143
  299MOL0     H39451   7.439   3.938   4.932  2.0305  3.3602  0.2823
  299MOL0     H39452   7.735   4.457   5.193  1.1725 -3.4173  0.8878
  299MOL0     H39453   7.877   4.605   5.095  3.0409 -1.8701 -0.1417
  299MOL0     H39454   9.591   4.289   4.453 -0.5103 -0.4086  0.7195
  299MOL0     H39455   9.799   4.256   4.390 -1.4606  0.3461  0.3118
  299MOL0     H39456  10.185   4.259   4.021  1.2428 -0.5632 -0.3415
  299MOL0     H39457  10.375   4.149   3.960  2.1042  0.2592  1.6400
  299MOL0     H39458  10.577   4.095   3.965 -0.0110 -0.1462  0.0376
  299MOL0     H39459  10.490   3.970   3.869  0.1500 -1.3116  0.7286
  299MOL0     H39460  10.730   3.926   4.045  0.4163  0.6082  0.0077
  299MOL0     H39461  10.656   3.800   3.941 -0.4059  0.4016 -1.2259
  299MOL0     H39462  10.793   4.052   3.816  5.4991 -1.3118  0.8335
  299MOL0     H39463  10.725   3.920   3.735 -0.7994  3.6913 -0.9175
  299MOL0     H39464  10.900   3.776   3.902  1.0636 -1.4023 -2.1704
  299MOL0     H39465  10.921   3.843   3.742  0.2854  4.8430 -1.3537
  299MOL0     H39466  11.182   4.099   3.953 -0.4402 -1.9171  3.2499
  299MOL0     H39467  10.284   3.802   4.198  0.4414 -0.3074 -1.0685
  299MOL0     H39468  10.080   3.894   4.241 -1.2220  0.3882 -1.6294
  300MOL0     O39469   5.015   6.750   2.347 -0.1294 -0.2319  0.0574
  300MOL0     C39470   5.076   6.748   2.240  0.2841 -0.6047  0.3095
  300MOL0     O39471   5.025   6.729   2.112  0.0120 -0.1943  0.2375
  300MOL0     C39472   4.900   6.669   2.105  0.2654 -0.9563  0.1949
  300MOL0     C39473   4.811   6.721   2.020  0.9652  0.6727  0.5223
  300MOL0     C39474   4.679   6.670   2.009 -0.0642  0.1395  0.1472
  300MOL0     C39475   4.652   6.556   2.092  0.8726 -0.2172  0.4596
  300MOL0     O39476   4.526   6.496   2.093  0.4768 -0.0254 -0.0689
  300MOL0     C39477   4.417   6.560   2.024 -0.2125  0.6515 -0.4541
  300MOL0     C39478   4.289   6.488   2.076  0.5655  0.1691 -0.3374
  300MOL0     C39479   4.169   6.495   1.983  1.0326 -0.5194  0.4863
  300MOL0     C39480   4.034   6.496   2.047 -1.1473  0.3375 -0.7675
  300MOL0     C39481   3.920   6.493   1.945 -0.2525 -0.1924  0.7239
  300MOL0     C39482   3.920   6.623   1.861  0.2259  0.0585  0.8311
  300MOL0     C39483   3.801   6.606   1.757  1.3079 -0.5363  0.7836
  300MOL0     C39484   3.783   6.721   1.664 -0.0081 -0.6154  0.4359
  300MOL0     N39485   3.656   6.707   1.589 -0.0456 -0.0655 -0.4260
  300MOL0     C39486   3.629   6.644   1.466  0.7079  0.0770 -0.0398
  300MOL0     C39487   3.499   6.680   1.434  0.4078  0.6707 -1.1404
  300MOL0     C39488   3.414   6.611   1.323  0.1298 -0.7179 -0.4809
  300MOL0     C39489   3.489   6.620   1.186 -0.4361  0.0557 -0.1742
  300MOL0     C39490   3.396   6.569   1.078  0.0381  0.7864  0.3732
  300MOL0     C39491   3.374   6.416   1.070  0.4090 -0.6571  0.1582
  300MOL0     O39492   3.337   6.385   0.925 -0.2332  0.0271  0.0571
  300MOL0     C39493   3.195   6.388   0.903 -0.1758  0.3028 -0.6964
  300MOL0     C39494   3.128   6.466   0.822 -0.1619 -1.3289  0.6523
  300MOL0     C39495   2.991   6.438   0.789 -0.3221  0.3822 -0.2500
  300MOL0     C39496   2.918   6.322   0.842 -1.0289 -0.4553  0.1121
  300MOL0     C39497   2.783   6.313   0.803  0.6929 -0.4569  0.3066
  300MOL0     O39498   2.734   6.417   0.717  0.3276  0.3027 -1.0448
  300MOL0     C39499   2.601   6.403   0.676  0.1344  0.1919  0.1157
  300MOL0     C39500   2.513   6.509   0.701  0.3391  0.3521 -0.1601
  300MOL0     C39501   2.376   6.495   0.684  0.9908  0.8631 -0.0667
  300MOL0     C39502   2.320   6.384   0.624 -1.2201  1.0914  0.0999
  300MOL0     O39503   2.191   6.353   0.595 -0.3510  0.5376 -0.3600
  300MOL0     C39504   2.096   6.461   0.590 -0.1352  0.7741  0.0333
  300MOL0     C39505   2.121   6.554   0.473 -0.3137 -0.6198 -0.6718
  300MOL0     C39506   1.995   6.644   0.450  0.4479  0.0219  0.5619
  300MOL0     C39507   1.865   6.577   0.409 -0.7235  0.4731  0.3813
  300MOL0     C39508   1.771   6.680   0.355  0.0007  0.0274  0.6433
  300MOL0     C39509   1.631   6.622   0.324  0.7985  0.5921  0.5453
  300MOL0     C39510   1.530   6.724   0.259  0.4605  0.1414  0.9860
  300MOL0     C39511   1.435   6.666   0.146 -0.2453  0.5648  0.0237
  300MOL0    Cl39512   1.351   6.519   0.214  0.0612  0.0707  0.1028
  300MOL0     C39513   2.402   6.276   0.585  0.0286 -0.1115 -0.4279
  300MOL0     C39514   2.541   6.282   0.628  0.7018 -0.3133 -0.4362
  300MOL0     O39515   2.714   6.221   0.846  0.5712 -0.5728  0.3564
  300MOL0     C39516   2.994   6.253   0.945 -0.8213  0.2990 -0.4973
  300MOL0     C39517   3.130   6.286   0.963 -0.1384 -0.2505 -0.2876
  300MOL0     N39518   3.447   6.743   1.546 -0.1997 -1.2091  0.2999
  300MOL0     N39519   3.545   6.768   1.629 -1.1150 -0.3191  0.5737
  300MOL0     C39520   4.742   6.506   2.179  0.0428 -0.3928 -0.0433
  300MOL0     C39521   4.878   6.561   2.184 -0.1431  0.6339 -0.2938
  300MOL0     C39522   5.218   6.789   2.253 -0.1440  0.7352  0.6608
  300MOL0     C39523   5.300   6.785   2.140 -0.7674  0.9406 -0.2529
  300MOL0     C39524   5.432   6.825   2.137 -0.1669 -0.6067 -0.9510
  300MOL0     C39525   5.489   6.873   2.258 -0.5050 -0.4418  0.1474
  300MOL0     O39526   5.624   6.903   2.254  0.5528  0.0893 -0.3468
  300MOL0     C39527   5.659   7.036   2.293 -0.3252  0.0738  0.3114
  300MOL0     C39528   5.769   7.047   2.397  0.0694 -0.2520 -0.6252
  300MOL0     C39529   5.831   7.192   2.399 -0.1277 -0.1637  0.9171
  300MOL0     C39530   5.725   7.303   2.356  0.0014  0.0079  0.8589
  300MOL0     C39531   5.779   7.440   2.375  0.2210  1.2891  0.0925
  300MOL0     C39532   5.818   7.557   2.396 -0.6633  0.7119 -0.3403
  300MOL0     C39533   5.413   6.878   2.376  0.0714  0.0733 -0.1331
  300MOL0     C39534   5.275   6.840   2.376 -0.7673  0.5580 -0.3917
  300MOL0     H39535   4.842   6.811   1.967  0.6580  0.7396  0.4498
  300MOL0     H39536   4.619   6.724   1.936  2.6189  1.5592 -1.2145
  300MOL0     H39537   4.432   6.543   1.917  1.4786 -1.5258  0.0514
  300MOL0     H39538   4.421   6.667   2.045 -1.0585  0.7910 -0.9343
  300MOL0     H39539   4.255   6.538   2.167 -1.9226  0.1098 -1.1385
  300MOL0     H39540   4.306   6.385   2.109  1.7368 -0.1126 -1.7364
  300MOL0     H39541   4.173   6.413   1.911  0.0418  0.4256 -0.6943
  300MOL0     H39542   4.182   6.593   1.934  0.5657  0.7309  2.7433
  300MOL0     H39543   4.018   6.400   2.098  1.2579  0.7836  1.0089
  300MOL0     H39544   4.033   6.571   2.126  1.6771  0.1024 -0.4275
  300MOL0     H39545   3.825   6.476   1.995 -1.2102  0.2043 -0.8935
  300MOL0     H39546   3.925   6.406   1.879 -0.0434  0.2911  0.0807
  300MOL0     H39547   4.017   6.640   1.812 -1.6058 -1.0330 -3.6775
  300MOL0     H39548   3.897   6.705   1.929  0.4562 -0.8984  2.0959
  300MOL0     H39549   3.815   6.524   1.686  1.7719  1.4846 -1.6228
  300MOL0     H39550   3.704   6.596   1.807  0.6077  0.4836 -0.2923
  300MOL0     H39551   3.862   6.730   1.589 -1.5081 -1.8742 -1.3842
  300MOL0     H39552   3.782   6.808   1.731 -1.2812 -1.9102  2.2273
  300MOL0     H39553   3.694   6.600   1.391 -1.0029  2.1873 -2.9954
  300MOL0     H39554   3.320   6.666   1.313 -1.2108 -2.5540  1.2413
  300MOL0     H39555   3.386   6.511   1.358 -1.9416  0.1628  0.5596
  300MOL0     H39556   3.583   6.567   1.169  1.2564  3.4746 -2.7115
  300MOL0     H39557   3.518   6.723   1.162  2.4553 -1.0573 -1.9984
  300MOL0     H39558   3.300   6.622   1.077  0.2268  1.1423 -0.6512
  300MOL0     H39559   3.437   6.589   0.978 -1.0193 -2.4529 -0.8250
  300MOL0     H39560   3.301   6.390   1.147 -0.0184  2.0248  0.7576
  300MOL0     H39561   3.471   6.366   1.078  0.9048 -0.0598 -1.7154
  300MOL0     H39562   3.178   6.529   0.749 -1.1713 -2.7512 -1.3765
  300MOL0     H39563   2.945   6.504   0.717 -0.1979  0.0502 -0.6392
  300MOL0     H39564   2.558   6.597   0.746  0.5083 -0.0266  0.4123
  300MOL0     H39565   2.309   6.577   0.709 -0.6707 -1.1269  2.7683
  300MOL0     H39566   2.099   6.529   0.675 -2.8004 -0.9088  1.6208
  300MOL0     H39567   2.006   6.400   0.580  0.3836  0.3590 -3.1021
  300MOL0     H39568   2.143   6.498   0.381  3.4136 -3.1524  1.4831
  300MOL0     H39569   2.210   6.615   0.493  0.8889 -2.6500  0.5954
  300MOL0     H39570   2.025   6.697   0.359  0.1198 -1.5889 -0.5244
  300MOL0     H39571   1.978   6.710   0.536 -1.2510  0.4487 -0.0560
  300MOL0     H39572   1.901   6.519   0.324  0.0286  1.4845 -0.0191
  300MOL0     H39573   1.812   6.506   0.473 -1.1309 -0.7019 -1.2103
  300MOL0     H39574   1.818   6.721   0.266 -0.4789 -3.1003 -1.1906
  300MOL0     H39575   1.748   6.757   0.430 -0.9015  1.5358 -1.1131
  300MOL0     H39576   1.586   6.578   0.414 -0.4452 -1.2418 -0.8705
  300MOL0     H39577   1.646   6.539   0.254  0.8485 -1.1327  2.4949
  300MOL0     H39578   1.462   6.765   0.335  1.0458  0.0851  1.5452
  300MOL0     H39579   1.589   6.807   0.219  2.2751 -0.5665  2.0803
  300MOL0     H39580   1.490   6.633   0.057 -1.8373  0.9206 -1.1423
  300MOL0     H39581   1.355   6.734   0.117 -1.9602 -1.8236 -1.2274
  300MOL0     H39582   2.354   6.197   0.528 -1.1936  1.7640 -2.1681
  300MOL0     H39583   2.597   6.195   0.596 -1.1430 -1.7263  0.0726
  300MOL0     H39584   2.953   6.168   0.998 -0.9647  1.0238  0.5958
  300MOL0     H39585   3.189   6.238   1.041 -1.4590  0.9944  1.5858
  300MOL0     H39586   4.703   6.424   2.238 -0.6676 -1.0226 -1.3488
  300MOL0     H39587   4.957   6.526   2.250  0.7541  1.8873 -0.6708
  300MOL0     H39588   5.260   6.739   2.050 -0.8652  0.7269 -0.1042
  300MOL0     H39589   5.484   6.824   2.042  0.8095  0.1736 -0.4468
  300MOL0     H39590   5.573   7.087   2.338  1.4962  1.6186  2.2284
  300MOL0     H39591   5.695   7.089   2.205 -0.3718  0.6146  0.6100
  300MOL0     H39592   5.737   7.018   2.498  1.2309  2.1382  0.5066
  300MOL0     H39593   5.843   6.972   2.367  0.6110  0.5395 -1.2854
  300MOL0     H39594   5.919   7.186   2.336  0.6736 -2.7317  2.1675
  300MOL0     H39595   5.876   7.222   2.494  0.9713 -0.1138  0.3861
  300MOL0     H39596   5.689   7.295   2.253 -0.5045 -1.5719  1.1319
  300MOL0     H39597   5.640   7.284   2.423 -0.8233  0.5053 -0.0102
  300MOL0     H39598   5.864   7.650   2.424  0.8771  0.6273 -2.4116
  300MOL0     H39599   5.464   6.919   2.463  1.8583  0.6059 -1.3791
  300MOL0     H39600   5.215   6.841   2.467 -1.3563  2.8030 -0.7458
  301MOL0     O39601   4.936   7.101   4.500  0.0798 -0.5398  0.6500
  301MOL0     C39602   4.821   7.093   4.547 -0.7181  0.2777 -0.2429
  301MOL0     O39603   4.742   7.198   4.588 -0.2309  0.2317 -0.5605
  301MOL0     C39604   4.777   7.328   4.593 -0.4175  0.2843 -0.0866
  301MOL0     C39605   4.684   7.423   4.572 -0.0188  0.1235 -0.4474
  301MOL0     C39606   4.719   7.558   4.570  0.7570 -0.7096 -0.1935
  301MOL0     C39607   4.849   7.601   4.582 -0.5126 -0.9438  0.7040
  301MOL0     O39608   4.878   7.740   4.561  0.1110 -0.4139  0.3576
  301MOL0     C39609   5.015   7.778   4.562 -0.2914 -0.0393  0.0402
  301MOL0     C39610   5.011   7.924   4.509 -0.0052  0.4349 -0.0710
  301MOL0     C39611   5.126   8.008   4.553 -0.0404  0.7586 -0.8823
  301MOL0     C39612   5.123   8.154   4.507 -0.4837  0.2416 -0.7833
  301MOL0     C39613   5.252   8.226   4.541 -0.5383  0.0439 -0.8553
  301MOL0     C39614   5.253   8.278   4.682  0.3503 -0.4304 -0.5787
  301MOL0     C39615   5.366   8.369   4.715  0.4370  0.1429  0.1398
  301MOL0     C39616   5.493   8.298   4.745 -0.2751  0.1720  0.2910
  301MOL0     N39617   5.602   8.397   4.774 -0.5485  0.1407 -0.8924
  301MOL0     C39618   5.605   8.533   4.764 -0.7926 -0.0248  0.3661
  301MOL0     C39619   5.738   8.566   4.785  1.0908 -0.0238  1.0785
  301MOL0     C39620   5.807   8.694   4.785  0.0932 -0.5071 -0.5385
  301MOL0     C39621   5.809   8.757   4.924 -0.3816  0.0674  0.1277
  301MOL0     C39622   5.849   8.909   4.913  0.1865 -0.5406 -0.8633
  301MOL0     C39623   5.867   8.962   5.059  0.1851 -0.2488  0.8347
  301MOL0     O39624   5.943   9.083   5.051  0.3753 -0.3833 -1.2535
  301MOL0     C39625   5.956   9.148   5.172  0.4631 -0.7666  0.4199
  301MOL0     C39626   5.847   9.184   5.251 -0.2317 -0.7648 -0.4733
  301MOL0     C39627   5.866   9.254   5.372 -0.1570  0.0456 -0.0551
  301MOL0     C39628   5.995   9.274   5.421 -0.0652 -0.1419  0.4462
  301MOL0     C39629   6.018   9.340   5.551  0.1528  0.2580  0.0598
  301MOL0     O39630   6.140   9.334   5.595 -1.0786 -0.0127 -0.1157
  301MOL0     C39631   6.183   9.436   5.678 -0.6156  0.7358  0.8025
  301MOL0     C39632   6.166   9.439   5.819 -0.3054 -0.3223  0.5350
  301MOL0     C39633   6.201   9.555   5.888 -0.5556  0.5814 -0.4279
  301MOL0     C39634   6.264   9.663   5.819  0.1250  0.3341  0.1982
  301MOL0     O39635   6.291   9.782   5.883 -0.2874  0.1884 -0.5995
  301MOL0     C39636   6.260   9.811   6.020 -0.2258  0.4169  0.1955
  301MOL0     C39637   6.316   9.938   6.069  0.4439 -0.0429 -0.8227
  301MOL0     C39638   6.255  10.051   6.005 -0.1168  0.3025  0.6266
  301MOL0     C39639   6.329  10.187   6.022 -0.4577  0.2108 -1.3013
  301MOL0     C39640   6.240  10.301   5.998  0.3345 -0.1638  0.1474
  301MOL0     C39641   6.205  10.335   5.853 -0.1251 -0.5024  0.0054
  301MOL0     C39642   6.185  10.480   5.821  0.3028  0.1757 -0.4752
  301MOL0     C39643   6.143  10.532   5.675 -0.1060  0.0461 -0.5879
  301MOL0    Cl39644   6.266  10.495   5.561 -0.2070 -0.0257 -0.2702
  301MOL0     C39645   6.292   9.654   5.683  0.6154  0.0457 -0.4851
  301MOL0     C39646   6.248   9.541   5.613  0.3434 -0.1792 -0.4792
  301MOL0     O39647   5.916   9.394   5.605 -0.4142 -0.1020 -0.5228
  301MOL0     C39648   6.105   9.250   5.338  0.5321  0.9080 -0.3580
  301MOL0     C39649   6.083   9.184   5.221  0.1139 -0.0800  0.6707
  301MOL0     N39650   5.807   8.446   4.794 -0.2871 -0.2013 -0.8499
  301MOL0     N39651   5.724   8.345   4.790 -0.1122  0.0196 -0.1372
  301MOL0     C39652   4.956   7.505   4.592  0.3074  0.4420 -0.0609
  301MOL0     C39653   4.914   7.368   4.608 -0.7426  0.3693  0.2929
  301MOL0     C39654   4.761   6.953   4.563 -0.2202 -0.4996  0.3828
  301MOL0     C39655   4.843   6.848   4.601 -0.4541  0.2785  1.1636
  301MOL0     C39656   4.797   6.710   4.608  0.1553  0.4047 -0.4753
  301MOL0     C39657   4.657   6.689   4.596  1.1074 -0.0307  0.0118
  301MOL0     O39658   4.607   6.559   4.625 -0.9190 -0.8312  0.4642
  301MOL0     C39659   4.474   6.554   4.679 -0.3450  0.3662  0.4829
  301MOL0     C39660   4.485   6.576   4.824  0.8420 -0.4217 -0.8758
  301MOL0     C39661   4.550   6.465   4.907  0.3422 -0.0472  0.7571
  301MOL0     C39662   4.544   6.470   5.059 -0.0398 -0.3532  0.3961
  301MOL0     C39663   4.396   6.488   5.085 -0.1603  0.2756  0.2786
  301MOL0     C39664   4.276   6.494   5.098  0.3513 -0.1806 -0.7209
  301MOL0     C39665   4.581   6.793   4.552  0.3109 -0.7224  0.4996
  301MOL0     C39666   4.631   6.923   4.535  0.2493  0.4275  0.6649
  301MOL0     H39667   4.583   7.383   4.575 -1.0271  2.5457  0.9883
  301MOL0     H39668   4.639   7.629   4.556  1.8774  0.2847 -1.9798
  301MOL0     H39669   5.080   7.720   4.497  0.9491  1.2773  0.0722
  301MOL0     H39670   5.062   7.780   4.661 -0.6263  1.3965  0.2045
  301MOL0     H39671   4.919   7.972   4.545 -0.9119 -0.1694 -1.5155
  301MOL0     H39672   5.009   7.918   4.400  3.8906 -1.0754 -0.2146
  301MOL0     H39673   5.220   7.959   4.526 -0.8386 -1.9339  0.8951
  301MOL0     H39674   5.132   8.015   4.662 -1.4017  1.3621 -0.8297
  301MOL0     H39675   5.108   8.157   4.398  3.9927  1.1848 -1.5891
  301MOL0     H39676   5.035   8.206   4.545 -0.2387 -1.1853  1.9902
  301MOL0     H39677   5.263   8.315   4.479 -1.2327  2.2277  1.9422
  301MOL0     H39678   5.344   8.170   4.523  0.7033  1.7281  0.0091
  301MOL0     H39679   5.240   8.197   4.755  0.0731 -0.8234 -1.0643
  301MOL0     H39680   5.166   8.344   4.682  0.3071 -0.0957  4.3936
  301MOL0     H39681   5.379   8.443   4.636  0.3217  1.2071  1.0996
  301MOL0     H39682   5.332   8.427   4.801 -3.1307 -1.1862 -0.2071
  301MOL0     H39683   5.524   8.232   4.663  1.9383  0.9029  0.4808
  301MOL0     H39684   5.467   8.233   4.829 -2.7129  2.5078  1.4923
  301MOL0     H39685   5.523   8.599   4.738  0.0561  0.3005 -1.6975
  301MOL0     H39686   5.759   8.755   4.708  0.4616  0.2875 -0.1551
  301MOL0     H39687   5.913   8.679   4.760  0.7744  0.6510  1.3912
  301MOL0     H39688   5.875   8.698   4.988 -3.4293 -2.0343  1.5797
  301MOL0     H39689   5.707   8.755   4.965  0.2542  0.0624  1.7572
  301MOL0     H39690   5.941   8.910   4.855 -0.7710  0.4242 -2.4447
  301MOL0     H39691   5.773   8.969   4.860 -1.8659 -2.0522  0.2230
  301MOL0     H39692   5.918   8.885   5.118  0.4466 -2.7382 -2.3643
  301MOL0     H39693   5.766   8.978   5.100 -0.7312 -0.4643 -1.2089
  301MOL0     H39694   5.748   9.172   5.208 -0.0715 -0.9052 -0.8059
  301MOL0     H39695   5.775   9.284   5.423  0.2989 -1.1818  1.5673
  301MOL0     H39696   6.131   9.346   5.863 -2.4558  0.6331  0.9677
  301MOL0     H39697   6.210   9.560   5.996  1.9433  1.0829 -0.6010
  301MOL0     H39698   6.294   9.728   6.082 -0.6735 -0.4422 -0.6736
  301MOL0     H39699   6.152   9.800   6.032 -0.1826 -0.2792 -0.0110
  301MOL0     H39700   6.425   9.932   6.059  0.4846 -0.6696 -0.0784
  301MOL0     H39701   6.299   9.941   6.177  0.6707  0.3362 -0.7933
  301MOL0     H39702   6.154  10.061   6.045 -0.4121  0.8091 -0.2096
  301MOL0     H39703   6.245  10.038   5.896 -2.6207 -0.9293  0.9432
  301MOL0     H39704   6.374  10.179   6.122 -0.5177  0.9030 -1.2132
  301MOL0     H39705   6.425  10.193   5.969 -1.6788  1.6583 -3.5105
  301MOL0     H39706   6.286  10.391   6.041  0.7931  0.2872 -1.1959
  301MOL0     H39707   6.149  10.276   6.052  2.0013 -3.4724  1.6446
  301MOL0     H39708   6.124  10.272   5.814 -0.7858  0.7384 -0.7240
  301MOL0     H39709   6.298  10.310   5.801  0.5049  3.2052 -0.9434
  301MOL0     H39710   6.098  10.510   5.880  0.7549 -2.5797  1.7655
  301MOL0     H39711   6.273  10.534   5.860  0.8884  0.3589 -1.9713
  301MOL0     H39712   6.136  10.641   5.675  2.4550  0.2897 -2.0321
  301MOL0     H39713   6.048  10.485   5.647 -0.2414 -0.8463  1.2263
  301MOL0     H39714   6.330   9.733   5.619  0.7779  0.1850 -0.2172
  301MOL0     H39715   6.271   9.540   5.507 -0.3763  5.5017 -1.0189
  301MOL0     H39716   6.207   9.282   5.360 -0.2125  2.0483  1.7484
  301MOL0     H39717   6.165   9.164   5.152 -0.9045 -1.3230 -0.2254
  301MOL0     H39718   5.063   7.523   4.581  0.6322 -1.6535 -0.9885
  301MOL0     H39719   4.996   7.297   4.606  0.8214  2.0007  2.0222
  301MOL0     H39720   4.950   6.864   4.610  0.1224 -2.3136  0.0471
  301MOL0     H39721   4.869   6.630   4.621 -0.2961  0.1669  0.6428
  301MOL0     H39722   4.430   6.459   4.650 -0.5489  0.4874  0.3952
  301MOL0     H39723   4.412   6.636   4.642  0.5112  0.4570 -0.8347
  301MOL0     H39724   4.548   6.663   4.845  0.0124  0.0336 -0.2287
  301MOL0     H39725   4.380   6.586   4.853  1.7674  2.3717  2.1275
  301MOL0     H39726   4.655   6.460   4.876 -0.1235  1.4595 -1.2960
  301MOL0     H39727   4.496   6.374   4.877 -0.8080  1.1405 -0.9103
  301MOL0     H39728   4.579   6.383   5.116 -0.1356 -0.3965  0.3900
  301MOL0     H39729   4.607   6.555   5.085 -0.0217  0.2738 -1.5515
  301MOL0     H39730   4.171   6.499   5.116  0.2376 -2.3108 -0.5770
  301MOL0     H39731   4.475   6.780   4.535 -0.0315  1.0725  0.9986
  301MOL0     H39732   4.565   7.000   4.497 -0.5925 -2.1031 -3.7548
  302MOL0     O39733   0.087   6.128   8.322 -0.2974  0.4047 -0.0136
  302MOL0     C39734   0.130   6.222   8.388  0.1435  0.5538  0.4059
  302MOL0     O39735   0.060   6.328   8.444 -0.4487  0.0146  0.1484
  302MOL0     C39736  -0.075   6.338   8.454  1.0249  0.9821  0.5690
  302MOL0     C39737  -0.167   6.301   8.349 -0.8710 -0.3763  0.1021
  302MOL0     C39738  -0.300   6.280   8.385 -0.9363 -0.4249 -0.5882
  302MOL0     C39739  -0.345   6.324   8.507 -0.1185 -0.1936 -0.5107
  302MOL0     O39740  -0.482   6.317   8.520 -0.7589  0.1878 -1.3472
  302MOL0     C39741  -0.563   6.414   8.459 -1.4141 -0.0716 -0.2950
  302MOL0     C39742  -0.702   6.407   8.513  0.2397  0.5299  0.1936
  302MOL0     C39743  -0.770   6.532   8.495 -0.1453 -0.8501 -0.6265
  302MOL0     C39744  -0.900   6.521   8.567 -0.2618 -0.1566 -0.8972
  302MOL0     C39745  -0.979   6.645   8.554 -0.0482 -0.2767  0.2017
  302MOL0     C39746  -1.115   6.617   8.623 -0.4422 -0.7757 -0.2167
  302MOL0     C39747  -1.212   6.736   8.604 -0.6021 -0.3060  0.5015
  302MOL0     C39748  -1.344   6.722   8.680  0.0437 -0.4696 -0.0617
  302MOL0     N39749  -1.444   6.826   8.664  0.8175  0.6566  0.2293
  302MOL0     C39750  -1.568   6.813   8.725  0.1128 -0.1557 -0.4368
  302MOL0     C39751  -1.642   6.921   8.677 -0.0548  0.5266  0.6520
  302MOL0     C39752  -1.791   6.938   8.705  0.3305 -0.2120  0.8653
  302MOL0     C39753  -1.852   7.074   8.713 -0.0861 -1.2384  0.4457
  302MOL0     C39754  -2.003   7.074   8.686 -0.6135 -0.2256 -0.6819
  302MOL0     C39755  -2.075   7.206   8.664 -0.1541 -0.6547  0.0384
  302MOL0     O39756  -2.061   7.301   8.768 -0.4216  0.0572 -0.1603
  302MOL0     C39757  -2.161   7.309   8.861  0.2670 -0.0447 -0.3138
  302MOL0     C39758  -2.258   7.210   8.882 -0.6521  0.3029  0.2703
  302MOL0     C39759  -2.350   7.218   8.982  0.4973  0.4572 -0.2339
  302MOL0     C39760  -2.349   7.335   9.064  0.2191 -0.3485  0.6872
  302MOL0     C39761  -2.431   7.328   9.185 -0.4318 -0.4294  0.1579
  302MOL0     O39762  -2.523   7.229   9.194  0.4686 -0.1138 -0.0417
  302MOL0     C39763  -2.592   7.207   9.314 -0.4260 -0.3979  0.6913
  302MOL0     C39764  -2.735   7.213   9.304  0.1318  0.5341 -0.1736
  302MOL0     C39765  -2.813   7.187   9.414 -0.3076 -0.1432 -0.8789
  302MOL0     C39766  -2.755   7.161   9.546 -0.2462 -0.1161  1.0729
  302MOL0     O39767  -2.844   7.135   9.643  0.4965 -0.4893 -0.9203
  302MOL0     C39768  -2.806   7.133   9.781 -0.9833  0.7391 -0.2617
  302MOL0     C39769  -2.937   7.133   9.865  0.3792  0.4140 -0.3309
  302MOL0     C39770  -3.037   7.244   9.809 -0.0924  0.9483 -0.8012
  302MOL0     C39771  -3.121   7.303   9.924  0.4215 -0.6463  0.3301
  302MOL0     C39772  -3.184   7.436   9.880 -0.8447 -0.3362  0.4292
  302MOL0     C39773  -3.315   7.455   9.961 -0.0197  0.7220  0.7919
  302MOL0     C39774  -3.284   7.500  10.100  0.0697 -0.2297  0.3947
  302MOL0     C39775  -3.393   7.577  10.166  0.4768 -0.4170  0.5527
  302MOL0    Cl39776  -3.514   7.458  10.221  0.0908 -0.8326  0.0446
  302MOL0     C39777  -2.616   7.139   9.552 -0.0823  0.8585  0.1991
  302MOL0     C39778  -2.536   7.159   9.432  0.0345 -0.1784  0.1387
  302MOL0     O39779  -2.415   7.418   9.270 -0.3890  0.3286  0.3711
  302MOL0     C39780  -2.259   7.440   9.033 -0.5535  0.2123 -0.9992
  302MOL0     C39781  -2.162   7.424   8.933 -0.0353 -0.4152 -0.4501
  302MOL0     N39782  -1.558   6.994   8.595 -0.6696  0.3752 -0.2861
  302MOL0     N39783  -1.439   6.940   8.603 -0.1912 -0.8203 -0.5024
  302MOL0     C39784  -0.265   6.367   8.610 -0.7362 -0.1367 -0.2676
  302MOL0     C39785  -0.123   6.372   8.582 -0.1897  1.0758  0.6024
  302MOL0     C39786   0.282   6.227   8.387  0.2333  0.1014  0.1604
  302MOL0     C39787   0.341   6.325   8.459  0.3408 -0.2563  0.7923
  302MOL0     C39788   0.483   6.332   8.454  0.9153 -0.4707  0.3135
  302MOL0     C39789   0.557   6.240   8.385  0.1661  0.4122 -0.0723
  302MOL0     O39790   0.695   6.245   8.404  0.5031 -0.3738  0.2838
  302MOL0     C39791   0.781   6.142   8.354  0.0096 -0.5536 -0.2893
  302MOL0     C39792   0.913   6.197   8.393 -0.1201  0.6202  0.5561
  302MOL0     C39793   1.020   6.113   8.324 -0.1406  0.1951 -0.2539
  302MOL0     C39794   1.165   6.169   8.326  0.1137  0.0998 -0.3187
  302MOL0     C39795   1.253   6.058   8.276 -0.3309 -0.5324 -0.5991
  302MOL0     C39796   1.327   5.979   8.224 -1.5229 -0.1294  0.0213
  302MOL0     C39797   0.498   6.138   8.313 -0.1141 -0.5198 -0.3108
  302MOL0     C39798   0.361   6.122   8.321  0.3376 -0.0971 -0.4459
  302MOL0     H39799  -0.122   6.275   8.253  1.8778  3.3083  0.1830
  302MOL0     H39800  -0.376   6.246   8.316 -2.4641  0.8112  0.3903
  302MOL0     H39801  -0.549   6.398   8.351  1.3722 -4.1053  0.4505
  302MOL0     H39802  -0.514   6.511   8.475 -1.6217 -0.1621  0.9468
  302MOL0     H39803  -0.705   6.365   8.614 -0.3580 -1.6192 -0.6670
  302MOL0     H39804  -0.749   6.322   8.464 -2.5641  0.6357  2.4688
  302MOL0     H39805  -0.795   6.554   8.391  0.8803 -1.3853 -1.0019
  302MOL0     H39806  -0.701   6.614   8.519 -0.0953 -2.0066  4.4164
  302MOL0     H39807  -0.953   6.433   8.531  0.4556 -0.9729 -0.0134
  302MOL0     H39808  -0.880   6.502   8.673 -0.9596  1.0542 -0.5182
  302MOL0     H39809  -1.007   6.672   8.451  0.6337 -0.9964 -0.1852
  302MOL0     H39810  -0.911   6.716   8.600  0.2366 -2.0707  2.7968
  302MOL0     H39811  -1.095   6.601   8.729 -1.3512  2.8076  0.6472
  302MOL0     H39812  -1.168   6.530   8.584 -1.6414  0.1745 -0.7881
  302MOL0     H39813  -1.167   6.828   8.644  1.0411 -1.7688  2.2568
  302MOL0     H39814  -1.239   6.752   8.499  0.4880 -3.0900 -0.3080
  302MOL0     H39815  -1.333   6.712   8.789 -0.2842 -3.0029 -0.1866
  302MOL0     H39816  -1.395   6.633   8.641 -0.1283  0.9519 -3.3371
  302MOL0     H39817  -1.607   6.726   8.777 -0.5570  0.1675 -0.3954
  302MOL0     H39818  -1.814   6.887   8.800  1.2568  2.3534  2.5770
  302MOL0     H39819  -1.837   6.890   8.618  2.4706 -1.0489  0.1418
  302MOL0     H39820  -1.810   7.139   8.636  1.7291 -2.4130  0.3840
  302MOL0     H39821  -1.828   7.124   8.808 -0.8927  1.1578 -0.5381
  302MOL0     H39822  -2.036   7.000   8.613  1.4500 -0.8950 -1.0051
  302MOL0     H39823  -2.045   7.027   8.776  2.9413 -2.9091 -0.1746
  302MOL0     H39824  -2.178   7.180   8.638 -0.0440 -0.6274 -0.4495
  302MOL0     H39825  -2.032   7.256   8.577  0.3687  2.2763  1.8441
  302MOL0     H39826  -2.268   7.119   8.824  1.4554  1.9978 -3.1032
  302MOL0     H39827  -2.407   7.126   8.991  0.0086  0.6204 -1.4575
  302MOL0     H39828  -2.783   7.249   9.214 -1.4807 -1.5000 -0.2071
  302MOL0     H39829  -2.920   7.206   9.416 -0.4545 -0.9503  2.0957
  302MOL0     H39830  -2.748   7.223   9.804  2.2482 -1.4227  0.6363
  302MOL0     H39831  -2.752   7.041   9.804 -1.0525  0.0469 -2.6686
  302MOL0     H39832  -2.901   7.155   9.965 -1.4268 -3.8897  1.4914
  302MOL0     H39833  -2.981   7.034   9.872 -1.8441  1.4057  0.5282
  302MOL0     H39834  -3.107   7.207   9.733  2.6755 -1.1621 -2.5170
  302MOL0     H39835  -2.981   7.328   9.767  0.4077  0.3564 -1.3308
  302MOL0     H39836  -3.201   7.238   9.961  0.6504  0.0399  2.1422
  302MOL0     H39837  -3.059   7.317  10.013  1.6276 -2.0580 -0.2238
  302MOL0     H39838  -3.220   7.430   9.776  0.1324 -0.3855  0.0840
  302MOL0     H39839  -3.110   7.516   9.886 -0.9780 -0.1588 -0.2223
  302MOL0     H39840  -3.378   7.365   9.958 -0.3025  0.9376  0.0736
  302MOL0     H39841  -3.381   7.525   9.909  0.1469 -0.4677 -1.1452
  302MOL0     H39842  -3.261   7.408  10.155  1.5762 -0.2595 -0.2373
  302MOL0     H39843  -3.199   7.568  10.103  0.4353 -0.6096 -0.7302
  302MOL0     H39844  -3.438   7.652  10.101  2.2571  0.0754 -0.1825
  302MOL0     H39845  -3.352   7.618  10.259  1.4448 -0.1521  0.0289
  302MOL0     H39846  -2.569   7.098   9.640 -2.4201  1.3829  1.7936
  302MOL0     H39847  -2.428   7.159   9.441  0.0149  0.3732  0.3997
  302MOL0     H39848  -2.251   7.530   9.093  0.7145  0.6070 -1.7200
  302MOL0     H39849  -2.087   7.498   8.908 -0.6234  0.9644  1.6281
  302MOL0     H39850  -0.302   6.385   8.710 -2.1447 -2.2454 -0.3498
  302MOL0     H39851  -0.047   6.394   8.656  0.7815 -0.7552  0.1879
  302MOL0     H39852   0.289   6.401   8.516 -0.0423  2.5417 -2.9675
  302MOL0     H39853   0.524   6.409   8.518 -0.7662  0.3629  0.4540
  302MOL0     H39854   0.773   6.131   8.246  2.4698 -0.5916 -0.5280
  302MOL0     H39855   0.769   6.046   8.405  2.3179 -0.9627 -0.3895
  302MOL0     H39856   0.926   6.300   8.360  1.8938  0.2375 -0.0113
  302MOL0     H39857   0.929   6.203   8.501 -2.4457  0.0535  0.9837
  302MOL0     H39858   0.994   6.083   8.223  0.9402 -2.0439  0.0617
  302MOL0     H39859   1.026   6.009   8.357 -2.5069  0.2052  0.3706
  302MOL0     H39860   1.168   6.247   8.249  1.4588  0.0265 -0.3711
  302MOL0     H39861   1.194   6.201   8.427 -0.8828 -1.0809  0.3634
  302MOL0     H39862   1.385   5.907   8.170 -1.4414 -1.1085  1.3815
  302MOL0     H39863   0.541   6.058   8.253  0.9629 -0.1023 -0.1255
  302MOL0     H39864   0.318   6.036   8.272 -2.1837 -0.1903  1.6886
  303MOL0     O39865   8.981   5.455   2.969 -0.1032 -1.3376  0.0530
  303MOL0     C39866   9.022   5.368   3.042 -0.2632  0.1842 -1.1781
  303MOL0     O39867   8.963   5.325   3.157 -0.8142  0.0031  1.0183
  303MOL0     C39868   8.830   5.351   3.184  0.3542 -0.7486  0.1112
  303MOL0     C39869   8.803   5.376   3.322 -0.3005 -0.2078 -0.1976
  303MOL0     C39870   8.665   5.394   3.365 -0.4977  0.8170 -0.0914
  303MOL0     C39871   8.560   5.380   3.267 -0.0110  0.8440 -0.7655
  303MOL0     O39872   8.430   5.372   3.297  0.3608 -0.8628 -0.4326
  303MOL0     C39873   8.372   5.395   3.427 -0.2895 -0.0915 -0.1866
  303MOL0     C39874   8.224   5.432   3.404 -0.4986  0.4410 -0.2180
  303MOL0     C39875   8.148   5.502   3.524  0.0056 -0.2479 -0.2222
  303MOL0     C39876   8.000   5.503   3.493 -0.8356  1.2113 -0.8959
  303MOL0     C39877   7.924   5.568   3.606 -0.5119 -0.1913  1.0824
  303MOL0     C39878   7.948   5.506   3.740  0.1652  0.9001 -0.5003
  303MOL0     C39879   7.857   5.553   3.850 -0.2295 -0.3526 -0.1988
  303MOL0     C39880   7.864   5.704   3.868  0.0190 -1.7136 -0.3867
  303MOL0     N39881   7.772   5.747   3.976 -0.0223 -0.7511 -0.2728
  303MOL0     C39882   7.641   5.783   3.946  0.0845 -0.2176  0.2608
  303MOL0     C39883   7.582   5.768   4.071  0.4927  0.9122 -0.5490
  303MOL0     C39884   7.431   5.777   4.119 -0.7963 -0.1542 -0.7169
  303MOL0     C39885   7.332   5.833   4.017 -0.3128  1.2361  0.3008
  303MOL0     C39886   7.214   5.898   4.082 -0.1215 -0.0712 -0.3672
  303MOL0     C39887   7.138   5.799   4.173  0.8493  0.2857 -0.8099
  303MOL0     O39888   7.014   5.871   4.219 -0.3632 -0.0443  0.1281
  303MOL0     C39889   6.898   5.798   4.233  0.2229 -0.0592  0.5850
  303MOL0     C39890   6.778   5.849   4.176  0.4556  0.2920  0.8107
  303MOL0     C39891   6.657   5.779   4.204 -0.2419  0.0860  0.0865
  303MOL0     C39892   6.649   5.666   4.288 -1.2901 -0.2680  0.7596
  303MOL0     C39893   6.519   5.608   4.334 -0.0821 -0.0051  0.2097
  303MOL0     O39894   6.404   5.650   4.275 -0.4764 -0.6473 -0.2894
  303MOL0     C39895   6.296   5.584   4.326 -0.4717 -0.1049  0.2266
  303MOL0     C39896   6.274   5.453   4.278 -0.0909  0.8435  0.1924
  303MOL0     C39897   6.165   5.373   4.330  0.8128  0.3989  1.3422
  303MOL0     C39898   6.072   5.440   4.411 -0.2933 -0.7907  0.3353
  303MOL0     O39899   5.981   5.383   4.493 -0.2042  0.3144  0.5228
  303MOL0     C39900   5.900   5.282   4.422  0.0459 -0.4824 -0.6215
  303MOL0     C39901   5.754   5.316   4.459 -0.8117 -0.6819 -0.2194
  303MOL0     C39902   5.746   5.293   4.611  0.2723  0.7644 -0.8245
  303MOL0     C39903   5.613   5.367   4.659 -0.4264 -0.4293 -0.3314
  303MOL0     C39904   5.617   5.503   4.727 -0.1097  0.9409  0.4285
  303MOL0     C39905   5.645   5.610   4.624 -0.0819  0.0873 -0.6362
  303MOL0     C39906   5.637   5.754   4.688  0.0321  0.3559 -0.7774
  303MOL0     C39907   5.699   5.877   4.621  0.3064  0.2892  0.7021
  303MOL0    Cl39908   5.620   5.899   4.477  0.4687  0.0118  0.0430
  303MOL0     C39909   6.086   5.576   4.450 -0.3003  0.4766  0.1103
  303MOL0     C39910   6.209   5.640   4.421 -0.2569 -0.0989 -1.6400
  303MOL0     O39911   6.529   5.519   4.408  0.3667  0.2924  0.0778
  303MOL0     C39912   6.767   5.613   4.340  0.2750 -0.7621  0.0093
  303MOL0     C39913   6.887   5.677   4.311 -0.0328  0.4753  0.0697
  303MOL0     N39914   7.677   5.708   4.161  0.4645  0.3594 -0.7738
  303MOL0     N39915   7.793   5.710   4.110 -0.0975  0.4907  0.2811
  303MOL0     C39916   8.592   5.348   3.139 -0.3729 -0.0708 -0.1071
  303MOL0     C39917   8.722   5.342   3.096 -0.5160 -0.9148 -0.0606
  303MOL0     C39918   9.135   5.298   2.989 -0.6165  0.7135  0.1441
  303MOL0     C39919   9.178   5.178   3.047 -0.3061  0.4603  0.5501
  303MOL0     C39920   9.311   5.127   3.023  0.6274  0.2112 -0.2006
  303MOL0     C39921   9.386   5.181   2.924 -0.6786 -0.7649  0.7871
  303MOL0     O39922   9.511   5.136   2.904 -0.4088 -0.4840 -0.0356
  303MOL0     C39923   9.574   5.166   2.782 -0.1033  0.5842 -0.5243
  303MOL0     C39924   9.672   5.063   2.755 -0.9272 -0.0762 -0.0173
  303MOL0     C39925   9.808   5.093   2.824 -0.3771  0.6764 -0.4635
  303MOL0     C39926   9.938   5.071   2.741  0.2776 -0.6154  0.9623
  303MOL0     C39927   9.950   5.167   2.627 -0.0635  0.4752  0.3056
  303MOL0     C39928   9.976   5.238   2.537 -0.3426 -0.1791 -0.2716
  303MOL0     C39929   9.334   5.297   2.852 -0.0307 -0.0716  0.6047
  303MOL0     C39930   9.216   5.357   2.889  0.5566  0.2138 -0.2409
  303MOL0     H39931   8.891   5.376   3.385  0.6297  1.4268 -1.4334
  303MOL0     H39932   8.646   5.388   3.471  2.2390 -3.4870  0.3799
  303MOL0     H39933   8.428   5.480   3.468 -1.8130  0.9725 -0.2414
  303MOL0     H39934   8.379   5.305   3.489 -0.3647 -0.6997 -1.0467
  303MOL0     H39935   8.172   5.342   3.371 -0.4031  0.1960  0.2899
  303MOL0     H39936   8.226   5.500   3.318 -0.6676  2.2787  1.1553
  303MOL0     H39937   8.200   5.598   3.533  1.3958 -1.0329  0.3989
  303MOL0     H39938   8.162   5.442   3.614 -0.7491  0.2095  0.2090
  303MOL0     H39939   7.978   5.553   3.398  0.5243  3.0922 -0.2762
  303MOL0     H39940   7.972   5.397   3.488  3.5467 -0.2532  0.5414
  303MOL0     H39941   7.821   5.585   3.575 -0.9317  0.1413  2.5966
  303MOL0     H39942   7.963   5.670   3.602  0.1841 -0.4991 -1.2783
  303MOL0     H39943   8.047   5.523   3.783  0.3074 -0.2472 -0.3361
  303MOL0     H39944   7.939   5.397   3.731 -0.1191  1.0061 -1.6997
  303MOL0     H39945   7.756   5.511   3.845  0.1407 -2.3449  4.5965
  303MOL0     H39946   7.889   5.502   3.941 -0.4422 -0.7703 -0.3562
  303MOL0     H39947   7.826   5.755   3.780  0.1302  0.4713  0.7653
  303MOL0     H39948   7.965   5.741   3.888  0.8207 -2.2511 -3.0762
  303MOL0     H39949   7.588   5.808   3.855 -1.2583 -2.1251  0.4723
  303MOL0     H39950   7.437   5.838   4.209 -0.1930 -1.4675  0.1683
  303MOL0     H39951   7.403   5.678   4.156 -2.6909  0.6806  0.1801
  303MOL0     H39952   7.300   5.760   3.942  1.1318  0.1743  0.6593
  303MOL0     H39953   7.386   5.906   3.956  0.3151  1.0795  0.6564
  303MOL0     H39954   7.248   5.981   4.144  1.3250 -2.3411  2.1299
  303MOL0     H39955   7.150   5.941   4.004 -0.4362  0.0019 -0.0702
  303MOL0     H39956   7.203   5.781   4.259  1.8934  3.7337 -0.7335
  303MOL0     H39957   7.113   5.713   4.111 -0.2451 -0.8710  1.1236
  303MOL0     H39958   6.785   5.935   4.110  1.0550 -1.2813 -1.2873
  303MOL0     H39959   6.566   5.804   4.151  0.7835 -1.7782 -2.7626
  303MOL0     H39960   6.349   5.409   4.213 -1.5654 -1.3616 -0.1428
  303MOL0     H39961   6.160   5.266   4.311  0.8862  0.8008 -1.3568
  303MOL0     H39962   5.949   5.188   4.449  2.7193  0.5245 -1.6617
  303MOL0     H39963   5.918   5.289   4.315  1.5415 -1.7344 -0.4797
  303MOL0     H39964   5.687   5.250   4.401 -0.6532 -1.6247  0.6419
  303MOL0     H39965   5.729   5.418   4.427 -2.2742 -0.6398  0.9431
  303MOL0     H39966   5.828   5.336   4.669 -0.3950  3.8227 -1.9704
  303MOL0     H39967   5.745   5.187   4.638 -0.5120  1.5824  2.8907
  303MOL0     H39968   5.539   5.373   4.580 -4.7303  4.5928  3.3883
  303MOL0     H39969   5.584   5.293   4.735 -0.9792 -1.3703 -1.4339
  303MOL0     H39970   5.692   5.494   4.807 -1.8693  1.6802  2.2430
  303MOL0     H39971   5.522   5.531   4.773  0.1263  3.5907 -0.5069
  303MOL0     H39972   5.574   5.600   4.541 -0.8370  2.4140 -0.3455
  303MOL0     H39973   5.746   5.604   4.584  2.5382  0.4933  5.0244
  303MOL0     H39974   5.533   5.779   4.712 -0.5054 -3.2354  1.3315
  303MOL0     H39975   5.694   5.746   4.781  1.2909  1.4128 -1.4128
  303MOL0     H39976   5.806   5.856   4.607  0.3098  0.4974  0.4111
  303MOL0     H39977   5.692   5.970   4.679  0.9065  1.0794 -0.4564
  303MOL0     H39978   6.007   5.601   4.519  1.0934  2.6938  1.0090
  303MOL0     H39979   6.218   5.740   4.461 -0.5510  1.2302 -4.6421
  303MOL0     H39980   6.779   5.528   4.407  1.3404 -0.3024  0.4290
  303MOL0     H39981   6.968   5.618   4.354 -0.8380 -0.7730 -0.0666
  303MOL0     H39982   8.500   5.331   3.084  0.4172 -0.4099 -1.3613
  303MOL0     H39983   8.745   5.313   2.994  0.0248 -2.7671  0.5334
  303MOL0     H39984   9.104   5.127   3.108 -1.0984 -0.4676 -1.1160
  303MOL0     H39985   9.345   5.041   3.080 -1.0399 -1.5460 -1.7650
  303MOL0     H39986   9.617   5.267   2.790  1.6522 -0.2804  2.7921
  303MOL0     H39987   9.503   5.166   2.698 -0.1158  1.1066 -0.5206
  303MOL0     H39988   9.624   4.966   2.773 -1.8327  0.2716 -0.5095
  303MOL0     H39989   9.693   5.068   2.648 -2.0244 -1.3177 -0.3177
  303MOL0     H39990   9.816   5.030   2.913  1.7569  1.6962  0.1480
  303MOL0     H39991   9.798   5.192   2.870 -0.9927  0.1603  0.5505
  303MOL0     H39992  10.030   5.084   2.799  0.6422 -3.6827  1.2386
  303MOL0     H39993   9.953   4.969   2.705  0.8054  0.0285 -0.7662
  303MOL0     H39994  10.002   5.304   2.456  0.5328 -0.7120 -0.4408
  303MOL0     H39995   9.397   5.353   2.783  1.3571 -1.4513  0.6947
  303MOL0     H39996   9.204   5.455   2.843  0.6613  0.1009 -0.5100
  304MOL0     O39997   6.405   2.414   3.024  0.1650  0.1644  1.3807
  304MOL0     C39998   6.430   2.293   3.012 -0.3234  0.3194  0.8802
  304MOL0     O39999   6.527   2.242   2.932  0.1445 -0.8385 -0.8527
  304MOL0     C40000   6.624   2.328   2.886 -0.5622 -0.5593  0.7669
  304MOL0     C40001   6.753   2.303   2.927 -0.3710  0.3033  0.6096
  304MOL0     C40002   6.859   2.392   2.895 -0.7751  0.1328  0.4235
  304MOL0     C40003   6.833   2.492   2.800  1.0460  0.9638 -0.2892
  304MOL0     O40004   6.939   2.570   2.779  0.0945  0.3014  0.4514
  304MOL0     C40005   6.973   2.624   2.650 -0.7554  0.8830 -0.0629
  304MOL0     C40006   7.121   2.665   2.654 -0.2067  0.0911 -0.0711
  304MOL0     C40007   7.199   2.562   2.729  0.2979 -0.1125  0.1966
  304MOL0     C40008   7.357   2.563   2.714 -0.4501 -0.1622  0.0515
  304MOL0     C40009   7.424   2.426   2.753 -0.9430  0.2731 -0.2517
  304MOL0     C40010   7.583   2.429   2.737 -0.5628  0.1289 -0.9213
  304MOL0     C40011   7.646   2.296   2.707 -0.6364  0.1818 -0.3879
  304MOL0     C40012   7.641   2.200   2.824 -0.0602  0.0457 -0.1327
  304MOL0     N40013   7.681   2.066   2.786  0.4225  0.2392  0.1277
  304MOL0     C40014   7.802   2.017   2.827  0.3320 -0.2238  0.7859
  304MOL0     C40015   7.792   1.886   2.791 -0.7836 -0.7829 -0.9359
  304MOL0     C40016   7.899   1.784   2.828  0.1772 -0.8440 -0.5127
  304MOL0     C40017   7.904   1.777   2.978  0.2388 -0.0188 -0.5337
  304MOL0     C40018   7.791   1.677   3.025  0.1217 -0.3861 -0.2973
  304MOL0     C40019   7.781   1.654   3.173  0.2353  0.3963  0.5770
  304MOL0     O40020   7.746   1.512   3.194  0.2457  0.2243 -0.6163
  304MOL0     C40021   7.617   1.467   3.171 -0.4695  0.4861 -0.6755
  304MOL0     C40022   7.596   1.327   3.184 -0.1533 -0.8985 -0.6447
  304MOL0     C40023   7.467   1.278   3.181 -0.1767 -0.3311  0.7929
  304MOL0     C40024   7.360   1.355   3.154 -0.5835  1.1766 -0.1772
  304MOL0     C40025   7.217   1.306   3.149 -0.4572  1.0928  0.0274
  304MOL0     O40026   7.111   1.392   3.171 -0.8209 -0.6628  0.2731
  304MOL0     C40027   6.989   1.331   3.184 -0.9628 -0.5689  0.3448
  304MOL0     C40028   6.921   1.288   3.068  0.3116  0.1402 -0.0072
  304MOL0     C40029   6.801   1.209   3.082  0.4826 -0.1469  0.4188
  304MOL0     C40030   6.744   1.203   3.206 -0.1505  0.7280  0.1599
  304MOL0     O40031   6.628   1.138   3.238 -0.0518  0.4802  0.6217
  304MOL0     C40032   6.551   1.108   3.117 -0.8374 -0.0272  0.2916
  304MOL0     C40033   6.425   1.049   3.176  0.0904 -0.5365 -0.2267
  304MOL0     C40034   6.300   1.080   3.093 -0.1942 -0.4589 -0.2345
  304MOL0     C40035   6.175   1.044   3.173  0.1739 -0.1454 -0.2245
  304MOL0     C40036   6.056   1.102   3.098 -0.3228  0.0734  0.6511
  304MOL0     C40037   5.925   1.047   3.151 -0.2909 -0.5981  0.2764
  304MOL0     C40038   5.813   1.122   3.072  0.4191  0.9075 -1.5938
  304MOL0     C40039   5.684   1.141   3.158  0.0717  0.2566  0.2277
  304MOL0    Cl40040   5.562   1.201   3.051  0.1189 -0.0889  0.3291
  304MOL0     C40041   6.806   1.257   3.317  0.1988  0.0412  0.3122
  304MOL0     C40042   6.927   1.316   3.309  0.0540 -0.2105  0.5396
  304MOL0     O40043   7.208   1.181   3.136 -0.0545 -0.3809  0.5392
  304MOL0     C40044   7.386   1.494   3.138 -0.0623 -0.3710 -0.0186
  304MOL0     C40045   7.509   1.551   3.140  0.3224  0.5667  0.0880
  304MOL0     N40046   7.674   1.865   2.721 -0.1506 -0.1446 -0.0379
  304MOL0     N40047   7.605   1.972   2.725  0.7147 -0.3927 -0.3070
  304MOL0     C40048   6.703   2.518   2.751  0.2310 -0.0533 -1.5679
  304MOL0     C40049   6.600   2.433   2.792 -0.9612 -0.1732  0.6639
  304MOL0     C40050   6.350   2.190   3.089 -0.0520  0.1370  0.8639
  304MOL0     C40051   6.382   2.051   3.080 -1.2815 -0.0651 -0.6709
  304MOL0     C40052   6.311   1.953   3.145 -0.4110  0.0245 -0.8071
  304MOL0     C40053   6.217   1.999   3.237 -0.1798  0.4683 -0.2460
  304MOL0     O40054   6.122   1.909   3.287 -0.2607  0.0494  0.5123
  304MOL0     C40055   6.145   1.866   3.425  0.3732  0.6975  0.0049
  304MOL0     C40056   6.015   1.865   3.516 -0.3603  1.0324 -0.9701
  304MOL0     C40057   5.895   1.801   3.454 -1.4155  0.0700  0.3961
  304MOL0     C40058   5.769   1.841   3.518 -0.7682 -0.5014  0.4202
  304MOL0     C40059   5.733   1.783   3.646 -0.2232 -0.4087  1.4573
  304MOL0     C40060   5.692   1.745   3.755  0.4295 -0.4746  0.9209
  304MOL0     C40061   6.192   2.133   3.251 -0.5456 -0.4547 -0.5336
  304MOL0     C40062   6.256   2.227   3.174  0.8219  0.1977 -1.1655
  304MOL0     H40063   6.772   2.218   2.991  0.3413 -0.3044 -0.3772
  304MOL0     H40064   6.960   2.369   2.924 -0.4907 -1.4762 -1.5710
  304MOL0     H40065   6.913   2.711   2.621 -2.2547 -0.1803 -0.2379
  304MOL0     H40066   6.954   2.554   2.568 -2.2646 -0.3149  1.2532
  304MOL0     H40067   7.135   2.764   2.699  0.9854 -1.4396  3.3079
  304MOL0     H40068   7.167   2.667   2.555  3.9384  1.1837  1.6566
  304MOL0     H40069   7.166   2.463   2.698  0.6305 -0.3977  0.7432
  304MOL0     H40070   7.185   2.588   2.834  0.1138  0.1534  0.1090
  304MOL0     H40071   7.375   2.576   2.607 -1.8372 -0.4721 -0.2319
  304MOL0     H40072   7.391   2.645   2.778  0.3737  0.5052 -1.1845
  304MOL0     H40073   7.391   2.351   2.680  2.7634  1.9515 -4.0477
  304MOL0     H40074   7.403   2.407   2.858  0.2033  0.0192 -0.0550
  304MOL0     H40075   7.620   2.475   2.829 -0.2972 -0.9133 -0.4966
  304MOL0     H40076   7.613   2.498   2.657  0.0790  2.3303  1.0971
  304MOL0     H40077   7.596   2.262   2.616  0.3510  0.0465 -0.8967
  304MOL0     H40078   7.752   2.314   2.683 -1.0523 -0.2401 -2.7854
  304MOL0     H40079   7.537   2.184   2.854 -0.2723  0.2151 -0.7619
  304MOL0     H40080   7.702   2.241   2.905 -0.5668  1.8051 -0.6055
  304MOL0     H40081   7.878   2.070   2.884  0.5253  1.8462 -1.2563
  304MOL0     H40082   7.998   1.821   2.797  1.7642 -2.3395  2.3366
  304MOL0     H40083   7.879   1.689   2.777 -1.9520 -0.4062 -0.5530
  304MOL0     H40084   7.884   1.870   3.031 -3.7388 -0.5932 -0.7339
  304MOL0     H40085   8.003   1.743   3.010  1.1826 -1.2948 -4.3060
  304MOL0     H40086   7.698   1.717   2.985  0.3078  0.0941 -0.2544
  304MOL0     H40087   7.806   1.582   2.972  1.6754  0.3283 -1.1994
  304MOL0     H40088   7.704   1.721   3.212 -0.5495 -1.2982  2.0732
  304MOL0     H40089   7.875   1.672   3.225  2.5398  0.7450 -3.3321
  304MOL0     H40090   7.684   1.273   3.216  1.0394  1.7657  0.9518
  304MOL0     H40091   7.458   1.172   3.198 -0.4372 -0.3555  0.4990
  304MOL0     H40092   6.975   1.301   2.975  0.0091 -0.6278 -0.3010
  304MOL0     H40093   6.762   1.159   2.994 -0.6836 -4.4129  3.0358
  304MOL0     H40094   6.602   1.037   3.051  1.8779  0.0134  2.1796
  304MOL0     H40095   6.530   1.191   3.050  1.0510 -0.6641 -1.1923
  304MOL0     H40096   6.398   1.098   3.270 -0.2494 -2.0009  0.4628
  304MOL0     H40097   6.432   0.941   3.191 -0.7183 -0.9384 -2.4077
  304MOL0     H40098   6.322   1.019   3.005  2.3449  0.8465 -0.6018
  304MOL0     H40099   6.301   1.182   3.054  4.0202 -0.7338 -1.3588
  304MOL0     H40100   6.162   0.935   3.178 -0.0871 -0.1746 -1.3945
  304MOL0     H40101   6.178   1.075   3.278 -1.6563  0.2127 -0.2391
  304MOL0     H40102   6.066   1.083   2.991  0.0038  0.8387  0.5409
  304MOL0     H40103   6.069   1.209   3.112  1.2196  0.1490 -1.0588
  304MOL0     H40104   5.922   1.074   3.257  3.9345 -0.1989  0.4726
  304MOL0     H40105   5.923   0.939   3.136 -1.5881 -0.4176 -1.1488
  304MOL0     H40106   5.842   1.224   3.046 -0.1607  2.6277  3.4175
  304MOL0     H40107   5.781   1.071   2.980 -3.9265 -0.7448  0.5639
  304MOL0     H40108   5.713   1.217   3.230  0.8744 -0.2160  0.4117
  304MOL0     H40109   5.648   1.052   3.211  2.2202 -1.2254 -0.6389
  304MOL0     H40110   6.762   1.256   3.416 -0.4039 -0.7960  0.0495
  304MOL0     H40111   6.966   1.368   3.395 -1.1054  0.3546  0.7484
  304MOL0     H40112   7.299   1.556   3.118 -0.3839 -0.7469  0.2074
  304MOL0     H40113   7.511   1.658   3.121  2.3241  0.1877 -2.2960
  304MOL0     H40114   6.693   2.610   2.694 -2.2165  1.7506  1.4151
  304MOL0     H40115   6.496   2.445   2.765 -1.0347 -1.8027  0.1206
  304MOL0     H40116   6.472   2.027   3.025 -3.4159  0.8378 -4.9218
  304MOL0     H40117   6.335   1.847   3.139 -1.4497 -0.3528  1.0806
  304MOL0     H40118   6.224   1.919   3.480  1.1447 -1.5813  1.2197
  304MOL0     H40119   6.184   1.765   3.410 -1.0314  0.1281  0.0752
  304MOL0     H40120   6.039   1.809   3.606  0.9166 -0.9293 -2.4472
  304MOL0     H40121   5.988   1.969   3.538 -0.8579  0.9086 -0.9826
  304MOL0     H40122   5.902   1.692   3.453 -1.1651  0.0882 -0.1612
  304MOL0     H40123   5.896   1.827   3.348 -0.0914 -2.7469 -0.3770
  304MOL0     H40124   5.785   1.948   3.537 -0.5385 -1.0433  4.1139
  304MOL0     H40125   5.683   1.827   3.452  0.3434  0.8898 -1.4350
  304MOL0     H40126   5.652   1.693   3.839  1.5919  0.0667  1.8528
  304MOL0     H40127   6.116   2.159   3.324  0.7006 -2.0229  1.4483
  304MOL0     H40128   6.213   2.323   3.201 -0.8567 -1.0426  0.9458
  305MOL0     O40129   2.487  10.689   9.904 -0.2744 -0.2025 -0.1969
  305MOL0     C40130   2.495  10.696   9.780 -0.6532  0.4487  0.5916
  305MOL0     O40131   2.393  10.675   9.696 -0.2639 -0.4730  0.4413
  305MOL0     C40132   2.268  10.684   9.745  0.4097  0.5200 -0.2095
  305MOL0     C40133   2.215  10.570   9.804  0.0698 -0.0657  0.7007
  305MOL0     C40134   2.089  10.566   9.860 -0.0795  0.1866 -0.6910
  305MOL0     C40135   2.005  10.686   9.868 -0.5561  0.0607  0.1273
  305MOL0     O40136   1.893  10.705   9.937 -0.1190  0.1240 -0.7094
  305MOL0     C40137   1.839  10.596  10.015  0.1172  0.4145 -0.1904
  305MOL0     C40138   1.749  10.505   9.946 -0.2623  0.0483 -0.3150
  305MOL0     C40139   1.672  10.415  10.042  0.2624  0.7822  0.2957
  305MOL0     C40140   1.591  10.316   9.956  0.3649 -0.5057  0.0543
  305MOL0     C40141   1.485  10.254  10.043  0.1796  1.3374  0.5064
  305MOL0     C40142   1.393  10.138   9.988 -0.5563 -1.3770 -0.6350
  305MOL0     C40143   1.277  10.116  10.089  0.0346 -0.6536 -0.3712
  305MOL0     C40144   1.169  10.216  10.086  0.8227  0.3988 -0.1497
  305MOL0     N40145   1.032  10.148  10.104  0.1626 -0.2761  0.6281
  305MOL0     C40146   0.980  10.106  10.221 -0.0165  1.2856  0.8722
  305MOL0     C40147   0.852  10.071  10.190 -0.2269 -0.0290 -0.0067
  305MOL0     C40148   0.751   9.999  10.281 -0.5737  0.1692  0.0111
  305MOL0     C40149   0.635  10.075  10.328 -0.2842  0.2012 -0.0565
  305MOL0     C40150   0.560  10.007  10.450 -0.4447  0.8725 -0.0751
  305MOL0     C40151   0.443   9.931  10.406 -0.0600  0.1044  0.0506
  305MOL0     O40152   0.377   9.870  10.519  0.1435  0.1361 -0.8036
  305MOL0     C40153   0.244   9.903  10.544 -0.2372 -1.3874  0.7876
  305MOL0     C40154   0.146   9.818  10.575  0.0159 -0.3142  0.2752
  305MOL0     C40155   0.021   9.866  10.617  0.4986 -0.4486  0.7255
  305MOL0     C40156  -0.014  10.003  10.625 -0.3973 -0.1595  0.0277
  305MOL0     C40157  -0.146  10.039  10.675 -0.9074 -0.1632  0.1802
  305MOL0     O40158  -0.174  10.173  10.689  0.2774 -0.6012  0.1095
  305MOL0     C40159  -0.305  10.214  10.703 -0.0644 -0.2710 -1.0508
  305MOL0     C40160  -0.408  10.170  10.621  0.3289 -0.0488 -0.5445
  305MOL0     C40161  -0.536  10.204  10.656  0.5857 -0.1170  0.0774
  305MOL0     C40162  -0.559  10.314  10.735  0.3876  0.9223  0.0510
  305MOL0     O40163  -0.689  10.351  10.747 -0.0826 -0.0161 -1.0999
  305MOL0     C40164  -0.752  10.272  10.850  0.7574 -0.3354 -0.7125
  305MOL0     C40165  -0.891  10.350  10.880 -0.1429 -0.3150  0.3626
  305MOL0     C40166  -0.877  10.504  10.928  0.1173  0.2598 -0.5487
  305MOL0     C40167  -1.018  10.549  10.979  0.3663  1.1248  0.1229
  305MOL0     C40168  -1.025  10.677  11.042 -0.1917  0.0854 -0.1297
  305MOL0     C40169  -1.169  10.745  11.054 -0.0096  0.5042  0.8584
  305MOL0     C40170  -1.278  10.653  11.102 -0.1488  0.1137 -0.6215
  305MOL0     C40171  -1.418  10.712  11.102 -0.3586 -0.6458  0.1339
  305MOL0    Cl40172  -1.431  10.840  11.227  0.2576  0.0484  0.2112
  305MOL0     C40173  -0.455  10.373  10.803  0.2790 -1.7674 -0.8384
  305MOL0     C40174  -0.328  10.324  10.791 -0.5248 -0.6602 -0.5515
  305MOL0     O40175  -0.227   9.946  10.690 -0.2653  0.3447 -0.5276
  305MOL0     C40176   0.080  10.090  10.602 -0.3475 -1.0430  0.2382
  305MOL0     C40177   0.207  10.038  10.562 -0.0781  0.7692  0.9215
  305MOL0     N40178   0.821  10.097  10.055 -0.2229 -0.5056  0.2853
  305MOL0     N40179   0.938  10.143  10.009  1.1354 -0.4555  0.1874
  305MOL0     C40180   2.056  10.796   9.810 -0.1962 -0.2583  0.9662
  305MOL0     C40181   2.186  10.801   9.749  0.4680  1.0518 -0.3426
  305MOL0     C40182   2.634  10.729   9.739  0.9318 -0.0393 -1.1975
  305MOL0     C40183   2.738  10.724   9.832  0.9665 -0.0614 -0.2491
  305MOL0     C40184   2.872  10.738   9.791 -0.1608  0.3024 -0.0394
  305MOL0     C40185   2.896  10.767   9.660 -0.4073 -0.8196 -0.3372
  305MOL0     O40186   3.025  10.811   9.618  0.3514 -0.2528  0.0464
  305MOL0     C40187   3.048  10.951   9.630  0.1212 -0.1852 -0.1168
  305MOL0     C40188   3.180  10.967   9.697 -0.1326  0.6593  0.2850
  305MOL0     C40189   3.301  10.904   9.625 -0.8610  1.1333  0.8360
  305MOL0     C40190   3.433  10.954   9.686  0.0399  0.5093  0.0755
  305MOL0     C40191   3.542  10.901   9.594  0.1864  0.2375  0.5541
  305MOL0     C40192   3.632  10.866   9.521 -0.1472  0.5320 -0.5524
  305MOL0     C40193   2.792  10.765   9.565 -0.5702 -0.6425 -0.4539
  305MOL0     C40194   2.659  10.761   9.603  0.4486 -0.0265  0.2685
  305MOL0     H40195   2.281  10.484   9.812  1.4730  0.8486 -0.5154
  305MOL0     H40196   2.051  10.472   9.901 -0.2294 -1.0618 -3.4897
  305MOL0     H40197   1.777  10.630  10.098 -0.2826 -0.1037 -0.2689
  305MOL0     H40198   1.918  10.529  10.051  0.6274 -0.0651 -2.0970
  305MOL0     H40199   1.804  10.444   9.874  0.9667  0.7832 -0.0441
  305MOL0     H40200   1.686  10.565   9.880  2.6549  1.9050 -1.6162
  305MOL0     H40201   1.601  10.474  10.101  0.8024  3.5386 -1.6112
  305MOL0     H40202   1.737  10.358  10.109  0.4353  1.1735  0.4657
  305MOL0     H40203   1.538  10.382   9.887 -2.7211  0.9563  3.4493
  305MOL0     H40204   1.651  10.250   9.894  2.7414  2.4463 -1.0634
  305MOL0     H40205   1.410  10.330  10.067  0.1353  1.3174  0.4311
  305MOL0     H40206   1.533  10.212  10.132  0.1315 -0.9904 -0.4768
  305MOL0     H40207   1.460  10.054   9.965  1.3346  0.4118 -2.0305
  305MOL0     H40208   1.350  10.164   9.891  0.9520 -2.0785 -1.5362
  305MOL0     H40209   1.240  10.018  10.058 -0.7138 -0.5897  0.2948
  305MOL0     H40210   1.319  10.103  10.190 -1.2634 -0.0072  0.2780
  305MOL0     H40211   1.171  10.255   9.984  2.6734 -2.9093 -1.5351
  305MOL0     H40212   1.191  10.297  10.155 -2.2132 -1.6046  3.6010
  305MOL0     H40213   1.033  10.097  10.315  0.8952 -0.3800  0.2435
  305MOL0     H40214   0.812   9.971  10.368  5.2926  4.9783 -1.7760
  305MOL0     H40215   0.723   9.922  10.209 -1.1063  3.3920 -3.5903
  305MOL0     H40216   0.559  10.110  10.257 -1.5385 -0.1345  1.0788
  305MOL0     H40217   0.682  10.157  10.384 -1.8801  1.7277 -0.8513
  305MOL0     H40218   0.635   9.948  10.503  0.9830 -0.4501 -3.2876
  305MOL0     H40219   0.521  10.081  10.520 -0.6035 -0.7030  1.5732
  305MOL0     H40220   0.466   9.859  10.328 -1.4596  0.5019 -0.7626
  305MOL0     H40221   0.383  10.006  10.352 -1.5388 -2.0309 -1.4346
  305MOL0     H40222   0.160   9.714  10.546 -0.5405 -0.1112 -0.8069
  305MOL0     H40223  -0.060   9.795  10.633 -2.1039  1.9456 -0.8817
  305MOL0     H40224  -0.387  10.103  10.538 -1.0129  1.2327 -1.9691
  305MOL0     H40225  -0.628  10.173  10.608 -0.7942 -0.7128  2.9481
  305MOL0     H40226  -0.690  10.283  10.940  2.4820 -1.9028 -1.6256
  305MOL0     H40227  -0.769  10.166  10.829  1.7643 -0.9821  1.4255
  305MOL0     H40228  -0.945  10.289  10.953  0.8083 -2.7001 -0.8418
  305MOL0     H40229  -0.950  10.359  10.789 -1.3325 -1.9074  0.9401
  305MOL0     H40230  -0.835  10.563  10.846 -0.0446 -0.0208 -0.8376
  305MOL0     H40231  -0.812  10.506  11.016 -0.5837  1.3546 -0.0363
  305MOL0     H40232  -1.076  10.552  10.886  3.6047 -0.0106 -2.1029
  305MOL0     H40233  -1.060  10.472  11.044 -0.0198  0.2759 -1.0811
  305MOL0     H40234  -0.961  10.746  10.985 -0.6634 -1.5631 -2.8171
  305MOL0     H40235  -0.991  10.656  11.144  1.1620 -1.8224 -0.9178
  305MOL0     H40236  -1.191  10.792  10.957  0.8956 -0.2788  0.2510
  305MOL0     H40237  -1.150  10.828  11.123  0.7100  1.9763 -1.0124
  305MOL0     H40238  -1.285  10.562  11.043  0.0104  1.2939 -2.5490
  305MOL0     H40239  -1.256  10.640  11.208  2.1927 -1.9907 -1.2777
  305MOL0     H40240  -1.480  10.625  11.128  1.2565 -1.2211  2.3888
  305MOL0     H40241  -1.444  10.752  11.004  0.2662 -0.8120 -0.1050
  305MOL0     H40242  -0.483  10.458  10.864 -0.2511 -1.5936 -1.3158
  305MOL0     H40243  -0.236  10.355  10.839 -0.8508 -0.6634  0.0874
  305MOL0     H40244   0.057  10.196  10.601  0.8094 -0.7752 -1.1994
  305MOL0     H40245   0.283  10.115  10.551  1.0976 -0.6538 -2.0154
  305MOL0     H40246   2.003  10.890   9.820  0.4215 -0.0033  1.9783
  305MOL0     H40247   2.222  10.896   9.711 -2.2921  2.5053  0.4831
  305MOL0     H40248   2.715  10.704   9.936  0.8055 -0.3394 -0.3349
  305MOL0     H40249   2.960  10.737   9.856  1.1869  1.4661 -1.7657
  305MOL0     H40250   2.969  10.999   9.688 -0.1029  2.5704 -2.4776
  305MOL0     H40251   3.049  10.994   9.529 -1.1899  2.9371  1.0659
  305MOL0     H40252   3.190  11.076   9.703 -1.1533  0.7503  0.5454
  305MOL0     H40253   3.179  10.917   9.794 -1.5529  0.7998  0.3543
  305MOL0     H40254   3.304  10.935   9.520  2.2603 -0.7751  0.2217
  305MOL0     H40255   3.299  10.795   9.639 -1.7352  0.4830 -3.1494
  305MOL0     H40256   3.440  11.063   9.684 -1.1622  0.5823 -1.4584
  305MOL0     H40257   3.429  10.906   9.784  1.1549 -2.2538 -1.1207
  305MOL0     H40258   3.703  10.831   9.448 -1.3930 -0.1815 -1.4786
  305MOL0     H40259   2.814  10.797   9.463  2.7501  3.3250  1.2140
  305MOL0     H40260   2.581  10.755   9.527  2.5729  2.9725 -2.4264
  306MOL0     O40261   8.059   9.961   2.201  0.2758 -0.0805  0.2713
  306MOL0     C40262   8.051  10.079   2.236 -0.2782 -0.0959 -0.6417
  306MOL0     O40263   8.163  10.166   2.253  0.3800 -0.0385  0.0358
  306MOL0     C40264   8.280  10.102   2.237 -0.2926 -0.1135  0.1390
  306MOL0     C40265   8.359  10.065   2.345  0.2912  1.1061  0.0974
  306MOL0     C40266   8.486  10.007   2.318 -0.4491 -0.1233  1.1135
  306MOL0     C40267   8.537  10.007   2.179  0.5077  0.1984  0.2407
  306MOL0     O40268   8.662   9.978   2.139  0.2616  0.6281  0.5572
  306MOL0     C40269   8.742   9.893   2.220 -0.2865 -0.6557 -0.5749
  306MOL0     C40270   8.870   9.856   2.150 -0.6269  0.0866  0.9254
  306MOL0     C40271   8.950   9.768   2.250 -0.9648  0.3718  0.6149
  306MOL0     C40272   9.084   9.697   2.203 -0.1882 -0.2695  0.9190
  306MOL0     C40273   9.095   9.639   2.061 -0.3211  0.0937  0.3433
  306MOL0     C40274   8.988   9.540   2.016 -0.5195  0.1784  0.6252
  306MOL0     C40275   8.961   9.421   2.112 -0.5298 -0.3309 -0.2925
  306MOL0     C40276   8.864   9.318   2.055  0.4788  0.0463 -0.4299
  306MOL0     N40277   8.732   9.380   2.028 -0.4796  0.1318  0.9074
  306MOL0     C40278   8.639   9.405   2.122 -0.0557 -0.1379  0.1847
  306MOL0     C40279   8.523   9.432   2.053  0.1978 -0.3281  0.4593
  306MOL0     C40280   8.394   9.486   2.110 -0.1879  0.6177 -0.2059
  306MOL0     C40281   8.344   9.593   2.018  0.1539 -0.2500  0.0786
  306MOL0     C40282   8.273   9.711   2.078  0.2475 -0.6571  0.4395
  306MOL0     C40283   8.156   9.747   1.978  0.7050  0.3449 -0.4273
  306MOL0     O40284   8.058   9.639   1.976 -0.3101 -0.3255 -0.3781
  306MOL0     C40285   7.928   9.685   1.989 -0.4120  0.1565 -0.3372
  306MOL0     C40286   7.846   9.723   1.874  0.2380  0.3693 -0.3483
  306MOL0     C40287   7.714   9.744   1.886  0.2454  0.9036  0.8615
  306MOL0     C40288   7.655   9.717   2.011  0.0672 -0.4286 -0.0590
  306MOL0     C40289   7.511   9.734   2.029  0.3599  1.0222 -0.2664
  306MOL0     O40290   7.438   9.803   1.932  0.3913  0.3129 -0.1145
  306MOL0     C40291   7.303   9.825   1.956 -0.2704 -0.2176  0.2074
  306MOL0     C40292   7.207   9.715   1.964 -0.6803 -0.9966 -0.3867
  306MOL0     C40293   7.075   9.743   1.999  0.6995 -0.2659 -0.1130
  306MOL0     C40294   7.034   9.881   2.018  0.0160 -0.3270 -0.8171
  306MOL0     O40295   6.903   9.912   2.044  0.2867  0.4995  0.1375
  306MOL0     C40296   6.885  10.018   2.144 -0.1659  0.1073  0.1146
  306MOL0     C40297   6.747  10.055   2.168  1.4252 -0.4312 -0.7244
  306MOL0     C40298   6.675  10.107   2.039 -0.2930  0.4755  0.1482
  306MOL0     C40299   6.527  10.125   2.043  0.4565  1.3861 -0.3644
  306MOL0     C40300   6.470  10.227   2.136 -0.0936  0.7048 -0.3221
  306MOL0     C40301   6.474  10.361   2.079  0.2691 -1.7815  0.1933
  306MOL0     C40302   6.384  10.447   2.165 -0.1389  0.5270  0.7611
  306MOL0     C40303   6.369  10.587   2.108  0.0721  0.4428 -0.2198
  306MOL0    Cl40304   6.281  10.669   2.224  0.2223  0.1537  0.0238
  306MOL0     C40305   7.126   9.981   2.021 -0.0432  0.3643  0.3459
  306MOL0     C40306   7.256   9.943   2.005 -1.1421 -0.3982  0.0959
  306MOL0     O40307   7.470   9.682   2.131  0.3220 -0.2020  0.1933
  306MOL0     C40308   7.732   9.695   2.126  1.9473  0.5727 -0.2033
  306MOL0     C40309   7.863   9.680   2.113  0.3089 -0.2848 -0.1771
  306MOL0     N40310   8.546   9.401   1.919  1.6853 -0.1933  0.2254
  306MOL0     N40311   8.667   9.369   1.904  0.3284  0.5441  0.2941
  306MOL0     C40312   8.452  10.036   2.077  0.2648  0.2579 -1.2145
  306MOL0     C40313   8.324  10.082   2.107 -0.3252  1.1849  0.3382
  306MOL0     C40314   7.923  10.144   2.256  0.4766 -0.3651  0.7181
  306MOL0     C40315   7.805  10.070   2.218  0.8180 -0.4525  0.3660
  306MOL0     C40316   7.677  10.118   2.238 -0.7589 -0.0906 -0.1965
  306MOL0     C40317   7.654  10.240   2.311 -0.2125 -0.0411  0.6116
  306MOL0     O40318   7.530  10.290   2.334  0.1903  0.0869 -0.1494
  306MOL0     C40319   7.423  10.208   2.309 -0.0936  0.6260 -0.3126
  306MOL0     C40320   7.299  10.272   2.363  0.6889  0.1022 -0.2537
  306MOL0     C40321   7.189  10.161   2.363  0.2683 -0.6604  0.1398
  306MOL0     C40322   7.055  10.218   2.413 -0.6342 -0.6355  0.9072
  306MOL0     C40323   6.992  10.323   2.328 -0.8312  0.2954 -0.3478
  306MOL0     C40324   6.940  10.393   2.244 -0.1402  0.0060  0.1874
  306MOL0     C40325   7.764  10.313   2.351  0.3985 -0.2602  0.9002
  306MOL0     C40326   7.899  10.274   2.312 -0.5179 -0.5356  0.2655
  306MOL0     H40327   8.319  10.085   2.443  0.3767  0.5346  0.2529
  306MOL0     H40328   8.553   9.967   2.394  0.3916 -0.4211  0.2325
  306MOL0     H40329   8.685   9.802   2.244 -2.9519  0.9109 -0.5098
  306MOL0     H40330   8.765   9.930   2.320  0.9052 -0.7385 -0.8128
  306MOL0     H40331   8.928   9.945   2.123 -1.1455  0.2445  0.3015
  306MOL0     H40332   8.840   9.797   2.062 -0.4295 -0.8794  1.4851
  306MOL0     H40333   8.874   9.698   2.286 -0.4235 -0.2449  0.5673
  306MOL0     H40334   8.976   9.834   2.333 -0.1116  0.4988  0.2589
  306MOL0     H40335   9.164   9.769   2.220 -1.1856  0.8217  1.1055
  306MOL0     H40336   9.105   9.614   2.271 -0.9767  0.0874  1.6117
  306MOL0     H40337   9.190   9.587   2.046 -1.1969 -1.0750 -1.6333
  306MOL0     H40338   9.098   9.724   1.991  0.1998 -0.3258 -0.1582
  306MOL0     H40339   9.016   9.509   1.915  0.4257  1.6965  0.3807
  306MOL0     H40340   8.887   9.580   2.005 -1.6383 -2.7716 -0.9933
  306MOL0     H40341   9.051   9.367   2.140 -0.0851  1.1852  1.3575
  306MOL0     H40342   8.929   9.462   2.208 -0.4430 -0.6809 -0.1130
  306MOL0     H40343   8.852   9.248   2.138 -0.7793  0.8177  0.0741
  306MOL0     H40344   8.901   9.272   1.963  0.7077 -2.5829  0.8910
  306MOL0     H40345   8.653   9.419   2.228 -0.4739 -0.0364  0.2280
  306MOL0     H40346   8.416   9.537   2.204  2.2573  0.7229 -0.7688
  306MOL0     H40347   8.322   9.411   2.143 -0.4298  0.9058 -0.0793
  306MOL0     H40348   8.284   9.545   1.940  0.0594  0.2270 -0.1413
  306MOL0     H40349   8.435   9.630   1.971  1.2219 -3.8390 -1.0066
  306MOL0     H40350   8.228   9.691   2.176 -0.3368 -0.0350  0.3064
  306MOL0     H40351   8.342   9.795   2.091  2.7323 -2.3683 -0.9515
  306MOL0     H40352   8.191   9.763   1.876  3.9299 -0.2722  0.4598
  306MOL0     H40353   8.100   9.837   2.006  1.2898  1.3582 -2.3603
  306MOL0     H40354   7.902   9.742   1.783  0.3238  0.3911 -0.2911
  306MOL0     H40355   7.647   9.784   1.811  0.0344  1.7414  1.4848
  306MOL0     H40356   7.231   9.611   1.942  1.2039 -0.2527 -2.2270
  306MOL0     H40357   6.999   9.666   2.001 -0.3112  0.6953 -0.3328
  306MOL0     H40358   6.938  10.112   2.124 -0.1532  0.0155 -0.2885
  306MOL0     H40359   6.922   9.976   2.238 -0.6405 -0.7402 -0.0709
  306MOL0     H40360   6.742  10.129   2.248 -1.4983 -0.9494 -0.3238
  306MOL0     H40361   6.690   9.966   2.197 -2.9733  1.2473 -3.1940
  306MOL0     H40362   6.698  10.029   1.966 -0.6102  0.6942 -0.1863
  306MOL0     H40363   6.723  10.201   2.011  1.2867 -1.0446 -2.7888
  306MOL0     H40364   6.495  10.149   1.942  0.0501 -0.3297 -0.6736
  306MOL0     H40365   6.483  10.030   2.075  1.3566  1.1692  0.2593
  306MOL0     H40366   6.520  10.210   2.232 -2.3783  0.4531  0.9044
  306MOL0     H40367   6.366  10.196   2.154  0.5322 -0.1018  2.5105
  306MOL0     H40368   6.435  10.366   1.977 -1.0669  1.4990  0.7462
  306MOL0     H40369   6.578  10.394   2.081  0.0345 -1.0161  2.3483
  306MOL0     H40370   6.283  10.406   2.178 -0.6640  1.7761  0.7837
  306MOL0     H40371   6.426  10.446   2.265  0.9567  1.6083  0.3293
  306MOL0     H40372   6.307  10.583   2.018 -1.7401  1.4562  0.9110
  306MOL0     H40373   6.463  10.636   2.082 -1.8635  4.2121 -0.7428
  306MOL0     H40374   7.115  10.089   2.020  1.1680  0.5142 -1.0740
  306MOL0     H40375   7.337  10.015   2.007 -0.9179 -0.5535 -1.6725
  306MOL0     H40376   7.683   9.682   2.222  0.2007  0.2902 -1.0737
  306MOL0     H40377   7.919   9.647   2.199 -1.7311  1.2781  1.8732
  306MOL0     H40378   8.492  10.036   1.976 -0.0779 -2.5069 -1.4355
  306MOL0     H40379   8.261  10.108   2.023  0.9969  0.9780 -0.7434
  306MOL0     H40380   7.824   9.979   2.162  0.9054 -0.8432  1.0120
  306MOL0     H40381   7.598  10.056   2.197 -0.7196  0.5156 -1.2202
  306MOL0     H40382   7.438  10.106   2.344 -0.3337  0.4273 -0.7758
  306MOL0     H40383   7.403  10.210   2.202 -0.2291  0.2242 -0.2947
  306MOL0     H40384   7.318  10.306   2.465  0.7823 -0.8052  0.0389
  306MOL0     H40385   7.282  10.349   2.287  1.9732 -0.8274 -1.5264
  306MOL0     H40386   7.213  10.081   2.433 -0.8350 -0.6429  0.5597
  306MOL0     H40387   7.184  10.115   2.263  4.1949 -1.1557  0.0304
  306MOL0     H40388   7.003  10.122   2.406 -0.1528 -0.9405  1.4652
  306MOL0     H40389   7.060  10.250   2.517  1.1435  1.9269  0.1389
  306MOL0     H40390   6.894  10.419   2.150  2.2394 -2.8630 -1.9850
  306MOL0     H40391   7.747  10.398   2.416 -0.6567  0.7018 -0.5728
  306MOL0     H40392   7.981  10.338   2.343 -1.5918  0.4240  1.2144
  307MOL0     O40393   1.658   2.977   3.426 -0.1803  0.1026  0.4706
  307MOL0     C40394   1.674   3.094   3.392  0.9504 -0.1912 -0.2121
  307MOL0     O40395   1.578   3.196   3.386 -0.3734 -0.0935  0.7115
  307MOL0     C40396   1.447   3.160   3.411  0.0621 -0.4367 -0.8087
  307MOL0     C40397   1.362   3.248   3.350  0.0326 -0.0413 -0.4640
  307MOL0     C40398   1.221   3.224   3.353  0.0938 -0.5107  0.7131
  307MOL0     C40399   1.167   3.105   3.401  0.2656  0.1814 -0.0366
  307MOL0     O40400   1.026   3.095   3.390 -0.9384  0.3614  0.2259
  307MOL0     C40401   0.972   3.032   3.510 -0.1356  0.2328  0.7054
  307MOL0     C40402   0.824   3.062   3.498 -0.2236 -0.0548  0.2836
  307MOL0     C40403   0.762   2.982   3.605  0.4660 -0.5031 -0.7648
  307MOL0     C40404   0.610   3.005   3.616 -0.7866  0.0916 -0.7058
  307MOL0     C40405   0.532   2.925   3.513  0.3675  0.7307  0.0008
  307MOL0     C40406   0.374   2.938   3.513  0.3803  0.3343 -1.1585
  307MOL0     C40407   0.302   2.856   3.622 -0.4278  0.6234 -0.5059
  307MOL0     C40408   0.158   2.805   3.584  0.6578 -0.1772 -0.6324
  307MOL0     N40409   0.169   2.690   3.486 -0.1359  0.2764  0.1539
  307MOL0     C40410   0.102   2.675   3.369  1.3103 -0.2722  0.2708
  307MOL0     C40411   0.139   2.556   3.321 -0.5146  1.2615  0.5839
  307MOL0     C40412   0.076   2.475   3.206 -0.8012 -0.3153  0.2501
  307MOL0     C40413   0.103   2.323   3.196  0.2166 -0.5981 -0.3960
  307MOL0     C40414   0.018   2.251   3.298 -0.1385  0.2326 -0.1046
  307MOL0     C40415   0.031   2.105   3.276 -0.3755 -0.4940  0.7425
  307MOL0     O40416  -0.003   2.071   3.141  0.3648 -0.3620 -0.1925
  307MOL0     C40417  -0.140   2.086   3.102  0.2020 -0.1550  0.1177
  307MOL0     C40418  -0.254   2.080   3.188 -0.0145  0.7388 -0.1485
  307MOL0     C40419  -0.380   2.087   3.132 -0.1060  0.9424  0.7325
  307MOL0     C40420  -0.404   2.110   2.993  0.9391  0.2450  0.7498
  307MOL0     C40421  -0.540   2.126   2.932  0.2028  0.1035  0.0689
  307MOL0     O40422  -0.642   2.099   3.020 -0.1536  0.1400  0.6367
  307MOL0     C40423  -0.778   2.101   2.972 -0.2108 -0.9426 -0.3416
  307MOL0     C40424  -0.829   2.201   2.885 -0.1734  0.0851  0.4179
  307MOL0     C40425  -0.952   2.202   2.828  0.4818 -0.5200  0.6605
  307MOL0     C40426  -1.041   2.107   2.872  0.5785 -0.0630 -0.0443
  307MOL0     O40427  -1.167   2.088   2.819  0.4246  0.1427  0.1573
  307MOL0     C40428  -1.237   2.208   2.778  0.2818  0.3406  0.7491
  307MOL0     C40429  -1.387   2.149   2.778  0.3056 -0.5298  0.8883
  307MOL0     C40430  -1.440   2.100   2.643  0.3030  0.8258 -0.1207
  307MOL0     C40431  -1.566   2.017   2.648  0.0350  0.3672 -0.2942
  307MOL0     C40432  -1.591   1.930   2.522  0.5832  0.8244  0.3110
  307MOL0     C40433  -1.631   2.001   2.403  0.7645 -0.4044  0.4530
  307MOL0     C40434  -1.508   2.052   2.305 -0.1487 -0.2264 -0.9614
  307MOL0     C40435  -1.580   2.119   2.192 -0.0221  0.4968  0.6499
  307MOL0    Cl40436  -1.692   2.248   2.241  0.0651 -0.0788 -0.5605
  307MOL0     C40437  -0.994   1.999   2.956 -0.8368  0.7199  0.0586
  307MOL0     C40438  -0.865   1.997   3.009  0.3158 -0.1592 -0.7911
  307MOL0     O40439  -0.558   2.151   2.813 -0.5122 -0.1983  0.5863
  307MOL0     C40440  -0.293   2.117   2.905  0.4810 -0.1474  0.2729
  307MOL0     C40441  -0.165   2.108   2.967  0.0496 -0.2475  0.4857
  307MOL0     N40442   0.244   2.507   3.406 -0.7344  0.0390  0.4810
  307MOL0     N40443   0.254   2.583   3.509  0.0728 -0.5009 -0.5567
  307MOL0     C40444   1.250   3.021   3.473  0.4227 -0.1083 -0.3872
  307MOL0     C40445   1.387   3.043   3.465 -0.1347 -0.2200 -0.3034
  307MOL0     C40446   1.805   3.145   3.340 -0.2473  0.7593 -0.3408
  307MOL0     C40447   1.907   3.058   3.342  0.2355  0.7057  0.1480
  307MOL0     C40448   2.038   3.100   3.310 -0.3955 -0.6909 -0.5524
  307MOL0     C40449   2.067   3.239   3.275  0.3658  0.5307 -0.7456
  307MOL0     O40450   2.193   3.293   3.243  0.2626  0.5470 -0.3528
  307MOL0     C40451   2.304   3.222   3.295  0.1526  0.8530  0.9390
  307MOL0     C40452   2.423   3.300   3.281 -0.0024  0.7703 -0.5270
  307MOL0     C40453   2.550   3.232   3.360 -0.7675 -0.6659  0.2375
  307MOL0     C40454   2.576   3.296   3.499  0.2100  0.5499 -0.3245
  307MOL0     C40455   2.697   3.247   3.565 -0.2500  0.0570 -0.8132
  307MOL0     C40456   2.793   3.191   3.615  0.0622  0.5366  0.4955
  307MOL0     C40457   1.960   3.324   3.262  0.3640 -0.0212 -1.7456
  307MOL0     C40458   1.833   3.279   3.297 -0.2546  0.3149  1.6496
  307MOL0     H40459   1.391   3.343   3.305 -1.6993  0.5963 -0.2904
  307MOL0     H40460   1.145   3.294   3.321 -0.5263 -1.6689 -0.4496
  307MOL0     H40461   1.006   3.071   3.606 -1.1541  3.2396 -0.0212
  307MOL0     H40462   0.982   2.923   3.512 -1.1365  0.1370  1.2819
  307MOL0     H40463   0.785   3.029   3.401 -0.2858  0.0341  0.2784
  307MOL0     H40464   0.814   3.170   3.510 -2.6909 -0.3529  1.5422
  307MOL0     H40465   0.795   2.999   3.708  0.2781  0.1984 -0.8177
  307MOL0     H40466   0.773   2.877   3.575 -1.4930  0.0366 -3.8852
  307MOL0     H40467   0.559   2.974   3.708 -2.0599  1.4806 -0.9071
  307MOL0     H40468   0.590   3.109   3.591 -1.7135 -0.0385 -0.5362
  307MOL0     H40469   0.550   2.817   3.520 -2.1977  0.0972 -1.7713
  307MOL0     H40470   0.568   2.954   3.414 -2.1663 -1.9535 -1.8698
  307MOL0     H40471   0.344   2.890   3.419  1.6948 -0.1357 -1.3669
  307MOL0     H40472   0.336   3.040   3.498 -1.8056 -0.2419  0.0223
  307MOL0     H40473   0.364   2.774   3.661 -1.6985  1.0809  2.8313
  307MOL0     H40474   0.286   2.925   3.705 -2.9948 -1.4321  0.8682
  307MOL0     H40475   0.097   2.886   3.543 -0.3683 -0.8502 -0.4779
  307MOL0     H40476   0.105   2.772   3.674  1.3780 -2.1013 -0.8648
  307MOL0     H40477   0.027   2.736   3.320  0.2053 -0.7624  1.3036
  307MOL0     H40478   0.107   2.523   3.113 -0.2762 -0.0573  0.5553
  307MOL0     H40479  -0.032   2.489   3.213 -1.2516 -1.5304 -2.7446
  307MOL0     H40480   0.210   2.298   3.199  0.7440  1.4206 -0.6829
  307MOL0     H40481   0.071   2.283   3.099 -0.2622  0.4914 -0.7046
  307MOL0     H40482   0.064   2.276   3.394 -0.9379 -0.5397  0.4920
  307MOL0     H40483  -0.085   2.286   3.298  0.0951  0.9335 -0.1881
  307MOL0     H40484  -0.035   2.045   3.340 -2.9870 -0.3872 -1.6467
  307MOL0     H40485   0.133   2.068   3.287  0.1977  0.2177 -1.5059
  307MOL0     H40486  -0.230   2.049   3.290 -2.4875  1.1094  0.6155
  307MOL0     H40487  -0.468   2.073   3.193 -1.7677 -1.6142 -1.9970
  307MOL0     H40488  -0.756   2.273   2.850  2.1742 -1.9568  0.8634
  307MOL0     H40489  -0.987   2.281   2.763  0.6271  0.6438  1.9584
  307MOL0     H40490  -1.196   2.247   2.685  4.0215 -1.2534  1.5434
  307MOL0     H40491  -1.225   2.278   2.862  0.2891  0.0085  1.0265
  307MOL0     H40492  -1.448   2.238   2.791 -0.0043 -0.8449  1.6240
  307MOL0     H40493  -1.406   2.072   2.854  0.1910 -1.7328 -0.3319
  307MOL0     H40494  -1.365   2.026   2.614 -0.0956  0.1955  0.4270
  307MOL0     H40495  -1.454   2.181   2.571 -1.0344  0.9846  0.2949
  307MOL0     H40496  -1.559   1.955   2.738 -2.2495  1.7878  0.9578
  307MOL0     H40497  -1.649   2.087   2.660  0.8455  1.1330  1.3434
  307MOL0     H40498  -1.673   1.869   2.560  1.3127  0.3566  1.1662
  307MOL0     H40499  -1.508   1.867   2.489 -0.2235 -0.1011  0.0143
  307MOL0     H40500  -1.691   2.089   2.430  1.3275 -0.2905  1.3802
  307MOL0     H40501  -1.692   1.939   2.337  0.3360  2.1450 -1.7247
  307MOL0     H40502  -1.459   2.128   2.367 -1.4572 -0.6949  0.6998
  307MOL0     H40503  -1.435   1.974   2.281 -0.6721 -1.4271  1.0685
  307MOL0     H40504  -1.635   2.037   2.145 -1.8644  1.9275  0.2126
  307MOL0     H40505  -1.498   2.152   2.127 -0.5892  1.2093  0.2813
  307MOL0     H40506  -1.060   1.915   2.975 -0.8826 -0.1959 -3.5027
  307MOL0     H40507  -0.820   1.923   3.075  1.0843 -0.2251 -1.3772
  307MOL0     H40508  -0.317   2.134   2.801 -0.8724  0.6168  0.6836
  307MOL0     H40509  -0.077   2.127   2.905 -1.3450  1.0180 -1.2312
  307MOL0     H40510   1.222   2.938   3.537  0.6764 -1.6194 -2.1315
  307MOL0     H40511   1.443   2.956   3.499  1.9368  1.6501  1.3523
  307MOL0     H40512   1.891   2.956   3.375 -3.1470  0.9128 -0.4480
  307MOL0     H40513   2.106   3.017   3.325  0.6927 -0.2283 -2.5942
  307MOL0     H40514   2.320   3.122   3.253  1.2353 -0.6120  4.4329
  307MOL0     H40515   2.288   3.190   3.398 -1.0176  0.0000  0.5050
  307MOL0     H40516   2.428   3.312   3.172 -1.0124 -2.7404 -1.0751
  307MOL0     H40517   2.411   3.400   3.324  2.6691 -0.4223  3.6104
  307MOL0     H40518   2.639   3.248   3.298 -1.7115  1.7990 -0.6269
  307MOL0     H40519   2.527   3.126   3.374 -0.3544 -0.7669  0.1551
  307MOL0     H40520   2.586   3.405   3.505  0.8091  0.4194  2.2907
  307MOL0     H40521   2.497   3.272   3.572  1.5128  0.6371  1.1639
  307MOL0     H40522   2.874   3.137   3.659 -0.8983 -0.0020  1.6963
  307MOL0     H40523   1.967   3.433   3.262 -2.5387  0.3495  1.6175
  307MOL0     H40524   1.751   3.346   3.276  0.1349  0.8866  1.9387
  308MOL0     O40525   7.611   4.634  11.018 -0.4634  0.0275  0.1929
  308MOL0     C40526   7.665   4.553  10.939  0.2471  0.3200 -0.1377
  308MOL0     O40527   7.598   4.466  10.856 -0.5294  0.2707 -0.8986
  308MOL0     C40528   7.462   4.466  10.851 -0.0167  0.8908 -0.1993
  308MOL0     C40529   7.365   4.506  10.940 -0.3619  0.1570  0.9607
  308MOL0     C40530   7.227   4.490  10.912  0.2422  0.6959  0.4158
  308MOL0     C40531   7.183   4.433  10.790 -0.0157 -0.8361  0.9449
  308MOL0     O40532   7.050   4.415  10.791  0.0290 -0.3246 -0.4214
  308MOL0     C40533   6.988   4.388  10.664  0.7447 -0.2799 -0.6161
  308MOL0     C40534   6.842   4.362  10.712 -0.5008  0.2853 -0.1921
  308MOL0     C40535   6.742   4.366  10.597  1.0943  0.4403 -0.1305
  308MOL0     C40536   6.607   4.340  10.645  0.5545 -0.7953 -0.1314
  308MOL0     C40537   6.489   4.376  10.544  0.0195 -0.1725  0.1786
  308MOL0     C40538   6.363   4.298  10.604  0.6077  0.1227  0.6884
  308MOL0     C40539   6.229   4.317  10.537  0.8831 -1.3014 -0.0079
  308MOL0     C40540   6.248   4.321  10.380 -0.7143 -0.2525  0.7828
  308MOL0     N40541   6.113   4.314  10.319 -0.4123  0.8746 -0.7060
  308MOL0     C40542   6.071   4.402  10.221  0.8980 -0.6286 -0.9193
  308MOL0     C40543   5.969   4.336  10.158 -0.0269  0.2573  0.6512
  308MOL0     C40544   5.882   4.387  10.048  0.7517  1.1552  0.0608
  308MOL0     C40545   5.767   4.476  10.091  0.5002  0.1606 -0.4336
  308MOL0     C40546   5.647   4.400  10.143  0.2002  0.4076  1.0859
  308MOL0     C40547   5.542   4.508  10.173  0.6674 -0.3111  0.7584
  308MOL0     O40548   5.575   4.600  10.280  1.1751 -0.1384  0.5916
  308MOL0     C40549   5.477   4.689  10.321 -0.0041 -0.3395 -0.1106
  308MOL0     C40550   5.367   4.730  10.245  0.5748  0.8697  0.5854
  308MOL0     C40551   5.275   4.824  10.302  0.5689 -0.2885  0.1865
  308MOL0     C40552   5.290   4.867  10.436 -0.2633 -0.0818 -1.1448
  308MOL0     C40553   5.207   4.976  10.492 -0.0275 -0.5849  0.0216
  308MOL0     O40554   5.086   4.986  10.442 -0.3321  0.3678 -0.1707
  308MOL0     C40555   4.987   5.070  10.502 -0.6450 -0.5847 -0.6720
  308MOL0     C40556   4.989   5.201  10.476  0.2378 -0.0994 -0.2306
  308MOL0     C40557   4.889   5.278  10.530 -1.2033 -0.2280  0.2514
  308MOL0     C40558   4.785   5.214  10.600  0.6041  0.1548  0.1868
  308MOL0     O40559   4.680   5.291  10.648 -0.4252  0.7848 -0.3736
  308MOL0     C40560   4.665   5.427  10.605 -1.0230  0.0333 -0.4254
  308MOL0     C40561   4.540   5.495  10.674 -0.2480  1.0453  0.5712
  308MOL0     C40562   4.500   5.620  10.607 -0.0556  0.5167 -0.0629
  308MOL0     C40563   4.387   5.679  10.684  0.7385 -0.7108  0.6270
  308MOL0     C40564   4.379   5.833  10.667  0.7509  0.6369 -0.3178
  308MOL0     C40565   4.276   5.901  10.758  0.2016  0.6529  0.5410
  308MOL0     C40566   4.132   5.859  10.738 -0.2162 -0.4363 -0.3785
  308MOL0     C40567   4.047   5.987  10.771  0.2466  0.1344  0.2548
  308MOL0    Cl40568   3.880   5.959  10.736  0.0224  0.1246 -0.1093
  308MOL0     C40569   4.787   5.083  10.627 -0.0474  0.8699 -0.0008
  308MOL0     C40570   4.885   5.003  10.570 -0.2988 -0.0843  0.4040
  308MOL0     O40571   5.255   5.044  10.581  0.3456 -0.4151 -0.3018
  308MOL0     C40572   5.403   4.810  10.516  0.2446 -0.5108 -0.7877
  308MOL0     C40573   5.498   4.728  10.457 -0.0337  0.7337  0.3081
  308MOL0     N40574   5.961   4.204  10.215  0.2118  0.2984  0.2528
  308MOL0     N40575   6.038   4.198  10.307  0.5679 -0.4106  0.2038
  308MOL0     C40576   7.277   4.409  10.682  0.1465  0.6730 -0.1195
  308MOL0     C40577   7.417   4.416  10.725  0.3482  0.1792  0.0697
  308MOL0     C40578   7.808   4.533  10.954 -0.3196  0.5612 -0.1241
  308MOL0     C40579   7.881   4.594  11.064  0.0204 -0.4939 -0.2949
  308MOL0     C40580   8.015   4.589  11.081 -0.0788  0.4053  0.1801
  308MOL0     C40581   8.093   4.505  10.993 -1.1506  0.7831 -0.4279
  308MOL0     O40582   8.221   4.495  11.029 -0.1597  0.1708 -0.0158
  308MOL0     C40583   8.321   4.467  10.932  0.5500 -0.8022 -0.7473
  308MOL0     C40584   8.470   4.492  10.978  0.5326  0.6209  0.7324
  308MOL0     C40585   8.497   4.635  10.992  0.5286  0.0928  0.7073
  308MOL0     C40586   8.639   4.659  11.026 -0.7152  0.5719  0.2691
  308MOL0     C40587   8.673   4.610  11.163 -0.7838  0.7505 -0.4991
  308MOL0     C40588   8.685   4.578  11.283  0.0148 -0.0572  0.1220
  308MOL0     C40589   8.027   4.449  10.881 -0.6730 -0.7532 -0.1451
  308MOL0     C40590   7.886   4.459  10.861 -0.3672 -0.7930 -0.1030
  308MOL0     H40591   7.384   4.545  11.040 -1.0502  1.6366  0.5276
  308MOL0     H40592   7.154   4.521  10.986 -0.4214 -0.4819  0.2657
  308MOL0     H40593   7.037   4.298  10.627  0.8451 -0.2940 -0.4482
  308MOL0     H40594   6.988   4.476  10.599 -0.6552  2.1046  2.3369
  308MOL0     H40595   6.810   4.437  10.785 -0.2409  1.0221 -0.8233
  308MOL0     H40596   6.839   4.264  10.761  2.0575  0.0634 -0.3237
  308MOL0     H40597   6.776   4.296  10.520  0.3558 -1.4643  1.1828
  308MOL0     H40598   6.739   4.462  10.545 -2.0831  0.3363 -0.3404
  308MOL0     H40599   6.591   4.245  10.696 -2.9663  1.2043  3.1028
  308MOL0     H40600   6.593   4.418  10.721  1.6640  0.9782 -1.6560
  308MOL0     H40601   6.514   4.341  10.443  4.1007 -0.5343  1.1323
  308MOL0     H40602   6.474   4.484  10.551  0.3853 -0.1417  0.5574
  308MOL0     H40603   6.345   4.321  10.709 -2.9803  1.0847 -0.0261
  308MOL0     H40604   6.382   4.193  10.581 -1.4170 -0.2265  0.4323
  308MOL0     H40605   6.147   4.252  10.571 -1.9286  2.9820  2.2579
  308MOL0     H40606   6.198   4.420  10.555  0.0801 -1.7736  1.5295
  308MOL0     H40607   6.303   4.235  10.341 -3.4017 -3.8784  4.1842
  308MOL0     H40608   6.294   4.415  10.349 -0.5569 -1.0509 -1.6618
  308MOL0     H40609   6.097   4.505  10.201  0.4386 -0.1700  0.7417
  308MOL0     H40610   5.821   4.310   9.998 -1.2986  2.4322  0.4733
  308MOL0     H40611   5.948   4.442   9.981 -0.2281  2.8819  0.4542
  308MOL0     H40612   5.730   4.545  10.014 -0.0613 -0.0359 -0.3425
  308MOL0     H40613   5.811   4.536  10.172  2.0248 -3.8828  2.0012
  308MOL0     H40614   5.613   4.325  10.071  2.6004  1.4874 -1.4114
  308MOL0     H40615   5.670   4.354  10.239 -1.7003  1.6937  2.2170
  308MOL0     H40616   5.453   4.451  10.200 -0.6557  1.0710 -0.4643
  308MOL0     H40617   5.516   4.569  10.086  0.1445  0.2479  1.2950
  308MOL0     H40618   5.356   4.706  10.140  1.8133 -1.7021  0.9679
  308MOL0     H40619   5.199   4.869  10.239  0.8133  0.5379  0.4778
  308MOL0     H40620   5.066   5.242  10.411  2.2923 -1.0725  1.4534
  308MOL0     H40621   4.904   5.384  10.511  2.4833 -0.3547  1.6029
  308MOL0     H40622   4.650   5.433  10.497 -1.0278  1.5738 -0.3540
  308MOL0     H40623   4.752   5.492  10.614 -3.9646  4.0942  2.0983
  308MOL0     H40624   4.554   5.511  10.781 -0.4426 -2.1980  1.1804
  308MOL0     H40625   4.455   5.427  10.664  0.2934  0.6194 -1.7409
  308MOL0     H40626   4.474   5.603  10.502  1.4910 -0.3271 -0.3456
  308MOL0     H40627   4.587   5.686  10.603  1.1090 -1.0104 -1.9728
  308MOL0     H40628   4.302   5.637  10.629 -0.6293  0.3765  1.8339
  308MOL0     H40629   4.383   5.652  10.790  0.1283  0.8292  1.0349
  308MOL0     H40630   4.359   5.867  10.565 -1.6324 -1.0463 -0.4985
  308MOL0     H40631   4.474   5.879  10.695  0.8768  0.1152  0.1218
  308MOL0     H40632   4.284   6.010  10.746 -0.1799  0.6809  0.5380
  308MOL0     H40633   4.309   5.893  10.862 -1.2278 -0.2281  0.9445
  308MOL0     H40634   4.113   5.838  10.633 -0.3446  1.9497 -0.9052
  308MOL0     H40635   4.094   5.770  10.788 -0.5910 -0.4045 -0.6046
  308MOL0     H40636   4.092   6.076  10.726 -0.6725  0.9778  0.9747
  308MOL0     H40637   4.055   6.020  10.875  0.6872  1.6374 -0.2259
  308MOL0     H40638   4.706   5.034  10.679 -0.1960  0.3529 -0.7062
  308MOL0     H40639   4.901   4.896  10.568 -0.5882 -0.2027  2.5714
  308MOL0     H40640   5.417   4.848  10.617 -0.1050  0.4984 -1.1030
  308MOL0     H40641   5.598   4.715  10.497  0.1124  1.6473  0.2501
  308MOL0     H40642   7.264   4.382  10.577  1.2695  1.4908 -0.4948
  308MOL0     H40643   7.497   4.403  10.653  0.3267 -0.0661  0.0876
  308MOL0     H40644   7.824   4.648  11.140  0.5718 -1.6379  0.9721
  308MOL0     H40645   8.057   4.639  11.168 -0.2175  2.3508 -0.8184
  308MOL0     H40646   8.315   4.519  10.836 -0.6293 -0.0389 -0.2908
  308MOL0     H40647   8.319   4.361  10.907 -1.3576 -0.5192 -1.9567
  308MOL0     H40648   8.491   4.436  11.070  1.8168 -0.9094 -0.4398
  308MOL0     H40649   8.535   4.439  10.908 -0.6128  0.6137 -0.3552
  308MOL0     H40650   8.450   4.682  11.079 -0.6145 -1.8411  1.2161
  308MOL0     H40651   8.463   4.683  10.900 -3.7282 -3.7397 -0.0951
  308MOL0     H40652   8.699   4.609  10.949  1.1333  2.5523  0.3372
  308MOL0     H40653   8.654   4.767  11.028 -2.6913  0.8774  0.0253
  308MOL0     H40654   8.691   4.547  11.385 -1.2398  1.5410  0.7299
  308MOL0     H40655   8.087   4.396  10.809  0.3856 -3.7046  2.6420
  308MOL0     H40656   7.843   4.430  10.766 -0.1415  0.0383 -0.4628
  309MOL0     O40657   7.948   0.184   7.790  0.4063  0.0562 -0.2996
  309MOL0     C40658   7.905   0.123   7.889  1.1595 -0.4704 -0.0017
  309MOL0     O40659   7.782   0.151   7.953  0.3644 -0.6278 -0.4579
  309MOL0     C40660   7.696   0.242   7.895 -0.0323 -0.1787  0.3821
  309MOL0     C40661   7.647   0.351   7.966 -0.4647 -0.3660 -0.7390
  309MOL0     C40662   7.546   0.444   7.910  0.3350  0.3899 -0.5988
  309MOL0     C40663   7.505   0.430   7.779  0.1679  0.7663 -0.1107
  309MOL0     O40664   7.410   0.513   7.721 -0.7747 -0.0015 -0.4882
  309MOL0     C40665   7.326   0.457   7.618  0.5083 -0.0841  0.5016
  309MOL0     C40666   7.187   0.517   7.610 -0.0849  0.0262  0.4170
  309MOL0     C40667   7.087   0.448   7.513  0.4105  0.1889  0.2923
  309MOL0     C40668   6.994   0.547   7.450 -0.4035 -0.4878  0.5227
  309MOL0     C40669   6.861   0.489   7.401  0.0156 -0.1490 -0.2732
  309MOL0     C40670   6.873   0.381   7.291  0.4697 -0.7712  1.0076
  309MOL0     C40671   6.935   0.415   7.156  0.2105 -0.6036 -0.9701
  309MOL0     C40672   6.828   0.489   7.073 -0.7197 -0.4287  0.0068
  309MOL0     N40673   6.855   0.470   6.923  0.2936 -0.2053  0.1742
  309MOL0     C40674   6.777   0.542   6.836 -0.5277  0.1246 -0.0262
  309MOL0     C40675   6.830   0.514   6.711 -0.7508 -0.1677  0.0667
  309MOL0     C40676   6.799   0.559   6.567  0.2863 -0.0790  0.4054
  309MOL0     C40677   6.665   0.506   6.514  1.1451 -0.1648  0.8980
  309MOL0     C40678   6.639   0.573   6.374 -0.4360 -0.1758 -1.5662
  309MOL0     C40679   6.495   0.547   6.324 -0.6000 -0.1837 -1.0446
  309MOL0     O40680   6.458   0.411   6.289  0.2024  0.1248 -0.1405
  309MOL0     C40681   6.325   0.404   6.260  0.3179 -0.0335  0.2864
  309MOL0     C40682   6.237   0.509   6.251  0.2970 -0.3021  0.2853
  309MOL0     C40683   6.101   0.496   6.242  0.5714 -0.3036  0.3036
  309MOL0     C40684   6.046   0.366   6.218 -0.2722  0.4790 -0.0211
  309MOL0     C40685   5.899   0.362   6.200 -0.0352 -0.1249 -0.7757
  309MOL0     O40686   5.833   0.469   6.253 -0.3801 -0.3143  0.0820
  309MOL0     C40687   5.702   0.488   6.250  0.0474  0.2578 -0.5370
  309MOL0     C40688   5.600   0.389   6.261 -0.9637 -0.9166  0.0229
  309MOL0     C40689   5.464   0.418   6.274  0.0153 -0.5325  0.0529
  309MOL0     C40690   5.424   0.551   6.255  0.0206 -1.3130 -0.7070
  309MOL0     O40691   5.289   0.571   6.241 -0.8195 -0.1371 -0.4563
  309MOL0     C40692   5.231   0.700   6.216 -0.8874  0.6771 -0.1598
  309MOL0     C40693   5.083   0.689   6.201  0.2013  0.0690  0.1606
  309MOL0     C40694   5.047   0.679   6.046  0.8270 -1.2298 -0.7957
  309MOL0     C40695   4.897   0.686   6.024 -0.3029 -0.2351 -0.7458
  309MOL0     C40696   4.864   0.710   5.877 -0.1393 -0.1620  0.5700
  309MOL0     C40697   4.714   0.688   5.846 -0.0270  0.4473 -0.7085
  309MOL0     C40698   4.682   0.747   5.711  0.7812  0.4540 -0.5141
  309MOL0     C40699   4.549   0.701   5.658  0.5009  0.5370 -0.8940
  309MOL0    Cl40700   4.549   0.719   5.489  0.2199 -0.1548  0.0251
  309MOL0     C40701   5.521   0.655   6.245 -0.0038  0.1083 -0.2210
  309MOL0     C40702   5.659   0.620   6.245  0.3318 -0.5698 -0.1303
  309MOL0     O40703   5.856   0.279   6.125 -0.0107  0.7601  0.0848
  309MOL0     C40704   6.129   0.261   6.223  0.2883  0.1925  0.8448
  309MOL0     C40705   6.274   0.279   6.237  1.1266 -0.2388 -0.1343
  309MOL0     N40706   6.943   0.434   6.730 -0.2254  0.1482 -0.0263
  309MOL0     N40707   6.961   0.422   6.862  1.0564  0.5561 -0.4440
  309MOL0     C40708   7.548   0.318   7.703  0.0408 -0.8036 -0.2293
  309MOL0     C40709   7.652   0.239   7.762 -0.1120  0.8734  0.4949
  309MOL0     C40710   7.978   0.005   7.934  0.2685  0.7065 -1.0075
  309MOL0     C40711   8.079  -0.046   7.858 -0.0340  0.4179 -0.6636
  309MOL0     C40712   8.147  -0.160   7.901  1.0174  0.0552 -0.5028
  309MOL0     C40713   8.122  -0.223   8.029 -0.3836 -0.0174  0.3991
  309MOL0     O40714   8.196  -0.327   8.081 -0.6394  0.0581  0.4757
  309MOL0     C40715   8.278  -0.397   7.992 -0.2698 -0.7700 -1.0469
  309MOL0     C40716   8.208  -0.508   7.902  0.7177 -0.1906 -1.1591
  309MOL0     C40717   8.081  -0.571   7.973  0.6192 -0.7392 -0.3068
  309MOL0     C40718   8.054  -0.723   7.930 -0.1708 -0.3185  0.6210
  309MOL0     C40719   7.937  -0.761   8.003 -0.2438 -0.8322  0.5550
  309MOL0     C40720   7.844  -0.777   8.073  0.6705 -0.8337 -0.0560
  309MOL0     C40721   8.015  -0.166   8.099 -0.6671  1.0993 -0.2529
  309MOL0     C40722   7.941  -0.058   8.061 -0.6730  0.5324 -0.5674
  309MOL0     H40723   7.668   0.361   8.072 -2.9779  2.8171 -0.3901
  309MOL0     H40724   7.517   0.525   7.977  0.5438 -1.1620  1.4964
  309MOL0     H40725   7.310   0.352   7.646  0.5012  0.2822  1.9462
  309MOL0     H40726   7.372   0.461   7.518  0.2064 -0.5954  0.3384
  309MOL0     H40727   7.196   0.623   7.586 -0.9145  0.3443  1.4379
  309MOL0     H40728   7.145   0.515   7.711  1.9437  2.4057  1.4031
  309MOL0     H40729   7.037   0.365   7.562  0.4362 -0.6019 -0.9772
  309MOL0     H40730   7.145   0.417   7.426  1.5926  0.2538  1.0397
  309MOL0     H40731   6.969   0.620   7.527 -2.9706  0.9713 -1.5446
  309MOL0     H40732   7.041   0.607   7.371 -0.1158  0.4506  1.3888
  309MOL0     H40733   6.811   0.578   7.362 -1.9454 -0.5172  1.2360
  309MOL0     H40734   6.815   0.439   7.486  0.9521 -0.2025  0.2164
  309MOL0     H40735   6.777   0.336   7.264  1.3697 -1.6469 -0.9697
  309MOL0     H40736   6.930   0.296   7.330  0.1093 -2.2317 -1.4094
  309MOL0     H40737   7.021   0.482   7.163 -1.0556  0.9110  0.9508
  309MOL0     H40738   6.952   0.324   7.098 -1.8009 -1.4219 -0.3452
  309MOL0     H40739   6.824   0.598   7.087 -0.3169  0.1582 -3.5134
  309MOL0     H40740   6.727   0.456   7.098 -0.3972 -0.5280  1.2171
  309MOL0     H40741   6.700   0.611   6.869  2.4099  3.0297  1.2282
  309MOL0     H40742   6.876   0.523   6.498 -0.0768  2.1154 -1.2585
  309MOL0     H40743   6.803   0.668   6.557  0.7420 -0.2116 -0.9987
  309MOL0     H40744   6.580   0.541   6.574  0.0284 -1.6486  0.2546
  309MOL0     H40745   6.658   0.397   6.513 -3.8996 -0.0866  0.5187
  309MOL0     H40746   6.651   0.680   6.394 -0.7502 -0.2782 -0.7807
  309MOL0     H40747   6.720   0.538   6.309  0.6846  1.4888 -1.1293
  309MOL0     H40748   6.482   0.599   6.229 -2.0863  2.6407  0.5481
  309MOL0     H40749   6.422   0.585   6.396  1.9272  2.8313  0.1416
  309MOL0     H40750   6.265   0.614   6.258 -0.8133 -0.0402  1.1673
  309MOL0     H40751   6.032   0.580   6.243  0.2709 -0.4869 -1.2587
  309MOL0     H40752   5.628   0.284   6.267 -2.2086 -1.4156 -1.8066
  309MOL0     H40753   5.389   0.345   6.301  0.4413 -1.1576 -0.4194
  309MOL0     H40754   5.281   0.761   6.140 -2.4530  2.0767 -0.1378
  309MOL0     H40755   5.239   0.772   6.298  0.1155  0.8726 -0.4215
  309MOL0     H40756   5.038   0.779   6.244 -1.4077 -1.4583  1.8674
  309MOL0     H40757   5.048   0.602   6.258 -0.9086 -0.1047 -0.7331
  309MOL0     H40758   5.066   0.574   6.018 -0.8895 -2.0385  0.8392
  309MOL0     H40759   5.094   0.752   5.981 -0.1549 -0.9886 -1.2612
  309MOL0     H40760   4.846   0.595   6.059 -1.2154  0.5928  0.1516
  309MOL0     H40761   4.850   0.758   6.091  0.4164  1.8844 -2.4166
  309MOL0     H40762   4.925   0.640   5.819  1.0399  1.0850  0.2583
  309MOL0     H40763   4.896   0.810   5.845  1.0714 -0.9695 -0.8769
  309MOL0     H40764   4.646   0.743   5.911  1.5837  1.0848  0.5161
  309MOL0     H40765   4.689   0.582   5.853 -1.4769  0.8356  0.4205
  309MOL0     H40766   4.687   0.856   5.725  1.1834  0.2178  1.6271
  309MOL0     H40767   4.763   0.724   5.640 -0.1048  0.6134 -1.5952
  309MOL0     H40768   4.461   0.748   5.702  1.3785  0.4125  1.1125
  309MOL0     H40769   4.541   0.594   5.679  0.4155  1.0841  2.3622
  309MOL0     H40770   5.497   0.760   6.244 -0.8669 -0.0897 -0.7303
  309MOL0     H40771   5.736   0.696   6.239 -1.7509  1.6825 -0.2014
  309MOL0     H40772   6.100   0.158   6.207  4.4877 -1.2539  1.0875
  309MOL0     H40773   6.341   0.193   6.237  0.5264 -0.7318 -1.6921
  309MOL0     H40774   7.522   0.301   7.599  2.3640 -0.5921 -0.9084
  309MOL0     H40775   7.681   0.159   7.695  1.3738 -0.4048  2.5554
  309MOL0     H40776   8.097  -0.018   7.755  0.7482  0.2126 -0.5924
  309MOL0     H40777   8.224  -0.195   7.833  1.3752  1.1873 -0.7158
  309MOL0     H40778   8.337  -0.463   8.055  0.5312  0.0186 -0.9546
  309MOL0     H40779   8.347  -0.329   7.941  0.0605 -1.5543 -1.6820
  309MOL0     H40780   8.165  -0.466   7.811 -0.9592  0.1320 -0.2569
  309MOL0     H40781   8.284  -0.584   7.881 -1.4593 -2.7015 -0.4518
  309MOL0     H40782   7.995  -0.508   7.949 -0.3106 -0.3984  3.2633
  309MOL0     H40783   8.099  -0.574   8.081  0.2240 -0.5245 -0.2328
  309MOL0     H40784   8.051  -0.739   7.822  1.6684 -2.5133  0.8222
  309MOL0     H40785   8.124  -0.797   7.970 -2.2271 -1.6098  1.9874
  309MOL0     H40786   7.756  -0.792   8.133  0.3896 -0.2406 -0.3108
  309MOL0     H40787   7.997  -0.181   8.205  1.7843  0.6209  0.1567
  309MOL0     H40788   7.864  -0.008   8.118 -1.8549  0.0413 -1.6997
  310MOL0     O40789   8.993   6.989   6.453  0.1266  0.0318 -0.3004
  310MOL0     C40790   8.976   7.055   6.351 -0.2048 -1.0756 -0.8641
  310MOL0     O40791   8.868   7.052   6.259 -0.7434 -0.4278 -0.9129
  310MOL0     C40792   8.802   6.938   6.244  0.0249 -0.5672  0.0518
  310MOL0     C40793   8.832   6.811   6.277  1.2164  0.1412 -0.3850
  310MOL0     C40794   8.743   6.700   6.248 -0.5279 -0.2402 -0.5706
  310MOL0     C40795   8.614   6.719   6.199 -0.5828 -0.0057 -0.1898
  310MOL0     O40796   8.543   6.609   6.199 -0.8192  0.4844 -0.4368
  310MOL0     C40797   8.408   6.607   6.145 -0.2328  0.9254 -0.3583
  310MOL0     C40798   8.337   6.471   6.171  0.3753 -0.6429 -0.1449
  310MOL0     C40799   8.397   6.357   6.092 -0.9313  0.1110 -0.1466
  310MOL0     C40800   8.376   6.217   6.154  0.0261 -0.0619  0.7705
  310MOL0     C40801   8.451   6.110   6.076 -0.3121  0.5973 -0.4845
  310MOL0     C40802   8.414   6.105   5.922 -1.1708 -0.2582  0.0162
  310MOL0     C40803   8.271   6.076   5.888 -0.3224 -0.9626 -0.0356
  310MOL0     C40804   8.247   6.091   5.740 -0.4341  0.0166 -0.2482
  310MOL0     N40805   8.344   6.026   5.653 -0.0447  0.0210  0.6222
  310MOL0     C40806   8.388   5.892   5.663 -0.2072  0.3836 -0.9421
  310MOL0     C40807   8.516   5.883   5.620 -0.1349  0.8816  0.6272
  310MOL0     C40808   8.600   5.766   5.598 -0.8592  0.2585  0.1922
  310MOL0     C40809   8.622   5.725   5.449  0.1615  0.1309 -0.1356
  310MOL0     C40810   8.508   5.662   5.380  0.2442  0.1376  0.0603
  310MOL0     C40811   8.559   5.577   5.266 -0.1614 -0.2981  0.1855
  310MOL0     O40812   8.456   5.500   5.202  0.2723 -0.3210 -0.2558
  310MOL0     C40813   8.494   5.405   5.109  0.1808 -0.2166  0.7631
  310MOL0     C40814   8.406   5.308   5.074  0.3306 -0.4391  0.6107
  310MOL0     C40815   8.417   5.226   4.963 -0.2536 -0.4268 -0.2923
  310MOL0     C40816   8.522   5.238   4.878 -0.0069  0.0052 -0.2081
  310MOL0     C40817   8.533   5.148   4.759 -0.8697  0.3676  1.0113
  310MOL0     O40818   8.428   5.069   4.703  0.1625  0.1156  0.1363
  310MOL0     C40819   8.450   4.966   4.613 -1.0164 -0.6173 -0.0020
  310MOL0     C40820   8.535   4.852   4.636 -0.1825 -0.5174  0.1137
  310MOL0     C40821   8.550   4.752   4.542 -0.1203 -0.5648  0.1025
  310MOL0     C40822   8.479   4.753   4.425 -0.2799  0.4255  1.4077
  310MOL0     O40823   8.489   4.652   4.333  0.0520 -0.2449  0.1457
  310MOL0     C40824   8.366   4.608   4.266 -0.4177  0.9060 -0.2468
  310MOL0     C40825   8.380   4.449   4.255 -0.4162 -0.1471 -0.2532
  310MOL0     C40826   8.243   4.386   4.247  0.0970 -0.3069 -1.3453
  310MOL0     C40827   8.157   4.448   4.135  0.2556  0.0200  1.1274
  310MOL0     C40828   8.032   4.352   4.116 -0.5639 -0.2779 -0.2851
  310MOL0     C40829   7.943   4.406   3.995  0.1373  0.1921 -0.3307
  310MOL0     C40830   7.871   4.286   3.932 -0.0825 -0.4404 -0.0983
  310MOL0     C40831   7.943   4.223   3.823 -0.5554  0.3448 -0.7332
  310MOL0    Cl40832   8.094   4.143   3.870  0.1348 -0.3586 -0.2537
  310MOL0     C40833   8.396   4.869   4.394  0.4099  0.6826 -0.1031
  310MOL0     C40834   8.387   4.968   4.492  0.6979  0.6162  0.9135
  310MOL0     O40835   8.647   5.135   4.713 -0.1104 -0.4713 -0.7944
  310MOL0     C40836   8.624   5.327   4.911  0.6595 -0.3406 -0.0996
  310MOL0     C40837   8.604   5.420   5.016 -0.0529  0.9989  0.1657
  310MOL0     N40838   8.550   6.012   5.573  0.0705  0.2678 -0.1383
  310MOL0     N40839   8.453   6.095   5.598  0.3562 -0.2701  0.5023
  310MOL0     C40840   8.581   6.854   6.171 -0.1472 -0.1910 -0.5588
  310MOL0     C40841   8.680   6.955   6.176 -0.1432  0.4590 -0.3378
  310MOL0     C40842   9.075   7.157   6.331 -0.2103 -1.0168  0.0403
  310MOL0     C40843   9.044   7.263   6.241  0.0889 -0.1448  1.0893
  310MOL0     C40844   9.127   7.369   6.234  0.1178 -0.9140  0.5197
  310MOL0     C40845   9.247   7.367   6.315 -0.9250  0.7796 -0.2259
  310MOL0     O40846   9.328   7.476   6.297 -0.1692  0.2502  0.1080
  310MOL0     C40847   9.457   7.491   6.344 -0.0055 -0.6080 -0.4503
  310MOL0     C40848   9.551   7.389   6.280  0.4570 -0.9459 -0.6233
  310MOL0     C40849   9.703   7.431   6.293 -0.1106 -0.0246 -0.5304
  310MOL0     C40850   9.791   7.311   6.259 -0.9940  0.0005  1.0218
  310MOL0     C40851   9.934   7.351   6.279 -0.1939  0.0735 -0.2819
  310MOL0     C40852  10.048   7.385   6.305 -0.0543  0.4392 -0.1526
  310MOL0     C40853   9.277   7.262   6.402  1.1020  0.1878 -0.9411
  310MOL0     C40854   9.189   7.161   6.411  0.1826 -0.3107  0.6653
  310MOL0     H40855   8.928   6.806   6.328  3.0065  2.2504 -3.2658
  310MOL0     H40856   8.776   6.600   6.273 -0.3739 -0.4448 -1.5495
  310MOL0     H40857   8.413   6.624   6.037 -1.1232 -1.2771 -0.7872
  310MOL0     H40858   8.346   6.680   6.198 -0.5039 -0.5485  1.4731
  310MOL0     H40859   8.230   6.473   6.146  0.5888 -0.7289 -1.1229
  310MOL0     H40860   8.332   6.449   6.278  0.4044  2.3060  0.5635
  310MOL0     H40861   8.503   6.381   6.100 -0.0508 -2.4528 -2.4887
  310MOL0     H40862   8.365   6.370   5.987  0.1840  1.2349 -0.3728
  310MOL0     H40863   8.417   6.225   6.255  3.4057 -0.2485 -0.4367
  310MOL0     H40864   8.274   6.182   6.172 -0.3159 -0.3677 -1.5400
  310MOL0     H40865   8.441   6.010   6.119 -0.3195 -0.6982 -3.2978
  310MOL0     H40866   8.554   6.142   6.093 -0.7406  1.7628  0.0616
  310MOL0     H40867   8.468   6.018   5.885 -0.5391 -1.5991  3.7002
  310MOL0     H40868   8.449   6.198   5.875  0.0333 -1.4379 -1.5149
  310MOL0     H40869   8.239   5.976   5.919 -0.2999 -1.2108 -0.7792
  310MOL0     H40870   8.197   6.143   5.931  1.5783  0.3782  1.3329
  310MOL0     H40871   8.235   6.197   5.714  0.6939  0.3296  0.4331
  310MOL0     H40872   8.151   6.043   5.717 -1.5753  1.9548  0.2379
  310MOL0     H40873   8.331   5.807   5.700 -0.6721 -0.2241 -2.9591
  310MOL0     H40874   8.568   5.691   5.671  2.6946  0.7480  2.5396
  310MOL0     H40875   8.699   5.784   5.641 -0.9079 -0.3328  0.5680
  310MOL0     H40876   8.704   5.653   5.450  2.4333  2.5117 -1.5471
  310MOL0     H40877   8.666   5.803   5.385 -0.1468  0.7799  0.4311
  310MOL0     H40878   8.467   5.591   5.452  1.7038 -1.5508 -0.6656
  310MOL0     H40879   8.441   5.742   5.347  0.9469  1.9965  2.8147
  310MOL0     H40880   8.622   5.499   5.310  0.6547  0.0796 -0.2926
  310MOL0     H40881   8.614   5.633   5.190 -2.2701 -0.0671 -1.2312
  310MOL0     H40882   8.318   5.311   5.137 -1.1053  0.1780 -1.3077
  310MOL0     H40883   8.335   5.165   4.930  0.2602  0.0421 -2.5809
  310MOL0     H40884   8.594   4.841   4.726 -1.0060 -1.4981  0.5483
  310MOL0     H40885   8.610   4.661   4.551  0.4716 -0.1809  0.0971
  310MOL0     H40886   8.343   4.658   4.172  0.1728  2.0968  0.2205
  310MOL0     H40887   8.282   4.630   4.332 -0.5609  0.9868 -0.4573
  310MOL0     H40888   8.438   4.413   4.341  0.5220  1.0785 -0.3404
  310MOL0     H40889   8.436   4.425   4.164 -0.7458 -0.3966 -0.3905
  310MOL0     H40890   8.195   4.397   4.345 -0.1104 -0.4572 -1.4299
  310MOL0     H40891   8.260   4.280   4.231  1.8812 -0.3576  0.4127
  310MOL0     H40892   8.117   4.547   4.158 -0.0258 -0.1435  1.3462
  310MOL0     H40893   8.211   4.447   4.039 -0.0776  3.2212  0.7879
  310MOL0     H40894   7.963   4.346   4.201 -1.2957 -0.2873 -0.8653
  310MOL0     H40895   8.070   4.249   4.114  0.1876  0.0064 -0.7646
  310MOL0     H40896   7.999   4.473   3.929  2.9290  0.6311  2.2398
  310MOL0     H40897   7.867   4.473   4.036  0.1578 -0.4001  0.7115
  310MOL0     H40898   7.842   4.205   4.000 -2.5073  0.0316 -0.4845
  310MOL0     H40899   7.782   4.336   3.894 -0.7021  1.1058  3.0567
  310MOL0     H40900   7.971   4.305   3.756 -0.9758  1.0501 -0.0652
  310MOL0     H40901   7.877   4.153   3.770 -0.0683 -1.1404  0.5499
  310MOL0     H40902   8.344   4.882   4.299 -0.3095  0.4725  0.2588
  310MOL0     H40903   8.326   5.052   4.463  2.4616  1.2417 -1.3512
  310MOL0     H40904   8.708   5.334   4.842  0.3422 -1.9904 -0.7076
  310MOL0     H40905   8.674   5.498   5.042  2.4295 -0.4578 -1.6451
  310MOL0     H40906   8.485   6.884   6.128 -1.2978 -1.2017  1.1615
  310MOL0     H40907   8.643   7.052   6.144  1.7303  1.9382  1.5975
  310MOL0     H40908   8.955   7.269   6.180  2.8364 -2.4946 -3.6947
  310MOL0     H40909   9.120   7.453   6.166  0.7668 -2.1929 -1.1919
  310MOL0     H40910   9.451   7.477   6.452  0.9493 -0.4119 -0.3621
  310MOL0     H40911   9.481   7.597   6.329 -3.0045  0.5018  1.4824
  310MOL0     H40912   9.529   7.288   6.318  0.4032 -1.0348 -0.8882
  310MOL0     H40913   9.526   7.404   6.175  0.0572  2.5978 -0.1450
  310MOL0     H40914   9.734   7.463   6.392  2.0911 -0.8928 -0.8903
  310MOL0     H40915   9.720   7.514   6.224 -0.5843  0.6340  0.1401
  310MOL0     H40916   9.765   7.220   6.314 -1.9953  0.2460  0.9865
  310MOL0     H40917   9.776   7.291   6.153 -1.9535 -1.4899  1.4059
  310MOL0     H40918  10.149   7.418   6.313  0.7442 -1.7463 -0.4320
  310MOL0     H40919   9.362   7.256   6.469 -0.7015  1.3663  1.6484
  310MOL0     H40920   9.227   7.084   6.478  0.5821 -2.5606 -1.9950
  311MOL0     O40921   5.652   5.031   9.928 -0.2319 -0.4713 -0.4726
  311MOL0     C40922   5.658   4.946  10.012 -0.6781  0.0812 -0.1528
  311MOL0     O40923   5.541   4.870  10.048  0.1335  0.3958  0.1517
  311MOL0     C40924   5.425   4.903   9.981  0.5224 -0.0385  0.3658
  311MOL0     C40925   5.372   4.826   9.871 -0.0527  0.5610  0.8452
  311MOL0     C40926   5.245   4.860   9.807 -0.7725  0.3594 -0.8839
  311MOL0     C40927   5.186   4.978   9.855  0.2396  0.7429  0.8834
  311MOL0     O40928   5.053   4.989   9.818 -0.6725 -0.1231  0.5835
  311MOL0     C40929   4.976   5.093   9.867  0.4762  0.4073 -0.1561
  311MOL0     C40930   4.916   5.076  10.012 -0.4899 -0.6565  0.3794
  311MOL0     C40931   4.799   5.163  10.051 -0.8595  0.4827 -0.1292
  311MOL0     C40932   4.756   5.135  10.193  0.4104 -0.3117 -0.3478
  311MOL0     C40933   4.672   5.242  10.257  0.0199 -0.8529 -0.9582
  311MOL0     C40934   4.534   5.274  10.201  0.4644 -0.8539  0.0063
  311MOL0     C40935   4.446   5.336  10.305 -0.9151 -0.2210 -0.9978
  311MOL0     C40936   4.306   5.358  10.241  0.3651  0.1280 -0.2355
  311MOL0     N40937   4.205   5.426  10.319  0.4147  0.1697 -1.9514
  311MOL0     C40938   4.071   5.420  10.294 -0.4439  0.2011  0.2300
  311MOL0     C40939   4.011   5.503  10.366  0.1694  0.2003 -0.0287
  311MOL0     C40940   3.862   5.526  10.378  0.1295 -0.5606  0.1827
  311MOL0     C40941   3.810   5.451  10.497  0.9150 -0.3050  0.6906
  311MOL0     C40942   3.814   5.537  10.633  0.4898  1.1479 -0.5631
  311MOL0     C40943   3.774   5.425  10.730  0.3016 -0.3345 -0.4276
  311MOL0     O40944   3.783   5.456  10.870 -0.9146 -0.2302 -0.2985
  311MOL0     C40945   3.916   5.471  10.923  0.4339  0.2240  1.5429
  311MOL0     C40946   3.931   5.565  11.028 -0.3988  1.1395 -0.5194
  311MOL0     C40947   4.059   5.591  11.084 -0.4418 -0.1692  0.0716
  311MOL0     C40948   4.175   5.544  11.024 -0.7362 -0.3824  0.2648
  311MOL0     C40949   4.311   5.573  11.088  0.2403 -0.5495  0.9923
  311MOL0     O40950   4.308   5.682  11.173 -0.8624  0.0089  0.3446
  311MOL0     C40951   4.423   5.739  11.209 -0.0751 -0.3620  0.4348
  311MOL0     C40952   4.463   5.861  11.143 -0.1577 -0.2347  0.3432
  311MOL0     C40953   4.582   5.937  11.183 -0.4800 -0.0976 -0.1848
  311MOL0     C40954   4.662   5.881  11.275  0.1941  0.8513 -0.3715
  311MOL0     O40955   4.773   5.949  11.314 -0.4600  0.4820  0.2242
  311MOL0     C40956   4.894   5.869  11.300  0.1229 -0.1288  0.2828
  311MOL0     C40957   5.011   5.959  11.242  0.0878 -0.6946  0.6139
  311MOL0     C40958   5.118   5.983  11.353 -0.0038  0.2818  1.5435
  311MOL0     C40959   5.205   5.862  11.381 -0.0420  0.2958 -0.7049
  311MOL0     C40960   5.312   5.876  11.490 -0.6419 -0.0898  0.1266
  311MOL0     C40961   5.437   5.939  11.441 -0.7209  0.4272 -0.0439
  311MOL0     C40962   5.534   5.947  11.562 -0.3951  0.8121  0.3217
  311MOL0     C40963   5.664   6.007  11.512 -0.6077  0.2109  0.1503
  311MOL0    Cl40964   5.754   5.902  11.400  0.2398  0.2418 -0.2906
  311MOL0     C40965   4.632   5.754  11.334  0.0576 -0.8333  0.7072
  311MOL0     C40966   4.506   5.701  11.315 -0.6736  0.4412  0.7805
  311MOL0     O40967   4.413   5.513  11.048 -0.4143  0.4871 -0.0686
  311MOL0     C40968   4.157   5.458  10.906 -0.6947  0.4019  0.0713
  311MOL0     C40969   4.029   5.425  10.854 -0.4801  0.2365  0.0761
  311MOL0     N40970   4.105   5.581  10.432 -0.1156  0.7624  0.1505
  311MOL0     N40971   4.220   5.525  10.414  0.0813  0.4080  0.5902
  311MOL0     C40972   5.243   5.060   9.953 -0.2937  0.8728 -0.3307
  311MOL0     C40973   5.365   5.019  10.010  0.0289  0.2794 -0.0496
  311MOL0     C40974   5.794   4.925  10.071  0.0178  0.6795 -0.5380
  311MOL0     C40975   5.811   4.827  10.156  0.2263  0.6060 -0.3455
  311MOL0     C40976   5.940   4.797  10.208  0.6271  0.4639 -0.5397
  311MOL0     C40977   6.052   4.876  10.185 -0.0246  0.3791 -0.0587
  311MOL0     O40978   6.170   4.843  10.250 -0.7888  0.5230 -0.6603
  311MOL0     C40979   6.284   4.936  10.247  0.5105  0.1417 -0.5271
  311MOL0     C40980   6.407   4.861  10.305 -0.4732 -0.2112  0.0834
  311MOL0     C40981   6.497   4.814  10.185  0.1853 -0.1954 -0.0779
  311MOL0     C40982   6.626   4.758  10.239  0.6640 -0.2198  0.1353
  311MOL0     C40983   6.717   4.711  10.138  0.8630 -0.6114 -0.4158
  311MOL0     C40984   6.773   4.663  10.050 -0.6754  0.9392 -0.7023
  311MOL0     C40985   6.026   4.981  10.108 -0.3870  0.5090  0.7219
  311MOL0     C40986   5.904   5.010  10.041  1.0129 -0.5021  0.2963
  311MOL0     H40987   5.420   4.733   9.842 -0.6302  0.8025 -1.0746
  311MOL0     H40988   5.190   4.802   9.734  1.8326 -0.4918 -2.3268
  311MOL0     H40989   4.888   5.097   9.802  0.9676  2.8752 -0.7938
  311MOL0     H40990   5.022   5.189   9.841 -2.0738  1.9130  0.5233
  311MOL0     H40991   5.000   5.100  10.078 -1.2031  0.9813  0.7221
  311MOL0     H40992   4.898   4.969  10.022 -0.6977 -0.8002 -1.2414
  311MOL0     H40993   4.723   5.137   9.976  0.0972  1.4465 -1.4694
  311MOL0     H40994   4.830   5.267  10.039 -0.4006  0.0438 -4.2073
  311MOL0     H40995   4.702   5.040  10.202  1.9798 -1.5527 -2.8862
  311MOL0     H40996   4.843   5.138  10.258 -1.9485  0.6859  3.0622
  311MOL0     H40997   4.713   5.342  10.271 -1.3135 -0.3136 -0.7771
  311MOL0     H40998   4.657   5.212  10.361  1.1027 -1.7090 -1.0306
  311MOL0     H40999   4.490   5.181  10.162 -1.4050  0.0871 -0.2322
  311MOL0     H41000   4.546   5.339  10.114  4.0407 -1.7404 -0.3191
  311MOL0     H41001   4.445   5.276  10.397  0.0278  1.0129 -0.1405
  311MOL0     H41002   4.488   5.436  10.320 -2.8561  0.7708 -1.8402
  311MOL0     H41003   4.269   5.256  10.221  0.5169  0.0831 -0.2929
  311MOL0     H41004   4.311   5.403  10.141  0.7241 -2.1753 -1.3240
  311MOL0     H41005   4.036   5.349  10.219  0.6937  0.5864 -0.6917
  311MOL0     H41006   3.823   5.489  10.283  3.5794  1.1707 -2.1361
  311MOL0     H41007   3.830   5.630  10.392 -0.1826 -0.6172 -0.1119
  311MOL0     H41008   3.848   5.349  10.488 -1.9569 -1.5187  1.1457
  311MOL0     H41009   3.704   5.441  10.473  1.2347 -3.1093  0.2149
  311MOL0     H41010   3.918   5.561  10.655  0.4530  0.4251  0.4964
  311MOL0     H41011   3.761   5.632  10.638 -1.5924  0.0218  0.2801
  311MOL0     H41012   3.840   5.342  10.706  0.8321  0.8435 -3.4193
  311MOL0     H41013   3.671   5.395  10.709  0.3286  0.9287 -2.5515
  311MOL0     H41014   3.837   5.598  11.070 -0.9006 -1.4876  0.6099
  311MOL0     H41015   4.073   5.664  11.163 -0.2515 -2.2141  1.9986
  311MOL0     H41016   4.406   5.903  11.062 -0.0543  0.0702  0.4266
  311MOL0     H41017   4.608   6.024  11.125 -1.4868  0.0727 -0.3930
  311MOL0     H41018   4.899   5.786  11.229  3.7441 -1.7139  2.1171
  311MOL0     H41019   4.919   5.831  11.400 -2.8585 -0.2959  1.0460
  311MOL0     H41020   4.964   6.050  11.205  0.7317  0.2996  2.1027
  311MOL0     H41021   5.062   5.913  11.157  4.6177 -2.1847  3.7363
  311MOL0     H41022   5.066   6.033  11.435 -0.4926  1.5470  0.4868
  311MOL0     H41023   5.192   6.059  11.326  2.4901 -1.5331  2.8679
  311MOL0     H41024   5.148   5.774  11.412  3.5571 -1.8005  0.4670
  311MOL0     H41025   5.259   5.834  11.290  0.9677 -2.6525  0.6999
  311MOL0     H41026   5.336   5.771  11.510  0.6210  0.1251 -0.1831
  311MOL0     H41027   5.277   5.937  11.573  2.0004  0.7458  0.7323
  311MOL0     H41028   5.418   6.042  11.409 -2.5155  0.9801  2.4818
  311MOL0     H41029   5.484   5.876  11.364  0.4899 -1.0745  1.8358
  311MOL0     H41030   5.484   6.021  11.625 -0.1411  2.0988 -0.9104
  311MOL0     H41031   5.554   5.857  11.621 -1.6230  0.8819  0.8651
  311MOL0     H41032   5.732   6.022  11.597 -2.0331 -0.5860  1.4833
  311MOL0     H41033   5.650   6.108  11.471 -1.9163 -0.5722 -1.4194
  311MOL0     H41034   4.697   5.715  11.412 -2.2694 -0.6862  2.8732
  311MOL0     H41035   4.476   5.617  11.377 -0.6123  0.0197  0.2541
  311MOL0     H41036   4.227   5.387  10.863 -0.0949 -0.3819  2.1837
  311MOL0     H41037   4.030   5.351  10.775  0.6836 -0.8765  1.0827
  311MOL0     H41038   5.199   5.153   9.988 -1.3118  1.4051 -2.8202
  311MOL0     H41039   5.402   5.076  10.094 -1.2583  1.3694 -0.1800
  311MOL0     H41040   5.722   4.768  10.181  1.2252 -1.4874 -1.4576
  311MOL0     H41041   5.941   4.717  10.282 -0.7858 -0.1666 -1.1721
  311MOL0     H41042   6.266   5.029  10.301 -2.1417 -0.0432 -0.9413
  311MOL0     H41043   6.301   4.967  10.143 -1.2572  1.9013 -0.3420
  311MOL0     H41044   6.467   4.925  10.370  1.8375 -2.2769  0.1171
  311MOL0     H41045   6.377   4.778  10.369  0.5100  0.0287  0.8809
  311MOL0     H41046   6.514   4.895  10.113  1.4505 -1.8209 -1.7111
  311MOL0     H41047   6.433   4.742  10.132 -0.6458 -0.8031  1.6863
  311MOL0     H41048   6.670   4.823  10.315 -0.8674 -0.1730  1.0497
  311MOL0     H41049   6.615   4.667  10.299 -0.1393 -0.4865 -0.3943
  311MOL0     H41050   6.835   4.624   9.972 -1.0230 -0.0231 -0.5239
  311MOL0     H41051   6.103   5.058  10.103 -0.6198  0.7304  0.5794
  311MOL0     H41052   5.888   5.097   9.979 -1.1241 -2.2287 -1.7902
  312MOL0     O41053   7.549   1.223   2.014 -0.0440  0.1314 -0.9757
  312MOL0     C41054   7.630   1.144   1.972 -0.7922  0.2234  0.4144
  312MOL0     O41055   7.601   1.025   1.922 -0.3861  1.0567  0.7827
  312MOL0     C41056   7.473   0.989   1.915 -0.1180  0.1506 -0.7192
  312MOL0     C41057   7.393   0.988   1.805 -0.7565  0.5321 -0.0998
  312MOL0     C41058   7.268   0.936   1.822  0.1894 -0.3799  0.4497
  312MOL0     C41059   7.215   0.927   1.955  0.4252  1.0023  1.0113
  312MOL0     O41060   7.081   0.904   1.972  0.0767  0.5405  0.6336
  312MOL0     C41061   7.014   0.916   2.100 -0.7180  0.0612 -0.4354
  312MOL0     C41062   6.861   0.911   2.078 -0.6124 -0.0652  0.5491
  312MOL0     C41063   6.812   1.013   1.976  0.0842 -0.0227  0.5899
  312MOL0     C41064   6.838   0.969   1.826 -0.8017 -0.1400 -0.3916
  312MOL0     C41065   6.853   0.815   1.804 -0.0134  0.1008  0.8438
  312MOL0     C41066   6.892   0.789   1.654 -0.1843  0.8981  0.2074
  312MOL0     C41067   6.947   0.642   1.645 -0.6778 -0.2415  0.8183
  312MOL0     C41068   6.862   0.538   1.706 -0.5013 -0.2242 -0.4560
  312MOL0     N41069   6.738   0.525   1.626  0.7506 -0.0612  0.6754
  312MOL0     C41070   6.628   0.598   1.620 -0.1873 -0.4407 -0.2474
  312MOL0     C41071   6.539   0.530   1.548 -0.4327 -0.3831 -0.3192
  312MOL0     C41072   6.410   0.587   1.516  0.4553  0.0583  0.2708
  312MOL0     C41073   6.295   0.531   1.596 -0.9968  0.1638 -0.0970
  312MOL0     C41074   6.156   0.561   1.523  0.5034  0.3516 -0.2742
  312MOL0     C41075   6.031   0.558   1.620  0.1371 -0.3409 -0.4952
  312MOL0     O41076   5.941   0.632   1.536 -0.1184  0.0578  0.6021
  312MOL0     C41077   5.809   0.637   1.573 -0.1376  0.2243 -0.5743
  312MOL0     C41078   5.710   0.665   1.475 -0.3354 -0.2545  0.7507
  312MOL0     C41079   5.575   0.675   1.502  0.7913 -0.3245 -0.1948
  312MOL0     C41080   5.531   0.672   1.639  0.4718  0.0097 -0.5125
  312MOL0     C41081   5.393   0.671   1.679  0.5637 -0.3160  0.2266
  312MOL0     O41082   5.357   0.609   1.795 -0.0879 -0.1718 -0.1809
  312MOL0     C41083   5.223   0.619   1.840 -0.3207 -0.7634 -0.2791
  312MOL0     C41084   5.134   0.510   1.836  1.2117  0.9611 -0.1359
  312MOL0     C41085   5.012   0.507   1.892  0.6546 -0.4124  0.8647
  312MOL0     C41086   4.959   0.622   1.957 -0.8939 -1.0493 -0.2336
  312MOL0     O41087   4.841   0.622   2.029  0.3559 -0.1351 -0.1238
  312MOL0     C41088   4.780   0.741   2.080 -0.4911 -0.3708  0.6926
  312MOL0     C41089   4.660   0.702   2.166 -0.0783  0.2920  0.3553
  312MOL0     C41090   4.572   0.828   2.187 -0.0531 -0.0212 -0.2357
  312MOL0     C41091   4.446   0.778   2.245 -0.3611  0.7695  0.3289
  312MOL0     C41092   4.349   0.892   2.267  0.7027  0.1745 -0.2035
  312MOL0     C41093   4.199   0.848   2.295  0.2576 -0.4363 -0.0720
  312MOL0     C41094   4.123   0.981   2.323 -0.6659  0.0595  1.0130
  312MOL0     C41095   3.975   0.957   2.350 -0.5719  1.0287 -0.7824
  312MOL0    Cl41096   3.957   0.854   2.498 -0.0420 -0.0325  0.2532
  312MOL0     C41097   5.036   0.740   1.951 -0.3237 -0.1601  0.1776
  312MOL0     C41098   5.173   0.736   1.908 -1.5047  0.5501 -0.4287
  312MOL0     O41099   5.315   0.720   1.596 -0.0718  0.1227 -1.0817
  312MOL0     C41100   5.628   0.642   1.733  0.4183 -0.1494  0.2299
  312MOL0     C41101   5.761   0.620   1.702  0.0861  0.0650  1.1458
  312MOL0     N41102   6.589   0.413   1.507  0.0198  0.1891  0.3904
  312MOL0     N41103   6.705   0.407   1.562 -0.1092  0.3833 -0.0333
  312MOL0     C41104   7.295   0.946   2.061 -0.1736 -0.8785  0.0522
  312MOL0     C41105   7.426   0.966   2.047 -0.0990  0.2282 -0.0725
  312MOL0     C41106   7.771   1.180   1.966 -0.1131 -0.5401  0.5757
  312MOL0     C41107   7.817   1.285   2.046  0.6872 -0.0924  0.4192
  312MOL0     C41108   7.949   1.323   2.032 -0.6492 -0.8908 -0.4955
  312MOL0     C41109   8.039   1.269   1.935  0.5234 -0.7614  0.0347
  312MOL0     O41110   8.157   1.351   1.917  0.0813  0.4953 -0.2181
  312MOL0     C41111   8.260   1.277   1.855  0.4841  0.0377  0.7525
  312MOL0     C41112   8.385   1.359   1.881 -0.1463 -0.0233 -0.7475
  312MOL0     C41113   8.512   1.295   1.822 -0.1835 -0.2180  0.2673
  312MOL0     C41114   8.548   1.159   1.901 -0.6334 -0.9592 -0.1206
  312MOL0     C41115   8.589   1.205   2.035  0.1512  0.0322  0.8175
  312MOL0     C41116   8.637   1.247   2.137  0.8797  0.3911 -0.1487
  312MOL0     C41117   7.985   1.168   1.856  0.1756  0.6001  0.7713
  312MOL0     C41118   7.856   1.117   1.870 -0.4633 -0.7043  0.1474
  312MOL0     H41119   7.435   1.002   1.706 -3.2650 -2.1044 -1.6959
  312MOL0     H41120   7.202   0.911   1.739 -0.0897  0.5861  0.3640
  312MOL0     H41121   7.049   1.017   2.126 -1.1380  0.2104 -0.4514
  312MOL0     H41122   7.040   0.840   2.174 -1.3337 -0.0132 -0.2956
  312MOL0     H41123   6.812   0.935   2.173 -0.6585  1.6928  0.1123
  312MOL0     H41124   6.830   0.810   2.051 -0.3386  0.1748 -0.7607
  312MOL0     H41125   6.856   1.111   1.999 -0.6227  0.9002 -1.7271
  312MOL0     H41126   6.705   1.037   1.986  0.2937  1.1503  0.1585
  312MOL0     H41127   6.747   0.992   1.769 -1.3198 -1.0067  0.0664
  312MOL0     H41128   6.920   1.030   1.788  0.2265 -1.1346  0.1791
  312MOL0     H41129   6.758   0.763   1.815 -0.0585 -0.2358 -0.8151
  312MOL0     H41130   6.927   0.770   1.870 -1.4120 -1.8459  1.1722
  312MOL0     H41131   6.982   0.846   1.628  1.8553 -1.3142  1.9265
  312MOL0     H41132   6.811   0.802   1.582  0.0231  1.0902  0.0075
  312MOL0     H41133   6.988   0.613   1.547  1.4868  3.1904  0.5575
  312MOL0     H41134   7.039   0.635   1.703 -0.5495 -2.7114  0.4298
  312MOL0     H41135   6.826   0.556   1.808  2.1368 -2.3776  1.0063
  312MOL0     H41136   6.919   0.445   1.719 -0.4612 -0.0213  1.0964
  312MOL0     H41137   6.608   0.693   1.668  0.9907 -0.8903  1.1870
  312MOL0     H41138   6.398   0.563   1.410  1.2572 -0.3984  0.2760
  312MOL0     H41139   6.415   0.697   1.516 -0.2893  0.2065 -3.2727
  312MOL0     H41140   6.298   0.572   1.697  0.4116 -1.8650  0.7459
  312MOL0     H41141   6.307   0.424   1.615 -0.1004  0.3634  0.5295
  312MOL0     H41142   6.168   0.663   1.485  2.0670  0.0182 -0.7830
  312MOL0     H41143   6.136   0.500   1.434 -0.1575  0.6720 -0.3442
  312MOL0     H41144   6.058   0.617   1.708 -1.2556 -0.4218  0.0111
  312MOL0     H41145   5.989   0.458   1.637  1.2822 -0.9385 -1.0429
  312MOL0     H41146   5.753   0.673   1.376  2.2929  1.2117  1.9086
  312MOL0     H41147   5.502   0.692   1.425 -0.9928  0.0882  1.5207
  312MOL0     H41148   5.176   0.416   1.801  2.9911  1.0411  1.5837
  312MOL0     H41149   4.953   0.416   1.895 -2.6678  1.3411 -2.1305
  312MOL0     H41150   4.745   0.802   1.996 -4.1038 -1.7248  1.0208
  312MOL0     H41151   4.851   0.800   2.138  0.9983 -0.5284 -0.8827
  312MOL0     H41152   4.697   0.658   2.259  1.2461 -0.2377 -0.4042
  312MOL0     H41153   4.606   0.621   2.116  1.4980 -1.3126  1.1430
  312MOL0     H41154   4.555   0.875   2.089 -0.8374  1.6873  0.6820
  312MOL0     H41155   4.624   0.898   2.252  0.6314  0.1289 -0.9300
  312MOL0     H41156   4.400   0.701   2.182  3.6060 -2.6192  1.1250
  312MOL0     H41157   4.462   0.726   2.340 -3.3356  0.4801  0.7745
  312MOL0     H41158   4.348   0.946   2.172 -0.6689 -0.3842 -0.5291
  312MOL0     H41159   4.378   0.951   2.354  2.9130 -0.4911 -0.4141
  312MOL0     H41160   4.188   0.781   2.381 -2.3798 -1.8082 -1.3629
  312MOL0     H41161   4.165   0.800   2.203 -0.3143  2.1817 -1.3302
  312MOL0     H41162   4.166   1.039   2.405 -1.7071  0.2251  1.4655
  312MOL0     H41163   4.125   1.042   2.232  0.5927 -0.3007  0.7900
  312MOL0     H41164   3.928   0.900   2.269 -2.7891 -0.7593  1.5837
  312MOL0     H41165   3.927   1.055   2.356 -1.0041  0.8328 -0.9277
  312MOL0     H41166   4.989   0.834   1.979 -2.4406 -0.7801 -1.0539
  312MOL0     H41167   5.249   0.813   1.908  1.3353 -2.0806 -0.9774
  312MOL0     H41168   5.599   0.629   1.837 -0.0031 -1.6975 -0.0575
  312MOL0     H41169   5.828   0.615   1.787 -0.7803  1.9084  1.9909
  312MOL0     H41170   7.245   0.929   2.156 -2.1700 -0.0584 -0.7952
  312MOL0     H41171   7.483   0.972   2.139 -0.8963 -1.4516  0.5669
  312MOL0     H41172   7.748   1.338   2.110 -1.8641  1.6089 -3.3898
  312MOL0     H41173   7.987   1.412   2.080 -2.1131 -1.5623  2.0858
  312MOL0     H41174   8.250   1.281   1.746  3.4267  1.8018  0.4454
  312MOL0     H41175   8.272   1.175   1.891  2.3304 -1.3509 -3.2304
  312MOL0     H41176   8.373   1.460   1.840 -1.1042  1.3206  2.5068
  312MOL0     H41177   8.408   1.362   1.987  0.7542 -1.4570 -0.8840
  312MOL0     H41178   8.602   1.356   1.821 -1.3143  1.5291  0.8871
  312MOL0     H41179   8.487   1.278   1.717 -0.5827  2.4374 -0.1197
  312MOL0     H41180   8.463   1.091   1.904  1.1955 -3.4849 -1.5266
  312MOL0     H41181   8.625   1.095   1.856  1.2966  1.1931 -0.0850
  312MOL0     H41182   8.675   1.280   2.232  0.7962  1.3454 -0.4336
  312MOL0     H41183   8.032   1.136   1.764  2.7857  0.1066  2.1490
  312MOL0     H41184   7.808   1.038   1.813  0.4207 -1.1199 -0.0382
  313MOL0     O41185   3.851   4.292  10.482  0.1067 -0.2962 -0.3436
  313MOL0     C41186   3.979   4.277  10.480  0.1927 -0.1914  0.1549
  313MOL0     O41187   4.066   4.338  10.382 -0.1258  0.8439  0.0732
  313MOL0     C41188   4.001   4.431  10.309 -0.8433  0.7964  0.0470
  313MOL0     C41189   3.975   4.420  10.172  0.6925  0.3661  0.3325
  313MOL0     C41190   3.893   4.508  10.107  0.5231 -0.0245  0.0613
  313MOL0     C41191   3.846   4.632  10.172 -0.1246  0.8587 -0.2927
  313MOL0     O41192   3.784   4.734  10.113 -0.1968 -0.4000  0.2201
  313MOL0     C41193   3.732   4.723   9.974  0.2502 -0.3174 -0.5301
  313MOL0     C41194   3.649   4.852   9.945  0.1093  0.5779  0.6944
  313MOL0     C41195   3.543   4.834   9.839  0.0044  0.2032 -0.0716
  313MOL0     C41196   3.589   4.782   9.707  0.4195  0.2311  0.7207
  313MOL0     C41197   3.474   4.726   9.621 -0.2309  0.0812  0.3420
  313MOL0     C41198   3.384   4.839   9.577  0.4168  0.0345  0.3527
  313MOL0     C41199   3.285   4.790   9.472  0.1509  0.9310 -0.0884
  313MOL0     C41200   3.345   4.779   9.333  0.2781  0.6793 -0.6255
  313MOL0     N41201   3.443   4.883   9.300 -0.3184  0.2787 -0.5447
  313MOL0     C41202   3.577   4.864   9.314  0.6888 -0.5270  0.0703
  313MOL0     C41203   3.633   4.986   9.287  1.0201 -0.6254  0.6825
  313MOL0     C41204   3.781   5.005   9.288 -0.2245  0.1037  0.9526
  313MOL0     C41205   3.841   5.025   9.427 -0.3874  0.6021 -0.5264
  313MOL0     C41206   3.993   5.032   9.432  0.9964  0.3133 -0.2517
  313MOL0     C41207   4.028   5.037   9.578 -0.3797 -0.3903 -0.0470
  313MOL0     O41208   4.028   4.911   9.654  0.7113 -0.2181  0.6566
  313MOL0     C41209   4.093   4.912   9.772  1.2997 -0.7448 -0.1985
  313MOL0     C41210   4.152   5.020   9.836 -0.5776 -0.8397  0.3532
  313MOL0     C41211   4.209   5.009   9.962 -1.4049 -0.1439 -0.3652
  313MOL0     C41212   4.226   4.886  10.024  0.4844  0.0123 -0.3026
  313MOL0     C41213   4.277   4.881  10.166 -0.2260 -0.0133  0.1183
  313MOL0     O41214   4.290   4.758  10.213 -0.2886 -0.2321 -0.4478
  313MOL0     C41215   4.357   4.736  10.328  0.6923  0.3102 -0.5626
  313MOL0     C41216   4.490   4.774  10.355 -0.7209  0.6234  0.0756
  313MOL0     C41217   4.547   4.762  10.485 -0.2015  1.3311 -0.3672
  313MOL0     C41218   4.483   4.710  10.595 -0.2000  0.6701 -0.2737
  313MOL0     O41219   4.565   4.707  10.705 -0.5405  0.8401 -0.4559
  313MOL0     C41220   4.520   4.631  10.820 -0.2068 -0.3086  0.3674
  313MOL0     C41221   4.634   4.621  10.928  0.3284  0.9251  0.6943
  313MOL0     C41222   4.706   4.748  10.947 -0.7578  0.2809 -0.2110
  313MOL0     C41223   4.618   4.866  10.982 -0.9711 -1.1578 -0.1230
  313MOL0     C41224   4.713   4.980  11.031  0.4974  0.6061  0.3191
  313MOL0     C41225   4.648   5.081  11.129  0.3446  0.3510  0.0834
  313MOL0     C41226   4.739   5.198  11.134 -0.0446 -0.0686  0.1832
  313MOL0     C41227   4.685   5.299  11.241  0.0346  0.7905  0.7874
  313MOL0    Cl41228   4.805   5.421  11.287  0.0231  0.4903  0.4185
  313MOL0     C41229   4.353   4.654  10.567  0.5833  0.0078 -0.0009
  313MOL0     C41230   4.292   4.669  10.436 -0.4528  0.5008  0.2355
  313MOL0     O41231   4.294   4.984  10.229  0.7240 -0.3521 -0.7326
  313MOL0     C41232   4.173   4.779   9.954  0.3619  1.0339 -0.4790
  313MOL0     C41233   4.105   4.793   9.835  0.4023 -0.2090  0.2510
  313MOL0     N41234   3.540   5.084   9.254 -0.0349 -0.8298  0.4839
  313MOL0     N41235   3.428   5.014   9.259  0.2629 -0.3730  0.1550
  313MOL0     C41236   3.884   4.645  10.309  0.3438  0.0396  0.2334
  313MOL0     C41237   3.947   4.541  10.380  1.0219 -0.3288 -0.2061
  313MOL0     C41238   4.046   4.215  10.591 -0.2163 -0.4730 -0.5413
  313MOL0     C41239   3.989   4.187  10.712  0.7510 -0.6316  0.2678
  313MOL0     C41240   4.062   4.122  10.813 -0.4903  0.7462 -0.0214
  313MOL0     C41241   4.205   4.100  10.796 -0.1214  0.5707 -0.4240
  313MOL0     O41242   4.272   4.049  10.901  0.3539  0.9312  0.4638
  313MOL0     C41243   4.324   3.915  10.887 -0.2311  0.5939 -0.5477
  313MOL0     C41244   4.468   3.907  10.930 -0.7473 -0.1952 -0.8654
  313MOL0     C41245   4.486   3.963  11.078  0.2879  0.2258  0.9902
  313MOL0     C41246   4.632   3.992  11.111  0.5630  0.1648  0.6497
  313MOL0     C41247   4.686   4.103  11.029 -1.4407 -0.8032 -0.3657
  313MOL0     C41248   4.731   4.188  10.959  0.1519  0.5273  0.7739
  313MOL0     C41249   4.266   4.135  10.681 -0.4039  0.0323 -0.7494
  313MOL0     C41250   4.194   4.200  10.581 -0.1503  0.1958 -0.0249
  313MOL0     H41251   4.006   4.332  10.116 -0.3059 -0.0274  0.3732
  313MOL0     H41252   3.866   4.482  10.005 -1.5174 -2.6889  1.1744
  313MOL0     H41253   3.681   4.628   9.958 -0.2525  0.1368 -1.6749
  313MOL0     H41254   3.821   4.717   9.911  2.1922  2.4743  1.6857
  313MOL0     H41255   3.731   4.920   9.922  1.7744 -0.6007  2.7158
  313MOL0     H41256   3.610   4.879  10.044 -0.1831 -2.8607  1.6497
  313MOL0     H41257   3.491   4.929   9.825 -0.3520 -0.1920 -1.5857
  313MOL0     H41258   3.466   4.770   9.883  0.4225 -0.5451 -0.4205
  313MOL0     H41259   3.629   4.865   9.649 -1.8920  0.5268 -0.5620
  313MOL0     H41260   3.665   4.703   9.714 -1.3274 -1.6163 -0.1710
  313MOL0     H41261   3.418   4.642   9.662 -2.2900  0.8555 -0.7402
  313MOL0     H41262   3.526   4.680   9.537 -0.6479  0.0381  0.1072
  313MOL0     H41263   3.439   4.926   9.541  0.0162  0.7956  1.5487
  313MOL0     H41264   3.335   4.872   9.669  2.2814 -1.9503  2.1785
  313MOL0     H41265   3.249   4.689   9.492  1.0831  1.0684  2.7231
  313MOL0     H41266   3.203   4.861   9.483 -0.8214 -0.0946 -0.5633
  313MOL0     H41267   3.258   4.779   9.267  0.3389  2.7590 -0.7747
  313MOL0     H41268   3.402   4.686   9.328 -1.2219 -0.2604 -0.5577
  313MOL0     H41269   3.623   4.778   9.362  1.0847 -0.9726 -1.0858
  313MOL0     H41270   3.806   5.085   9.216  2.0087 -2.5480 -1.4542
  313MOL0     H41271   3.829   4.923   9.233 -0.8864  0.6814 -0.5711
  313MOL0     H41272   3.814   4.942   9.493  1.2233  0.1073 -0.4398
  313MOL0     H41273   3.805   5.121   9.465 -0.4106  1.2064 -1.9984
  313MOL0     H41274   4.031   4.942   9.382  0.4757  0.4343 -0.8712
  313MOL0     H41275   4.020   5.125   9.381 -0.7612  0.6683 -0.6036
  313MOL0     H41276   3.963   5.113   9.623 -1.4582 -0.5862 -1.2261
  313MOL0     H41277   4.132   5.074   9.579 -0.8650  1.1237 -1.1617
  313MOL0     H41278   4.148   5.120   9.793 -0.9283 -2.1128 -2.8155
  313MOL0     H41279   4.232   5.103  10.011  0.6564  0.1671 -1.7799
  313MOL0     H41280   4.555   4.811  10.276  2.8020 -1.8403  1.5293
  313MOL0     H41281   4.651   4.792  10.497  0.0748  1.7782 -3.2565
  313MOL0     H41282   4.490   4.530  10.793  2.3644 -1.5623  1.7951
  313MOL0     H41283   4.435   4.673  10.876  0.2996  0.8861  0.2777
  313MOL0     H41284   4.709   4.546  10.901 -1.2829 -1.1602  1.7596
  313MOL0     H41285   4.593   4.580  11.021  1.8006  0.8425  1.3341
  313MOL0     H41286   4.770   4.773  10.862  1.9551 -3.0047  0.6305
  313MOL0     H41287   4.776   4.735  11.029  0.6214  0.8984 -1.2543
  313MOL0     H41288   4.558   4.909  10.901  0.0221  0.4927 -0.0262
  313MOL0     H41289   4.548   4.830  11.057 -2.5656 -0.2576 -1.1240
  313MOL0     H41290   4.747   5.034  10.943  1.3398 -1.3858 -0.6266
  313MOL0     H41291   4.802   4.947  11.085  0.3385  2.8739  2.1578
  313MOL0     H41292   4.636   5.035  11.228  0.3143  1.9728  0.8742
  313MOL0     H41293   4.553   5.109  11.082  0.0979  1.5855  1.2536
  313MOL0     H41294   4.836   5.167  11.172  1.2068  1.9576 -1.1465
  313MOL0     H41295   4.750   5.236  11.032 -2.4415  0.1073 -0.0736
  313MOL0     H41296   4.647   5.247  11.329  0.8069  0.4938  0.9509
  313MOL0     H41297   4.595   5.349  11.203  0.5642  1.1517 -0.0113
  313MOL0     H41298   4.297   4.600  10.643 -2.4294  1.9302 -0.6800
  313MOL0     H41299   4.191   4.645  10.407  0.7916 -0.0180 -4.4654
  313MOL0     H41300   4.174   4.675   9.987 -2.5093  0.3764 -2.0903
  313MOL0     H41301   4.058   4.703   9.798 -3.8767  1.3150  1.4169
  313MOL0     H41302   3.861   4.741  10.354 -3.0526  0.3516 -1.7453
  313MOL0     H41303   3.955   4.556  10.487 -1.9384 -3.0879  0.5196
  313MOL0     H41304   3.888   4.211  10.743  1.3600 -0.7974  2.6020
  313MOL0     H41305   4.020   4.088  10.907  1.5469 -2.5428 -0.1381
  313MOL0     H41306   4.313   3.891  10.781  1.4039 -0.0146 -0.6093
  313MOL0     H41307   4.264   3.839  10.939 -0.7045 -0.4291 -2.4953
  313MOL0     H41308   4.502   3.803  10.921  1.1972  0.0185  2.4521
  313MOL0     H41309   4.532   3.969  10.866 -0.5474  0.3514 -0.1482
  313MOL0     H41310   4.439   3.882  11.133 -1.8951 -1.2847 -2.7389
  313MOL0     H41311   4.430   4.055  11.097 -0.9932 -0.0052 -1.3683
  313MOL0     H41312   4.641   4.014  11.217 -0.4175 -0.2813  0.8339
  313MOL0     H41313   4.697   3.908  11.082 -0.6032 -0.9200  1.1014
  313MOL0     H41314   4.765   4.270  10.899 -1.0737  0.4605 -0.0482
  313MOL0     H41315   4.373   4.125  10.668 -0.3689  1.4369 -1.7774
  313MOL0     H41316   4.239   4.220  10.485 -2.4937  1.2023 -1.0046
  314MOL0     O41317   8.429   2.598   7.738 -0.4084 -0.5451 -0.4232
  314MOL0     C41318   8.532   2.538   7.733 -0.5906  0.2647 -1.3813
  314MOL0     O41319   8.542   2.403   7.734 -0.3479 -0.1846  0.4062
  314MOL0     C41320   8.425   2.329   7.699  0.3001  0.2445  0.4753
  314MOL0     C41321   8.345   2.345   7.584  0.5846  0.8762 -0.4008
  314MOL0     C41322   8.238   2.255   7.566 -0.2162  0.0225  0.3107
  314MOL0     C41323   8.208   2.141   7.653  1.1174 -0.4785 -1.0869
  314MOL0     O41324   8.104   2.062   7.633  0.1264 -0.3373 -0.7444
  314MOL0     C41325   8.025   2.008   7.738  0.3854 -0.5421 -1.3288
  314MOL0     C41326   7.960   2.115   7.835  0.0820  0.5095 -0.6843
  314MOL0     C41327   7.825   2.160   7.792 -0.0636  0.6661  0.7682
  314MOL0     C41328   7.752   2.237   7.913 -0.0959  0.0460 -0.3877
  314MOL0     C41329   7.663   2.137   7.995 -0.3220 -0.1252  0.1575
  314MOL0     C41330   7.726   2.017   8.070 -0.3018  1.3469 -0.9968
  314MOL0     C41331   7.611   1.944   8.154  0.6449  0.0833 -0.5706
  314MOL0     C41332   7.592   2.000   8.299 -0.3218  0.4058 -0.5107
  314MOL0     N41333   7.497   1.927   8.382  0.7845  0.4792  0.7182
  314MOL0     C41334   7.374   1.880   8.342 -0.2371 -0.7157  0.3776
  314MOL0     C41335   7.334   1.796   8.439  0.4563  0.4125  0.5985
  314MOL0     C41336   7.207   1.706   8.434 -0.8139  0.7767  0.0988
  314MOL0     C41337   7.110   1.745   8.548  0.4674 -0.8324  0.7606
  314MOL0     C41338   6.977   1.662   8.554 -0.4192 -0.3949 -0.0141
  314MOL0     C41339   6.857   1.712   8.479  0.1246  0.2947  0.0924
  314MOL0     O41340   6.897   1.730   8.346  0.1687  0.1574 -0.2743
  314MOL0     C41341   6.803   1.710   8.243 -0.5680 -0.5502 -0.2863
  314MOL0     C41342   6.663   1.715   8.262  1.1193 -0.4947  0.3820
  314MOL0     C41343   6.581   1.669   8.161 -0.9463 -0.5087 -0.1302
  314MOL0     C41344   6.635   1.614   8.044 -0.4994  0.3038  0.2442
  314MOL0     C41345   6.552   1.553   7.942  0.2108  0.2077  0.4720
  314MOL0     O41346   6.421   1.532   7.969 -0.3411  0.7454  0.3641
  314MOL0     C41347   6.352   1.479   7.871  0.8021  0.0690  0.8478
  314MOL0     C41348   6.369   1.352   7.827 -0.1637  0.4912  1.3763
  314MOL0     C41349   6.275   1.294   7.735 -0.8769 -0.0636 -0.5245
  314MOL0     C41350   6.172   1.367   7.689 -0.1258 -0.4833 -0.2504
  314MOL0     O41351   6.106   1.318   7.575  0.5777  0.1355  0.1571
  314MOL0     C41352   5.968   1.324   7.583  0.0087 -0.3721 -1.2526
  314MOL0     C41353   5.900   1.221   7.490  0.0800  0.3918 -0.5943
  314MOL0     C41354   5.952   1.072   7.499  0.6737  0.4288 -0.6684
  314MOL0     C41355   5.940   1.024   7.648  0.1564 -0.2171 -0.4994
  314MOL0     C41356   5.948   0.873   7.668  0.5285 -0.0432  0.3648
  314MOL0     C41357   6.071   0.819   7.601 -0.2724  0.1035  0.1860
  314MOL0     C41358   6.087   0.669   7.619 -0.4113 -0.3220  0.0072
  314MOL0     C41359   6.115   0.613   7.761 -0.5070  0.0506 -0.6593
  314MOL0    Cl41360   6.282   0.661   7.817  0.1326 -0.5631  0.0931
  314MOL0     C41361   6.148   1.495   7.737  0.5360  0.5724 -0.4707
  314MOL0     C41362   6.231   1.550   7.832 -0.0730  0.1761  0.4162
  314MOL0     O41363   6.614   1.502   7.846 -0.7026  0.3421  0.3166
  314MOL0     C41364   6.777   1.619   8.027  0.6450  0.3962  0.1629
  314MOL0     C41365   6.852   1.669   8.127 -0.1294  0.5952 -0.5904
  314MOL0     N41366   7.438   1.788   8.531  0.9950 -0.2056  0.0178
  314MOL0     N41367   7.533   1.860   8.494  1.3564  1.0627 -0.4867
  314MOL0     C41368   8.278   2.150   7.775 -0.0185  0.5060  0.1692
  314MOL0     C41369   8.384   2.236   7.797  0.5063  0.7301  0.3684
  314MOL0     C41370   8.656   2.621   7.744 -0.4070 -0.2600  0.9011
  314MOL0     C41371   8.754   2.594   7.837  0.3867  0.1927 -0.3173
  314MOL0     C41372   8.871   2.663   7.851  0.0415 -1.0974  0.0899
  314MOL0     C41373   8.898   2.783   7.774 -0.2121  0.1986  0.2389
  314MOL0     O41374   9.004   2.860   7.812  0.4362  0.4989  0.0885
  314MOL0     C41375   9.043   2.966   7.730 -0.5582  0.2140  0.5023
  314MOL0     C41376   9.185   3.009   7.773  0.6332  1.0450 -0.1969
  314MOL0     C41377   9.281   2.894   7.756 -0.3284  0.1129  0.5245
  314MOL0     C41378   9.407   2.926   7.821 -0.1467  0.4003 -0.4839
  314MOL0     C41379   9.506   2.828   7.794 -0.0481  0.1657  0.1481
  314MOL0     C41380   9.610   2.766   7.790 -0.2343  0.7474  0.1612
  314MOL0     C41381   8.790   2.822   7.678  0.2633  0.3266 -0.3761
  314MOL0     C41382   8.680   2.736   7.665 -0.0870  0.2594 -0.5177
  314MOL0     H41383   8.370   2.418   7.507 -0.9308  0.5561 -1.2208
  314MOL0     H41384   8.183   2.261   7.472 -0.4866 -0.5053  0.4317
  314MOL0     H41385   8.074   1.927   7.793  1.4560 -0.5850 -2.3043
  314MOL0     H41386   7.955   1.959   7.669 -2.1705  2.8333 -1.3851
  314MOL0     H41387   8.026   2.197   7.862 -0.5525  0.3383  1.6205
  314MOL0     H41388   7.951   2.072   7.936  2.0531 -1.0265 -1.0992
  314MOL0     H41389   7.769   2.083   7.739  1.8140 -0.4341  0.2939
  314MOL0     H41390   7.849   2.236   7.717 -2.4113  0.3757 -0.3745
  314MOL0     H41391   7.824   2.291   7.975 -1.5266  0.7619  0.7224
  314MOL0     H41392   7.691   2.318   7.873 -0.5737 -0.0048  0.2091
  314MOL0     H41393   7.599   2.103   7.913 -1.3140 -3.2038  2.0343
  314MOL0     H41394   7.597   2.190   8.065  2.0595  2.6594  0.4771
  314MOL0     H41395   7.814   2.029   8.132  0.0067 -3.8739  0.0162
  314MOL0     H41396   7.766   1.941   8.001 -2.4532 -3.7247  2.7271
  314MOL0     H41397   7.516   1.957   8.101  0.8302 -0.1915 -0.9730
  314MOL0     H41398   7.638   1.838   8.153  1.1907  0.2180 -0.7308
  314MOL0     H41399   7.563   2.105   8.299  2.4072  1.2741  1.6058
  314MOL0     H41400   7.688   1.995   8.351 -0.4814 -3.8763 -0.2508
  314MOL0     H41401   7.339   1.902   8.242 -1.4828  0.5398  1.0630
  314MOL0     H41402   7.240   1.603   8.454 -3.5778  0.0692  1.6049
  314MOL0     H41403   7.161   1.712   8.335 -0.5888 -4.3879 -0.6292
  314MOL0     H41404   7.080   1.849   8.537  0.8215 -0.8567 -0.5588
  314MOL0     H41405   7.156   1.730   8.647 -0.3178 -2.1691  0.9591
  314MOL0     H41406   7.008   1.564   8.515  2.3667  0.4808 -0.1976
  314MOL0     H41407   6.951   1.660   8.660  1.1177 -2.3027  0.3942
  314MOL0     H41408   6.819   1.803   8.524  0.8256 -0.3442  2.0853
  314MOL0     H41409   6.778   1.637   8.487 -0.4077  0.7328 -0.8731
  314MOL0     H41410   6.618   1.745   8.356 -2.6215  0.2459 -1.4564
  314MOL0     H41411   6.474   1.666   8.182 -0.7150  2.3271  1.9767
  314MOL0     H41412   6.453   1.296   7.867 -2.9887 -3.6735  2.0617
  314MOL0     H41413   6.296   1.201   7.685 -1.1004  0.5137 -1.7187
  314MOL0     H41414   5.952   1.427   7.551 -2.1577 -0.8832 -2.0083
  314MOL0     H41415   5.929   1.317   7.685 -1.0864  2.8345 -1.3332
  314MOL0     H41416   5.923   1.252   7.387  0.9229 -1.7601 -1.1172
  314MOL0     H41417   5.793   1.226   7.512 -0.3566 -3.3837 -1.1913
  314MOL0     H41418   6.055   1.072   7.463  1.7517  0.5586  2.1034
  314MOL0     H41419   5.890   1.017   7.428  1.6436 -4.3469  1.7099
  314MOL0     H41420   6.036   1.061   7.687  0.0112 -0.2637 -0.0977
  314MOL0     H41421   5.856   1.070   7.700  0.8496  1.1431 -0.5323
  314MOL0     H41422   5.863   0.812   7.639  1.0778 -0.9245  0.5742
  314MOL0     H41423   5.945   0.857   7.776 -0.7994  0.6450  0.4515
  314MOL0     H41424   6.159   0.874   7.635 -1.1523  1.9747 -0.4405
  314MOL0     H41425   6.061   0.832   7.493  5.3804 -1.3861 -0.8485
  314MOL0     H41426   5.990   0.624   7.599  0.5249 -2.3165 -0.2958
  314MOL0     H41427   6.152   0.622   7.544  2.4698  1.7801  0.9943
  314MOL0     H41428   6.124   0.504   7.759  2.8270  0.1455  1.2306
  314MOL0     H41429   6.037   0.636   7.834 -0.3046 -0.3122 -0.3275
  314MOL0     H41430   6.062   1.551   7.703 -0.0949  0.5057  0.9802
  314MOL0     H41431   6.206   1.648   7.873  1.7522 -1.0778  5.2131
  314MOL0     H41432   6.818   1.562   7.945  0.0517  0.9948 -0.5621
  314MOL0     H41433   6.960   1.664   8.122 -0.1567 -0.4499 -0.3250
  314MOL0     H41434   8.251   2.099   7.867  0.1954  0.3114  0.1262
  314MOL0     H41435   8.440   2.230   7.890  3.8187 -0.8130 -1.5166
  314MOL0     H41436   8.750   2.503   7.896  1.9313 -2.2358 -3.6285
  314MOL0     H41437   8.941   2.640   7.930 -0.6384 -1.1260  0.6993
  314MOL0     H41438   8.966   3.043   7.739  0.4574  1.3173  0.0159
  314MOL0     H41439   9.049   2.943   7.623  0.2336  2.4158  0.0347
  314MOL0     H41440   9.212   3.093   7.707 -1.2960  0.9567 -1.1505
  314MOL0     H41441   9.186   3.039   7.878  0.3610  1.6409 -0.3618
  314MOL0     H41442   9.303   2.878   7.650  0.1306  0.1118  0.6204
  314MOL0     H41443   9.241   2.803   7.803  2.5088 -2.1398 -1.0846
  314MOL0     H41444   9.451   3.018   7.783  1.8516 -0.3323 -0.0798
  314MOL0     H41445   9.383   2.929   7.928 -0.7451  1.5917 -0.6311
  314MOL0     H41446   9.703   2.714   7.796 -0.4344  0.5675  2.8375
  314MOL0     H41447   8.804   2.910   7.616  1.9012 -0.1014 -0.6656
  314MOL0     H41448   8.592   2.768   7.609 -2.3259 -0.8018  2.1730
  315MOL0     O41449   5.482  10.677   0.191  0.2111 -0.6905  0.2776
  315MOL0     C41450   5.498  10.558   0.157 -0.3291 -0.0605  0.4337
  315MOL0     O41451   5.425  10.493   0.061  0.1753  0.0801 -0.3179
  315MOL0     C41452   5.299  10.546   0.037  0.2939 -0.3746 -0.5306
  315MOL0     C41453   5.212  10.582   0.146 -0.2427 -0.0766 -0.3487
  315MOL0     C41454   5.088  10.652   0.119 -0.4525 -0.9317 -0.9291
  315MOL0     C41455   5.047  10.682  -0.011 -0.1486  0.4491 -0.7076
  315MOL0     O41456   4.936  10.760  -0.041 -0.5733  0.5133 -0.5340
  315MOL0     C41457   4.826  10.754   0.056 -0.0190 -0.1514  0.2795
  315MOL0     C41458   4.719  10.867   0.025 -0.3851  0.1540 -0.2849
  315MOL0     C41459   4.576  10.835   0.047  0.7222 -0.1049  0.4185
  315MOL0     C41460   4.482  10.943  -0.005 -0.4144 -0.0748  0.4452
  315MOL0     C41461   4.344  10.894  -0.025  0.1046  0.3044  0.5140
  315MOL0     C41462   4.264  10.852   0.103  0.4706 -0.1800  0.3042
  315MOL0     C41463   4.247  10.967   0.202  0.6245  0.2727  0.2258
  315MOL0     C41464   4.124  11.057   0.163 -0.1577 -0.0783  0.8593
  315MOL0     N41465   3.993  11.004   0.194 -0.4825  0.0924  0.1764
  315MOL0     C41466   3.933  11.017   0.322  0.0477 -0.3454  0.8734
  315MOL0     C41467   3.801  10.985   0.305  0.5704  0.3172 -0.7251
  315MOL0     C41468   3.705  10.983   0.420  0.3599 -0.3559 -0.1451
  315MOL0     C41469   3.568  10.926   0.383  1.0203 -0.6383 -0.0617
  315MOL0     C41470   3.457  10.910   0.497 -0.0041 -0.3845 -0.7578
  315MOL0     C41471   3.385  11.042   0.528  0.3432 -0.3923  0.0107
  315MOL0     O41472   3.314  11.035   0.653  0.0352 -0.1591  0.1512
  315MOL0     C41473   3.319  11.143   0.736  0.1825 -0.1475  0.1393
  315MOL0     C41474   3.209  11.173   0.817 -0.4668  0.2441  0.0577
  315MOL0     C41475   3.223  11.270   0.917  0.1456  0.1406  0.6539
  315MOL0     C41476   3.352  11.325   0.948 -0.2882  0.1613 -0.1541
  315MOL0     C41477   3.358  11.419   1.056 -0.3292  0.6219 -1.3637
  315MOL0     O41478   3.245  11.468   1.120 -0.2650 -0.1525  0.2486
  315MOL0     C41479   3.252  11.578   1.202  0.4910 -0.4356  0.5700
  315MOL0     C41480   3.202  11.576   1.333  0.2482  0.5420 -0.5298
  315MOL0     C41481   3.200  11.692   1.416  0.0006  0.0121  0.4726
  315MOL0     C41482   3.243  11.815   1.371 -0.2756  0.1983 -0.4735
  315MOL0     O41483   3.241  11.930   1.449  0.4398  0.2542 -0.8181
  315MOL0     C41484   3.120  11.998   1.463  0.2021  0.1153  0.6941
  315MOL0     C41485   3.119  12.115   1.557 -0.8547 -0.5146  0.3938
  315MOL0     C41486   2.979  12.172   1.566 -0.0658 -0.0104 -0.3605
  315MOL0     C41487   2.918  12.230   1.435  0.5894 -0.2493 -0.8388
  315MOL0     C41488   2.769  12.260   1.452  0.4197 -0.0770 -0.1431
  315MOL0     C41489   2.729  12.369   1.545  0.1142 -0.1714 -0.0834
  315MOL0     C41490   2.575  12.382   1.559 -0.0223  0.1184 -0.4567
  315MOL0     C41491   2.529  12.495   1.645  0.6745 -0.1496  0.2427
  315MOL0    Cl41492   2.588  12.655   1.587  0.6497 -0.1287  0.2921
  315MOL0     C41493   3.296  11.819   1.247  1.4902  0.3384 -0.2071
  315MOL0     C41494   3.301  11.709   1.158  0.8565 -0.0026 -0.2192
  315MOL0     O41495   3.471  11.468   1.076  0.0479  0.0037  0.4463
  315MOL0     C41496   3.461  11.286   0.865  0.9681 -0.0098  0.1602
  315MOL0     C41497   3.439  11.197   0.760 -0.3840 -0.9260  0.9454
  315MOL0     N41498   3.791  10.938   0.175  0.4512 -0.8000 -0.3011
  315MOL0     N41499   3.898  10.948   0.111  0.6619  0.1860 -0.9255
  315MOL0     C41500   5.134  10.642  -0.121 -1.5023 -0.1281  1.1482
  315MOL0     C41501   5.253  10.573  -0.090 -0.4192 -0.3921  0.4078
  315MOL0     C41502   5.614  10.473   0.201 -0.4741  0.4536 -0.0250
  315MOL0     C41503   5.626  10.339   0.175 -0.2895 -0.1602  0.3904
  315MOL0     C41504   5.736  10.263   0.208  0.6155 -0.2379 -0.8169
  315MOL0     C41505   5.834  10.324   0.289  0.7552 -0.4105 -0.5671
  315MOL0     O41506   5.927  10.235   0.344 -0.1614  0.0667 -0.7671
  315MOL0     C41507   6.037  10.293   0.413 -0.1734 -0.5147 -0.2932
  315MOL0     C41508   6.137  10.363   0.323 -0.1252  0.5423  0.0507
  315MOL0     C41509   6.228  10.438   0.425 -0.3078  0.1389 -0.1065
  315MOL0     C41510   6.329  10.345   0.507 -0.1022 -0.8483  0.5350
  315MOL0     C41511   6.447  10.420   0.544  0.5554  0.4403  0.1622
  315MOL0     C41512   6.555  10.480   0.558  0.1579  0.1399 -0.5263
  315MOL0     C41513   5.825  10.461   0.316 -0.1961 -0.0726 -1.2773
  315MOL0     C41514   5.717  10.538   0.269 -0.0690  0.4325  0.4405
  315MOL0     H41515   5.256  10.566   0.244 -0.5797 -1.1378 -0.3672
  315MOL0     H41516   5.049  10.705   0.205  4.4969  1.0232  0.4681
  315MOL0     H41517   4.861  10.770   0.158 -3.4718  2.8106  1.1594
  315MOL0     H41518   4.777  10.656   0.050 -0.1738 -0.0531 -0.1033
  315MOL0     H41519   4.736  10.895  -0.079  2.0815  0.1347  0.0419
  315MOL0     H41520   4.746  10.947   0.095  0.4650 -0.8591  0.5969
  315MOL0     H41521   4.553  10.823   0.154 -0.8350 -1.8321 -0.0513
  315MOL0     H41522   4.543  10.742   0.001  0.2662 -0.2810  1.0898
  315MOL0     H41523   4.479  11.032   0.059  0.8166  1.0625 -1.0151
  315MOL0     H41524   4.518  10.969  -0.105  1.4261 -0.5740  0.9570
  315MOL0     H41525   4.348  10.810  -0.095 -0.9164  1.1738 -0.6315
  315MOL0     H41526   4.285  10.975  -0.068  1.1754  3.1629  3.9503
  315MOL0     H41527   4.324  10.776   0.154  0.5282 -1.1833 -1.2001
  315MOL0     H41528   4.171  10.808   0.066  0.9784 -0.9130 -0.1162
  315MOL0     H41529   4.236  10.930   0.304  0.9906 -0.0701  0.1427
  315MOL0     H41530   4.337  11.029   0.201 -0.5871  2.1613 -1.0129
  315MOL0     H41531   4.130  11.074   0.055  4.7207 -0.8025  0.7700
  315MOL0     H41532   4.139  11.158   0.204 -1.2574  0.6035 -0.3618
  315MOL0     H41533   3.990  11.039   0.412  2.8460 -1.8824 -0.3900
  315MOL0     H41534   3.703  11.086   0.457  0.6222 -0.2863 -0.3187
  315MOL0     H41535   3.727  10.925   0.510 -1.4155  1.8160  1.8305
  315MOL0     H41536   3.574  10.824   0.343 -1.0599 -0.8722  0.1305
  315MOL0     H41537   3.537  10.974   0.290  0.7409 -2.6273 -1.0517
  315MOL0     H41538   3.383  10.840   0.457 -1.8679  0.6192  0.7976
  315MOL0     H41539   3.495  10.862   0.588 -2.5169 -1.4406 -0.2041
  315MOL0     H41540   3.313  11.050   0.447  1.7898 -2.2943 -1.5462
  315MOL0     H41541   3.456  11.125   0.519 -0.8394  0.5521 -0.8699
  315MOL0     H41542   3.121  11.110   0.825 -3.2173  3.8967  1.2428
  315MOL0     H41543   3.135  11.303   0.971 -0.9508  0.8672 -1.4771
  315MOL0     H41544   3.164  11.479   1.362  0.4308  0.0736 -1.7669
  315MOL0     H41545   3.177  11.682   1.522  1.8544  0.0522  0.9187
  315MOL0     H41546   3.041  11.932   1.500  0.4370 -0.1593  0.7100
  315MOL0     H41547   3.097  12.029   1.361 -1.0416 -0.4803  0.7808
  315MOL0     H41548   3.189  12.193   1.527  0.3967 -1.0656  1.7764
  315MOL0     H41549   3.157  12.076   1.652 -0.4879 -1.8719 -0.2813
  315MOL0     H41550   2.982  12.250   1.643 -3.2264 -1.9218  1.9764
  315MOL0     H41551   2.912  12.093   1.602  0.1658  0.6044  1.5551
  315MOL0     H41552   2.981  12.309   1.392 -0.0855 -1.0767 -3.5505
  315MOL0     H41553   2.910  12.148   1.362 -0.8514 -0.6920 -0.2086
  315MOL0     H41554   2.729  12.170   1.499 -2.5776  1.1028 -0.2515
  315MOL0     H41555   2.739  12.276   1.348 -0.1268 -0.4782 -0.0524
  315MOL0     H41556   2.771  12.459   1.498  0.8365  0.6711  2.0718
  315MOL0     H41557   2.791  12.368   1.635  0.4868 -1.0450 -0.3397
  315MOL0     H41558   2.532  12.387   1.458  2.6732 -2.8816 -1.9449
  315MOL0     H41559   2.527  12.290   1.594  0.4648 -0.1530 -0.4824
  315MOL0     H41560   2.550  12.477   1.750  2.8514  1.2387  0.1074
  315MOL0     H41561   2.422  12.512   1.635  0.8845  0.6944 -0.8738
  315MOL0     H41562   3.331  11.917   1.215 -2.1483  1.4796 -1.2805
  315MOL0     H41563   3.335  11.717   1.055 -0.5506  0.0926 -0.7035
  315MOL0     H41564   3.557  11.325   0.896  0.7843 -0.1734  0.9677
  315MOL0     H41565   3.529  11.164   0.710  2.0114  3.7853  1.5596
  315MOL0     H41566   5.092  10.666  -0.217  0.4093 -1.2708 -0.0385
  315MOL0     H41567   5.327  10.568  -0.170 -0.2437 -1.4739  0.6230
  315MOL0     H41568   5.554  10.278   0.122  0.9990 -1.4379  0.0620
  315MOL0     H41569   5.749  10.156   0.191 -0.5719 -0.2840 -1.5652
  315MOL0     H41570   6.082  10.205   0.460 -0.4589 -0.6406 -0.2529
  315MOL0     H41571   6.001  10.352   0.498  1.1647 -0.9001  0.5783
  315MOL0     H41572   6.176  10.283   0.259 -2.9817 -0.8906 -0.0801
  315MOL0     H41573   6.088  10.433   0.255 -0.9375 -1.9636 -2.1083
  315MOL0     H41574   6.173  10.490   0.504  0.3109 -0.1593  0.5312
  315MOL0     H41575   6.284  10.519   0.376  1.2297  0.5194  2.1146
  315MOL0     H41576   6.272  10.316   0.596  0.9883 -0.3390  1.4288
  315MOL0     H41577   6.354  10.256   0.449  2.6823  0.9906 -1.3181
  315MOL0     H41578   6.645  10.536   0.572  1.2289 -1.2169 -1.6071
  315MOL0     H41579   5.887  10.517   0.386 -0.7928 -0.3473 -0.5148
  315MOL0     H41580   5.715  10.645   0.287 -1.7794  0.3307  1.0528
  316MOL0     O41581   8.690   3.981   4.761 -0.4068  0.3338 -0.0149
  316MOL0     C41582   8.683   3.867   4.810 -0.2313  0.0358  0.0104
  316MOL0     O41583   8.577   3.822   4.884 -0.2039  1.1135  0.1181
  316MOL0     C41584   8.477   3.914   4.911  0.1797  0.2087  1.0119
  316MOL0     C41585   8.488   3.987   5.029 -0.0151 -1.2547  0.2428
  316MOL0     C41586   8.408   4.103   5.050  0.1102  1.0729 -0.1724
  316MOL0     C41587   8.303   4.135   4.962  0.3671  0.9739  0.2635
  316MOL0     O41588   8.210   4.227   4.986  0.4473 -0.2813 -0.1552
  316MOL0     C41589   8.178   4.282   5.114  0.4720  0.4317  0.2074
  316MOL0     C41590   8.262   4.400   5.149  0.2025  0.9481 -0.6297
  316MOL0     C41591   8.254   4.432   5.300  1.1220 -0.9001 -0.0189
  316MOL0     C41592   8.341   4.339   5.376 -0.4572 -0.1636  0.7978
  316MOL0     C41593   8.479   4.400   5.387 -0.3709 -0.3314 -0.0004
  316MOL0     C41594   8.570   4.311   5.469  0.0585  0.0743  0.1585
  316MOL0     C41595   8.718   4.347   5.467 -0.7963 -0.3026 -0.0243
  316MOL0     C41596   8.777   4.367   5.327  0.5211  0.1304  0.2253
  316MOL0     N41597   8.919   4.414   5.339  0.2826  0.1966 -0.0112
  316MOL0     C41598   9.028   4.345   5.382 -0.6136 -0.8331  0.0453
  316MOL0     C41599   9.147   4.416   5.352  0.8835  0.1669 -0.0440
  316MOL0     C41600   9.292   4.360   5.374 -0.1285 -0.6363  0.6425
  316MOL0     C41601   9.355   4.359   5.231 -0.4131 -0.0325 -0.0215
  316MOL0     C41602   9.412   4.503   5.186  0.5753  0.2621 -0.0967
  316MOL0     C41603   9.411   4.516   5.031 -0.4796  0.2190 -0.0359
  316MOL0     O41604   9.459   4.401   4.970  0.4233  0.3677  0.1717
  316MOL0     C41605   9.581   4.418   4.909  0.3171  0.1828  0.1619
  316MOL0     C41606   9.698   4.394   4.980  0.3423 -0.4055 -0.4213
  316MOL0     C41607   9.821   4.385   4.915 -0.1103  0.4650  0.0653
  316MOL0     C41608   9.829   4.407   4.779  0.4271 -0.6374  0.2231
  316MOL0     C41609   9.969   4.394   4.719  0.1200  0.6817 -0.1716
  316MOL0     O41610   9.971   4.435   4.584 -0.0223 -0.0665 -0.4779
  316MOL0     C41611  10.097   4.398   4.531  0.6195 -0.6779 -0.0819
  316MOL0     C41612  10.120   4.269   4.477  0.1449 -0.6368  0.1488
  316MOL0     C41613  10.244   4.249   4.419  1.3191  0.5223  0.7169
  316MOL0     C41614  10.336   4.343   4.423  0.3269  0.3879  0.2135
  316MOL0     O41615  10.464   4.313   4.395  0.7241  1.1058 -0.3579
  316MOL0     C41616  10.481   4.245   4.264 -1.1384 -0.2988 -0.1491
  316MOL0     C41617  10.634   4.232   4.246 -0.6202 -0.1682 -0.6946
  316MOL0     C41618  10.715   4.373   4.250 -0.2675 -0.2854 -0.6312
  316MOL0     C41619  10.859   4.344   4.226 -0.1450  0.5383  0.2437
  316MOL0     C41620  10.949   4.460   4.187  0.4708 -0.3862  0.2591
  316MOL0     C41621  11.088   4.417   4.137 -0.3389  0.1380  0.0457
  316MOL0     C41622  11.190   4.418   4.261  0.3774 -0.0530 -0.7843
  316MOL0     C41623  11.218   4.549   4.329  0.7955 -0.4493  0.2391
  316MOL0    Cl41624  11.245   4.684   4.207  0.0011  0.6088 -0.1166
  316MOL0     C41625  10.316   4.467   4.472 -0.4124 -0.1260 -0.1401
  316MOL0     C41626  10.199   4.497   4.529  1.1010 -0.0439 -0.6938
  316MOL0     O41627  10.057   4.341   4.792  0.0563  0.5190 -0.0911
  316MOL0     C41628   9.707   4.433   4.708 -0.3419 -0.5298  0.3231
  316MOL0     C41629   9.590   4.448   4.775 -0.1974 -0.0845  0.5811
  316MOL0     N41630   9.104   4.529   5.285  0.2650  0.3492 -0.5481
  316MOL0     N41631   8.974   4.532   5.289  0.2553 -0.5846 -0.4022
  316MOL0     C41632   8.296   4.059   4.840  0.1584 -0.2279 -0.4188
  316MOL0     C41633   8.386   3.954   4.812 -0.6247  0.7661 -0.2765
  316MOL0     C41634   8.790   3.776   4.779 -0.6265  0.1333  0.4943
  316MOL0     C41635   8.880   3.797   4.672  0.1757 -0.2734 -0.1183
  316MOL0     C41636   8.984   3.702   4.657  0.3439  1.3275 -0.3757
  316MOL0     C41637   8.993   3.595   4.742 -0.1028 -0.3122  0.0567
  316MOL0     O41638   9.102   3.507   4.727 -0.2738  0.2539 -0.0831
  316MOL0     C41639   9.095   3.373   4.775  0.3679 -0.0621 -0.8491
  316MOL0     C41640   9.218   3.287   4.747  1.0136  0.8778 -1.1180
  316MOL0     C41641   9.264   3.293   4.609 -0.8954  0.5498 -0.2708
  316MOL0     C41642   9.380   3.192   4.591 -0.2776 -0.2015  0.3308
  316MOL0     C41643   9.501   3.237   4.654 -0.1172 -0.2949 -0.4650
  316MOL0     C41644   9.604   3.285   4.699  0.5928  0.1061  0.0805
  316MOL0     C41645   8.906   3.578   4.848  0.4368 -0.1202 -0.2747
  316MOL0     C41646   8.800   3.667   4.863  0.2043  0.0365 -0.0408
  316MOL0     H41647   8.569   3.958   5.096  1.9175 -0.8708 -1.8218
  316MOL0     H41648   8.421   4.165   5.138 -0.1613  1.2236 -0.2348
  316MOL0     H41649   8.183   4.203   5.189 -0.0245  0.0905 -0.1081
  316MOL0     H41650   8.075   4.317   5.116  1.0525  2.1882  0.6378
  316MOL0     H41651   8.228   4.487   5.092 -1.6492  1.0649  0.5797
  316MOL0     H41652   8.368   4.376   5.132 -0.6481 -1.9596 -2.7360
  316MOL0     H41653   8.150   4.423   5.334  0.1517  1.6983 -1.9192
  316MOL0     H41654   8.281   4.537   5.313 -2.4249  0.4130 -1.8940
  316MOL0     H41655   8.302   4.327   5.477 -2.7481  5.8721  1.0319
  316MOL0     H41656   8.356   4.239   5.335  1.2318  0.3286  0.1017
  316MOL0     H41657   8.474   4.490   5.449 -0.1282 -1.2026  1.3063
  316MOL0     H41658   8.516   4.438   5.291 -1.2932 -0.7956 -0.5624
  316MOL0     H41659   8.578   4.209   5.430 -1.6060  0.0471 -0.1819
  316MOL0     H41660   8.532   4.302   5.572  0.3049  2.1782  0.4731
  316MOL0     H41661   8.736   4.432   5.533  1.5603 -2.2021  1.9516
  316MOL0     H41662   8.773   4.265   5.515  2.0074  0.9599 -0.9144
  316MOL0     H41663   8.723   4.442   5.268 -0.9055  2.4090  4.0654
  316MOL0     H41664   8.769   4.271   5.274  1.5189  0.4972 -0.6104
  316MOL0     H41665   9.032   4.244   5.423 -1.3974 -0.0047  2.3470
  316MOL0     H41666   9.296   4.257   5.409  2.8047 -0.9716 -0.3994
  316MOL0     H41667   9.359   4.415   5.440 -1.7166 -0.6909  2.3856
  316MOL0     H41668   9.276   4.341   5.158  0.2306 -0.3368 -0.6599
  316MOL0     H41669   9.424   4.274   5.221 -0.1445  0.1393  0.3337
  316MOL0     H41670   9.352   4.587   5.221 -0.5127  1.0951 -3.5989
  316MOL0     H41671   9.518   4.515   5.212  0.9364 -3.8892  1.1423
  316MOL0     H41672   9.458   4.611   5.005  0.7566  0.3483  2.4409
  316MOL0     H41673   9.307   4.531   4.998 -2.9525 -4.0880  4.4382
  316MOL0     H41674   9.690   4.367   5.084 -1.8047 -0.2755 -0.4998
  316MOL0     H41675   9.906   4.366   4.980  0.0135 -0.6238 -0.3945
  316MOL0     H41676  10.039   4.196   4.475 -0.8968  0.4160  1.7233
  316MOL0     H41677  10.259   4.149   4.381  1.6179  0.0682  1.9569
  316MOL0     H41678  10.448   4.313   4.184  3.1079  5.3080  2.1691
  316MOL0     H41679  10.440   4.144   4.265  0.8126 -1.1099  0.2933
  316MOL0     H41680  10.651   4.181   4.151  0.0766 -1.0462 -0.1100
  316MOL0     H41681  10.676   4.154   4.310  3.1043  0.6409 -1.8869
  316MOL0     H41682  10.700   4.419   4.348 -1.9208  0.2150 -1.0812
  316MOL0     H41683  10.681   4.436   4.167  2.0203  0.3738 -1.1251
  316MOL0     H41684  10.906   4.296   4.313 -1.5458 -0.1023  0.6803
  316MOL0     H41685  10.858   4.276   4.140  0.6277 -0.2491  0.8332
  316MOL0     H41686  10.946   4.523   4.276 -0.3975  0.3205 -0.2494
  316MOL0     H41687  10.908   4.519   4.104 -0.2997  0.0215  0.9209
  316MOL0     H41688  11.122   4.485   4.058 -0.0841  2.4852  2.0656
  316MOL0     H41689  11.080   4.313   4.102 -3.2542 -0.3064  1.7436
  316MOL0     H41690  11.165   4.344   4.337  1.9646  0.2194  0.0567
  316MOL0     H41691  11.285   4.389   4.214 -0.6272  0.6511 -3.4009
  316MOL0     H41692  11.306   4.550   4.394  0.4005  1.0377  0.7818
  316MOL0     H41693  11.138   4.572   4.400 -1.5679  0.0359 -2.3700
  316MOL0     H41694  10.395   4.536   4.499 -1.1986  0.5896  0.3868
  316MOL0     H41695  10.189   4.594   4.576 -3.6004 -0.3961 -0.4771
  316MOL0     H41696   9.710   4.441   4.599 -2.7030 -1.8405  0.1035
  316MOL0     H41697   9.498   4.478   4.726  0.3489 -0.2293 -0.5691
  316MOL0     H41698   8.221   4.099   4.774 -0.6338  2.2517  1.8101
  316MOL0     H41699   8.378   3.892   4.724  1.0712 -1.9903  1.3425
  316MOL0     H41700   8.869   3.887   4.613  4.0300  1.5150  1.5865
  316MOL0     H41701   9.060   3.711   4.580  0.2269  0.0057 -0.6693
  316MOL0     H41702   9.013   3.321   4.724  1.7280 -2.6467 -0.5657
  316MOL0     H41703   9.078   3.363   4.882  1.4143 -0.1499 -0.6774
  316MOL0     H41704   9.305   3.320   4.803  1.1255  0.2285 -0.8963
  316MOL0     H41705   9.188   3.191   4.790 -0.5952  1.7038 -0.2870
  316MOL0     H41706   9.287   3.397   4.581 -0.0148  0.3633 -0.2623
  316MOL0     H41707   9.180   3.266   4.545 -0.3547  0.3870 -0.9314
  316MOL0     H41708   9.363   3.088   4.620 -0.0547 -1.2271 -2.8355
  316MOL0     H41709   9.392   3.186   4.482 -1.5957  2.7361 -0.0822
  316MOL0     H41710   9.695   3.327   4.737  0.6115 -0.6093  0.8625
  316MOL0     H41711   8.917   3.501   4.924  2.5963  0.9918  0.6491
  316MOL0     H41712   8.738   3.670   4.951 -1.9717 -0.6459 -1.4758
  317MOL0     O41713   8.652   9.665   0.011  0.3337  0.1941  0.1296
  317MOL0     C41714   8.726   9.628   0.104  0.3301  0.3137 -0.3168
  317MOL0     O41715   8.705   9.518   0.186 -0.1193 -0.0685 -0.2947
  317MOL0     C41716   8.580   9.459   0.186 -0.1623 -0.8453 -0.7106
  317MOL0     C41717   8.491   9.425   0.090  0.1708  1.1599  0.1377
  317MOL0     C41718   8.364   9.361   0.128  0.2103  0.3631 -0.3259
  317MOL0     C41719   8.336   9.326   0.256  0.6813  0.0374 -0.4701
  317MOL0     O41720   8.208   9.282   0.270 -0.5251  0.2346  0.8222
  317MOL0     C41721   8.171   9.200   0.380  0.8065 -0.0598 -0.5413
  317MOL0     C41722   8.025   9.156   0.367 -0.0773 -0.6861  0.1457
  317MOL0     C41723   7.925   9.268   0.341  0.1486  0.0715 -0.4596
  317MOL0     C41724   7.777   9.211   0.338 -0.4586 -0.3673  0.5256
  317MOL0     C41725   7.676   9.325   0.327 -0.3733  0.2706 -0.5340
  317MOL0     C41726   7.536   9.279   0.368  1.0311 -0.5665  0.3555
  317MOL0     C41727   7.429   9.384   0.334  0.0417  0.1437  0.6006
  317MOL0     C41728   7.298   9.344   0.394  0.1355  0.6439 -0.3462
  317MOL0     N41729   7.191   9.438   0.374  0.0117  0.0812 -0.3548
  317MOL0     C41730   7.150   9.536   0.468  1.1716 -0.2480 -0.8598
  317MOL0     C41731   7.032   9.587   0.411 -0.9349  0.2155 -0.6774
  317MOL0     C41732   6.956   9.701   0.462 -0.0309 -0.6844  0.1047
  317MOL0     C41733   6.804   9.667   0.472 -0.4693 -0.3832  0.0815
  317MOL0     C41734   6.717   9.787   0.518 -0.3172  0.1409 -0.0110
  317MOL0     C41735   6.693   9.902   0.412  0.4004 -0.3346 -0.8437
  317MOL0     O41736   6.628   9.837   0.300  0.7382  0.3466  0.1576
  317MOL0     C41737   6.494   9.855   0.280 -0.7592 -0.0658 -0.4907
  317MOL0     C41738   6.436   9.832   0.158  0.3783  0.3750 -0.3061
  317MOL0     C41739   6.297   9.835   0.133  0.5149  0.8977 -0.2977
  317MOL0     C41740   6.208   9.849   0.242  0.6655  0.9124 -0.1332
  317MOL0     C41741   6.058   9.833   0.217 -0.3239 -0.4852  0.6148
  317MOL0     O41742   5.974   9.830   0.323  0.1193 -0.4395  0.2096
  317MOL0     C41743   5.842   9.837   0.313  0.9629 -1.3969  0.2732
  317MOL0     C41744   5.773   9.814   0.430 -0.5322 -0.2242  0.2678
  317MOL0     C41745   5.638   9.807   0.435  0.6427 -0.9448  0.0605
  317MOL0     C41746   5.559   9.839   0.322 -0.2088 -0.1949  0.1869
  317MOL0     O41747   5.428   9.816   0.313 -0.8509 -0.5751  1.0985
  317MOL0     C41748   5.358   9.808   0.434  0.1652 -0.6107  0.8677
  317MOL0     C41749   5.215   9.758   0.394  0.0384  1.0539  0.3843
  317MOL0     C41750   5.118   9.743   0.512  0.2310 -0.1475 -0.7793
  317MOL0     C41751   4.990   9.679   0.454  0.3504  0.4874 -0.3233
  317MOL0     C41752   4.855   9.720   0.526  0.1585  0.2329 -0.3534
  317MOL0     C41753   4.837   9.862   0.566  0.2988 -0.4637  0.3568
  317MOL0     C41754   4.851   9.972   0.456 -0.0570  0.6388 -0.3534
  317MOL0     C41755   4.762   9.939   0.334  0.2963 -0.5010 -0.3843
  317MOL0    Cl41756   4.597   9.939   0.401  0.3987 -0.0804  0.0149
  317MOL0     C41757   5.623   9.878   0.208  0.7215  0.3146 -0.5743
  317MOL0     C41758   5.763   9.879   0.200 -0.2939  0.2431  0.0605
  317MOL0     O41759   6.021   9.810   0.103 -0.5615  0.1569  0.7244
  317MOL0     C41760   6.263   9.875   0.366  0.9018  0.2564 -0.1925
  317MOL0     C41761   6.402   9.880   0.389  0.4226  0.1672 -0.1654
  317MOL0     N41762   7.018   9.528   0.288 -0.3385  0.3941 -0.3220
  317MOL0     N41763   7.101   9.439   0.278 -0.1070 -0.5938  0.5746
  317MOL0     C41764   8.430   9.356   0.352  0.7175  1.0027  0.0331
  317MOL0     C41765   8.545   9.425   0.314 -0.6172 -0.3806 -0.3256
  317MOL0     C41766   8.853   9.704   0.114 -0.4161  0.1108  0.4238
  317MOL0     C41767   8.937   9.692   0.229  0.6161  0.1819  0.0558
  317MOL0     C41768   9.058   9.755   0.239  0.1122 -0.2849 -0.6463
  317MOL0     C41769   9.102   9.837   0.142 -0.2594 -0.2868 -0.4609
  317MOL0     O41770   9.219   9.906   0.139 -0.9220  0.1462  0.1020
  317MOL0     C41771   9.326   9.858   0.232 -0.0898 -0.5007 -0.0710
  317MOL0     C41772   9.430   9.961   0.241  0.8245 -0.3341 -0.0454
  317MOL0     C41773   9.523   9.946   0.124  0.6093  0.6670  0.1179
  317MOL0     C41774   9.625  10.053   0.125 -0.2078  0.4738 -0.1467
  317MOL0     C41775   9.736  10.024   0.043 -0.6304  0.3903 -0.1650
  317MOL0     C41776   9.839  10.009  -0.023 -0.0598  0.6193  0.5647
  317MOL0     C41777   9.029   9.851   0.024 -0.1262 -0.6588 -0.0556
  317MOL0     C41778   8.909   9.779   0.007 -0.2211  0.3343  1.2111
  317MOL0     H41779   8.508   9.438  -0.016  1.5092 -0.6095  0.0869
  317MOL0     H41780   8.290   9.347   0.050  0.0878  0.4811 -0.2301
  317MOL0     H41781   8.189   9.257   0.472 -0.8981 -0.0015 -0.2079
  317MOL0     H41782   8.233   9.110   0.377  1.3309  0.2177  1.0067
  317MOL0     H41783   8.008   9.106   0.463 -0.4775 -0.6039  0.1195
  317MOL0     H41784   8.021   9.089   0.281 -2.0305 -0.6124  0.1351
  317MOL0     H41785   7.951   9.313   0.245 -0.3729  0.9409 -0.2022
  317MOL0     H41786   7.946   9.337   0.423  2.6796 -1.5931  0.4214
  317MOL0     H41787   7.770   9.146   0.251  0.5347  0.9645 -0.6075
  317MOL0     H41788   7.760   9.161   0.433  0.9233  1.1485  1.6248
  317MOL0     H41789   7.670   9.366   0.226 -0.2048 -4.1706 -2.5664
  317MOL0     H41790   7.711   9.394   0.405 -1.1599 -2.6500  2.6700
  317MOL0     H41791   7.529   9.245   0.471  5.2909 -2.4824  0.2560
  317MOL0     H41792   7.507   9.194   0.305  0.7972  0.3128 -0.7529
  317MOL0     H41793   7.456   9.481   0.377  0.4855 -0.0873  0.8550
  317MOL0     H41794   7.416   9.402   0.227 -1.0443  3.9839  1.2235
  317MOL0     H41795   7.316   9.341   0.502 -1.7965  3.8833  0.2016
  317MOL0     H41796   7.275   9.245   0.352  2.7600 -1.2292  2.2109
  317MOL0     H41797   7.211   9.576   0.548  1.3061  0.4937 -1.3235
  317MOL0     H41798   6.977   9.780   0.389  0.9191 -0.5221  0.5404
  317MOL0     H41799   7.002   9.736   0.555 -0.5134 -0.1268  0.1395
  317MOL0     H41800   6.797   9.595   0.554  0.1089  1.5058  1.9100
  317MOL0     H41801   6.761   9.633   0.378 -0.7518  1.8744 -0.6704
  317MOL0     H41802   6.623   9.752   0.561  0.8111 -2.5993  0.4407
  317MOL0     H41803   6.782   9.823   0.599 -0.3225  0.9297 -0.3470
  317MOL0     H41804   6.791   9.937   0.378  0.7215 -0.6532 -0.2618
  317MOL0     H41805   6.634   9.985   0.453 -0.8929 -0.7848 -1.7091
  317MOL0     H41806   6.499   9.818   0.071  0.8730 -1.0356  0.2552
  317MOL0     H41807   6.262   9.819   0.032 -3.3024 -3.2404  1.3436
  317MOL0     H41808   5.834   9.789   0.516  2.0043 -2.5274 -1.9627
  317MOL0     H41809   5.598   9.786   0.533  0.9296 -0.1896  0.3502
  317MOL0     H41810   5.352   9.914   0.460  3.3649  0.0891 -0.7690
  317MOL0     H41811   5.401   9.740   0.508  0.5510  1.1268  2.3043
  317MOL0     H41812   5.217   9.657   0.352  0.0745 -0.2582  3.2822
  317MOL0     H41813   5.183   9.831   0.320  2.4612  3.8261  1.8579
  317MOL0     H41814   5.100   9.845   0.546  0.2479  0.1497 -1.6427
  317MOL0     H41815   5.167   9.687   0.593  4.4365  1.5083 -1.8803
  317MOL0     H41816   4.978   9.695   0.346  1.1267  1.4843 -0.2847
  317MOL0     H41817   5.006   9.572   0.466  4.5990  1.1493  1.6157
  317MOL0     H41818   4.847   9.656   0.614  2.3847  1.6098  0.9252
  317MOL0     H41819   4.770   9.685   0.466  0.2441 -1.8459  0.6500
  317MOL0     H41820   4.911   9.877   0.645  1.3769 -1.3525 -0.4487
  317MOL0     H41821   4.742   9.879   0.617  0.4807  3.1686 -0.2387
  317MOL0     H41822   4.819  10.072   0.489 -1.4264 -0.0554  0.5418
  317MOL0     H41823   4.957   9.986   0.432 -0.0871 -0.5866 -1.3021
  317MOL0     H41824   4.773   9.846   0.278 -4.0740 -0.1148 -2.3884
  317MOL0     H41825   4.765  10.021   0.262 -0.6020  0.8821  1.0710
  317MOL0     H41826   5.562   9.898   0.121  0.2392 -2.0846 -0.8605
  317MOL0     H41827   5.808   9.906   0.105  1.8917  0.8904  1.2134
  317MOL0     H41828   6.192   9.889   0.447 -1.1416 -1.6779 -1.5274
  317MOL0     H41829   6.433   9.891   0.492 -1.8046 -0.2150  0.6095
  317MOL0     H41830   8.403   9.329   0.454  2.3941  1.8830  0.7511
  317MOL0     H41831   8.604   9.446   0.403 -3.3822  1.2176  1.2629
  317MOL0     H41832   8.908   9.626   0.311 -1.1744 -1.1425 -1.5703
  317MOL0     H41833   9.125   9.739   0.323  0.6637 -1.0594 -1.2206
  317MOL0     H41834   9.367   9.762   0.199 -1.1237 -2.8868  4.7675
  317MOL0     H41835   9.279   9.848   0.330  0.2622 -0.1081  0.1419
  317MOL0     H41836   9.394  10.064   0.252 -1.9399 -1.2056 -0.1205
  317MOL0     H41837   9.479   9.952   0.338 -1.8260  0.7861  1.4928
  317MOL0     H41838   9.470   9.955   0.028 -0.3990  3.4787  0.8212
  317MOL0     H41839   9.568   9.847   0.123  1.1022  0.7351 -4.0819
  317MOL0     H41840   9.579  10.143   0.084  0.3029 -0.0514 -1.9515
  317MOL0     H41841   9.661  10.069   0.228  1.7809  1.8740 -1.0000
  317MOL0     H41842   9.929  10.001  -0.080 -0.2056 -1.5502  0.5490
  317MOL0     H41843   9.056   9.910  -0.063 -2.0011  0.1570 -0.1217
  317MOL0     H41844   8.852   9.802  -0.082 -0.2375  1.3701  1.4690
  318MOL0     O41845   7.143   8.605  11.047  0.1066 -0.0139  0.0671
  318MOL0     C41846   7.190   8.685  10.975 -0.7703  0.6190  0.1551
  318MOL0     O41847   7.116   8.761  10.882 -0.0910 -0.0484 -0.1195
  318MOL0     C41848   6.981   8.770  10.875 -0.0481 -0.1661  0.0471
  318MOL0     C41849   6.906   8.652  10.874 -0.0142  0.2389 -0.0419
  318MOL0     C41850   6.774   8.663  10.856  0.9236  0.1019 -0.7014
  318MOL0     C41851   6.701   8.781  10.849  0.0883  0.0312  0.7857
  318MOL0     O41852   6.566   8.796  10.833 -0.9135  0.0585 -0.1268
  318MOL0     C41853   6.469   8.689  10.835  0.2135 -0.1912  0.7015
  318MOL0     C41854   6.451   8.624  10.969 -0.0116  0.6256  0.5919
  318MOL0     C41855   6.331   8.542  11.002  0.2661 -0.2123  0.3239
  318MOL0     C41856   6.201   8.621  11.005 -0.6097 -0.4089 -1.3367
  318MOL0     C41857   6.191   8.697  11.148  0.0065  0.0217  0.0978
  318MOL0     C41858   6.102   8.825  11.138 -0.1845  0.8545 -0.6096
  318MOL0     C41859   5.966   8.815  11.062  0.0737 -0.4668 -0.4243
  318MOL0     C41860   5.870   8.758  11.157 -0.7279 -0.1847  0.3440
  318MOL0     N41861   5.742   8.745  11.088 -0.1920  0.2039 -0.5168
  318MOL0     C41862   5.654   8.848  11.058 -0.2948 -0.2914 -0.0906
  318MOL0     C41863   5.558   8.797  10.980 -0.4112  0.5584  0.2885
  318MOL0     C41864   5.439   8.861  10.921 -1.0873 -0.3611 -0.5222
  318MOL0     C41865   5.314   8.858  11.004  0.2453 -0.2740 -0.1195
  318MOL0     C41866   5.268   8.714  11.034  0.3150 -0.0879  0.8375
  318MOL0     C41867   5.124   8.696  11.082 -0.8387  0.5557  0.9099
  318MOL0     O41868   5.090   8.566  11.031 -0.3375  0.2671 -0.0328
  318MOL0     C41869   4.963   8.514  11.049 -0.7702 -0.5647 -0.4671
  318MOL0     C41870   4.876   8.576  11.142 -0.6503  0.0401  0.0079
  318MOL0     C41871   4.745   8.524  11.159 -1.0033 -0.8779 -0.3881
  318MOL0     C41872   4.702   8.406  11.100  0.1389  0.7074 -1.0408
  318MOL0     C41873   4.580   8.336  11.138  0.3842 -0.4772 -0.3431
  318MOL0     O41874   4.556   8.205  11.099  0.5678  0.1242 -0.7481
  318MOL0     C41875   4.432   8.151  11.119 -0.5284 -0.1087  0.2260
  318MOL0     C41876   4.324   8.207  11.048 -0.1827  0.4147 -0.5699
  318MOL0     C41877   4.201   8.132  11.050  0.4208 -0.2980  0.1359
  318MOL0     C41878   4.181   8.011  11.111 -0.4189 -0.9743 -1.1171
  318MOL0     O41879   4.056   7.948  11.105  0.6021 -0.1666  0.8402
  318MOL0     C41880   3.944   8.036  11.126 -0.5514  1.1940  0.3752
  318MOL0     C41881   3.822   7.952  11.142  0.5227 -0.3316 -0.4068
  318MOL0     C41882   3.800   7.845  11.035  0.2072 -0.6176 -0.5156
  318MOL0     C41883   3.773   7.891  10.894  0.3488  0.8876 -0.0552
  318MOL0     C41884   3.766   7.774  10.795 -0.4109  0.7507  0.5619
  318MOL0     C41885   3.687   7.645  10.842  0.9698  0.6207  0.6525
  318MOL0     C41886   3.538   7.638  10.881  0.2221  0.0694  0.8498
  318MOL0     C41887   3.463   7.719  10.785 -0.0867 -0.3968 -0.2911
  318MOL0    Cl41888   3.293   7.744  10.839 -0.2793 -0.0563  0.1638
  318MOL0     C41889   4.277   7.978  11.209  0.1586  0.2006 -0.4884
  318MOL0     C41890   4.403   8.043  11.210  0.1611  0.5902  0.7421
  318MOL0     O41891   4.500   8.403  11.207 -0.5420  0.4992  0.0796
  318MOL0     C41892   4.803   8.335  11.021  0.2809 -0.3397 -0.0538
  318MOL0     C41893   4.925   8.393  10.996 -0.3219  0.1409  0.3508
  318MOL0     N41894   5.586   8.664  10.969 -0.4399 -0.5739 -0.3145
  318MOL0     N41895   5.689   8.631  11.041 -0.5376  0.5040  0.0364
  318MOL0     C41896   6.773   8.893  10.859 -0.0993 -0.1187 -0.2759
  318MOL0     C41897   6.909   8.889  10.875  0.2028 -0.0318  0.4688
  318MOL0     C41898   7.335   8.685  10.969 -0.2880 -0.6046 -0.6636
  318MOL0     C41899   7.410   8.623  11.063 -0.1360  0.5349 -0.5240
  318MOL0     C41900   7.548   8.623  11.054  0.4025  0.0627 -0.9476
  318MOL0     C41901   7.610   8.696  10.953  0.0823 -0.2429 -0.4638
  318MOL0     O41902   7.747   8.705  10.941 -0.5490 -0.3165  0.1869
  318MOL0     C41903   7.832   8.589  10.960  0.6111 -0.2580 -0.6886
  318MOL0     C41904   7.936   8.579  10.843  0.3662 -0.1036  0.1464
  318MOL0     C41905   7.865   8.544  10.712  0.0519  0.1943 -0.9948
  318MOL0     C41906   7.975   8.508  10.608 -0.4853 -0.6834 -0.2571
  318MOL0     C41907   7.899   8.467  10.488 -0.7071  0.1851 -0.5335
  318MOL0     C41908   7.852   8.423  10.394 -0.1600 -0.2882  0.0330
  318MOL0     C41909   7.532   8.769  10.863  0.1811 -1.1445 -0.4772
  318MOL0     C41910   7.394   8.758  10.863 -0.2837  0.8828 -0.3532
  318MOL0     H41911   6.955   8.556  10.884 -0.4881 -0.3489 -2.5533
  318MOL0     H41912   6.724   8.568  10.868  1.2871  0.0264  0.3294
  318MOL0     H41913   6.500   8.619  10.757 -0.0548  2.3517 -1.8514
  318MOL0     H41914   6.371   8.726  10.805  0.3008 -0.7263 -0.2984
  318MOL0     H41915   6.459   8.712  11.033  1.4144 -0.5780  2.1699
  318MOL0     H41916   6.531   8.552  10.987 -0.3636  0.3164  0.9712
  318MOL0     H41917   6.357   8.501  11.101 -2.5843  1.2058  1.7889
  318MOL0     H41918   6.311   8.449  10.947  1.4422 -2.2458  3.0752
  318MOL0     H41919   6.194   8.699  10.929 -0.8834  0.5841 -0.3153
  318MOL0     H41920   6.117   8.551  10.998  1.0559 -2.8912  1.2140
  318MOL0     H41921   6.294   8.721  11.177 -1.1189  0.6178  4.2641
  318MOL0     H41922   6.150   8.630  11.224  1.8063 -3.0670 -1.4679
  318MOL0     H41923   6.167   8.896  11.085 -0.2603  1.4946  0.1333
  318MOL0     H41924   6.076   8.865  11.236 -2.3196 -1.3181 -0.2104
  318MOL0     H41925   5.935   8.915  11.028 -0.6808 -1.2554 -2.1972
  318MOL0     H41926   5.972   8.762  10.966  0.4744  1.8720 -1.7703
  318MOL0     H41927   5.853   8.828  11.240 -1.4181 -1.7214  1.5491
  318MOL0     H41928   5.910   8.667  11.202  2.2723  1.4924  1.3544
  318MOL0     H41929   5.659   8.953  11.085 -1.5517 -0.3561  0.4654
  318MOL0     H41930   5.421   8.801  10.831 -3.9084 -3.5203  1.8638
  318MOL0     H41931   5.456   8.964  10.889  3.7181  0.5441  3.5765
  318MOL0     H41932   5.239   8.911  10.945 -1.0464 -0.0361  1.6548
  318MOL0     H41933   5.316   8.906  11.102  3.3395 -0.8495  0.2020
  318MOL0     H41934   5.293   8.641  10.956 -2.9052 -0.9864  0.5111
  318MOL0     H41935   5.335   8.686  11.116  1.2212  3.1456  1.3498
  318MOL0     H41936   5.063   8.770  11.030  0.6507  0.0865 -1.6696
  318MOL0     H41937   5.118   8.702  11.191 -0.5680  0.7341  0.9146
  318MOL0     H41938   4.912   8.664  11.196  1.2652 -0.3439 -0.5796
  318MOL0     H41939   4.670   8.576  11.218 -0.1349 -0.7176  0.6067
  318MOL0     H41940   4.323   8.293  10.982 -0.6747  2.1727  1.6428
  318MOL0     H41941   4.124   8.168  10.982 -1.8913 -0.1404  2.6695
  318MOL0     H41942   3.926   8.096  11.036 -3.2164 -1.2652 -0.8810
  318MOL0     H41943   3.953   8.098  11.216  0.0354 -0.5478  1.5716
  318MOL0     H41944   3.744   8.029  11.138  0.6188 -0.0147  2.0514
  318MOL0     H41945   3.813   7.926  11.248 -0.1568  0.3514 -0.2878
  318MOL0     H41946   3.720   7.786  11.079  3.0456 -2.0244  3.3741
  318MOL0     H41947   3.879   7.769  11.040  1.8245  0.9117 -1.4367
  318MOL0     H41948   3.677   7.941  10.892  0.7711  1.7548  0.7173
  318MOL0     H41949   3.840   7.965  10.850 -1.8083  2.5333 -0.7166
  318MOL0     H41950   3.868   7.743  10.775 -0.5117 -1.0986  2.6156
  318MOL0     H41951   3.726   7.808  10.698 -0.4803 -0.4909  0.1345
  318MOL0     H41952   3.745   7.606  10.926  3.4977  2.2429 -0.2521
  318MOL0     H41953   3.700   7.573  10.761  0.0712  0.2708  0.8089
  318MOL0     H41954   3.497   7.537  10.872 -1.3274  0.2243  4.4207
  318MOL0     H41955   3.522   7.679  10.982  0.3278  0.4248  0.7235
  318MOL0     H41956   3.467   7.679  10.683 -0.9325  2.0379 -1.3554
  318MOL0     H41957   3.506   7.820  10.781  1.9040 -1.2233 -1.5052
  318MOL0     H41958   4.268   7.901  11.285 -2.8466  1.8255  0.9581
  318MOL0     H41959   4.483   8.017  11.279  0.2717 -2.8428 -0.4792
  318MOL0     H41960   4.776   8.243  10.971  0.3205  0.8784 -2.4859
  318MOL0     H41961   4.981   8.324  10.934 -1.3001 -0.2094 -0.1664
  318MOL0     H41962   6.725   8.990  10.860 -2.3160 -1.1531 -0.2304
  318MOL0     H41963   6.967   8.981  10.876  1.6472 -0.8137 -1.9041
  318MOL0     H41964   7.361   8.574  11.146  1.3537  0.6327  0.4479
  318MOL0     H41965   7.604   8.572  11.131 -0.0535  0.3411 -0.4304
  318MOL0     H41966   7.767   8.501  10.949  1.5787 -1.4318  1.9502
  318MOL0     H41967   7.878   8.583  11.059 -1.8635 -1.7440  0.4778
  318MOL0     H41968   7.991   8.673  10.833 -1.9065  1.7002  2.9277
  318MOL0     H41969   8.003   8.495  10.866 -0.5970 -0.7148  0.7905
  318MOL0     H41970   7.822   8.633  10.665 -0.0437  0.2771 -0.7510
  318MOL0     H41971   7.781   8.475  10.724 -1.8072  2.6794  1.8222
  318MOL0     H41972   8.042   8.587  10.574 -0.7238  0.0069  0.8517
  318MOL0     H41973   8.042   8.433  10.652 -2.5191 -0.3563  3.8003
  318MOL0     H41974   7.829   8.376  10.300 -0.0038 -0.1221 -0.0894
  318MOL0     H41975   7.578   8.839  10.795  2.2595  1.3528  3.1502
  318MOL0     H41976   7.337   8.817  10.792  0.3305 -0.6403 -2.1904
  319MOL0     O41977   7.483   8.579   7.931  0.0223 -0.6042 -0.8237
  319MOL0     C41978   7.541   8.474   7.905  0.4094  0.6116  0.0324
  319MOL0     O41979   7.483   8.349   7.897 -0.0221 -0.3573  1.0513
  319MOL0     C41980   7.347   8.328   7.904 -0.5709  0.4337 -0.0490
  319MOL0     C41981   7.308   8.216   7.833 -0.0305  0.3340  0.1604
  319MOL0     C41982   7.174   8.189   7.822 -0.4922  0.6424 -0.5447
  319MOL0     C41983   7.070   8.251   7.894  0.4783 -1.2873 -0.8821
  319MOL0     O41984   6.941   8.219   7.875  1.0841 -0.5054  0.1395
  319MOL0     C41985   6.870   8.326   7.809 -0.2963  0.3568  0.9488
  319MOL0     C41986   6.765   8.261   7.717  0.9375 -0.8464 -0.2669
  319MOL0     C41987   6.667   8.371   7.664 -0.5018 -0.7242  0.0174
  319MOL0     C41988   6.733   8.468   7.565  0.2787  0.3932  0.1722
  319MOL0     C41989   6.630   8.568   7.520  0.2540  1.0432 -0.2163
  319MOL0     C41990   6.686   8.678   7.423  0.2108 -0.4654  0.5283
  319MOL0     C41991   6.752   8.623   7.291 -0.0687 -0.0456  0.0080
  319MOL0     C41992   6.673   8.660   7.168 -0.8999 -0.6407  0.7883
  319MOL0     N41993   6.569   8.565   7.118  0.7117 -0.4737 -0.5870
  319MOL0     C41994   6.437   8.564   7.141 -0.0672 -0.4727 -0.7167
  319MOL0     C41995   6.384   8.468   7.057  0.5697 -0.0516  0.6710
  319MOL0     C41996   6.234   8.430   7.041 -0.0450  0.9250  0.3597
  319MOL0     C41997   6.169   8.528   6.950 -0.2905 -0.2594  0.9004
  319MOL0     C41998   6.028   8.482   6.935 -0.4842 -0.4100  0.0296
  319MOL0     C41999   5.937   8.591   6.864  0.6113  0.1015  0.1760
  319MOL0     O42000   5.800   8.540   6.895  0.2059  0.3023  0.2874
  319MOL0     C42001   5.695   8.569   6.815  0.0425  0.1165  0.2263
  319MOL0     C42002   5.699   8.668   6.710 -0.0474 -0.4857 -0.0258
  319MOL0     C42003   5.576   8.713   6.661 -0.1286  0.3682  0.7905
  319MOL0     C42004   5.450   8.659   6.694 -0.2475  0.0844  0.1876
  319MOL0     C42005   5.332   8.706   6.620  0.2601 -0.6450 -0.3595
  319MOL0     O42006   5.218   8.647   6.647 -0.3462 -0.0681  0.1867
  319MOL0     C42007   5.095   8.685   6.596  0.8275 -0.5326 -0.3067
  319MOL0     C42008   5.013   8.600   6.521  0.0266 -0.1651 -0.4430
  319MOL0     C42009   4.895   8.649   6.459 -0.4706 -0.3286 -0.8600
  319MOL0     C42010   4.844   8.783   6.480 -0.8464  0.2099 -0.3001
  319MOL0     O42011   4.713   8.818   6.451  0.5717  0.0856  0.3049
  319MOL0     C42012   4.627   8.729   6.377  0.1861  0.0651  0.4451
  319MOL0     C42013   4.499   8.806   6.322  0.3378 -1.0786 -0.0628
  319MOL0     C42014   4.550   8.912   6.218 -0.3041  0.8715  0.7263
  319MOL0     C42015   4.438   8.960   6.127  0.6423 -0.3431 -0.0427
  319MOL0     C42016   4.488   9.034   5.994  0.1464 -0.6229 -0.3369
  319MOL0     C42017   4.372   9.045   5.895 -0.3839  0.2533 -0.5535
  319MOL0     C42018   4.410   9.156   5.790  0.8562  0.8984 -0.0167
  319MOL0     C42019   4.296   9.163   5.685 -1.2782 -0.4892 -0.5473
  319MOL0    Cl42020   4.168   9.254   5.768  0.2274 -0.1092  0.4195
  319MOL0     C42021   4.923   8.863   6.558  1.0147 -0.0395  0.6517
  319MOL0     C42022   5.050   8.817   6.607 -0.3933  0.5274  1.1478
  319MOL0     O42023   5.352   8.802   6.547  0.5112 -0.0644  0.2864
  319MOL0     C42024   5.447   8.549   6.778 -0.0118  0.3699 -0.5046
  319MOL0     C42025   5.566   8.507   6.843 -0.6581 -0.7516 -0.0874
  319MOL0     N42026   6.487   8.405   6.992 -0.0921  0.3169  0.3851
  319MOL0     N42027   6.596   8.465   7.031  0.5910  0.1462  0.3210
  319MOL0     C42028   7.113   8.354   7.977  0.2602 -0.0698 -0.5273
  319MOL0     C42029   7.246   8.396   7.985 -0.5373  1.1124  0.1277
  319MOL0     C42030   7.679   8.482   7.854 -0.6982  0.5928  0.9137
  319MOL0     C42031   7.753   8.367   7.826 -0.2177  0.5567 -0.0511
  319MOL0     C42032   7.889   8.377   7.806  0.0741 -0.1952  0.2289
  319MOL0     C42033   7.955   8.502   7.800  0.7540 -0.7127  0.5479
  319MOL0     O42034   8.087   8.502   7.775 -0.0830  0.1640  1.1764
  319MOL0     C42035   8.130   8.548   7.642  0.1736 -0.2612  0.6268
  319MOL0     C42036   8.275   8.609   7.651  0.1834  0.7567  0.4301
  319MOL0     C42037   8.382   8.501   7.671 -0.1308 -1.2989  0.8276
  319MOL0     C42038   8.531   8.549   7.670 -0.9515  0.1203  0.8458
  319MOL0     C42039   8.637   8.443   7.675 -0.5249  0.7303  0.3890
  319MOL0     C42040   8.729   8.363   7.680 -0.1330  0.5264 -0.1394
  319MOL0     C42041   7.875   8.618   7.804  0.0821  0.3169 -0.5872
  319MOL0     C42042   7.738   8.606   7.834  0.2840  0.5125  0.3073
  319MOL0     H42043   7.385   8.162   7.779  0.0328 -2.7114  2.9556
  319MOL0     H42044   7.125   8.119   7.756 -2.1001  1.5169 -0.3257
  319MOL0     H42045   6.939   8.388   7.752 -0.1374  1.2914  2.1073
  319MOL0     H42046   6.816   8.399   7.871  1.6986  3.3671 -0.6079
  319MOL0     H42047   6.693   8.199   7.772 -0.0208 -0.4597 -1.0573
  319MOL0     H42048   6.808   8.195   7.641 -2.6609 -3.4848 -0.2793
  319MOL0     H42049   6.617   8.421   7.747 -5.2740 -1.2291 -2.2139
  319MOL0     H42050   6.599   8.309   7.604  1.3781 -3.3019  0.3762
  319MOL0     H42051   6.808   8.524   7.623 -0.2557 -0.4051  1.6809
  319MOL0     H42052   6.781   8.411   7.485 -1.6504 -0.9031 -0.1262
  319MOL0     H42053   6.593   8.625   7.606 -1.1411  1.5748 -1.1277
  319MOL0     H42054   6.537   8.522   7.483 -0.2753  0.8458  1.2782
  319MOL0     H42055   6.761   8.740   7.474  0.7281  0.2209 -1.0050
  319MOL0     H42056   6.605   8.747   7.397  1.8996  0.5084 -2.6860
  319MOL0     H42057   6.848   8.675   7.299 -2.2678  4.6848 -1.0803
  319MOL0     H42058   6.768   8.515   7.299  0.3987 -0.0358 -0.7217
  319MOL0     H42059   6.755   8.675   7.097 -2.6722  5.0923 -0.5739
  319MOL0     H42060   6.630   8.760   7.173  0.2031 -0.1931  2.0436
  319MOL0     H42061   6.385   8.633   7.207  0.2910 -0.3830 -0.5243
  319MOL0     H42062   6.180   8.435   7.136  1.9716 -2.7908  1.8838
  319MOL0     H42063   6.223   8.331   6.996 -1.4969  1.2406 -0.0267
  319MOL0     H42064   6.215   8.526   6.851 -3.0664  1.4068 -0.5358
  319MOL0     H42065   6.182   8.629   6.992  1.3357  0.2495 -0.7092
  319MOL0     H42066   6.028   8.388   6.879  2.0425  0.2569 -1.2283
  319MOL0     H42067   5.983   8.461   7.033  2.4081 -2.3596  1.0653
  319MOL0     H42068   5.959   8.594   6.757  1.9510  2.3502  0.4424
  319MOL0     H42069   5.951   8.688   6.912 -0.2844 -0.8041  2.4303
  319MOL0     H42070   5.794   8.716   6.688  0.0471 -0.0752  1.2117
  319MOL0     H42071   5.581   8.785   6.581 -1.2913 -0.0338  0.3320
  319MOL0     H42072   5.043   8.497   6.505  2.9586  0.5870 -0.3033
  319MOL0     H42073   4.837   8.565   6.421 -0.7893 -0.9258  0.8712
  319MOL0     H42074   4.603   8.645   6.443  0.8137 -0.3816  0.1255
  319MOL0     H42075   4.676   8.681   6.291 -2.8231 -0.0561 -1.3456
  319MOL0     H42076   4.446   8.864   6.398  1.4725  1.4000 -1.0506
  319MOL0     H42077   4.420   8.743   6.282 -2.5065  1.7396  0.7435
  319MOL0     H42078   4.624   8.859   6.157 -1.0083  0.2860  0.3693
  319MOL0     H42079   4.592   9.002   6.264 -0.9393 -0.2944  3.8709
  319MOL0     H42080   4.378   8.870   6.111  0.3911 -0.0061 -1.0730
  319MOL0     H42081   4.371   9.024   6.185 -0.0366 -1.1126  0.0411
  319MOL0     H42082   4.566   8.972   5.950  0.6900  0.7031 -1.3065
  319MOL0     H42083   4.541   9.123   6.027  0.7479 -1.4031  0.8891
  319MOL0     H42084   4.282   9.075   5.950 -0.2155 -1.0238  0.4677
  319MOL0     H42085   4.359   8.946   5.852  0.9166 -1.1266  1.9735
  319MOL0     H42086   4.422   9.253   5.838  0.1195  1.3154 -0.6631
  319MOL0     H42087   4.502   9.122   5.741  0.7701  1.8969 -0.8958
  319MOL0     H42088   4.257   9.067   5.648 -0.1425 -1.7078  1.2554
  319MOL0     H42089   4.336   9.229   5.607 -1.2963  2.1971  1.5795
  319MOL0     H42090   4.877   8.957   6.586 -1.2296 -0.9756  0.3227
  319MOL0     H42091   5.125   8.891   6.636  0.2092  1.2545 -1.9115
  319MOL0     H42092   5.357   8.491   6.791 -1.2267  2.2638 -0.0062
  319MOL0     H42093   5.558   8.447   6.933  1.2136  0.9743  1.3356
  319MOL0     H42094   7.035   8.408   8.029  1.5080 -0.0196  1.3693
  319MOL0     H42095   7.271   8.478   8.052 -0.4552  0.5489  0.7969
  319MOL0     H42096   7.712   8.267   7.838  2.6534 -0.4641  2.7225
  319MOL0     H42097   7.948   8.289   7.784 -1.3596 -0.7048 -1.8777
  319MOL0     H42098   8.058   8.624   7.611  1.6816  0.1119 -2.3119
  319MOL0     H42099   8.127   8.475   7.561  1.2799  2.3098 -1.9088
  319MOL0     H42100   8.289   8.659   7.554  1.0049  3.9414  2.0566
  319MOL0     H42101   8.264   8.691   7.722  0.3925  0.0550  1.2804
  319MOL0     H42102   8.360   8.433   7.589 -2.0159  1.6575 -1.3316
  319MOL0     H42103   8.370   8.444   7.764  1.3314 -2.4459  0.3549
  319MOL0     H42104   8.541   8.593   7.570 -2.9736 -2.6920 -0.7131
  319MOL0     H42105   8.552   8.607   7.761  0.5159 -2.3424  2.1815
  319MOL0     H42106   8.805   8.289   7.697  4.4650  4.3357 -1.9664
  319MOL0     H42107   7.919   8.716   7.788 -1.6709  1.2060 -0.1169
  319MOL0     H42108   7.683   8.700   7.829  0.8602  0.8233 -0.5189
  320MOL0     O42109   3.145   0.248   5.163  0.2271 -0.0633  0.0943
  320MOL0     C42110   3.186   0.152   5.098  0.7445  0.5415  0.3748
  320MOL0     O42111   3.152   0.020   5.119 -0.2564 -0.3180 -0.6913
  320MOL0     C42112   3.044  -0.011   5.200  0.2016 -0.1852 -0.1194
  320MOL0     C42113   3.053   0.008   5.340  0.1197  0.6697  0.1766
  320MOL0     C42114   2.948  -0.037   5.426 -0.1253  0.3302  0.0240
  320MOL0     C42115   2.821  -0.062   5.363 -0.5684 -0.0778  0.1812
  320MOL0     O42116   2.720  -0.107   5.442 -0.3360  0.2085 -0.3679
  320MOL0     C42117   2.624  -0.194   5.398 -0.5843  0.1135  0.5187
  320MOL0     C42118   2.559  -0.254   5.525 -0.2397 -0.1922 -0.1794
  320MOL0     C42119   2.429  -0.340   5.497  0.7603 -0.2380  0.1416
  320MOL0     C42120   2.369  -0.406   5.625  0.1591 -0.3356  0.4055
  320MOL0     C42121   2.262  -0.517   5.595  0.1252 -0.6396  0.1137
  320MOL0     C42122   2.125  -0.447   5.554 -0.5143 -0.4001  0.2294
  320MOL0     C42123   2.010  -0.536   5.609  0.4945  0.7432  0.1404
  320MOL0     C42124   1.877  -0.452   5.587 -0.9084 -0.0569  0.4434
  320MOL0     N42125   1.764  -0.509   5.658  0.0820 -0.0049  0.0766
  320MOL0     C42126   1.689  -0.616   5.611 -0.2230  0.1520 -0.4403
  320MOL0     C42127   1.591  -0.632   5.707  1.4724  0.3974  1.2720
  320MOL0     C42128   1.487  -0.744   5.688 -0.0818 -0.0486 -0.0168
  320MOL0     C42129   1.410  -0.766   5.817 -0.9641 -1.1996 -0.2655
  320MOL0     C42130   1.329  -0.883   5.831  0.5106  0.6392  0.5390
  320MOL0     C42131   1.223  -0.899   5.724 -0.1236 -0.3192 -0.1230
  320MOL0     O42132   1.167  -1.031   5.718 -0.1256  0.2223 -0.7460
  320MOL0     C42133   1.056  -1.061   5.788 -0.6245 -0.0535 -0.9698
  320MOL0     C42134   0.984  -0.974   5.863  0.1187 -0.3215  0.4305
  320MOL0     C42135   0.874  -1.021   5.935 -0.2756  0.1533 -0.9007
  320MOL0     C42136   0.840  -1.151   5.932 -0.5777 -0.0492 -1.0950
  320MOL0     C42137   0.730  -1.197   6.009  0.0493  0.4624  0.7518
  320MOL0     O42138   0.756  -1.314   6.075  0.3971  0.4535 -0.4424
  320MOL0     C42139   0.658  -1.379   6.146 -1.2081  0.3231 -0.7668
  320MOL0     C42140   0.520  -1.378   6.115  0.2854  0.1643  0.0965
  320MOL0     C42141   0.434  -1.459   6.191  0.2541  0.0632 -0.5461
  320MOL0     C42142   0.477  -1.549   6.287  0.7627  0.6390  0.3181
  320MOL0     O42143   0.392  -1.625   6.361 -0.6255  0.4300  0.2873
  320MOL0     C42144   0.427  -1.618   6.503 -0.0268 -0.8613 -0.4143
  320MOL0     C42145   0.328  -1.692   6.597  0.2666 -0.1624  0.0618
  320MOL0     C42146   0.338  -1.657   6.744 -0.5197 -0.5084 -0.0614
  320MOL0     C42147   0.484  -1.660   6.793 -0.0780 -0.2605 -0.1785
  320MOL0     C42148   0.507  -1.578   6.930  0.2250  0.3582 -0.2438
  320MOL0     C42149   0.646  -1.507   6.927  0.9844 -0.4510 -0.6278
  320MOL0     C42150   0.762  -1.602   6.965  0.3428 -0.9194 -0.6939
  320MOL0     C42151   0.895  -1.524   6.935 -1.6592 -0.0064 -0.8654
  320MOL0    Cl42152   1.021  -1.627   7.012  0.0460  0.1781  0.4471
  320MOL0     C42153   0.616  -1.551   6.310  0.5732  0.2270  0.0539
  320MOL0     C42154   0.704  -1.472   6.246  1.1049 -1.0019  0.4229
  320MOL0     O42155   0.619  -1.145   6.005  0.3286 -0.2086 -0.2586
  320MOL0     C42156   0.912  -1.247   5.865 -0.3438  0.6370  1.1589
  320MOL0     C42157   1.011  -1.196   5.781 -0.2373 -0.3846 -0.8534
  320MOL0     N42158   1.621  -0.546   5.815  0.0877 -0.2822  0.1671
  320MOL0     N42159   1.716  -0.469   5.776 -0.0392  0.4743  0.7834
  320MOL0     C42160   2.810  -0.059   5.225 -0.3893 -0.3264  1.0116
  320MOL0     C42161   2.919  -0.025   5.147  0.4217 -0.6498  0.1376
  320MOL0     C42162   3.272   0.191   4.981  0.0968  0.5082  0.3020
  320MOL0     C42163   3.293   0.328   4.950  0.1520 -0.1239  0.0427
  320MOL0     C42164   3.380   0.370   4.842 -0.8665  0.4461 -0.3384
  320MOL0     C42165   3.446   0.271   4.764 -0.3036  0.4514  0.0532
  320MOL0     O42166   3.522   0.318   4.659 -0.9504  0.6089 -0.2837
  320MOL0     C42167   3.665   0.314   4.666 -0.7246  0.2970 -0.0571
  320MOL0     C42168   3.716   0.400   4.539 -0.0351 -0.0745  0.0354
  320MOL0     C42169   3.864   0.394   4.525  0.1390 -1.1532  0.0786
  320MOL0     C42170   3.912   0.469   4.403  0.2350  0.6833 -0.2587
  320MOL0     C42171   4.050   0.410   4.368  0.4646 -0.8055 -0.4137
  320MOL0     C42172   4.157   0.383   4.336 -1.5108  0.4519 -0.4329
  320MOL0     C42173   3.441   0.142   4.815 -0.7524  0.8236  0.0587
  320MOL0     C42174   3.358   0.095   4.919  0.8297 -0.1811 -0.2612
  320MOL0     H42175   3.155   0.026   5.372 -0.1946  2.5783  0.2255
  320MOL0     H42176   2.972  -0.042   5.532  1.1314  0.3804 -0.2390
  320MOL0     H42177   2.672  -0.275   5.342  1.7544  2.3499 -0.9346
  320MOL0     H42178   2.548  -0.143   5.338 -1.6513 -2.0901 -0.1087
  320MOL0     H42179   2.556  -0.183   5.608  2.7367 -1.5893  1.2840
  320MOL0     H42180   2.633  -0.320   5.571 -1.0784  0.8459  2.9402
  320MOL0     H42181   2.449  -0.423   5.429 -1.8380 -1.9794  1.3193
  320MOL0     H42182   2.355  -0.273   5.451  0.2591 -0.9522 -0.1075
  320MOL0     H42183   2.455  -0.454   5.672 -0.1112 -3.0229 -1.5956
  320MOL0     H42184   2.330  -0.331   5.695  2.7407  0.7997  0.7077
  320MOL0     H42185   2.248  -0.580   5.682  0.2976  0.2442  0.7967
  320MOL0     H42186   2.292  -0.583   5.513  1.3550  1.1115 -0.9239
  320MOL0     H42187   2.118  -0.451   5.445 -0.1667 -0.0566  0.1921
  320MOL0     H42188   2.129  -0.347   5.598  0.4619 -0.4188  0.1960
  320MOL0     H42189   2.012  -0.630   5.554  2.5540  1.6610 -1.5192
  320MOL0     H42190   2.016  -0.560   5.716 -0.9896 -0.0623  0.0609
  320MOL0     H42191   1.858  -0.443   5.480  0.2114  0.7111  0.2967
  320MOL0     H42192   1.899  -0.351   5.622  0.4780 -1.0253  2.6211
  320MOL0     H42193   1.709  -0.677   5.523 -1.7235  0.5228 -1.0640
  320MOL0     H42194   1.542  -0.837   5.672 -1.3289 -1.0379  1.2043
  320MOL0     H42195   1.432  -0.737   5.594  1.1964 -3.8344 -1.1995
  320MOL0     H42196   1.342  -0.683   5.835  0.0086 -0.3170 -0.5569
  320MOL0     H42197   1.471  -0.759   5.907  0.3852  1.1282 -1.2591
  320MOL0     H42198   1.394  -0.971   5.828 -0.9710 -0.5855  2.0620
  320MOL0     H42199   1.292  -0.898   5.933  0.5897 -0.2753  0.4451
  320MOL0     H42200   1.270  -0.882   5.626  1.0497 -1.9488  0.1328
  320MOL0     H42201   1.144  -0.824   5.737 -1.6340 -2.1498  2.0165
  320MOL0     H42202   1.000  -0.866   5.868  0.1096 -0.3255  4.5842
  320MOL0     H42203   0.798  -0.956   5.977 -1.6025 -1.6864 -0.3216
  320MOL0     H42204   0.479  -1.315   6.037 -1.5406  2.8827  3.0131
  320MOL0     H42205   0.327  -1.460   6.174  0.1696  0.4971 -0.0440
  320MOL0     H42206   0.430  -1.520   6.550  1.5263 -1.7852  1.5528
  320MOL0     H42207   0.529  -1.655   6.518  0.7031  1.7450  1.8973
  320MOL0     H42208   0.334  -1.800   6.584  0.6649 -0.1288 -0.0305
  320MOL0     H42209   0.234  -1.647   6.562  1.4951  1.1392 -1.7894
  320MOL0     H42210   0.268  -1.715   6.805  0.1957 -1.4324 -0.0907
  320MOL0     H42211   0.310  -1.551   6.745 -2.0696 -0.8896 -0.8486
  320MOL0     H42212   0.517  -1.761   6.820 -2.7310 -1.0470  0.4000
  320MOL0     H42213   0.556  -1.618   6.722  0.0758  1.8756  1.1395
  320MOL0     H42214   0.500  -1.640   7.020 -3.0985 -1.3693 -1.5222
  320MOL0     H42215   0.426  -1.507   6.946 -3.3526 -3.0570 -1.5026
  320MOL0     H42216   0.647  -1.427   7.002  0.9768 -2.8246  2.0675
  320MOL0     H42217   0.670  -1.462   6.829  1.6268 -1.2251 -0.8340
  320MOL0     H42218   0.752  -1.618   7.073  3.3920 -2.3924 -0.5250
  320MOL0     H42219   0.770  -1.689   6.899  0.0469 -0.6370 -1.1098
  320MOL0     H42220   0.900  -1.422   6.975  1.6359  0.3835 -1.9425
  320MOL0     H42221   0.913  -1.510   6.828  0.5581 -0.6584 -0.6295
  320MOL0     H42222   0.658  -1.631   6.370  0.9819  1.4816  1.4929
  320MOL0     H42223   0.809  -1.466   6.272  1.3195  0.7806 -0.6294
  320MOL0     H42224   0.877  -1.350   5.870  1.2264 -0.0343 -0.5978
  320MOL0     H42225   1.071  -1.261   5.719 -0.3781 -0.3634 -1.0111
  320MOL0     H42226   2.714  -0.073   5.176  0.4568 -0.2741 -0.7300
  320MOL0     H42227   2.909   0.001   5.042 -0.3838 -0.9023  0.1460
  320MOL0     H42228   3.257   0.418   5.000 -0.6023 -0.4503  0.1006
  320MOL0     H42229   3.389   0.477   4.829  0.1056  0.0212 -4.2395
  320MOL0     H42230   3.710   0.215   4.671 -1.1178  0.1132 -0.1289
  320MOL0     H42231   3.691   0.370   4.757  0.0177 -1.7816  1.0662
  320MOL0     H42232   3.679   0.367   4.441  1.8300 -0.2798 -0.6397
  320MOL0     H42233   3.686   0.505   4.544  2.6014  0.8178 -1.1139
  320MOL0     H42234   3.904   0.293   4.533  1.8067 -0.3857  2.3602
  320MOL0     H42235   3.912   0.442   4.610  0.2983 -1.4771  0.1738
  320MOL0     H42236   3.842   0.464   4.319  0.1362 -0.9528 -0.1170
  320MOL0     H42237   3.931   0.574   4.426  0.6282  0.3264  1.1021
  320MOL0     H42238   4.261   0.366   4.314 -1.1934  2.0726 -0.2757
  320MOL0     H42239   3.510   0.073   4.766  0.2505  2.0162 -0.2521
  320MOL0     H42240   3.343  -0.002   4.965 -0.3614  0.4592  0.7453
  321MOL0     O42241   6.717   7.633  10.429 -0.1048  0.3523  0.8046
  321MOL0     C42242   6.705   7.757  10.436 -0.8916  0.8164 -0.4497
  321MOL0     O42243   6.603   7.820  10.507 -0.5251  0.2753 -0.1449
  321MOL0     C42244   6.479   7.775  10.540 -0.5357 -0.1860 -0.3662
  321MOL0     C42245   6.419   7.652  10.492  0.0639 -0.4197  0.2924
  321MOL0     C42246   6.290   7.613  10.540 -0.0172 -0.1547  0.1282
  321MOL0     C42247   6.217   7.685  10.631  0.2584  0.5986  0.7351
  321MOL0     O42248   6.083   7.652  10.660 -0.6719 -0.0273 -0.0920
  321MOL0     C42249   6.057   7.507  10.695 -0.8023 -0.0226  0.3338
  321MOL0     C42250   5.914   7.484  10.751  0.5808  0.3919 -0.2713
  321MOL0     C42251   5.806   7.556  10.677 -0.5778 -0.5902 -0.5484
  321MOL0     C42252   5.683   7.474  10.656 -0.0917 -0.2945 -0.1263
  321MOL0     C42253   5.598   7.516  10.535  0.7672 -0.5133 -0.4664
  321MOL0     C42254   5.461   7.447  10.506 -1.4299  0.8311 -1.2319
  321MOL0     C42255   5.379   7.487  10.382  0.3758 -0.3654 -0.8244
  321MOL0     C42256   5.246   7.409  10.378 -0.0942  0.1055 -0.3978
  321MOL0     N42257   5.172   7.440  10.263 -0.5229 -0.2402 -0.3356
  321MOL0     C42258   5.101   7.554  10.250 -0.0350 -0.7606  0.4089
  321MOL0     C42259   5.034   7.541  10.129  0.1957 -0.0964 -0.2424
  321MOL0     C42260   4.945   7.634  10.058  0.1254  0.3529  0.9466
  321MOL0     C42261   4.898   7.744  10.152  0.5008  0.0620  0.7071
  321MOL0     C42262   4.780   7.698  10.234  0.0381 -0.0110  0.3354
  321MOL0     C42263   4.731   7.800  10.335 -0.6678  0.0665 -0.6502
  321MOL0     O42264   4.604   7.779  10.392  0.2971 -0.0717 -0.2315
  321MOL0     C42265   4.485   7.769  10.303 -0.7615  0.1785 -0.0359
  321MOL0     C42266   4.480   7.808  10.167  0.3028 -0.3061  0.3180
  321MOL0     C42267   4.353   7.812  10.100  0.5076  0.8490 -0.1726
  321MOL0     C42268   4.237   7.765  10.161 -1.0187  0.5237  1.7188
  321MOL0     C42269   4.102   7.746  10.091 -0.5455  0.5532  0.2977
  321MOL0     O42270   3.997   7.698  10.172 -0.3640 -0.0227  0.9575
  321MOL0     C42271   3.871   7.699  10.118 -0.5452  0.4792 -0.6480
  321MOL0     C42272   3.843   7.618  10.015 -0.3101  0.2025 -0.2999
  321MOL0     C42273   3.720   7.617   9.965  0.1588  0.0093  0.2040
  321MOL0     C42274   3.626   7.720   9.997 -0.2618 -0.2492 -0.2329
  321MOL0     O42275   3.508   7.708   9.926  0.6115  0.3965  0.2077
  321MOL0     C42276   3.388   7.780   9.967 -0.3805 -0.1101 -0.3110
  321MOL0     C42277   3.260   7.700   9.945 -0.7626 -0.0784 -0.6787
  321MOL0     C42278   3.223   7.664   9.800  0.2892  0.4226 -0.2972
  321MOL0     C42279   3.075   7.638   9.775 -0.1922 -1.0890  0.6696
  321MOL0     C42280   3.027   7.515   9.838 -0.5632 -1.0244  0.1450
  321MOL0     C42281   2.885   7.466   9.798 -0.3740  0.9331 -0.6702
  321MOL0     C42282   2.845   7.331   9.863  0.1362 -0.3000 -0.4303
  321MOL0     C42283   2.722   7.258   9.812 -0.0453 -0.3098 -0.4429
  321MOL0    Cl42284   2.596   7.361   9.738 -0.3797 -0.7298 -0.3779
  321MOL0     C42285   3.659   7.813  10.097  0.1956  0.3617  0.0457
  321MOL0     C42286   3.780   7.800  10.161  0.2382  0.4049  0.2109
  321MOL0     O42287   4.091   7.771   9.973  0.6862 -0.6255 -0.2030
  321MOL0     C42288   4.248   7.725  10.295 -0.6618  0.3693 -1.0887
  321MOL0     C42289   4.362   7.745  10.368  0.1755 -0.2071  1.2257
  321MOL0     N42290   5.071   7.414  10.071 -0.0438 -0.1691  0.3654
  321MOL0     N42291   5.153   7.362  10.158 -0.2902 -0.1488  0.6861
  321MOL0     C42292   6.268   7.815  10.669 -0.1998  0.4387  0.4647
  321MOL0     C42293   6.400   7.854  10.629  0.1186 -0.1303 -0.1652
  321MOL0     C42294   6.826   7.830  10.388 -0.0910 -0.2270  0.3325
  321MOL0     C42295   6.922   7.769  10.298 -0.2844  0.1641 -0.6909
  321MOL0     C42296   7.031   7.847  10.265  0.3741  1.0811  0.0950
  321MOL0     C42297   7.039   7.986  10.288 -0.8864 -0.4085 -0.3783
  321MOL0     O42298   7.167   8.041  10.255  0.0397  0.0319  0.3224
  321MOL0     C42299   7.198   8.166  10.314 -0.1401  1.0299  0.0528
  321MOL0     C42300   7.347   8.176  10.289  0.3026 -0.7025  0.3862
  321MOL0     C42301   7.426   8.270  10.383 -0.4879  2.1695 -0.0731
  321MOL0     C42302   7.360   8.399  10.410 -0.8013 -0.2793  0.4087
  321MOL0     C42303   7.444   8.474  10.505 -0.0147 -0.5104 -0.7738
  321MOL0     C42304   7.511   8.537  10.585 -0.4015  0.7456 -0.2263
  321MOL0     C42305   6.934   8.047  10.360 -0.5367  0.4845  0.0252
  321MOL0     C42306   6.828   7.972  10.411 -0.1850  0.6272 -0.3515
  321MOL0     H42307   6.467   7.582  10.424 -2.1834  0.6489 -2.6261
  321MOL0     H42308   6.248   7.519  10.505 -0.2053 -0.5303  1.3221
  321MOL0     H42309   6.122   7.490  10.782 -1.6557 -0.5705  0.8923
  321MOL0     H42310   6.079   7.438  10.613 -0.7487 -0.9946  1.1378
  321MOL0     H42311   5.919   7.509  10.857  1.8965 -1.2695  0.1116
  321MOL0     H42312   5.894   7.376  10.753  0.1695  0.4784  0.2031
  321MOL0     H42313   5.851   7.589  10.583 -1.1910 -0.5174 -0.8177
  321MOL0     H42314   5.784   7.653  10.721 -4.0353 -0.1325 -2.8798
  321MOL0     H42315   5.701   7.366  10.650 -0.7100 -0.5911  2.2091
  321MOL0     H42316   5.633   7.498  10.751  2.4439 -2.0021  1.7843
  321MOL0     H42317   5.663   7.509  10.447  2.0553  1.1479  0.3088
  321MOL0     H42318   5.593   7.625  10.548 -1.3566 -0.6528  0.2380
  321MOL0     H42319   5.397   7.466  10.592 -2.1319 -0.1159 -1.5284
  321MOL0     H42320   5.469   7.338  10.510 -0.8322  0.8085 -2.3962
  321MOL0     H42321   5.349   7.593  10.385 -2.4972 -1.1153  0.3490
  321MOL0     H42322   5.436   7.471  10.290  1.3335 -0.3588 -0.2482
  321MOL0     H42323   5.187   7.423  10.469 -0.5727 -0.6128 -0.5840
  321MOL0     H42324   5.268   7.302  10.383 -0.9194 -0.0066  2.2396
  321MOL0     H42325   5.096   7.633  10.324 -1.3297 -1.9236  1.6206
  321MOL0     H42326   4.861   7.585  10.007  0.8103 -0.5787  0.6847
  321MOL0     H42327   5.012   7.677   9.982 -0.8115  0.0313 -0.0789
  321MOL0     H42328   4.873   7.829  10.088 -0.9409  0.8554  2.2313
  321MOL0     H42329   4.979   7.782  10.215  1.2213  2.2179 -1.4105
  321MOL0     H42330   4.704   7.657  10.167 -0.8305  0.0276  1.2713
  321MOL0     H42331   4.820   7.611  10.286  0.1645 -0.7225 -0.9189
  321MOL0     H42332   4.734   7.898  10.287  1.0263  0.1361 -0.4510
  321MOL0     H42333   4.797   7.785  10.421 -1.2531  1.7525  0.1497
  321MOL0     H42334   4.573   7.842  10.123 -0.4806  0.3079 -0.9268
  321MOL0     H42335   4.353   7.840   9.995 -1.0331  0.1236 -0.3977
  321MOL0     H42336   3.916   7.541   9.989 -2.6654 -1.8970 -1.0483
  321MOL0     H42337   3.701   7.539   9.892  3.8290 -0.2249 -0.6868
  321MOL0     H42338   3.382   7.875   9.913 -1.5916  0.9128  1.5132
  321MOL0     H42339   3.404   7.798  10.074 -2.1520  0.5152 -0.1138
  321MOL0     H42340   3.176   7.758   9.985  0.4971 -0.1565  2.3886
  321MOL0     H42341   3.265   7.612  10.011 -1.5131  2.5914  3.2756
  321MOL0     H42342   3.277   7.571   9.778  1.0410  0.5219  1.0321
  321MOL0     H42343   3.246   7.745   9.730 -4.2951  1.4020 -0.9971
  321MOL0     H42344   3.014   7.721   9.813  1.1204  0.7397 -0.9853
  321MOL0     H42345   3.051   7.631   9.668  0.3697  0.2236  0.4381
  321MOL0     H42346   3.030   7.532   9.946  1.5357  1.3501 -0.1982
  321MOL0     H42347   3.096   7.437   9.807  0.8409  0.2745 -0.1089
  321MOL0     H42348   2.873   7.451   9.690 -0.6993 -1.4883 -0.3645
  321MOL0     H42349   2.820   7.549   9.826  1.1433  2.6457 -1.9584
  321MOL0     H42350   2.930   7.262   9.863 -0.8158 -1.5419 -1.7439
  321MOL0     H42351   2.823   7.354   9.968 -0.6311 -1.3031 -0.3564
  321MOL0     H42352   2.676   7.201   9.892  2.6341 -2.6401 -0.3876
  321MOL0     H42353   2.757   7.181   9.742 -1.7026  0.8623 -2.7060
  321MOL0     H42354   3.592   7.886  10.140  1.5000  1.9977 -0.5545
  321MOL0     H42355   3.807   7.870  10.239  3.8587  1.7321 -1.9984
  321MOL0     H42356   4.159   7.690  10.347  0.0706 -1.5804 -1.0910
  321MOL0     H42357   4.371   7.720  10.473  2.5611  1.4138  1.4773
  321MOL0     H42358   6.206   7.882  10.727  0.0806  2.1936 -1.1553
  321MOL0     H42359   6.427   7.948  10.677 -3.7235  1.1873 -0.2429
  321MOL0     H42360   6.929   7.664  10.273  3.1208  1.4053 -7.3477
  321MOL0     H42361   7.110   7.798  10.209  1.1611  0.6254  1.5504
  321MOL0     H42362   7.173   8.163  10.420 -0.2643 -4.3540  0.1435
  321MOL0     H42363   7.144   8.246  10.262 -0.9824 -0.0899 -0.8512
  321MOL0     H42364   7.387   8.075  10.276 -1.7345 -1.2376 -2.7878
  321MOL0     H42365   7.352   8.223  10.190 -2.0136 -1.6159 -0.2374
  321MOL0     H42366   7.529   8.278  10.348 -0.4291  2.7958  0.2194
  321MOL0     H42367   7.442   8.209  10.472 -1.7193 -2.8910 -2.8901
  321MOL0     H42368   7.337   8.454  10.318 -0.0992 -1.3601 -0.4387
  321MOL0     H42369   7.267   8.371  10.462 -0.6269 -5.1932 -1.3815
  321MOL0     H42370   7.573   8.591  10.654  0.4115 -1.1073  0.5580
  321MOL0     H42371   6.927   8.151  10.388 -1.6139  0.2615  0.6468
  321MOL0     H42372   6.748   8.026  10.459 -0.9964  0.7571 -1.7938
  322MOL0     O42373   9.781   5.044   5.241 -0.4176 -0.3750  0.2318
  322MOL0     C42374   9.833   5.160   5.252  0.1374 -0.4440 -0.2418
  322MOL0     O42375   9.768   5.274   5.206  0.2977  0.2014 -0.6198
  322MOL0     C42376   9.647   5.271   5.142 -0.0098 -0.2598  0.7877
  322MOL0     C42377   9.638   5.232   5.006 -0.5363 -0.6371 -0.8326
  322MOL0     C42378   9.523   5.237   4.940  0.1312 -0.0333  0.7870
  322MOL0     C42379   9.402   5.263   5.001  0.3710  0.4070  1.0794
  322MOL0     O42380   9.281   5.221   4.945  0.2329 -0.1512  0.3868
  322MOL0     C42381   9.270   5.215   4.796  0.4760 -0.1984  0.3143
  322MOL0     C42382   9.322   5.331   4.725  0.4265 -0.2962 -0.9693
  322MOL0     C42383   9.222   5.449   4.727 -0.1288 -0.4548  0.4694
  322MOL0     C42384   9.241   5.556   4.618  0.1940 -0.3880 -0.3736
  322MOL0     C42385   9.147   5.669   4.628 -0.3127  1.0429 -1.0995
  322MOL0     C42386   8.999   5.628   4.638 -0.7439  0.1939 -0.3152
  322MOL0     C42387   8.918   5.760   4.615  0.4489 -0.5941 -0.2350
  322MOL0     C42388   8.769   5.735   4.640  0.8520  0.0369 -0.3622
  322MOL0     N42389   8.714   5.637   4.547 -0.1873 -0.2912  0.6624
  322MOL0     C42390   8.669   5.510   4.569  0.2655  0.4326  0.2035
  322MOL0     C42391   8.604   5.471   4.454  0.3049 -0.3014 -0.0967
  322MOL0     C42392   8.503   5.360   4.437 -0.0566 -0.2203 -0.5831
  322MOL0     C42393   8.392   5.388   4.332 -0.2846  0.0579  0.2883
  322MOL0     C42394   8.292   5.281   4.329  0.7751  1.3522 -0.1854
  322MOL0     C42395   8.168   5.331   4.263 -0.2559  0.6863 -0.0537
  322MOL0     O42396   8.083   5.215   4.239  0.6913 -0.3883  0.0014
  322MOL0     C42397   7.973   5.230   4.158 -0.6381 -0.0828  0.1403
  322MOL0     C42398   7.956   5.142   4.048  0.0034 -0.4560  0.2375
  322MOL0     C42399   7.837   5.149   3.972 -0.8036 -0.8174  0.4409
  322MOL0     C42400   7.740   5.245   3.994 -0.5654  1.3329  0.4715
  322MOL0     C42401   7.623   5.239   3.903 -0.8687  0.8634 -0.3551
  322MOL0     O42402   7.557   5.352   3.870  0.0109 -1.0188 -0.6062
  322MOL0     C42403   7.432   5.359   3.831  1.2127 -0.1348 -0.1949
  322MOL0     C42404   7.342   5.264   3.780  0.1828  0.1878  0.6633
  322MOL0     C42405   7.206   5.282   3.791  0.2704 -0.5361  0.2864
  322MOL0     C42406   7.143   5.389   3.860 -0.5848 -0.9724 -0.4204
  322MOL0     O42407   7.010   5.383   3.875  0.3604  0.1025  0.3428
  322MOL0     C42408   6.936   5.504   3.922 -0.5892 -0.2258 -0.0769
  322MOL0     C42409   6.788   5.482   3.883  0.7460  0.0632 -0.5964
  322MOL0     C42410   6.722   5.346   3.934  0.2831 -0.2800 -0.3373
  322MOL0     C42411   6.568   5.327   3.910  0.1072 -0.4060  0.7435
  322MOL0     C42412   6.537   5.342   3.756 -0.4116 -0.3868 -0.0402
  322MOL0     C42413   6.390   5.326   3.736  0.0098  0.2415  0.1457
  322MOL0     C42414   6.295   5.435   3.810 -0.2404 -0.5317  0.9779
  322MOL0     C42415   6.330   5.582   3.768 -0.0263  0.6095  0.2143
  322MOL0    Cl42416   6.336   5.613   3.595 -0.3615 -0.0057  0.0076
  322MOL0     C42417   7.230   5.491   3.891 -0.0717 -0.6582 -0.1430
  322MOL0     C42418   7.369   5.479   3.871  0.4476 -0.0230 -0.4367
  322MOL0     O42419   7.585   5.124   3.890 -0.0676  0.7011 -0.1487
  322MOL0     C42420   7.759   5.336   4.097  0.5514  0.3750 -0.4835
  322MOL0     C42421   7.865   5.321   4.184 -0.9629 -1.0117  0.1664
  322MOL0     N42422   8.632   5.570   4.359  0.3010 -0.2325 -0.1034
  322MOL0     N42423   8.705   5.667   4.414  0.1371 -0.0301  0.2513
  322MOL0     C42424   9.409   5.299   5.138  0.3812  0.2213 -0.6931
  322MOL0     C42425   9.530   5.300   5.211  0.5583 -0.8224 -0.5520
  322MOL0     C42426   9.955   5.172   5.320  0.2258  1.1269 -0.2799
  322MOL0     C42427   9.976   5.287   5.400 -0.6139 -0.9412 -0.1329
  322MOL0     C42428  10.096   5.304   5.469 -0.6777 -0.2092  0.3838
  322MOL0     C42429  10.200   5.201   5.486  1.6487 -0.2417 -0.3871
  322MOL0     O42430  10.318   5.205   5.558  0.4999  1.0457  0.1429
  322MOL0     C42431  10.349   5.325   5.640 -0.6106  0.0575  0.3642
  322MOL0     C42432  10.470   5.305   5.735  0.5080 -0.1967  0.5845
  322MOL0     C42433  10.454   5.192   5.836  0.1298  0.2582 -1.1740
  322MOL0     C42434  10.339   5.228   5.920 -0.8352 -0.3062  0.2282
  322MOL0     C42435  10.348   5.144   6.040  0.2407 -0.6471 -0.2741
  322MOL0     C42436  10.344   5.074   6.134 -0.7059 -0.2459 -0.2692
  322MOL0     C42437  10.167   5.088   5.412  1.2680  0.1824 -0.0488
  322MOL0     C42438  10.048   5.068   5.337 -0.8487  0.3517 -0.1420
  322MOL0     H42439   9.723   5.182   4.960  0.3600  1.3983 -1.4633
  322MOL0     H42440   9.531   5.181   4.847  0.2925  0.0496  0.7508
  322MOL0     H42441   9.163   5.213   4.772 -0.1061  2.1215  2.2943
  322MOL0     H42442   9.311   5.121   4.758 -1.3392 -0.3679 -1.3925
  322MOL0     H42443   9.338   5.301   4.621  0.8817  0.8051 -1.2408
  322MOL0     H42444   9.416   5.377   4.758  0.2380  0.0456 -0.9066
  322MOL0     H42445   9.214   5.504   4.822  0.5439 -0.6278  0.6316
  322MOL0     H42446   9.127   5.397   4.708 -0.4854  0.6324 -0.8545
  322MOL0     H42447   9.342   5.598   4.619 -0.6926  1.9058  1.2774
  322MOL0     H42448   9.221   5.498   4.527 -2.8330  1.6832 -1.1862
  322MOL0     H42449   9.162   5.726   4.536 -2.7938  1.5916 -1.2228
  322MOL0     H42450   9.164   5.725   4.721  0.2041 -0.0519 -0.5208
  322MOL0     H42451   8.961   5.586   4.731 -1.5496 -0.3037 -0.8596
  322MOL0     H42452   8.973   5.541   4.577 -2.4133 -0.8927  1.8028
  322MOL0     H42453   8.954   5.840   4.680  0.3965  0.4375 -1.4333
  322MOL0     H42454   8.922   5.805   4.515  0.4108  2.8532  1.1954
  322MOL0     H42455   8.708   5.823   4.619 -0.2708 -1.1022 -2.0262
  322MOL0     H42456   8.755   5.703   4.744  0.5937 -0.4528 -0.5498
  322MOL0     H42457   8.674   5.449   4.659 -1.8686 -1.3591 -0.8028
  322MOL0     H42458   8.449   5.354   4.532  2.7085 -1.2260  1.0445
  322MOL0     H42459   8.548   5.260   4.433 -0.8742 -0.8115  2.4038
  322MOL0     H42460   8.442   5.393   4.234 -2.5762  1.3640 -0.9110
  322MOL0     H42461   8.349   5.485   4.358  0.7237  0.3372  0.9999
  322MOL0     H42462   8.322   5.196   4.268 -1.2739  1.9981 -2.2371
  322MOL0     H42463   8.262   5.251   4.431  1.4982  2.5952  0.4153
  322MOL0     H42464   8.205   5.372   4.169  3.6042 -2.5711 -0.2132
  322MOL0     H42465   8.114   5.401   4.328  0.4826 -0.1962  1.5810
  322MOL0     H42466   8.040   5.077   4.024  0.3630  0.7883 -2.1428
  322MOL0     H42467   7.829   5.072   3.897 -0.0380  0.5560 -1.1205
  322MOL0     H42468   7.385   5.174   3.738  0.5656  0.6627  0.0259
  322MOL0     H42469   7.143   5.201   3.755 -2.2495  1.8972 -1.1709
  322MOL0     H42470   6.983   5.595   3.886 -2.7012  1.4856  1.2659
  322MOL0     H42471   6.940   5.525   4.029 -0.4117  0.7399 -0.2669
  322MOL0     H42472   6.773   5.481   3.775 -1.4458 -0.5523 -0.3574
  322MOL0     H42473   6.732   5.566   3.924  1.8903 -0.4119  2.1754
  322MOL0     H42474   6.740   5.331   4.040  1.0513 -0.9623 -0.5554
  322MOL0     H42475   6.772   5.265   3.881  1.7654 -0.0662  0.6741
  322MOL0     H42476   6.529   5.230   3.944 -0.4353  0.2426  2.0241
  322MOL0     H42477   6.511   5.399   3.969 -0.5719 -1.4628  1.4186
  322MOL0     H42478   6.593   5.262   3.707  2.3595  1.0733  0.5663
  322MOL0     H42479   6.570   5.436   3.713 -2.5390  0.8255  0.8218
  322MOL0     H42480   6.365   5.225   3.772 -2.1009 -0.1993 -2.2534
  322MOL0     H42481   6.372   5.314   3.629  1.2543 -2.0076  0.1304
  322MOL0     H42482   6.191   5.416   3.783 -0.1093 -1.8341  1.3207
  322MOL0     H42483   6.285   5.433   3.918 -1.3012  1.8664  0.9956
  322MOL0     H42484   6.412   5.626   3.824  0.0005  0.5905  0.1901
  322MOL0     H42485   6.240   5.635   3.803  1.4111  3.0272  0.5092
  322MOL0     H42486   7.197   5.587   3.931 -2.0125 -1.3203 -0.0337
  322MOL0     H42487   7.442   5.550   3.910 -0.4766 -0.0934  1.5235
  322MOL0     H42488   7.698   5.426   4.101 -0.7317 -0.2794 -3.0369
  322MOL0     H42489   7.878   5.389   4.267 -1.8412  1.8391 -1.8755
  322MOL0     H42490   9.318   5.315   5.196  1.9634 -0.5616  2.2065
  322MOL0     H42491   9.530   5.309   5.319 -1.0186 -2.4233 -0.3625
  322MOL0     H42492   9.916   5.377   5.389 -0.1528 -0.5720  0.3276
  322MOL0     H42493  10.123   5.397   5.518 -0.0810 -0.0503 -0.2319
  322MOL0     H42494  10.259   5.365   5.688 -1.2858 -0.4650 -0.4320
  322MOL0     H42495  10.370   5.397   5.561 -2.0874 -0.4697 -0.5677
  322MOL0     H42496  10.554   5.295   5.666 -0.6759 -0.0491 -0.9295
  322MOL0     H42497  10.495   5.399   5.786  1.8826 -0.5175  0.5266
  322MOL0     H42498  10.549   5.191   5.889 -0.9429  1.5159  0.9012
  322MOL0     H42499  10.443   5.096   5.786  0.9207  1.2411 -3.3480
  322MOL0     H42500  10.335   5.333   5.950  2.7977  0.5461 -1.7214
  322MOL0     H42501  10.243   5.218   5.868 -0.5770 -0.4204 -0.2298
  322MOL0     H42502  10.353   5.008   6.217 -0.0524 -1.0824 -0.9932
  322MOL0     H42503  10.235   5.004   5.412  1.0855  0.0250  0.9638
  322MOL0     H42504  10.025   4.978   5.282 -1.2605  1.3011 -1.5947
  323MOL0     O42505   9.954  10.039   5.456  0.5002  0.8222  1.0380
  323MOL0     C42506   9.897   9.983   5.358 -0.0082  0.5348 -0.1354
  323MOL0     O42507   9.768  10.022   5.294 -0.0705  0.0230 -0.8063
  323MOL0     C42508   9.703  10.128   5.358  0.8040  0.2033  0.4051
  323MOL0     C42509   9.754  10.260   5.331  0.5621  0.8082  0.2345
  323MOL0     C42510   9.710  10.370   5.393  0.9162 -0.4751 -0.5372
  323MOL0     C42511   9.603  10.349   5.483 -0.0182  0.0272  0.1680
  323MOL0     O42512   9.574  10.464   5.553  0.1108 -0.7321  0.0512
  323MOL0     C42513   9.452  10.484   5.617 -0.1640 -0.8849 -0.2896
  323MOL0     C42514   9.467  10.449   5.761  0.5730 -0.2931  0.4558
  323MOL0     C42515   9.337  10.496   5.845 -0.0161 -0.2202 -0.2942
  323MOL0     C42516   9.341  10.454   5.997  0.2994 -0.1877 -0.9264
  323MOL0     C42517   9.235  10.538   6.085  0.4144  0.0290  0.0573
  323MOL0     C42518   9.085  10.500   6.052 -0.2794 -0.1274 -0.1647
  323MOL0     C42519   8.985  10.563   6.140 -1.1160  0.1952  0.1655
  323MOL0     C42520   8.844  10.547   6.106 -0.3061  0.3209  0.1510
  323MOL0     N42521   8.745  10.596   6.202  0.3790  0.4930  0.3670
  323MOL0     C42522   8.713  10.727   6.237  0.0464  0.0307  0.4998
  323MOL0     C42523   8.591  10.718   6.292  0.2334  0.3486 -0.8251
  323MOL0     C42524   8.523  10.845   6.347  0.3278 -1.2247 -0.0052
  323MOL0     C42525   8.397  10.809   6.442  0.4010 -0.3329  0.3148
  323MOL0     C42526   8.447  10.752   6.580 -0.0333  0.1191  0.5905
  323MOL0     C42527   8.339  10.743   6.686  0.0490 -0.8295  1.0582
  323MOL0     O42528   8.291  10.870   6.731  0.6202  0.1495  0.3394
  323MOL0     C42529   8.223  10.871   6.850 -0.3199 -0.7375 -0.8980
  323MOL0     C42530   8.131  10.764   6.880  0.2272  0.1079 -0.7018
  323MOL0     C42531   8.067  10.751   6.995 -0.3743 -0.5513 -0.0853
  323MOL0     C42532   8.075  10.850   7.092  0.3366  0.4343 -0.1659
  323MOL0     C42533   7.993  10.844   7.222  1.1135 -0.0033 -0.2029
  323MOL0     O42534   8.033  10.916   7.328 -0.3412  0.1653  0.3477
  323MOL0     C42535   7.952  10.924   7.436 -0.3387 -0.5028 -0.8409
  323MOL0     C42536   7.892  11.045   7.475  0.6050  0.6626 -0.0607
  323MOL0     C42537   7.823  11.054   7.596  0.7679 -0.4039 -0.4050
  323MOL0     C42538   7.804  10.942   7.676  0.5439 -0.8018 -0.2597
  323MOL0     O42539   7.712  10.964   7.773  0.0678  0.3335 -0.1892
  323MOL0     C42540   7.759  10.915   7.898 -1.3919  0.9215  0.1103
  323MOL0     C42541   7.662  10.964   7.999  0.8123  0.6884  0.2048
  323MOL0     C42542   7.682  10.897   8.138 -0.6280 -0.2116  0.1317
  323MOL0     C42543   7.606  10.974   8.244 -0.3306 -0.1604 -0.6315
  323MOL0     C42544   7.689  11.085   8.318  0.0235  0.3577 -1.0340
  323MOL0     C42545   7.595  11.170   8.405  0.2706  0.3682 -0.2010
  323MOL0     C42546   7.535  11.112   8.530  0.2043 -0.3415  0.1677
  323MOL0     C42547   7.447  11.211   8.605  0.3065  0.2131 -0.0348
  323MOL0    Cl42548   7.284  11.231   8.522  0.1641  0.0189  0.2306
  323MOL0     C42549   7.869  10.821   7.645  0.1272 -0.3861 -0.6923
  323MOL0     C42550   7.949  10.812   7.534 -0.9235  0.0471  0.3461
  323MOL0     O42551   7.893  10.768   7.232 -0.4976 -0.4299 -0.1878
  323MOL0     C42552   8.154  10.960   7.073 -0.8942 -0.4777 -0.4124
  323MOL0     C42553   8.220  10.977   6.946  0.6479 -0.3108  0.5762
  323MOL0     N42554   8.556  10.586   6.302  0.0079 -0.0977  0.2519
  323MOL0     N42555   8.642  10.516   6.232 -0.2448 -0.6564  0.2591
  323MOL0     C42556   9.540  10.225   5.508  0.5444  0.2320  0.0465
  323MOL0     C42557   9.594  10.114   5.444 -0.5276  0.1491 -0.7892
  323MOL0     C42558   9.973   9.872   5.296 -0.3321  0.1091 -1.2132
  323MOL0     C42559  10.105   9.844   5.340 -0.1805  0.1612 -0.0892
  323MOL0     C42560  10.186   9.756   5.264  0.6332 -0.1125  0.5124
  323MOL0     C42561  10.126   9.685   5.154 -0.6061  0.3250  0.7837
  323MOL0     O42562  10.178   9.584   5.077 -0.3169 -0.2434  0.1390
  323MOL0     C42563  10.305   9.533   5.114 -0.9460 -0.2835 -0.7446
  323MOL0     C42564  10.423   9.630   5.077 -0.4377  0.1395 -0.8826
  323MOL0     C42565  10.571   9.580   5.064  0.0920  0.2231  0.1591
  323MOL0     C42566  10.638   9.566   5.199  0.0002 -0.9529 -0.2090
  323MOL0     C42567  10.773   9.505   5.173  1.1773 -0.4221 -0.6603
  323MOL0     C42568  10.873   9.444   5.168 -0.7718  0.1216  0.1027
  323MOL0     C42569   9.993   9.704   5.131  0.2964  0.2035  0.5881
  323MOL0     C42570   9.916   9.803   5.194 -0.3334  0.3738  0.3065
  323MOL0     H42571   9.835  10.278   5.261  0.7320 -0.4104  0.0937
  323MOL0     H42572   9.737  10.473   5.370  0.5881 -0.9391 -3.3742
  323MOL0     H42573   9.374  10.420   5.574  2.3811 -2.8724 -2.2466
  323MOL0     H42574   9.419  10.588   5.612  0.5758 -0.6215  0.0999
  323MOL0     H42575   9.553  10.501   5.804  0.1980 -1.1213  2.2837
  323MOL0     H42576   9.485  10.342   5.771 -1.4591 -0.8538 -1.1037
  323MOL0     H42577   9.244  10.454   5.807  0.0918 -3.7407  2.7582
  323MOL0     H42578   9.338  10.606   5.845  1.8168 -0.0258  4.1994
  323MOL0     H42579   9.313  10.349   6.003 -0.2175 -0.0178 -0.1452
  323MOL0     H42580   9.442  10.464   6.039  1.0291 -0.0957 -2.6132
  323MOL0     H42581   9.255  10.643   6.066 -0.1300  0.2916  0.8605
  323MOL0     H42582   9.250  10.526   6.193 -3.9039  4.6807  1.5444
  323MOL0     H42583   9.081  10.391   6.054 -2.7095 -0.0841  2.5300
  323MOL0     H42584   9.068  10.542   5.952  2.6743  1.2186 -0.2334
  323MOL0     H42585   8.999  10.507   6.233 -1.0008  0.0175  0.0435
  323MOL0     H42586   9.015  10.667   6.151 -2.6321  1.1479 -3.2369
  323MOL0     H42587   8.821  10.440   6.108  0.9494  0.0436  0.6343
  323MOL0     H42588   8.827  10.597   6.010 -0.1971 -0.8996 -0.5346
  323MOL0     H42589   8.768  10.820   6.227  1.4576 -0.9373 -1.4281
  323MOL0     H42590   8.483  10.907   6.267  3.3577 -0.8216 -1.3484
  323MOL0     H42591   8.599  10.908   6.395 -0.7606  0.2086 -0.1110
  323MOL0     H42592   8.340  10.735   6.384  1.4894 -1.7247  0.9649
  323MOL0     H42593   8.340  10.901   6.459  1.6398  0.6463 -0.6525
  323MOL0     H42594   8.492  10.654   6.568  1.1235  0.2623  3.1966
  323MOL0     H42595   8.518  10.826   6.618 -1.1424  1.7150 -0.2967
  323MOL0     H42596   8.367  10.673   6.765  0.8588 -1.0930  0.5417
  323MOL0     H42597   8.251  10.691   6.648  1.4042 -2.0805 -0.5203
  323MOL0     H42598   8.117  10.684   6.808  1.3132 -0.4580 -0.3069
  323MOL0     H42599   8.015  10.656   7.004  2.2933 -2.3990 -2.4625
  323MOL0     H42600   7.897  11.135   7.414 -1.3187  1.3541  0.7328
  323MOL0     H42601   7.778  11.150   7.620 -0.6743  0.3462 -5.1033
  323MOL0     H42602   7.855  10.965   7.916 -1.2586  1.4812 -1.9486
  323MOL0     H42603   7.761  10.806   7.897  0.8788  0.8743 -2.9433
  323MOL0     H42604   7.559  10.956   7.965  0.8851  3.3572 -0.8752
  323MOL0     H42605   7.670  11.073   8.004  0.1732  0.9326 -2.7183
  323MOL0     H42606   7.788  10.907   8.162  0.0221 -3.2575 -1.0323
  323MOL0     H42607   7.662  10.790   8.137  1.3989 -0.6304 -0.7792
  323MOL0     H42608   7.509  11.007   8.206  0.6281  3.6001 -0.1772
  323MOL0     H42609   7.584  10.904   8.325 -0.0265  0.6875  0.2032
  323MOL0     H42610   7.744  11.152   8.252 -0.8015  1.2901 -0.8002
  323MOL0     H42611   7.763  11.036   8.382  0.2501  1.9835 -0.0112
  323MOL0     H42612   7.509  11.203   8.346  0.3250  2.1087  0.6338
  323MOL0     H42613   7.661  11.255   8.427  0.7031  0.0299 -0.1698
  323MOL0     H42614   7.486  11.014   8.521 -0.8729  0.2379 -0.3169
  323MOL0     H42615   7.617  11.095   8.601 -0.1444  1.1080  0.9480
  323MOL0     H42616   7.504  11.304   8.616  0.2152  0.0664  2.2003
  323MOL0     H42617   7.428  11.169   8.705 -1.3350 -0.4988 -0.6055
  323MOL0     H42618   7.852  10.730   7.702  0.4981 -0.0097  0.0259
  323MOL0     H42619   8.006  10.721   7.517  2.2598  1.3554  2.9344
  323MOL0     H42620   8.148  11.043   7.142 -1.7088 -0.3607 -0.6143
  323MOL0     H42621   8.270  11.073   6.950  1.3344 -0.6929  1.9294
  323MOL0     H42622   9.463  10.209   5.583  1.2747  1.3672  1.0947
  323MOL0     H42623   9.553  10.015   5.455  2.0601 -0.9800 -0.5719
  323MOL0     H42624  10.148   9.905   5.419 -0.9337  1.4203 -0.6221
  323MOL0     H42625  10.280   9.737   5.314  1.2483  1.0007 -0.1902
  323MOL0     H42626  10.336   9.443   5.060  2.5302  1.1405 -1.4585
  323MOL0     H42627  10.301   9.509   5.221 -0.1185  1.0368 -0.3877
  323MOL0     H42628  10.410   9.680   4.981  1.6000  1.1792 -0.6804
  323MOL0     H42629  10.415   9.707   5.155  0.9950  0.7098 -1.2635
  323MOL0     H42630  10.632   9.653   5.011  2.5348  1.5103  4.2665
  323MOL0     H42631  10.563   9.487   5.006 -0.6424 -1.1844  2.3778
  323MOL0     H42632  10.656   9.667   5.237  0.3597 -0.7212 -0.9908
  323MOL0     H42633  10.563   9.520   5.264 -0.2648  1.5475  1.3800
  323MOL0     H42634  10.968   9.395   5.174 -1.5335 -1.2889  4.2811
  323MOL0     H42635   9.957   9.642   5.049 -1.1612  0.5012  0.9741
  323MOL0     H42636   9.819   9.830   5.153  0.1000  2.6423  0.6573
  324MOL0     O42637  11.086   3.516   3.943 -0.2764  0.3563 -0.4007
  324MOL0     C42638  11.149   3.540   3.839 -0.0673  0.0063 -0.7048
  324MOL0     O42639  11.107   3.516   3.706  0.0427 -0.3806  0.5556
  324MOL0     C42640  10.984   3.448   3.688  0.0632 -0.1413  0.0162
  324MOL0     C42641  10.869   3.528   3.652  0.1767  0.4807  0.1789
  324MOL0     C42642  10.753   3.450   3.623  0.7566 -0.3087  1.2104
  324MOL0     C42643  10.745   3.312   3.626 -0.5291 -0.4033  0.2334
  324MOL0     O42644  10.619   3.250   3.604  0.0851  0.5115 -0.6397
  324MOL0     C42645  10.498   3.298   3.664 -1.3172  0.0540  0.9982
  324MOL0     C42646  10.394   3.301   3.562 -0.1051 -0.2506  0.4993
  324MOL0     C42647  10.262   3.340   3.616 -0.1645 -0.0265  0.5837
  324MOL0     C42648  10.154   3.360   3.512 -0.5073  0.6662  0.3396
  324MOL0     C42649  10.030   3.416   3.578  0.3614  0.3761 -0.4746
  324MOL0     C42650   9.933   3.483   3.493 -0.6102 -0.3228 -0.2914
  324MOL0     C42651   9.892   3.383   3.390  0.2617 -0.5759 -0.2011
  324MOL0     C42652   9.776   3.435   3.299  0.5029 -0.2554 -0.2472
  324MOL0     N42653   9.653   3.456   3.374  0.7039 -0.8602 -0.7489
  324MOL0     C42654   9.556   3.554   3.358 -0.7627  0.2001  0.1694
  324MOL0     C42655   9.444   3.527   3.433 -0.8860  1.1722 -0.5027
  324MOL0     C42656   9.320   3.600   3.452  0.4616  0.6305 -0.0160
  324MOL0     C42657   9.193   3.522   3.470 -0.4052  0.2158  1.2190
  324MOL0     C42658   9.160   3.440   3.343 -0.8308 -0.1211  0.6691
  324MOL0     C42659   9.047   3.337   3.388  0.4705  0.1776  0.1453
  324MOL0     O42660   8.927   3.402   3.433 -0.3314  1.0507  0.2054
  324MOL0     C42661   8.831   3.421   3.334  1.1696 -0.1119 -0.0477
  324MOL0     C42662   8.849   3.401   3.197  0.9956  0.0938 -0.2366
  324MOL0     C42663   8.746   3.442   3.116 -0.2699  1.1857 -0.6244
  324MOL0     C42664   8.632   3.511   3.156  0.8251 -0.0629 -0.5446
  324MOL0     C42665   8.524   3.559   3.060 -0.0041 -0.0086 -0.3134
  324MOL0     O42666   8.441   3.646   3.094 -0.2270  0.4635 -1.1679
  324MOL0     C42667   8.345   3.678   3.007 -0.7218  0.8192  0.7979
  324MOL0     C42668   8.346   3.807   2.958  0.9241 -0.3328 -0.8160
  324MOL0     C42669   8.240   3.863   2.885 -0.2406  0.1496  0.1964
  324MOL0     C42670   8.143   3.789   2.834  0.3363  0.1640 -0.2243
  324MOL0     O42671   8.047   3.840   2.749  0.5063  0.6547  0.4416
  324MOL0     C42672   7.908   3.827   2.794 -0.4464  0.8937 -0.1579
  324MOL0     C42673   7.889   3.887   2.933 -0.1694  0.2937 -0.3045
  324MOL0     C42674   7.941   4.031   2.935 -0.0500  0.8339  0.3880
  324MOL0     C42675   7.902   4.102   3.065  0.3953 -0.2456  0.3010
  324MOL0     C42676   7.967   4.047   3.191  0.2315 -0.2232  0.9286
  324MOL0     C42677   7.898   4.100   3.313 -0.0796 -0.4500  0.7285
  324MOL0     C42678   7.949   4.239   3.344  0.6094 -0.3184  0.4877
  324MOL0     C42679   7.913   4.279   3.481 -0.5230 -1.0700  0.4181
  324MOL0    Cl42680   7.737   4.322   3.488  0.3138  0.8114  0.1385
  324MOL0     C42681   8.145   3.647   2.860 -0.3247 -0.0740  0.7118
  324MOL0     C42682   8.250   3.595   2.944  0.2190 -0.1586 -0.1887
  324MOL0     O42683   8.534   3.516   2.945 -0.4174  0.0712 -0.3828
  324MOL0     C42684   8.621   3.526   3.294 -0.4734  0.6489 -0.9974
  324MOL0     C42685   8.723   3.491   3.376 -0.3211  0.8265 -0.5335
  324MOL0     N42686   9.485   3.405   3.492 -0.4289  0.3554 -0.8965
  324MOL0     N42687   9.604   3.371   3.461 -0.3110  0.2379  0.1774
  324MOL0     C42688  10.858   3.242   3.663  0.0488  0.0867 -0.2705
  324MOL0     C42689  10.982   3.305   3.694  0.8490 -0.7908  0.1891
  324MOL0     C42690  11.272   3.615   3.842  0.7740  0.2781 -0.2726
  324MOL0     C42691  11.375   3.587   3.752 -0.2156  0.2463 -0.5549
  324MOL0     C42692  11.498   3.648   3.764  0.5257  0.8983 -0.0571
  324MOL0     C42693  11.534   3.712   3.883  0.6952  0.8767  0.6186
  324MOL0     O42694  11.656   3.775   3.898  0.4086 -0.4423 -0.5105
  324MOL0     C42695  11.755   3.742   3.803 -0.2145 -0.1132  0.3784
  324MOL0     C42696  11.753   3.836   3.675  0.9854  0.3354  0.4231
  324MOL0     C42697  11.735   3.976   3.731 -0.3034  0.2017  0.0520
  324MOL0     C42698  11.780   4.075   3.634 -0.3973  0.3065  0.5247
  324MOL0     C42699  11.921   4.113   3.661  0.6139 -0.5772 -1.0149
  324MOL0     C42700  12.028   4.154   3.686 -0.1983 -0.6171 -0.4639
  324MOL0     C42701  11.431   3.736   3.974  0.8928  0.0843  0.4225
  324MOL0     C42702  11.300   3.685   3.957  0.0096 -0.4152  0.6639
  324MOL0     H42703  10.881   3.635   3.637  1.9465 -0.0534 -3.3180
  324MOL0     H42704  10.674   3.507   3.577  2.6906 -0.0667 -2.1326
  324MOL0     H42705  10.520   3.388   3.721  1.7972 -0.7127  1.1925
  324MOL0     H42706  10.472   3.218   3.735  0.7506 -0.8966  0.7612
  324MOL0     H42707  10.386   3.210   3.503  0.9128  0.9886 -1.6949
  324MOL0     H42708  10.429   3.374   3.488  1.8237 -1.3856  0.2329
  324MOL0     H42709  10.281   3.434   3.668  2.5474  1.1236 -2.1624
  324MOL0     H42710  10.222   3.264   3.685 -2.3301 -2.6695 -3.2257
  324MOL0     H42711  10.195   3.422   3.432  0.5121  0.4730  0.6918
  324MOL0     H42712  10.129   3.266   3.463 -0.0259  1.4811 -1.5495
  324MOL0     H42713  10.066   3.481   3.658  1.8980 -0.4327 -0.4690
  324MOL0     H42714   9.980   3.336   3.633  0.0900  0.3264 -0.7874
  324MOL0     H42715   9.995   3.563   3.451  0.7861 -0.5494  1.2543
  324MOL0     H42716   9.853   3.520   3.558 -0.5461  0.1056 -0.4547
  324MOL0     H42717   9.965   3.360   3.312 -1.6045 -2.9113 -1.3748
  324MOL0     H42718   9.863   3.286   3.432  1.9101  0.1396  2.8654
  324MOL0     H42719   9.764   3.361   3.219 -1.7389  0.5251 -0.6879
  324MOL0     H42720   9.809   3.528   3.251  0.5828  0.2638  0.7817
  324MOL0     H42721   9.558   3.646   3.300 -1.9416  0.7629  0.9915
  324MOL0     H42722   9.311   3.663   3.364 -2.5428 -0.1200 -0.3403
  324MOL0     H42723   9.338   3.666   3.537 -0.2047  0.9089 -0.0866
  324MOL0     H42724   9.117   3.600   3.483 -1.1083  0.4969 -3.1342
  324MOL0     H42725   9.211   3.460   3.558 -1.5560 -3.9108 -1.2092
  324MOL0     H42726   9.129   3.505   3.260  1.2174 -4.0114 -3.6074
  324MOL0     H42727   9.250   3.385   3.314  1.7605  3.8516  0.4688
  324MOL0     H42728   9.082   3.272   3.469 -1.2412 -1.0052  0.0028
  324MOL0     H42729   9.027   3.267   3.306  0.1800 -0.4912  0.7705
  324MOL0     H42730   8.941   3.362   3.155  0.7427  0.2631 -0.9753
  324MOL0     H42731   8.763   3.423   3.010  4.8588  2.0468 -0.2578
  324MOL0     H42732   8.412   3.881   3.002 -0.9479 -0.9226  3.5562
  324MOL0     H42733   8.247   3.968   2.858  2.7610 -0.5956 -2.5622
  324MOL0     H42734   7.866   3.726   2.796 -2.0652  1.5395  0.1485
  324MOL0     H42735   7.842   3.884   2.729 -2.1541  2.4409  2.7066
  324MOL0     H42736   7.932   3.830   3.016  0.2353 -0.0063 -0.7210
  324MOL0     H42737   7.782   3.892   2.958 -0.6609 -1.1896 -1.9749
  324MOL0     H42738   7.890   4.087   2.856  0.0300 -2.7284 -2.4111
  324MOL0     H42739   8.049   4.040   2.919  0.1468  0.4116  1.3959
  324MOL0     H42740   7.924   4.208   3.047 -1.9106 -0.0303 -1.8002
  324MOL0     H42741   7.793   4.093   3.075  0.4097 -1.5784 -0.5499
  324MOL0     H42742   8.071   4.078   3.200  0.0469  0.5190  0.6017
  324MOL0     H42743   7.957   3.938   3.194  0.4699 -0.4178 -2.0091
  324MOL0     H42744   7.910   4.026   3.392 -3.1494 -0.1721  1.6045
  324MOL0     H42745   7.790   4.101   3.296  0.1825 -0.9345 -1.1743
  324MOL0     H42746   8.058   4.250   3.350  0.7524 -0.1829 -1.7403
  324MOL0     H42747   7.904   4.317   3.282  1.0501  0.7272  1.4368
  324MOL0     H42748   7.959   4.374   3.508  1.3286 -3.0156  5.0360
  324MOL0     H42749   7.946   4.197   3.546 -0.4160 -3.1017 -2.0294
  324MOL0     H42750   8.055   3.597   2.826 -0.1143 -0.0341  0.0759
  324MOL0     H42751   8.255   3.489   2.967  2.2240 -0.4618 -1.7622
  324MOL0     H42752   8.547   3.588   3.342  0.0080  0.8640 -0.5247
  324MOL0     H42753   8.733   3.525   3.479  1.6918 -1.1373 -0.0021
  324MOL0     H42754  10.843   3.135   3.671  0.2594  0.2128  2.8864
  324MOL0     H42755  11.073   3.252   3.717  1.0810  0.9895  4.3748
  324MOL0     H42756  11.345   3.522   3.671 -2.0734 -0.0287  0.2912
  324MOL0     H42757  11.570   3.625   3.686  2.4907  0.0454  1.9026
  324MOL0     H42758  11.763   3.638   3.770  0.0868  0.4871 -1.5593
  324MOL0     H42759  11.844   3.759   3.865 -0.0932  0.9214 -0.0628
  324MOL0     H42760  11.844   3.821   3.616 -1.4709  0.5614 -3.8323
  324MOL0     H42761  11.674   3.813   3.603 -0.0782  1.4152  1.2077
  324MOL0     H42762  11.787   4.005   3.823  2.3301 -3.5698 -0.0153
  324MOL0     H42763  11.629   3.987   3.757 -0.3818 -0.4920  0.0491
  324MOL0     H42764  11.763   4.031   3.535 -2.5648  0.2955  0.8627
  324MOL0     H42765  11.722   4.166   3.648  1.6739  2.4080 -2.9357
  324MOL0     H42766  12.125   4.190   3.714 -0.5182 -0.6475  0.7297
  324MOL0     H42767  11.427   3.806   4.057 -0.6900  1.1614 -0.5294
  324MOL0     H42768  11.227   3.722   4.028  0.4901  0.6249  0.6341
  325MOL0     O42769   2.133   7.481   4.537  0.2067  0.3996  0.0689
  325MOL0     C42770   2.159   7.367   4.564 -0.3554  0.6414 -0.4998
  325MOL0     O42771   2.273   7.321   4.629 -0.2412  0.2774  0.1315
  325MOL0     C42772   2.377   7.401   4.671 -0.3213  0.6576  0.2571
  325MOL0     C42773   2.434   7.488   4.581 -1.1025 -0.3892 -0.4741
  325MOL0     C42774   2.545   7.573   4.613  1.0777  0.1728 -0.3134
  325MOL0     C42775   2.594   7.570   4.745 -0.8812 -0.6916  0.1740
  325MOL0     O42776   2.695   7.655   4.776  0.5770 -0.1001  0.5491
  325MOL0     C42777   2.769   7.630   4.895 -0.3705 -0.1385 -0.1251
  325MOL0     C42778   2.904   7.705   4.877 -1.3098  0.5626  0.3318
  325MOL0     C42779   3.034   7.648   4.933 -0.3504  0.3860  1.7010
  325MOL0     C42780   3.022   7.600   5.072  0.0509 -0.0191  0.3785
  325MOL0     C42781   3.163   7.550   5.108 -0.3400  0.1702 -0.0152
  325MOL0     C42782   3.191   7.407   5.044  1.3617 -1.7850 -0.4081
  325MOL0     C42783   3.314   7.337   5.094  0.1244 -0.6673  0.1538
  325MOL0     C42784   3.438   7.380   5.009  1.0333 -0.2048  0.4088
  325MOL0     N42785   3.558   7.312   5.057  0.6687 -0.3149  0.6943
  325MOL0     C42786   3.615   7.328   5.174  0.7919 -0.3165  0.8328
  325MOL0     C42787   3.712   7.234   5.180 -0.8191 -0.0135 -0.2549
  325MOL0     C42788   3.830   7.212   5.276 -0.5790  0.1947 -0.0506
  325MOL0     C42789   3.782   7.119   5.390 -0.2322  0.0972 -0.3962
  325MOL0     C42790   3.841   6.988   5.357  0.1443  0.0592 -0.2862
  325MOL0     C42791   3.769   6.889   5.448 -0.1021  0.2152 -0.3222
  325MOL0     O42792   3.629   6.878   5.415 -0.0601  0.1321  0.3180
  325MOL0     C42793   3.538   6.807   5.485  0.0247 -0.2475  0.0293
  325MOL0     C42794   3.413   6.853   5.483  0.3745  0.7473 -0.7822
  325MOL0     C42795   3.307   6.776   5.525  0.0553  0.5875 -0.1103
  325MOL0     C42796   3.331   6.651   5.585  0.0046 -1.1401 -0.7802
  325MOL0     C42797   3.218   6.575   5.642 -0.4321 -0.4833  0.1439
  325MOL0     O42798   3.090   6.625   5.631 -0.3948 -0.3334  0.2446
  325MOL0     C42799   2.985   6.568   5.690 -0.2506  0.0732  0.7304
  325MOL0     C42800   2.933   6.631   5.801 -0.1067  0.6024 -0.1114
  325MOL0     C42801   2.825   6.575   5.870  0.4858  0.2160  0.0788
  325MOL0     C42802   2.781   6.449   5.826  0.5056  0.0041  0.1253
  325MOL0     O42803   2.675   6.396   5.894 -0.3128 -0.8069  0.1686
  325MOL0     C42804   2.574   6.333   5.821  0.3027 -0.3099  0.1088
  325MOL0     C42805   2.581   6.183   5.851 -0.2144  0.3247 -0.8159
  325MOL0     C42806   2.448   6.116   5.812  0.0671  0.2752 -1.0997
  325MOL0     C42807   2.340   6.102   5.922 -0.4892  0.3117 -0.0333
  325MOL0     C42808   2.197   6.066   5.883  0.0274 -0.1348  0.3298
  325MOL0     C42809   2.183   5.926   5.825 -0.7660 -0.4965  0.1102
  325MOL0     C42810   2.033   5.888   5.815  0.1752 -0.4452  0.2304
  325MOL0     C42811   1.987   5.835   5.951  0.9360 -0.6742  0.5283
  325MOL0    Cl42812   1.829   5.752   5.918  0.3535  0.0179  0.3887
  325MOL0     C42813   2.831   6.387   5.707 -0.9224 -0.2574 -0.5184
  325MOL0     C42814   2.939   6.444   5.641 -0.0871 -0.4030 -0.9828
  325MOL0     O42815   3.248   6.471   5.696  0.0873 -0.4525  0.6437
  325MOL0     C42816   3.466   6.621   5.614 -0.0135  0.5812  0.5451
  325MOL0     C42817   3.571   6.698   5.562  0.4406  0.0276  0.5763
  325MOL0     N42818   3.712   7.173   5.060  0.4728 -0.7366 -0.2021
  325MOL0     N42819   3.615   7.206   4.992 -0.0108  0.0510 -0.1234
  325MOL0     C42820   2.532   7.493   4.844 -0.1023  0.3766  0.1824
  325MOL0     C42821   2.427   7.409   4.810  0.1816  1.2696  0.5928
  325MOL0     C42822   2.065   7.256   4.518 -0.3841 -0.3986  0.6755
  325MOL0     C42823   1.936   7.293   4.475 -0.3973 -0.2433 -0.7667
  325MOL0     C42824   1.839   7.200   4.439 -0.0758  0.8926 -0.7445
  325MOL0     C42825   1.870   7.061   4.436 -0.9269  0.0504 -0.1684
  325MOL0     O42826   1.782   6.953   4.411 -0.1381 -0.0660  0.4494
  325MOL0     C42827   1.639   6.972   4.425  0.1560 -0.2746  0.3766
  325MOL0     C42828   1.574   6.994   4.289 -0.3543 -0.2208 -0.0718
  325MOL0     C42829   1.609   6.881   4.192  0.5628 -0.0189  0.5532
  325MOL0     C42830   1.745   6.873   4.134 -0.0772 -0.0559  0.3099
  325MOL0     C42831   1.794   7.004   4.085  0.6134 -1.0507 -0.2491
  325MOL0     C42832   1.851   7.110   4.064 -0.6374 -0.4648 -0.1427
  325MOL0     C42833   2.002   7.033   4.473  0.5447 -0.5049  0.2867
  325MOL0     C42834   2.106   7.123   4.511  0.1306  0.8425  0.8129
  325MOL0     H42835   2.400   7.519   4.482  0.8995  0.1758 -1.0403
  325MOL0     H42836   2.588   7.639   4.539  0.3205 -0.4499 -1.3302
  325MOL0     H42837   2.795   7.524   4.901  4.1776  0.4381 -3.8370
  325MOL0     H42838   2.715   7.667   4.982  0.8117  2.3141 -0.3178
  325MOL0     H42839   2.888   7.799   4.930 -0.8175 -0.2155  1.9186
  325MOL0     H42840   2.926   7.724   4.771 -3.6232 -1.9531 -0.7250
  325MOL0     H42841   3.113   7.723   4.919 -0.4763 -0.0322 -2.3614
  325MOL0     H42842   3.060   7.568   4.863  1.0306  2.1534  0.0720
  325MOL0     H42843   2.991   7.673   5.148 -0.7712  0.6231 -0.5574
  325MOL0     H42844   2.958   7.511   5.080 -2.3381  1.5645 -0.0504
  325MOL0     H42845   3.181   7.519   5.211  0.2206  1.6256  0.3465
  325MOL0     H42846   3.241   7.618   5.071  0.5561 -0.8488 -0.0579
  325MOL0     H42847   3.194   7.416   4.935  0.4714 -2.2355 -0.4824
  325MOL0     H42848   3.104   7.351   5.079 -1.1028  1.8172 -0.3321
  325MOL0     H42849   3.337   7.346   5.201  1.1331  1.8145 -0.1918
  325MOL0     H42850   3.302   7.230   5.077 -2.0673 -0.7823  1.9812
  325MOL0     H42851   3.450   7.489   5.018 -1.4826  0.0507  1.3327
  325MOL0     H42852   3.418   7.356   4.905  0.3965 -1.3908  0.7956
  325MOL0     H42853   3.588   7.401   5.250 -1.1843 -0.2444  0.1010
  325MOL0     H42854   3.860   7.314   5.302  3.5656 -1.1285  0.9454
  325MOL0     H42855   3.914   7.167   5.223 -1.1548 -1.5538  0.4723
  325MOL0     H42856   3.673   7.107   5.397 -0.1004 -0.5363  1.1311
  325MOL0     H42857   3.824   7.159   5.483  1.9795 -1.0311 -0.8424
  325MOL0     H42858   3.832   6.975   5.249 -2.0714  1.4066 -0.3197
  325MOL0     H42859   3.947   6.998   5.384  0.9020  1.3514 -3.3614
  325MOL0     H42860   3.772   6.923   5.551 -1.8804  2.0607 -0.8205
  325MOL0     H42861   3.817   6.790   5.440 -2.4248 -0.8474 -2.7695
  325MOL0     H42862   3.382   6.939   5.426 -0.2416 -0.1936 -1.9043
  325MOL0     H42863   3.203   6.800   5.506 -0.3532  0.4026  1.6854
  325MOL0     H42864   2.963   6.731   5.829 -1.1362  2.0549 -3.6097
  325MOL0     H42865   2.760   6.617   5.946  0.3000  0.6004 -0.2907
  325MOL0     H42866   2.570   6.363   5.716 -0.3748 -0.9405 -0.0553
  325MOL0     H42867   2.475   6.363   5.855  0.5910  0.8730 -0.0471
  325MOL0     H42868   2.596   6.170   5.958  1.9564  2.7416 -0.7457
  325MOL0     H42869   2.670   6.136   5.808  1.1060  0.4890  1.5801
  325MOL0     H42870   2.474   6.018   5.771  1.8980  0.0355  0.5003
  325MOL0     H42871   2.416   6.175   5.725  1.0447 -0.6574 -2.1252
  325MOL0     H42872   2.369   6.028   5.998 -0.8748 -0.8854 -1.0128
  325MOL0     H42873   2.326   6.193   5.980  1.5432  0.0017  1.0404
  325MOL0     H42874   2.171   6.140   5.807 -2.9715 -1.4597 -0.0659
  325MOL0     H42875   2.128   6.070   5.968 -1.7504  0.6858 -1.0831
  325MOL0     H42876   2.234   5.866   5.902  0.9452 -0.7869 -1.1902
  325MOL0     H42877   2.241   5.902   5.735  3.5070 -2.9695  3.1263
  325MOL0     H42878   1.978   5.976   5.780  1.6303 -0.3319 -1.9936
  325MOL0     H42879   2.024   5.806   5.743  1.1541 -0.4003  0.0401
  325MOL0     H42880   1.966   5.904   6.033  1.3161  1.3787 -1.0304
  325MOL0     H42881   2.062   5.771   6.000  1.2697 -0.3931  0.3840
  325MOL0     H42882   2.789   6.296   5.666 -2.6429  0.8857 -1.4140
  325MOL0     H42883   2.991   6.394   5.560  1.6207 -2.0953  1.0468
  325MOL0     H42884   3.475   6.535   5.679 -0.2418  0.4549  0.4087
  325MOL0     H42885   3.671   6.664   5.586  0.5487  0.9505  1.5289
  325MOL0     H42886   2.567   7.485   4.947  1.9205  1.0469 -0.4051
  325MOL0     H42887   2.381   7.336   4.875 -1.7119  1.1679 -0.7768
  325MOL0     H42888   1.897   7.394   4.481 -0.4955 -0.3691  1.1388
  325MOL0     H42889   1.737   7.234   4.430 -0.3373  1.5312  2.9951
  325MOL0     H42890   1.617   7.055   4.493  1.0542  0.8089 -0.6163
  325MOL0     H42891   1.587   6.883   4.462 -0.4138 -0.0111  0.2166
  325MOL0     H42892   1.466   6.987   4.303 -0.5266  3.5239  1.6253
  325MOL0     H42893   1.597   7.086   4.234  0.6959 -1.3005 -1.5225
  325MOL0     H42894   1.537   6.873   4.110  0.4151 -1.9023  0.8259
  325MOL0     H42895   1.600   6.786   4.245 -1.3799  0.0524  0.4245
  325MOL0     H42896   1.816   6.831   4.206  1.5748 -0.8490 -1.6550
  325MOL0     H42897   1.749   6.798   4.055  1.1736 -0.1523  0.4405
  325MOL0     H42898   1.917   7.192   4.047  1.7319 -1.9400  1.3917
  325MOL0     H42899   2.028   6.928   4.477  0.7278 -0.4698  0.0291
  325MOL0     H42900   2.200   7.082   4.546  0.4451  1.7787  1.1038
  326MOL0     O42901   4.023   9.146   0.887 -0.5060 -0.3247 -0.5943
  326MOL0     C42902   4.120   9.089   0.934  0.2232  0.6094  0.3904
  326MOL0     O42903   4.149   8.956   0.917  0.7802  0.2946  0.4133
  326MOL0     C42904   4.051   8.882   0.852  0.7493  0.4120 -0.3184
  326MOL0     C42905   3.921   8.865   0.906 -0.1509  0.2995 -0.0871
  326MOL0     C42906   3.830   8.780   0.851 -0.2683  0.2108  0.9673
  326MOL0     C42907   3.847   8.733   0.723  0.3409  1.1101  0.5324
  326MOL0     O42908   3.741   8.665   0.665 -0.4644  0.6575  0.0142
  326MOL0     C42909   3.758   8.603   0.530 -0.2025 -0.4736  0.2928
  326MOL0     C42910   3.631   8.537   0.481 -0.9757  0.1467  0.5050
  326MOL0     C42911   3.503   8.621   0.468 -0.4788  0.2544  0.2733
  326MOL0     C42912   3.416   8.540   0.372  0.0214 -0.0916  0.7335
  326MOL0     C42913   3.369   8.400   0.429 -0.5121 -0.7853 -0.6029
  326MOL0     C42914   3.298   8.325   0.315 -0.3499  0.1857  0.6104
  326MOL0     C42915   3.151   8.372   0.309 -0.8450 -0.1670 -1.2033
  326MOL0     C42916   3.050   8.302   0.410 -0.5739 -0.3068 -0.1232
  326MOL0     N42917   2.912   8.288   0.361  0.1946 -0.1670  0.3059
  326MOL0     C42918   2.784   8.327   0.407 -0.0420 -0.3145 -0.1463
  326MOL0     C42919   2.699   8.246   0.344 -0.5120  1.1809  0.6025
  326MOL0     C42920   2.567   8.228   0.383 -0.5629  0.2299  0.3455
  326MOL0     C42921   2.551   8.130   0.509 -0.0067 -0.9433  0.6396
  326MOL0     C42922   2.470   8.189   0.628  1.0613  1.0074  0.5645
  326MOL0     C42923   2.322   8.139   0.631  0.3597  0.1076 -0.5050
  326MOL0     O42924   2.273   8.163   0.764 -0.4284 -0.4766  0.0435
  326MOL0     C42925   2.141   8.182   0.784  0.4342 -0.2696  0.5482
  326MOL0     C42926   2.035   8.154   0.689 -0.1783 -0.3210 -1.0156
  326MOL0     C42927   1.902   8.151   0.730 -0.9137  0.0953  0.0964
  326MOL0     C42928   1.865   8.199   0.855  0.3960 -0.2849 -0.2617
  326MOL0     C42929   1.719   8.207   0.883 -0.5082  0.0435 -0.5725
  326MOL0     O42930   1.691   8.254   1.008  0.2221 -0.6385  0.1761
  326MOL0     C42931   1.569   8.295   1.050 -0.4744 -0.4771 -0.9559
  326MOL0     C42932   1.525   8.251   1.178  0.3496 -0.0816  0.5449
  326MOL0     C42933   1.407   8.310   1.234  0.8973  0.0611  0.8390
  326MOL0     C42934   1.336   8.401   1.165  0.3264 -1.3635  0.4068
  326MOL0     O42935   1.232   8.461   1.235  0.7406 -0.1586 -0.4670
  326MOL0     C42936   1.139   8.551   1.160 -0.7823  0.6153 -0.8523
  326MOL0     C42937   1.003   8.570   1.229  0.2241  0.2532 -0.8792
  326MOL0     C42938   0.902   8.646   1.150  0.1996  1.0211  0.2115
  326MOL0     C42939   0.752   8.613   1.203 -0.6289 -0.6549  0.0330
  326MOL0     C42940   0.666   8.733   1.182  0.6529 -0.6428 -0.2664
  326MOL0     C42941   0.507   8.734   1.210 -0.5727  0.7070 -0.3978
  326MOL0     C42942   0.459   8.873   1.158  0.6648  0.3863  0.4404
  326MOL0     C42943   0.318   8.886   1.196  0.3778 -0.2567 -0.8548
  326MOL0    Cl42944   0.302   8.902   1.376  0.2906  0.3963  0.0903
  326MOL0     C42945   1.371   8.437   1.036 -0.4454 -0.7902 -0.6013
  326MOL0     C42946   1.488   8.377   0.980  0.7190  0.4988  0.5111
  326MOL0     O42947   1.633   8.181   0.800  0.1246  0.0063  0.6230
  326MOL0     C42948   1.967   8.245   0.940 -0.5282  1.2933 -0.2856
  326MOL0     C42949   2.106   8.234   0.907  0.6869  0.2362 -0.2341
  326MOL0     N42950   2.772   8.159   0.265 -0.2481 -0.4592 -0.2210
  326MOL0     N42951   2.897   8.194   0.267  0.0830  0.6697  0.2430
  326MOL0     C42952   3.967   8.755   0.660 -0.9297 -0.0537  0.0493
  326MOL0     C42953   4.073   8.825   0.725 -0.2562 -0.6477 -1.0743
  326MOL0     C42954   4.210   9.167   1.015 -0.5349  0.4161  0.1529
  326MOL0     C42955   4.315   9.111   1.085 -0.0814  0.4964  0.0217
  326MOL0     C42956   4.395   9.182   1.174 -0.2075 -0.4984  0.1832
  326MOL0     C42957   4.377   9.319   1.180 -0.4261  0.5302 -0.3638
  326MOL0     O42958   4.446   9.411   1.257 -1.1910  0.3573 -0.1205
  326MOL0     C42959   4.576   9.360   1.306 -0.4347  0.4078 -0.0396
  326MOL0     C42960   4.672   9.476   1.300  0.2336  0.0228 -0.1438
  326MOL0     C42961   4.808   9.464   1.368  0.4131 -0.0024  0.8722
  326MOL0     C42962   4.893   9.593   1.340 -0.7325  0.4944 -1.0512
  326MOL0     C42963   4.913   9.634   1.201  0.1511  0.7211  0.1443
  326MOL0     C42964   4.920   9.678   1.090 -0.8298  0.8651  0.0689
  326MOL0     C42965   4.278   9.383   1.101 -1.1885  0.0398  0.0903
  326MOL0     C42966   4.195   9.310   1.025  0.5506  0.5204  0.4847
  326MOL0     H42967   3.891   8.907   1.002  3.2162  2.0684  0.3398
  326MOL0     H42968   3.740   8.752   0.904  0.0927  1.2819  2.1745
  326MOL0     H42969   3.842   8.535   0.542 -0.0143 -0.9461 -2.9350
  326MOL0     H42970   3.787   8.681   0.459  0.6497  0.3124  1.4588
  326MOL0     H42971   3.617   8.451   0.548 -1.8755  2.0665  2.9732
  326MOL0     H42972   3.641   8.500   0.379 -1.0792  1.9254 -0.1786
  326MOL0     H42973   3.529   8.718   0.428 -0.7671  0.1830 -0.0930
  326MOL0     H42974   3.461   8.629   0.569  1.7618 -1.3856  1.4174
  326MOL0     H42975   3.323   8.590   0.344 -0.6833 -0.9845  1.4121
  326MOL0     H42976   3.469   8.527   0.277 -2.8758  2.4863 -1.4199
  326MOL0     H42977   3.294   8.415   0.507  0.4624 -0.0396  0.2146
  326MOL0     H42978   3.456   8.342   0.463  0.9173  0.3550 -2.1978
  326MOL0     H42979   3.299   8.219   0.339 -0.0430 -0.0709 -0.5100
  326MOL0     H42980   3.357   8.346   0.226 -0.7916  2.0651  0.7077
  326MOL0     H42981   3.144   8.481   0.315  0.6728 -0.0481 -1.2133
  326MOL0     H42982   3.114   8.345   0.209 -1.7028 -2.3409 -0.3457
  326MOL0     H42983   3.061   8.358   0.503  1.6054 -2.2973  0.9311
  326MOL0     H42984   3.101   8.206   0.426  3.0818  1.3141 -1.0415
  326MOL0     H42985   2.766   8.396   0.489  0.2738 -0.4687  0.0532
  326MOL0     H42986   2.497   8.189   0.308 -0.5160  1.4471 -0.3546
  326MOL0     H42987   2.520   8.322   0.416 -1.0370  0.7457 -1.6616
  326MOL0     H42988   2.650   8.101   0.546  0.1186  2.5460  3.5212
  326MOL0     H42989   2.508   8.033   0.481  1.1398 -1.4383  0.5443
  326MOL0     H42990   2.516   8.151   0.720 -2.9289 -3.0746  1.2221
  326MOL0     H42991   2.478   8.298   0.632  3.6199  0.8813  0.8834
  326MOL0     H42992   2.322   8.033   0.605  2.4204 -0.0735  0.0457
  326MOL0     H42993   2.270   8.202   0.559 -0.4463  1.2326  1.0063
  326MOL0     H42994   2.060   8.117   0.590  2.3851 -1.0373 -0.1822
  326MOL0     H42995   1.829   8.106   0.663  0.6760  0.1954 -1.8208
  326MOL0     H42996   1.572   8.172   1.234 -1.2817 -0.4441  1.4818
  326MOL0     H42997   1.359   8.275   1.325 -2.8104 -1.6320 -1.5281
  326MOL0     H42998   1.118   8.504   1.064  2.9884 -0.6486 -1.2295
  326MOL0     H42999   1.183   8.651   1.155 -1.9357  1.1584 -0.4879
  326MOL0     H43000   1.017   8.616   1.327 -1.7045 -1.2039  0.1530
  326MOL0     H43001   0.958   8.471   1.243  0.6887  0.0777 -0.6219
  326MOL0     H43002   0.911   8.626   1.043  2.2550  2.5192  0.0471
  326MOL0     H43003   0.920   8.754   1.156  0.1009  1.0070  0.8933
  326MOL0     H43004   0.701   8.542   1.136  0.2370 -0.5718 -0.7373
  326MOL0     H43005   0.747   8.582   1.307  2.6473 -0.6381  0.2846
  326MOL0     H43006   0.672   8.784   1.085  0.4729  0.9590  0.5243
  326MOL0     H43007   0.706   8.810   1.250 -0.3882  0.9031 -1.3299
  326MOL0     H43008   0.488   8.726   1.317 -0.9728 -0.2177 -0.5224
  326MOL0     H43009   0.463   8.647   1.160 -0.6183 -0.4596  1.5668
  326MOL0     H43010   0.513   8.961   1.194 -1.1221  1.2909  1.0329
  326MOL0     H43011   0.467   8.869   1.049 -0.0751 -3.4283  0.3594
  326MOL0     H43012   0.256   8.798   1.175  0.7041 -1.3165  2.2158
  326MOL0     H43013   0.284   8.977   1.144 -0.5966 -0.7558 -1.1282
  326MOL0     H43014   1.318   8.509   0.975  1.5908  2.7289  1.4592
  326MOL0     H43015   1.511   8.415   0.881 -1.7633 -0.3176 -0.4656
  326MOL0     H43016   1.950   8.264   1.045 -0.5291 -0.1921 -0.0061
  326MOL0     H43017   2.184   8.256   0.980  0.7294 -2.8096  0.7900
  326MOL0     H43018   3.989   8.701   0.568  3.4827  1.7462 -0.2466
  326MOL0     H43019   4.172   8.842   0.686  0.5957 -0.2297  1.1083
  326MOL0     H43020   4.332   9.004   1.087  1.0749  0.6514 -0.7384
  326MOL0     H43021   4.469   9.142   1.242  0.2884  0.1294  0.0205
  326MOL0     H43022   4.626   9.277   1.255  0.9679  0.8172  0.6023
  326MOL0     H43023   4.571   9.330   1.411 -2.0633 -1.8624 -0.6971
  326MOL0     H43024   4.684   9.495   1.193  1.4745 -0.4435 -0.1099
  326MOL0     H43025   4.615   9.566   1.324 -1.5651 -1.6595  2.4339
  326MOL0     H43026   4.853   9.380   1.314  1.2330 -0.2138  1.8696
  326MOL0     H43027   4.798   9.438   1.474 -1.1387 -0.8456  0.5528
  326MOL0     H43028   4.846   9.668   1.404  0.8449  0.8718 -0.2658
  326MOL0     H43029   4.989   9.578   1.391  0.7617  2.6122 -3.0687
  326MOL0     H43030   4.921   9.694   0.984  0.2345  0.1368 -0.0474
  326MOL0     H43031   4.263   9.491   1.106  2.0843  0.5857  1.1907
  326MOL0     H43032   4.114   9.351   0.966  1.7235  3.1869  0.5915
  327MOL0     O43033   9.002   3.387   9.028 -0.2906  0.1850 -0.4507
  327MOL0     C43034   8.999   3.439   8.912  0.8688 -0.0606 -0.3097
  327MOL0     O43035   9.095   3.464   8.834 -0.3106  0.1088  0.4003
  327MOL0     C43036   9.225   3.439   8.879 -0.1029 -0.9115 -0.5214
  327MOL0     C43037   9.293   3.526   8.961  0.9732 -0.0555  0.7871
  327MOL0     C43038   9.424   3.511   8.988  1.0808 -0.4671  0.6799
  327MOL0     C43039   9.500   3.402   8.940 -0.2193 -0.2233 -0.0047
  327MOL0     O43040   9.630   3.372   8.972  0.1872 -0.4541 -0.0420
  327MOL0     C43041   9.689   3.428   9.090  0.4091  0.7001  0.3664
  327MOL0     C43042   9.845   3.412   9.088 -0.7277  0.2499 -0.1941
  327MOL0     C43043   9.895   3.275   9.104 -0.0660  0.5533 -0.3526
  327MOL0     C43044  10.044   3.285   9.127 -0.3756  0.3994  0.8557
  327MOL0     C43045  10.092   3.152   9.181 -0.4396  0.0388 -0.6767
  327MOL0     C43046  10.089   3.034   9.081 -0.2755  0.1171  0.6436
  327MOL0     C43047  10.167   2.914   9.137 -0.0425  0.3227 -0.6091
  327MOL0     C43048  10.165   2.803   9.034 -0.7592  0.9609  0.1848
  327MOL0     N43049  10.246   2.837   8.918 -0.4151  0.1787  0.4438
  327MOL0     C43050  10.206   2.868   8.791 -0.0087  0.1923 -0.2456
  327MOL0     C43051  10.326   2.903   8.729 -0.2037 -0.1541 -0.2252
  327MOL0     C43052  10.342   2.945   8.588  0.0322 -0.8170  0.7644
  327MOL0     C43053  10.234   3.027   8.536  0.5541  0.0982  0.0597
  327MOL0     C43054  10.131   2.938   8.454 -0.5241 -0.0290 -0.0030
  327MOL0     C43055  10.042   3.042   8.387  0.1888  0.4542 -0.2671
  327MOL0     O43056   9.960   2.956   8.301 -0.9041  0.5865  0.5160
  327MOL0     C43057   9.888   3.017   8.203  0.2258  0.5298  1.3671
  327MOL0     C43058   9.917   3.137   8.146  0.3908  0.1415  0.1942
  327MOL0     C43059   9.809   3.214   8.095 -1.0324 -0.3568 -0.4616
  327MOL0     C43060   9.677   3.166   8.095  1.1630  0.4193  0.2099
  327MOL0     C43061   9.572   3.248   8.036 -1.0889 -1.0261 -0.4106
  327MOL0     O43062   9.572   3.376   8.079  0.7206 -0.0876  0.0650
  327MOL0     C43063   9.487   3.477   8.030 -0.8991  0.3231  0.0287
  327MOL0     C43064   9.397   3.461   7.919  0.5079 -0.3307 -0.0015
  327MOL0     C43065   9.294   3.553   7.904 -0.1527  0.2537 -0.1044
  327MOL0     C43066   9.284   3.661   7.990  0.1367  0.1714  0.4304
  327MOL0     O43067   9.169   3.731   7.962  0.5631  0.2839  0.5038
  327MOL0     C43068   9.101   3.770   8.086  0.4456 -0.2853  0.4499
  327MOL0     C43069   8.970   3.838   8.041  1.3911  0.1694 -0.0201
  327MOL0     C43070   8.867   3.749   7.982  0.4612  0.3341 -0.5715
  327MOL0     C43071   8.739   3.828   7.959 -0.4112 -0.5479  0.5985
  327MOL0     C43072   8.660   3.760   7.849  0.6486 -0.0960  0.3558
  327MOL0     C43073   8.531   3.844   7.825 -0.2785  0.7759 -0.2382
  327MOL0     C43074   8.433   3.779   7.729  0.2114 -0.2104 -0.3113
  327MOL0     C43075   8.478   3.750   7.585  0.4291 -0.9367  0.7311
  327MOL0    Cl43076   8.363   3.632   7.519  0.0034  0.1382  0.1780
  327MOL0     C43077   9.381   3.687   8.094  0.3984  0.7671  0.2086
  327MOL0     C43078   9.488   3.596   8.108 -0.8431 -0.4883  0.5196
  327MOL0     O43079   9.484   3.191   7.968 -0.0482  0.7677  0.4763
  327MOL0     C43080   9.648   3.032   8.138 -0.7441  0.0782  0.4211
  327MOL0     C43081   9.756   2.960   8.199 -0.6957  0.7923  0.3993
  327MOL0     N43082  10.428   2.899   8.826 -0.3214  0.3261  0.2525
  327MOL0     N43083  10.380   2.858   8.930  0.1153  0.2733 -0.2351
  327MOL0     C43084   9.426   3.309   8.862 -0.3000 -0.5621  0.8493
  327MOL0     C43085   9.290   3.325   8.839  0.4569  0.0082  0.0786
  327MOL0     C43086   8.864   3.492   8.876 -0.6462 -1.4976  0.3002
  327MOL0     C43087   8.844   3.571   8.764  0.0592  0.3842 -0.0700
  327MOL0     C43088   8.723   3.621   8.729  0.4154 -0.4059  0.2877
  327MOL0     C43089   8.614   3.608   8.817 -0.4787  1.1341 -0.1319
  327MOL0     O43090   8.490   3.673   8.812 -0.9427  0.3923 -0.7743
  327MOL0     C43091   8.464   3.751   8.691  0.5547 -0.6228  0.1720
  327MOL0     C43092   8.315   3.791   8.684  0.2888  0.2495  0.3692
  327MOL0     C43093   8.272   3.903   8.787 -1.1992 -0.2541  0.3935
  327MOL0     C43094   8.116   3.892   8.818 -0.3191  0.3755 -0.3164
  327MOL0     C43095   8.026   3.932   8.709 -0.0279 -0.8771  1.1572
  327MOL0     C43096   7.964   3.988   8.619 -0.3988  0.0137 -0.0820
  327MOL0     C43097   8.623   3.525   8.929  0.1790 -0.0379  0.2679
  327MOL0     C43098   8.741   3.455   8.959 -0.1268 -0.5730  0.2247
  327MOL0     H43099   9.245   3.614   9.003  2.0237 -0.0647  2.0589
  327MOL0     H43100   9.470   3.580   9.057 -0.3817 -1.5273  2.8368
  327MOL0     H43101   9.653   3.375   9.179  0.0402 -0.2713 -0.3484
  327MOL0     H43102   9.673   3.536   9.098 -0.1827  0.6013  0.5897
  327MOL0     H43103   9.876   3.479   9.169 -1.9928  2.3364 -1.3419
  327MOL0     H43104   9.883   3.460   8.997 -2.2401  0.1086 -0.9166
  327MOL0     H43105   9.888   3.227   9.006  3.6048 -3.1004  0.8977
  327MOL0     H43106   9.838   3.223   9.181 -0.3563  1.8505  0.3303
  327MOL0     H43107  10.088   3.310   9.031  0.8874  0.9844  1.5693
  327MOL0     H43108  10.061   3.373   9.189 -1.6576  1.6250 -0.4685
  327MOL0     H43109  10.044   3.123   9.276 -0.8750 -0.0990 -0.9354
  327MOL0     H43110  10.193   3.168   9.220 -1.7120  1.9488  2.1792
  327MOL0     H43111  10.132   3.063   8.985  2.9007  0.7237  2.1101
  327MOL0     H43112   9.982   3.017   9.070 -0.5728  2.6672 -1.4496
  327MOL0     H43113  10.271   2.942   9.160 -0.4728 -0.0321  2.1608
  327MOL0     H43114  10.118   2.873   9.226  1.1686  0.0797 -0.0189
  327MOL0     H43115  10.062   2.785   9.001  0.5029 -0.8873 -3.1873
  327MOL0     H43116  10.212   2.717   9.083 -0.0798  1.5694  0.6278
  327MOL0     H43117  10.109   2.879   8.743  0.0350  2.3256  0.0432
  327MOL0     H43118  10.341   2.848   8.537 -0.3237  0.7149 -2.3564
  327MOL0     H43119  10.440   2.991   8.571  0.1974 -0.8017  1.6938
  327MOL0     H43120  10.278   3.101   8.469  1.5607 -0.5398 -0.0131
  327MOL0     H43121  10.179   3.073   8.619 -0.4205 -1.4823  0.3356
  327MOL0     H43122  10.192   2.882   8.383 -0.2578  0.6733 -0.3354
  327MOL0     H43123  10.068   2.870   8.512 -1.6560  1.5829  0.7454
  327MOL0     H43124  10.101   3.106   8.322  1.7870 -1.5359 -0.8860
  327MOL0     H43125   9.980   3.097   8.458  1.7657 -0.0695  1.6042
  327MOL0     H43126  10.013   3.188   8.150  0.5529 -0.1392 -0.1054
  327MOL0     H43127   9.846   3.309   8.061  2.5693 -0.9404  1.4078
  327MOL0     H43128   9.398   3.374   7.855  0.2924 -0.9736  0.8601
  327MOL0     H43129   9.228   3.527   7.822  0.1970 -1.9641  0.2714
  327MOL0     H43130   9.163   3.838   8.145  2.1804 -0.2268 -1.3222
  327MOL0     H43131   9.078   3.680   8.142  0.9558 -1.4587 -1.1585
  327MOL0     H43132   8.987   3.910   7.960  2.1086  2.5491  2.1127
  327MOL0     H43133   8.930   3.911   8.113 -1.4930  2.8313 -3.8919
  327MOL0     H43134   8.838   3.663   8.044  0.9579  2.0113  2.1459
  327MOL0     H43135   8.907   3.710   7.888  1.1209 -1.4623  0.4211
  327MOL0     H43136   8.672   3.831   8.045  0.7449  0.6453  1.4880
  327MOL0     H43137   8.764   3.930   7.929  1.0051 -1.1660 -0.4609
  327MOL0     H43138   8.635   3.658   7.882  2.4210 -0.2077  1.4465
  327MOL0     H43139   8.713   3.750   7.754  1.5827  1.0608  0.7397
  327MOL0     H43140   8.556   3.940   7.779  1.0385  1.5841  1.9865
  327MOL0     H43141   8.471   3.869   7.913  0.3525 -0.9022  0.7124
  327MOL0     H43142   8.394   3.689   7.777  0.6722 -0.0330  0.4051
  327MOL0     H43143   8.347   3.845   7.743 -0.9428 -2.1984  3.4359
  327MOL0     H43144   8.579   3.707   7.593  1.0055  0.4551  1.3534
  327MOL0     H43145   8.472   3.835   7.516  1.0421 -2.0993 -0.7993
  327MOL0     H43146   9.372   3.774   8.158  1.3479  2.1697 -1.4542
  327MOL0     H43147   9.558   3.613   8.189  0.9052 -1.1944 -0.7821
  327MOL0     H43148   9.550   2.986   8.133 -0.1888 -1.0142 -2.3713
  327MOL0     H43149   9.754   2.864   8.250  0.1068  0.7829  0.4271
  327MOL0     H43150   9.473   3.220   8.820  1.5121  0.8952 -0.3770
  327MOL0     H43151   9.250   3.266   8.756  3.8410 -0.2461 -1.5363
  327MOL0     H43152   8.929   3.579   8.697  1.3934 -2.7904  1.0453
  327MOL0     H43153   8.703   3.682   8.641  1.7206  0.3565  0.4893
  327MOL0     H43154   8.484   3.693   8.601  1.4008 -1.2471  0.7466
  327MOL0     H43155   8.534   3.836   8.696 -2.7770  2.3474  0.6741
  327MOL0     H43156   8.295   3.832   8.585  0.7623 -2.2684 -0.8594
  327MOL0     H43157   8.254   3.701   8.693  0.2090  0.1717 -0.8143
  327MOL0     H43158   8.289   4.007   8.758 -2.3216 -0.0767  0.3392
  327MOL0     H43159   8.316   3.872   8.882 -1.8839 -2.7866 -0.0243
  327MOL0     H43160   8.104   3.787   8.847 -1.9286 -0.2413 -2.8641
  327MOL0     H43161   8.103   3.959   8.904  0.6824 -0.4053  0.4647
  327MOL0     H43162   7.913   4.032   8.535  2.2771  1.0277 -1.2971
  327MOL0     H43163   8.540   3.518   8.999 -0.1391  0.9465  0.0055
  327MOL0     H43164   8.751   3.391   9.046  2.2002  1.9868  2.0278
  328MOL0     O43165  11.274   0.672   5.556  0.1735 -0.8968  0.7717
  328MOL0     C43166  11.312   0.783   5.573 -0.1128 -0.1457 -0.7102
  328MOL0     O43167  11.239   0.883   5.633 -0.1495 -0.1721  0.6836
  328MOL0     C43168  11.101   0.876   5.643 -0.0860  0.3177  0.2097
  328MOL0     C43169  11.031   0.994   5.605 -0.0510 -1.1629 -0.6976
  328MOL0     C43170  10.889   0.986   5.590 -0.0724  0.1922 -0.3360
  328MOL0     C43171  10.813   0.872   5.637 -0.6137 -0.7961 -0.0948
  328MOL0     O43172  10.679   0.866   5.615 -0.4915 -0.2378  0.3079
  328MOL0     C43173  10.595   0.758   5.651 -0.9716  0.8456  0.1599
  328MOL0     C43174  10.457   0.789   5.585 -0.6764  0.2915 -0.9831
  328MOL0     C43175  10.380   0.905   5.640 -0.4116  0.1427 -0.1803
  328MOL0     C43176  10.248   0.914   5.566 -0.4545 -0.8295  0.9694
  328MOL0     C43177  10.186   1.054   5.574  1.1158 -0.5791 -0.2047
  328MOL0     C43178  10.041   1.049   5.515 -0.2764  0.3315  1.0903
  328MOL0     C43179  10.000   1.202   5.469 -1.0434 -1.0171  0.5337
  328MOL0     C43180  10.068   1.255   5.341  0.0998 -0.1649  0.0094
  328MOL0     N43181  10.040   1.169   5.227  0.3780  0.2344 -0.0142
  328MOL0     C43182   9.923   1.108   5.194  0.3422  0.9038  0.0678
  328MOL0     C43183   9.956   1.002   5.118  0.4500  0.3750  0.1990
  328MOL0     C43184   9.873   0.878   5.069  0.0938 -0.2774 -0.4181
  328MOL0     C43185   9.802   0.912   4.937  0.5591 -0.3820 -0.4523
  328MOL0     C43186   9.679   0.985   4.958  0.0917  0.5099 -0.3560
  328MOL0     C43187   9.611   1.020   4.821 -0.3561 -0.2748 -0.2722
  328MOL0     O43188   9.471   1.040   4.845  0.6041 -0.1299 -0.1280
  328MOL0     C43189   9.409   1.167   4.820  0.7982  0.2452  0.1604
  328MOL0     C43190   9.461   1.278   4.761 -0.2281  0.0637  0.3317
  328MOL0     C43191   9.377   1.380   4.720  0.1062 -0.4098 -0.0336
  328MOL0     C43192   9.242   1.383   4.760 -0.0549  0.4987  0.3890
  328MOL0     C43193   9.150   1.498   4.729  0.1919 -0.3545 -0.0560
  328MOL0     O43194   9.010   1.491   4.753  0.0500 -1.0029  0.0674
  328MOL0     C43195   8.921   1.581   4.703  0.7700 -0.5623  0.1372
  328MOL0     C43196   8.949   1.722   4.684  0.1746 -0.0420  0.0706
  328MOL0     C43197   8.848   1.797   4.619  0.8475  0.1943  0.7439
  328MOL0     C43198   8.713   1.753   4.607 -0.3327 -0.1152  0.2856
  328MOL0     O43199   8.615   1.830   4.556  1.1941  0.0286  0.6630
  328MOL0     C43200   8.635   1.971   4.550 -0.1202 -0.3898  0.6166
  328MOL0     C43201   8.530   2.038   4.451 -0.2619  0.2458  0.5991
  328MOL0     C43202   8.591   2.170   4.395 -1.1108 -0.5793  0.3335
  328MOL0     C43203   8.489   2.243   4.312  0.6688 -0.0683  0.5614
  328MOL0     C43204   8.399   2.344   4.387  0.7058 -1.0902  0.4464
  328MOL0     C43205   8.297   2.417   4.302 -0.3131 -0.7016 -0.5370
  328MOL0     C43206   8.214   2.529   4.373 -0.5350  0.6179 -1.2596
  328MOL0     C43207   8.090   2.561   4.299  0.6728 -0.2773 -0.1711
  328MOL0    Cl43208   7.992   2.664   4.400 -0.0379 -0.2965  0.0590
  328MOL0     C43209   8.687   1.621   4.633 -0.9671  1.3172 -0.0386
  328MOL0     C43210   8.787   1.536   4.682  0.3409 -0.1326 -0.1420
  328MOL0     O43211   9.206   1.590   4.669 -0.0112  0.3470  0.0346
  328MOL0     C43212   9.197   1.285   4.839 -0.4347 -0.9251 -0.2449
  328MOL0     C43213   9.277   1.173   4.864 -0.5024 -0.5497  0.6065
  328MOL0     N43214  10.094   1.001   5.098  0.4241 -0.2129 -0.1836
  328MOL0     N43215  10.141   1.099   5.171 -0.5434  0.6411  0.2849
  328MOL0     C43216  10.888   0.761   5.688  0.4090  0.5768  0.1958
  328MOL0     C43217  11.029   0.767   5.696 -0.3972  0.0674 -0.1717
  328MOL0     C43218  11.453   0.814   5.541  0.0448  0.1871  0.7250
  328MOL0     C43219  11.498   0.944   5.549 -0.5100 -0.9454 -0.3195
  328MOL0     C43220  11.638   0.964   5.538  0.2012 -1.0662 -0.7400
  328MOL0     C43221  11.725   0.863   5.489  0.3362  0.3183  0.4534
  328MOL0     O43222  11.856   0.880   5.474  0.7673  0.3454  0.2084
  328MOL0     C43223  11.924   1.002   5.515 -0.2633  0.9817  0.3356
  328MOL0     C43224  12.075   0.997   5.491 -0.6151  0.4823 -0.2058
  328MOL0     C43225  12.111   1.098   5.376  0.1425  0.6173 -0.5544
  328MOL0     C43226  12.088   1.033   5.243 -0.4502 -0.3791  0.5230
  328MOL0     C43227  12.203   0.945   5.199  0.4149 -0.6937 -0.1304
  328MOL0     C43228  12.309   0.897   5.157 -0.6320  0.8415 -0.2899
  328MOL0     C43229  11.674   0.738   5.482 -0.6882  0.0043 -0.4781
  328MOL0     C43230  11.543   0.717   5.494 -0.1790  0.5560  0.8175
  328MOL0     H43231  11.104   1.070   5.582 -1.8557  0.9230  0.0630
  328MOL0     H43232  10.816   1.063   5.565 -2.1575 -1.0604  1.5740
  328MOL0     H43233  10.593   0.751   5.760  0.4487  0.6460  0.1812
  328MOL0     H43234  10.637   0.661   5.621  2.5470  2.5575 -0.9591
  328MOL0     H43235  10.391   0.702   5.593 -2.0973  1.3589 -0.5821
  328MOL0     H43236  10.475   0.811   5.479  2.0512  2.0273 -0.2459
  328MOL0     H43237  10.438   0.995   5.622  0.0399 -0.1134 -0.0098
  328MOL0     H43238  10.358   0.893   5.747 -1.9347  0.9476 -0.3614
  328MOL0     H43239  10.280   0.909   5.461  3.6936  0.8138  1.9416
  328MOL0     H43240  10.178   0.833   5.588 -1.1757 -0.1997  1.0168
  328MOL0     H43241  10.249   1.125   5.519  0.0993  0.0270 -0.6063
  328MOL0     H43242  10.185   1.101   5.673  2.0811  2.3444 -1.4684
  328MOL0     H43243   9.970   1.015   5.591 -0.6899  1.7075  1.3506
  328MOL0     H43244  10.048   0.982   5.429  1.3545 -0.1382  1.5491
  328MOL0     H43245   9.892   1.207   5.455 -0.9977 -2.4328 -0.4316
  328MOL0     H43246  10.030   1.267   5.553 -0.5770 -3.9839  2.8260
  328MOL0     H43247  10.173   1.263   5.369 -0.7158  1.4135  3.2266
  328MOL0     H43248  10.020   1.350   5.314 -3.2458 -1.7578 -0.1554
  328MOL0     H43249   9.829   1.130   5.243  0.7685  2.7412  0.1356
  328MOL0     H43250   9.807   0.838   5.146 -0.3698  1.0193 -0.1232
  328MOL0     H43251   9.946   0.801   5.040  1.6542  1.1172 -0.3391
  328MOL0     H43252   9.776   0.813   4.900 -1.0591  0.2470 -1.1076
  328MOL0     H43253   9.871   0.949   4.859 -1.8950 -1.8179 -3.5418
  328MOL0     H43254   9.612   0.934   5.027  1.3952  1.2534  1.5227
  328MOL0     H43255   9.698   1.083   5.001 -3.2152  0.8173  0.7163
  328MOL0     H43256   9.623   0.945   4.743 -0.1998  1.9203 -2.4676
  328MOL0     H43257   9.660   1.113   4.789 -1.9762  1.1625  1.2207
  328MOL0     H43258   9.564   1.279   4.727 -0.6544 -3.1095 -1.4574
  328MOL0     H43259   9.413   1.468   4.669  1.6865  0.7570  2.8543
  328MOL0     H43260   9.044   1.771   4.702 -0.1436 -0.9115  6.1114
  328MOL0     H43261   8.885   1.891   4.579 -0.1042 -0.0002 -0.6671
  328MOL0     H43262   8.732   1.997   4.506 -0.6644  1.0922  0.2322
  328MOL0     H43263   8.626   2.011   4.651  0.0273  0.0518  0.4544
  328MOL0     H43264   8.432   2.043   4.500 -0.2075 -1.7035  0.9745
  328MOL0     H43265   8.514   1.979   4.360  0.1344  0.2234  0.5447
  328MOL0     H43266   8.676   2.139   4.335 -1.5558 -3.1914  0.9153
  328MOL0     H43267   8.621   2.236   4.476 -3.0268  2.3756 -1.1964
  328MOL0     H43268   8.541   2.297   4.233 -1.0831  2.6161  1.1256
  328MOL0     H43269   8.432   2.173   4.251 -3.8613  2.4408  1.5092
  328MOL0     H43270   8.467   2.409   4.443  1.6948 -0.9881 -0.8180
  328MOL0     H43271   8.340   2.276   4.448  0.6015 -1.7319 -0.3450
  328MOL0     H43272   8.229   2.343   4.259 -0.9411  0.0642 -0.9055
  328MOL0     H43273   8.344   2.469   4.218 -1.2243  1.5221  0.2425
  328MOL0     H43274   8.181   2.498   4.473 -0.1782  0.1005 -1.2988
  328MOL0     H43275   8.272   2.619   4.399  0.6186 -0.0798 -1.3396
  328MOL0     H43276   8.034   2.471   4.270  0.1533  0.5896 -2.0413
  328MOL0     H43277   8.116   2.599   4.200  1.9118 -4.6452 -1.7704
  328MOL0     H43278   8.586   1.585   4.617 -0.6387  0.8297 -1.0578
  328MOL0     H43279   8.753   1.433   4.691 -1.6679  0.0364 -3.8685
  328MOL0     H43280   9.094   1.287   4.872 -0.0812 -1.0471  0.9339
  328MOL0     H43281   9.233   1.086   4.910 -0.3495 -0.4819  0.8847
  328MOL0     H43282  10.842   0.670   5.726  3.5497 -1.4169 -0.3470
  328MOL0     H43283  11.089   0.679   5.719 -0.8421 -0.1107  0.3309
  328MOL0     H43284  11.427   1.022   5.572  0.6503  0.2665 -0.7565
  328MOL0     H43285  11.679   1.062   5.561 -2.9252  0.1782 -0.0008
  328MOL0     H43286  11.915   1.014   5.623  1.0553  2.7412  0.2901
  328MOL0     H43287  11.871   1.088   5.475  0.4933  2.3467  2.1364
  328MOL0     H43288  12.127   1.034   5.580 -1.8235 -1.0792  1.2081
  328MOL0     H43289  12.103   0.894   5.467 -3.5426 -1.3466  3.2454
  328MOL0     H43290  12.218   1.119   5.370 -0.2386  2.4078 -2.0898
  328MOL0     H43291  12.058   1.188   5.411 -1.8310 -1.1785  1.4336
  328MOL0     H43292  11.988   0.990   5.234 -0.9271  1.1115 -3.0853
  328MOL0     H43293  12.074   1.115   5.171  1.6272 -1.1295 -0.8188
  328MOL0     H43294  12.406   0.860   5.128 -1.7916 -4.2597  1.2588
  328MOL0     H43295  11.737   0.653   5.457  0.9272  1.2756 -0.9182
  328MOL0     H43296  11.510   0.615   5.476  2.2258 -0.0519 -0.6282
  329MOL0     O43297   1.193   6.208   3.928 -0.5126 -0.7904  0.5223
  329MOL0     C43298   1.260   6.227   3.823  0.4348  0.0295  0.4048
  329MOL0     O43299   1.255   6.331   3.744 -0.3732 -1.0691  0.0256
  329MOL0     C43300   1.170   6.431   3.752  0.2446 -0.7169  0.6549
  329MOL0     C43301   1.034   6.421   3.763  0.5226  0.0890  0.3960
  329MOL0     C43302   0.953   6.530   3.775  0.5689  0.8852  0.6475
  329MOL0     C43303   1.002   6.660   3.754 -0.3107  0.0507  0.1172
  329MOL0     O43304   0.908   6.757   3.742  0.1443 -0.4639 -0.1993
  329MOL0     C43305   0.955   6.889   3.794  0.0662  0.5570 -0.3538
  329MOL0     C43306   0.832   6.982   3.806  0.4031  0.6045 -0.2394
  329MOL0     C43307   0.874   7.123   3.850  1.3387  0.8066  0.2472
  329MOL0     C43308   0.768   7.222   3.831  0.2595 -0.0180 -0.1940
  329MOL0     C43309   0.646   7.181   3.915  0.4154  0.0586 -0.1343
  329MOL0     C43310   0.551   7.300   3.938  0.4739 -0.5064  0.0378
  329MOL0     C43311   0.523   7.395   3.821  0.3493  0.0330  0.4084
  329MOL0     C43312   0.418   7.493   3.869 -0.7875 -0.5984  0.5036
  329MOL0     N43313   0.387   7.574   3.752  0.4892  0.2321  0.0276
  329MOL0     C43314   0.426   7.572   3.618 -0.7623  0.2354 -0.0519
  329MOL0     C43315   0.354   7.654   3.540 -0.8851  0.1025  1.2706
  329MOL0     C43316   0.360   7.688   3.394  0.3794 -0.0433  0.0678
  329MOL0     C43317   0.318   7.560   3.313 -0.0676  0.7459 -0.5342
  329MOL0     C43318   0.359   7.563   3.171  0.2871 -0.0319  0.1329
  329MOL0     C43319   0.337   7.430   3.106  0.6130  0.4357  0.5191
  329MOL0     O43320   0.195   7.413   3.110  0.7536  0.2226 -0.1246
  329MOL0     C43321   0.144   7.310   3.025  1.1280  0.0178 -0.7880
  329MOL0     C43322   0.212   7.220   2.936 -0.1851 -0.4572 -0.3181
  329MOL0     C43323   0.134   7.149   2.841  0.2334 -0.5302 -0.2452
  329MOL0     C43324  -0.009   7.144   2.852 -1.2531  0.3475  0.0458
  329MOL0     C43325  -0.086   7.057   2.769  0.3594 -0.0847 -0.2181
  329MOL0     O43326  -0.223   7.070   2.796  0.6219 -0.3770 -1.1449
  329MOL0     C43327  -0.318   7.011   2.715 -0.7680  0.1490  1.0060
  329MOL0     C43328  -0.446   6.982   2.783 -0.4956 -0.0877  0.0065
  329MOL0     C43329  -0.543   6.920   2.717  0.0182 -0.0066 -0.4984
  329MOL0     C43330  -0.528   6.899   2.579 -1.0372  0.4240 -0.1499
  329MOL0     O43331  -0.642   6.855   2.513 -0.1779 -0.5180 -0.0090
  329MOL0     C43332  -0.634   6.810   2.376 -0.7288  0.7160  0.4865
  329MOL0     C43333  -0.766   6.730   2.362  0.9269 -1.0141 -0.0464
  329MOL0     C43334  -0.891   6.816   2.404  0.1435  0.4504 -0.0011
  329MOL0     C43335  -0.941   6.920   2.299 -0.1400  0.4512 -0.4251
  329MOL0     C43336  -1.089   6.908   2.283  0.6524 -0.2748 -0.6912
  329MOL0     C43337  -1.147   6.791   2.196  0.8302 -0.2019 -0.2775
  329MOL0     C43338  -1.299   6.806   2.180  0.3684 -0.1817  0.5424
  329MOL0     C43339  -1.353   6.708   2.073 -0.2229 -0.3329 -0.1289
  329MOL0    Cl43340  -1.532   6.720   2.062  0.6252 -0.4292  0.3985
  329MOL0     C43341  -0.410   6.928   2.504  0.7099 -0.7248 -0.0897
  329MOL0     C43342  -0.310   6.991   2.576  0.8355  0.5109 -0.8652
  329MOL0     O43343  -0.034   6.966   2.706 -0.7119 -0.4389 -0.0058
  329MOL0     C43344  -0.067   7.235   2.945 -0.1440  0.8136  0.7329
  329MOL0     C43345   0.011   7.314   3.030 -0.5951 -0.7582 -0.2995
  329MOL0     N43346   0.260   7.713   3.629 -0.2457  0.8523  0.6610
  329MOL0     N43347   0.284   7.663   3.747  0.4480 -0.3601  0.7346
  329MOL0     C43348   1.146   6.672   3.734 -0.6546 -0.2602 -0.1117
  329MOL0     C43349   1.227   6.556   3.734  0.3480 -0.1237 -0.0626
  329MOL0     C43350   1.344   6.113   3.781  0.0262  1.5998  0.4136
  329MOL0     C43351   1.336   5.991   3.852  0.4064  0.1263  0.4412
  329MOL0     C43352   1.385   5.871   3.795 -0.0998  0.8033 -0.6716
  329MOL0     C43353   1.447   5.879   3.667  0.6535 -0.5562  1.1684
  329MOL0     O43354   1.501   5.764   3.613  0.4702  0.2999 -0.0397
  329MOL0     C43355   1.573   5.668   3.694 -0.5024  0.7600 -0.6984
  329MOL0     C43356   1.706   5.719   3.759  0.3428 -0.5960 -0.1474
  329MOL0     C43357   1.809   5.607   3.774 -0.4934  0.3793 -0.4100
  329MOL0     C43358   1.954   5.660   3.815 -0.4682 -0.4568  0.9692
  329MOL0     C43359   1.954   5.687   3.962 -0.4344 -0.9847  0.7459
  329MOL0     C43360   1.952   5.700   4.085 -0.4035 -0.1033 -0.3176
  329MOL0     C43361   1.451   6.003   3.594 -0.3896  0.2257 -0.4779
  329MOL0     C43362   1.413   6.121   3.657 -0.1103  0.0047  0.2074
  329MOL0     H43363   0.986   6.325   3.778 -2.2714  0.8866 -2.1799
  329MOL0     H43364   0.848   6.536   3.800 -0.1938 -0.9178 -1.8059
  329MOL0     H43365   1.026   6.931   3.722  2.2711  1.6855  2.3128
  329MOL0     H43366   1.012   6.883   3.887 -1.0529  0.3632  0.3367
  329MOL0     H43367   0.750   6.936   3.863 -0.0519 -1.3140 -2.2939
  329MOL0     H43368   0.801   6.988   3.701  1.4011 -0.3610 -0.6161
  329MOL0     H43369   0.962   7.160   3.795  0.6186 -1.2455 -2.5024
  329MOL0     H43370   0.906   7.122   3.954  0.7728  3.6502  0.5301
  329MOL0     H43371   0.813   7.316   3.864  0.8190  0.2796 -1.7486
  329MOL0     H43372   0.720   7.221   3.733  0.1803  0.1190 -0.1574
  329MOL0     H43373   0.671   7.150   4.017 -3.8966  1.0347  1.4322
  329MOL0     H43374   0.593   7.095   3.871 -0.4117  0.5258 -0.0787
  329MOL0     H43375   0.586   7.348   4.030  1.3038 -0.6087 -0.2172
  329MOL0     H43376   0.451   7.261   3.960 -0.5958  1.0672 -1.7131
  329MOL0     H43377   0.609   7.454   3.786 -1.4357  0.6639 -3.5474
  329MOL0     H43378   0.489   7.338   3.734  0.5242  3.0482 -1.8369
  329MOL0     H43379   0.443   7.555   3.956  0.3012 -1.2314  0.6711
  329MOL0     H43380   0.333   7.433   3.901 -1.8642  0.4170 -0.4064
  329MOL0     H43381   0.513   7.523   3.577 -1.6793 -0.5440 -1.1470
  329MOL0     H43382   0.462   7.706   3.359  0.3077 -0.9943 -0.6528
  329MOL0     H43383   0.291   7.770   3.371 -0.1148 -0.4039  0.2557
  329MOL0     H43384   0.210   7.556   3.328  0.3218  2.3774  4.8205
  329MOL0     H43385   0.361   7.474   3.365 -0.1848  0.9210 -0.1470
  329MOL0     H43386   0.306   7.639   3.114  2.7604  1.4434 -0.3789
  329MOL0     H43387   0.464   7.595   3.177  0.9245 -1.4184 -2.3649
  329MOL0     H43388   0.398   7.351   3.151  1.6837  0.1953 -1.2575
  329MOL0     H43389   0.375   7.432   3.004 -0.2764 -1.4205  0.0980
  329MOL0     H43390   0.319   7.203   2.937 -0.3997 -2.2992 -2.2412
  329MOL0     H43391   0.185   7.093   2.763 -2.1916 -1.3251 -1.3445
  329MOL0     H43392  -0.460   7.017   2.885  0.1111  0.8644 -0.2266
  329MOL0     H43393  -0.642   6.909   2.759 -0.1791  0.1155 -0.9198
  329MOL0     H43394  -0.552   6.738   2.367 -1.7992 -0.3286 -1.4290
  329MOL0     H43395  -0.627   6.890   2.302 -1.7698 -0.4415 -0.9156
  329MOL0     H43396  -0.765   6.639   2.423  0.2250 -1.2686 -0.4000
  329MOL0     H43397  -0.773   6.703   2.256 -2.4812 -0.6412 -0.0443
  329MOL0     H43398  -0.874   6.865   2.500  1.0835 -0.0303  0.0909
  329MOL0     H43399  -0.961   6.733   2.415 -0.2942  0.6296 -1.2433
  329MOL0     H43400  -0.917   7.024   2.321  0.5053  0.1829  0.1594
  329MOL0     H43401  -0.900   6.907   2.198 -0.3512  2.2311 -0.7692
  329MOL0     H43402  -1.124   7.004   2.245  0.4432 -0.1048 -0.0772
  329MOL0     H43403  -1.135   6.908   2.383  1.1210  1.9578 -0.4243
  329MOL0     H43404  -1.123   6.692   2.235  1.6453  0.3064  0.5638
  329MOL0     H43405  -1.098   6.790   2.098  0.1002 -1.9653 -0.6500
  329MOL0     H43406  -1.344   6.792   2.278  1.8439  0.7890  1.4101
  329MOL0     H43407  -1.308   6.910   2.147 -1.4000 -0.2839  0.6043
  329MOL0     H43408  -1.332   6.609   2.114  3.1416  0.6828  0.9357
  329MOL0     H43409  -1.313   6.740   1.977 -0.0971  2.7288  0.8572
  329MOL0     H43410  -0.408   6.911   2.396 -1.4649 -0.9455 -0.1466
  329MOL0     H43411  -0.209   7.011   2.539  1.3224 -2.2356 -1.2684
  329MOL0     H43412  -0.173   7.249   2.960 -0.7607 -1.7013 -0.7504
  329MOL0     H43413  -0.042   7.388   3.089  0.2238 -1.9342  2.0699
  329MOL0     H43414   1.202   6.765   3.732  0.5044 -0.9429 -0.6054
  329MOL0     H43415   1.330   6.583   3.718  0.3014  0.0026 -0.1547
  329MOL0     H43416   1.300   5.988   3.954  1.4659  1.3512  0.8866
  329MOL0     H43417   1.371   5.772   3.837  1.1988  1.7443  2.2443
  329MOL0     H43418   1.596   5.586   3.625  0.8195  0.5339  0.0010
  329MOL0     H43419   1.517   5.627   3.779  0.8254  2.3282  0.9939
  329MOL0     H43420   1.762   5.795   3.703  0.9273  0.4804  1.7834
  329MOL0     H43421   1.679   5.767   3.853  0.5679 -0.5173 -0.1214
  329MOL0     H43422   1.821   5.549   3.682 -3.7473  1.2638 -1.5175
  329MOL0     H43423   1.781   5.537   3.854  1.1160  0.3217  0.1452
  329MOL0     H43424   2.026   5.581   3.792 -1.8096 -1.1982 -0.9337
  329MOL0     H43425   1.981   5.749   3.759  0.8383 -2.3008 -1.4884
  329MOL0     H43426   1.957   5.711   4.191  1.2139 -1.3411 -0.2225
  329MOL0     H43427   1.506   6.011   3.501 -1.7842  0.9654 -1.2740
  329MOL0     H43428   1.419   6.211   3.595 -2.2985 -0.8101 -1.3106
  330MOL0     O43429   9.372   2.923   1.884  0.2840  0.3550  0.6104
  330MOL0     C43430   9.356   2.798   1.892  0.0955  0.0542  0.4450
  330MOL0     O43431   9.451   2.701   1.900  1.3025 -0.4096 -0.6423
  330MOL0     C43432   9.576   2.733   1.852  0.0803  1.1416 -0.0341
  330MOL0     C43433   9.610   2.675   1.730  0.5274 -0.3315 -0.5552
  330MOL0     C43434   9.748   2.684   1.690 -0.3118 -0.6099 -0.0159
  330MOL0     C43435   9.838   2.772   1.756 -0.0131 -0.9650 -0.1839
  330MOL0     O43436   9.969   2.790   1.718 -1.0151  0.4455 -0.7716
  330MOL0     C43437  10.033   2.920   1.743  0.4285  0.3701 -0.2627
  330MOL0     C43438  10.128   2.915   1.865 -0.3176  0.5878 -0.0898
  330MOL0     C43439  10.219   2.788   1.851  0.3489  0.2741  0.1262
  330MOL0     C43440  10.327   2.782   1.959  0.1710  1.0366 -0.9647
  330MOL0     C43441  10.402   2.649   1.952 -0.0831  0.0550 -0.4950
  330MOL0     C43442  10.491   2.629   2.079  0.7402 -0.0781  0.4470
  330MOL0     C43443  10.606   2.517   2.049  0.5140 -0.3571 -0.7368
  330MOL0     C43444  10.611   2.398   2.149  0.0483  0.6192  0.7266
  330MOL0     N43445  10.590   2.437   2.287  0.9299  0.2235 -0.3042
  330MOL0     C43446  10.658   2.533   2.357 -0.0074  0.4230  0.0535
  330MOL0     C43447  10.581   2.555   2.463  0.5322 -0.5612 -1.1731
  330MOL0     C43448  10.619   2.661   2.571  0.1105 -0.5911  0.5204
  330MOL0     C43449  10.500   2.692   2.669  0.4351 -0.5167  0.0922
  330MOL0     C43450  10.458   2.579   2.776  0.1395 -0.8217  0.6923
  330MOL0     C43451  10.334   2.633   2.853  0.2671 -0.0611 -0.3143
  330MOL0     O43452  10.218   2.615   2.772 -0.3893  0.5041 -0.6568
  330MOL0     C43453  10.099   2.686   2.787 -0.5407 -0.8922 -0.6954
  330MOL0     C43454  10.070   2.791   2.878 -0.1735 -0.1276 -0.1649
  330MOL0     C43455   9.943   2.851   2.882 -0.2877 -0.4159 -0.1715
  330MOL0     C43456   9.841   2.816   2.792  1.1915  0.5253 -0.6922
  330MOL0     C43457   9.712   2.889   2.799 -0.0666  0.2431 -0.6902
  330MOL0     O43458   9.697   2.965   2.907  0.1736 -0.7627 -0.4683
  330MOL0     C43459   9.598   3.055   2.934 -0.3430 -0.7791  0.4895
  330MOL0     C43460   9.494   3.097   2.849 -1.1702 -0.4204 -0.2469
  330MOL0     C43461   9.409   3.202   2.891 -0.2302  0.5590  0.2269
  330MOL0     C43462   9.418   3.260   3.022 -0.4897  0.2801  0.0917
  330MOL0     O43463   9.336   3.361   3.049 -0.6754  0.4210 -0.6146
  330MOL0     C43464   9.388   3.492   3.052 -0.2858 -0.5666  0.5386
  330MOL0     C43465   9.400   3.558   2.907 -0.5315  0.1210 -0.4774
  330MOL0     C43466   9.260   3.552   2.850  0.0499 -0.5961  1.0150
  330MOL0     C43467   9.150   3.642   2.921 -0.4794  0.6692  0.2943
  330MOL0     C43468   9.023   3.654   2.841 -0.2792  0.8588 -0.8962
  330MOL0     C43469   9.046   3.758   2.736 -1.2010 -0.2364  0.2914
  330MOL0     C43470   8.905   3.794   2.671 -0.0033  0.1761 -0.7624
  330MOL0     C43471   8.899   3.929   2.586  0.3242 -0.0564 -0.0218
  330MOL0    Cl43472   8.913   4.065   2.690  0.3317 -0.3086  0.0252
  330MOL0     C43473   9.509   3.209   3.109  0.0453 -0.0107  0.4824
  330MOL0     C43474   9.593   3.111   3.063  0.4672 -0.2876  0.1353
  330MOL0     O43475   9.635   2.877   2.711  0.1132 -0.1026  0.3385
  330MOL0     C43476   9.871   2.721   2.696  0.0147 -0.3224  0.6844
  330MOL0     C43477   9.997   2.654   2.703  0.2935  0.1208  0.2907
  330MOL0     N43478  10.475   2.478   2.464  0.0132 -0.0114 -0.1054
  330MOL0     N43479  10.485   2.400   2.358  0.6257  0.1565 -0.3743
  330MOL0     C43480   9.790   2.842   1.860  0.0777  0.2109  0.3807
  330MOL0     C43481   9.662   2.824   1.910 -0.8413  0.4230 -0.2083
  330MOL0     C43482   9.211   2.756   1.892  0.4930  0.8324  0.1660
  330MOL0     C43483   9.107   2.841   1.898 -0.5651 -0.7056 -0.2162
  330MOL0     C43484   8.980   2.805   1.931  0.5001  0.1019  0.2616
  330MOL0     C43485   8.943   2.670   1.936  0.2590 -0.3343 -0.2388
  330MOL0     O43486   8.811   2.634   1.928  0.4846  0.3643 -0.1415
  330MOL0     C43487   8.738   2.662   2.053  0.4091  0.2578  1.1984
  330MOL0     C43488   8.602   2.722   2.011 -0.5571  0.1883  0.3515
  330MOL0     C43489   8.519   2.629   1.926  0.3345 -0.0392  0.6239
  330MOL0     C43490   8.375   2.678   1.912 -0.0565  1.0096 -1.0526
  330MOL0     C43491   8.289   2.573   1.851 -0.1846  0.0247 -0.4822
  330MOL0     C43492   8.203   2.506   1.799  0.8431 -0.2277  0.2906
  330MOL0     C43493   9.050   2.578   1.921  0.0968 -0.3607 -0.1360
  330MOL0     C43494   9.181   2.618   1.909  0.0019 -0.7256  0.3448
  330MOL0     H43495   9.553   2.601   1.676  1.3938 -0.7113 -0.9645
  330MOL0     H43496   9.785   2.630   1.604  0.1546  0.3774 -0.4583
  330MOL0     H43497   9.968   3.006   1.762  3.8342  2.7555  1.5953
  330MOL0     H43498  10.095   2.927   1.653 -0.6914  1.3002 -0.9974
  330MOL0     H43499  10.074   2.907   1.959 -0.9072  0.0594 -0.4671
  330MOL0     H43500  10.190   3.005   1.853  1.4187 -0.6796 -1.0636
  330MOL0     H43501  10.265   2.773   1.753 -0.2302 -0.9747  0.0166
  330MOL0     H43502  10.153   2.703   1.870 -1.5787  1.6063 -0.3748
  330MOL0     H43503  10.400   2.858   1.930 -0.3579  0.7591 -3.1980
  330MOL0     H43504  10.287   2.813   2.056  3.2189  0.2456  0.6632
  330MOL0     H43505  10.459   2.636   1.860 -1.0190 -0.5962 -1.0011
  330MOL0     H43506  10.325   2.571   1.955 -0.7762  0.7697  1.0935
  330MOL0     H43507  10.425   2.588   2.155 -2.0604 -1.2595 -2.4099
  330MOL0     H43508  10.530   2.726   2.112 -0.9420  1.0618 -0.7901
  330MOL0     H43509  10.592   2.489   1.944 -1.4608 -2.0306 -0.1066
  330MOL0     H43510  10.701   2.572   2.051  0.1223  0.6697 -4.1396
  330MOL0     H43511  10.708   2.347   2.136 -0.6940 -0.1465 -2.7239
  330MOL0     H43512  10.528   2.334   2.120  0.7478  0.2365 -0.4921
  330MOL0     H43513  10.751   2.579   2.326  1.1529 -0.5655  1.9306
  330MOL0     H43514  10.638   2.758   2.522 -0.0326 -0.0175  1.5775
  330MOL0     H43515  10.712   2.628   2.618  1.6549 -0.1821 -2.0374
  330MOL0     H43516  10.416   2.720   2.605  1.4616 -0.1716 -1.1645
  330MOL0     H43517  10.514   2.788   2.719 -3.2965  0.1657  0.0792
  330MOL0     H43518  10.437   2.483   2.729  1.6580 -1.0161  0.3616
  330MOL0     H43519  10.541   2.567   2.847  1.2506  3.1685  0.3180
  330MOL0     H43520  10.339   2.738   2.884 -0.7793 -0.1630  0.2418
  330MOL0     H43521  10.315   2.575   2.944 -2.2900  1.9451  0.5473
  330MOL0     H43522  10.140   2.826   2.953 -0.5215  0.3828 -0.0746
  330MOL0     H43523   9.931   2.937   2.947 -1.7250  0.3094 -1.3269
  330MOL0     H43524   9.481   3.044   2.755  1.1988 -1.1823 -0.2312
  330MOL0     H43525   9.321   3.226   2.831  0.3428  0.0215 -0.8602
  330MOL0     H43526   9.487   3.504   3.097  0.6471  2.1059 -1.9624
  330MOL0     H43527   9.321   3.549   3.117  0.2292 -0.6656  1.1632
  330MOL0     H43528   9.468   3.503   2.842  1.1930  0.4670  0.9654
  330MOL0     H43529   9.443   3.659   2.906 -0.9840  0.3979  2.0419
  330MOL0     H43530   9.236   3.446   2.841  2.4641 -1.0517 -1.9073
  330MOL0     H43531   9.282   3.587   2.748 -1.1750  3.5368  1.9852
  330MOL0     H43532   9.117   3.600   3.016 -0.4858 -0.4448 -0.1814
  330MOL0     H43533   9.193   3.741   2.937  1.2712 -0.0398  0.1997
  330MOL0     H43534   8.941   3.688   2.905  0.9473  0.9662  0.6931
  330MOL0     H43535   8.983   3.560   2.802 -1.1678  0.6796  0.3779
  330MOL0     H43536   9.117   3.732   2.657  0.4668 -1.1747  2.0276
  330MOL0     H43537   9.073   3.854   2.779 -0.9024  1.4975 -3.3629
  330MOL0     H43538   8.870   3.715   2.605 -2.3896  0.4358  0.0999
  330MOL0     H43539   8.840   3.806   2.758  1.8270  0.9402  0.5679
  330MOL0     H43540   8.804   3.926   2.533 -0.5151  0.0125  1.4354
  330MOL0     H43541   8.989   3.938   2.524  0.6359 -0.8118  0.3049
  330MOL0     H43542   9.520   3.245   3.211 -0.1140  0.8335  0.2108
  330MOL0     H43543   9.676   3.073   3.122  1.4634  2.9717  1.0507
  330MOL0     H43544   9.798   2.696   2.619  1.6583  2.9457 -2.2563
  330MOL0     H43545  10.018   2.571   2.636  0.9422  0.4230  0.1172
  330MOL0     H43546   9.854   2.910   1.915  3.5010 -0.0782 -2.8317
  330MOL0     H43547   9.632   2.876   2.000  0.1444  0.4335  0.1324
  330MOL0     H43548   9.124   2.948   1.895  0.0534 -0.7845  0.2703
  330MOL0     H43549   8.909   2.886   1.938  0.2142 -0.0006 -1.1288
  330MOL0     H43550   8.790   2.735   2.116 -0.6262  2.5739 -0.5029
  330MOL0     H43551   8.720   2.564   2.097 -3.1108 -0.3762 -1.2209
  330MOL0     H43552   8.552   2.749   2.104  0.6825 -1.4740  1.5618
  330MOL0     H43553   8.627   2.809   1.950  3.3315 -1.7190 -1.1007
  330MOL0     H43554   8.529   2.529   1.968  1.0611  0.2836  1.2530
  330MOL0     H43555   8.574   2.619   1.832 -0.1952 -2.9727  0.5568
  330MOL0     H43556   8.339   2.692   2.014  0.0540  1.0856 -1.0244
  330MOL0     H43557   8.358   2.772   1.859  0.5316  2.9307  1.9430
  330MOL0     H43558   8.133   2.441   1.750 -0.2882  0.6128  0.7490
  330MOL0     H43559   9.029   2.472   1.912 -0.7048 -0.0899 -1.8323
  330MOL0     H43560   9.263   2.548   1.911  0.2660 -0.5972 -2.2526
  331MOL0     O43561   9.994   7.826   2.729  0.0512 -0.0424 -0.2716
  331MOL0     C43562  10.007   7.900   2.828  0.0596  0.5047  0.7008
  331MOL0     O43563   9.937   8.013   2.851 -0.0260  0.0972  0.1353
  331MOL0     C43564   9.832   8.051   2.763 -0.2684 -0.3563  0.5906
  331MOL0     C43565   9.855   8.162   2.678  0.5095  0.7731 -0.0910
  331MOL0     C43566   9.779   8.178   2.570 -0.3233  0.2867  0.5729
  331MOL0     C43567   9.678   8.082   2.539 -0.0417 -1.2736  0.0096
  331MOL0     O43568   9.612   8.079   2.418  0.0013 -0.1873  0.1937
  331MOL0     C43569   9.578   8.206   2.361  0.5895  0.2053 -0.4607
  331MOL0     C43570   9.447   8.190   2.293  0.5626 -0.5101  0.1159
  331MOL0     C43571   9.397   8.328   2.223  0.3042 -0.3469  0.6774
  331MOL0     C43572   9.265   8.312   2.146  0.0284  0.1149  0.6202
  331MOL0     C43573   9.256   8.438   2.067  0.8147 -0.0597  0.5448
  331MOL0     C43574   9.112   8.447   1.998  0.4495 -0.8155 -0.2803
  331MOL0     C43575   9.075   8.587   1.939  0.4202  0.1901  0.1712
  331MOL0     C43576   9.050   8.695   2.047 -0.3783  0.2894 -0.1640
  331MOL0     N43577   8.959   8.645   2.150  0.2117  0.2683  0.3134
  331MOL0     C43578   8.831   8.604   2.126 -0.6218  0.1124 -0.0346
  331MOL0     C43579   8.799   8.507   2.216 -0.0217 -0.7470 -0.3653
  331MOL0     C43580   8.676   8.421   2.219 -0.0575 -0.8398 -1.0120
  331MOL0     C43581   8.555   8.500   2.231 -0.6371  0.1208 -0.6460
  331MOL0     C43582   8.433   8.412   2.263  0.3581 -0.2756  0.5602
  331MOL0     C43583   8.295   8.484   2.250 -0.3246 -0.7299 -0.3394
  331MOL0     O43584   8.285   8.518   2.119 -0.0730  0.2160  0.2633
  331MOL0     C43585   8.170   8.574   2.079 -0.1921 -1.0662 -0.2591
  331MOL0     C43586   8.063   8.613   2.160 -0.0789 -0.1523 -0.2179
  331MOL0     C43587   7.953   8.680   2.116  0.6963 -0.8796  0.1946
  331MOL0     C43588   7.936   8.715   1.983  0.6798 -0.2124 -0.7251
  331MOL0     C43589   7.822   8.794   1.936 -0.0764 -0.0255  0.3464
  331MOL0     O43590   7.781   8.774   1.813  0.1816 -0.6867 -0.2812
  331MOL0     C43591   7.659   8.837   1.796 -0.0665  0.5043  0.6751
  331MOL0     C43592   7.539   8.778   1.815  0.1322  0.3082 -0.0628
  331MOL0     C43593   7.414   8.845   1.783 -0.8576  0.3547 -0.6670
  331MOL0     C43594   7.416   8.977   1.733  1.0816 -0.3355 -0.2329
  331MOL0     O43595   7.300   9.052   1.702  0.5175 -0.1837  0.0363
  331MOL0     C43596   7.166   9.023   1.753 -0.1216  1.4091  1.2151
  331MOL0     C43597   7.070   9.009   1.637 -0.2580  0.3284 -0.4829
  331MOL0     C43598   6.942   8.933   1.649 -0.2310  0.2914 -0.7961
  331MOL0     C43599   6.870   8.940   1.516  0.8895  0.4456  0.8170
  331MOL0     C43600   6.746   8.852   1.532 -0.1811  0.1924  0.0926
  331MOL0     C43601   6.623   8.908   1.599  0.0806 -0.0132  0.1929
  331MOL0     C43602   6.530   8.789   1.633  0.2303  0.4490  0.3939
  331MOL0     C43603   6.387   8.844   1.638 -0.4978  0.1966 -0.3027
  331MOL0    Cl43604   6.352   8.866   1.463 -0.2184  0.1275  0.4437
  331MOL0     C43605   7.538   9.035   1.714 -0.3215  0.2775  0.2903
  331MOL0     C43606   7.658   8.969   1.756 -0.3291  0.1979 -0.1972
  331MOL0     O43607   7.762   8.861   2.026  0.4546  0.2558  0.5119
  331MOL0     C43608   8.046   8.694   1.897 -0.7694  0.0221 -0.5614
  331MOL0     C43609   8.158   8.615   1.946 -0.5684 -0.1384 -0.1003
  331MOL0     N43610   8.910   8.500   2.305 -0.0756 -0.1856  0.0469
  331MOL0     N43611   9.002   8.577   2.267 -0.5193 -0.5758 -0.3587
  331MOL0     C43612   9.656   7.984   2.621 -0.0099  0.1740 -0.1062
  331MOL0     C43613   9.732   7.961   2.733  1.0998 -0.2296 -0.0253
  331MOL0     C43614  10.105   7.857   2.929 -0.2775  1.0890  0.2109
  331MOL0     C43615  10.189   7.747   2.913 -0.3905 -0.2144 -0.2042
  331MOL0     C43616  10.291   7.716   3.008  0.6977  0.8475 -0.1279
  331MOL0     C43617  10.305   7.788   3.126  0.1240  1.0167  0.0947
  331MOL0     O43618  10.403   7.768   3.218 -0.4351  0.7877 -0.4451
  331MOL0     C43619  10.517   7.682   3.179 -0.3948 -0.5390  0.0990
  331MOL0     C43620  10.637   7.691   3.272  0.1642  0.2776  0.4060
  331MOL0     C43621  10.683   7.835   3.275  0.9759 -0.1207  0.5515
  331MOL0     C43622  10.801   7.836   3.370  0.2741 -0.1351 -0.1834
  331MOL0     C43623  10.881   7.958   3.349  0.4523 -0.0152 -0.7164
  331MOL0     C43624  10.956   8.051   3.327 -0.0902  0.2389  0.2452
  331MOL0     C43625  10.211   7.881   3.137  0.3111 -0.7037 -0.1382
  331MOL0     C43626  10.108   7.920   3.050  0.5226 -0.6869  0.2890
  331MOL0     H43627   9.940   8.228   2.697 -0.7565  1.6708  3.1778
  331MOL0     H43628   9.793   8.252   2.493 -2.8281  1.5187  1.1958
  331MOL0     H43629   9.652   8.255   2.298  1.1305  2.8975  2.0646
  331MOL0     H43630   9.564   8.281   2.439 -0.2499  1.5346 -1.8362
  331MOL0     H43631   9.364   8.166   2.360  0.2080 -1.7519 -0.7315
  331MOL0     H43632   9.463   8.113   2.217 -1.5000 -1.1249  0.2345
  331MOL0     H43633   9.474   8.375   2.161 -1.9754  4.7524  1.2083
  331MOL0     H43634   9.374   8.399   2.304  1.4730  0.5403  0.2634
  331MOL0     H43635   9.269   8.236   2.067  1.5724  2.2620 -1.4921
  331MOL0     H43636   9.177   8.297   2.210 -2.0677 -2.3818 -2.4588
  331MOL0     H43637   9.336   8.450   1.993 -0.4419  1.8603 -0.6008
  331MOL0     H43638   9.260   8.525   2.133  2.3816  0.4080 -0.1234
  331MOL0     H43639   9.037   8.413   2.071 -0.8583 -2.0327 -2.1092
  331MOL0     H43640   9.106   8.368   1.923  2.7800 -1.0895 -0.2460
  331MOL0     H43641   9.152   8.610   1.864 -0.1866  0.6589 -0.3174
  331MOL0     H43642   8.985   8.572   1.879  1.3630 -0.8780 -1.0485
  331MOL0     H43643   9.004   8.787   2.008  3.4351  1.2073 -3.0849
  331MOL0     H43644   9.146   8.712   2.097  0.1304 -2.1860 -0.1938
  331MOL0     H43645   8.775   8.631   2.037 -2.1461 -1.5421  0.3680
  331MOL0     H43646   8.697   8.351   2.299  4.6082 -0.2043 -1.4256
  331MOL0     H43647   8.679   8.349   2.137 -1.5781 -4.3362  1.7290
  331MOL0     H43648   8.544   8.580   2.157  0.1081  1.0866  0.2463
  331MOL0     H43649   8.579   8.563   2.317  3.6668  2.8586 -3.4891
  331MOL0     H43650   8.435   8.338   2.183 -2.6521  1.1579 -1.0486
  331MOL0     H43651   8.449   8.369   2.362  0.3783  1.7783  1.4945
  331MOL0     H43652   8.293   8.570   2.318 -3.8256 -0.8739 -0.1107
  331MOL0     H43653   8.207   8.423   2.271 -1.2144  1.0190  1.3729
  331MOL0     H43654   8.064   8.591   2.266  1.7983 -0.1660 -0.1986
  331MOL0     H43655   7.872   8.700   2.186  0.5848 -1.8477  0.3619
  331MOL0     H43656   7.519   8.673   1.835  0.0320  0.1036 -1.1934
  331MOL0     H43657   7.321   8.792   1.797  0.8287 -3.3224 -2.1009
  331MOL0     H43658   7.131   9.106   1.815  0.8384  1.2769  1.9451
  331MOL0     H43659   7.168   8.929   1.808 -0.6093  1.1329  0.7767
  331MOL0     H43660   7.127   8.963   1.556 -0.2514 -0.5334  0.0016
  331MOL0     H43661   7.058   9.115   1.609 -0.5417  0.3422 -0.3097
  331MOL0     H43662   6.876   8.980   1.722  0.8568  0.4234  0.1264
  331MOL0     H43663   6.958   8.827   1.673 -3.6575 -0.5724 -1.7673
  331MOL0     H43664   6.828   9.037   1.487 -2.2269 -1.3871 -1.4529
  331MOL0     H43665   6.936   8.901   1.438  1.9883  2.6046  0.5988
  331MOL0     H43666   6.777   8.756   1.574 -2.7384 -1.1984 -0.9159
  331MOL0     H43667   6.723   8.822   1.429  1.9683  0.5529 -0.5500
  331MOL0     H43668   6.584   8.968   1.517  1.7854  0.1520 -0.5421
  331MOL0     H43669   6.638   8.965   1.692 -1.0753  1.0858 -0.2522
  331MOL0     H43670   6.531   8.712   1.555 -1.1822 -2.8284  3.3293
  331MOL0     H43671   6.560   8.738   1.725  3.8028  1.1488 -0.2042
  331MOL0     H43672   6.382   8.947   1.674  0.8578  1.1858 -2.6796
  331MOL0     H43673   6.317   8.779   1.691  1.4360 -1.5080  0.3120
  331MOL0     H43674   7.532   9.134   1.668 -2.0158  1.1024  2.1061
  331MOL0     H43675   7.750   9.018   1.726  0.5467 -1.0349  0.3952
  331MOL0     H43676   8.057   8.743   1.801 -0.2097  3.9041  1.2883
  331MOL0     H43677   8.240   8.598   1.877  0.3058  0.1908  0.8165
  331MOL0     H43678   9.574   7.913   2.617  2.3248 -2.7861  0.5108
  331MOL0     H43679   9.710   7.872   2.791 -1.0242  2.1108  3.0776
  331MOL0     H43680  10.177   7.671   2.836 -0.2927 -2.1183  1.5872
  331MOL0     H43681  10.355   7.631   2.990  2.3203  2.4880 -2.7314
  331MOL0     H43682  10.553   7.721   3.083 -3.4451 -0.6779 -1.2287
  331MOL0     H43683  10.472   7.583   3.168 -1.0885 -0.2975  0.6938
  331MOL0     H43684  10.602   7.647   3.366 -3.3069 -1.2799 -1.4436
  331MOL0     H43685  10.716   7.623   3.238 -0.2050  0.5131 -0.9729
  331MOL0     H43686  10.601   7.894   3.316 -0.9417 -0.1162 -2.9204
  331MOL0     H43687  10.705   7.874   3.176 -1.2211  1.2709  0.5437
  331MOL0     H43688  10.784   7.839   3.478 -0.7371 -2.8015 -0.1996
  331MOL0     H43689  10.875   7.758   3.351 -0.5931 -0.8924 -0.5315
  331MOL0     H43690  11.001   8.141   3.290  0.3553 -1.1029 -2.7767
  331MOL0     H43691  10.224   7.939   3.228  2.0920  3.0363 -2.4905
  331MOL0     H43692  10.039   7.999   3.077  0.3510 -1.0882  1.0791
  332MOL0     O43693   9.398   2.828   4.457  0.2127 -0.1533  0.9508
  332MOL0     C43694   9.489   2.821   4.536  0.1978 -0.0083  0.0894
  332MOL0     O43695   9.475   2.792   4.675  0.4785  0.2789  0.6092
  332MOL0     C43696   9.346   2.804   4.725 -0.9822  0.3104 -0.4606
  332MOL0     C43697   9.330   2.875   4.839  0.3384  0.3166  0.7404
  332MOL0     C43698   9.212   2.889   4.915 -0.8137  0.2456  0.4567
  332MOL0     C43699   9.098   2.823   4.869 -1.0136 -0.3843 -0.0813
  332MOL0     O43700   8.987   2.818   4.948  0.9438  0.2806 -0.1215
  332MOL0     C43701   8.863   2.780   4.897 -0.1891  0.1502 -0.2354
  332MOL0     C43702   8.753   2.818   4.989 -0.3739  0.5499 -0.5801
  332MOL0     C43703   8.753   2.718   5.108  0.1494  0.9762 -0.6188
  332MOL0     C43704   8.655   2.760   5.219 -0.0614 -0.1516 -0.1472
  332MOL0     C43705   8.509   2.779   5.178 -0.9011 -0.3536 -0.3224
  332MOL0     C43706   8.439   2.639   5.153  0.3311 -0.1772  0.8681
  332MOL0     C43707   8.308   2.651   5.076  0.2326 -0.3530  0.2596
  332MOL0     C43708   8.202   2.744   5.132 -0.2979 -0.3433  0.6013
  332MOL0     N43709   8.151   2.692   5.260 -0.0734 -0.3354  0.1625
  332MOL0     C43710   8.040   2.620   5.274  0.2008  0.0589 -0.0053
  332MOL0     C43711   8.023   2.603   5.404  0.2877 -0.6453 -0.3407
  332MOL0     C43712   7.912   2.536   5.477 -0.5158 -0.1765 -0.3754
  332MOL0     C43713   7.779   2.613   5.490 -0.0914  0.2551 -1.0863
  332MOL0     C43714   7.806   2.738   5.568  0.3659  0.4170  0.0648
  332MOL0     C43715   7.682   2.821   5.596  0.5027  0.4125  0.0835
  332MOL0     O43716   7.611   2.790   5.718 -0.0145  0.0477 -0.4339
  332MOL0     C43717   7.550   2.896   5.779  0.0681  0.1631 -0.4119
  332MOL0     C43718   7.548   2.879   5.918 -0.4374 -0.4154  0.2808
  332MOL0     C43719   7.491   2.979   6.001 -0.4451  0.9450 -0.0614
  332MOL0     C43720   7.427   3.087   5.942  0.1881  0.6106 -0.0472
  332MOL0     C43721   7.340   3.166   6.019  0.5105 -0.2837  0.0013
  332MOL0     O43722   7.289   3.283   5.962 -0.4511 -0.0120 -0.5517
  332MOL0     C43723   7.208   3.383   6.027 -0.4405  0.5603  0.3197
  332MOL0     C43724   7.186   3.402   6.160 -0.0001 -0.4703  0.1826
  332MOL0     C43725   7.118   3.516   6.210 -0.0640 -0.0309 -0.3501
  332MOL0     C43726   7.067   3.614   6.124  0.1236 -0.2032  0.2343
  332MOL0     O43727   6.997   3.725   6.150 -0.0648 -0.3826 -0.9467
  332MOL0     C43728   6.930   3.734   6.271 -0.1772  0.5405 -0.3339
  332MOL0     C43729   6.831   3.853   6.265 -0.7961  0.6970 -0.3389
  332MOL0     C43730   6.730   3.872   6.383 -0.2454 -0.6643 -0.3940
  332MOL0     C43731   6.641   3.747   6.400  0.3174 -0.3243 -0.2410
  332MOL0     C43732   6.504   3.788   6.467 -0.0306  0.1602  0.1412
  332MOL0     C43733   6.400   3.845   6.372 -0.1820 -0.3837 -0.8596
  332MOL0     C43734   6.267   3.882   6.441  0.0008  0.6919 -0.2751
  332MOL0     C43735   6.157   3.920   6.347  0.1854 -0.0844  0.3193
  332MOL0    Cl43736   6.186   4.090   6.285 -0.3609  0.1103 -0.1174
  332MOL0     C43737   7.077   3.588   5.989 -0.5792  1.6271  1.4113
  332MOL0     C43738   7.151   3.477   5.940 -0.1579  0.2858  0.0069
  332MOL0     O43739   7.311   3.126   6.134  0.4075  0.5372 -0.1966
  332MOL0     C43740   7.422   3.095   5.801  0.1753 -0.1455  0.4490
  332MOL0     C43741   7.489   3.001   5.724 -1.0237  0.2666  0.5831
  332MOL0     N43742   8.119   2.678   5.470  0.1614 -0.0300  0.3642
  332MOL0     N43743   8.191   2.742   5.375  0.2964  0.4092 -0.3955
  332MOL0     C43744   9.109   2.755   4.745  0.0529  0.2788 -0.8947
  332MOL0     C43745   9.228   2.743   4.674 -0.1678  0.3512  0.2044
  332MOL0     C43746   9.612   2.884   4.481  0.3339  0.3440  0.2302
  332MOL0     C43747   9.648   2.875   4.341 -0.0859  0.3194 -0.4862
  332MOL0     C43748   9.764   2.933   4.293  0.6074 -1.3145  0.3674
  332MOL0     C43749   9.850   2.995   4.385 -0.9756  0.2976  0.6664
  332MOL0     O43750   9.967   3.047   4.332  0.3965  0.2103 -0.1728
  332MOL0     C43751  10.049   3.128   4.421  0.1525  0.9080 -0.2939
  332MOL0     C43752  10.139   3.207   4.328 -0.1985  0.1563 -0.4498
  332MOL0     C43753  10.254   3.248   4.417  0.2887 -1.2915  0.0168
  332MOL0     C43754  10.352   3.340   4.342  0.4639 -1.2254  0.8857
  332MOL0     C43755  10.453   3.392   4.434 -0.0871  0.1993 -0.0982
  332MOL0     C43756  10.551   3.430   4.491  0.0979 -0.5081  0.3915
  332MOL0     C43757   9.819   3.005   4.523 -0.1653  0.1671 -0.4675
  332MOL0     C43758   9.698   2.954   4.570  0.6507  0.5612  0.4872
  332MOL0     H43759   9.419   2.929   4.868  0.6409 -0.8954  2.2241
  332MOL0     H43760   9.201   2.954   5.001 -0.2575 -2.9802  3.1410
  332MOL0     H43761   8.867   2.675   4.869  0.1440 -0.4984  2.1065
  332MOL0     H43762   8.831   2.851   4.819 -1.3534  1.6608  1.5503
  332MOL0     H43763   8.659   2.814   4.933  1.4295  2.4873 -4.0601
  332MOL0     H43764   8.765   2.921   5.025 -3.0770  1.0647 -0.9523
  332MOL0     H43765   8.850   2.694   5.152 -1.0412 -0.7652  1.2334
  332MOL0     H43766   8.729   2.618   5.072 -0.2363  1.1149 -0.7481
  332MOL0     H43767   8.666   2.683   5.296  1.4921 -2.2264 -2.2813
  332MOL0     H43768   8.676   2.857   5.265 -1.5179  0.1784 -0.1128
  332MOL0     H43769   8.499   2.855   5.100 -0.2961  0.3027  0.2094
  332MOL0     H43770   8.446   2.826   5.255 -0.0141 -1.0061  0.8486
  332MOL0     H43771   8.418   2.602   5.253  0.2728  2.0520  1.7243
  332MOL0     H43772   8.502   2.585   5.081 -1.5710  0.2486 -1.2178
  332MOL0     H43773   8.329   2.694   4.978 -1.5982 -1.4712 -0.6852
  332MOL0     H43774   8.271   2.550   5.055 -0.2027 -0.2098  0.3254
  332MOL0     H43775   8.128   2.751   5.052  2.0847  3.1548 -1.5943
  332MOL0     H43776   8.253   2.841   5.141  2.3463 -1.4769 -0.9930
  332MOL0     H43777   7.982   2.569   5.198 -0.9690 -0.2043  1.0196
  332MOL0     H43778   7.955   2.510   5.574  3.6656 -2.8468 -2.6581
  332MOL0     H43779   7.889   2.447   5.417 -1.8696  0.9420 -1.5985
  332MOL0     H43780   7.710   2.546   5.541  3.0242 -3.0784 -0.8715
  332MOL0     H43781   7.745   2.639   5.389 -1.6978 -1.8363 -1.1515
  332MOL0     H43782   7.853   2.712   5.663  0.2193  1.9460  0.5876
  332MOL0     H43783   7.875   2.809   5.523  0.0612  1.6128  1.3994
  332MOL0     H43784   7.608   2.801   5.518  1.5507 -1.6411 -0.4775
  332MOL0     H43785   7.704   2.928   5.588  3.3042 -0.0089  1.0301
  332MOL0     H43786   7.590   2.785   5.954  0.9249 -0.0020 -0.1693
  332MOL0     H43787   7.498   2.976   6.109  1.5110  1.8149 -0.1286
  332MOL0     H43788   7.237   3.341   6.235  1.9501  3.4963  2.4106
  332MOL0     H43789   7.084   3.534   6.311 -2.0119  1.2799 -1.1838
  332MOL0     H43790   6.994   3.758   6.356 -1.7999 -0.1539  1.1438
  332MOL0     H43791   6.866   3.649   6.297 -0.5800  0.3753 -1.7352
  332MOL0     H43792   6.774   3.831   6.174  0.2133  0.9595 -1.0437
  332MOL0     H43793   6.887   3.947   6.261 -2.0398  1.5605  0.9418
  332MOL0     H43794   6.670   3.961   6.361  0.8237 -0.4445 -2.7344
  332MOL0     H43795   6.773   3.898   6.480 -0.8289 -1.4586  0.0945
  332MOL0     H43796   6.612   3.690   6.311 -2.6531 -1.3767  1.2718
  332MOL0     H43797   6.697   3.677   6.464  0.6861  2.0266  2.2048
  332MOL0     H43798   6.527   3.855   6.551  0.7366  2.4257 -1.7737
  332MOL0     H43799   6.455   3.703   6.515 -0.4138  1.7188  2.7050
  332MOL0     H43800   6.380   3.777   6.288 -2.1264 -1.3460  0.3197
  332MOL0     H43801   6.448   3.939   6.340  1.8963 -0.1331  2.5567
  332MOL0     H43802   6.223   3.804   6.504  0.9229  2.1430  2.2990
  332MOL0     H43803   6.272   3.968   6.508 -2.0686  0.6727 -0.0179
  332MOL0     H43804   6.061   3.914   6.399 -0.5038 -2.5912 -1.0627
  332MOL0     H43805   6.154   3.844   6.268 -0.1638 -0.1605  0.4059
  332MOL0     H43806   7.024   3.656   5.924  1.5083  2.5203  0.5684
  332MOL0     H43807   7.167   3.459   5.834 -0.2696  2.2276 -0.3821
  332MOL0     H43808   7.351   3.163   5.754  0.9122 -1.0621 -2.1908
  332MOL0     H43809   7.474   2.994   5.617 -0.0554  4.5762  0.0063
  332MOL0     H43810   9.025   2.705   4.698  0.4990 -0.5085 -0.8620
  332MOL0     H43811   9.230   2.690   4.580 -0.9629 -1.4111  1.1254
  332MOL0     H43812   9.579   2.830   4.271  2.8848 -1.0901 -2.7334
  332MOL0     H43813   9.792   2.927   4.188  0.5478  1.5812  0.1198
  332MOL0     H43814  10.093   3.060   4.494  2.5271  2.4861 -0.1403
  332MOL0     H43815   9.985   3.192   4.482  1.7351  1.5476  0.7478
  332MOL0     H43816  10.176   3.141   4.249  0.6616  1.8429 -1.5179
  332MOL0     H43817  10.081   3.288   4.282 -0.3281  0.5934  0.4700
  332MOL0     H43818  10.308   3.159   4.449  2.4527 -0.3902 -0.9120
  332MOL0     H43819  10.224   3.304   4.507  1.0768  0.0890 -0.5413
  332MOL0     H43820  10.404   3.278   4.268  1.0586 -2.1596  2.0469
  332MOL0     H43821  10.311   3.428   4.292  3.5255  0.2627  0.7905
  332MOL0     H43822  10.644   3.466   4.531  0.1256  1.7290 -1.4641
  332MOL0     H43823   9.879   3.052   4.599 -1.4135 -1.9233  1.9673
  332MOL0     H43824   9.664   2.978   4.670 -2.5233 -2.4828  0.3637
  333MOL0     O43825   3.090   1.870   5.201 -0.6680  0.2230 -0.5223
  333MOL0     C43826   3.130   1.751   5.206 -0.1519  0.4055  0.3250
  333MOL0     O43827   3.071   1.642   5.253  0.7199 -0.0289 -0.8926
  333MOL0     C43828   2.937   1.650   5.289 -0.3914 -0.7619 -0.2883
  333MOL0     C43829   2.900   1.536   5.363 -0.3152  0.5900 -1.1720
  333MOL0     C43830   2.770   1.507   5.392  0.6341 -0.1742 -0.2345
  333MOL0     C43831   2.664   1.603   5.360 -0.3153  0.1996 -0.6588
  333MOL0     O43832   2.525   1.590   5.386 -0.3678 -0.6635 -0.0155
  333MOL0     C43833   2.465   1.467   5.425 -0.4684 -0.2187  0.3923
  333MOL0     C43834   2.465   1.451   5.581  0.5160  0.1165  0.5697
  333MOL0     C43835   2.368   1.550   5.634  0.2576 -0.1296 -0.0598
  333MOL0     C43836   2.343   1.528   5.780 -0.1483  0.5976  0.2497
  333MOL0     C43837   2.235   1.621   5.826  0.2869  0.1649  0.7342
  333MOL0     C43838   2.198   1.599   5.980 -1.4876  0.1384 -0.0920
  333MOL0     C43839   2.116   1.722   6.032  0.2467  0.1914 -0.1083
  333MOL0     C43840   1.983   1.723   5.952  0.1242 -0.3501 -0.0244
  333MOL0     N43841   1.909   1.597   5.968 -0.5991 -0.1807  0.1151
  333MOL0     C43842   1.886   1.547   6.097  0.8605 -0.3998  1.1952
  333MOL0     C43843   1.816   1.435   6.075  0.1345 -0.4979 -0.2101
  333MOL0     C43844   1.770   1.330   6.177  0.4827  0.6400  0.9907
  333MOL0     C43845   1.655   1.375   6.268 -0.0096 -0.2135  0.9040
  333MOL0     C43846   1.567   1.476   6.203 -0.6102  0.3023 -0.0926
  333MOL0     C43847   1.444   1.491   6.275  0.4042  0.1616  0.1255
  333MOL0     O43848   1.357   1.602   6.224  0.6282 -0.1687  0.7258
  333MOL0     C43849   1.231   1.593   6.241  0.0779  0.3999  0.5913
  333MOL0     C43850   1.152   1.528   6.343  0.5099  1.1708 -0.9132
  333MOL0     C43851   1.018   1.552   6.357  0.7731 -0.1420  0.0055
  333MOL0     C43852   0.947   1.636   6.272 -0.3921 -0.3960  0.2855
  333MOL0     C43853   0.801   1.662   6.275 -0.2624  0.2125 -0.8432
  333MOL0     O43854   0.744   1.611   6.393  1.0375  0.6651  0.0259
  333MOL0     C43855   0.615   1.657   6.424 -0.4077  0.9500 -0.5307
  333MOL0     C43856   0.498   1.663   6.345 -0.2157 -1.0434  0.6654
  333MOL0     C43857   0.377   1.699   6.403  0.6696  0.0871 -0.3827
  333MOL0     C43858   0.368   1.732   6.544 -0.4652 -0.3252  0.6606
  333MOL0     O43859   0.254   1.758   6.612  0.1475 -0.2659 -0.2057
  333MOL0     C43860   0.135   1.742   6.543  0.1397  0.1393 -0.7388
  333MOL0     C43861   0.028   1.772   6.646  0.3442  0.0050 -0.1934
  333MOL0     C43862  -0.113   1.772   6.582 -0.0920  0.0191 -0.3211
  333MOL0     C43863  -0.225   1.839   6.669  0.8146 -0.4268 -0.4595
  333MOL0     C43864  -0.348   1.873   6.589  0.0141  0.1968 -0.2420
  333MOL0     C43865  -0.436   1.751   6.544 -0.1370 -0.6377 -0.5636
  333MOL0     C43866  -0.526   1.775   6.422  0.6377 -0.3926  0.3610
  333MOL0     C43867  -0.644   1.867   6.461 -0.1321  0.2043  0.9261
  333MOL0    Cl43868  -0.786   1.844   6.356 -0.1360  0.1513 -0.1108
  333MOL0     C43869   0.486   1.720   6.625  0.6374  0.6978  0.0992
  333MOL0     C43870   0.609   1.674   6.565  0.2249 -0.3772 -0.0064
  333MOL0     O43871   0.741   1.739   6.201  0.1747  0.1911  0.5856
  333MOL0     C43872   1.022   1.698   6.163  0.0428  0.0988  0.6821
  333MOL0     C43873   1.158   1.677   6.156  0.0163 -0.0846 -0.8071
  333MOL0     N43874   1.792   1.418   5.939 -0.2398 -0.4275  0.1904
  333MOL0     N43875   1.856   1.512   5.873 -0.2470 -0.5727 -0.7374
  333MOL0     C43876   2.705   1.706   5.279 -0.3719 -0.1223 -0.2385
  333MOL0     C43877   2.840   1.724   5.235 -0.1718 -1.0743  0.4081
  333MOL0     C43878   3.274   1.738   5.178  0.0884  0.7661  0.1808
  333MOL0     C43879   3.348   1.641   5.242  0.7513 -0.0449 -0.1657
  333MOL0     C43880   3.492   1.625   5.221 -0.4337  0.1483 -0.8772
  333MOL0     C43881   3.556   1.714   5.128  0.2803 -0.0985 -0.1774
  333MOL0     O43882   3.688   1.703   5.100  0.3692 -0.0763 -0.1887
  333MOL0     C43883   3.781   1.600   5.152  0.4338 -0.1016  0.6325
  333MOL0     C43884   3.891   1.594   5.045 -0.3693  0.0175  0.5607
  333MOL0     C43885   3.983   1.716   5.064 -0.2003  0.5703  0.8756
  333MOL0     C43886   4.106   1.719   4.971 -0.6260 -0.4578  0.0088
  333MOL0     C43887   4.178   1.846   4.983  1.0357  0.3350 -0.4518
  333MOL0     C43888   4.237   1.950   5.006 -0.0215  0.3661 -0.7023
  333MOL0     C43889   3.474   1.814   5.067  0.0926  0.8362 -0.8127
  333MOL0     C43890   3.342   1.831   5.098  0.2303 -0.2608 -0.0854
  333MOL0     H43891   2.983   1.478   5.403 -1.0340  0.7525  0.6766
  333MOL0     H43892   2.735   1.419   5.445  1.8915 -1.3039 -1.1907
  333MOL0     H43893   2.529   1.397   5.370  3.6995  3.9182 -0.6781
  333MOL0     H43894   2.364   1.464   5.385 -1.0208 -3.1010  1.7473
  333MOL0     H43895   2.565   1.456   5.625  0.2349 -0.3982  1.2700
  333MOL0     H43896   2.419   1.356   5.610  2.1125 -0.1716  2.3748
  333MOL0     H43897   2.273   1.535   5.581 -0.6098 -0.2722  1.4536
  333MOL0     H43898   2.409   1.651   5.630  0.3953 -0.1955 -0.3207
  333MOL0     H43899   2.311   1.427   5.805  1.1133 -0.1214 -0.9128
  333MOL0     H43900   2.442   1.540   5.827  1.3129 -1.3385 -2.0904
  333MOL0     H43901   2.151   1.601   5.759  0.3322  0.2842  0.6411
  333MOL0     H43902   2.265   1.723   5.800  1.1496  0.0144  1.1019
  333MOL0     H43903   2.290   1.591   6.038 -2.9142 -3.7400  2.0262
  333MOL0     H43904   2.158   1.499   6.000 -0.0359 -0.3328  0.5295
  333MOL0     H43905   2.097   1.702   6.138  2.6116  0.2844  0.4107
  333MOL0     H43906   2.162   1.822   6.031  0.2146  0.2205  0.6825
  333MOL0     H43907   2.004   1.730   5.845  0.4615 -1.4771 -0.0432
  333MOL0     H43908   1.921   1.811   5.974  1.8556  0.6219  1.2238
  333MOL0     H43909   1.926   1.596   6.185  3.7287 -1.6197  0.6881
  333MOL0     H43910   1.851   1.285   6.235  0.0236 -0.9181  0.4719
  333MOL0     H43911   1.731   1.249   6.115  0.0971  1.2798  0.3897
  333MOL0     H43912   1.696   1.406   6.365  2.9539  1.4506 -0.7186
  333MOL0     H43913   1.603   1.279   6.272  0.6224 -0.6327 -0.4695
  333MOL0     H43914   1.612   1.575   6.203  0.0548  0.0136 -1.3554
  333MOL0     H43915   1.558   1.446   6.098  2.9014 -2.2456  0.1588
  333MOL0     H43916   1.470   1.510   6.379  1.7666  0.7548 -0.2912
  333MOL0     H43917   1.399   1.392   6.262  1.4652 -0.2463 -0.6026
  333MOL0     H43918   1.202   1.466   6.415  3.0774  3.9566 -0.0870
  333MOL0     H43919   0.955   1.496   6.425  0.2420  1.2119  0.6724
  333MOL0     H43920   0.508   1.656   6.237  0.6280  4.2334  0.1385
  333MOL0     H43921   0.298   1.686   6.330  1.8775 -0.9774 -1.5621
  333MOL0     H43922   0.120   1.644   6.498  3.2149 -1.2312  0.8948
  333MOL0     H43923   0.136   1.819   6.465 -0.0027  1.4889  0.5378
  333MOL0     H43924   0.036   1.867   6.699 -4.1934  0.4387  0.0494
  333MOL0     H43925   0.015   1.690   6.717 -5.0324  0.6163 -0.1000
  333MOL0     H43926  -0.137   1.669   6.553 -2.3224  0.3719  0.0711
  333MOL0     H43927  -0.113   1.829   6.489 -1.2093  2.2716  0.9460
  333MOL0     H43928  -0.240   1.770   6.753  2.4924  1.9907  2.0061
  333MOL0     H43929  -0.183   1.933   6.707  3.2847 -1.1361 -1.2298
  333MOL0     H43930  -0.332   1.930   6.497 -0.2264  1.1407  0.2960
  333MOL0     H43931  -0.403   1.931   6.663  2.8566  1.5845  0.9152
  333MOL0     H43932  -0.494   1.715   6.630  3.9104 -0.7378  2.4140
  333MOL0     H43933  -0.372   1.669   6.513 -1.1074 -0.6632 -2.6184
  333MOL0     H43934  -0.483   1.827   6.337 -0.4807  1.6538  0.9716
  333MOL0     H43935  -0.561   1.677   6.390  0.8852 -0.8453  1.4343
  333MOL0     H43936  -0.606   1.969   6.457  2.0875 -0.5379  1.5774
  333MOL0     H43937  -0.675   1.841   6.563 -2.4792 -0.8989  0.0045
  333MOL0     H43938   0.471   1.748   6.729 -1.3989  0.2241 -0.0269
  333MOL0     H43939   0.694   1.649   6.628  0.4168  0.3353  0.0186
  333MOL0     H43940   0.964   1.764   6.099  1.1170 -0.2764 -0.7238
  333MOL0     H43941   1.204   1.742   6.083 -0.5081  0.8884 -0.3057
  333MOL0     H43942   2.629   1.773   5.240 -0.6797 -0.6917 -0.6357
  333MOL0     H43943   2.861   1.811   5.173 -2.1994  0.5959  1.8650
  333MOL0     H43944   3.319   1.556   5.301  2.3876 -1.4886 -1.3153
  333MOL0     H43945   3.548   1.547   5.271 -0.2489  0.6474 -0.2966
  333MOL0     H43946   3.734   1.501   5.154  1.0177 -0.3878  2.4655
  333MOL0     H43947   3.831   1.617   5.248  2.1818 -0.2380 -0.2149
  333MOL0     H43948   3.950   1.506   5.072 -0.2240  0.5124  1.9487
  333MOL0     H43949   3.853   1.584   4.943  0.2545 -0.0098  0.3302
  333MOL0     H43950   4.002   1.732   5.170 -0.8048 -0.6292  1.1833
  333MOL0     H43951   3.915   1.799   5.044 -1.4871  0.0444  2.8149
  333MOL0     H43952   4.178   1.640   4.995  2.7314  2.2825 -0.2314
  333MOL0     H43953   4.081   1.702   4.866  1.4477  3.3520 -1.2815
  333MOL0     H43954   4.269   2.052   5.016  0.2704  0.0712  1.9163
  333MOL0     H43955   3.524   1.887   5.004  0.6938  2.2305  1.1870
  333MOL0     H43956   3.287   1.911   5.048 -1.9403 -1.2318  0.6490
  334MOL0     O43957   8.667   1.016   7.844  0.5128  0.2414  0.5038
  334MOL0     C43958   8.678   0.913   7.772  0.0222 -0.5087 -0.4342
  334MOL0     O43959   8.608   0.796   7.787  0.0360 -0.8084 -0.2068
  334MOL0     C43960   8.512   0.793   7.885  0.2552 -0.2064  0.1359
  334MOL0     C43961   8.385   0.789   7.826 -0.0453 -0.0034  0.4733
  334MOL0     C43962   8.276   0.772   7.915  0.7454  1.0972  0.8865
  334MOL0     C43963   8.293   0.775   8.055  0.3797  0.1972  0.3874
  334MOL0     O43964   8.188   0.778   8.147  0.2318 -0.0319  0.1342
  334MOL0     C43965   8.049   0.775   8.094 -0.3439 -0.3792  0.6857
  334MOL0     C43966   7.964   0.790   8.223  1.1300 -0.1278  0.6234
  334MOL0     C43967   7.815   0.773   8.185  0.5809 -0.5481  0.2325
  334MOL0     C43968   7.740   0.719   8.304  0.2653 -0.4566 -0.8152
  334MOL0     C43969   7.590   0.735   8.301 -0.4559  0.2269  0.0333
  334MOL0     C43970   7.539   0.881   8.311 -0.8787  0.1086  0.5685
  334MOL0     C43971   7.389   0.865   8.280  0.1778 -0.6723 -1.0469
  334MOL0     C43972   7.315   0.996   8.305 -0.4134 -0.2348 -0.0772
  334MOL0     N43973   7.202   1.008   8.407  0.5057  0.7632 -0.2774
  334MOL0     C43974   7.102   0.917   8.426  0.3048  0.1433  0.1561
  334MOL0     C43975   7.046   0.952   8.547  0.2739  0.2393  0.3231
  334MOL0     C43976   6.924   0.879   8.601  0.1979  0.6332 -0.8371
  334MOL0     C43977   6.796   0.953   8.559 -0.6260  0.7074 -0.0735
  334MOL0     C43978   6.768   0.983   8.409  0.0468 -0.0969 -0.0010
  334MOL0     C43979   6.783   0.867   8.303  0.0950  0.7840  0.0224
  334MOL0     O43980   6.760   0.937   8.182 -0.6418  0.4148 -0.5075
  334MOL0     C43981   6.721   0.859   8.075  0.4032 -0.5962  0.1968
  334MOL0     C43982   6.619   0.915   7.998 -0.1803  0.2346 -0.3796
  334MOL0     C43983   6.584   0.851   7.872 -0.2757 -0.3663 -0.0664
  334MOL0     C43984   6.659   0.746   7.817  0.6003 -0.9040  0.3411
  334MOL0     C43985   6.626   0.704   7.674  0.2101 -0.4486 -0.3149
  334MOL0     O43986   6.502   0.744   7.620  0.0788 -0.3852  0.0650
  334MOL0     C43987   6.506   0.725   7.486  0.6458  0.0696 -0.5841
  334MOL0     C43988   6.531   0.827   7.390  0.1360  0.9470 -0.1195
  334MOL0     C43989   6.519   0.800   7.254 -0.2083 -0.0972 -0.0680
  334MOL0     C43990   6.493   0.669   7.203 -0.3958  0.6626  0.6727
  334MOL0     O43991   6.485   0.650   7.063 -0.2069 -0.2862  0.4984
  334MOL0     C43992   6.414   0.536   7.004 -0.2635  1.0023 -0.1773
  334MOL0     C43993   6.270   0.572   6.990  0.6107  0.2926 -0.1853
  334MOL0     C43994   6.189   0.603   7.121  0.0294  0.2485  0.0166
  334MOL0     C43995   6.033   0.619   7.105  0.2644  0.5765  0.2844
  334MOL0     C43996   5.972   0.699   7.222  0.2634  0.2254  0.1464
  334MOL0     C43997   5.824   0.661   7.244  1.4663  0.4255  0.2760
  334MOL0     C43998   5.753   0.748   7.343  0.2557 -0.2853  0.1109
  334MOL0     C43999   5.598   0.723   7.346 -0.3152  0.0369  0.2954
  334MOL0    Cl44000   5.538   0.590   7.460  0.2255 -0.0960  0.3298
  334MOL0     C44001   6.455   0.568   7.294  0.6545 -0.9389 -0.8463
  334MOL0     C44002   6.470   0.595   7.432 -0.6703  0.8683  0.2127
  334MOL0     O44003   6.719   0.653   7.605  0.3239  0.1985 -0.3643
  334MOL0     C44004   6.756   0.685   7.897 -0.4829  0.0629 -0.7152
  334MOL0     C44005   6.782   0.739   8.030  0.1519  0.2015 -0.0007
  334MOL0     N44006   7.106   1.065   8.597  0.3647  0.5629 -0.6707
  334MOL0     N44007   7.203   1.092   8.518 -0.3304 -0.4446 -0.1372
  334MOL0     C44008   8.422   0.785   8.109  0.2352  0.9335 -0.1681
  334MOL0     C44009   8.533   0.774   8.027 -0.7057 -0.9416  0.7782
  334MOL0     C44010   8.764   0.929   7.651 -0.5870 -0.0486 -0.1007
  334MOL0     C44011   8.857   1.037   7.645 -0.0009  0.8517 -1.0461
  334MOL0     C44012   8.939   1.047   7.533 -0.8506  0.9513  0.5141
  334MOL0     C44013   8.949   0.939   7.438 -0.2633 -0.3035 -0.0601
  334MOL0     O44014   9.040   0.936   7.339  0.0335 -0.3294  0.0140
  334MOL0     C44015   9.094   1.058   7.298  0.9934  0.0140  0.1947
  334MOL0     C44016   9.212   1.023   7.212 -0.1176 -0.3934  0.2491
  334MOL0     C44017   9.269   1.151   7.164 -0.5903 -0.5332 -0.3055
  334MOL0     C44018   9.372   1.147   7.047  0.1962  0.9041  0.1745
  334MOL0     C44019   9.485   1.065   7.084 -0.3409  0.2276  0.0846
  334MOL0     C44020   9.541   0.980   7.151  0.0040 -1.3120 -0.3617
  334MOL0     C44021   8.870   0.827   7.454  0.1812 -0.9821 -0.3936
  334MOL0     C44022   8.774   0.822   7.556  0.6235  0.1923  0.4075
  334MOL0     H44023   8.376   0.791   7.718 -0.4966 -1.0259  0.4739
  334MOL0     H44024   8.178   0.754   7.870  1.4599 -0.1849 -0.2413
  334MOL0     H44025   8.039   0.677   8.047  4.4380 -1.0425  0.5841
  334MOL0     H44026   8.029   0.854   8.022 -1.1910  1.0041  2.3569
  334MOL0     H44027   7.993   0.878   8.281 -3.1207  1.6885  0.3693
  334MOL0     H44028   7.994   0.705   8.286 -0.6164 -1.2824 -0.0244
  334MOL0     H44029   7.804   0.703   8.101 -1.2870 -0.7661  0.6159
  334MOL0     H44030   7.778   0.866   8.141  2.4474 -0.5991 -1.5855
  334MOL0     H44031   7.763   0.612   8.300  1.7193 -0.1240 -2.4950
  334MOL0     H44032   7.771   0.759   8.401 -0.8152 -0.8465 -0.2957
  334MOL0     H44033   7.543   0.674   8.380  2.0609  0.1232  1.5455
  334MOL0     H44034   7.557   0.700   8.203 -2.7511 -0.0267  0.8286
  334MOL0     H44035   7.577   0.963   8.248 -4.7960  2.9804  1.5256
  334MOL0     H44036   7.559   0.917   8.412  2.0564 -0.3702  0.2471
  334MOL0     H44037   7.375   0.842   8.174  0.1864  0.2485 -1.2517
  334MOL0     H44038   7.349   0.792   8.351 -0.2543  0.9457  0.4509
  334MOL0     H44039   7.274   1.029   8.209  0.1923  0.3986 -0.1206
  334MOL0     H44040   7.388   1.073   8.329  1.5124 -1.7774 -0.7238
  334MOL0     H44041   7.084   0.837   8.355 -2.2595 -1.2914  2.2176
  334MOL0     H44042   6.927   0.872   8.710 -0.3344  0.6795 -0.8204
  334MOL0     H44043   6.934   0.778   8.561  1.0035  0.6744 -0.7571
  334MOL0     H44044   6.784   1.046   8.615  1.8914  1.2487 -0.3407
  334MOL0     H44045   6.708   0.891   8.579 -0.6635  0.3113 -1.3780
  334MOL0     H44046   6.662   1.010   8.414  0.0674  0.3390 -1.4231
  334MOL0     H44047   6.823   1.074   8.387 -1.7352  1.3003  1.0300
  334MOL0     H44048   6.716   0.784   8.327  0.3900  0.7266  0.6808
  334MOL0     H44049   6.885   0.830   8.311  0.2147  1.1492  0.2055
  334MOL0     H44050   6.559   0.997   8.038 -2.2395 -1.1758 -0.4543
  334MOL0     H44051   6.494   0.886   7.821  0.3336 -0.0547 -0.9694
  334MOL0     H44052   6.576   0.912   7.440  0.0005  0.3598  1.0405
  334MOL0     H44053   6.549   0.883   7.192  0.8578  0.2362  0.8538
  334MOL0     H44054   6.425   0.440   7.055 -2.1874 -0.1364 -1.7844
  334MOL0     H44055   6.469   0.529   6.910 -0.0719 -3.7119  0.0400
  334MOL0     H44056   6.228   0.481   6.945  0.2513  1.0162 -1.3616
  334MOL0     H44057   6.255   0.652   6.917  1.8630  0.5238 -0.2181
  334MOL0     H44058   6.228   0.699   7.156  0.0573  0.4973 -0.7028
  334MOL0     H44059   6.211   0.533   7.203 -0.9136  0.8418  0.8022
  334MOL0     H44060   6.000   0.660   7.009 -0.0047  1.2516  0.6573
  334MOL0     H44061   6.004   0.514   7.103  0.0416  0.4703  3.9141
  334MOL0     H44062   5.988   0.807   7.216 -0.3582  0.2322 -2.1393
  334MOL0     H44063   6.014   0.669   7.319 -0.8977 -1.4333  0.1824
  334MOL0     H44064   5.813   0.556   7.272  0.9439  0.7705  1.4152
  334MOL0     H44065   5.774   0.679   7.148  1.0015 -0.5147  0.3334
  334MOL0     H44066   5.799   0.736   7.442 -0.5600 -0.5582  0.4652
  334MOL0     H44067   5.762   0.852   7.310  1.9722 -1.1150 -2.3276
  334MOL0     H44068   5.559   0.701   7.246 -2.2925 -1.2746  1.3049
  334MOL0     H44069   5.547   0.817   7.367  1.5483  1.7547 -2.2242
  334MOL0     H44070   6.422   0.469   7.264 -3.1028 -0.1113  0.0460
  334MOL0     H44071   6.458   0.514   7.503  1.6789  1.0784  0.9239
  334MOL0     H44072   6.830   0.618   7.853 -1.8550  0.0944 -3.2426
  334MOL0     H44073   6.854   0.684   8.091 -0.7648 -0.5514  0.4335
  334MOL0     H44074   8.436   0.779   8.217  0.1541 -3.1453 -0.2252
  334MOL0     H44075   8.635   0.775   8.065 -0.7194  0.7896  0.8574
  334MOL0     H44076   8.854   1.124   7.710 -2.6397 -1.6083  2.6082
  334MOL0     H44077   8.997   1.138   7.520  0.3399  0.2502  0.7479
  334MOL0     H44078   9.122   1.128   7.376 -0.9891 -0.6865  1.6114
  334MOL0     H44079   9.017   1.102   7.234  2.3886  2.3447  0.0245
  334MOL0     H44080   9.281   0.956   7.265 -0.3760 -2.4381 -1.8758
  334MOL0     H44081   9.182   0.967   7.123 -1.1885 -3.3070  2.2931
  334MOL0     H44082   9.318   1.205   7.245  0.7525 -0.2649 -1.2564
  334MOL0     H44083   9.190   1.215   7.125  1.0653 -1.0684 -5.2561
  334MOL0     H44084   9.327   1.106   6.956 -0.4305  0.7694  0.5344
  334MOL0     H44085   9.395   1.252   7.026  1.8170  1.2146  2.9917
  334MOL0     H44086   9.591   0.904   7.207  2.6729  1.6138  1.5405
  334MOL0     H44087   8.883   0.742   7.387  2.9896 -0.3206 -0.8228
  334MOL0     H44088   8.716   0.732   7.573  0.9812  0.4072  3.0746
  335MOL0     O44089   3.161   2.220   0.562 -0.3524 -0.6946  0.5761
  335MOL0     C44090   3.207   2.111   0.525 -0.9040 -0.8970 -0.1928
  335MOL0     O44091   3.146   2.033   0.443 -0.3631  0.2001 -0.0173
  335MOL0     C44092   3.016   2.059   0.403  0.2872 -0.2294  0.2632
  335MOL0     C44093   2.998   2.027   0.270  0.2463  0.1003  0.5770
  335MOL0     C44094   2.879   2.060   0.203 -0.4315 -0.2734  0.1543
  335MOL0     C44095   2.766   2.102   0.279 -1.3699 -0.2423  0.2784
  335MOL0     O44096   2.641   2.113   0.235  0.1737 -0.4178 -0.4823
  335MOL0     C44097   2.588   2.004   0.174  0.7689  1.4653  0.4939
  335MOL0     C44098   2.448   2.035   0.108  0.0307 -0.1569 -0.5377
  335MOL0     C44099   2.466   2.159   0.014  0.0148  1.0301 -0.3834
  335MOL0     C44100   2.585   2.126  -0.085  0.8548 -0.4786 -0.0289
  335MOL0     C44101   2.571   2.200  -0.218  0.0456 -1.1927  0.7530
  335MOL0     C44102   2.686   2.153  -0.302  0.2881 -0.2783 -0.6630
  335MOL0     C44103   2.691   2.217  -0.448 -0.7848 -0.0961  0.6169
  335MOL0     C44104   2.830   2.177  -0.517 -0.1547 -1.0828  0.1488
  335MOL0     N44105   2.951   2.181  -0.443 -0.0100 -0.3188 -0.4726
  335MOL0     C44106   3.003   2.082  -0.367  0.0327  0.2067  0.4252
  335MOL0     C44107   3.136   2.111  -0.345 -0.0112  0.1274 -0.3198
  335MOL0     C44108   3.231   2.019  -0.271  0.0246  0.2623  0.8664
  335MOL0     C44109   3.300   1.918  -0.360  0.0951  0.6788 -0.1564
  335MOL0     C44110   3.368   1.811  -0.263 -0.0839 -0.7943  1.0126
  335MOL0     C44111   3.431   1.697  -0.352 -0.2120 -1.6008  0.0499
  335MOL0     O44112   3.463   1.587  -0.266  0.5812 -0.0551  0.0656
  335MOL0     C44113   3.602   1.565  -0.254  0.0122 -0.4174  0.2511
  335MOL0     C44114   3.652   1.439  -0.224  0.0806 -0.4295 -1.0038
  335MOL0     C44115   3.789   1.419  -0.207 -0.1061  0.3137 -0.2673
  335MOL0     C44116   3.878   1.522  -0.209 -0.5382 -0.4251 -0.5584
  335MOL0     C44117   4.029   1.507  -0.199  0.3746  0.4279  0.0088
  335MOL0     O44118   4.105   1.618  -0.185 -0.6353  0.3251  0.0263
  335MOL0     C44119   4.245   1.613  -0.217  0.1993  0.0166 -0.2203
  335MOL0     C44120   4.330   1.673  -0.133 -0.7667 -0.6622  0.5651
  335MOL0     C44121   4.468   1.660  -0.165 -0.4407 -0.7254 -0.5168
  335MOL0     C44122   4.522   1.597  -0.277  0.2273 -1.1687  0.2572
  335MOL0     O44123   4.655   1.588  -0.309 -0.2906  0.2884  0.2259
  335MOL0     C44124   4.756   1.660  -0.237  0.1374 -1.6693  0.3941
  335MOL0     C44125   4.757   1.805  -0.297 -0.5874  0.4138  0.5131
  335MOL0     C44126   4.781   1.808  -0.452  0.9093  0.7128 -1.2110
  335MOL0     C44127   4.887   1.904  -0.500 -0.0075 -0.7947 -0.0335
  335MOL0     C44128   4.921   1.884  -0.649 -0.1364  0.2022 -0.1195
  335MOL0     C44129   5.019   1.774  -0.661  0.3490  0.3116 -0.9028
  335MOL0     C44130   5.056   1.746  -0.809 -0.2049  0.0022 -0.2769
  335MOL0     C44131   5.175   1.649  -0.821 -0.2588 -0.0430  0.6347
  335MOL0    Cl44132   5.203   1.630  -0.994  0.4753  0.6218 -0.0982
  335MOL0     C44133   4.424   1.543  -0.365 -0.2726 -0.0821 -0.0069
  335MOL0     C44134   4.292   1.549  -0.331  0.6452  0.5414  0.7152
  335MOL0     O44135   4.072   1.396  -0.189  0.3005  0.0242  0.1804
  335MOL0     C44136   3.825   1.647  -0.238 -0.2947 -0.0365  0.4670
  335MOL0     C44137   3.694   1.670  -0.243 -0.4457  0.1169  0.2605
  335MOL0     N44138   3.161   2.227  -0.414  0.1137 -0.2539  0.1600
  335MOL0     N44139   3.049   2.273  -0.462 -0.2901 -0.0359  0.1278
  335MOL0     C44140   2.789   2.122   0.420  0.7808 -0.5004 -0.2999
  335MOL0     C44141   2.916   2.109   0.479 -0.5967 -0.1071  1.0573
  335MOL0     C44142   3.355   2.091   0.569 -1.1208 -0.5674 -0.5108
  335MOL0     C44143   3.419   1.982   0.508 -1.1348 -0.3527 -0.2604
  335MOL0     C44144   3.566   1.969   0.519  0.5912 -0.6777 -0.0179
  335MOL0     C44145   3.639   2.052   0.607  0.2339  0.2027 -0.1478
  335MOL0     O44146   3.777   2.057   0.623  0.4236  0.9253 -0.3052
  335MOL0     C44147   3.863   1.971   0.553 -0.5706  0.1175 -0.3663
  335MOL0     C44148   3.875   1.833   0.600 -0.5622  1.3438 -0.4025
  335MOL0     C44149   3.997   1.767   0.526  0.4549  0.1747 -0.1810
  335MOL0     C44150   4.134   1.777   0.589  0.1038 -0.2030  0.8726
  335MOL0     C44151   4.242   1.698   0.533 -0.6893  0.2754 -0.2972
  335MOL0     C44152   4.324   1.633   0.479 -0.1770  0.2432 -0.0006
  335MOL0     C44153   3.564   2.145   0.680 -0.5874 -0.3603  0.3875
  335MOL0     C44154   3.422   2.166   0.662 -0.0410 -0.0629 -0.6819
  335MOL0     H44155   3.080   1.981   0.215 -0.8142 -0.4705 -0.6010
  335MOL0     H44156   2.871   2.036   0.098 -0.2827  0.8364 -0.1240
  335MOL0     H44157   2.583   1.927   0.251 -1.8828 -3.3471 -3.8210
  335MOL0     H44158   2.655   1.967   0.096  0.3803  0.2743  0.6979
  335MOL0     H44159   2.383   2.047   0.195  0.3018  1.0274 -0.4776
  335MOL0     H44160   2.408   1.947   0.055 -0.1115 -1.1097  1.0997
  335MOL0     H44161   2.496   2.243   0.078  2.6156 -0.6771  0.8120
  335MOL0     H44162   2.375   2.198  -0.033 -0.5216  3.6556  2.4876
  335MOL0     H44163   2.680   2.135  -0.032 -1.0763 -0.4992  3.7717
  335MOL0     H44164   2.562   2.021  -0.105 -1.7962 -0.4999  2.4316
  335MOL0     H44165   2.580   2.307  -0.198 -0.6295 -0.9864  0.0321
  335MOL0     H44166   2.474   2.192  -0.269 -0.0351  1.3214  0.3725
  335MOL0     H44167   2.669   2.046  -0.315 -0.3920 -0.1841 -0.6023
  335MOL0     H44168   2.785   2.165  -0.259  0.4102  0.6319 -1.1737
  335MOL0     H44169   2.603   2.194  -0.510  0.0340  1.8679 -1.4199
  335MOL0     H44170   2.683   2.325  -0.432 -0.0651  0.1883 -0.8196
  335MOL0     H44171   2.836   2.244  -0.603  1.2732  2.3267  2.6717
  335MOL0     H44172   2.815   2.072  -0.544 -2.5796 -0.7065 -0.2270
  335MOL0     H44173   2.950   1.991  -0.340  1.1360 -0.9601 -1.0977
  335MOL0     H44174   3.175   1.971  -0.190 -1.4361  0.6633  0.1147
  335MOL0     H44175   3.300   2.095  -0.233  0.4273 -0.3539  1.3907
  335MOL0     H44176   3.370   1.955  -0.435  0.3178 -0.7244 -0.6794
  335MOL0     H44177   3.235   1.859  -0.426  0.6328 -0.6325  0.4557
  335MOL0     H44178   3.458   1.844  -0.210  2.1572 -0.7080 -2.4927
  335MOL0     H44179   3.291   1.768  -0.198 -2.5173  0.1932 -1.0791
  335MOL0     H44180   3.513   1.736  -0.413 -2.6896  1.5303 -1.6281
  335MOL0     H44181   3.351   1.663  -0.418 -0.5234 -1.7385  0.4926
  335MOL0     H44182   3.588   1.351  -0.229  0.2478 -0.4968 -2.0898
  335MOL0     H44183   3.825   1.316  -0.199 -1.5030 -0.1145  0.9087
  335MOL0     H44184   4.298   1.728  -0.045  0.6632 -0.2647  0.8741
  335MOL0     H44185   4.535   1.699  -0.088 -3.6157 -0.9629  2.6568
  335MOL0     H44186   4.851   1.611  -0.263  1.1249 -0.2579  1.2277
  335MOL0     H44187   4.737   1.671  -0.130 -0.8368  0.9121  0.0224
  335MOL0     H44188   4.839   1.857  -0.248  1.8932 -1.9191 -0.8681
  335MOL0     H44189   4.663   1.858  -0.279 -0.4420  0.9485 -0.2819
  335MOL0     H44190   4.688   1.828  -0.506 -1.2896  0.9333  2.3793
  335MOL0     H44191   4.807   1.704  -0.473  0.0363  0.5753 -1.6859
  335MOL0     H44192   4.855   2.008  -0.493 -1.5076 -0.8077 -4.0447
  335MOL0     H44193   4.975   1.888  -0.437  0.7042  1.9029 -0.2371
  335MOL0     H44194   4.953   1.978  -0.693 -0.1795  1.5882  2.6096
  335MOL0     H44195   4.835   1.849  -0.708  0.7285 -0.5065 -0.9882
  335MOL0     H44196   4.979   1.686  -0.609  1.4087  0.6800  0.6009
  335MOL0     H44197   5.110   1.804  -0.609 -1.3258 -0.4531  2.8214
  335MOL0     H44198   4.981   1.704  -0.877  1.2758  1.8344 -3.2803
  335MOL0     H44199   5.087   1.840  -0.856  2.5982 -0.5548  0.2887
  335MOL0     H44200   5.148   1.552  -0.777 -2.1951  0.0284 -0.2633
  335MOL0     H44201   5.253   1.700  -0.763 -0.7154  3.1328 -1.2918
  335MOL0     H44202   4.454   1.495  -0.457 -0.7033  1.0804 -0.7731
  335MOL0     H44203   4.232   1.479  -0.389 -2.0231  0.8128  2.9953
  335MOL0     H44204   3.894   1.731  -0.237  1.4959 -1.4304  0.6956
  335MOL0     H44205   3.660   1.773  -0.251  1.2506  0.6439 -0.7102
  335MOL0     H44206   2.718   2.168   0.488  1.4854  1.3246 -0.7421
  335MOL0     H44207   2.925   2.146   0.581  0.5303  3.4214 -0.1771
  335MOL0     H44208   3.363   1.914   0.444  0.0140 -2.1343  0.5469
  335MOL0     H44209   3.619   1.885   0.474  0.1729 -0.8396 -0.2152
  335MOL0     H44210   3.960   2.020   0.564 -1.0283  0.7309  1.4288
  335MOL0     H44211   3.839   1.965   0.447  1.9940  0.9693 -1.0565
  335MOL0     H44212   3.890   1.818   0.707 -0.0348  0.0928 -0.6341
  335MOL0     H44213   3.779   1.784   0.580  0.6627 -1.1779 -0.5535
  335MOL0     H44214   4.005   1.815   0.428 -3.4249 -2.9047 -2.2937
  335MOL0     H44215   3.963   1.668   0.495  0.9670  0.5463 -2.0269
  335MOL0     H44216   4.166   1.882   0.589 -1.4200  0.2930  0.4429
  335MOL0     H44217   4.140   1.738   0.691  1.2456 -2.0049  0.1567
  335MOL0     H44218   4.404   1.570   0.446 -1.2170 -0.9937 -0.2426
  335MOL0     H44219   3.608   2.195   0.766 -0.3709  2.2824 -1.1428
  335MOL0     H44220   3.369   2.245   0.715  2.1973 -0.6281  2.7548
  336MOL0     O44221   7.434   0.072   3.692  0.2072  0.1395  0.8973
  336MOL0     C44222   7.445   0.080   3.568  1.0537 -0.0486 -0.5775
  336MOL0     O44223   7.337   0.055   3.485 -0.3706 -0.0180 -0.5779
  336MOL0     C44224   7.224  -0.017   3.521 -0.0967  0.8455 -0.4945
  336MOL0     C44225   7.210  -0.111   3.624 -0.2321  0.1342  0.2099
  336MOL0     C44226   7.095  -0.179   3.656  0.4023  0.7592 -0.8260
  336MOL0     C44227   6.990  -0.177   3.563  0.0349 -1.2703  0.2083
  336MOL0     O44228   6.865  -0.222   3.584 -0.0596 -0.2684 -0.2567
  336MOL0     C44229   6.830  -0.318   3.678  0.1155 -0.4105 -0.0427
  336MOL0     C44230   6.881  -0.452   3.647 -0.8302 -0.1309  0.2296
  336MOL0     C44231   6.796  -0.568   3.704 -0.1671  0.7070  0.5771
  336MOL0     C44232   6.676  -0.591   3.612 -0.4475  0.6269  0.3028
  336MOL0     C44233   6.583  -0.706   3.670  0.9239  0.1005  0.2019
  336MOL0     C44234   6.456  -0.708   3.587 -0.2305 -0.1370  0.3328
  336MOL0     C44235   6.356  -0.808   3.643 -0.9190 -0.8967  0.6451
  336MOL0     C44236   6.257  -0.840   3.533 -0.4995  0.4863 -0.5976
  336MOL0     N44237   6.128  -0.890   3.579  0.3693  1.2199  0.1785
  336MOL0     C44238   6.047  -0.814   3.661 -0.2923  0.0554 -0.7527
  336MOL0     C44239   5.950  -0.899   3.701  0.1089  0.0522  0.3136
  336MOL0     C44240   5.828  -0.871   3.791 -0.0883  0.1195 -0.3058
  336MOL0     C44241   5.700  -0.915   3.716 -0.1617 -0.5985  0.7680
  336MOL0     C44242   5.656  -1.064   3.722 -0.3273  0.8932  0.3971
  336MOL0     C44243   5.514  -1.086   3.682 -0.1312 -0.6750  0.1333
  336MOL0     O44244   5.496  -1.058   3.545 -0.1719  0.1360  0.0082
  336MOL0     C44245   5.371  -1.093   3.487 -0.0659 -0.2320  0.1496
  336MOL0     C44246   5.276  -1.172   3.552 -0.0016  0.1823 -0.0670
  336MOL0     C44247   5.158  -1.205   3.487 -0.3655 -0.4286  0.4792
  336MOL0     C44248   5.135  -1.159   3.352  0.3097 -0.9465 -0.4729
  336MOL0     C44249   4.996  -1.182   3.294  0.4754  0.0401  0.1345
  336MOL0     O44250   4.908  -1.234   3.379  0.0224  0.7878 -0.2051
  336MOL0     C44251   4.785  -1.269   3.336  1.0707 -0.1712 -0.4546
  336MOL0     C44252   4.692  -1.180   3.274  0.3066  0.5300 -0.8562
  336MOL0     C44253   4.568  -1.231   3.240  0.0579  0.0839 -0.3176
  336MOL0     C44254   4.532  -1.363   3.254 -0.0727 -0.2058 -1.3429
  336MOL0     O44255   4.414  -1.425   3.237  0.1291 -0.5330  0.3106
  336MOL0     C44256   4.335  -1.375   3.123  0.0752  0.3714 -0.3420
  336MOL0     C44257   4.220  -1.469   3.080  0.5587 -0.0400 -0.4859
  336MOL0     C44258   4.110  -1.481   3.194  0.6438 -0.0307 -0.4107
  336MOL0     C44259   3.989  -1.564   3.150 -0.1532  0.1074  0.1791
  336MOL0     C44260   3.892  -1.502   3.050  0.0888 -0.6112 -0.3926
  336MOL0     C44261   3.789  -1.621   3.028 -0.6491 -1.0785  0.1448
  336MOL0     C44262   3.675  -1.571   2.942 -0.1355 -1.0368  0.6486
  336MOL0     C44263   3.608  -1.445   3.007 -0.1439  0.2367 -0.0829
  336MOL0    Cl44264   3.435  -1.431   2.960 -0.2103  0.8745 -0.3258
  336MOL0     C44265   4.629  -1.445   3.312  0.0137  0.3084  0.3671
  336MOL0     C44266   4.757  -1.401   3.354  0.0974  0.3041  1.1031
  336MOL0     O44267   4.986  -1.155   3.179 -0.0048 -0.3801  0.6979
  336MOL0     C44268   5.239  -1.088   3.290  0.1733  0.0394  0.3908
  336MOL0     C44269   5.351  -1.055   3.362  0.3153 -0.2138 -0.3635
  336MOL0     N44270   5.984  -1.018   3.651  0.7978  0.1674 -0.1090
  336MOL0     N44271   6.081  -1.019   3.572  0.9048 -1.0965 -0.2877
  336MOL0     C44272   7.001  -0.087   3.452 -0.4411  0.2569 -0.3253
  336MOL0     C44273   7.114  -0.009   3.435 -0.6732  0.0664  0.1688
  336MOL0     C44274   7.576   0.119   3.516  0.3882 -0.7745  0.1729
  336MOL0     C44275   7.602   0.104   3.385 -0.3513 -0.4441  1.3159
  336MOL0     C44276   7.728   0.141   3.335 -0.0984 -0.2097 -0.1260
  336MOL0     C44277   7.832   0.185   3.412 -0.2245 -0.0734  0.0824
  336MOL0     O44278   7.944   0.227   3.339 -0.0462  0.0508  0.2764
  336MOL0     C44279   8.065   0.227   3.421 -0.0283 -0.0016  1.2759
  336MOL0     C44280   8.174   0.274   3.330  0.1056  0.4188  0.2608
  336MOL0     C44281   8.315   0.287   3.401 -0.1220  0.4656  0.2004
  336MOL0     C44282   8.405   0.336   3.288  0.4294  0.2456 -0.2856
  336MOL0     C44283   8.537   0.367   3.342  0.9227 -0.3078 -1.4980
  336MOL0     C44284   8.637   0.409   3.399  0.3185  0.5254 -0.5925
  336MOL0     C44285   7.813   0.199   3.549 -0.6690 -0.3108  0.1189
  336MOL0     C44286   7.684   0.166   3.598 -0.0554 -0.2612  0.0088
  336MOL0     H44287   7.293  -0.142   3.686  0.9105  0.0082 -1.3094
  336MOL0     H44288   7.094  -0.245   3.742  0.9229 -1.5224 -2.4748
  336MOL0     H44289   6.721  -0.321   3.679  0.1022  0.0399  0.8864
  336MOL0     H44290   6.852  -0.292   3.782 -0.4023 -1.1265  0.2496
  336MOL0     H44291   6.983  -0.449   3.686 -0.5878  0.5196 -0.4316
  336MOL0     H44292   6.878  -0.455   3.538 -0.7514 -0.3568  0.2338
  336MOL0     H44293   6.762  -0.557   3.808  0.5723 -0.1708  0.9283
  336MOL0     H44294   6.848  -0.664   3.714 -0.2616  0.8233  2.5915
  336MOL0     H44295   6.626  -0.494   3.605 -0.5629  0.5870  0.5614
  336MOL0     H44296   6.715  -0.624   3.515 -0.7618 -2.6330  1.1866
  336MOL0     H44297   6.571  -0.691   3.778  4.6919 -0.9653  0.9156
  336MOL0     H44298   6.638  -0.800   3.661 -0.1245 -0.4318 -0.8955
  336MOL0     H44299   6.485  -0.727   3.484 -0.6605 -4.5583  0.8267
  336MOL0     H44300   6.404  -0.613   3.602 -0.4882 -0.4613  1.5889
  336MOL0     H44301   6.411  -0.902   3.661  0.3484 -0.6086 -1.3624
  336MOL0     H44302   6.297  -0.764   3.723 -2.7106  1.0875 -1.6441
  336MOL0     H44303   6.295  -0.899   3.448  0.4490  0.5456 -0.2255
  336MOL0     H44304   6.226  -0.748   3.483 -1.7422  1.2146  1.4225
  336MOL0     H44305   6.066  -0.708   3.677 -1.9580  0.1258  1.1974
  336MOL0     H44306   5.825  -0.764   3.809  2.7435  0.2899 -0.4681
  336MOL0     H44307   5.830  -0.925   3.887  3.1983  0.5265 -0.0353
  336MOL0     H44308   5.691  -0.870   3.617 -0.3150 -3.0291 -0.4177
  336MOL0     H44309   5.618  -0.875   3.776 -3.2088 -1.5052 -2.4712
  336MOL0     H44310   5.722  -1.127   3.661 -2.7087 -0.6110 -0.8084
  336MOL0     H44311   5.657  -1.091   3.828 -0.2049  1.5549  0.5679
  336MOL0     H44312   5.453  -1.017   3.741  0.1425 -1.0992  0.9306
  336MOL0     H44313   5.502  -1.192   3.709 -1.2436 -0.3560  0.9667
  336MOL0     H44314   5.295  -1.193   3.656  0.1385 -0.3631 -0.2022
  336MOL0     H44315   5.086  -1.256   3.551 -2.1455  2.0230  0.5692
  336MOL0     H44316   4.720  -1.078   3.248 -0.4795  1.3314  1.2612
  336MOL0     H44317   4.508  -1.165   3.178 -0.2936  1.2876  1.2451
  336MOL0     H44318   4.404  -1.360   3.039 -1.5944 -2.4934 -2.3902
  336MOL0     H44319   4.302  -1.274   3.152 -1.1406  0.1342 -0.8389
  336MOL0     H44320   4.265  -1.566   3.057  0.3362 -0.1838 -0.3123
  336MOL0     H44321   4.181  -1.442   2.982 -1.1585 -1.1546 -0.1428
  336MOL0     H44322   4.086  -1.385   3.239  1.9426  0.8536 -1.5009
  336MOL0     H44323   4.151  -1.528   3.284  1.6933  3.4924  1.1223
  336MOL0     H44324   4.027  -1.654   3.103 -2.3969 -0.0990 -1.3809
  336MOL0     H44325   3.933  -1.585   3.242  0.1203  0.2329  0.3751
  336MOL0     H44326   3.939  -1.477   2.955 -0.3650 -2.8566 -1.2727
  336MOL0     H44327   3.837  -1.419   3.096 -0.8871  0.5983 -3.5210
  336MOL0     H44328   3.750  -1.666   3.120  1.4609 -0.8842  1.1853
  336MOL0     H44329   3.840  -1.702   2.974  0.1527 -1.0983  0.9119
  336MOL0     H44330   3.723  -1.555   2.846  0.7301 -2.0088  0.9034
  336MOL0     H44331   3.607  -1.657   2.947 -0.1809 -1.0440 -0.0390
  336MOL0     H44332   3.664  -1.353   2.983  1.0864 -0.4966 -0.1007
  336MOL0     H44333   3.600  -1.447   3.116  0.7658  2.0638  0.0704
  336MOL0     H44334   4.595  -1.542   3.346  1.2817 -0.9048 -1.6207
  336MOL0     H44335   4.814  -1.472   3.413  0.8668  0.7612  0.9169
  336MOL0     H44336   5.223  -1.056   3.188 -0.3049  1.0037  0.7534
  336MOL0     H44337   5.422  -0.987   3.316 -1.2536  2.1091  0.4964
  336MOL0     H44338   6.918  -0.073   3.384 -0.0374 -2.5249 -1.5345
  336MOL0     H44339   7.104   0.077   3.369 -0.6595  0.6388  0.8989
  336MOL0     H44340   7.528   0.067   3.314  0.7023 -0.5693  0.2531
  336MOL0     H44341   7.755   0.127   3.230  2.6872 -0.1287  0.4921
  336MOL0     H44342   8.099   0.140   3.479  0.3675  0.0434  1.1145
  336MOL0     H44343   8.051   0.309   3.491 -2.6299  0.2122  0.5895
  336MOL0     H44344   8.184   0.203   3.248 -2.6040 -0.2676  0.4478
  336MOL0     H44345   8.143   0.367   3.282 -0.5464 -1.2284 -2.7529
  336MOL0     H44346   8.351   0.190   3.437 -1.9752 -0.8095 -1.1542
  336MOL0     H44347   8.301   0.358   3.483 -1.2142  1.5437 -0.8864
  336MOL0     H44348   8.416   0.255   3.215 -3.1205 -0.4852 -0.1751
  336MOL0     H44349   8.360   0.418   3.231  0.0374 -1.1051 -1.9969
  336MOL0     H44350   8.731   0.436   3.444 -0.1127 -0.0362  0.6979
  336MOL0     H44351   7.892   0.234   3.615  0.4114 -1.9475 -0.2629
  336MOL0     H44352   7.675   0.178   3.706 -0.7391 -2.1265  0.2070
  337MOL0     O44353   6.881   3.204   7.772  0.1906 -0.1559 -0.0631
  337MOL0     C44354   6.905   3.300   7.856 -0.1061  0.2927  0.0956
  337MOL0     O44355   6.818   3.384   7.911 -0.6809 -0.4664 -0.6365
  337MOL0     C44356   6.699   3.415   7.855  0.2001 -0.7008  0.7047
  337MOL0     C44357   6.603   3.456   7.949 -0.2911  0.3810 -1.5367
  337MOL0     C44358   6.473   3.478   7.910  1.0365  0.0300  0.7490
  337MOL0     C44359   6.433   3.466   7.780  0.8317 -0.1182  0.9733
  337MOL0     O44360   6.299   3.469   7.741  0.6845 -0.6597 -0.1258
  337MOL0     C44361   6.200   3.500   7.838  0.0461  0.3775 -0.0512
  337MOL0     C44362   6.190   3.642   7.893 -0.3305 -0.1051  0.3891
  337MOL0     C44363   6.153   3.751   7.786  0.6734  0.1123  0.5218
  337MOL0     C44364   6.019   3.727   7.713  0.4714  0.1533  0.0285
  337MOL0     C44365   5.978   3.834   7.616  0.3618  0.0384 -0.2430
  337MOL0     C44366   5.830   3.824   7.575 -0.1455 -0.8753 -0.2803
  337MOL0     C44367   5.730   3.850   7.690 -0.3072  0.8291 -0.6384
  337MOL0     C44368   5.583   3.875   7.645 -0.6295  0.8443 -0.1465
  337MOL0     N44369   5.527   3.759   7.583 -0.4088  0.4086 -0.9404
  337MOL0     C44370   5.531   3.715   7.450  0.6184  0.2571  0.1146
  337MOL0     C44371   5.443   3.610   7.434  0.1139  0.3244 -0.9856
  337MOL0     C44372   5.391   3.557   7.297 -0.2775  0.1273  0.7130
  337MOL0     C44373   5.277   3.465   7.321  0.7479 -0.5039  0.1980
  337MOL0     C44374   5.225   3.405   7.180 -0.3108 -1.2540  0.2851
  337MOL0     C44375   5.093   3.339   7.200  0.2006  0.9530 -0.3979
  337MOL0     O44376   5.004   3.441   7.214  1.0272 -0.6466  0.2570
  337MOL0     C44377   4.878   3.444   7.150  0.1176 -0.0844 -0.3399
  337MOL0     C44378   4.797   3.546   7.176  0.4312 -0.5611 -0.9711
  337MOL0     C44379   4.673   3.577   7.112  0.1004  0.0612 -1.1137
  337MOL0     C44380   4.627   3.485   7.024 -0.7165 -0.6287  0.5624
  337MOL0     C44381   4.499   3.500   6.952  0.3287  0.1983 -0.1641
  337MOL0     O44382   4.405   3.584   7.002  0.0207 -0.2573 -0.4340
  337MOL0     C44383   4.288   3.594   6.925 -0.3013 -0.8493 -0.2805
  337MOL0     C44384   4.267   3.705   6.844  0.2082  1.1745 -0.3297
  337MOL0     C44385   4.150   3.704   6.757  0.0114 -1.0502  0.0624
  337MOL0     C44386   4.052   3.605   6.757 -0.6917 -0.4433  0.7222
  337MOL0     O44387   3.942   3.597   6.676  0.1031 -0.1708 -0.7590
  337MOL0     C44388   3.893   3.718   6.607 -0.0416  0.7935 -0.1709
  337MOL0     C44389   3.755   3.687   6.564 -0.0875  0.3977 -0.2223
  337MOL0     C44390   3.662   3.726   6.692  0.5780 -0.6776  0.3346
  337MOL0     C44391   3.512   3.714   6.661 -0.2803  1.0672  0.8085
  337MOL0     C44392   3.420   3.727   6.776  1.0567 -0.7483  0.4028
  337MOL0     C44393   3.288   3.656   6.746  0.3057 -0.1635 -0.4885
  337MOL0     C44394   3.187   3.670   6.866  0.7853 -0.6106  0.1187
  337MOL0     C44395   3.129   3.531   6.899 -0.0373 -0.4284  0.9729
  337MOL0    Cl44396   3.018   3.455   6.780 -0.4935  0.0538 -0.7213
  337MOL0     C44397   4.077   3.499   6.843  0.2295 -0.2740  0.3164
  337MOL0     C44398   4.192   3.493   6.927 -0.5848  0.6545 -0.0585
  337MOL0     O44399   4.479   3.415   6.868  0.3411  0.1841  0.1232
  337MOL0     C44400   4.704   3.377   7.000  0.2713 -0.4178 -0.8401
  337MOL0     C44401   4.826   3.360   7.061  0.4749  0.9094  0.0149
  337MOL0     N44402   5.398   3.586   7.562 -0.8767 -0.3606 -0.0594
  337MOL0     N44403   5.437   3.674   7.649  0.1939 -0.5961  0.5662
  337MOL0     C44404   6.523   3.433   7.678 -0.7060  0.6888  0.1194
  337MOL0     C44405   6.654   3.405   7.723 -0.3354  0.3291  1.3359
  337MOL0     C44406   7.051   3.308   7.915  0.3860 -0.4089 -0.0077
  337MOL0     C44407   7.087   3.416   8.003  1.0567 -0.1475  0.1914
  337MOL0     C44408   7.221   3.434   8.039 -0.3294  0.5480  0.1854
  337MOL0     C44409   7.317   3.345   7.991 -0.1868 -0.1442  0.2662
  337MOL0     O44410   7.451   3.350   8.021  0.1981  1.0373 -0.3846
  337MOL0     C44411   7.516   3.473   8.039 -0.2471  0.1699 -0.6478
  337MOL0     C44412   7.521   3.561   7.911  0.0802 -0.3888  0.1830
  337MOL0     C44413   7.629   3.511   7.811  0.1598  0.1715  0.1829
  337MOL0     C44414   7.650   3.610   7.704 -0.9646 -0.6227 -0.1772
  337MOL0     C44415   7.758   3.568   7.607 -0.1464 -0.3184  1.3990
  337MOL0     C44416   7.852   3.551   7.528 -0.2499  0.1637  0.3032
  337MOL0     C44417   7.278   3.228   7.927  0.3044 -0.4499 -0.6263
  337MOL0     C44418   7.137   3.202   7.894  0.0255 -0.0456  0.2840
  337MOL0     H44419   6.630   3.456   8.054  3.0127  1.8491 -2.2467
  337MOL0     H44420   6.407   3.489   7.995 -1.2106  1.6107 -1.0932
  337MOL0     H44421   6.220   3.429   7.920 -0.1604  2.2512  1.7069
  337MOL0     H44422   6.098   3.469   7.811  0.3104  0.5649 -1.3095
  337MOL0     H44423   6.294   3.667   7.920 -0.3310 -0.5972  0.8660
  337MOL0     H44424   6.125   3.642   7.980  0.0527  0.2178  0.6827
  337MOL0     H44425   6.224   3.741   7.704 -3.8720 -1.4350 -3.7799
  337MOL0     H44426   6.151   3.852   7.830 -2.1074  0.4762 -0.2325
  337MOL0     H44427   6.000   3.626   7.674  1.2961  0.0412 -0.1006
  337MOL0     H44428   5.948   3.725   7.797 -2.4831 -1.6377 -2.3130
  337MOL0     H44429   6.036   3.825   7.524  1.8048  0.8404  0.5515
  337MOL0     H44430   5.993   3.935   7.656 -0.0076  0.1758 -0.4420
  337MOL0     H44431   5.811   3.724   7.534  1.3323 -0.8916 -0.9746
  337MOL0     H44432   5.814   3.901   7.498 -2.0451 -0.3380  0.5838
  337MOL0     H44433   5.732   3.758   7.750  1.0058  1.2871  0.0535
  337MOL0     H44434   5.760   3.938   7.748 -1.2735  0.8797 -0.1874
  337MOL0     H44435   5.581   3.942   7.558  1.9081  1.1698 -0.0281
  337MOL0     H44436   5.537   3.927   7.730 -0.2793  0.4761  0.2685
  337MOL0     H44437   5.589   3.755   7.367 -1.6135  0.5402 -1.4082
  337MOL0     H44438   5.471   3.515   7.235  1.8693  2.4824  1.6712
  337MOL0     H44439   5.368   3.648   7.241  4.7893  1.2332 -0.1235
  337MOL0     H44440   5.205   3.532   7.369  0.5172  0.3075 -1.1974
  337MOL0     H44441   5.304   3.382   7.386 -1.3096 -2.2146 -0.9956
  337MOL0     H44442   5.200   3.482   7.106 -0.2863 -1.2732  0.2574
  337MOL0     H44443   5.297   3.336   7.137  1.4718 -0.1397  1.3561
  337MOL0     H44444   5.089   3.258   7.273 -1.6174 -0.2371 -1.7205
  337MOL0     H44445   5.059   3.282   7.112 -0.9724  4.4286 -2.3696
  337MOL0     H44446   4.831   3.603   7.262 -0.4045 -0.5067 -0.6669
  337MOL0     H44447   4.609   3.661   7.137  0.4917  0.0630 -0.1006
  337MOL0     H44448   4.332   3.791   6.844  0.8567  0.7104  0.8448
  337MOL0     H44449   4.135   3.795   6.700  4.0437  0.9253  1.7193
  337MOL0     H44450   3.949   3.733   6.515  1.7650 -1.2350  0.5313
  337MOL0     H44451   3.899   3.805   6.673  1.2656 -0.8525  1.9867
  337MOL0     H44452   3.755   3.584   6.527  3.0376  0.7871 -1.5861
  337MOL0     H44453   3.724   3.754   6.483  0.8584  2.4513  1.0271
  337MOL0     H44454   3.679   3.833   6.710  1.6756 -0.6672 -0.6577
  337MOL0     H44455   3.696   3.664   6.775 -0.6148 -1.5056  0.2282
  337MOL0     H44456   3.477   3.784   6.585 -0.6180  0.3110  0.2627
  337MOL0     H44457   3.491   3.618   6.614  0.2537  1.3218  0.0387
  337MOL0     H44458   3.408   3.836   6.782 -0.7826 -0.9482  1.0039
  337MOL0     H44459   3.467   3.694   6.869  0.6899 -0.1943  0.7939
  337MOL0     H44460   3.312   3.550   6.738 -0.8058 -1.0682  4.8254
  337MOL0     H44461   3.245   3.698   6.654 -1.3557 -1.1594 -0.1982
  337MOL0     H44462   3.225   3.717   6.957 -2.8120  1.6367  0.6932
  337MOL0     H44463   3.109   3.744   6.841 -0.7430 -1.9732  0.6738
  337MOL0     H44464   3.073   3.525   6.993  1.3553 -1.9336  1.7525
  337MOL0     H44465   3.212   3.466   6.927  2.1586  2.6055  2.0244
  337MOL0     H44466   3.996   3.428   6.856 -0.7248  0.9753  1.5511
  337MOL0     H44467   4.202   3.408   6.994  3.0169  0.6114 -0.4605
  337MOL0     H44468   4.680   3.306   6.922 -2.6901  0.2249 -0.6300
  337MOL0     H44469   4.887   3.279   7.021 -1.1489  0.8733 -2.6344
  337MOL0     H44470   6.478   3.435   7.580 -1.8822  1.0269  0.6547
  337MOL0     H44471   6.731   3.363   7.659  0.1447 -2.1385  3.3353
  337MOL0     H44472   7.009   3.481   8.041  1.7259  0.5898  0.3279
  337MOL0     H44473   7.257   3.528   8.081  0.9188  0.2189 -0.0939
  337MOL0     H44474   7.616   3.447   8.074 -1.6095 -2.1394  1.9877
  337MOL0     H44475   7.469   3.529   8.120 -1.0620 -1.4974  0.1021
  337MOL0     H44476   7.427   3.550   7.857  0.5314 -0.3491 -0.6219
  337MOL0     H44477   7.528   3.664   7.948 -0.5190  0.2427 -1.3698
  337MOL0     H44478   7.585   3.418   7.773 -0.6710  1.2198 -1.5446
  337MOL0     H44479   7.722   3.496   7.865 -0.6403  2.3234  2.3233
  337MOL0     H44480   7.556   3.621   7.650 -1.3802  0.6882  0.7673
  337MOL0     H44481   7.675   3.704   7.754 -1.8514 -0.6785  0.3831
  337MOL0     H44482   7.937   3.545   7.463 -0.9749 -0.9660 -0.5735
  337MOL0     H44483   7.349   3.148   7.909  1.0018 -0.3093  1.2634
  337MOL0     H44484   7.109   3.114   7.836 -1.3354 -0.4863  1.5439
  338MOL0     O44485   7.480   2.362   8.609  0.2316 -0.1685  0.1046
  338MOL0     C44486   7.426   2.272   8.669  0.5708  0.3423 -0.4274
  338MOL0     O44487   7.483   2.201   8.771 -0.4831  0.1834  0.4357
  338MOL0     C44488   7.613   2.215   8.776  0.3799  0.3346  0.1753
  338MOL0     C44489   7.678   2.313   8.849  0.0751 -0.2784  0.9969
  338MOL0     C44490   7.816   2.315   8.849 -0.2572 -0.0221 -0.2385
  338MOL0     C44491   7.899   2.222   8.773  0.4066  0.0861  0.5821
  338MOL0     O44492   8.034   2.218   8.788  0.0694 -0.0593 -0.6104
  338MOL0     C44493   8.101   2.324   8.863 -0.0491  0.2383  1.0745
  338MOL0     C44494   8.107   2.466   8.804 -0.5231 -0.2814  0.6555
  338MOL0     C44495   8.171   2.468   8.662  0.4901 -0.1149 -0.1080
  338MOL0     C44496   8.170   2.618   8.606  0.4201  0.0312 -0.2609
  338MOL0     C44497   8.244   2.638   8.480 -0.3653  0.1960  0.4765
  338MOL0     C44498   8.260   2.792   8.446  0.2774  0.6158  0.7515
  338MOL0     C44499   8.121   2.870   8.424  0.3612  0.8098  0.6854
  338MOL0     C44500   8.076   2.937   8.555 -0.5093  0.5291  0.2723
  338MOL0     N44501   7.980   3.041   8.523 -0.2367 -0.1485 -0.9319
  338MOL0     C44502   7.855   3.021   8.449 -0.8442 -0.0693 -0.3073
  338MOL0     C44503   7.775   3.121   8.500 -0.0353  0.0161 -0.2482
  338MOL0     C44504   7.620   3.130   8.476  0.0522  1.5214 -0.5244
  338MOL0     C44505   7.573   3.272   8.461 -0.6071 -0.7460  0.9420
  338MOL0     C44506   7.426   3.290   8.401 -0.3809 -0.4789 -0.6456
  338MOL0     C44507   7.301   3.272   8.498  0.3317 -0.1190  0.6872
  338MOL0     O44508   7.209   3.336   8.410  0.3522 -0.2970  0.0407
  338MOL0     C44509   7.090   3.377   8.472  0.1342 -0.6510 -0.3576
  338MOL0     C44510   7.008   3.452   8.392 -0.1097 -0.5163 -0.8372
  338MOL0     C44511   6.885   3.506   8.431  0.3408  0.5592  0.0159
  338MOL0     C44512   6.846   3.493   8.565  0.4921 -1.0528 -0.8988
  338MOL0     C44513   6.713   3.542   8.618 -0.3237  0.2467 -0.2572
  338MOL0     O44514   6.639   3.612   8.533 -0.5514 -1.0064 -0.3151
  338MOL0     C44515   6.531   3.688   8.574  0.3128  0.2831 -1.0478
  338MOL0     C44516   6.424   3.706   8.496 -1.0980  0.5597 -0.2500
  338MOL0     C44517   6.322   3.797   8.528 -0.6432  0.5153  0.2825
  338MOL0     C44518   6.317   3.872   8.649  0.2233  0.7152 -0.8520
  338MOL0     O44519   6.218   3.957   8.685  0.2389  0.0205  0.1282
  338MOL0     C44520   6.241   4.073   8.758  0.3745 -0.2622  0.6877
  338MOL0     C44521   6.129   4.167   8.731 -0.2186  0.0453  0.0709
  338MOL0     C44522   6.009   4.133   8.825 -0.2649 -0.8853 -0.5438
  338MOL0     C44523   5.899   4.230   8.789  1.3664  0.6554 -0.2772
  338MOL0     C44524   5.791   4.223   8.902  0.0906 -0.5570  0.0722
  338MOL0     C44525   5.719   4.095   8.911  0.3462 -0.2962  0.8747
  338MOL0     C44526   5.587   4.121   8.986 -0.2611  0.5311 -1.2158
  338MOL0     C44527   5.501   3.990   9.008 -0.0031 -0.1715  0.2810
  338MOL0    Cl44528   5.490   3.888   8.874  0.0880 -0.2839  0.0708
  338MOL0     C44529   6.420   3.831   8.736 -0.0961  0.2188 -0.5276
  338MOL0     C44530   6.522   3.744   8.701 -0.4975  0.6312 -0.5161
  338MOL0     O44531   6.679   3.517   8.731  0.5329  0.9987 -0.1101
  338MOL0     C44532   6.927   3.420   8.656 -0.5337  0.6318  0.3125
  338MOL0     C44533   7.051   3.369   8.606  0.3758 -0.2614  0.0186
  338MOL0     N44534   7.843   3.183   8.601 -1.2689 -0.5218 -0.0756
  338MOL0     N44535   7.967   3.141   8.612  0.0949  0.1314  0.1482
  338MOL0     C44536   7.830   2.115   8.707 -0.8542 -0.6184 -0.3009
  338MOL0     C44537   7.690   2.119   8.708 -0.2592 -0.9747 -0.0652
  338MOL0     C44538   7.285   2.241   8.630  0.4583 -0.4505 -0.8303
  338MOL0     C44539   7.207   2.148   8.701 -0.0571 -0.3768 -0.2728
  338MOL0     C44540   7.075   2.123   8.673  1.0555  0.1696  0.0560
  338MOL0     C44541   7.011   2.175   8.557 -0.4028 -1.0844 -0.0704
  338MOL0     O44542   6.880   2.148   8.523 -0.4773  0.3685  0.1166
  338MOL0     C44543   6.829   2.208   8.406  0.2590  0.1172 -0.2690
  338MOL0     C44544   6.685   2.159   8.391  0.2597 -0.0215 -0.3722
  338MOL0     C44545   6.595   2.214   8.283 -0.0933 -0.5576 -0.0972
  338MOL0     C44546   6.555   2.362   8.302  0.3110  0.7055 -0.5510
  338MOL0     C44547   6.448   2.386   8.213 -0.1467  0.0738 -0.1459
  338MOL0     C44548   6.351   2.418   8.151  0.4442 -0.5527  0.5163
  338MOL0     C44549   7.093   2.269   8.486  0.8282  0.5851  0.2475
  338MOL0     C44550   7.218   2.307   8.522 -0.4630 -0.2236 -0.7414
  338MOL0     H44551   7.635   2.392   8.910  1.5599 -0.0414  1.7768
  338MOL0     H44552   7.857   2.400   8.904 -1.0987 -1.2325  2.4668
  338MOL0     H44553   8.206   2.293   8.871  0.6749  1.5094 -1.9675
  338MOL0     H44554   8.055   2.335   8.961 -1.0979  0.1436  0.6005
  338MOL0     H44555   8.174   2.530   8.863  2.0472 -0.9191 -1.3442
  338MOL0     H44556   8.012   2.520   8.806 -1.1625 -1.3787  0.1884
  338MOL0     H44557   8.122   2.406   8.586  0.8135 -1.0514  0.4352
  338MOL0     H44558   8.277   2.450   8.678  0.7691  1.9544  0.6901
  338MOL0     H44559   8.067   2.654   8.597  0.4715 -0.1684 -1.9869
  338MOL0     H44560   8.221   2.679   8.681 -1.1511  0.1766  0.7418
  338MOL0     H44561   8.182   2.593   8.402 -1.0161  1.6142  0.1344
  338MOL0     H44562   8.345   2.597   8.475 -0.2735  0.4852 -0.0584
  338MOL0     H44563   8.315   2.787   8.352 -2.2222 -0.8245 -0.7651
  338MOL0     H44564   8.325   2.833   8.524  0.9111 -1.7361  1.5536
  338MOL0     H44565   8.131   2.951   8.351  0.4834 -0.3399 -0.6226
  338MOL0     H44566   8.042   2.804   8.385  0.1742 -0.6101  3.2063
  338MOL0     H44567   8.166   2.977   8.603  0.5810  1.2767 -2.2114
  338MOL0     H44568   8.027   2.861   8.616 -1.1991  1.2825  0.6655
  338MOL0     H44569   7.819   2.950   8.376 -2.7113  1.2410 -0.7435
  338MOL0     H44570   7.570   3.080   8.560  2.9000 -2.6533 -1.0119
  338MOL0     H44571   7.587   3.075   8.388 -3.3598  1.4537  0.6452
  338MOL0     H44572   7.656   3.303   8.397  2.4875 -3.1620  3.5036
  338MOL0     H44573   7.590   3.332   8.551 -0.3513 -0.2001  0.5380
  338MOL0     H44574   7.418   3.390   8.358  0.6038 -0.6790 -1.3052
  338MOL0     H44575   7.406   3.221   8.318 -2.2428 -0.2294 -0.4570
  338MOL0     H44576   7.301   3.320   8.596  0.1570 -0.1994  0.7263
  338MOL0     H44577   7.282   3.166   8.519 -1.9848 -0.1085 -0.9649
  338MOL0     H44578   7.022   3.463   8.285  1.5753 -1.7903 -0.7818
  338MOL0     H44579   6.830   3.573   8.366 -2.8084 -1.9670 -0.2015
  338MOL0     H44580   6.414   3.653   8.402 -0.7395 -0.0995  0.0751
  338MOL0     H44581   6.252   3.817   8.448  1.2540  1.3976 -1.2245
  338MOL0     H44582   6.339   4.110   8.725  0.0070  1.5725  1.5070
  338MOL0     H44583   6.257   4.042   8.862  4.0734 -3.2786 -0.5437
  338MOL0     H44584   6.107   4.161   8.624 -2.7961  1.4903  0.4422
  338MOL0     H44585   6.161   4.271   8.738  2.4545 -0.8257  2.4244
  338MOL0     H44586   6.039   4.155   8.927  2.5849 -1.5651 -1.1487
  338MOL0     H44587   5.982   4.027   8.814 -0.3291 -1.1661  1.8782
  338MOL0     H44588   5.931   4.334   8.780 -0.1095  1.3939  2.0785
  338MOL0     H44589   5.847   4.207   8.695  2.1165 -0.4349 -0.4363
  338MOL0     H44590   5.713   4.298   8.881  0.8267  0.5511  1.1666
  338MOL0     H44591   5.841   4.247   8.996  1.3082 -3.3602  0.2158
  338MOL0     H44592   5.774   4.017   8.964  1.8026  1.3565  1.8915
  338MOL0     H44593   5.707   4.066   8.806  2.2559  2.5052 -0.2181
  338MOL0     H44594   5.609   4.179   9.077 -0.0298  1.0830 -1.6212
  338MOL0     H44595   5.521   4.181   8.924 -3.4926 -0.8063  0.6977
  338MOL0     H44596   5.398   4.023   9.027 -0.0957  0.3254 -0.9668
  338MOL0     H44597   5.551   3.940   9.091 -1.8374 -2.0808  0.3235
  338MOL0     H44598   6.425   3.886   8.829  1.1268  1.5507 -1.3422
  338MOL0     H44599   6.589   3.718   8.783 -2.3495 -0.5327  0.7212
  338MOL0     H44600   6.911   3.416   8.763 -3.6580 -0.1762 -0.0905
  338MOL0     H44601   7.102   3.310   8.681 -1.0698  1.4974  2.5681
  338MOL0     H44602   7.884   2.037   8.654  1.9299  1.7315 -1.2310
  338MOL0     H44603   7.640   2.029   8.672 -2.6031  0.2575 -0.0888
  338MOL0     H44604   7.247   2.097   8.788  0.6199  2.3447  1.1128
  338MOL0     H44605   7.006   2.058   8.726  0.7370  0.2139 -0.2931
  338MOL0     H44606   6.876   2.171   8.314 -2.2916  2.5419 -2.7811
  338MOL0     H44607   6.844   2.317   8.406  4.7102 -0.3002 -1.7574
  338MOL0     H44608   6.697   2.053   8.366  1.3832  0.0781 -0.3081
  338MOL0     H44609   6.637   2.151   8.489 -0.2567  0.2620 -0.5991
  338MOL0     H44610   6.502   2.157   8.280  0.4602 -1.7948  2.8900
  338MOL0     H44611   6.659   2.205   8.194  0.9532  2.0102  0.3015
  338MOL0     H44612   6.525   2.383   8.405  3.8827 -0.1360  0.7939
  338MOL0     H44613   6.640   2.424   8.274  0.8462  0.8502  1.2453
  338MOL0     H44614   6.258   2.438   8.102  1.6899  1.9079 -1.0765
  338MOL0     H44615   7.056   2.308   8.391  2.8738 -1.2078 -1.3949
  338MOL0     H44616   7.276   2.388   8.478 -0.8001  1.0634  1.1056
  339MOL0     O44617   6.107   7.543   1.261  0.1218 -0.1468  0.1068
  339MOL0     C44618   6.024   7.470   1.318 -0.2129  0.3241  0.5020
  339MOL0     O44619   6.051   7.357   1.380  0.1240  0.4854 -0.3009
  339MOL0     C44620   6.168   7.294   1.375  0.6087  0.3800  1.8421
  339MOL0     C44621   6.229   7.262   1.247 -0.7125  0.1258  0.8591
  339MOL0     C44622   6.353   7.192   1.237  0.4914 -0.0937 -0.2062
  339MOL0     C44623   6.396   7.142   1.361 -1.5222  1.3402  0.0769
  339MOL0     O44624   6.518   7.077   1.378  0.2329  0.8033  0.3217
  339MOL0     C44625   6.611   7.078   1.273 -0.5566 -0.2423 -0.3978
  339MOL0     C44626   6.732   7.012   1.334 -0.4805 -0.3639 -0.3308
  339MOL0     C44627   6.841   6.998   1.222  0.1225 -0.5920  0.7388
  339MOL0     C44628   6.977   6.956   1.274 -0.0171 -0.1821 -0.6021
  339MOL0     C44629   6.980   6.822   1.344  0.4404  0.2957  0.0885
  339MOL0     C44630   6.915   6.700   1.263  0.4695 -0.7624 -0.3831
  339MOL0     C44631   6.923   6.560   1.324  0.0214 -0.3443 -0.3375
  339MOL0     C44632   6.797   6.471   1.303 -0.9378 -0.5686  0.0933
  339MOL0     N44633   6.663   6.535   1.330  1.0837  0.5656 -0.2473
  339MOL0     C44634   6.624   6.621   1.433 -0.6632 -0.4326 -0.5136
  339MOL0     C44635   6.487   6.633   1.440 -0.8117 -1.3034  0.1568
  339MOL0     C44636   6.417   6.724   1.531 -0.2301 -0.6713  0.1659
  339MOL0     C44637   6.314   6.798   1.446  0.5177  0.0362  0.1437
  339MOL0     C44638   6.211   6.858   1.532 -0.0557  0.5064  0.2595
  339MOL0     C44639   6.094   6.914   1.453 -0.2394 -0.9425  0.8501
  339MOL0     O44640   5.997   6.969   1.538  0.6197  0.2965  0.4058
  339MOL0     C44641   5.877   7.011   1.482  0.2776 -0.3918 -0.8645
  339MOL0     C44642   5.805   7.089   1.569  0.2487  0.8254 -0.9417
  339MOL0     C44643   5.675   7.138   1.539 -0.0133  0.0952  1.3120
  339MOL0     C44644   5.615   7.115   1.414 -0.0947  0.2591  0.0119
  339MOL0     C44645   5.482   7.149   1.377  0.4122 -0.9286 -0.7694
  339MOL0     O44646   5.409   7.210   1.466  0.0017 -0.6770 -0.7871
  339MOL0     C44647   5.281   7.247   1.440 -0.0201 -0.2748  0.4879
  339MOL0     C44648   5.179   7.157   1.455  0.8202  0.6207  0.1933
  339MOL0     C44649   5.047   7.184   1.418  0.7842  0.3033 -0.9946
  339MOL0     C44650   5.017   7.311   1.358 -0.0389 -0.4456 -1.2178
  339MOL0     O44651   4.894   7.360   1.323 -0.2392 -0.1728 -0.0385
  339MOL0     C44652   4.831   7.282   1.218  0.0016 -0.3944  0.3054
  339MOL0     C44653   4.689   7.334   1.207 -0.5075 -0.6830 -0.7101
  339MOL0     C44654   4.609   7.295   1.332 -0.2676  0.0294  0.2301
  339MOL0     C44655   4.470   7.371   1.318  0.2290 -0.1836 -0.6093
  339MOL0     C44656   4.387   7.325   1.439 -0.3277  0.5173  0.0575
  339MOL0     C44657   4.449   7.386   1.563 -0.2939  1.1895 -0.8051
  339MOL0     C44658   4.348   7.390   1.686 -0.1773 -0.1277 -0.3505
  339MOL0     C44659   4.413   7.457   1.815 -0.2246 -0.1224  0.1294
  339MOL0    Cl44660   4.452   7.638   1.784  0.1418  0.2889 -0.1862
  339MOL0     C44661   5.119   7.406   1.351  0.1107 -1.0100 -0.9025
  339MOL0     C44662   5.248   7.371   1.389  0.1389  0.1032  0.2884
  339MOL0     O44663   5.444   7.125   1.262 -0.1447 -1.0516  0.4756
  339MOL0     C44664   5.699   7.047   1.319 -0.6617  1.2701 -0.9439
  339MOL0     C44665   5.827   6.993   1.354 -0.5624 -0.2130  0.7554
  339MOL0     N44666   6.451   6.545   1.341 -0.2251  0.0906  0.7269
  339MOL0     N44667   6.550   6.479   1.285 -0.0635  0.2206  0.2111
  339MOL0     C44668   6.338   7.166   1.487  0.0381  0.2277 -0.2994
  339MOL0     C44669   6.220   7.246   1.489  0.1524 -0.1600 -0.4959
  339MOL0     C44670   5.881   7.522   1.330 -1.1520  0.2174  0.2759
  339MOL0     C44671   5.771   7.434   1.350  0.6540  0.4286  0.7849
  339MOL0     C44672   5.643   7.494   1.343 -0.1858  0.5440  0.6033
  339MOL0     C44673   5.623   7.626   1.315 -0.8249 -1.0584 -0.6292
  339MOL0     O44674   5.493   7.668   1.316  0.0717  0.3445  0.0327
  339MOL0     C44675   5.451   7.800   1.288  0.3610  0.1875 -1.1008
  339MOL0     C44676   5.376   7.802   1.164 -0.5263 -0.5371  0.0187
  339MOL0     C44677   5.250   7.720   1.161  0.0022 -0.3365 -0.7082
  339MOL0     C44678   5.169   7.737   1.033 -0.6250 -0.1531 -0.3001
  339MOL0     C44679   5.060   7.635   1.021 -0.7936 -1.4365  0.3926
  339MOL0     C44680   4.966   7.561   1.001  0.2484 -0.4976  0.1963
  339MOL0     C44681   5.740   7.712   1.311  0.0412  0.4565  0.3232
  339MOL0     C44682   5.866   7.657   1.314 -0.1390 -0.7767 -0.5861
  339MOL0     H44683   6.173   7.310   1.168 -0.6993  1.4818  1.6285
  339MOL0     H44684   6.407   7.168   1.147  1.6881 -1.7003  0.8732
  339MOL0     H44685   6.635   7.181   1.244  3.5327 -0.3180  2.0207
  339MOL0     H44686   6.574   7.006   1.199 -0.3295 -3.8099  2.6808
  339MOL0     H44687   6.705   6.913   1.371  1.5184 -0.5651  0.7730
  339MOL0     H44688   6.780   7.062   1.419 -0.6335 -0.3348 -0.2631
  339MOL0     H44689   6.852   7.097   1.176 -0.5088 -0.7014  0.3341
  339MOL0     H44690   6.805   6.939   1.138 -1.2735  0.7362  0.3622
  339MOL0     H44691   7.039   6.960   1.184  2.1774 -1.1725  0.7884
  339MOL0     H44692   7.006   7.032   1.348 -1.6143 -1.6709  1.6882
  339MOL0     H44693   6.934   6.810   1.443 -1.4282  0.2705 -0.7516
  339MOL0     H44694   7.085   6.792   1.347 -0.3097 -2.6084  0.8474
  339MOL0     H44695   6.962   6.685   1.165  3.1365  1.2134  0.4582
  339MOL0     H44696   6.811   6.727   1.243  0.0491 -2.1390 -0.1148
  339MOL0     H44697   7.018   6.513   1.296  0.5007  0.5816 -0.3167
  339MOL0     H44698   6.923   6.577   1.433  1.3056  1.1525 -0.5262
  339MOL0     H44699   6.805   6.380   1.364 -0.3835 -1.6074 -1.4766
  339MOL0     H44700   6.791   6.432   1.201  0.0247 -2.7046  0.7925
  339MOL0     H44701   6.693   6.683   1.490  0.7108  1.5789 -4.0388
  339MOL0     H44702   6.496   6.785   1.577 -1.0005 -1.2747  2.3989
  339MOL0     H44703   6.372   6.665   1.611 -1.3463  1.8180  1.4991
  339MOL0     H44704   6.264   6.717   1.392 -2.2050  0.7203  1.4687
  339MOL0     H44705   6.363   6.869   1.379 -0.7448  2.2966  1.4882
  339MOL0     H44706   6.165   6.776   1.587  0.6497 -1.4854 -1.9514
  339MOL0     H44707   6.256   6.932   1.599 -0.6117 -0.3633  1.6247
  339MOL0     H44708   6.041   6.837   1.396 -0.8306  0.5916 -0.7831
  339MOL0     H44709   6.127   6.989   1.380  3.8526 -1.1652  2.2487
  339MOL0     H44710   5.861   7.110   1.660 -0.9806  0.0589  0.0223
  339MOL0     H44711   5.610   7.195   1.605 -1.2892  0.2032  0.0059
  339MOL0     H44712   5.204   7.060   1.497 -0.6436 -0.2645 -0.8885
  339MOL0     H44713   4.963   7.116   1.424  1.1031 -0.0861 -0.8756
  339MOL0     H44714   4.840   7.176   1.242 -1.7682 -0.4548  0.8799
  339MOL0     H44715   4.882   7.302   1.123 -0.4105 -1.6655 -0.2054
  339MOL0     H44716   4.642   7.314   1.110  0.7758  0.7336 -1.6901
  339MOL0     H44717   4.700   7.443   1.202 -0.1402 -0.7470 -1.5838
  339MOL0     H44718   4.668   7.338   1.414  0.7333  0.7451 -0.8398
  339MOL0     H44719   4.591   7.188   1.344  3.5767 -1.0136 -1.5049
  339MOL0     H44720   4.490   7.478   1.319 -0.1556 -0.0908 -1.5404
  339MOL0     H44721   4.408   7.346   1.231 -1.7382 -0.9388  0.9152
  339MOL0     H44722   4.399   7.217   1.454 -0.3673  0.6053  0.7516
  339MOL0     H44723   4.282   7.354   1.433 -0.4491  0.0203 -0.3277
  339MOL0     H44724   4.504   7.478   1.543  2.3409 -0.1335 -0.0454
  339MOL0     H44725   4.525   7.318   1.601 -0.8889  3.1230  4.8672
  339MOL0     H44726   4.272   7.463   1.655  1.4164  0.9109 -1.9811
  339MOL0     H44727   4.298   7.295   1.707 -1.4869  0.4926 -0.5429
  339MOL0     H44728   4.500   7.402   1.852 -0.0835  1.3499  2.1664
  339MOL0     H44729   4.337   7.445   1.893 -0.2597  0.1316  0.1330
  339MOL0     H44730   5.100   7.507   1.317  0.9226  0.0536  1.5174
  339MOL0     H44731   5.327   7.446   1.383  1.3656 -1.2270 -4.3182
  339MOL0     H44732   5.677   7.031   1.214  4.8926 -0.7470 -2.1700
  339MOL0     H44733   5.882   6.935   1.281 -1.3843  0.7853 -0.7080
  339MOL0     H44734   6.394   7.134   1.574 -2.4663 -3.7715  0.1009
  339MOL0     H44735   6.174   7.260   1.586 -0.6408  2.0050 -1.1326
  339MOL0     H44736   5.767   7.327   1.367 -1.9748  0.4059  0.4059
  339MOL0     H44737   5.558   7.432   1.370 -0.5160  1.0698  0.7692
  339MOL0     H44738   5.537   7.868   1.284 -0.5756  1.6262  1.1887
  339MOL0     H44739   5.384   7.835   1.368  0.1900 -2.2326 -0.1062
  339MOL0     H44740   5.355   7.908   1.150 -0.2993 -0.2383  1.7255
  339MOL0     H44741   5.448   7.765   1.089 -1.2939 -0.7060 -0.6481
  339MOL0     H44742   5.184   7.740   1.246 -0.7269 -0.6544 -1.1872
  339MOL0     H44743   5.275   7.615   1.172  2.5136  0.0717 -1.8211
  339MOL0     H44744   5.116   7.832   1.031 -0.7878 -0.2553 -1.6375
  339MOL0     H44745   5.234   7.729   0.945  1.6750 -2.6530  1.4351
  339MOL0     H44746   4.870   7.517   0.986 -0.2687  0.3747  0.8351
  339MOL0     H44747   5.737   7.820   1.323  2.5052  0.5326  0.7277
  339MOL0     H44748   5.945   7.732   1.325 -2.2886  1.8135 -1.6574
  340MOL0     O44749   0.244   0.546   1.675 -0.3799  0.3981 -0.7586
  340MOL0     C44750   0.294   0.636   1.604  0.4443 -0.2395 -0.5913
  340MOL0     O44751   0.215   0.730   1.538 -0.2134  0.1954 -0.1085
  340MOL0     C44752   0.077   0.719   1.542  0.3757  0.0724  0.2093
  340MOL0     C44753   0.006   0.746   1.658 -0.4922  0.3498  0.3582
  340MOL0     C44754  -0.129   0.733   1.663  1.6201  0.3127 -0.3904
  340MOL0     C44755  -0.202   0.712   1.546 -0.6727 -0.0822 -0.2257
  340MOL0     O44756  -0.337   0.709   1.537  0.1198  0.1870 -0.3701
  340MOL0     C44757  -0.417   0.719   1.653  0.2881  0.6271  0.1594
  340MOL0     C44758  -0.443   0.589   1.741 -0.9758 -0.6122  0.0105
  340MOL0     C44759  -0.568   0.514   1.673  0.0937 -0.2500  0.3069
  340MOL0     C44760  -0.628   0.407   1.761  0.4840  0.5183 -0.2273
  340MOL0     C44761  -0.686   0.441   1.900 -0.6886 -0.8647 -0.0481
  340MOL0     C44762  -0.816   0.524   1.883  0.6476 -0.4259  0.1211
  340MOL0     C44763  -0.924   0.514   1.992 -0.0801 -0.2177  0.3103
  340MOL0     C44764  -1.021   0.397   1.984  0.8088 -0.1457 -0.9205
  340MOL0     N44765  -1.142   0.438   1.916 -0.0323  0.6990 -0.2337
  340MOL0     C44766  -1.177   0.408   1.779 -0.3872  0.2984 -0.6312
  340MOL0     C44767  -1.301   0.440   1.755  0.4920  0.2301  0.0287
  340MOL0     C44768  -1.380   0.411   1.623 -0.1733 -0.2785 -0.9643
  340MOL0     C44769  -1.527   0.448   1.644  1.0918  0.8785  0.4856
  340MOL0     C44770  -1.610   0.402   1.521 -0.1751  0.6517 -0.0281
  340MOL0     C44771  -1.755   0.459   1.533  0.4877  0.4007 -0.6476
  340MOL0     O44772  -1.837   0.392   1.437  0.1828 -0.1852 -0.8228
  340MOL0     C44773  -1.968   0.432   1.431  0.1499  0.2445  0.4364
  340MOL0     C44774  -2.062   0.334   1.399  0.2357  0.2793 -0.5291
  340MOL0     C44775  -2.198   0.359   1.372  0.1694 -0.3995  0.2437
  340MOL0     C44776  -2.243   0.496   1.398 -0.0508 -0.5013 -0.2672
  340MOL0     C44777  -2.382   0.536   1.389  0.3365 -1.1101 -0.9536
  340MOL0     O44778  -2.463   0.434   1.348  0.4262 -0.5807  0.3008
  340MOL0     C44779  -2.605   0.443   1.357  0.8941  0.3942 -0.5066
  340MOL0     C44780  -2.673   0.362   1.271  0.5610 -0.7684  0.1527
  340MOL0     C44781  -2.811   0.350   1.284  0.2063 -0.3347 -0.0721
  340MOL0     C44782  -2.877   0.426   1.374 -0.8692  0.4503 -0.2945
  340MOL0     O44783  -3.014   0.424   1.373  0.5062  0.0669  0.1064
  340MOL0     C44784  -3.086   0.532   1.436 -0.1143  0.4508  0.2952
  340MOL0     C44785  -3.221   0.546   1.369 -0.4720 -0.5615  1.0794
  340MOL0     C44786  -3.330   0.464   1.429  0.7434 -0.4432 -0.3241
  340MOL0     C44787  -3.463   0.518   1.363 -0.6202 -0.2393 -0.3901
  340MOL0     C44788  -3.572   0.430   1.430 -0.0239 -0.7792  0.5625
  340MOL0     C44789  -3.604   0.475   1.573  0.1213 -0.3788  0.2059
  340MOL0     C44790  -3.742   0.431   1.618 -0.6738  0.6335 -0.9809
  340MOL0     C44791  -3.800   0.486   1.753  0.5080  0.5324 -0.2624
  340MOL0    Cl44792  -3.840   0.660   1.748  0.3158 -0.3663 -0.2127
  340MOL0     C44793  -2.806   0.493   1.475  0.3794 -0.5213 -0.2461
  340MOL0     C44794  -2.666   0.510   1.465 -0.1597  0.3962  0.2266
  340MOL0     O44795  -2.416   0.652   1.427 -0.0925  0.2221  0.7220
  340MOL0     C44796  -2.156   0.583   1.443 -0.2515 -0.4639  0.6912
  340MOL0     C44797  -2.015   0.555   1.461  0.4483 -0.8975 -0.3658
  340MOL0     N44798  -1.354   0.485   1.876 -0.4581 -0.4862 -0.0950
  340MOL0     N44799  -1.263   0.471   1.962 -0.0624 -0.6725  0.8943
  340MOL0     C44800  -0.136   0.699   1.426  0.5635  1.1181  0.7743
  340MOL0     C44801   0.007   0.703   1.418 -0.2331  0.1006  0.3682
  340MOL0     C44802   0.434   0.619   1.565 -0.8303 -0.7013 -0.6055
  340MOL0     C44803   0.489   0.685   1.459 -0.4193  0.7469 -0.0247
  340MOL0     C44804   0.621   0.673   1.427 -0.2728 -0.0031 -0.8154
  340MOL0     C44805   0.704   0.585   1.493  0.4018  0.2209 -0.4750
  340MOL0     O44806   0.823   0.547   1.440  0.0898  0.4102 -0.1341
  340MOL0     C44807   0.903   0.651   1.368  0.6065 -0.8070 -0.8629
  340MOL0     C44808   1.039   0.618   1.417 -0.2051 -0.5093 -0.3933
  340MOL0     C44809   1.062   0.645   1.568  0.3354 -0.4561  0.0871
  340MOL0     C44810   1.156   0.760   1.596  0.1471 -0.5000  0.2696
  340MOL0     C44811   1.294   0.740   1.559 -0.4066  0.1918 -0.3507
  340MOL0     C44812   1.404   0.721   1.528 -0.0621  0.5687  1.0896
  340MOL0     C44813   0.653   0.513   1.596  0.7950 -0.1663 -0.3863
  340MOL0     C44814   0.520   0.535   1.640 -0.2628  1.0831 -0.9149
  340MOL0     H44815   0.066   0.760   1.747  0.0958 -1.2301  0.2416
  340MOL0     H44816  -0.184   0.732   1.756  0.8369 -1.7169 -0.8170
  340MOL0     H44817  -0.513   0.759   1.617  0.5971  0.3257 -1.0229
  340MOL0     H44818  -0.378   0.795   1.721 -2.7806  2.1743  0.3973
  340MOL0     H44819  -0.464   0.627   1.841  1.8792  0.2547  0.3653
  340MOL0     H44820  -0.357   0.522   1.747  0.2676  0.6121 -2.6078
  340MOL0     H44821  -0.536   0.470   1.578 -1.4873 -0.1357 -0.3139
  340MOL0     H44822  -0.649   0.585   1.657  0.6271  0.5910  1.2164
  340MOL0     H44823  -0.706   0.354   1.706 -0.3962  3.0166 -1.5433
  340MOL0     H44824  -0.556   0.328   1.784 -1.9648 -1.8118 -0.0597
  340MOL0     H44825  -0.610   0.482   1.966 -0.5808 -0.9048 -0.1481
  340MOL0     H44826  -0.707   0.350   1.957  0.2095 -1.4053 -0.5676
  340MOL0     H44827  -0.867   0.510   1.787 -0.9173 -1.4070  1.0503
  340MOL0     H44828  -0.783   0.629   1.880  2.0860 -0.8603 -0.1617
  340MOL0     H44829  -0.862   0.506   2.082  1.4016  1.4811 -0.4952
  340MOL0     H44830  -0.978   0.609   1.991 -0.8844 -0.6765 -0.1256
  340MOL0     H44831  -1.052   0.363   2.083 -0.1361  1.0303 -0.7868
  340MOL0     H44832  -0.974   0.306   1.945 -1.1296 -1.8460  0.4902
  340MOL0     H44833  -1.110   0.367   1.704 -1.2997 -1.4285 -0.5612
  340MOL0     H44834  -1.360   0.308   1.595 -2.8506 -0.2260 -3.6142
  340MOL0     H44835  -1.344   0.469   1.537 -1.0674 -0.8276 -1.7301
  340MOL0     H44836  -1.551   0.554   1.631 -4.2690  0.0752  1.2751
  340MOL0     H44837  -1.580   0.400   1.727 -0.1820 -2.3091 -1.9760
  340MOL0     H44838  -1.574   0.428   1.421  0.3050 -0.0494 -0.0408
  340MOL0     H44839  -1.619   0.294   1.507 -0.6647  0.3772  1.9900
  340MOL0     H44840  -1.744   0.568   1.530  0.8691  0.7229  4.0831
  340MOL0     H44841  -1.796   0.430   1.630 -0.2523 -0.0035 -1.0713
  340MOL0     H44842  -2.026   0.236   1.368 -1.7334 -0.5208 -0.4140
  340MOL0     H44843  -2.269   0.281   1.347 -0.3335  0.0155  0.3542
  340MOL0     H44844  -2.621   0.294   1.204 -1.3180  0.1018 -2.3835
  340MOL0     H44845  -2.868   0.281   1.222  1.4576 -0.4454 -1.1395
  340MOL0     H44846  -3.035   0.627   1.416  0.3154 -0.1134 -1.4922
  340MOL0     H44847  -3.081   0.520   1.544 -1.3356  0.8205  0.4068
  340MOL0     H44848  -3.221   0.515   1.264  0.5113  1.2875  0.4877
  340MOL0     H44849  -3.252   0.651   1.372  0.3322 -0.3307  1.9464
  340MOL0     H44850  -3.323   0.482   1.537  2.0471  0.7485 -0.5874
  340MOL0     H44851  -3.300   0.360   1.416  2.0577 -0.2851  1.1803
  340MOL0     H44852  -3.470   0.626   1.376  1.7111  0.1144 -1.5575
  340MOL0     H44853  -3.474   0.498   1.256 -2.4362 -1.4368 -0.0250
  340MOL0     H44854  -3.545   0.325   1.416  2.4627  0.0530 -1.6080
  340MOL0     H44855  -3.669   0.448   1.382 -0.4013  0.0163  1.5722
  340MOL0     H44856  -3.597   0.584   1.578 -2.4838 -0.1475  0.8058
  340MOL0     H44857  -3.536   0.425   1.643 -0.4465 -1.8717 -0.2539
  340MOL0     H44858  -3.823   0.441   1.545 -0.2139 -0.2226 -1.6313
  340MOL0     H44859  -3.721   0.324   1.630 -0.6047  0.3512 -3.2273
  340MOL0     H44860  -3.726   0.472   1.832 -0.1908 -1.0696  0.1608
  340MOL0     H44861  -3.896   0.436   1.772 -0.1798  2.3033  1.2406
  340MOL0     H44862  -2.856   0.556   1.548 -2.8793 -0.3087 -2.4695
  340MOL0     H44863  -2.617   0.575   1.537 -0.9496  2.2595 -0.8348
  340MOL0     H44864  -2.181   0.687   1.461 -2.1534 -0.6691 -0.6088
  340MOL0     H44865  -1.957   0.634   1.510  1.3169 -0.2865 -2.2824
  340MOL0     H44866  -0.198   0.692   1.338 -1.8686 -0.5975  2.4862
  340MOL0     H44867   0.071   0.705   1.330 -0.7190  0.0450  0.0020
  340MOL0     H44868   0.431   0.754   1.398  2.0751  2.0824 -0.9899
  340MOL0     H44869   0.650   0.732   1.341  0.0303  0.0183 -0.7014
  340MOL0     H44870   0.876   0.755   1.390 -1.0712 -1.2109 -0.8107
  340MOL0     H44871   0.884   0.631   1.262 -1.4018 -0.8278 -0.5509
  340MOL0     H44872   1.065   0.513   1.398 -1.7999 -1.5629  2.5478
  340MOL0     H44873   1.100   0.686   1.358  1.2921  1.3073  2.9368
  340MOL0     H44874   1.115   0.556   1.604 -0.6222 -1.4083 -0.7947
  340MOL0     H44875   0.972   0.661   1.628  1.1746  0.5437  1.1144
  340MOL0     H44876   1.117   0.852   1.551  0.3460 -0.7787 -0.4924
  340MOL0     H44877   1.153   0.769   1.705 -1.7295 -1.4121  0.3217
  340MOL0     H44878   1.509   0.706   1.508  0.7059 -1.3904  5.4622
  340MOL0     H44879   0.720   0.458   1.662 -1.3464  0.5677  2.6250
  340MOL0     H44880   0.476   0.483   1.724 -0.3373  2.6119  0.0264
  341MOL0     O44881   1.930   0.422   8.084  0.2978  0.1808 -0.1009
  341MOL0     C44882   2.041   0.445   8.133 -0.0999 -0.3940 -0.0846
  341MOL0     O44883   2.062   0.513   8.250 -0.3569  0.0371 -0.1212
  341MOL0     C44884   1.949   0.570   8.296 -0.1388  0.1675 -0.8384
  341MOL0     C44885   1.873   0.493   8.387  0.0411  0.4437 -0.0771
  341MOL0     C44886   1.767   0.552   8.450  0.4684  0.6623  0.3441
  341MOL0     C44887   1.726   0.686   8.410  0.2610  0.7478 -0.0243
  341MOL0     O44888   1.615   0.749   8.457  0.3554 -0.1741 -0.1039
  341MOL0     C44889   1.595   0.730   8.605 -0.1209  0.6655  0.6040
  341MOL0     C44890   1.482   0.823   8.640  0.7367  0.5337  0.3824
  341MOL0     C44891   1.343   0.781   8.598  1.0576 -0.3562 -0.7333
  341MOL0     C44892   1.242   0.900   8.630 -0.0724 -0.7942  0.0670
  341MOL0     C44893   1.090   0.866   8.637 -0.0087  0.7345 -0.2401
  341MOL0     C44894   1.032   0.821   8.503  0.6161 -0.8453  0.5038
  341MOL0     C44895   0.883   0.802   8.495 -0.5944 -0.1441 -0.2083
  341MOL0     C44896   0.803   0.935   8.485 -1.2509 -0.3383  0.0045
  341MOL0     N44897   0.677   0.900   8.431  0.5694 -0.1483 -0.6692
  341MOL0     C44898   0.556   0.911   8.501 -0.1723  1.0312  0.1627
  341MOL0     C44899   0.466   0.868   8.412  0.4736  0.3891 -0.0579
  341MOL0     C44900   0.312   0.899   8.438  0.5809  0.8777  0.4435
  341MOL0     C44901   0.216   0.798   8.367 -0.7448 -0.0817 -0.1820
  341MOL0     C44902   0.070   0.862   8.367 -0.1196 -0.1465 -0.3124
  341MOL0     C44903  -0.042   0.775   8.311  0.0860 -0.0156 -0.5407
  341MOL0     O44904  -0.087   0.681   8.415  0.5612  0.5300 -0.1212
  341MOL0     C44905  -0.205   0.614   8.391 -0.4298 -0.0717 -0.5194
  341MOL0     C44906  -0.283   0.624   8.280  0.1508 -0.5335 -0.0280
  341MOL0     C44907  -0.406   0.565   8.278  0.2337 -0.0739  0.8868
  341MOL0     C44908  -0.462   0.497   8.388 -0.4010  0.6228  0.0258
  341MOL0     C44909  -0.593   0.443   8.387  0.2517  0.5375 -0.5539
  341MOL0     O44910  -0.672   0.467   8.271  0.1700 -0.1735 -0.1218
  341MOL0     C44911  -0.802   0.412   8.268 -0.3287  0.3475  0.3335
  341MOL0     C44912  -0.849   0.348   8.154 -0.1757 -0.7891  0.1744
  341MOL0     C44913  -0.977   0.319   8.137  0.9961 -0.2039  0.3219
  341MOL0     C44914  -1.073   0.351   8.233 -0.3184 -0.2964 -0.2065
  341MOL0     O44915  -1.211   0.332   8.203 -0.6310  0.4113 -0.4643
  341MOL0     C44916  -1.305   0.429   8.254  0.4166 -0.9636  0.0542
  341MOL0     C44917  -1.452   0.374   8.241 -0.2961  0.0514  0.6039
  341MOL0     C44918  -1.568   0.469   8.285  0.1232 -0.0423 -0.2342
  341MOL0     C44919  -1.709   0.417   8.239 -0.0491 -0.2028  0.2099
  341MOL0     C44920  -1.819   0.528   8.229  0.3668 -0.9662  0.1167
  341MOL0     C44921  -1.880   0.569   8.358 -0.4185  0.0181  0.0749
  341MOL0     C44922  -1.999   0.676   8.340 -0.8811  0.4069  0.9973
  341MOL0     C44923  -1.997   0.804   8.430  0.4019 -0.4237 -0.2650
  341MOL0    Cl44924  -1.839   0.876   8.483 -0.1671  0.4821  0.6678
  341MOL0     C44925  -1.025   0.422   8.350 -0.0990 -0.0167 -0.0453
  341MOL0     C44926  -0.896   0.447   8.381  0.0068 -0.4959  0.3521
  341MOL0     O44927  -0.634   0.395   8.496 -0.1888  0.2356 -0.6036
  341MOL0     C44928  -0.376   0.484   8.503 -0.4876  0.6111 -0.1886
  341MOL0     C44929  -0.248   0.546   8.508 -0.1545 -0.4487  0.2385
  341MOL0     N44930   0.525   0.823   8.289 -0.8021 -0.2174 -0.0507
  341MOL0     N44931   0.648   0.851   8.308 -0.1914 -0.6134  0.1030
  341MOL0     C44932   1.796   0.750   8.308 -0.5742 -0.8639  0.0784
  341MOL0     C44933   1.914   0.700   8.256  1.2015 -0.2102 -0.6160
  341MOL0     C44934   2.159   0.395   8.052  0.3623 -0.9688  0.0611
  341MOL0     C44935   2.285   0.420   8.095 -0.9307 -0.2979 -0.0961
  341MOL0     C44936   2.394   0.394   8.012 -0.8561  0.3565 -0.6785
  341MOL0     C44937   2.382   0.324   7.894  0.9542  0.4293 -0.3741
  341MOL0     O44938   2.482   0.285   7.803  0.3207  0.9935  0.0890
  341MOL0     C44939   2.615   0.334   7.821 -0.1413  0.7923 -1.0958
  341MOL0     C44940   2.702   0.270   7.705  0.3871  0.2338 -1.1040
  341MOL0     C44941   2.853   0.301   7.705  0.0040  0.6547 -0.3076
  341MOL0     C44942   2.919   0.240   7.579 -0.4811 -0.0164  0.1782
  341MOL0     C44943   3.060   0.283   7.577  0.1109 -0.1992 -0.0553
  341MOL0     C44944   3.176   0.314   7.606 -0.1435 -0.2013 -0.7964
  341MOL0     C44945   2.254   0.289   7.847  0.2338  0.0301 -0.3553
  341MOL0     C44946   2.146   0.326   7.928  0.9178 -0.0328  0.8194
  341MOL0     H44947   1.894   0.390   8.415 -0.6542  0.2895 -0.1213
  341MOL0     H44948   1.717   0.490   8.523  1.5027 -0.5580  0.0477
  341MOL0     H44949   1.690   0.756   8.652  0.3838  0.5152 -0.3049
  341MOL0     H44950   1.558   0.628   8.623 -1.7935  0.8013 -1.5874
  341MOL0     H44951   1.499   0.927   8.610  2.0278 -0.0557 -1.0573
  341MOL0     H44952   1.477   0.819   8.749 -1.0968  2.6238  0.4428
  341MOL0     H44953   1.315   0.694   8.659 -1.2894  2.0079  1.8782
  341MOL0     H44954   1.329   0.761   8.492 -0.8404 -0.5149 -0.4812
  341MOL0     H44955   1.267   0.953   8.722 -3.8066 -0.4304  1.0349
  341MOL0     H44956   1.263   0.977   8.555  1.3238 -0.7535  0.4857
  341MOL0     H44957   1.032   0.945   8.684 -0.0090 -0.1401  1.2564
  341MOL0     H44958   1.079   0.784   8.707 -1.9100  1.9748  0.9911
  341MOL0     H44959   1.081   0.731   8.465 -2.2866 -0.1150 -6.4364
  341MOL0     H44960   1.055   0.899   8.430 -0.9378 -1.8592 -1.1332
  341MOL0     H44961   0.866   0.732   8.413  3.1103 -1.3461 -0.1074
  341MOL0     H44962   0.851   0.749   8.585  2.7051  0.1572  1.2807
  341MOL0     H44963   0.837   1.007   8.410 -0.6526 -1.2500 -0.6336
  341MOL0     H44964   0.795   0.984   8.582  2.1951  0.8479 -0.1720
  341MOL0     H44965   0.528   0.957   8.595  0.4330  0.6745  0.5307
  341MOL0     H44966   0.289   0.997   8.395  0.5571  0.6477 -0.0794
  341MOL0     H44967   0.294   0.898   8.546  1.2871 -2.7222  0.6378
  341MOL0     H44968   0.218   0.711   8.434 -0.3832  1.6899  2.2492
  341MOL0     H44969   0.257   0.760   8.273  3.1421  2.6643  0.1691
  341MOL0     H44970   0.050   0.912   8.462  0.8747  1.3902 -0.8674
  341MOL0     H44971   0.084   0.947   8.298  1.8590 -1.4133 -1.6026
  341MOL0     H44972  -0.005   0.732   8.217 -0.1773 -1.3762 -0.0488
  341MOL0     H44973  -0.124   0.846   8.298  2.1348  2.6117 -0.0304
  341MOL0     H44974  -0.252   0.671   8.186  1.5895 -0.6499  0.3625
  341MOL0     H44975  -0.457   0.562   8.182  0.9787  0.6981  0.4480
  341MOL0     H44976  -0.779   0.332   8.073 -0.8830 -0.2213 -0.5620
  341MOL0     H44977  -1.004   0.298   8.034 -0.3824  0.9075  0.4296
  341MOL0     H44978  -1.291   0.516   8.188  0.1623 -1.4086 -0.5927
  341MOL0     H44979  -1.306   0.454   8.360 -1.1273 -0.3012 -0.0971
  341MOL0     H44980  -1.463   0.277   8.292  0.9488 -0.5165 -0.1587
  341MOL0     H44981  -1.472   0.339   8.139 -1.4400 -0.1522  0.8820
  341MOL0     H44982  -1.554   0.568   8.241 -2.0479  0.4280  0.0422
  341MOL0     H44983  -1.565   0.471   8.395  0.0899 -1.3485 -0.1894
  341MOL0     H44984  -1.695   0.384   8.136 -1.2872  1.4546 -0.5298
  341MOL0     H44985  -1.750   0.329   8.290 -0.0748 -0.6948 -0.6332
  341MOL0     H44986  -1.894   0.481   8.165  0.1775  1.7699 -1.8501
  341MOL0     H44987  -1.785   0.617   8.176  4.4511 -2.8564 -0.8633
  341MOL0     H44988  -1.813   0.606   8.436 -0.7620  1.4532 -0.2801
  341MOL0     H44989  -1.931   0.483   8.402  0.0977 -0.5480 -0.4000
  341MOL0     H44990  -1.991   0.711   8.237  0.0555 -1.5075  0.3847
  341MOL0     H44991  -2.093   0.624   8.357 -0.8739  0.8444  2.5399
  341MOL0     H44992  -2.053   0.783   8.522  0.6446  0.1893  0.0279
  341MOL0     H44993  -2.052   0.878   8.371  0.8384  0.5226  0.4809
  341MOL0     H44994  -1.094   0.450   8.429 -1.6619 -2.0063 -0.6451
  341MOL0     H44995  -0.850   0.491   8.469 -0.2829 -1.6421  1.0957
  341MOL0     H44996  -0.423   0.446   8.592 -2.2710  0.4412 -1.1698
  341MOL0     H44997  -0.191   0.520   8.596  0.5284 -2.0172 -0.6320
  341MOL0     H44998   1.768   0.849   8.275 -0.3226 -1.1893 -1.1351
  341MOL0     H44999   1.973   0.760   8.188 -0.0533  1.9351  0.1156
  341MOL0     H45000   2.303   0.468   8.190 -0.1042  3.9373 -2.1163
  341MOL0     H45001   2.485   0.425   8.061 -1.9521  1.0253  1.0111
  341MOL0     H45002   2.655   0.314   7.920 -0.4980  2.3434 -0.6028
  341MOL0     H45003   2.609   0.442   7.800 -0.1398  0.5506 -2.4596
  341MOL0     H45004   2.677   0.164   7.703 -1.5357  0.6718 -1.8880
  341MOL0     H45005   2.676   0.311   7.607  2.1600  4.5240 -0.0099
  341MOL0     H45006   2.900   0.253   7.792  0.3962 -0.2801 -1.0136
  341MOL0     H45007   2.869   0.408   7.714  0.2979  0.7116 -1.4011
  341MOL0     H45008   2.905   0.133   7.594 -1.0896  0.0589  0.2074
  341MOL0     H45009   2.873   0.269   7.484 -0.3197  2.2562  0.7287
  341MOL0     H45010   3.274   0.352   7.627  0.9389 -2.1757 -1.9314
  341MOL0     H45011   2.238   0.227   7.759 -1.0014 -1.9612  1.1814
  341MOL0     H45012   2.047   0.297   7.894  0.6644  1.8230 -0.1848
  342MOL0     O45013   9.021   3.156  11.051 -0.4390 -0.4182 -0.2135
  342MOL0     C45014   9.056   3.032  11.077 -0.7366 -0.2230 -0.6992
  342MOL0     O45015   8.974   2.938  11.117  0.5398  0.5633 -0.0003
  342MOL0     C45016   8.843   2.958  11.137 -0.6846 -0.0222  0.0582
  342MOL0     C45017   8.792   2.944  11.272 -0.0969  0.2495 -0.0624
  342MOL0     C45018   8.663   2.970  11.297  0.2067  0.5129 -0.5958
  342MOL0     C45019   8.578   3.017  11.198 -0.3699  0.8397  0.1316
  342MOL0     O45020   8.444   3.027  11.227 -0.8631 -0.2980  1.2365
  342MOL0     C45021   8.385   2.983  11.350  1.2683 -0.7082 -0.0593
  342MOL0     C45022   8.230   2.983  11.344 -0.1213 -0.0542  0.3907
  342MOL0     C45023   8.171   3.123  11.366 -0.0957  0.6727  0.6121
  342MOL0     C45024   8.022   3.124  11.358  0.4276  0.1752 -0.3149
  342MOL0     C45025   7.959   3.260  11.382 -0.3363  0.0316 -0.3746
  342MOL0     C45026   7.810   3.243  11.368  0.1999 -0.1584 -0.7375
  342MOL0     C45027   7.730   3.376  11.380  1.0439 -0.5238 -0.2566
  342MOL0     C45028   7.585   3.338  11.406  0.2308  0.3207 -0.6702
  342MOL0     N45029   7.503   3.453  11.443 -0.2197  0.0545 -0.3637
  342MOL0     C45030   7.452   3.482  11.566 -0.8128 -0.4094  0.6322
  342MOL0     C45031   7.394   3.603  11.552 -0.4293  0.4044  0.3183
  342MOL0     C45032   7.338   3.675  11.671  0.4744  0.4704 -0.1374
  342MOL0     C45033   7.299   3.825  11.652 -1.1237 -0.5241 -0.1823
  342MOL0     C45034   7.216   3.880  11.765 -0.7748 -0.1236  0.3688
  342MOL0     C45035   7.131   3.995  11.719 -0.1469  0.8029 -0.1087
  342MOL0     O45036   7.060   3.954  11.602  0.4294  0.0662  0.3314
  342MOL0     C45037   6.955   4.035  11.588  0.4812  0.8880 -0.3782
  342MOL0     C45038   6.961   4.156  11.519  0.0818  0.3954 -0.2300
  342MOL0     C45039   6.841   4.233  11.498 -0.4119  0.1753 -0.0373
  342MOL0     C45040   6.723   4.186  11.546  0.8974  0.1989 -0.2933
  342MOL0     C45041   6.599   4.259  11.522 -0.0292  0.2073  0.6010
  342MOL0     O45042   6.487   4.186  11.547 -0.8608  0.4203 -0.8401
  342MOL0     C45043   6.375   4.256  11.576  0.4133 -0.2365  0.5607
  342MOL0     C45044   6.366   4.346  11.686  0.3931 -1.5323  1.5432
  342MOL0     C45045   6.241   4.424  11.691 -0.1171  0.1048  0.1032
  342MOL0     C45046   6.136   4.405  11.603  1.1295  0.0409  0.5309
  342MOL0     O45047   6.019   4.474  11.612  0.2589 -0.0304  0.0038
  342MOL0     C45048   6.019   4.572  11.505 -0.3839  0.6309 -0.0199
  342MOL0     C45049   5.894   4.568  11.423  0.3846 -0.4444  0.4197
  342MOL0     C45050   5.772   4.665  11.469 -0.5400 -0.3860  0.1280
  342MOL0     C45051   5.621   4.648  11.424 -0.3212 -0.0146 -0.4492
  342MOL0     C45052   5.527   4.745  11.496 -0.1994  0.2983 -0.7935
  342MOL0     C45053   5.395   4.788  11.426  0.0618 -1.2469  0.4287
  342MOL0     C45054   5.306   4.678  11.382 -0.0215 -0.6333 -0.6018
  342MOL0     C45055   5.172   4.734  11.337 -0.3750  0.2208 -0.7998
  342MOL0    Cl45056   5.088   4.809  11.477  0.2861  0.4064  0.3523
  342MOL0     C45057   6.155   4.312  11.504  0.4427 -0.3568  0.5055
  342MOL0     C45058   6.265   4.236  11.489 -0.0755 -0.0484 -0.1437
  342MOL0     O45059   6.604   4.381  11.493 -0.0275  0.9798 -0.2419
  342MOL0     C45060   6.715   4.064  11.615 -1.0692  1.0743 -0.3777
  342MOL0     C45061   6.834   3.998  11.641 -0.1866 -0.4046  0.2798
  342MOL0     N45062   7.397   3.649  11.425 -0.1496 -0.4750 -0.1324
  342MOL0     N45063   7.465   3.555  11.359  0.0044 -1.1150  0.6718
  342MOL0     C45064   8.625   3.036  11.071  1.2007  0.0014 -0.3938
  342MOL0     C45065   8.758   3.004  11.036  0.3145  0.4694  0.0796
  342MOL0     C45066   9.203   3.008  11.083 -0.0499  0.0535  0.3814
  342MOL0     C45067   9.298   3.093  11.012 -0.3522 -0.2852 -0.3126
  342MOL0     C45068   9.440   3.073  11.031  0.2709  0.5376  0.1973
  342MOL0     C45069   9.493   2.968  11.110 -0.3762 -0.8963  0.4205
  342MOL0     O45070   9.625   2.947  11.140  0.2704  0.2728  0.3581
  342MOL0     C45071   9.713   2.991  11.034  0.2582  0.1451 -0.9556
  342MOL0     C45072   9.859   2.955  11.068  1.2811 -0.9483 -1.1228
  342MOL0     C45073   9.899   3.029  11.200 -0.1296 -0.7404  0.7911
  342MOL0     C45074   9.868   2.934  11.330  0.2180 -1.2360 -0.1821
  342MOL0     C45075   9.916   2.798  11.334 -0.4531  0.6728 -0.4208
  342MOL0     C45076   9.961   2.685  11.337 -0.3042 -0.8212 -1.2269
  342MOL0     C45077   9.400   2.883  11.169 -0.4744 -0.1201 -0.5125
  342MOL0     C45078   9.261   2.899  11.160  0.2095  0.3098 -0.1586
  342MOL0     H45079   8.862   2.934  11.354  1.2021 -2.3518 -1.3465
  342MOL0     H45080   8.637   2.953  11.401 -0.4183  0.6204 -0.7308
  342MOL0     H45081   8.411   3.049  11.434 -1.1849  0.4893 -0.1394
  342MOL0     H45082   8.419   2.880  11.363  1.3609 -0.7801 -0.8215
  342MOL0     H45083   8.203   2.926  11.433 -0.1139  0.0114  0.4353
  342MOL0     H45084   8.198   2.937  11.250 -4.1850  0.2376  1.4675
  342MOL0     H45085   8.201   3.183  11.280 -0.6975 -1.6620 -1.3666
  342MOL0     H45086   8.198   3.160  11.465  4.0553 -1.1141  0.3678
  342MOL0     H45087   7.988   3.102  11.256 -0.6707  0.4712 -0.0260
  342MOL0     H45088   7.986   3.049  11.428  4.1749 -0.7253  0.8630
  342MOL0     H45089   8.005   3.328  11.310  0.3776  0.8660  0.8397
  342MOL0     H45090   7.991   3.294  11.480 -1.1799 -3.2109  1.1685
  342MOL0     H45091   7.799   3.180  11.457 -1.6647  2.2615  0.8767
  342MOL0     H45092   7.792   3.185  11.277  0.8842 -2.2538  0.4068
  342MOL0     H45093   7.758   3.448  11.458 -0.4730  1.3134 -1.3268
  342MOL0     H45094   7.737   3.437  11.290 -2.8693 -0.2798 -0.5722
  342MOL0     H45095   7.571   3.273  11.492 -3.4132  0.7164 -0.8297
  342MOL0     H45096   7.554   3.285  11.315 -1.1465 -1.9219  1.0189
  342MOL0     H45097   7.461   3.419  11.653 -0.1453 -3.4664 -1.4838
  342MOL0     H45098   7.416   3.677  11.748 -0.2579 -0.4012  0.6519
  342MOL0     H45099   7.259   3.612  11.713  0.6730  1.1250  1.2641
  342MOL0     H45100   7.230   3.819  11.568 -1.6024  1.8165 -0.0075
  342MOL0     H45101   7.386   3.890  11.642 -0.7223 -0.9845  0.2489
  342MOL0     H45102   7.140   3.811  11.803 -0.5063  1.6955  4.7872
  342MOL0     H45103   7.291   3.910  11.839 -0.6281 -1.2959  0.7110
  342MOL0     H45104   7.189   4.084  11.694 -2.5554  2.4380 -0.2385
  342MOL0     H45105   7.065   4.035  11.797  2.4839  0.5787  2.3989
  342MOL0     H45106   7.059   4.182  11.480  0.6398 -0.3549  0.6359
  342MOL0     H45107   6.844   4.330  11.450 -0.9852  0.4715  0.5062
  342MOL0     H45108   6.444   4.376  11.755  0.4366 -1.6905  1.5632
  342MOL0     H45109   6.233   4.496  11.772  1.4717  0.4180  0.0029
  342MOL0     H45110   6.103   4.563  11.435 -1.7274  1.0283 -1.7391
  342MOL0     H45111   6.021   4.666  11.560  1.8001 -0.1349  1.3601
  342MOL0     H45112   5.855   4.466  11.429 -0.0090 -0.2361  1.9368
  342MOL0     H45113   5.909   4.591  11.317 -0.5187 -0.0876  0.3525
  342MOL0     H45114   5.810   4.765  11.449  2.4288 -1.1179  1.5778
  342MOL0     H45115   5.756   4.656  11.577 -3.9761  0.4434 -0.1821
  342MOL0     H45116   5.618   4.661  11.315  0.0987 -0.5427 -0.5306
  342MOL0     H45117   5.587   4.549  11.453  1.6846 -0.0710  2.0472
  342MOL0     H45118   5.573   4.842  11.514 -0.4717  0.8704 -2.8456
  342MOL0     H45119   5.505   4.701  11.594  3.0615 -2.3491 -1.0696
  342MOL0     H45120   5.431   4.842  11.338 -1.2266 -3.2936 -1.4816
  342MOL0     H45121   5.342   4.861  11.488  0.2836 -0.4646 -0.2820
  342MOL0     H45122   5.358   4.625  11.301 -2.4587  0.2628 -2.8986
  342MOL0     H45123   5.297   4.611  11.468  1.9820  1.0080  0.9785
  342MOL0     H45124   5.122   4.645  11.298  1.2247 -1.3910  0.5904
  342MOL0     H45125   5.178   4.805  11.254  4.5271  3.1492  1.5694
  342MOL0     H45126   6.084   4.301  11.422  0.6144 -1.5674  0.5071
  342MOL0     H45127   6.264   4.178  11.397 -1.8305  2.3434 -1.7738
  342MOL0     H45128   6.619   4.016  11.633 -1.5040 -0.3866 -5.1759
  342MOL0     H45129   6.833   3.902  11.691 -2.0647 -0.6182 -0.0903
  342MOL0     H45130   8.551   3.061  10.997  0.6017 -1.0286 -0.1689
  342MOL0     H45131   8.795   3.017  10.935  0.4511  3.7435  0.4551
  342MOL0     H45132   9.254   3.176  10.958 -1.3561 -0.0227  0.8397
  342MOL0     H45133   9.495   3.158  10.993 -1.8225  2.4015  1.0787
  342MOL0     H45134   9.708   3.100  11.029  1.4364  0.2009 -1.2333
  342MOL0     H45135   9.679   2.961  10.934 -1.5672 -1.8888  0.1973
  342MOL0     H45136   9.869   2.847  11.067  0.1539 -1.0820 -2.8942
  342MOL0     H45137   9.917   2.998  10.986  0.3642 -2.2606 -2.5144
  342MOL0     H45138   9.844   3.123  11.204  0.4926 -0.2647 -0.8452
  342MOL0     H45139  10.007   3.039  11.209 -0.1744 -0.8485  1.5272
  342MOL0     H45140   9.919   2.982  11.414  1.9795 -1.0625 -1.2993
  342MOL0     H45141   9.761   2.930  11.352  0.1285  2.5968  0.7973
  342MOL0     H45142   9.979   2.581  11.355  3.0967  0.1256  2.1054
  342MOL0     H45143   9.428   2.793  11.224  0.8618 -0.0001 -0.9608
  342MOL0     H45144   9.199   2.827  11.212 -1.0197 -0.4931 -2.5883
  343MOL0     O45145   4.098   1.936   8.387 -0.1933 -0.1943  0.3560
  343MOL0     C45146   4.117   1.892   8.272  0.3324  0.8794 -0.2757
  343MOL0     O45147   4.009   1.858   8.184 -0.5880  0.2364 -0.3947
  343MOL0     C45148   3.887   1.876   8.238  1.0545 -0.1875 -1.7696
  343MOL0     C45149   3.799   1.955   8.161 -0.0751 -0.6493  0.0104
  343MOL0     C45150   3.665   1.967   8.190 -0.8688 -0.4818  0.3939
  343MOL0     C45151   3.620   1.920   8.308  0.0021 -0.1856 -0.6072
  343MOL0     O45152   3.489   1.954   8.324 -0.4428  0.5129 -0.2288
  343MOL0     C45153   3.406   1.866   8.402  0.7361 -0.4659  0.1500
  343MOL0     C45154   3.355   1.758   8.301  0.0977  0.7116 -0.6433
  343MOL0     C45155   3.232   1.702   8.378  0.2086  0.1144  0.1456
  343MOL0     C45156   3.168   1.584   8.305 -0.2068  0.5641 -1.0817
  343MOL0     C45157   3.051   1.514   8.389 -1.0171  0.0310  0.0833
  343MOL0     C45158   2.931   1.491   8.300 -0.3445  0.0892 -0.1942
  343MOL0     C45159   2.821   1.427   8.365 -0.0043 -0.1828 -0.1634
  343MOL0     C45160   2.708   1.418   8.263 -0.0018 -0.5491  0.0228
  343MOL0     N45161   2.580   1.385   8.327  0.2232  1.0797  0.5779
  343MOL0     C45162   2.527   1.448   8.434 -0.1786  0.0819  0.2018
  343MOL0     C45163   2.423   1.364   8.469  0.2066  0.2787  0.0859
  343MOL0     C45164   2.332   1.378   8.586  0.8730  0.6327 -0.1824
  343MOL0     C45165   2.335   1.262   8.688 -0.4189 -0.4342 -0.1686
  343MOL0     C45166   2.239   1.265   8.806 -0.3268  0.7827 -0.3931
  343MOL0     C45167   2.094   1.251   8.756 -0.1789  0.9487 -0.1628
  343MOL0     O45168   2.005   1.261   8.865  0.5266 -0.1833  0.2649
  343MOL0     C45169   1.928   1.376   8.850 -0.2302 -0.0357  0.3868
  343MOL0     C45170   1.972   1.506   8.849 -0.4156  0.0192  0.3230
  343MOL0     C45171   1.881   1.610   8.871 -0.4216 -0.3510 -0.8007
  343MOL0     C45172   1.740   1.584   8.882  0.0274  0.6502  0.1503
  343MOL0     C45173   1.647   1.687   8.910 -0.3102  0.5334  0.3400
  343MOL0     O45174   1.513   1.658   8.900 -0.1067 -0.0999  0.5828
  343MOL0     C45175   1.420   1.735   8.952 -0.0750 -0.8210  0.2488
  343MOL0     C45176   1.296   1.754   8.889  0.6225  0.0262  0.3333
  343MOL0     C45177   1.194   1.827   8.943  0.6731 -0.3186 -0.5285
  343MOL0     C45178   1.206   1.888   9.073 -0.0327  0.5621  0.4381
  343MOL0     O45179   1.117   1.950   9.152  0.2876  0.5956 -0.3254
  343MOL0     C45180   0.973   1.938   9.124 -0.4742  0.1572  0.2602
  343MOL0     C45181   0.900   2.040   9.222  0.2487  0.1621  1.0820
  343MOL0     C45182   0.954   2.186   9.188 -0.3995  0.8005  0.2234
  343MOL0     C45183   0.885   2.286   9.273  0.7039 -0.2866  0.6853
  343MOL0     C45184   0.734   2.287   9.258  0.5328 -0.4740  0.2070
  343MOL0     C45185   0.669   2.405   9.347 -0.6620 -0.2770  0.5265
  343MOL0     C45186   0.523   2.396   9.339  1.0070 -0.3083  0.2325
  343MOL0     C45187   0.461   2.505   9.426  0.1221  0.6029  0.3364
  343MOL0    Cl45188   0.283   2.545   9.388  0.3526  0.4755  0.0973
  343MOL0     C45189   1.325   1.852   9.139  0.0540  0.9238  0.0981
  343MOL0     C45190   1.432   1.783   9.086 -0.2880 -0.7220 -0.1912
  343MOL0     O45191   1.688   1.796   8.940  0.0312 -0.1202  0.4370
  343MOL0     C45192   1.692   1.450   8.873 -0.2148 -0.5094  0.1226
  343MOL0     C45193   1.789   1.353   8.865 -0.7273 -0.1652  0.9378
  343MOL0     N45194   2.425   1.247   8.398 -0.1508 -0.4636  0.0799
  343MOL0     N45195   2.523   1.264   8.315  0.9251 -0.4789  0.4388
  343MOL0     C45196   3.699   1.838   8.390 -1.0242 -1.0258 -0.3176
  343MOL0     C45197   3.831   1.804   8.349  0.2829 -0.1658 -0.1332
  343MOL0     C45198   4.259   1.874   8.215 -0.5390  0.1727 -0.6945
  343MOL0     C45199   4.291   1.790   8.110 -0.0636  0.3593  0.7263
  343MOL0     C45200   4.410   1.803   8.044 -0.5584  0.5226 -0.7382
  343MOL0     C45201   4.519   1.877   8.108  0.7152  0.4695 -0.7728
  343MOL0     O45202   4.629   1.871   8.031 -0.7786 -0.4707 -0.6572
  343MOL0     C45203   4.719   1.983   8.038 -0.0599  1.0207 -0.4847
  343MOL0     C45204   4.667   2.112   7.980  0.0999 -0.7725 -0.1205
  343MOL0     C45205   4.620   2.094   7.834 -0.6233  0.4852  0.4971
  343MOL0     C45206   4.553   2.214   7.763 -0.8735  0.3249 -0.6332
  343MOL0     C45207   4.630   2.338   7.773  0.4295 -0.1556  0.1622
  343MOL0     C45208   4.692   2.443   7.776  0.4185  0.0746  0.4752
  343MOL0     C45209   4.496   1.949   8.228 -0.5906  0.2787 -0.3773
  343MOL0     C45210   4.369   1.938   8.281  0.0421 -0.0415  0.2308
  343MOL0     H45211   3.842   2.013   8.081  2.8040 -3.4323 -0.6957
  343MOL0     H45212   3.609   2.042   8.135  0.3529 -0.8620 -1.4387
  343MOL0     H45213   3.318   1.916   8.443  0.5817 -1.5825  1.2652
  343MOL0     H45214   3.454   1.839   8.497  0.7056  1.3972  0.7293
  343MOL0     H45215   3.426   1.677   8.287  0.1804  0.4191  1.2695
  343MOL0     H45216   3.321   1.807   8.209 -0.1505  0.7100 -0.5549
  343MOL0     H45217   3.162   1.786   8.385  3.4064  2.9694  0.3550
  343MOL0     H45218   3.251   1.676   8.482  0.4548 -2.0520 -0.4005
  343MOL0     H45219   3.132   1.623   8.209 -1.1005 -1.6405 -1.7194
  343MOL0     H45220   3.238   1.503   8.281  0.6444  1.0227 -0.2169
  343MOL0     H45221   3.015   1.586   8.463  0.5220  1.7850 -0.7961
  343MOL0     H45222   3.082   1.423   8.441  0.4054  1.2964  1.5062
  343MOL0     H45223   2.973   1.422   8.226  2.2990  1.4617 -0.1166
  343MOL0     H45224   2.910   1.589   8.255  1.6605  0.9180  0.5478
  343MOL0     H45225   2.853   1.328   8.400  1.8579 -0.1725 -1.6972
  343MOL0     H45226   2.792   1.496   8.446  1.5965  0.4546 -0.0933
  343MOL0     H45227   2.741   1.357   8.179  1.9196  1.8124 -1.0680
  343MOL0     H45228   2.697   1.517   8.218  0.7447 -0.7532 -0.6263
  343MOL0     H45229   2.569   1.539   8.477 -0.8714  0.0457  1.0004
  343MOL0     H45230   2.238   1.369   8.531  1.5494 -0.1586 -1.2732
  343MOL0     H45231   2.348   1.472   8.639  3.1597 -0.6080  1.5162
  343MOL0     H45232   2.435   1.265   8.733 -0.7646 -2.1990  0.7776
  343MOL0     H45233   2.320   1.165   8.640 -4.6308 -0.2697  0.4413
  343MOL0     H45234   2.262   1.171   8.858  0.1941  0.2300 -1.6042
  343MOL0     H45235   2.246   1.358   8.863 -0.8902  1.1576 -0.9233
  343MOL0     H45236   2.070   1.157   8.707 -2.6774 -0.2855  3.0314
  343MOL0     H45237   2.089   1.330   8.680 -0.2293 -0.2389 -1.4208
  343MOL0     H45238   2.080   1.518   8.848 -0.3686 -0.2392 -1.5448
  343MOL0     H45239   1.915   1.711   8.851 -1.6287 -0.1488 -1.9348
  343MOL0     H45240   1.264   1.713   8.793 -1.5834  0.4678  0.8327
  343MOL0     H45241   1.103   1.832   8.884 -0.2641  1.1309  0.9472
  343MOL0     H45242   0.927   1.842   9.150  0.3591 -0.5903 -0.8611
  343MOL0     H45243   0.954   1.968   9.020  0.4961  2.0584  0.5931
  343MOL0     H45244   0.928   2.010   9.324  2.6584 -0.5666  0.2693
  343MOL0     H45245   0.793   2.029   9.199  0.9594  0.1227 -2.7388
  343MOL0     H45246   0.942   2.207   9.082 -1.7952  1.6799  0.5237
  343MOL0     H45247   1.062   2.194   9.202  0.1360 -1.1896 -2.1636
  343MOL0     H45248   0.903   2.268   9.380 -0.0048  1.3481  1.1276
  343MOL0     H45249   0.917   2.387   9.244 -1.0293  0.2985  0.6553
  343MOL0     H45250   0.698   2.195   9.305  0.3262 -0.5153 -0.0263
  343MOL0     H45251   0.712   2.302   9.152 -1.0280 -0.0842  0.5589
  343MOL0     H45252   0.708   2.503   9.320 -0.5567 -1.1526 -2.9829
  343MOL0     H45253   0.696   2.378   9.450  0.2634 -1.6077 -0.0241
  343MOL0     H45254   0.491   2.423   9.238  1.2091 -0.7469  0.0489
  343MOL0     H45255   0.490   2.296   9.371  2.6031 -0.5036  1.3954
  343MOL0     H45256   0.514   2.598   9.406 -0.4841  1.0536  0.8206
  343MOL0     H45257   0.487   2.475   9.528  3.5087  1.1828 -0.2267
  343MOL0     H45258   1.351   1.898   9.234  2.9302  0.1352 -0.2192
  343MOL0     H45259   1.518   1.756   9.146 -1.0491  2.8568  2.8586
  343MOL0     H45260   1.588   1.424   8.860  0.2221 -2.4511  0.3125
  343MOL0     H45261   1.742   1.256   8.854 -0.8643  0.1237 -1.3631
  343MOL0     H45262   3.651   1.793   8.476  0.3157  0.5798  1.3351
  343MOL0     H45263   3.904   1.732   8.384  1.9258 -0.0761 -3.0520
  343MOL0     H45264   4.209   1.729   8.074  0.9109  0.1848 -1.3463
  343MOL0     H45265   4.437   1.737   7.962 -0.0251 -2.3454  1.5589
  343MOL0     H45266   4.799   1.952   7.971  0.3280  3.2051 -1.1300
  343MOL0     H45267   4.746   2.010   8.141 -3.9206  3.0523  0.1821
  343MOL0     H45268   4.587   2.158   8.038 -0.7304 -0.6966 -1.2870
  343MOL0     H45269   4.747   2.187   7.978 -0.2392 -0.3353 -3.8026
  343MOL0     H45270   4.548   2.013   7.824 -1.4576  1.3607 -0.8843
  343MOL0     H45271   4.705   2.065   7.772  0.1716 -1.5799  2.4397
  343MOL0     H45272   4.535   2.195   7.657  1.9908 -0.3433 -1.0694
  343MOL0     H45273   4.455   2.234   7.809 -0.5662  1.7586 -0.5552
  343MOL0     H45274   4.745   2.535   7.789  1.6523 -0.4474 -0.6118
  343MOL0     H45275   4.566   2.010   8.284 -1.4485  0.8065  0.1600
  343MOL0     H45276   4.347   1.985   8.376 -1.5021  0.9973 -0.5834
  344MOL0     O45277   9.366   0.204   5.322 -0.0093 -0.3210 -0.2276
  344MOL0     C45278   9.407   0.240   5.424 -1.0971 -0.7186  1.3301
  344MOL0     O45279   9.344   0.247   5.535  0.1205 -0.1065 -0.4397
  344MOL0     C45280   9.207   0.261   5.551  0.1586  0.1351 -0.0558
  344MOL0     C45281   9.150   0.203   5.663 -0.7064  0.1551  0.4912
  344MOL0     C45282   9.014   0.236   5.698 -0.2588 -0.3874  0.0202
  344MOL0     C45283   8.943   0.328   5.618  0.5728  0.5888 -0.0705
  344MOL0     O45284   8.813   0.343   5.669 -1.0794 -0.1277  0.0939
  344MOL0     C45285   8.721   0.441   5.621 -0.0995  0.1510 -0.8868
  344MOL0     C45286   8.616   0.456   5.729 -0.3937  0.4894  0.2938
  344MOL0     C45287   8.479   0.492   5.672 -1.0517  1.0253  0.7567
  344MOL0     C45288   8.461   0.628   5.611 -0.1302 -1.3953  0.9340
  344MOL0     C45289   8.318   0.668   5.562  0.5812 -0.7960  0.4377
  344MOL0     C45290   8.215   0.686   5.674 -0.2369 -0.1163 -0.2959
  344MOL0     C45291   8.077   0.717   5.611 -0.0147  0.6318 -0.8070
  344MOL0     C45292   8.005   0.597   5.545 -0.0976  0.2364 -0.5450
  344MOL0     N45293   7.988   0.483   5.631 -0.0463 -0.4691 -0.3482
  344MOL0     C45294   7.890   0.463   5.727 -0.2286  0.5102  0.2586
  344MOL0     C45295   7.913   0.337   5.781  0.5935 -0.5246  0.2417
  344MOL0     C45296   7.835   0.261   5.883 -0.7501  0.0392 -0.3147
  344MOL0     C45297   7.815   0.327   6.012 -0.0383 -0.4446 -0.6767
  344MOL0     C45298   7.708   0.428   6.020 -0.3773 -0.7299  0.3880
  344MOL0     C45299   7.679   0.458   6.162  0.1915  0.0050 -0.3285
  344MOL0     O45300   7.577   0.553   6.174  0.2545 -0.4478 -0.2168
  344MOL0     C45301   7.442   0.521   6.173 -0.6028  0.4290 -0.0173
  344MOL0     C45302   7.391   0.383   6.187  0.7852  0.1556  0.4432
  344MOL0     C45303   7.253   0.375   6.170 -0.3343 -0.7440  0.2044
  344MOL0     C45304   7.167   0.485   6.143 -0.0413 -0.1256 -0.5520
  344MOL0     C45305   7.023   0.466   6.113  0.4545  0.5859  0.0521
  344MOL0     O45306   6.977   0.345   6.070 -0.4832 -0.0429  0.2663
  344MOL0     C45307   6.858   0.314   6.010  1.3420 -0.1488 -1.0461
  344MOL0     C45308   6.859   0.196   5.933  0.9179  0.7837  0.4401
  344MOL0     C45309   6.744   0.137   5.887 -0.1364 -0.3096  0.6235
  344MOL0     C45310   6.622   0.203   5.902 -0.0525 -0.4523 -0.1196
  344MOL0     O45311   6.514   0.142   5.850 -0.1325  1.0711  1.1846
  344MOL0     C45312   6.381   0.167   5.890 -0.0373 -0.2734  0.1240
  344MOL0     C45313   6.281   0.128   5.775 -0.6933 -0.6788 -0.8922
  344MOL0     C45314   6.135   0.189   5.810 -0.2101  0.3748  0.1304
  344MOL0     C45315   6.027   0.125   5.714 -0.4276 -0.0113  0.4608
  344MOL0     C45316   5.887   0.164   5.758 -0.3113  1.1186  0.1823
  344MOL0     C45317   5.816   0.062   5.854 -0.2093 -0.4524  0.0817
  344MOL0     C45318   5.680   0.112   5.863  1.1427 -0.3759 -0.2888
  344MOL0     C45319   5.611   0.057   5.999 -0.0840 -0.0946 -0.5579
  344MOL0    Cl45320   5.580  -0.119   5.983 -0.0636  0.1819  0.2118
  344MOL0     C45321   6.621   0.325   5.980  0.3422 -0.0176 -0.2675
  344MOL0     C45322   6.735   0.390   6.029 -0.6398 -0.4822 -0.7048
  344MOL0     O45323   6.951   0.564   6.126  0.0550  0.5807 -0.3617
  344MOL0     C45324   7.223   0.606   6.120 -0.7380  0.1722 -0.5948
  344MOL0     C45325   7.360   0.627   6.137 -0.1904 -1.2849 -0.3467
  344MOL0     N45326   8.024   0.279   5.717  0.2104 -0.1381  0.0747
  344MOL0     N45327   8.063   0.373   5.642  0.3748  0.1852  0.1337
  344MOL0     C45328   9.001   0.383   5.506  0.1487 -0.3260  0.5300
  344MOL0     C45329   9.134   0.351   5.473 -0.0344  0.0234 -0.1206
  344MOL0     C45330   9.546   0.264   5.413 -0.1341 -0.7962 -0.4840
  344MOL0     C45331   9.622   0.280   5.534  0.2692  0.3825  0.9943
  344MOL0     C45332   9.759   0.291   5.531  0.9434 -0.1467 -0.1410
  344MOL0     C45333   9.829   0.289   5.411 -0.2118 -0.6556 -0.4975
  344MOL0     O45334   9.964   0.308   5.418 -0.5741 -0.8422  0.5088
  344MOL0     C45335  10.029   0.363   5.305  0.0331  0.1215 -0.6132
  344MOL0     C45336  10.174   0.401   5.362  0.3684  0.0730  0.5605
  344MOL0     C45337  10.245   0.434   5.232 -0.4198  0.1386 -0.4942
  344MOL0     C45338  10.376   0.512   5.267  0.1628  0.4710 -0.0747
  344MOL0     C45339  10.354   0.654   5.252  0.9237  0.1669 -0.1496
  344MOL0     C45340  10.323   0.771   5.228  0.2672  0.2585 -0.2178
  344MOL0     C45341   9.757   0.280   5.290 -0.4582 -0.3061  0.1699
  344MOL0     C45342   9.618   0.273   5.286  0.4420 -0.0782  0.2517
  344MOL0     H45343   9.218   0.147   5.727 -0.9181 -1.6860 -0.8149
  344MOL0     H45344   8.962   0.195   5.784  0.0836  0.8537  0.8516
  344MOL0     H45345   8.682   0.410   5.523  0.4551  1.8044 -1.6793
  344MOL0     H45346   8.758   0.542   5.599 -2.5224  0.8270 -2.2317
  344MOL0     H45347   8.669   0.529   5.791  0.2089  0.1837  0.1446
  344MOL0     H45348   8.600   0.373   5.798  1.0112  1.6228  2.0749
  344MOL0     H45349   8.406   0.487   5.754 -1.9595 -0.7163 -0.0953
  344MOL0     H45350   8.458   0.417   5.596  0.4356 -0.3726  1.6632
  344MOL0     H45351   8.487   0.707   5.682  1.6497 -0.4919 -0.6539
  344MOL0     H45352   8.534   0.635   5.530 -0.8568 -1.4890  0.2600
  344MOL0     H45353   8.278   0.597   5.489 -0.7597 -0.5195  0.8711
  344MOL0     H45354   8.317   0.766   5.513 -0.4215 -0.6969  0.6399
  344MOL0     H45355   8.249   0.763   5.744 -0.4172  1.0072 -1.4104
  344MOL0     H45356   8.221   0.593   5.732 -1.0602  2.5506  4.5782
  344MOL0     H45357   8.010   0.741   5.694 -1.3561 -3.2792 -0.5523
  344MOL0     H45358   8.075   0.800   5.540 -1.4394  1.0115 -0.3518
  344MOL0     H45359   8.068   0.567   5.461  0.5710  0.4155 -0.1143
  344MOL0     H45360   7.907   0.635   5.514  0.2450  0.2782 -1.6161
  344MOL0     H45361   7.808   0.533   5.742  1.9241  2.8130  2.2481
  344MOL0     H45362   7.896   0.173   5.906  0.4059  0.0562 -2.8854
  344MOL0     H45363   7.739   0.226   5.843 -0.3325 -1.8125  0.2159
  344MOL0     H45364   7.907   0.376   6.047 -0.0268  0.1361 -1.4981
  344MOL0     H45365   7.791   0.243   6.078 -0.4597 -2.1603 -2.9355
  344MOL0     H45366   7.731   0.521   5.966 -0.5230 -1.8528 -1.6934
  344MOL0     H45367   7.621   0.383   5.971 -0.2935  1.0227 -1.5325
  344MOL0     H45368   7.775   0.495   6.198  2.1026 -2.5054 -2.4922
  344MOL0     H45369   7.662   0.368   6.223  2.5337 -1.3956 -1.6072
  344MOL0     H45370   7.446   0.294   6.215  0.1795 -1.0210 -1.8550
  344MOL0     H45371   7.205   0.283   6.200  1.2853 -1.4033  0.8695
  344MOL0     H45372   6.958   0.152   5.938  1.5749  1.9927 -1.0830
  344MOL0     H45373   6.754   0.043   5.834 -0.0430  0.6344 -1.1111
  344MOL0     H45374   6.367   0.273   5.916 -0.0104 -0.9507  3.2470
  344MOL0     H45375   6.358   0.114   5.983  1.3939  0.2664  0.8145
  344MOL0     H45376   6.286   0.020   5.762  2.4237 -0.8393  0.6957
  344MOL0     H45377   6.314   0.178   5.684 -4.3897  2.0684 -0.9700
  344MOL0     H45378   6.139   0.299   5.812 -0.1908  0.3631  1.3013
  344MOL0     H45379   6.112   0.166   5.914 -3.0368 -1.0554 -0.7183
  344MOL0     H45380   6.047   0.156   5.611 -2.1691 -0.2379  0.0131
  344MOL0     H45381   6.031   0.016   5.721 -0.0863 -0.0181  0.1419
  344MOL0     H45382   5.832   0.174   5.664  1.7025 -0.3114 -1.2396
  344MOL0     H45383   5.898   0.265   5.798 -1.4603  0.6136  1.8824
  344MOL0     H45384   5.863   0.047   5.951 -0.3947 -2.3255 -0.0815
  344MOL0     H45385   5.816  -0.037   5.808  2.0346 -0.8620  0.8679
  344MOL0     H45386   5.680   0.220   5.878 -3.3125 -0.4451  2.1473
  344MOL0     H45387   5.624   0.081   5.774  0.8118 -2.3980  0.5493
  344MOL0     H45388   5.514   0.100   6.024 -0.4638 -3.0145  4.2833
  344MOL0     H45389   5.665   0.086   6.090 -3.4056  1.7562  1.0047
  344MOL0     H45390   6.529   0.377   6.001  1.4249  1.9059 -0.1214
  344MOL0     H45391   6.735   0.476   6.095  3.2184 -2.2243  1.9182
  344MOL0     H45392   7.161   0.685   6.080 -1.6284  0.0019  0.4115
  344MOL0     H45393   7.398   0.728   6.122  1.0504 -1.6755  0.1072
  344MOL0     H45394   8.944   0.454   5.447 -1.4843 -1.6454  0.4412
  344MOL0     H45395   9.199   0.398   5.400  1.5919  1.3510  2.0201
  344MOL0     H45396   9.571   0.269   5.628 -1.6280 -1.0107 -0.1202
  344MOL0     H45397   9.814   0.309   5.623  1.8825  0.5373 -0.8142
  344MOL0     H45398   9.972   0.451   5.275 -2.2611 -0.5084  1.4914
  344MOL0     H45399  10.035   0.297   5.218 -0.1208 -1.4314  0.5166
  344MOL0     H45400  10.171   0.487   5.430  3.3511  1.7624 -1.2231
  344MOL0     H45401  10.236   0.322   5.407 -0.3773  0.4773  2.3989
  344MOL0     H45402  10.188   0.499   5.165 -0.9039 -1.4031 -1.6485
  344MOL0     H45403  10.272   0.338   5.187 -0.3844  0.6925 -1.6938
  344MOL0     H45404  10.401   0.479   5.368  0.1386 -0.6486 -0.4100
  344MOL0     H45405  10.459   0.489   5.200 -0.2981 -0.5862 -0.3041
  344MOL0     H45406  10.309   0.877   5.224 -0.6518  0.3495  2.9834
  344MOL0     H45407   9.806   0.286   5.193  1.6212 -4.0143  0.7719
  344MOL0     H45408   9.587   0.275   5.182  1.1593  0.9020  0.0438
  345MOL0     O45409   6.622   8.782   5.267 -0.2413 -0.5144 -0.2141
  345MOL0     C45410   6.537   8.849   5.211 -0.4960 -0.0779  1.0512
  345MOL0     O45411   6.488   8.960   5.250 -0.1990 -0.3884 -0.1062
  345MOL0     C45412   6.556   9.027   5.358  0.7202 -0.5312  0.8423
  345MOL0     C45413   6.695   9.026   5.396 -0.6276  0.1807 -0.4980
  345MOL0     C45414   6.734   9.101   5.508  0.9299 -0.4271 -0.5005
  345MOL0     C45415   6.649   9.190   5.582  0.0187 -0.1577 -0.4165
  345MOL0     O45416   6.694   9.269   5.685 -0.4048  0.4666  0.3667
  345MOL0     C45417   6.687   9.214   5.822 -0.2148 -0.1169 -0.3745
  345MOL0     C45418   6.696   9.318   5.939  0.8675 -0.5429 -0.2140
  345MOL0     C45419   6.578   9.422   5.923  0.5388 -0.7818 -0.1851
  345MOL0     C45420   6.582   9.554   6.004 -0.4705 -0.3000 -0.3449
  345MOL0     C45421   6.557   9.542   6.155 -0.1830 -0.1363  0.0160
  345MOL0     C45422   6.569   9.674   6.236 -0.9620 -0.1076 -0.0397
  345MOL0     C45423   6.578   9.643   6.387  0.5269 -0.1759 -0.5977
  345MOL0     C45424   6.441   9.600   6.435  0.3913  0.2686 -0.2315
  345MOL0     N45425   6.437   9.585   6.578  0.0434  0.0186 -0.0270
  345MOL0     C45426   6.474   9.671   6.679 -0.0129 -0.3841  0.4755
  345MOL0     C45427   6.444   9.611   6.793 -0.4958  0.9978  0.5625
  345MOL0     C45428   6.493   9.650   6.926  0.9347 -0.1782 -1.1582
  345MOL0     C45429   6.634   9.588   6.957  0.5206 -0.0130  0.0956
  345MOL0     C45430   6.705   9.675   7.058  0.9330  0.5017  0.2827
  345MOL0     C45431   6.855   9.662   7.053 -0.1279  0.0716  0.5557
  345MOL0     O45432   6.902   9.529   7.048 -1.0180 -0.3009  1.3487
  345MOL0     C45433   7.033   9.497   7.023 -0.3584  0.0782 -0.2693
  345MOL0     C45434   7.064   9.372   6.979  0.4396 -0.8412 -0.4890
  345MOL0     C45435   7.194   9.340   6.958  0.1755  0.5489  0.8263
  345MOL0     C45436   7.295   9.437   6.971 -0.3988  0.0269  0.5640
  345MOL0     C45437   7.436   9.396   6.944  0.1688  0.8178 -0.6293
  345MOL0     O45438   7.530   9.483   6.979  0.6590 -0.1923  0.9040
  345MOL0     C45439   7.658   9.460   6.940 -0.6563  0.2891  0.5654
  345MOL0     C45440   7.730   9.355   6.995 -0.9395 -0.6639 -0.8527
  345MOL0     C45441   7.864   9.332   6.966  0.1951  0.3274 -0.2625
  345MOL0     C45442   7.946   9.418   6.891  0.2101  0.2962 -0.0286
  345MOL0     O45443   8.085   9.406   6.877 -0.6456  0.5041  0.1572
  345MOL0     C45444   8.155   9.485   6.776  0.1054 -0.3458 -0.1244
  345MOL0     C45445   8.313   9.449   6.779 -0.6282  1.6188  0.0027
  345MOL0     C45446   8.399   9.533   6.680 -0.4746  0.6212  0.0435
  345MOL0     C45447   8.542   9.535   6.723 -0.3272 -0.2687 -0.4049
  345MOL0     C45448   8.631   9.628   6.639  0.7692 -1.0869  0.8175
  345MOL0     C45449   8.777   9.643   6.687  0.1960  0.3117  0.5140
  345MOL0     C45450   8.848   9.509   6.704  0.0742  0.8514  0.0520
  345MOL0     C45451   8.982   9.516   6.773 -1.1557 -0.9387  0.5660
  345MOL0    Cl45452   8.975   9.564   6.951  0.0089  0.2178 -0.3417
  345MOL0     C45453   7.874   9.531   6.835 -0.6584  0.1117  0.5845
  345MOL0     C45454   7.734   9.553   6.866 -0.1513 -0.7063  0.1566
  345MOL0     O45455   7.457   9.287   6.888  0.2058  0.8210 -0.6450
  345MOL0     C45456   7.265   9.564   7.016 -0.7516  0.9627 -0.3763
  345MOL0     C45457   7.130   9.594   7.049  0.0483  0.1121 -0.1306
  345MOL0     N45458   6.384   9.485   6.758  0.5376  0.0016 -0.8079
  345MOL0     N45459   6.393   9.466   6.632  0.0146 -0.6417 -0.4455
  345MOL0     C45460   6.516   9.185   5.535  0.3073 -0.0787  1.2365
  345MOL0     C45461   6.468   9.105   5.437  0.3916 -0.2743  0.7848
  345MOL0     C45462   6.458   8.786   5.102  0.1326  0.5961 -0.0148
  345MOL0     C45463   6.469   8.650   5.069  0.6394  0.0297 -0.1714
  345MOL0     C45464   6.397   8.589   4.972 -0.2696 -0.3514  0.6914
  345MOL0     C45465   6.305   8.666   4.896  0.3803 -0.0120  0.0197
  345MOL0     O45466   6.228   8.620   4.789 -0.2180 -0.1676 -0.0490
  345MOL0     C45467   6.158   8.498   4.822  0.9863 -0.4662  0.1160
  345MOL0     C45468   6.118   8.442   4.677 -0.0978  0.0609  0.0828
  345MOL0     C45469   6.222   8.427   4.570  0.0802 -0.3925 -0.9505
  345MOL0     C45470   6.314   8.316   4.609  0.2085 -0.6214 -0.7733
  345MOL0     C45471   6.391   8.251   4.500  1.1090  0.6842 -0.0409
  345MOL0     C45472   6.461   8.202   4.416  0.4706  0.1536 -0.1197
  345MOL0     C45473   6.292   8.798   4.927 -0.0236  0.8521  0.1314
  345MOL0     C45474   6.364   8.861   5.024  0.0079 -0.2373  0.3351
  345MOL0     H45475   6.767   8.959   5.349  0.5478  0.3923  0.9107
  345MOL0     H45476   6.840   9.117   5.529  0.5380  1.8929 -0.0224
  345MOL0     H45477   6.774   9.151   5.838 -0.1423 -0.0466 -0.4981
  345MOL0     H45478   6.599   9.150   5.834  1.5892 -2.9707 -1.4770
  345MOL0     H45479   6.793   9.369   5.944  0.1073  0.8566  1.5404
  345MOL0     H45480   6.691   9.265   6.034  1.4015 -0.9371 -0.4004
  345MOL0     H45481   6.481   9.374   5.937  0.0040 -0.6613 -2.9188
  345MOL0     H45482   6.570   9.448   5.817 -0.6830  1.3044  0.3522
  345MOL0     H45483   6.688   9.581   5.998  0.8884 -4.0361  2.8422
  345MOL0     H45484   6.508   9.623   5.962  0.4344  0.0870 -1.3663
  345MOL0     H45485   6.637   9.479   6.194 -1.1271 -1.5573 -0.2689
  345MOL0     H45486   6.463   9.489   6.173 -0.3911  0.7091  1.6351
  345MOL0     H45487   6.490   9.739   6.198 -0.1012  1.0215  0.0379
  345MOL0     H45488   6.662   9.722   6.205  1.2203 -1.8916  3.1542
  345MOL0     H45489   6.657   9.568   6.400 -1.3581 -1.9856  1.0709
  345MOL0     H45490   6.608   9.730   6.446  2.7532 -2.6660  2.2960
  345MOL0     H45491   6.425   9.505   6.383  1.1998 -0.0191  0.0209
  345MOL0     H45492   6.357   9.667   6.413  0.4422  0.8053  1.1096
  345MOL0     H45493   6.538   9.758   6.674 -1.8965  1.0390 -0.2124
  345MOL0     H45494   6.420   9.610   6.997  2.4364 -0.3584  0.3573
  345MOL0     H45495   6.503   9.759   6.933  2.0395 -0.3656  0.8553
  345MOL0     H45496   6.688   9.585   6.862 -0.1421 -3.1144 -0.3079
  345MOL0     H45497   6.627   9.486   6.995  5.9049 -1.7612 -2.5614
  345MOL0     H45498   6.685   9.782   7.046  2.0517  0.7398  0.4294
  345MOL0     H45499   6.684   9.649   7.162  5.4660 -1.3296  1.0059
  345MOL0     H45500   6.893   9.708   7.144  0.8676 -0.0509  0.2195
  345MOL0     H45501   6.886   9.707   6.958 -2.6967  0.2460 -0.2847
  345MOL0     H45502   6.988   9.295   6.969 -1.0522  0.6760 -1.4501
  345MOL0     H45503   7.215   9.235   6.938 -2.3380 -0.3599  2.4943
  345MOL0     H45504   7.672   9.290   7.060  1.4782 -2.3699 -0.2888
  345MOL0     H45505   7.909   9.245   7.012 -1.9748 -0.7744 -0.0944
  345MOL0     H45506   8.145   9.591   6.801 -2.1017  0.0950 -2.4451
  345MOL0     H45507   8.109   9.465   6.679 -1.9673  1.9836  0.2869
  345MOL0     H45508   8.319   9.340   6.769  0.2046  1.4090  2.1648
  345MOL0     H45509   8.347   9.463   6.882  1.3384  1.7189 -0.6332
  345MOL0     H45510   8.361   9.635   6.677 -2.9450 -0.2133  0.9936
  345MOL0     H45511   8.403   9.492   6.578 -1.2440  1.3864 -0.3013
  345MOL0     H45512   8.545   9.556   6.831  1.1576 -1.5042 -0.1677
  345MOL0     H45513   8.585   9.436   6.703  0.4811 -0.6260  2.5350
  345MOL0     H45514   8.578   9.724   6.644 -0.8500 -1.9731  1.5870
  345MOL0     H45515   8.631   9.590   6.537  1.7471  3.0211 -0.9289
  345MOL0     H45516   8.770   9.688   6.787 -1.6380 -0.5114  0.7945
  345MOL0     H45517   8.824   9.714   6.619 -1.5506  0.4792 -0.5716
  345MOL0     H45518   8.791   9.433   6.759 -0.0653 -0.2893 -1.6053
  345MOL0     H45519   8.865   9.471   6.603  1.5715 -1.7598  1.2017
  345MOL0     H45520   9.040   9.585   6.712 -3.3954 -0.7795 -1.5404
  345MOL0     H45521   9.028   9.418   6.760 -1.7031 -1.0001 -1.0809
  345MOL0     H45522   7.921   9.605   6.770 -4.6239  1.5130 -0.9954
  345MOL0     H45523   7.680   9.633   6.815 -0.3858 -1.0563 -0.1446
  345MOL0     H45524   7.343   9.639   7.023 -1.5218  1.7149  0.5006
  345MOL0     H45525   7.109   9.693   7.089  2.5177  0.4035  0.6201
  345MOL0     H45526   6.445   9.248   5.587  0.7092  2.3103 -0.9232
  345MOL0     H45527   6.363   9.106   5.408  0.3674  5.3748 -0.0494
  345MOL0     H45528   6.529   8.590   5.136 -0.3339  0.2044  0.8874
  345MOL0     H45529   6.431   8.492   4.935 -2.4852 -1.4770  1.4210
  345MOL0     H45530   6.072   8.525   4.884  0.9547 -2.2302  0.8934
  345MOL0     H45531   6.218   8.426   4.878  1.8407  0.0041 -0.1739
  345MOL0     H45532   6.064   8.347   4.683  0.1245 -0.1656 -1.1904
  345MOL0     H45533   6.039   8.506   4.637  1.0946  0.8088 -1.1936
  345MOL0     H45534   6.276   8.520   4.551 -1.8532  0.4060 -2.8295
  345MOL0     H45535   6.168   8.403   4.479  0.9475  1.4670 -2.0211
  345MOL0     H45536   6.380   8.364   4.681 -0.1964 -1.8469  0.4819
  345MOL0     H45537   6.254   8.242   4.663 -0.5910  0.8359  0.4130
  345MOL0     H45538   6.511   8.156   4.334  0.8934  0.1158  0.1540
  345MOL0     H45539   6.217   8.847   4.866 -1.3754 -2.2441 -0.9052
  345MOL0     H45540   6.343   8.966   5.039  1.2843  0.4214 -2.0527
  346MOL0     O45541  10.484  11.038   3.223  0.1051 -0.1876 -0.0008
  346MOL0     C45542  10.559  11.029   3.127  0.0440  0.8431  0.6998
  346MOL0     O45543  10.523  10.968   2.999 -0.5223 -0.3018 -0.2821
  346MOL0     C45544  10.436  10.865   2.980  0.9765 -0.8713  0.2066
  346MOL0     C45545  10.331  10.823   3.068 -0.0254  0.0555  0.4181
  346MOL0     C45546  10.254  10.713   3.039 -0.3559 -0.1055  0.5394
  346MOL0     C45547  10.280  10.637   2.919  0.5282 -0.4111 -0.2454
  346MOL0     O45548  10.211  10.521   2.912  0.4065  0.2032  0.4809
  346MOL0     C45549  10.217  10.434   2.790 -0.3644  0.0780 -0.6601
  346MOL0     C45550  10.078  10.397   2.746 -1.0509 -0.2981  0.2000
  346MOL0     C45551  10.005  10.325   2.851  1.1868  0.2954  0.4619
  346MOL0     C45552   9.853  10.307   2.801 -0.3574  0.0926  0.2930
  346MOL0     C45553   9.778  10.220   2.899 -0.5218  0.1646  0.4030
  346MOL0     C45554   9.819  10.074   2.890 -0.0929  0.6727  0.1861
  346MOL0     C45555   9.780   9.999   3.016 -0.1741  0.3968 -0.4289
  346MOL0     C45556   9.629   9.983   3.058 -0.5062 -0.4917 -0.2060
  346MOL0     N45557   9.536   9.983   2.943 -0.8454 -0.3308  0.0071
  346MOL0     C45558   9.526   9.880   2.852 -1.2368  0.7126 -0.1319
  346MOL0     C45559   9.440   9.918   2.761  1.2606  0.3017 -0.0244
  346MOL0     C45560   9.406   9.866   2.630 -0.7391 -0.0998 -0.1670
  346MOL0     C45561   9.263   9.803   2.632  0.2698 -0.0930 -1.1592
  346MOL0     C45562   9.159   9.912   2.588 -0.1558  0.1372  0.2135
  346MOL0     C45563   9.016   9.866   2.634 -0.3437 -0.1853 -0.2176
  346MOL0     O45564   8.919   9.967   2.606  0.1791 -0.0596 -0.6592
  346MOL0     C45565   8.784   9.964   2.642  0.2830 -0.0332 -0.3634
  346MOL0     C45566   8.722   9.853   2.687  0.1615  0.5118 -0.6868
  346MOL0     C45567   8.587   9.848   2.720 -0.4520  0.0386  0.3235
  346MOL0     C45568   8.506   9.967   2.708 -0.5526 -0.1042 -0.6651
  346MOL0     C45569   8.371   9.963   2.766 -0.5708 -0.8198 -0.2006
  346MOL0     O45570   8.338   9.868   2.859  0.0466  0.1637 -0.2167
  346MOL0     C45571   8.210   9.863   2.911  0.5422  0.6248 -0.3362
  346MOL0     C45572   8.137   9.971   2.960 -0.0394  0.1345 -0.3165
  346MOL0     C45573   8.006   9.961   3.013  0.4768 -0.1148 -0.0936
  346MOL0     C45574   7.939   9.835   3.013  0.2091  0.0357 -0.2692
  346MOL0     O45575   7.818   9.830   3.064  0.4449 -0.0811  0.2438
  346MOL0     C45576   7.731   9.724   3.012 -1.0302 -0.5781  0.0860
  346MOL0     C45577   7.597   9.743   3.078 -0.2617 -0.5108  0.0746
  346MOL0     C45578   7.571   9.709   3.222  0.4157 -0.2066 -0.2413
  346MOL0     C45579   7.569   9.559   3.237 -0.7397  0.6594  0.3069
  346MOL0     C45580   7.587   9.530   3.388  0.2494 -0.5718 -0.1475
  346MOL0     C45581   7.458   9.539   3.483 -0.0138 -0.7417  0.7296
  346MOL0     C45582   7.349   9.428   3.467  0.6441  1.0883 -0.0028
  346MOL0     C45583   7.409   9.286   3.454  0.3343 -0.4211 -0.6316
  346MOL0    Cl45584   7.509   9.254   3.609  0.4397  0.1490 -0.2558
  346MOL0     C45585   8.019   9.729   2.966  0.2515 -0.2064  0.0430
  346MOL0     C45586   8.146   9.740   2.911  0.6360 -0.2146 -0.2305
  346MOL0     O45587   8.295  10.032   2.702 -0.6373  0.0569  0.2314
  346MOL0     C45588   8.564  10.082   2.651 -0.3736  0.1455  1.2079
  346MOL0     C45589   8.704  10.074   2.607 -0.1155  1.0235  0.7893
  346MOL0     N45590   9.393  10.043   2.809 -0.1382 -0.0110 -0.1603
  346MOL0     N45591   9.456  10.083   2.913 -0.6012 -0.4777 -0.4354
  346MOL0     C45592  10.380  10.676   2.836  0.4201 -0.8443  0.2093
  346MOL0     C45593  10.453  10.790   2.865  0.6141  0.9848  0.4961
  346MOL0     C45594  10.687  11.104   3.122 -0.0702 -0.2158 -0.0837
  346MOL0     C45595  10.779  11.081   3.020  0.3520 -0.0942  0.6969
  346MOL0     C45596  10.907  11.141   3.019  0.3613 -0.2161  0.8171
  346MOL0     C45597  10.934  11.232   3.119  0.3280  0.1197 -0.5911
  346MOL0     O45598  11.061  11.279   3.111  0.2731 -0.0863 -0.3267
  346MOL0     C45599  11.123  11.358   3.220  0.7559 -0.6074 -0.6525
  346MOL0     C45600  11.261  11.401   3.192 -0.1830  0.6102 -0.6725
  346MOL0     C45601  11.270  11.486   3.059 -0.5020 -0.0426 -0.0455
  346MOL0     C45602  11.406  11.537   3.039 -0.3192  0.1579  0.1761
  346MOL0     C45603  11.439  11.641   3.136  0.8367  0.3558 -0.7699
  346MOL0     C45604  11.455  11.731   3.217 -0.9465  0.8714  0.5453
  346MOL0     C45605  10.849  11.253   3.226  0.1974  0.2927 -0.5067
  346MOL0     C45606  10.727  11.189   3.232  0.2020  0.7756  1.0647
  346MOL0     H45607  10.330  10.852   3.172  0.4329 -1.2214  0.7984
  346MOL0     H45608  10.180  10.663   3.100 -3.0590 -0.1191 -2.4395
  346MOL0     H45609  10.276  10.344   2.808  5.0086  2.4942 -3.6639
  346MOL0     H45610  10.271  10.470   2.702  1.4900 -1.7482 -0.3609
  346MOL0     H45611  10.090  10.345   2.651 -3.7261  1.8365 -1.4548
  346MOL0     H45612  10.029  10.492   2.721 -0.6283 -0.5132 -1.6246
  346MOL0     H45613   9.996  10.374   2.949  0.0803  1.8339 -0.3731
  346MOL0     H45614  10.043  10.223   2.861  0.5769 -0.1501 -1.3424
  346MOL0     H45615   9.803  10.404   2.801  0.6669  0.6330  0.2997
  346MOL0     H45616   9.849  10.255   2.705 -3.5615 -1.2234  0.9996
  346MOL0     H45617   9.672  10.229   2.871  0.2237  2.7747 -2.0753
  346MOL0     H45618   9.776  10.261   3.000  4.7217  3.7017 -0.5351
  346MOL0     H45619   9.927  10.059   2.880 -0.0512  0.5409  0.7784
  346MOL0     H45620   9.771  10.038   2.799  1.4010 -0.9457 -0.0265
  346MOL0     H45621   9.806   9.894   3.001 -1.0026  0.1018  0.1461
  346MOL0     H45622   9.834  10.051   3.096 -1.5762  2.1953 -0.5776
  346MOL0     H45623   9.609  10.068   3.124  1.4688 -1.0164  1.1596
  346MOL0     H45624   9.625   9.897   3.124  2.7830  1.2089  2.5487
  346MOL0     H45625   9.596   9.798   2.843 -2.0322  0.0971 -0.8039
  346MOL0     H45626   9.467   9.778   2.609 -1.1028 -0.0776 -1.4434
  346MOL0     H45627   9.408   9.942   2.552 -2.2031 -1.1969 -1.3586
  346MOL0     H45628   9.240   9.767   2.733  0.5237  0.9904 -0.6954
  346MOL0     H45629   9.242   9.729   2.555 -3.0834  0.3872 -0.8783
  346MOL0     H45630   9.190  10.010   2.625  4.0547 -0.0527 -2.1467
  346MOL0     H45631   9.150   9.902   2.480 -2.6175  1.7334  0.1930
  346MOL0     H45632   9.025   9.841   2.740  1.1551  2.9606  0.4947
  346MOL0     H45633   8.989   9.769   2.590 -0.8605 -0.5223  0.8062
  346MOL0     H45634   8.765   9.753   2.698  2.8405  1.7378  1.2592
  346MOL0     H45635   8.551   9.754   2.761  1.8701 -0.9921  0.1967
  346MOL0     H45636   8.186  10.065   2.984 -2.1276  0.4112  3.7567
  346MOL0     H45637   7.959  10.042   3.068 -1.0145 -2.1049  1.7446
  346MOL0     H45638   7.768   9.622   3.028  4.5294  1.2587  1.1856
  346MOL0     H45639   7.722   9.715   2.903 -1.4261 -1.6427  0.1964
  346MOL0     H45640   7.538   9.669   3.024  1.4230 -0.5490 -1.8397
  346MOL0     H45641   7.548   9.839   3.056  1.4075  0.4289  0.2406
  346MOL0     H45642   7.470   9.744   3.243  0.4105 -0.9399  1.0983
  346MOL0     H45643   7.643   9.754   3.291 -0.5883  3.0438 -1.1745
  346MOL0     H45644   7.482   9.513   3.191 -0.4314 -0.5163  0.8520
  346MOL0     H45645   7.657   9.516   3.188 -1.4316 -1.8867  1.1495
  346MOL0     H45646   7.649   9.606   3.437  3.0547 -1.5847 -1.8417
  346MOL0     H45647   7.627   9.431   3.413 -0.5986 -0.7735  0.4434
  346MOL0     H45648   7.417   9.641   3.480  0.5809 -0.5197 -0.3851
  346MOL0     H45649   7.497   9.537   3.585  2.5694 -0.1160 -0.1782
  346MOL0     H45650   7.284   9.413   3.554  1.2189 -5.6518 -0.2067
  346MOL0     H45651   7.275   9.444   3.388 -0.4016  3.7194  1.3553
  346MOL0     H45652   7.471   9.265   3.367 -1.7637 -1.4568 -1.9549
  346MOL0     H45653   7.328   9.212   3.454 -1.1826  1.1491 -2.0968
  346MOL0     H45654   7.971   9.632   2.978  3.9837 -1.9492  2.5041
  346MOL0     H45655   8.193   9.652   2.868  0.3694  0.6416 -2.3466
  346MOL0     H45656   8.497  10.167   2.638 -0.5992 -0.1837  0.1292
  346MOL0     H45657   8.742  10.167   2.565 -0.3984  1.6479  1.8758
  346MOL0     H45658  10.402  10.634   2.739 -0.5524  0.0327 -0.4083
  346MOL0     H45659  10.536  10.807   2.797  0.8757  0.4222  0.6687
  346MOL0     H45660  10.738  11.025   2.936 -3.4961  1.2625  1.4678
  346MOL0     H45661  10.981  11.106   2.947  1.1799 -0.9627  1.9879
  346MOL0     H45662  11.125  11.319   3.323  1.5569  1.2100  0.0665
  346MOL0     H45663  11.060  11.447   3.230  1.4932 -0.2094  0.7311
  346MOL0     H45664  11.296  11.463   3.275  0.5251  0.0459 -0.5385
  346MOL0     H45665  11.325  11.315   3.171 -1.5280  0.2378 -3.6660
  346MOL0     H45666  11.189  11.559   3.055 -1.8547 -1.5021 -0.1472
  346MOL0     H45667  11.249  11.417   2.977 -1.3777 -0.0746  0.1936
  346MOL0     H45668  11.466  11.446   3.046 -0.3707 -0.1792 -2.6194
  346MOL0     H45669  11.425  11.575   2.938  1.4081 -2.0668 -0.4202
  346MOL0     H45670  11.469  11.803   3.295  1.2796  3.1041 -1.6991
  346MOL0     H45671  10.878  11.308   3.315 -0.0005 -3.3025  1.9560
  346MOL0     H45672  10.662  11.198   3.319 -0.2441 -0.4599  0.8811
  347MOL0     O45673   3.958   8.397  11.082 -0.4680  0.3355 -0.0676
  347MOL0     C45674   3.973   8.491  11.003  0.9760  0.3517  0.2150
  347MOL0     O45675   3.881   8.529  10.906 -0.1070  0.7801  0.0165
  347MOL0     C45676   3.768   8.458  10.879  0.1389 -0.5148  0.3317
  347MOL0     C45677   3.747   8.319  10.905 -0.0132 -0.1434  0.1410
  347MOL0     C45678   3.625   8.249  10.876  0.3096 -0.4851 -0.4069
  347MOL0     C45679   3.526   8.318  10.820  0.8336 -0.3460 -0.2845
  347MOL0     O45680   3.403   8.256  10.792  0.1349 -0.0067 -0.0906
  347MOL0     C45681   3.343   8.185  10.904 -0.6401 -0.5035  0.1190
  347MOL0     C45682   3.230   8.107  10.843  0.4937 -0.5689 -0.3194
  347MOL0     C45683   3.136   8.202  10.757  0.8595  0.2207 -0.8995
  347MOL0     C45684   3.071   8.130  10.641 -0.1698 -0.3295  1.1766
  347MOL0     C45685   2.974   8.016  10.669 -0.2695  0.3389 -0.0065
  347MOL0     C45686   2.869   8.063  10.765  0.2688 -0.0838 -0.6886
  347MOL0     C45687   2.757   7.949  10.774  0.2120 -0.1874  0.4448
  347MOL0     C45688   2.629   8.013  10.845  0.1979 -0.6601  1.0575
  347MOL0     N45689   2.498   7.954  10.810  0.1096 -0.0686  0.3116
  347MOL0     C45690   2.459   7.824  10.831  0.0446  0.3230  1.5209
  347MOL0     C45691   2.332   7.806  10.775 -0.4539 -0.5039 -0.3876
  347MOL0     C45692   2.254   7.679  10.780  0.5574  0.2698  0.6256
  347MOL0     C45693   2.103   7.710  10.793 -0.7359  0.2957  0.4632
  347MOL0     C45694   2.021   7.599  10.743  0.4571  0.3568  0.0774
  347MOL0     C45695   1.872   7.608  10.778 -0.8531  0.0089  0.1150
  347MOL0     O45696   1.828   7.716  10.688  0.2134 -0.4481  0.3322
  347MOL0     C45697   1.701   7.758  10.702  0.2551  0.0502 -0.2261
  347MOL0     C45698   1.622   7.751  10.819  0.7276  0.7507  0.3622
  347MOL0     C45699   1.485   7.798  10.822 -0.6594 -0.0852  0.1553
  347MOL0     C45700   1.429   7.858  10.707  1.0050 -1.3509 -0.3988
  347MOL0     C45701   1.293   7.910  10.721  0.6152  0.1010 -0.9609
  347MOL0     O45702   1.224   7.894  10.840 -0.4100 -0.2622 -0.2072
  347MOL0     C45703   1.088   7.904  10.843 -0.6834  1.1165 -0.2838
  347MOL0     C45704   1.023   7.803  10.917 -0.4672 -0.4758  0.7563
  347MOL0     C45705   0.886   7.812  10.945  0.5303  0.3557  0.0842
  347MOL0     C45706   0.813   7.919  10.889 -1.1958 -0.5314 -0.6430
  347MOL0     O45707   0.682   7.927  10.928  0.2966 -0.0701 -0.4100
  347MOL0     C45708   0.589   8.027  10.866  0.1111  0.0991  0.1615
  347MOL0     C45709   0.601   8.151  10.960 -0.5415 -0.1959 -0.6380
  347MOL0     C45710   0.518   8.275  10.927 -0.3620 -0.7382  0.8536
  347MOL0     C45711   0.552   8.339  10.790 -0.3022 -0.0551  0.0013
  347MOL0     C45712   0.500   8.481  10.769 -1.0138  0.0522 -0.9653
  347MOL0     C45713   0.522   8.520  10.622  0.4208  0.8411  0.6262
  347MOL0     C45714   0.438   8.643  10.596  0.8178 -0.7250 -0.1426
  347MOL0     C45715   0.352   8.638  10.464  0.0315 -0.2016  0.7358
  347MOL0    Cl45716   0.235   8.501  10.464  0.7533 -0.1781  0.0080
  347MOL0     C45717   0.875   8.012  10.799  0.4652  0.7995 -0.4084
  347MOL0     C45718   1.014   8.006  10.778  0.3181 -0.4008 -0.8870
  347MOL0     O45719   1.244   7.938  10.613 -0.2787 -0.9160 -0.7482
  347MOL0     C45720   1.516   7.865  10.590 -0.1243 -0.5784 -0.3773
  347MOL0     C45721   1.645   7.816  10.586  0.8141  0.5432 -0.8586
  347MOL0     N45722   2.287   7.933  10.734  0.2578  0.4928  0.0321
  347MOL0     N45723   2.390   8.023  10.754 -0.3001  0.2659 -0.1239
  347MOL0     C45724   3.546   8.445  10.775 -1.1168 -0.0577 -0.7471
  347MOL0     C45725   3.671   8.511  10.800  0.2319 -1.0680  0.0506
  347MOL0     C45726   4.092   8.580  11.023  0.4665  1.0262 -0.6808
  347MOL0     C45727   4.170   8.566  11.140  0.4209  0.5996 -0.6610
  347MOL0     C45728   4.286   8.642  11.154 -0.1297  0.0685  0.2948
  347MOL0     C45729   4.322   8.734  11.058 -0.2900 -0.5547  0.4647
  347MOL0     O45730   4.444   8.787  11.087 -0.1537 -1.0555 -0.0818
  347MOL0     C45731   4.519   8.856  10.986  1.7828 -0.2925 -0.0034
  347MOL0     C45732   4.670   8.858  11.019 -0.1481 -1.4033  0.3572
  347MOL0     C45733   4.696   8.982  11.108  0.5155  0.3150 -0.3883
  347MOL0     C45734   4.844   9.012  11.128  1.0724  0.4512  0.7487
  347MOL0     C45735   4.909   9.043  11.001  0.1004 -0.0278  0.7944
  347MOL0     C45736   4.952   9.069  10.891 -0.2971  0.4802  0.8523
  347MOL0     C45737   4.244   8.751  10.944 -0.8923  0.3221 -0.1552
  347MOL0     C45738   4.134   8.678  10.926  0.1145  0.2792 -0.2355
  347MOL0     H45739   3.826   8.262  10.952  2.8525  1.8236 -1.9322
  347MOL0     H45740   3.615   8.147  10.912 -2.8086  0.1078  0.6983
  347MOL0     H45741   3.312   8.253  10.985 -1.4111 -2.4735  1.5722
  347MOL0     H45742   3.407   8.110  10.952  0.9724  0.1073 -0.9975
  347MOL0     H45743   3.174   8.046  10.915 -2.2246 -0.3855 -2.1341
  347MOL0     H45744   3.264   8.035  10.768 -0.1293  1.1672 -2.3682
  347MOL0     H45745   3.185   8.292  10.719  0.7963  0.2330 -0.9549
  347MOL0     H45746   3.053   8.235  10.820  0.8447 -0.3434 -0.6190
  347MOL0     H45747   3.012   8.193  10.573  1.5555  1.6394  1.3764
  347MOL0     H45748   3.150   8.095  10.573  0.6310  0.0685  1.8825
  347MOL0     H45749   3.027   7.934  10.718  0.6523 -0.4121 -2.1742
  347MOL0     H45750   2.933   7.992  10.570 -0.8199 -2.1605  0.7541
  347MOL0     H45751   2.825   8.157  10.730 -0.3550 -0.1833 -0.1911
  347MOL0     H45752   2.907   8.084  10.866 -1.0488 -0.0524 -0.1819
  347MOL0     H45753   2.729   7.920  10.672 -1.8683 -0.4256  1.0457
  347MOL0     H45754   2.789   7.858  10.825  0.6369 -0.2568  0.0667
  347MOL0     H45755   2.613   8.120  10.827  2.0516 -0.5918 -0.4771
  347MOL0     H45756   2.649   7.997  10.951  1.6994 -1.3089  0.7013
  347MOL0     H45757   2.510   7.739  10.873  1.3551 -0.4612 -1.4124
  347MOL0     H45758   2.282   7.628  10.872  0.7059 -0.1607  0.3453
  347MOL0     H45759   2.282   7.623  10.690 -0.9148 -1.4543  1.2034
  347MOL0     H45760   2.084   7.795  10.727  0.8752  2.6857  2.8246
  347MOL0     H45761   2.088   7.743  10.897  0.1863  2.3165  0.0150
  347MOL0     H45762   2.032   7.600  10.634  0.4671  0.2883  0.0774
  347MOL0     H45763   2.052   7.506  10.791  1.4341  0.0641 -1.0747
  347MOL0     H45764   1.862   7.635  10.883 -1.4924  0.2164  0.0092
  347MOL0     H45765   1.810   7.520  10.758 -2.2792  0.0620  3.6073
  347MOL0     H45766   1.653   7.693  10.905  3.0976 -0.7382 -1.3536
  347MOL0     H45767   1.417   7.789  10.906  1.5343 -0.6371  1.9453
  347MOL0     H45768   1.095   7.729  10.952  0.4470 -1.9356 -3.5587
  347MOL0     H45769   0.832   7.743  11.009  1.8394 -3.8939 -2.8562
  347MOL0     H45770   0.488   7.985  10.862  0.6473 -1.1613 -0.9715
  347MOL0     H45771   0.619   8.047  10.763  1.7870  2.3179  0.9914
  347MOL0     H45772   0.702   8.191  10.972 -1.0820  1.1777 -0.4686
  347MOL0     H45773   0.565   8.114  11.057  0.3180  0.8218  0.1015
  347MOL0     H45774   0.548   8.346  11.005 -1.6808  0.1569  0.5745
  347MOL0     H45775   0.411   8.261  10.945 -1.5591  4.4371 -0.6375
  347MOL0     H45776   0.661   8.341  10.793 -0.2632  0.7505 -1.1526
  347MOL0     H45777   0.512   8.270  10.714  1.0497 -1.1788  0.2694
  347MOL0     H45778   0.538   8.558  10.837  0.2608  0.7141 -2.3644
  347MOL0     H45779   0.394   8.470  10.796 -0.9590 -2.3536 -1.5152
  347MOL0     H45780   0.486   8.440  10.558 -2.7612  1.1181  1.8839
  347MOL0     H45781   0.627   8.525  10.591  0.0657 -1.6539 -1.2991
  347MOL0     H45782   0.372   8.660  10.681 -2.3059 -0.2629 -2.5087
  347MOL0     H45783   0.512   8.724  10.596  2.3548 -2.0558  0.8312
  347MOL0     H45784   0.425   8.623  10.384 -0.6501 -2.1573  0.4289
  347MOL0     H45785   0.301   8.732  10.443 -0.6070 -0.8698 -0.8737
  347MOL0     H45786   0.819   8.093  10.753 -1.0022 -0.8324 -1.6607
  347MOL0     H45787   1.063   8.076  10.710  0.7149  0.6015  0.3996
  347MOL0     H45788   1.477   7.903  10.497 -0.4546 -1.9584 -0.8288
  347MOL0     H45789   1.696   7.812  10.490  0.5065  2.5855 -1.1353
  347MOL0     H45790   3.472   8.507  10.726 -1.8587 -0.1065  0.2945
  347MOL0     H45791   3.677   8.611  10.759 -0.1800 -1.1844 -0.2965
  347MOL0     H45792   4.150   8.480  11.204  3.1235  0.8385  0.6482
  347MOL0     H45793   4.355   8.631  11.238 -0.1336 -0.1857  0.2649
  347MOL0     H45794   4.485   8.960  10.994 -4.8873 -2.1621  2.6642
  347MOL0     H45795   4.503   8.829  10.882  0.1180  1.8301 -0.3791
  347MOL0     H45796   4.716   8.767  11.058 -0.0134 -1.5390 -0.1016
  347MOL0     H45797   4.733   8.865  10.930  1.6900  1.2683  1.7421
  347MOL0     H45798   4.648   8.955  11.203  1.2720  0.6488  0.0971
  347MOL0     H45799   4.654   9.070  11.061 -0.5334  0.0556  0.0317
  347MOL0     H45800   4.849   9.106  11.183 -1.7755  0.5873  0.8857
  347MOL0     H45801   4.915   8.940  11.171  0.0569 -1.4948 -0.6932
  347MOL0     H45802   4.995   9.104  10.799  0.9737  0.2659  1.3408
  347MOL0     H45803   4.286   8.819  10.871 -0.2258  0.9467  0.7948
  347MOL0     H45804   4.072   8.701  10.839 -2.2611 -2.1941  0.6549
  348MOL0     O45805   4.985   8.035   1.147 -0.5482 -0.1836 -0.5594
  348MOL0     C45806   5.031   8.048   1.260 -1.0339  0.4864 -0.9703
  348MOL0     O45807   4.993   7.986   1.366 -0.3962 -0.1456 -0.1019
  348MOL0     C45808   4.878   7.918   1.364 -0.1650 -0.5878 -0.1738
  348MOL0     C45809   4.782   7.967   1.444 -0.3471 -0.1985 -0.1665
  348MOL0     C45810   4.657   7.909   1.439  0.0425 -0.2065 -0.4440
  348MOL0     C45811   4.622   7.797   1.357 -0.2174 -0.4925  0.5189
  348MOL0     O45812   4.503   7.716   1.357 -0.0405 -0.4856 -0.0027
  348MOL0     C45813   4.394   7.758   1.446 -1.2903  0.5119  0.0185
  348MOL0     C45814   4.270   7.686   1.407  0.0008  0.8911  1.1467
  348MOL0     C45815   4.136   7.736   1.465  0.4540  0.0484 -0.2479
  348MOL0     C45816   4.021   7.670   1.374  0.4813  0.7766 -1.0940
  348MOL0     C45817   3.899   7.667   1.458 -0.0569 -0.3186  0.3310
  348MOL0     C45818   3.803   7.592   1.371 -0.4328 -0.2503  0.8692
  348MOL0     C45819   3.671   7.570   1.443 -0.0000  0.9222  0.2329
  348MOL0     C45820   3.587   7.692   1.464  0.8622 -0.7976  0.2389
  348MOL0     N45821   3.502   7.733   1.353  0.2405  0.6809 -0.0317
  348MOL0     C45822   3.504   7.854   1.286 -0.7958  0.6195 -0.6923
  348MOL0     C45823   3.416   7.829   1.193  0.0113  0.0796 -0.3791
  348MOL0     C45824   3.390   7.915   1.073 -1.6306 -0.3591  0.1470
  348MOL0     C45825   3.520   8.000   1.042 -0.0057 -0.5633 -0.1792
  348MOL0     C45826   3.640   7.930   0.998 -1.7400 -0.2391  0.3212
  348MOL0     C45827   3.758   8.029   0.985 -0.1198 -0.0765  0.1939
  348MOL0     O45828   3.810   8.054   1.112  0.1868 -0.1073 -1.1643
  348MOL0     C45829   3.938   8.092   1.131  0.1772  0.1653  0.7106
  348MOL0     C45830   4.001   8.053   1.253  0.7493  0.6210  0.1733
  348MOL0     C45831   4.136   8.099   1.286  0.2014 -0.1833 -0.7672
  348MOL0     C45832   4.194   8.184   1.194 -1.3566 -0.0987 -1.0575
  348MOL0     C45833   4.321   8.257   1.235  0.2375  1.0865  0.1040
  348MOL0     O45834   4.394   8.201   1.337  0.5150 -0.3098  0.6431
  348MOL0     C45835   4.517   8.247   1.370  0.6107  0.5457  0.3325
  348MOL0     C45836   4.543   8.266   1.507 -0.2495  0.2260 -0.0838
  348MOL0     C45837   4.672   8.306   1.552 -0.2424  0.1678  0.3800
  348MOL0     C45838   4.780   8.319   1.463  0.1153 -1.0276  0.5117
  348MOL0     O45839   4.902   8.360   1.505  0.0810  0.2045  0.3062
  348MOL0     C45840   4.961   8.478   1.450  0.7185 -0.7594  0.2195
  348MOL0     C45841   5.081   8.527   1.524 -0.0657  0.8892 -0.6263
  348MOL0     C45842   5.117   8.659   1.473  0.9674 -0.0306  0.5626
  348MOL0     C45843   5.246   8.723   1.541 -0.7579 -0.6244 -0.1067
  348MOL0     C45844   5.269   8.866   1.503  0.2038 -1.1103  0.1119
  348MOL0     C45845   5.399   8.900   1.577 -0.5277 -1.1207  0.4338
  348MOL0     C45846   5.445   9.044   1.537 -0.2273 -0.0755  0.2689
  348MOL0     C45847   5.594   9.061   1.593 -0.5245 -0.3024  0.0809
  348MOL0    Cl45848   5.680   9.203   1.515  0.4935 -0.0145  0.2817
  348MOL0     C45849   4.749   8.303   1.328  0.8144  1.1900  0.2289
  348MOL0     C45850   4.623   8.264   1.280 -0.4087 -0.8225 -0.3283
  348MOL0     O45851   4.361   8.336   1.160  0.5181 -0.0707 -0.0849
  348MOL0     C45852   4.133   8.210   1.069 -0.4611  1.1030  0.0775
  348MOL0     C45853   4.008   8.157   1.034 -0.5274 -0.8816 -0.2405
  348MOL0     N45854   3.344   7.710   1.217  0.7375 -0.4397 -0.1635
  348MOL0     N45855   3.404   7.660   1.315  0.3468  0.0190  0.4705
  348MOL0     C45856   4.719   7.757   1.267 -0.8064  0.2821 -0.6492
  348MOL0     C45857   4.850   7.819   1.272  0.2005 -0.9137  0.6797
  348MOL0     C45858   5.155   8.130   1.278  0.5444 -0.3954  0.4379
  348MOL0     C45859   5.204   8.161   1.397 -0.8671 -0.1122  0.7032
  348MOL0     C45860   5.311   8.250   1.418  0.1191 -0.3103  0.0381
  348MOL0     C45861   5.372   8.311   1.308 -0.5064  1.4124  0.1086
  348MOL0     O45862   5.491   8.381   1.310  0.4468 -0.3505  1.1228
  348MOL0     C45863   5.560   8.411   1.423 -0.9948 -0.0404  1.1077
  348MOL0     C45864   5.693   8.488   1.394 -0.1264  0.4336  0.3117
  348MOL0     C45865   5.695   8.642   1.417 -0.6845  0.4141  0.9190
  348MOL0     C45866   5.830   8.701   1.362  0.7761 -0.8981 -0.2477
  348MOL0     C45867   5.940   8.654   1.455 -0.0802  0.1819  0.4494
  348MOL0     C45868   6.031   8.632   1.535  0.0617 -0.2823 -0.2593
  348MOL0     C45869   5.317   8.285   1.182  0.2343  0.3075 -0.7477
  348MOL0     C45870   5.211   8.195   1.169  0.3923  0.2635 -0.2338
  348MOL0     H45871   4.805   8.043   1.519 -3.8935  0.4375  0.4390
  348MOL0     H45872   4.582   7.941   1.511 -0.8372  0.2492 -1.5163
  348MOL0     H45873   4.375   7.863   1.420 -1.8629  0.2670 -0.5779
  348MOL0     H45874   4.422   7.748   1.551  0.5282 -2.9863 -0.6566
  348MOL0     H45875   4.282   7.582   1.437  2.7150  0.6064 -0.6047
  348MOL0     H45876   4.255   7.664   1.301 -2.4431 -1.8277  1.9381
  348MOL0     H45877   4.130   7.846   1.466  1.1452  0.0870  0.1022
  348MOL0     H45878   4.142   7.700   1.568 -1.7542  0.6724  0.1678
  348MOL0     H45879   4.013   7.723   1.279 -2.4855  3.5360  0.5033
  348MOL0     H45880   4.054   7.570   1.346  3.3803  1.9436 -2.2198
  348MOL0     H45881   3.862   7.766   1.485  0.3208 -0.3786  1.1100
  348MOL0     H45882   3.919   7.617   1.554  0.6899 -2.9400 -1.0913
  348MOL0     H45883   3.848   7.495   1.349  2.7708  0.8715  1.8943
  348MOL0     H45884   3.779   7.658   1.287 -3.9280 -0.8386  1.2523
  348MOL0     H45885   3.628   7.487   1.386  2.3116 -0.9807  1.0911
  348MOL0     H45886   3.695   7.538   1.545  1.1416  0.1990 -0.2489
  348MOL0     H45887   3.650   7.777   1.492 -0.1126  0.1898 -0.4544
  348MOL0     H45888   3.518   7.685   1.549  2.1509  2.3990  1.7048
  348MOL0     H45889   3.561   7.943   1.313  0.4560  0.0800 -1.4697
  348MOL0     H45890   3.317   7.995   1.088 -0.3869  0.7304  0.6091
  348MOL0     H45891   3.370   7.853   0.985  2.1508 -2.3907  0.5137
  348MOL0     H45892   3.541   8.070   1.123  0.8701  2.6130 -2.8910
  348MOL0     H45893   3.500   8.076   0.966 -0.7936  0.1905  0.7636
  348MOL0     H45894   3.653   7.847   1.068 -2.7862 -0.1589  0.6267
  348MOL0     H45895   3.630   7.880   0.901 -4.1550 -0.8993  0.8453
  348MOL0     H45896   3.736   8.120   0.928 -0.2438 -0.0797  0.2344
  348MOL0     H45897   3.838   7.981   0.929  0.4056  1.0362 -0.0367
  348MOL0     H45898   3.948   7.993   1.326 -1.4181  2.0759 -0.1320
  348MOL0     H45899   4.177   8.063   1.380  0.0045 -2.5614 -1.5144
  348MOL0     H45900   4.467   8.253   1.583  2.5046  1.6360  3.1751
  348MOL0     H45901   4.676   8.319   1.659  0.5074  0.0701  0.3702
  348MOL0     H45902   4.882   8.552   1.466  0.8126 -0.5593 -0.2230
  348MOL0     H45903   4.985   8.477   1.343 -0.7282 -3.8756 -0.1612
  348MOL0     H45904   5.166   8.458   1.514  0.0970  0.5183  2.3536
  348MOL0     H45905   5.059   8.547   1.629  0.4333  1.6976 -0.6713
  348MOL0     H45906   5.034   8.729   1.486 -0.5269 -1.9134  1.8536
  348MOL0     H45907   5.136   8.647   1.366  3.4141 -2.1164  1.1276
  348MOL0     H45908   5.248   8.723   1.650 -0.4861 -2.4506 -0.0718
  348MOL0     H45909   5.330   8.656   1.519 -2.2593 -2.0594 -1.8209
  348MOL0     H45910   5.183   8.927   1.534  0.4421 -1.1938  0.9514
  348MOL0     H45911   5.283   8.878   1.395  1.5144 -2.3497  0.1222
  348MOL0     H45912   5.474   8.832   1.537  1.2385  0.3647  1.0749
  348MOL0     H45913   5.391   8.896   1.686 -2.8549 -2.4594  0.2838
  348MOL0     H45914   5.462   9.045   1.428  0.8236  1.5572  0.4126
  348MOL0     H45915   5.388   9.130   1.573  1.2637  1.4458 -0.7918
  348MOL0     H45916   5.656   8.974   1.573  2.1053  0.9551  2.1654
  348MOL0     H45917   5.589   9.072   1.702 -3.3118 -1.0657  0.1176
  348MOL0     H45918   4.820   8.318   1.248  1.5775 -2.8480 -0.0832
  348MOL0     H45919   4.615   8.248   1.173 -2.7962 -1.5885 -0.1027
  348MOL0     H45920   4.197   8.260   0.997  1.0786 -1.2021 -0.3007
  348MOL0     H45921   3.963   8.195   0.943  2.0830 -2.0077 -2.1389
  348MOL0     H45922   4.681   7.681   1.200 -0.3859 -0.3070 -0.2258
  348MOL0     H45923   4.931   7.785   1.208  0.8527 -0.1469  1.0749
  348MOL0     H45924   5.166   8.109   1.485  2.1669 -0.5976  1.8644
  348MOL0     H45925   5.342   8.296   1.512 -0.5673  2.3976 -0.9497
  348MOL0     H45926   5.584   8.320   1.478 -2.5882 -1.2315 -0.0718
  348MOL0     H45927   5.509   8.469   1.500 -1.4484 -0.4080  1.0859
  348MOL0     H45928   5.774   8.439   1.450 -1.1861 -0.9235  0.7232
  348MOL0     H45929   5.719   8.464   1.290  0.9826 -3.6071  1.3247
  348MOL0     H45930   5.680   8.672   1.521 -1.0022 -1.4426  1.4355
  348MOL0     H45931   5.625   8.689   1.348 -0.6342 -1.0239 -0.1734
  348MOL0     H45932   5.847   8.663   1.261 -3.6775 -4.2212 -0.0264
  348MOL0     H45933   5.825   8.810   1.355  2.7304 -0.8722 -4.0102
  348MOL0     H45934   6.127   8.641   1.581 -0.2019  1.7652 -0.0302
  348MOL0     H45935   5.349   8.337   1.093 -0.5999 -1.7128 -2.2974
  348MOL0     H45936   5.186   8.178   1.064  2.3991 -0.3975 -0.6566
  349MOL0     O45937  10.892   4.547   9.650  0.0438 -0.6387  0.6796
  349MOL0     C45938  10.832   4.490   9.740  0.8420 -0.1698  0.7901
  349MOL0     O45939  10.834   4.356   9.773  0.4373 -0.6428 -0.3032
  349MOL0     C45940  10.841   4.275   9.669  0.2866  0.0724  0.7925
  349MOL0     C45941  10.766   4.295   9.557  1.7092  0.5886  1.6534
  349MOL0     C45942  10.790   4.222   9.439 -0.6464  0.8157 -0.3786
  349MOL0     C45943  10.879   4.116   9.443 -1.1720 -0.7558  0.1885
  349MOL0     O45944  10.916   4.060   9.330 -0.2877  0.2997 -0.4623
  349MOL0     C45945  10.986   3.930   9.344 -0.8906  0.3794 -0.3477
  349MOL0     C45946  10.973   3.864   9.208  0.9926  0.4018 -0.0145
  349MOL0     C45947  11.026   3.713   9.209  0.2046 -0.6307 -0.2483
  349MOL0     C45948  10.984   3.635   9.076 -0.0784 -0.6119 -0.4450
  349MOL0     C45949  11.002   3.478   9.084 -0.0047  0.0214 -0.5426
  349MOL0     C45950  10.997   3.428   8.939 -0.3107  0.1624 -1.1870
  349MOL0     C45951  10.997   3.272   8.935  0.4748  0.2847  0.2971
  349MOL0     C45952  11.002   3.212   8.794  0.9023 -0.6330  1.1069
  349MOL0     N45953  10.882   3.248   8.723 -0.8474 -0.2369 -0.8066
  349MOL0     C45954  10.751   3.211   8.756  0.3456 -0.5358  0.0360
  349MOL0     C45955  10.672   3.283   8.666 -0.6038  0.7743 -0.1073
  349MOL0     C45956  10.526   3.269   8.665  0.1753  0.1048 -0.4144
  349MOL0     C45957  10.459   3.404   8.709 -0.3845 -0.8655 -0.4270
  349MOL0     C45958  10.307   3.388   8.730 -0.3116 -0.3784  0.0484
  349MOL0     C45959  10.232   3.508   8.752  0.4890  0.2030 -0.6347
  349MOL0     O45960  10.280   3.582   8.869 -0.2535  0.2926 -0.1491
  349MOL0     C45961  10.201   3.694   8.908  0.5986 -0.3896 -0.5046
  349MOL0     C45962  10.235   3.764   9.029  0.0822  0.1762 -0.4740
  349MOL0     C45963  10.169   3.887   9.058 -0.0770  0.5074  0.4940
  349MOL0     C45964  10.065   3.936   8.979  0.0690  0.2206 -0.5223
  349MOL0     C45965   9.987   4.058   9.011 -0.1132  0.2032  1.1687
  349MOL0     O45966  10.054   4.165   9.041 -0.2695 -0.2394 -0.1344
  349MOL0     C45967   9.984   4.283   9.072  0.0682  0.5636  0.7063
  349MOL0     C45968   9.999   4.343   9.200 -0.2138  0.1378  0.6251
  349MOL0     C45969   9.942   4.465   9.224 -0.9542  0.4327 -0.3215
  349MOL0     C45970   9.849   4.515   9.125  0.2119 -0.9073 -0.7201
  349MOL0     O45971   9.789   4.639   9.133 -0.3224  0.7331  0.0672
  349MOL0     C45972   9.719   4.665   9.259 -0.8281  0.1550  0.1660
  349MOL0     C45973   9.580   4.729   9.245 -0.1195 -0.0110 -0.0802
  349MOL0     C45974   9.525   4.733   9.392  0.0428  1.1233  0.0485
  349MOL0     C45975   9.378   4.778   9.398  0.5667 -0.5744  0.2864
  349MOL0     C45976   9.310   4.764   9.535 -0.0966  0.1721  0.8001
  349MOL0     C45977   9.389   4.820   9.645 -0.8864  0.1423 -0.5268
  349MOL0     C45978   9.295   4.851   9.771 -0.5126 -0.3821 -0.3884
  349MOL0     C45979   9.364   4.921   9.885 -0.8247 -0.0996  1.0547
  349MOL0    Cl45980   9.247   4.951  10.008 -0.1472  0.1969  0.0914
  349MOL0     C45981   9.828   4.451   9.007 -0.4114  0.7339  0.2375
  349MOL0     C45982   9.900   4.333   8.976  0.0484  0.0913  0.4726
  349MOL0     O45983   9.868   4.047   9.008 -0.5287 -0.1980  0.0038
  349MOL0     C45984  10.032   3.865   8.859 -0.5552  0.1057  0.4111
  349MOL0     C45985  10.098   3.745   8.827 -0.1917  0.5394  0.4336
  349MOL0     N45986  10.754   3.362   8.584  0.2245  0.2818  0.4975
  349MOL0     N45987  10.874   3.340   8.617 -0.3657 -0.3432 -0.6427
  349MOL0     C45988  10.940   4.088   9.569  0.0038  1.0338  0.4101
  349MOL0     C45989  10.919   4.164   9.682  0.2197  0.1453 -0.0933
  349MOL0     C45990  10.761   4.586   9.832  0.4635  0.3638  0.1663
  349MOL0     C45991  10.740   4.720   9.799  0.6629 -0.8512 -0.1710
  349MOL0     C45992  10.641   4.797   9.852  0.4579 -0.0919 -0.2583
  349MOL0     C45993  10.559   4.754   9.944  0.6349  0.2967  0.0500
  349MOL0     O45994  10.452   4.835   9.974 -0.0409  0.1161 -0.8594
  349MOL0     C45995  10.388   4.820  10.095  0.0667 -0.6623 -0.4667
  349MOL0     C45996  10.293   4.944  10.106 -0.2249  0.2607  0.0245
  349MOL0     C45997  10.232   4.990   9.972  0.5004 -0.1932  0.4358
  349MOL0     C45998  10.126   5.096   9.979  0.8763 -0.0908 -0.0482
  349MOL0     C45999  10.014   5.058  10.069 -0.1503  0.0721  0.1456
  349MOL0     C46000   9.926   5.018  10.142 -0.1921 -0.2199 -0.3507
  349MOL0     C46001  10.577   4.627   9.999  0.4911  0.1115 -0.0461
  349MOL0     C46002  10.680   4.538   9.942  0.9618 -0.1316  0.2968
  349MOL0     H46003  10.697   4.378   9.547 -1.9550 -2.4050 -0.7699
  349MOL0     H46004  10.745   4.231   9.341 -2.0130  1.1814  0.2428
  349MOL0     H46005  10.951   3.865   9.425  0.9359  1.4508  1.3856
  349MOL0     H46006  11.092   3.949   9.361 -0.7570 -0.3783 -0.3177
  349MOL0     H46007  11.014   3.930   9.131 -3.3013  0.7621 -2.3239
  349MOL0     H46008  10.864   3.857   9.199  0.8701  2.3628 -0.5992
  349MOL0     H46009  10.977   3.664   9.294  0.5802  1.2235  1.1016
  349MOL0     H46010  11.131   3.701   9.235  0.3058 -0.3911 -0.5450
  349MOL0     H46011  10.878   3.663   9.069 -0.0219  1.3326  3.7814
  349MOL0     H46012  11.030   3.668   8.983  1.5911  0.6811  0.7879
  349MOL0     H46013  10.918   3.433   9.137 -0.9110 -1.7703 -3.2969
  349MOL0     H46014  11.097   3.459   9.135 -0.0518  1.6135  0.1951
  349MOL0     H46015  11.078   3.465   8.875  1.3197 -1.5997 -0.2397
  349MOL0     H46016  10.906   3.466   8.891 -1.5148  1.0783  1.5853
  349MOL0     H46017  11.094   3.246   8.978  0.0113 -0.3265  0.9955
  349MOL0     H46018  10.914   3.236   8.996  2.0258 -1.8219  1.2939
  349MOL0     H46019  11.014   3.103   8.792  4.3943 -0.3573  0.6024
  349MOL0     H46020  11.092   3.249   8.745 -0.8427  0.6088 -1.3478
  349MOL0     H46021  10.713   3.139   8.828 -0.2143 -0.9815 -0.6957
  349MOL0     H46022  10.496   3.184   8.728 -0.9772  1.3750  0.8246
  349MOL0     H46023  10.500   3.247   8.562 -4.0148  0.0426  0.4841
  349MOL0     H46024  10.473   3.477   8.629 -1.2717  1.3971  1.3695
  349MOL0     H46025  10.507   3.424   8.806  1.0920 -0.4709 -1.2044
  349MOL0     H46026  10.270   3.339   8.640 -3.6707 -0.8180  1.5037
  349MOL0     H46027  10.294   3.315   8.811 -1.6296  0.3472  0.5244
  349MOL0     H46028  10.126   3.486   8.769 -0.1652  2.2151 -1.7966
  349MOL0     H46029  10.242   3.572   8.664 -3.5702  0.8493 -0.8499
  349MOL0     H46030  10.317   3.730   9.091 -0.2840 -0.8533 -0.5311
  349MOL0     H46031  10.207   3.939   9.145 -0.9153 -1.2306  1.9671
  349MOL0     H46032  10.069   4.308   9.275 -0.8187  2.3746  2.3540
  349MOL0     H46033   9.965   4.528   9.309 -1.8820  1.7715 -1.0146
  349MOL0     H46034   9.775   4.736   9.321 -0.3473  0.3721 -0.5049
  349MOL0     H46035   9.701   4.570   9.312 -1.1297 -1.0039 -1.8933
  349MOL0     H46036   9.513   4.664   9.188 -0.5014  0.9421 -0.7381
  349MOL0     H46037   9.591   4.832   9.209 -1.1317  0.4560  0.8779
  349MOL0     H46038   9.585   4.807   9.445  1.9533  1.9808 -3.0631
  349MOL0     H46039   9.528   4.631   9.433 -2.8058  0.5828 -0.8759
  349MOL0     H46040   9.394   4.884   9.377  2.1757 -0.7425  0.5801
  349MOL0     H46041   9.334   4.726   9.312 -0.4202  1.4861 -0.5260
  349MOL0     H46042   9.281   4.662   9.561 -3.3911  0.2901 -1.8704
  349MOL0     H46043   9.220   4.823   9.522  0.2870  0.4492 -0.7737
  349MOL0     H46044   9.432   4.914   9.611 -1.4039  1.5402  2.3975
  349MOL0     H46045   9.467   4.747   9.672 -0.4624  0.6990 -0.2218
  349MOL0     H46046   9.203   4.907   9.749 -0.8383  0.4320  2.5727
  349MOL0     H46047   9.263   4.753   9.807 -2.4827 -0.7946 -2.9485
  349MOL0     H46048   9.401   5.014   9.841  4.1721 -0.7062  3.2288
  349MOL0     H46049   9.451   4.865   9.921 -0.6981 -0.3114  0.4409
  349MOL0     H46050   9.756   4.490   8.936 -0.7182 -1.6284 -0.8429
  349MOL0     H46051   9.879   4.286   8.881 -3.0896  1.8245  0.1698
  349MOL0     H46052   9.943   3.894   8.804 -3.8739 -3.1364  3.5198
  349MOL0     H46053  10.064   3.683   8.745  0.9277 -0.3345  0.6175
  349MOL0     H46054  11.016   4.010   9.572 -1.0437  0.0105  1.8894
  349MOL0     H46055  10.981   4.149   9.769 -0.1927 -0.8811  0.0419
  349MOL0     H46056  10.805   4.762   9.722  0.1924 -0.2449 -0.2459
  349MOL0     H46057  10.615   4.891   9.804  0.3439  0.4136  0.7641
  349MOL0     H46058  10.457   4.822  10.180 -2.7202  1.7600  2.0223
  349MOL0     H46059  10.328   4.729  10.096 -0.4412 -0.4217 -2.8871
  349MOL0     H46060  10.217   4.921  10.180  0.4046  1.4779  1.0967
  349MOL0     H46061  10.340   5.030  10.155 -1.7148 -0.0929  2.1955
  349MOL0     H46062  10.184   4.899   9.934  1.4126 -1.6038  2.4680
  349MOL0     H46063  10.316   5.027   9.912  0.5211 -1.2005 -0.1913
  349MOL0     H46064  10.183   5.180  10.018  2.9523 -1.5730  0.2422
  349MOL0     H46065  10.086   5.112   9.878 -2.0807  1.6390  1.2573
  349MOL0     H46066   9.842   4.974  10.192  1.3082 -3.5482 -0.5025
  349MOL0     H46067  10.508   4.589  10.074 -0.9901  2.1805 -0.2706
  349MOL0     H46068  10.698   4.435   9.973  0.2991 -0.8129 -1.4514
  350MOL0     O46069  11.251   4.742   1.330 -0.0221 -0.1480  0.2198
  350MOL0     C46070  11.301   4.821   1.401 -0.0112  0.0227 -0.1793
  350MOL0     O46071  11.251   4.949   1.437  0.1925  0.1794  0.2829
  350MOL0     C46072  11.119   4.981   1.410  0.2115 -1.0326 -0.8150
  350MOL0     C46073  11.059   4.963   1.283  0.1765 -0.1346 -0.1189
  350MOL0     C46074  10.920   4.978   1.270 -0.1367  1.1294 -0.7907
  350MOL0     C46075  10.834   5.003   1.381  0.7559  0.0891  1.2448
  350MOL0     O46076  10.700   5.005   1.348  0.9863  0.2894 -0.0338
  350MOL0     C46077  10.618   4.945   1.455  0.1067 -0.2590 -0.2153
  350MOL0     C46078  10.479   4.912   1.410  0.4186 -0.0230 -0.6211
  350MOL0     C46079  10.386   4.875   1.522 -0.0732  0.4496  0.1400
  350MOL0     C46080  10.242   4.847   1.467 -0.5698 -0.1585  0.0330
  350MOL0     C46081  10.150   4.800   1.577  0.3906 -0.0477  0.1459
  350MOL0     C46082  10.143   4.875   1.711  0.1679 -0.2309  1.0897
  350MOL0     C46083  10.008   4.835   1.769  0.2005 -0.0112  0.1050
  350MOL0     C46084   9.999   4.862   1.926 -0.3882  0.4178  0.8655
  350MOL0     N46085   9.868   4.822   1.980  0.2202 -0.0688 -0.2438
  350MOL0     C46086   9.771   4.921   1.999 -0.0404 -0.7479  0.1084
  350MOL0     C46087   9.673   4.854   2.060  0.2485  0.4234 -0.8753
  350MOL0     C46088   9.545   4.920   2.114 -0.4682  0.4928 -0.3212
  350MOL0     C46089   9.411   4.845   2.099 -0.0917 -0.0145  0.6579
  350MOL0     C46090   9.310   4.894   2.202 -0.3186  0.6623 -0.3510
  350MOL0     C46091   9.183   4.814   2.182  0.9461  0.0836  0.3316
  350MOL0     O46092   9.088   4.873   2.256  0.8660 -0.6101 -0.4119
  350MOL0     C46093   8.951   4.853   2.250 -0.4809 -0.4390  0.6262
  350MOL0     C46094   8.891   4.747   2.185  0.1641  0.4072 -0.6765
  350MOL0     C46095   8.748   4.726   2.185 -0.0570 -0.2021  0.4212
  350MOL0     C46096   8.660   4.813   2.242 -0.0444  0.0933  0.3999
  350MOL0     C46097   8.520   4.806   2.204 -0.2431  0.4686  0.3774
  350MOL0     O46098   8.433   4.896   2.256 -0.3951 -0.5124 -0.2118
  350MOL0     C46099   8.299   4.911   2.206  0.0452  0.0888 -0.8371
  350MOL0     C46100   8.199   4.956   2.298 -0.1855 -0.7941  0.7897
  350MOL0     C46101   8.066   4.979   2.261 -0.8147  0.3006  0.8707
  350MOL0     C46102   8.039   4.964   2.117 -0.8471 -0.6085 -0.4360
  350MOL0     O46103   7.913   4.982   2.060 -0.8233  0.8287 -0.5189
  350MOL0     C46104   7.807   5.045   2.133  0.4611 -0.5286 -0.1709
  350MOL0     C46105   7.669   5.070   2.063 -1.1350 -0.8503  0.3601
  350MOL0     C46106   7.686   5.196   1.971  0.1029 -0.6800  0.1565
  350MOL0     C46107   7.540   5.229   1.922 -0.1411 -0.0403 -0.2069
  350MOL0     C46108   7.532   5.360   1.844 -0.6754 -0.5610 -0.1085
  350MOL0     C46109   7.378   5.406   1.812 -0.5023 -0.8002 -0.0318
  350MOL0     C46110   7.289   5.432   1.934 -0.9936  0.7050  0.9875
  350MOL0     C46111   7.156   5.491   1.894 -0.5849  0.7696 -0.2745
  350MOL0    Cl46112   7.057   5.354   1.863  0.2379  0.2419  0.3403
  350MOL0     C46113   8.136   4.918   2.032 -0.4929 -0.0862  0.2116
  350MOL0     C46114   8.271   4.901   2.079  0.5961  0.1328 -0.1773
  350MOL0     O46115   8.489   4.712   2.123 -0.0693  0.0629 -0.1055
  350MOL0     C46116   8.711   4.930   2.302  0.1424  0.1641  0.7763
  350MOL0     C46117   8.852   4.937   2.308 -0.1927 -0.2497  0.4120
  350MOL0     N46118   9.708   4.714   2.067 -0.4737 -0.0138  0.0842
  350MOL0     N46119   9.816   4.701   2.007 -0.4234  0.1517  0.1876
  350MOL0     C46120  10.894   5.030   1.501 -0.2604  0.2534 -0.9005
  350MOL0     C46121  11.036   5.015   1.517 -0.1397  0.3186  0.0125
  350MOL0     C46122  11.443   4.791   1.450 -0.6534 -1.1556 -0.0698
  350MOL0     C46123  11.494   4.667   1.459  0.8905  0.0701  0.5558
  350MOL0     C46124  11.620   4.635   1.498 -0.8327 -0.4459  0.2108
  350MOL0     C46125  11.715   4.736   1.509  0.2036  0.0195 -0.1467
  350MOL0     O46126  11.848   4.703   1.528  0.0036  0.2606 -0.7286
  350MOL0     C46127  11.956   4.774   1.453  1.4070  0.5335  0.7453
  350MOL0     C46128  11.925   4.776   1.305  0.0642 -0.3833  0.0515
  350MOL0     C46129  12.040   4.793   1.215 -0.8989  0.1370 -0.5313
  350MOL0     C46130  12.104   4.937   1.213 -0.4693  0.0080  0.5724
  350MOL0     C46131  12.213   4.947   1.304  0.2573 -0.0169  0.4289
  350MOL0     C46132  12.316   4.944   1.370  0.8838 -0.1384  0.0928
  350MOL0     C46133  11.668   4.869   1.499  0.3909 -0.5919 -0.4012
  350MOL0     C46134  11.529   4.896   1.486 -0.3322 -0.1203  0.1122
  350MOL0     H46135  11.114   4.930   1.195  0.7053 -0.5069  0.3461
  350MOL0     H46136  10.865   4.955   1.179 -0.2063 -1.5891 -0.1334
  350MOL0     H46137  10.598   5.024   1.527  3.9231  0.7976 -0.0792
  350MOL0     H46138  10.667   4.859   1.503  1.2187 -0.9506 -2.4105
  350MOL0     H46139  10.483   4.834   1.333  0.6803  2.0855 -2.8966
  350MOL0     H46140  10.453   5.006   1.359  1.7078  0.0738 -1.1367
  350MOL0     H46141  10.391   4.957   1.594  0.9941 -0.9094  1.7149
  350MOL0     H46142  10.411   4.775   1.561 -1.1020  0.0475 -0.2119
  350MOL0     H46143  10.214   4.945   1.426  1.9015  0.5304 -0.1286
  350MOL0     H46144  10.250   4.776   1.384 -1.2603 -1.6242  1.1840
  350MOL0     H46145  10.146   4.692   1.596 -2.4639 -1.4002 -5.6945
  350MOL0     H46146  10.054   4.807   1.524 -0.3867 -1.4422  1.2872
  350MOL0     H46147  10.132   4.982   1.692 -0.6848 -0.6054 -0.7791
  350MOL0     H46148  10.228   4.850   1.775  0.0280 -2.1799  0.5833
  350MOL0     H46149   9.939   4.893   1.708  1.1316  0.5658 -0.4170
  350MOL0     H46150   9.986   4.730   1.750  0.9377  0.0972 -1.4683
  350MOL0     H46151  10.008   4.970   1.938 -3.4139  1.1246 -1.8035
  350MOL0     H46152  10.082   4.821   1.984  0.4431 -0.9899 -1.2145
  350MOL0     H46153   9.759   5.027   1.982 -1.5588 -1.2381 -2.2293
  350MOL0     H46154   9.542   5.019   2.066 -1.1164  0.4833 -0.3025
  350MOL0     H46155   9.566   4.918   2.221 -1.3771 -2.1114 -0.1253
  350MOL0     H46156   9.421   4.737   2.107 -0.3492 -0.1501 -0.6204
  350MOL0     H46157   9.380   4.873   1.998  1.5941  1.1054  0.4032
  350MOL0     H46158   9.343   4.871   2.304 -2.7415  2.4776  0.9732
  350MOL0     H46159   9.282   5.000   2.193 -0.6906  0.5060 -1.1148
  350MOL0     H46160   9.201   4.710   2.210 -1.2203 -1.0523 -2.1240
  350MOL0     H46161   9.164   4.822   2.075 -0.0739 -0.6567  0.4496
  350MOL0     H46162   8.957   4.677   2.135  3.1353  0.8382  2.2427
  350MOL0     H46163   8.697   4.651   2.125  0.2256 -0.1581  0.1234
  350MOL0     H46164   8.227   4.960   2.403  2.4978 -0.8852  0.1515
  350MOL0     H46165   7.990   5.013   2.331 -0.4880 -1.1600  1.9957
  350MOL0     H46166   7.844   5.141   2.173  0.6562 -1.7977  3.0034
  350MOL0     H46167   7.789   4.984   2.222 -1.9510 -0.1663 -0.3614
  350MOL0     H46168   7.597   5.096   2.142  0.8466  2.1828  1.3200
  350MOL0     H46169   7.632   4.978   2.017  2.8316 -2.1758 -0.5530
  350MOL0     H46170   7.750   5.172   1.886  0.0249  1.5675 -0.6074
  350MOL0     H46171   7.728   5.275   2.033 -0.6947  1.1250 -1.5008
  350MOL0     H46172   7.503   5.140   1.870  0.2627 -0.9048  0.9338
  350MOL0     H46173   7.484   5.253   2.013  2.9909  3.3095  1.0660
  350MOL0     H46174   7.582   5.350   1.748 -2.3186 -4.6705 -0.7455
  350MOL0     H46175   7.582   5.437   1.904 -1.7223  0.2564 -0.2408
  350MOL0     H46176   7.337   5.324   1.753  0.8021 -1.5282  0.0410
  350MOL0     H46177   7.387   5.499   1.755  0.6120  0.0620  1.4735
  350MOL0     H46178   7.270   5.347   2.000 -2.7112 -0.6788 -1.1587
  350MOL0     H46179   7.346   5.506   1.991  0.5943  0.0183  0.3265
  350MOL0     H46180   7.158   5.562   1.811  1.1444 -0.4373 -1.3145
  350MOL0     H46181   7.106   5.549   1.972 -2.4928  0.2614 -1.0629
  350MOL0     H46182   8.114   4.909   1.926  5.8160  3.5208 -1.9256
  350MOL0     H46183   8.340   4.870   2.001  1.8531 -2.4488  1.8061
  350MOL0     H46184   8.650   5.014   2.332 -0.2780 -0.6311  2.2168
  350MOL0     H46185   8.892   5.025   2.358  0.5938  0.6612 -1.6943
  350MOL0     H46186  10.836   5.057   1.589 -0.7056  0.8625 -1.3749
  350MOL0     H46187  11.066   5.033   1.620  1.8625  0.3939 -0.5493
  350MOL0     H46188  11.442   4.573   1.441  0.5490  0.6560 -1.8587
  350MOL0     H46189  11.657   4.533   1.500  0.5774  0.0177 -0.4504
  350MOL0     H46190  12.051   4.722   1.471  2.6078  2.9096  1.7286
  350MOL0     H46191  11.961   4.877   1.489 -1.6473  1.2680 -0.6602
  350MOL0     H46192  11.877   4.679   1.286  1.3106 -0.9835 -0.1147
  350MOL0     H46193  11.850   4.855   1.295 -1.3170 -1.4217  1.6702
  350MOL0     H46194  11.997   4.792   1.114  2.3911  0.3864 -2.0525
  350MOL0     H46195  12.119   4.718   1.210 -2.8106 -2.5191  3.8430
  350MOL0     H46196  12.150   4.971   1.120  1.1287 -0.4879  1.1579
  350MOL0     H46197  12.030   5.014   1.237 -0.8276  1.0144 -3.1334
  350MOL0     H46198  12.406   4.941   1.427 -0.3190  2.3057  2.3407
  350MOL0     H46199  11.739   4.951   1.505  0.0599 -0.3374  0.1548
  350MOL0     H46200  11.485   4.994   1.497  1.1147  0.6128 -0.4323
  351MOL0     O46201   9.408  10.824   9.346 -0.5676 -0.0889  0.0997
  351MOL0     C46202   9.375  10.939   9.336  0.3817  0.3061  0.1509
  351MOL0     O46203   9.408  11.022   9.235 -0.0134  0.2478 -0.2934
  351MOL0     C46204   9.451  10.979   9.113 -0.2842  0.8084  0.6170
  351MOL0     C46205   9.589  10.968   9.095 -0.4213 -0.0467 -0.0726
  351MOL0     C46206   9.648  10.898   8.990  0.4908  0.3876 -0.5229
  351MOL0     C46207   9.575  10.861   8.878 -0.9346  0.7433 -0.6612
  351MOL0     O46208   9.634  10.816   8.765 -0.3493  0.0789  0.2123
  351MOL0     C46209   9.549  10.748   8.660 -0.5234 -0.0652 -0.6315
  351MOL0     C46210   9.501  10.849   8.553 -0.0670  0.2532 -0.4612
  351MOL0     C46211   9.611  10.923   8.477 -0.1909 -0.5035  0.5362
  351MOL0     C46212   9.675  10.827   8.378  0.2132 -0.6561  0.3476
  351MOL0     C46213   9.750  10.901   8.273  0.3668  0.0684 -0.2553
  351MOL0     C46214   9.767  10.810   8.147 -0.3118  0.9646  0.8319
  351MOL0     C46215   9.876  10.857   8.056  0.0394 -0.7541  0.2043
  351MOL0     C46216   9.830  10.982   7.976 -0.7340  0.5323 -1.3012
  351MOL0     N46217   9.925  11.000   7.866 -0.1659  0.2763 -0.3032
  351MOL0     C46218   9.867  11.008   7.744 -0.2696  0.0617  1.1650
  351MOL0     C46219   9.985  11.027   7.671 -0.6337 -0.2112 -0.1930
  351MOL0     C46220   9.977  11.043   7.519  0.4011  0.0685  0.5140
  351MOL0     C46221   9.996  11.189   7.478  0.4201 -0.0419  0.2042
  351MOL0     C46222   9.876  11.261   7.433  0.8706  0.9040 -0.7504
  351MOL0     C46223   9.809  11.226   7.306  0.1919 -0.2100  0.0015
  351MOL0     O46224   9.696  11.312   7.313 -0.8659  0.1821  0.4740
  351MOL0     C46225   9.632  11.366   7.209 -0.0051  0.1261  0.7494
  351MOL0     C46226   9.665  11.358   7.081 -0.8376 -0.2490 -0.7079
  351MOL0     C46227   9.587  11.415   6.985  0.1196 -0.8214  0.5850
  351MOL0     C46228   9.483  11.492   7.016  0.3598 -0.1164  0.7875
  351MOL0     C46229   9.411  11.555   6.908  1.1171  0.2703 -0.2324
  351MOL0     O46230   9.460  11.551   6.781  0.5106  0.5017 -0.2427
  351MOL0     C46231   9.411  11.632   6.680 -0.0866 -0.4875  0.3233
  351MOL0     C46232   9.508  11.677   6.590 -0.7223 -0.1183  0.2222
  351MOL0     C46233   9.473  11.764   6.485  0.1755  0.3696 -0.1199
  351MOL0     C46234   9.341  11.814   6.481 -0.1689  0.3595 -0.3060
  351MOL0     O46235   9.295  11.906   6.387  0.9870  0.0679 -0.2074
  351MOL0     C46236   9.378  12.019   6.347  0.2300 -0.1283 -0.2748
  351MOL0     C46237   9.401  11.999   6.194 -0.0914 -0.2447  0.5232
  351MOL0     C46238   9.490  12.109   6.135  0.7107 -0.1268 -0.1802
  351MOL0     C46239   9.424  12.255   6.145  0.4507  0.6074  0.0842
  351MOL0     C46240   9.478  12.343   6.033 -0.1096  0.2595 -0.6595
  351MOL0     C46241   9.418  12.309   5.902 -0.2790 -0.6306  0.5920
  351MOL0     C46242   9.412  12.434   5.805 -0.2595 -0.1941 -0.1149
  351MOL0     C46243   9.552  12.497   5.788  0.0753 -0.5380  0.4524
  351MOL0    Cl46244   9.671  12.383   5.715 -0.0161  0.4304 -0.0466
  351MOL0     C46245   9.245  11.750   6.560  0.1307  0.3153 -0.2385
  351MOL0     C46246   9.280  11.660   6.660  1.1179 -0.2416  0.0166
  351MOL0     O46247   9.314  11.622   6.938  0.4047 -0.3404 -0.0424
  351MOL0     C46248   9.451  11.510   7.150  0.4345 -0.4241  0.5355
  351MOL0     C46249   9.517  11.435   7.245  0.0780 -0.4393 -0.3283
  351MOL0     N46250  10.096  11.029   7.750 -0.5644 -0.5215 -0.1466
  351MOL0     N46251  10.061  11.022   7.874  0.1683  0.4212  0.0155
  351MOL0     C46252   9.437  10.885   8.885  0.3628  0.3281  0.2135
  351MOL0     C46253   9.371  10.935   9.003 -0.5927  1.1045  0.0589
  351MOL0     C46254   9.262  10.978   9.425  0.0437  0.7213  0.2886
  351MOL0     C46255   9.148  11.043   9.380  0.3647 -0.7407  1.4231
  351MOL0     C46256   9.037  11.084   9.467 -0.5206  0.3251 -0.4459
  351MOL0     C46257   9.049  11.060   9.602  1.0521  0.0948 -0.2727
  351MOL0     O46258   8.939  11.100   9.683 -0.2896 -0.9827 -0.1788
  351MOL0     C46259   8.957  11.089   9.824 -0.0298 -0.0810 -0.0126
  351MOL0     C46260   8.820  11.128   9.874 -0.5794  0.3078  0.3520
  351MOL0     C46261   8.789  11.111  10.032 -0.0165 -0.4796  1.0541
  351MOL0     C46262   8.818  11.249  10.092  0.0597  0.1553 -0.3173
  351MOL0     C46263   8.793  11.250  10.239  0.2558  0.5352  0.8608
  351MOL0     C46264   8.774  11.259  10.359  0.1593 -0.1728  0.4997
  351MOL0     C46265   9.164  10.990   9.651 -0.7461 -0.1872  0.6954
  351MOL0     C46266   9.273  10.955   9.561 -1.1057  0.4090 -0.0081
  351MOL0     H46267   9.656  11.014   9.167  1.0440  1.6828 -2.3848
  351MOL0     H46268   9.755  10.882   8.987  0.8108  2.4023 -1.6090
  351MOL0     H46269   9.461  10.696   8.699  1.7015 -3.8218 -0.1032
  351MOL0     H46270   9.612  10.672   8.612  0.8362 -0.6011  1.8392
  351MOL0     H46271   9.440  10.928   8.598 -0.5192  0.3217 -1.1786
  351MOL0     H46272   9.451  10.791   8.475  0.3352  0.8400 -1.1655
  351MOL0     H46273   9.698  10.966   8.528  1.0438  0.7386 -2.3831
  351MOL0     H46274   9.559  11.006   8.429  2.0800  1.2477  0.8986
  351MOL0     H46275   9.751  10.772   8.434 -1.5054  0.4221  4.0643
  351MOL0     H46276   9.605  10.759   8.329 -0.1202  1.4933 -2.3537
  351MOL0     H46277   9.848  10.930   8.311  1.9525 -2.8220 -1.7519
  351MOL0     H46278   9.682  10.985   8.256 -2.2662 -2.0380 -0.7961
  351MOL0     H46279   9.673  10.801   8.093 -0.5712 -1.6234  1.5740
  351MOL0     H46280   9.788  10.707   8.176 -1.7113  0.6550  0.7689
  351MOL0     H46281   9.963  10.889   8.114  0.5686 -1.7650 -0.0263
  351MOL0     H46282   9.905  10.769   7.999 -0.8604 -1.1442  0.3263
  351MOL0     H46283   9.845  11.066   8.043 -0.3261 -1.1448  0.8273
  351MOL0     H46284   9.724  10.979   7.949 -0.9245  0.6993 -0.5831
  351MOL0     H46285   9.766  11.018   7.706 -0.0332 -1.9730 -0.1507
  351MOL0     H46286   9.884  11.006   7.475  1.0345  0.7187 -1.4720
  351MOL0     H46287  10.048  10.981   7.464  0.3969 -0.5672  1.2003
  351MOL0     H46288  10.072  11.196   7.399 -0.7701  1.3184 -0.8756
  351MOL0     H46289  10.035  11.239   7.567  0.6739 -4.3008  2.7589
  351MOL0     H46290   9.806  11.245   7.515  0.7171 -0.8259 -1.1702
  351MOL0     H46291   9.919  11.361   7.419  2.4564  0.2138 -1.0729
  351MOL0     H46292   9.776  11.122   7.312 -1.7998  0.4298  1.3814
  351MOL0     H46293   9.872  11.241   7.218 -0.1401 -1.2170 -0.4214
  351MOL0     H46294   9.755  11.310   7.046  0.0820  1.7764 -1.2264
  351MOL0     H46295   9.619  11.410   6.881 -0.6996 -3.5953  0.3738
  351MOL0     H46296   9.608  11.640   6.614 -0.6547 -1.0168 -1.3592
  351MOL0     H46297   9.556  11.793   6.423  1.9413 -3.3998  0.1972
  351MOL0     H46298   9.472  12.034   6.401 -0.5938  0.8676  0.9573
  351MOL0     H46299   9.310  12.104   6.360 -1.6659 -1.1024 -2.9277
  351MOL0     H46300   9.304  11.994   6.145 -0.7246  2.5557  1.2728
  351MOL0     H46301   9.454  11.905   6.178  1.3191  0.6264 -0.1855
  351MOL0     H46302   9.510  12.090   6.029 -1.5945 -3.1123 -0.1912
  351MOL0     H46303   9.584  12.110   6.191  0.8153  0.6731 -0.3533
  351MOL0     H46304   9.317  12.239   6.129  0.7380  0.7953 -2.2929
  351MOL0     H46305   9.442  12.302   6.242  0.6353 -0.0081  0.3549
  351MOL0     H46306   9.587  12.334   6.034 -0.1381 -1.1496 -3.1982
  351MOL0     H46307   9.452  12.447   6.057 -1.9943 -0.7581  2.2922
  351MOL0     H46308   9.320  12.261   5.913  0.1863 -1.4478  1.2579
  351MOL0     H46309   9.489  12.237   5.861  2.8823  3.3349 -1.6184
  351MOL0     H46310   9.388  12.393   5.707  0.2601  0.8108 -0.6658
  351MOL0     H46311   9.331  12.505   5.825  0.0238  0.9241 -2.6524
  351MOL0     H46312   9.581  12.531   5.888 -0.7539 -1.0979  0.8988
  351MOL0     H46313   9.541  12.586   5.726 -2.4741 -1.1123 -0.0223
  351MOL0     H46314   9.140  11.775   6.545  1.0146  2.4807 -4.4679
  351MOL0     H46315   9.200  11.623   6.722  2.6553 -0.5733  1.8963
  351MOL0     H46316   9.371  11.578   7.178  1.3914  2.2649 -2.5280
  351MOL0     H46317   9.493  11.453   7.350 -3.7181  0.1685 -1.1430
  351MOL0     H46318   9.372  10.868   8.799  0.5068  2.2227 -0.3197
  351MOL0     H46319   9.263  10.938   9.007 -0.6793 -0.3741 -0.4188
  351MOL0     H46320   9.146  11.070   9.275  0.3491  1.5520  1.9633
  351MOL0     H46321   8.949  11.128   9.422 -1.1358 -1.4208 -1.0379
  351MOL0     H46322   9.034  11.157   9.862 -2.5053  2.9195  0.1352
  351MOL0     H46323   8.982  10.987   9.855 -3.0725 -0.3129  2.1537
  351MOL0     H46324   8.795  11.231   9.846 -0.2722  0.5013  0.7855
  351MOL0     H46325   8.755  11.056   9.823 -0.3629  1.0181 -0.9716
  351MOL0     H46326   8.857  11.031  10.064 -0.0549 -0.8576  0.2224
  351MOL0     H46327   8.686  11.076  10.043  0.1787 -1.2805  0.4600
  351MOL0     H46328   8.921  11.283  10.077 -0.1784 -0.2973 -3.8382
  351MOL0     H46329   8.760  11.326  10.040  1.3735  0.5598 -1.2401
  351MOL0     H46330   8.770  11.278  10.464  0.9780  0.4087  0.4379
  351MOL0     H46331   9.174  10.968   9.756 -2.4472  0.8078  1.1031
  351MOL0     H46332   9.360  10.902   9.599  0.8160  2.3436 -1.5213
  352MOL0     O46333   1.489   8.431   6.110 -1.0726  0.1757 -0.4593
  352MOL0     C46334   1.505   8.339   6.036 -0.0704 -0.1251  0.0979
  352MOL0     O46335   1.616   8.307   5.972 -0.1657 -0.4430  0.3323
  352MOL0     C46336   1.738   8.364   5.986  1.3070  0.1285  0.4325
  352MOL0     C46337   1.784   8.459   6.076  0.2571  0.2240 -0.6458
  352MOL0     C46338   1.918   8.510   6.063 -0.3502  0.1943 -0.0611
  352MOL0     C46339   1.992   8.472   5.952 -0.8320 -0.8179  0.2023
  352MOL0     O46340   2.109   8.525   5.912 -0.1609 -0.1056  0.3023
  352MOL0     C46341   2.131   8.664   5.956  0.3786  1.4462  0.1265
  352MOL0     C46342   2.273   8.712   5.896  0.1997  0.1105  0.4236
  352MOL0     C46343   2.384   8.626   5.948 -0.2713 -0.0187 -0.1907
  352MOL0     C46344   2.514   8.685   5.904 -0.2721 -0.2920 -0.0611
  352MOL0     C46345   2.628   8.596   5.968 -0.7228 -1.2716 -0.0788
  352MOL0     C46346   2.766   8.662   5.948  1.0491 -0.0762  0.0482
  352MOL0     C46347   2.891   8.581   5.948 -0.1596 -0.1252 -0.7571
  352MOL0     C46348   2.937   8.527   6.080 -0.4570 -0.0666 -0.2240
  352MOL0     N46349   3.067   8.464   6.060 -0.5420  1.1991 -0.0665
  352MOL0     C46350   3.086   8.339   6.016  0.7683 -0.8447  0.8776
  352MOL0     C46351   3.217   8.318   6.005 -0.8152  0.5467 -0.1033
  352MOL0     C46352   3.286   8.207   5.933  0.1038  0.3457 -0.0832
  352MOL0     C46353   3.276   8.233   5.776 -0.1915 -0.4752  0.5479
  352MOL0     C46354   3.131   8.195   5.723 -0.2727  0.0942  0.1947
  352MOL0     C46355   3.153   8.167   5.568 -0.6958  0.5272 -0.2327
  352MOL0     O46356   3.186   8.035   5.537 -0.5626  0.1086  0.2749
  352MOL0     C46357   3.086   7.939   5.518 -1.0164  0.6063 -0.0417
  352MOL0     C46358   3.136   7.813   5.501 -0.2141 -0.5640 -0.1968
  352MOL0     C46359   3.044   7.708   5.487  0.2741 -0.3698 -0.0816
  352MOL0     C46360   2.900   7.736   5.488 -0.8275 -0.3470  0.5017
  352MOL0     C46361   2.806   7.619   5.468  0.3302 -0.4750 -0.5059
  352MOL0     O46362   2.685   7.645   5.401 -0.6619 -0.0200  0.4094
  352MOL0     C46363   2.616   7.540   5.348 -0.7738  0.5137  0.3825
  352MOL0     C46364   2.484   7.535   5.376  0.5990 -0.5467 -0.5817
  352MOL0     C46365   2.396   7.437   5.317 -0.2643 -0.0995 -0.2830
  352MOL0     C46366   2.444   7.345   5.232 -0.1970 -0.0841 -0.1078
  352MOL0     O46367   2.370   7.253   5.166  1.1294 -0.9304  0.2168
  352MOL0     C46368   2.261   7.187   5.239 -0.3634  1.1127 -0.4308
  352MOL0     C46369   2.249   7.039   5.201  0.8630 -0.1120  0.3360
  352MOL0     C46370   2.101   6.982   5.205  0.3404 -0.0994 -0.3697
  352MOL0     C46371   2.094   6.851   5.140 -0.4932  0.3248 -0.1443
  352MOL0     C46372   1.937   6.804   5.127 -1.2366 -0.1375 -0.9078
  352MOL0     C46373   1.853   6.839   5.248  0.2677 -0.1304  0.0284
  352MOL0     C46374   1.719   6.781   5.242  0.7319  0.1177  0.3341
  352MOL0     C46375   1.708   6.629   5.234  0.0525 -0.1542 -0.8596
  352MOL0    Cl46376   1.538   6.580   5.261  0.7483  0.3976  0.4604
  352MOL0     C46377   2.581   7.347   5.203 -0.2241 -0.1201  0.5115
  352MOL0     C46378   2.664   7.448   5.259 -0.2043  0.2124  0.3205
  352MOL0     O46379   2.860   7.505   5.486  0.7902 -1.2542  0.1165
  352MOL0     C46380   2.857   7.866   5.509  0.1151  1.0774 -0.2538
  352MOL0     C46381   2.946   7.962   5.524 -0.0516 -0.5542  0.1103
  352MOL0     N46382   3.281   8.439   6.043 -0.5112 -0.0754 -0.1852
  352MOL0     N46383   3.187   8.520   6.075  0.1052 -0.4563 -0.1312
  352MOL0     C46384   1.950   8.375   5.867  0.3319  0.0593 -0.0687
  352MOL0     C46385   1.819   8.326   5.883  0.2311 -0.1322 -0.6179
  352MOL0     C46386   1.374   8.262   6.009 -0.2006  0.0581 -0.3655
  352MOL0     C46387   1.244   8.320   6.039 -0.3422 -0.4570  0.4910
  352MOL0     C46388   1.130   8.241   6.015 -0.1905  0.7413  0.1229
  352MOL0     C46389   1.141   8.110   5.961 -0.0506 -0.7302  0.5530
  352MOL0     O46390   1.035   8.025   5.948  1.1639  1.3912 -0.5841
  352MOL0     C46391   0.969   7.972   6.066 -0.5792 -0.0986  1.2577
  352MOL0     C46392   0.999   7.828   6.073  0.5800  0.0588  0.3885
  352MOL0     C46393   0.934   7.749   5.958 -0.1710  0.5460  0.6707
  352MOL0     C46394   0.944   7.596   5.966 -0.2422 -0.4554  0.4990
  352MOL0     C46395   0.876   7.541   5.847 -0.4912 -0.8931 -0.0113
  352MOL0     C46396   0.819   7.494   5.749  0.4274 -0.5498  0.7743
  352MOL0     C46397   1.266   8.062   5.947  0.4280  0.5865  1.7501
  352MOL0     C46398   1.384   8.135   5.958 -0.1395 -0.5350  0.6344
  352MOL0     H46399   1.719   8.507   6.148  0.6121  2.5098 -1.7551
  352MOL0     H46400   1.953   8.578   6.139  3.0378  0.1335 -1.4038
  352MOL0     H46401   2.136   8.674   6.065 -2.9438 -0.3314  0.5607
  352MOL0     H46402   2.052   8.732   5.923 -0.7803 -0.2123 -0.6483
  352MOL0     H46403   2.292   8.812   5.934 -0.3646 -0.0293  1.0815
  352MOL0     H46404   2.261   8.715   5.787  0.0174  3.2130  0.4445
  352MOL0     H46405   2.380   8.522   5.913  1.8216 -0.2154  0.0060
  352MOL0     H46406   2.397   8.631   6.057 -2.2130 -0.6985  0.1208
  352MOL0     H46407   2.524   8.690   5.795 -0.5030 -3.0737 -0.2955
  352MOL0     H46408   2.522   8.786   5.945  2.5817 -0.7096  0.6186
  352MOL0     H46409   2.620   8.492   5.935  0.2032 -2.6863  3.6354
  352MOL0     H46410   2.609   8.592   6.076 -3.0869 -0.6181 -0.4211
  352MOL0     H46411   2.777   8.736   6.028 -0.5355  0.3396 -0.0953
  352MOL0     H46412   2.757   8.731   5.864 -0.2098 -0.7249 -0.3679
  352MOL0     H46413   2.894   8.507   5.867  3.0756 -0.0099 -0.8679
  352MOL0     H46414   2.973   8.650   5.927 -0.4764  0.8994  1.1612
  352MOL0     H46415   2.871   8.445   6.110 -0.2464  0.0166  0.4763
  352MOL0     H46416   2.954   8.607   6.151 -1.4067  1.1622 -1.3367
  352MOL0     H46417   3.006   8.274   5.984  0.3668  0.0185  0.0710
  352MOL0     H46418   3.257   8.104   5.956  1.4720  0.3071  1.6575
  352MOL0     H46419   3.392   8.213   5.960  0.6737 -0.0665 -2.0746
  352MOL0     H46420   3.346   8.169   5.721 -1.1287 -0.8467 -0.2486
  352MOL0     H46421   3.295   8.337   5.751  0.1434 -0.2193  1.7692
  352MOL0     H46422   3.095   8.106   5.776  2.0260 -0.2164  1.3975
  352MOL0     H46423   3.073   8.286   5.740  0.2466  0.6980 -1.1404
  352MOL0     H46424   3.239   8.226   5.534  2.1937 -4.4756 -2.6574
  352MOL0     H46425   3.062   8.203   5.519 -1.9342 -0.1758  1.4691
  352MOL0     H46426   3.242   7.792   5.512 -0.1003  1.1229  2.9407
  352MOL0     H46427   3.071   7.603   5.480  2.8120 -0.0111  2.2756
  352MOL0     H46428   2.438   7.616   5.431  0.1931 -0.9489 -0.3225
  352MOL0     H46429   2.291   7.448   5.340 -0.0125 -0.9835  1.4391
  352MOL0     H46430   2.162   7.229   5.222 -1.3583 -1.4156 -1.3485
  352MOL0     H46431   2.287   7.198   5.344  1.5953  2.3515 -0.9877
  352MOL0     H46432   2.325   6.980   5.254 -0.0551 -0.5222  1.2354
  352MOL0     H46433   2.286   7.039   5.097  0.2990  0.1904  0.1340
  352MOL0     H46434   2.028   7.041   5.149 -1.3419  0.4811  2.2391
  352MOL0     H46435   2.067   6.977   5.309 -2.2648  0.7738 -1.1005
  352MOL0     H46436   2.154   6.855   5.049  2.3722 -1.7978  1.4985
  352MOL0     H46437   2.145   6.778   5.203 -1.9650 -0.8203 -0.2432
  352MOL0     H46438   1.937   6.701   5.088 -2.5096  0.2837 -2.0659
  352MOL0     H46439   1.896   6.867   5.048 -1.7740 -0.3582 -0.8087
  352MOL0     H46440   1.848   6.948   5.245  4.1327  0.1395 -2.3098
  352MOL0     H46441   1.906   6.816   5.341 -0.2608 -1.8943 -0.0697
  352MOL0     H46442   1.652   6.811   5.322 -0.2230 -1.2022  0.0695
  352MOL0     H46443   1.675   6.815   5.148  2.9211  2.9735  0.2189
  352MOL0     H46444   1.767   6.584   5.315 -2.0929 -0.7792  0.4462
  352MOL0     H46445   1.739   6.594   5.135 -1.9905  0.7501 -1.8780
  352MOL0     H46446   2.617   7.267   5.139  0.6763 -1.7762  2.9421
  352MOL0     H46447   2.770   7.437   5.239 -0.4484  2.0170 -2.6331
  352MOL0     H46448   2.752   7.884   5.528  0.1208  0.1672  0.7430
  352MOL0     H46449   2.908   8.060   5.550  1.4972 -0.0677  0.6404
  352MOL0     H46450   2.018   8.355   5.785 -0.8733 -3.8948 -0.3246
  352MOL0     H46451   1.783   8.245   5.821  0.5983 -1.3920  0.7388
  352MOL0     H46452   1.235   8.425   6.064  3.0007  0.9283 -2.9599
  352MOL0     H46453   1.033   8.284   6.040 -0.1621  0.9801 -0.1701
  352MOL0     H46454   0.861   7.984   6.055 -0.8005 -2.5338  0.2793
  352MOL0     H46455   1.003   8.022   6.158  2.6556 -1.8165  1.1495
  352MOL0     H46456   1.107   7.812   6.079  0.3506 -1.0944  2.7177
  352MOL0     H46457   0.949   7.795   6.164 -1.9742  1.4246 -0.4088
  352MOL0     H46458   0.986   7.775   5.865 -3.3722 -0.4953 -1.6033
  352MOL0     H46459   0.829   7.768   5.933  0.2747 -1.4251 -3.4214
  352MOL0     H46460   1.049   7.569   5.977 -0.2410 -0.9650 -0.6645
  352MOL0     H46461   0.895   7.570   6.060  0.0789  0.1351  0.8393
  352MOL0     H46462   0.769   7.438   5.673  2.5110 -0.6747 -0.5868
  352MOL0     H46463   1.265   7.957   5.922 -1.1325  0.9925 -0.1758
  352MOL0     H46464   1.483   8.090   5.952  0.1072 -0.0732  1.1795
  353MOL0     O46465   4.532   6.974   7.201  0.4027 -0.6724 -0.2601
  353MOL0     C46466   4.535   6.862   7.240  0.5886 -0.2587  0.4372
  353MOL0     O46467   4.444   6.794   7.319  0.3164  0.1625 -0.0132
  353MOL0     C46468   4.313   6.836   7.349 -0.6509  0.0055  0.5357
  353MOL0     C46469   4.257   6.767   7.458 -0.6399  0.1994 -0.3428
  353MOL0     C46470   4.122   6.793   7.488 -0.1501  0.2573  0.5659
  353MOL0     C46471   4.047   6.890   7.423  1.0054  0.0635  0.1861
  353MOL0     O46472   3.913   6.916   7.461 -0.0548 -0.2531  0.2285
  353MOL0     C46473   3.851   7.037   7.411  0.3075 -0.5309  0.0926
  353MOL0     C46474   3.732   7.097   7.496 -0.1460 -0.2248 -0.5582
  353MOL0     C46475   3.682   7.221   7.430 -0.5808  0.2503  0.6605
  353MOL0     C46476   3.559   7.273   7.504  0.5110 -0.0534 -0.1159
  353MOL0     C46477   3.466   7.350   7.399  0.6651 -0.1415 -1.1893
  353MOL0     C46478   3.336   7.376   7.461 -0.2687  0.2368  0.2280
  353MOL0     C46479   3.261   7.463   7.365 -0.0743 -0.5896  0.7980
  353MOL0     C46480   3.199   7.382   7.260  0.7532  0.5873 -0.4459
  353MOL0     N46481   3.086   7.434   7.200  0.9883 -0.8238  0.2664
  353MOL0     C46482   3.054   7.563   7.168  0.3245  0.0202  0.4935
  353MOL0     C46483   2.942   7.553   7.087 -0.4453 -0.4068 -0.3837
  353MOL0     C46484   2.870   7.666   7.016  0.4212  0.4687 -0.2232
  353MOL0     C46485   2.735   7.700   7.082 -0.4495 -0.0887 -0.1603
  353MOL0     C46486   2.658   7.815   7.009 -0.0012 -0.6068 -1.1451
  353MOL0     C46487   2.631   7.785   6.860  0.5817  0.1408  0.6357
  353MOL0     O46488   2.605   7.646   6.836 -0.3401  0.6651 -0.3955
  353MOL0     C46489   2.477   7.589   6.831 -0.8815  0.9402  1.3211
  353MOL0     C46490   2.463   7.450   6.835 -0.9858  0.4722  0.2587
  353MOL0     C46491   2.347   7.381   6.855  0.1102 -0.8760  0.3958
  353MOL0     C46492   2.226   7.461   6.858  0.0861  0.7413  0.5695
  353MOL0     C46493   2.091   7.402   6.889 -0.2175  0.0418  1.3664
  353MOL0     O46494   1.991   7.486   6.922  0.0832 -0.0639  0.1487
  353MOL0     C46495   1.872   7.425   6.948  0.6395 -0.2532  0.1648
  353MOL0     C46496   1.808   7.472   7.059  0.4578 -0.1457 -0.2338
  353MOL0     C46497   1.682   7.426   7.107 -0.6176 -0.2079  0.7005
  353MOL0     C46498   1.617   7.319   7.035  0.6285 -0.6276 -0.3772
  353MOL0     O46499   1.508   7.254   7.081 -0.2317  0.3846 -0.3169
  353MOL0     C46500   1.444   7.297   7.203  0.4952 -1.0042 -0.4389
  353MOL0     C46501   1.332   7.191   7.249 -0.3627  0.8507  0.0290
  353MOL0     C46502   1.297   7.166   7.399 -0.2681 -0.3153  0.6665
  353MOL0     C46503   1.155   7.100   7.412 -1.1867  0.7047 -0.5711
  353MOL0     C46504   1.055   7.195   7.480 -1.0290  0.4413  0.1425
  353MOL0     C46505   0.914   7.133   7.473  0.1272  0.4518 -0.1991
  353MOL0     C46506   0.821   7.228   7.549 -0.2504  0.1797  0.5443
  353MOL0     C46507   0.671   7.191   7.538 -0.0377  0.5702 -0.0897
  353MOL0    Cl46508   0.632   7.052   7.640 -0.3224  0.1311  0.1412
  353MOL0     C46509   1.678   7.273   6.919 -0.5263  0.0714  0.6410
  353MOL0     C46510   1.804   7.322   6.885 -0.2010  0.1876  0.2513
  353MOL0     O46511   2.084   7.280   6.896 -0.6870  0.6820  0.0714
  353MOL0     C46512   2.234   7.601   6.852  0.6156  1.1354  0.6465
  353MOL0     C46513   2.358   7.661   6.841  0.1166 -0.1482  0.1586
  353MOL0     N46514   2.901   7.423   7.083 -0.0041  0.4482  0.2918
  353MOL0     N46515   2.987   7.353   7.145  0.4529 -0.8368  0.1736
  353MOL0     C46516   4.103   6.962   7.317 -0.4773 -0.7790  0.1901
  353MOL0     C46517   4.237   6.935   7.282 -0.1387 -0.5318 -0.1015
  353MOL0     C46518   4.650   6.784   7.198 -0.5240  0.2832 -0.1070
  353MOL0     C46519   4.751   6.831   7.114 -0.1203  0.0319 -0.6911
  353MOL0     C46520   4.863   6.759   7.071 -0.6819  0.5380 -0.2573
  353MOL0     C46521   4.888   6.634   7.125  1.5584  0.2354 -0.5408
  353MOL0     O46522   5.010   6.576   7.092 -0.5140  1.2548  0.0155
  353MOL0     C46523   5.019   6.437   7.128  0.1131 -0.3301 -0.2582
  353MOL0     C46524   5.164   6.397   7.109  0.7707 -0.5259  0.1408
  353MOL0     C46525   5.199   6.253   7.164  0.2304  0.8920 -0.6212
  353MOL0     C46526   5.350   6.210   7.135 -0.0166  0.4432  0.4494
  353MOL0     C46527   5.378   6.066   7.161  0.1974 -0.8674 -0.4330
  353MOL0     C46528   5.393   5.946   7.171 -0.0836 -0.4337  0.3444
  353MOL0     C46529   4.778   6.574   7.198  0.3337 -0.7524  0.5419
  353MOL0     C46530   4.665   6.651   7.228 -0.3558  0.3659  0.1070
  353MOL0     H46531   4.322   6.696   7.508 -2.9234 -0.8248  1.3773
  353MOL0     H46532   4.080   6.733   7.568 -0.1749 -0.9212 -0.3012
  353MOL0     H46533   3.810   7.015   7.312 -0.9785 -2.3860  0.9933
  353MOL0     H46534   3.917   7.125   7.410 -1.9314  1.4046  3.0647
  353MOL0     H46535   3.759   7.116   7.600 -1.2251 -0.0287 -0.3046
  353MOL0     H46536   3.656   7.018   7.508 -1.6592  1.4860  2.0390
  353MOL0     H46537   3.660   7.202   7.324  2.1548  0.6241 -0.0555
  353MOL0     H46538   3.761   7.297   7.429 -1.1211  0.8286  0.6116
  353MOL0     H46539   3.508   7.184   7.543  0.6469 -0.0578  0.0524
  353MOL0     H46540   3.595   7.336   7.586  0.1483 -1.8025  1.4783
  353MOL0     H46541   3.452   7.281   7.316 -1.7899 -2.1786  0.7400
  353MOL0     H46542   3.518   7.440   7.365 -0.4118  0.5729 -0.9774
  353MOL0     H46543   3.350   7.439   7.550 -1.5039  0.1493  0.4959
  353MOL0     H46544   3.274   7.288   7.480 -0.1460 -0.8757 -3.7298
  353MOL0     H46545   3.181   7.508   7.423 -0.9432 -1.3286  0.1929
  353MOL0     H46546   3.322   7.546   7.326 -2.9326  0.3361 -2.1218
  353MOL0     H46547   3.177   7.283   7.299 -1.2891 -0.1607 -3.1739
  353MOL0     H46548   3.263   7.364   7.174 -0.8796 -3.4264 -1.0478
  353MOL0     H46549   3.113   7.652   7.189 -2.2133  1.5273  1.8127
  353MOL0     H46550   2.855   7.639   6.910  2.1978  1.6242 -0.7953
  353MOL0     H46551   2.931   7.756   7.018  2.5167 -0.8848 -0.0335
  353MOL0     H46552   2.754   7.726   7.186  0.9843 -2.7875  0.3567
  353MOL0     H46553   2.682   7.604   7.084  1.2399 -1.0361  0.5944
  353MOL0     H46554   2.563   7.808   7.063  0.9301 -1.7672  0.4231
  353MOL0     H46555   2.695   7.918   7.011 -0.1367 -0.5435 -1.5784
  353MOL0     H46556   2.713   7.804   6.790  1.0393 -1.4805  0.6884
  353MOL0     H46557   2.553   7.851   6.820  0.4609 -0.2870  0.1437
  353MOL0     H46558   2.549   7.386   6.816 -0.1414  1.2656  1.2050
  353MOL0     H46559   2.362   7.276   6.876 -0.7975 -1.0060  0.4261
  353MOL0     H46560   1.858   7.556   7.106 -0.4624  0.3495 -0.1077
  353MOL0     H46561   1.647   7.458   7.205 -3.4237 -1.7370  0.3093
  353MOL0     H46562   1.407   7.400   7.200  0.9389 -0.8063  0.6506
  353MOL0     H46563   1.519   7.302   7.282 -1.0579  0.0393  1.0398
  353MOL0     H46564   1.363   7.097   7.203 -1.0384  0.3348  0.6001
  353MOL0     H46565   1.244   7.210   7.185 -0.7342 -1.2157 -0.1456
  353MOL0     H46566   1.284   7.269   7.436 -0.0174 -0.4627  1.1687
  353MOL0     H46567   1.376   7.122   7.461  0.6632  4.3511  3.3077
  353MOL0     H46568   1.116   7.070   7.314  0.4843 -0.7999 -0.8277
  353MOL0     H46569   1.159   7.011   7.475  0.1321 -0.1044 -1.7550
  353MOL0     H46570   1.047   7.296   7.438 -0.5918  0.5729  0.3729
  353MOL0     H46571   1.086   7.207   7.584 -2.2675 -3.9789  1.2365
  353MOL0     H46572   0.907   7.036   7.523  0.1542  0.2283 -0.6281
  353MOL0     H46573   0.880   7.108   7.372  2.5057  0.6937 -1.1197
  353MOL0     H46574   0.846   7.242   7.654 -3.4423  1.7534  1.2469
  353MOL0     H46575   0.823   7.326   7.500  0.1776 -0.2777 -0.3780
  353MOL0     H46576   0.652   7.163   7.434 -0.0235 -0.1427  0.0905
  353MOL0     H46577   0.613   7.274   7.579 -1.0033 -0.8446  1.5840
  353MOL0     H46578   1.641   7.187   6.864  1.1198 -1.0635  1.2354
  353MOL0     H46579   1.858   7.276   6.803 -0.5155  1.8029 -0.9060
  353MOL0     H46580   2.148   7.666   6.859 -0.4090  0.2476 -2.2205
  353MOL0     H46581   2.357   7.770   6.838 -1.7515 -0.1211  0.7698
  353MOL0     H46582   4.053   7.037   7.256  0.0602  1.0741  1.9295
  353MOL0     H46583   4.276   7.003   7.206  0.2660 -2.0202 -1.2654
  353MOL0     H46584   4.748   6.933   7.076  0.5981 -0.4982 -2.2135
  353MOL0     H46585   4.945   6.806   7.018  1.2670  0.3664  2.4067
  353MOL0     H46586   4.960   6.371   7.063 -0.4338  0.5116 -0.6253
  353MOL0     H46587   4.997   6.408   7.231  1.6342  2.0938  0.8256
  353MOL0     H46588   5.189   6.405   7.003  0.4722 -1.4333 -0.0083
  353MOL0     H46589   5.227   6.470   7.161  0.1328  2.8230 -3.3064
  353MOL0     H46590   5.138   6.178   7.112  0.2549 -1.2262  2.1972
  353MOL0     H46591   5.173   6.240   7.269  3.5914  0.1260  0.2171
  353MOL0     H46592   5.378   6.231   7.032 -0.8321 -1.2199 -0.1558
  353MOL0     H46593   5.419   6.263   7.201  0.4787  2.0346 -1.2605
  353MOL0     H46594   5.411   5.840   7.173  0.4395 -0.3887 -1.0471
  353MOL0     H46595   4.779   6.473   7.238 -1.0953 -0.6127  1.0007
  353MOL0     H46596   4.596   6.602   7.295 -0.0245 -3.0626 -1.8022
  354MOL0     O46597   3.482   7.955   4.542  0.0031 -0.1785 -1.2688
  354MOL0     C46598   3.452   7.855   4.600 -0.3789 -0.3251  0.0288
  354MOL0     O46599   3.333   7.827   4.650 -0.0076 -1.2388 -0.1254
  354MOL0     C46600   3.216   7.897   4.620 -0.0990 -0.5163  0.4723
  354MOL0     C46601   3.207   8.037   4.605  1.1736  0.3091  0.5800
  354MOL0     C46602   3.082   8.092   4.569  0.4838 -0.5383 -0.4638
  354MOL0     C46603   2.971   8.009   4.533 -1.2702  0.5589 -0.1588
  354MOL0     O46604   2.844   8.051   4.503  0.6287  0.8136  0.0626
  354MOL0     C46605   2.830   8.138   4.393  0.1021 -0.0225 -0.2706
  354MOL0     C46606   2.725   8.079   4.301  0.8122 -0.3181 -0.1677
  354MOL0     C46607   2.576   8.096   4.361  0.4838  0.0849 -0.3498
  354MOL0     C46608   2.532   7.991   4.476  0.0430 -0.1097  0.4283
  354MOL0     C46609   2.391   8.004   4.520  0.1435  0.2360 -0.0274
  354MOL0     C46610   2.362   7.916   4.636 -0.3703 -0.5180 -0.1892
  354MOL0     C46611   2.213   7.900   4.659  0.1146 -0.4115  0.9118
  354MOL0     C46612   2.126   7.851   4.543  0.9087  0.0485  0.8486
  354MOL0     N46613   1.982   7.840   4.575 -0.0341  0.7293 -0.0786
  354MOL0     C46614   1.921   7.757   4.671 -0.2511 -0.2920 -0.7523
  354MOL0     C46615   1.785   7.767   4.644  0.1900  1.3541  0.0823
  354MOL0     C46616   1.666   7.688   4.692 -0.3100  0.0826  0.1362
  354MOL0     C46617   1.574   7.747   4.795  0.1533 -0.4060 -0.0722
  354MOL0     C46618   1.450   7.666   4.835 -0.5304 -0.4801  0.0241
  354MOL0     C46619   1.365   7.729   4.944 -0.5100  0.0359  0.6561
  354MOL0     O46620   1.265   7.628   4.988 -0.9821 -0.0383  0.5011
  354MOL0     C46621   1.166   7.666   5.077 -0.1663  0.1817  0.3994
  354MOL0     C46622   1.107   7.564   5.159 -0.4451  0.2161 -0.0089
  354MOL0     C46623   1.010   7.597   5.251 -0.2094 -0.1851 -0.3756
  354MOL0     C46624   0.963   7.729   5.268 -0.5028  0.6802  0.1248
  354MOL0     C46625   0.857   7.758   5.363 -0.0822  0.6042 -0.1827
  354MOL0     O46626   0.863   7.874   5.434  0.8449  0.3442 -1.1025
  354MOL0     C46627   0.755   7.880   5.522 -0.5883 -0.0873 -0.6149
  354MOL0     C46628   0.620   7.867   5.485 -0.3007  0.3866 -0.1146
  354MOL0     C46629   0.518   7.885   5.583 -0.0588  0.4282  0.6663
  354MOL0     C46630   0.551   7.918   5.711 -0.9886 -0.1337 -0.7760
  354MOL0     O46631   0.472   7.955   5.820 -0.1482 -0.2207  0.0355
  354MOL0     C46632   0.337   7.992   5.795  0.0380 -1.2849 -0.2894
  354MOL0     C46633   0.275   8.083   5.913 -0.0813  0.3297 -0.0702
  354MOL0     C46634   0.119   8.087   5.900 -0.2892  0.0582 -0.0872
  354MOL0     C46635   0.042   7.951   5.917  0.5347 -0.0982  0.6012
  354MOL0     C46636   0.047   7.917   6.061  0.4777  0.0555 -0.0088
  354MOL0     C46637  -0.026   7.781   6.097  0.2053  0.0451  0.2336
  354MOL0     C46638  -0.018   7.764   6.252  0.0832 -0.7891 -0.3766
  354MOL0     C46639  -0.049   7.628   6.306 -0.2037 -0.2612  0.1169
  354MOL0    Cl46640  -0.050   7.642   6.486 -0.2733  0.1769 -0.2365
  354MOL0     C46641   0.688   7.931   5.747 -0.3382 -0.9677 -0.1211
  354MOL0     C46642   0.785   7.914   5.653  0.4455  0.6453  0.1075
  354MOL0     O46643   0.785   7.653   5.393  0.2688 -0.3809  0.2793
  354MOL0     C46644   1.029   7.827   5.198  0.4881 -0.4696  0.0039
  354MOL0     C46645   1.123   7.799   5.100  0.1493  0.3982  0.6088
  354MOL0     N46646   1.766   7.873   4.557  0.1501 -0.6440  0.2115
  354MOL0     N46647   1.882   7.910   4.513 -0.0386  0.0382  0.0874
  354MOL0     C46648   2.985   7.871   4.551 -0.0434 -0.3952  0.3089
  354MOL0     C46649   3.111   7.818   4.601  0.6535  0.2439 -0.1089
  354MOL0     C46650   3.561   7.761   4.628  0.1351 -1.1720  0.0191
  354MOL0     C46651   3.554   7.654   4.723  0.2607 -0.5765 -0.9260
  354MOL0     C46652   3.659   7.568   4.744 -0.5953  0.4196 -0.0962
  354MOL0     C46653   3.782   7.592   4.676  0.3343 -0.9435 -0.2178
  354MOL0     O46654   3.883   7.507   4.676 -0.1965 -0.4936 -0.3869
  354MOL0     C46655   3.920   7.444   4.801 -0.1223 -0.2754  0.0207
  354MOL0     C46656   4.075   7.407   4.803 -0.3840 -0.7240 -0.4864
  354MOL0     C46657   4.114   7.340   4.937 -0.1663 -0.3540  0.4467
  354MOL0     C46658   4.127   7.440   5.053  0.4346  0.6450  0.2385
  354MOL0     C46659   4.152   7.375   5.180 -0.0435 -0.3437 -0.4638
  354MOL0     C46660   4.183   7.321   5.284 -0.1935  1.2801  0.8004
  354MOL0     C46661   3.791   7.694   4.586 -0.5087  0.2375  0.3682
  354MOL0     C46662   3.681   7.778   4.561 -0.2392  0.4825  0.8646
  354MOL0     H46663   3.282   8.111   4.628  2.2876 -0.6263  0.0290
  354MOL0     H46664   3.077   8.200   4.562  1.3567 -0.5288 -1.0170
  354MOL0     H46665   2.925   8.149   4.339  1.5024 -2.1840  1.5480
  354MOL0     H46666   2.795   8.235   4.430  3.1788  0.2045  2.5807
  354MOL0     H46667   2.745   7.972   4.285  0.5683 -0.3833 -0.0469
  354MOL0     H46668   2.744   8.130   4.207  5.6293 -0.2405  0.5991
  354MOL0     H46669   2.510   8.086   4.275  0.3648  1.2208 -0.4099
  354MOL0     H46670   2.569   8.200   4.395 -0.6071 -0.2503  0.5200
  354MOL0     H46671   2.551   7.889   4.443 -0.3447 -1.0947  2.9825
  354MOL0     H46672   2.591   8.003   4.567 -0.4598  1.8399  0.5463
  354MOL0     H46673   2.332   7.969   4.435 -0.7305  1.2668  0.1321
  354MOL0     H46674   2.368   8.106   4.553 -1.7445  0.0721 -0.7164
  354MOL0     H46675   2.403   7.957   4.729  0.3388 -0.4499 -0.5189
  354MOL0     H46676   2.401   7.814   4.633 -0.5047 -0.6743  1.8495
  354MOL0     H46677   2.207   7.831   4.743 -2.8796 -0.1550  1.0099
  354MOL0     H46678   2.179   8.000   4.688 -0.8220 -1.2335  2.8066
  354MOL0     H46679   2.154   7.749   4.515  0.2772  0.2773 -0.7500
  354MOL0     H46680   2.128   7.919   4.457 -0.5204  3.1200  3.0526
  354MOL0     H46681   1.972   7.688   4.738 -3.2727  0.4879  2.6885
  354MOL0     H46682   1.707   7.597   4.735  0.5002 -0.2416 -1.2695
  354MOL0     H46683   1.605   7.664   4.604 -2.4142 -0.9562  1.7796
  354MOL0     H46684   1.537   7.849   4.779  1.6037  0.4039  1.3483
  354MOL0     H46685   1.643   7.762   4.879  2.5129  1.0364 -2.1104
  354MOL0     H46686   1.385   7.670   4.747 -0.6583 -1.5362  0.0581
  354MOL0     H46687   1.482   7.563   4.854  3.3051  0.6764  0.5762
  354MOL0     H46688   1.316   7.814   4.895  2.1489  3.8948  3.9402
  354MOL0     H46689   1.428   7.758   5.029 -0.0531 -0.2765  0.4315
  354MOL0     H46690   1.151   7.465   5.156  0.5135  0.6248  0.4252
  354MOL0     H46691   0.978   7.518   5.319  1.0878 -0.7165 -0.3573
  354MOL0     H46692   0.587   7.843   5.385  0.8102 -0.4969 -0.2877
  354MOL0     H46693   0.413   7.895   5.560 -0.4190  0.9630  2.4245
  354MOL0     H46694   0.267   7.908   5.796 -1.3525 -0.1810  1.4237
  354MOL0     H46695   0.336   8.051   5.703  0.8123  1.9680  1.6346
  354MOL0     H46696   0.320   8.182   5.898 -1.0761  1.4864  3.4439
  354MOL0     H46697   0.318   8.047   6.007  1.3679  1.4232 -0.2712
  354MOL0     H46698   0.111   8.118   5.795  1.7802  0.2139 -0.2469
  354MOL0     H46699   0.073   8.165   5.962 -0.4396 -0.1530  0.0645
  354MOL0     H46700  -0.059   7.961   5.875  1.1304 -2.9950 -1.8411
  354MOL0     H46701   0.091   7.871   5.862 -0.0759 -1.6062  2.1492
  354MOL0     H46702   0.017   7.998   6.128  1.0473 -1.9843  2.8839
  354MOL0     H46703   0.148   7.892   6.095  0.4468 -1.0764 -0.7146
  354MOL0     H46704   0.020   7.694   6.049  2.2713  1.2270 -0.0268
  354MOL0     H46705  -0.125   7.782   6.051  1.4065 -0.5214 -2.6096
  354MOL0     H46706   0.084   7.779   6.288 -0.8290 -2.1781  3.1440
  354MOL0     H46707  -0.088   7.833   6.300 -0.0501 -0.5780 -0.8611
  354MOL0     H46708   0.034   7.562   6.278  1.2270  0.6015  2.1219
  354MOL0     H46709  -0.143   7.587   6.268  1.7756 -3.0974 -2.1678
  354MOL0     H46710   0.721   7.973   5.841 -2.4872  2.2552 -0.6503
  354MOL0     H46711   0.886   7.930   5.687  1.1610 -1.4729 -0.8858
  354MOL0     H46712   0.993   7.928   5.217 -1.5417 -1.0971 -0.3073
  354MOL0     H46713   1.169   7.877   5.040  1.0045 -0.3889  0.2214
  354MOL0     H46714   2.905   7.801   4.530  0.6749 -1.9508  2.4168
  354MOL0     H46715   3.112   7.717   4.641 -2.3920  0.7292  1.5216
  354MOL0     H46716   3.467   7.646   4.788  1.6416 -0.7102  1.0110
  354MOL0     H46717   3.651   7.492   4.822 -2.1025  0.4291 -0.1998
  354MOL0     H46718   3.866   7.351   4.823 -0.9671  0.6813  2.2229
  354MOL0     H46719   3.890   7.513   4.880 -1.2603  0.6001 -1.1329
  354MOL0     H46720   4.106   7.355   4.712 -1.7983 -1.2713 -0.6868
  354MOL0     H46721   4.133   7.500   4.803  1.9799 -2.1128  0.9690
  354MOL0     H46722   4.211   7.291   4.924  0.1013  0.9599 -3.7033
  354MOL0     H46723   4.039   7.264   4.964 -0.6218 -1.0504 -2.4909
  354MOL0     H46724   4.213   7.508   5.053  0.0699  1.2870  3.4893
  354MOL0     H46725   4.035   7.499   5.043  1.3521  1.7153 -3.8743
  354MOL0     H46726   4.219   7.263   5.367  2.0044  1.0539 -0.2466
  354MOL0     H46727   3.874   7.695   4.516 -0.3001 -0.8023  0.5859
  354MOL0     H46728   3.693   7.868   4.501 -1.7249  0.5682  0.6429
  355MOL0     O46729   2.940   6.911   9.970  1.2334 -0.1106  0.5008
  355MOL0     C46730   3.053   6.926   9.940  1.0587 -0.9894 -0.2173
  355MOL0     O46731   3.120   6.839   9.864 -0.8188  0.1066  0.4686
  355MOL0     C46732   3.068   6.707   9.875  0.1651 -0.3332 -0.6402
  355MOL0     C46733   3.123   6.613   9.950  0.0673  0.4859 -0.8938
  355MOL0     C46734   3.061   6.491   9.972 -0.4793  0.2808  0.1902
  355MOL0     C46735   2.946   6.457   9.888  0.0310 -0.6381  0.0728
  355MOL0     O46736   2.871   6.341   9.900  0.1216 -0.0584  0.5785
  355MOL0     C46737   2.914   6.256  10.003 -0.6176 -0.1151 -0.0256
  355MOL0     C46738   2.803   6.159  10.007  1.0211  0.1163 -0.7047
  355MOL0     C46739   2.818   6.062  10.124 -0.1680  0.3099  0.1617
  355MOL0     C46740   2.724   5.946  10.133  0.8032  0.5164  0.1315
  355MOL0     C46741   2.760   5.835  10.241 -0.2753 -1.2295  1.1642
  355MOL0     C46742   2.681   5.712  10.201  0.4437 -0.0945  0.6587
  355MOL0     C46743   2.733   5.600  10.289  0.6921  0.2392  0.5320
  355MOL0     C46744   2.647   5.468  10.281 -0.1145  0.2271  0.3771
  355MOL0     N46745   2.687   5.375  10.387  0.2462 -0.0786 -0.4282
  355MOL0     C46746   2.642   5.369  10.521 -0.2886  0.8896  0.3858
  355MOL0     C46747   2.682   5.249  10.567 -0.2075 -0.4848  0.2921
  355MOL0     C46748   2.643   5.188  10.694  0.1831 -0.3808 -0.2417
  355MOL0     C46749   2.493   5.214  10.717  0.1719  0.5138  0.2622
  355MOL0     C46750   2.440   5.112  10.813  0.4380  0.1783 -0.0311
  355MOL0     C46751   2.307   5.160  10.869 -0.0596 -0.2323 -0.7465
  355MOL0     O46752   2.206   5.153  10.761  0.2287 -0.1519  0.1062
  355MOL0     C46753   2.074   5.144  10.791  0.1000 -0.6428  0.1543
  355MOL0     C46754   2.025   5.120  10.915 -0.0273 -0.0547 -0.2791
  355MOL0     C46755   1.885   5.102  10.936  0.5162 -1.2013 -0.4617
  355MOL0     C46756   1.785   5.128  10.834 -0.3953 -0.0063 -0.0115
  355MOL0     C46757   1.647   5.108  10.865  0.6666  0.0484  0.7706
  355MOL0     O46758   1.600   5.075  10.991 -0.1496  0.2201 -0.4055
  355MOL0     C46759   1.470   5.036  11.004  0.1325  0.6173 -0.3042
  355MOL0     C46760   1.362   5.122  11.042 -0.2661  1.3774 -0.1264
  355MOL0     C46761   1.232   5.076  11.065  0.2511  1.3959  0.0967
  355MOL0     C46762   1.197   4.945  11.032 -0.1127  0.4791 -0.6346
  355MOL0     O46763   1.070   4.881  11.048  0.2546 -0.1994 -0.1277
  355MOL0     C46764   0.960   4.962  11.022 -0.6629  0.8650  0.3024
  355MOL0     C46765   0.853   4.880  10.932 -0.0782 -0.3732 -0.7159
  355MOL0     C46766   0.909   4.811  10.808  0.7652  0.8777 -0.0653
  355MOL0     C46767   1.007   4.895  10.727 -0.4796  1.2226 -0.2462
  355MOL0     C46768   1.053   4.821  10.602  0.4023 -0.0537 -0.2678
  355MOL0     C46769   1.171   4.896  10.526  1.3242 -0.5871 -0.2484
  355MOL0     C46770   1.309   4.876  10.577  0.8224 -0.0237 -1.2443
  355MOL0     C46771   1.402   4.940  10.479  0.1561  0.8323  0.1987
  355MOL0    Cl46772   1.410   4.841  10.329 -0.1212 -0.7208 -0.1421
  355MOL0     C46773   1.304   4.860  10.996  0.0864 -0.4376  0.3258
  355MOL0     C46774   1.436   4.899  10.977 -0.1260 -0.3523  0.0876
  355MOL0     O46775   1.572   5.118  10.768  0.6793 -0.3300 -0.2812
  355MOL0     C46776   1.843   5.174  10.711 -0.6371  0.5767 -0.8352
  355MOL0     C46777   1.979   5.167  10.692 -0.2828  0.3773 -0.4128
  355MOL0     N46778   2.736   5.176  10.461 -0.1487 -0.5655 -0.2242
  355MOL0     N46779   2.758   5.265  10.368 -0.6601 -0.1837  0.9972
  355MOL0     C46780   2.906   6.541   9.782 -0.1112 -0.7620 -0.3515
  355MOL0     C46781   2.967   6.668   9.784 -0.3569 -1.0053  0.0474
  355MOL0     C46782   3.123   7.035   9.988 -0.2529 -0.1145 -0.2200
  355MOL0     C46783   3.066   7.139  10.062  0.7139 -1.1131 -0.6383
  355MOL0     C46784   3.139   7.242  10.106 -0.6108 -0.2830 -1.0025
  355MOL0     C46785   3.276   7.257  10.074  1.0893 -0.3455  0.6258
  355MOL0     O46786   3.340   7.371  10.121 -0.6402 -0.2379 -0.5808
  355MOL0     C46787   3.483   7.376  10.105  0.4111  0.2560  0.0020
  355MOL0     C46788   3.539   7.460  10.211 -0.8614 -0.4222  0.6056
  355MOL0     C46789   3.535   7.397  10.348 -0.0661 -0.5395  0.7290
  355MOL0     C46790   3.584   7.501  10.454  0.6211  0.5479 -1.4261
  355MOL0     C46791   3.726   7.533  10.464 -1.1966 -0.2727  0.0908
  355MOL0     C46792   3.849   7.560  10.459 -0.3618  0.0392 -0.0337
  355MOL0     C46793   3.329   7.162   9.994  0.1604  1.3344 -1.1014
  355MOL0     C46794   3.260   7.048   9.956  0.5294 -0.1319  0.4404
  355MOL0     H46795   3.209   6.656  10.001  1.2017  0.1776 -2.4800
  355MOL0     H46796   3.092   6.426  10.053 -1.4584 -2.0339 -1.2056
  355MOL0     H46797   2.920   6.303  10.101  1.5134  1.6347 -0.8952
  355MOL0     H46798   3.011   6.212   9.979 -1.5111 -1.9064 -0.5315
  355MOL0     H46799   2.792   6.100   9.915 -0.6564  0.2372 -0.6134
  355MOL0     H46800   2.705   6.206  10.016  0.4076 -1.4030  1.4079
  355MOL0     H46801   2.802   6.117  10.218 -0.6151  2.2922 -1.0140
  355MOL0     H46802   2.918   6.018  10.123  0.5145  1.8006 -0.3576
  355MOL0     H46803   2.619   5.971  10.146  0.4695  0.9683 -2.7915
  355MOL0     H46804   2.717   5.907  10.031  0.7349  3.2326 -0.9768
  355MOL0     H46805   2.741   5.869  10.343 -3.1498 -1.2904  0.7327
  355MOL0     H46806   2.866   5.814  10.225 -0.2958  0.2466 -1.4409
  355MOL0     H46807   2.710   5.696  10.097  1.7807  0.4501  0.9306
  355MOL0     H46808   2.573   5.727  10.206  0.5522  0.8615  0.3463
  355MOL0     H46809   2.839   5.581  10.272  0.7419 -1.5029  2.3906
  355MOL0     H46810   2.727   5.639  10.391  0.0432 -2.1423  1.4800
  355MOL0     H46811   2.671   5.410  10.192  2.3264 -1.4938  2.0254
  355MOL0     H46812   2.538   5.479  10.282 -0.5969 -3.3369  1.5012
  355MOL0     H46813   2.599   5.448  10.582  1.2999  1.2877  1.0605
  355MOL0     H46814   2.685   5.235  10.783 -1.0485 -1.2348  0.8345
  355MOL0     H46815   2.672   5.082  10.700  3.1601  0.4427  2.8461
  355MOL0     H46816   2.437   5.221  10.623  1.3548  1.4245 -0.4069
  355MOL0     H46817   2.479   5.314  10.760  1.2965 -0.2645  2.5798
  355MOL0     H46818   2.427   5.017  10.760  2.9899 -0.0297 -0.4258
  355MOL0     H46819   2.500   5.103  10.904 -0.0779  1.9091  0.5240
  355MOL0     H46820   2.298   5.262  10.907 -3.2660 -1.0006  0.9454
  355MOL0     H46821   2.274   5.098  10.953 -1.1801  2.6236  1.0505
  355MOL0     H46822   2.085   5.098  11.003 -1.4983  0.0167  0.7868
  355MOL0     H46823   1.842   5.075  11.032 -2.2178  2.4903 -0.4360
  355MOL0     H46824   1.398   5.216  11.082 -1.6297  1.7252  0.3337
  355MOL0     H46825   1.150   5.138  11.100 -1.0426  1.0186 -2.0830
  355MOL0     H46826   0.986   5.059  10.978  1.4489  1.3529  2.3946
  355MOL0     H46827   0.916   4.984  11.120 -1.9214  4.2204 -0.8619
  355MOL0     H46828   0.767   4.939  10.902 -0.0466  0.9062  1.4972
  355MOL0     H46829   0.807   4.799  10.990 -1.2585  0.9558  0.2680
  355MOL0     H46830   0.822   4.797  10.742  1.2902  2.3036 -1.1102
  355MOL0     H46831   0.964   4.720  10.834  0.6441 -0.1849 -3.0448
  355MOL0     H46832   0.973   4.997  10.707 -5.9441 -0.2514 -0.1983
  355MOL0     H46833   1.094   4.899  10.793 -1.9858 -1.3425  2.1075
  355MOL0     H46834   0.976   4.805  10.526 -0.0030 -0.3583  0.1997
  355MOL0     H46835   1.078   4.720  10.636 -1.9883 -0.6515 -0.1047
  355MOL0     H46836   1.152   5.001  10.549  0.7978 -1.0446  1.5944
  355MOL0     H46837   1.165   4.881  10.418 -0.2586 -2.1384  0.0196
  355MOL0     H46838   1.320   4.932  10.670 -0.9472 -0.6662 -0.6102
  355MOL0     H46839   1.323   4.769  10.598 -0.3381  0.2485  1.3042
  355MOL0     H46840   1.497   4.936  10.532 -0.1537 -2.7258  0.7166
  355MOL0     H46841   1.372   5.044  10.459 -1.4965  0.4349  0.4221
  355MOL0     H46842   1.274   4.756  10.984  4.1346 -1.6169 -1.1908
  355MOL0     H46843   1.513   4.829  10.946  2.1785  1.7589  0.7539
  355MOL0     H46844   1.766   5.197  10.638 -1.6584 -3.1430 -1.1327
  355MOL0     H46845   2.026   5.194  10.598  2.2920  1.3770  1.0677
  355MOL0     H46846   2.834   6.503   9.711 -1.4730 -0.6562  0.9315
  355MOL0     H46847   2.944   6.743   9.709 -2.3429 -0.0533  1.5202
  355MOL0     H46848   2.959   7.137  10.082  0.2285 -2.6888 -2.9694
  355MOL0     H46849   3.095   7.322  10.165 -0.1652 -0.6557 -0.1509
  355MOL0     H46850   3.509   7.421  10.009 -1.9472 -3.2608 -2.5158
  355MOL0     H46851   3.532   7.278  10.104  0.1366  0.1218 -0.5474
  355MOL0     H46852   3.644   7.474  10.184 -1.2564  5.1292  0.8675
  355MOL0     H46853   3.498   7.561  10.217 -1.6492 -0.5866 -1.2571
  355MOL0     H46854   3.590   7.304  10.364  0.8389  0.3137  3.0029
  355MOL0     H46855   3.430   7.372  10.367  0.3603 -2.2613  0.9193
  355MOL0     H46856   3.523   7.591  10.445  0.3760  0.6156  0.3876
  355MOL0     H46857   3.559   7.460  10.553 -2.8190  2.9500 -1.1137
  355MOL0     H46858   3.955   7.574  10.456 -0.4483  0.4723 -1.6818
  355MOL0     H46859   3.434   7.161   9.966  1.4432 -0.5700  2.9049
  355MOL0     H46860   3.314   6.968   9.907  0.4275 -0.8471  1.4774
  356MOL0     O46861   5.331   9.645  11.180 -0.5575 -0.0579  0.7210
  356MOL0     C46862   5.334   9.604  11.297 -0.3238 -0.3612  0.2055
  356MOL0     O46863   5.230   9.584  11.381 -0.5289  0.3004 -0.4016
  356MOL0     C46864   5.102   9.598  11.325 -0.2711 -0.4178 -0.2385
  356MOL0     C46865   5.064   9.716  11.245 -0.5943  0.0716 -0.8522
  356MOL0     C46866   4.933   9.734  11.215 -0.3369  0.6032 -0.3822
  356MOL0     C46867   4.836   9.636  11.242  0.8092  0.2119 -0.3565
  356MOL0     O46868   4.705   9.646  11.211 -0.0812  0.2938  0.1747
  356MOL0     C46869   4.642   9.763  11.262  0.7583 -0.0410 -0.1414
  356MOL0     C46870   4.506   9.733  11.321 -0.9529  0.5991  0.4162
  356MOL0     C46871   4.549   9.638  11.435 -0.3177  0.3587  0.1433
  356MOL0     C46872   4.435   9.608  11.531  0.2144 -0.9710  0.4869
  356MOL0     C46873   4.456   9.469  11.594 -0.2717 -0.0097 -0.2841
  356MOL0     C46874   4.575   9.449  11.680  0.6325  0.6258 -0.3201
  356MOL0     C46875   4.579   9.318  11.745  0.5955 -0.0810 -0.2017
  356MOL0     C46876   4.713   9.285  11.809 -0.5819  1.4679  0.2138
  356MOL0     N46877   4.795   9.217  11.710 -0.5097  0.8007  0.2048
  356MOL0     C46878   4.796   9.076  11.695  0.0865 -0.0073 -0.1079
  356MOL0     C46879   4.876   9.042  11.586  0.2597 -0.4068 -0.3580
  356MOL0     C46880   4.905   8.905  11.530 -0.6844  0.6690 -0.2791
  356MOL0     C46881   4.805   8.791  11.573  0.4791 -0.0232  0.6413
  356MOL0     C46882   4.678   8.818  11.491  0.2199 -0.5181  0.2562
  356MOL0     C46883   4.574   8.703  11.488 -0.6926 -0.4602 -0.6503
  356MOL0     O46884   4.494   8.680  11.612  0.2835  0.7548 -0.2390
  356MOL0     C46885   4.385   8.595  11.594 -0.0318  0.2850  0.0448
  356MOL0     C46886   4.364   8.511  11.483 -0.6290  0.6010  0.2256
  356MOL0     C46887   4.243   8.429  11.474  0.9721 -0.1758 -0.0973
  356MOL0     C46888   4.138   8.441  11.574  0.0627 -0.6713  0.0595
  356MOL0     C46889   4.011   8.359  11.574 -0.4958 -0.6816 -0.2692
  356MOL0     O46890   4.001   8.264  11.481  0.3647 -0.1650 -0.2620
  356MOL0     C46891   3.874   8.207  11.464  0.1691 -0.5732  1.2662
  356MOL0     C46892   3.835   8.113  11.552 -0.3715  0.1715  0.0537
  356MOL0     C46893   3.712   8.045  11.531  0.8987 -0.2154  0.5945
  356MOL0     C46894   3.622   8.090  11.438 -0.3355  0.2549 -0.5260
  356MOL0     O46895   3.507   8.015  11.408  0.6230 -0.5436 -0.6466
  356MOL0     C46896   3.514   7.941  11.288 -0.3470 -0.0484  0.0133
  356MOL0     C46897   3.395   7.851  11.274  0.8584 -0.4395  0.8095
  356MOL0     C46898   3.269   7.937  11.265  0.2616 -0.2243  0.2507
  356MOL0     C46899   3.143   7.872  11.185  0.0263 -0.3754  0.4591
  356MOL0     C46900   3.006   7.914  11.246  0.9645  0.1681 -0.0768
  356MOL0     C46901   2.900   7.831  11.174  0.0894 -0.1951  0.3323
  356MOL0     C46902   2.766   7.863  11.238  0.7399  1.1095 -0.4703
  356MOL0     C46903   2.665   7.756  11.228 -0.5946  0.7365  0.4626
  356MOL0    Cl46904   2.706   7.622  11.341  0.1736 -0.0861  0.3043
  356MOL0     C46905   3.656   8.188  11.346 -0.3801  0.3854 -0.1131
  356MOL0     C46906   3.787   8.243  11.359  1.0447  0.5155  0.6330
  356MOL0     O46907   3.922   8.393  11.649 -0.4768 -0.8173 -0.5104
  356MOL0     C46908   4.162   8.532  11.681  0.5272  0.7381 -0.0776
  356MOL0     C46909   4.278   8.611  11.684 -0.4704  0.1202 -0.0379
  356MOL0     N46910   4.909   9.165  11.530  0.3773  0.2537  1.0879
  356MOL0     N46911   4.856   9.261  11.603  0.8178  0.4521  0.7612
  356MOL0     C46912   4.877   9.518  11.301  0.4380  0.7049 -0.3430
  356MOL0     C46913   5.008   9.499  11.342 -0.4247  0.3556 -0.0742
  356MOL0     C46914   5.461   9.565  11.350  1.1643  0.5394 -0.3172
  356MOL0     C46915   5.578   9.582  11.279  0.1046 -0.6835 -0.0765
  356MOL0     C46916   5.701   9.565  11.340 -0.2888  0.5961  0.6722
  356MOL0     C46917   5.701   9.521  11.477 -0.1021  0.5176  0.8879
  356MOL0     O46918   5.814   9.491  11.539 -0.4233  0.3834 -0.0247
  356MOL0     C46919   5.940   9.486  11.478  0.2009 -0.5162 -0.1616
  356MOL0     C46920   6.046   9.468  11.584 -0.9463  0.7744  0.0843
  356MOL0     C46921   6.182   9.466  11.522 -0.1373 -0.2279 -0.4675
  356MOL0     C46922   6.292   9.442  11.625 -0.0111 -0.1279 -0.1261
  356MOL0     C46923   6.424   9.465  11.573  0.0547  0.0607 -0.9888
  356MOL0     C46924   6.536   9.496  11.551  0.1429  0.8164 -0.2792
  356MOL0     C46925   5.583   9.487  11.544 -0.1839  0.8162  1.0481
  356MOL0     C46926   5.460   9.510  11.476 -0.1090  0.5239 -0.3069
  356MOL0     H46927   5.145   9.783  11.219  0.2348  1.0991  3.5512
  356MOL0     H46928   4.894   9.818  11.157 -1.6518  2.9009  3.4542
  356MOL0     H46929   4.629   9.836  11.182  1.3893 -1.6544 -1.7517
  356MOL0     H46930   4.703   9.809  11.340 -0.9977 -0.4486  1.5583
  356MOL0     H46931   4.441   9.680  11.251 -2.2741  1.2274  1.1423
  356MOL0     H46932   4.455   9.821  11.361 -0.2613  1.6689 -0.9326
  356MOL0     H46933   4.625   9.688  11.496  0.6025 -2.9246  1.8850
  356MOL0     H46934   4.596   9.543  11.410 -0.6568 -0.3667  2.1338
  356MOL0     H46935   4.428   9.695  11.598  2.4303  2.2122 -2.9637
  356MOL0     H46936   4.339   9.600  11.480  0.4697 -1.3214  0.0552
  356MOL0     H46937   4.460   9.399  11.510 -0.1228 -2.8847  1.9950
  356MOL0     H46938   4.369   9.443  11.655 -2.1264  3.1612 -1.2754
  356MOL0     H46939   4.568   9.528  11.756 -0.1099  0.8550 -0.6189
  356MOL0     H46940   4.668   9.466  11.626 -0.3399 -2.0942 -3.1168
  356MOL0     H46941   4.500   9.324  11.820  0.1315 -0.1414 -0.6775
  356MOL0     H46942   4.557   9.245  11.665 -0.2720  1.3827 -1.3591
  356MOL0     H46943   4.697   9.218  11.894  0.6031  0.7743 -0.0825
  356MOL0     H46944   4.784   9.358  11.849  2.2145 -0.5265 -0.7887
  356MOL0     H46945   4.759   9.005  11.768  1.9746 -3.3641 -2.1625
  356MOL0     H46946   5.003   8.873  11.566 -1.4277 -0.3725  0.9227
  356MOL0     H46947   4.903   8.903  11.421 -0.4467 -1.1960 -0.2862
  356MOL0     H46948   4.785   8.780  11.680  0.0375  1.5303  0.7386
  356MOL0     H46949   4.843   8.694  11.538 -2.3603 -1.4767  1.3173
  356MOL0     H46950   4.628   8.914  11.509 -0.4742 -0.9795  0.8424
  356MOL0     H46951   4.704   8.819  11.385 -0.2391  0.3723  0.1434
  356MOL0     H46952   4.623   8.606  11.474 -0.2242 -0.6692  1.9410
  356MOL0     H46953   4.518   8.723  11.396 -2.9036  0.1801  0.7533
  356MOL0     H46954   4.445   8.483  11.417  1.5174  0.5704  2.7280
  356MOL0     H46955   4.242   8.357  11.393  0.4685 -0.5862  0.2666
  356MOL0     H46956   3.903   8.092  11.633 -0.4692 -2.4277 -0.4444
  356MOL0     H46957   3.685   7.957  11.588 -2.7529  0.0267 -0.5048
  356MOL0     H46958   3.597   7.873  11.309 -1.3460 -0.4483  3.1162
  356MOL0     H46959   3.524   7.995  11.193  1.1741 -0.0095  0.1675
  356MOL0     H46960   3.371   7.778  11.351 -1.3519  0.4621  1.0817
  356MOL0     H46961   3.403   7.793  11.181  2.9795 -0.1963  0.8068
  356MOL0     H46962   3.282   8.038  11.225 -1.8428 -0.8242 -2.2506
  356MOL0     H46963   3.231   7.951  11.366  2.8500 -2.8284  1.7551
  356MOL0     H46964   3.152   7.898  11.079  3.3073 -1.2618  0.4335
  356MOL0     H46965   3.158   7.764  11.180  3.1443  0.0018  0.0043
  356MOL0     H46966   2.985   8.018  11.218 -0.7052 -0.9402 -3.4541
  356MOL0     H46967   2.989   7.887  11.351 -0.4559 -0.9929 -0.5766
  356MOL0     H46968   2.933   7.727  11.174  3.0304  0.6267 -1.8633
  356MOL0     H46969   2.893   7.866  11.071 -2.1667  0.6752  0.7101
  356MOL0     H46970   2.773   7.899  11.341  0.0940 -0.5321  0.1742
  356MOL0     H46971   2.739   7.957  11.189  2.2999  0.6268 -2.3987
  356MOL0     H46972   2.672   7.711  11.129  3.6698 -1.5330  1.5292
  356MOL0     H46973   2.563   7.789  11.249 -1.0031  1.5795 -2.4773
  356MOL0     H46974   3.577   8.221  11.280 -0.3798  1.8074  0.5548
  356MOL0     H46975   3.814   8.306  11.275  3.0795 -2.8407 -1.4615
  356MOL0     H46976   4.095   8.542  11.766  3.6651  1.0150  2.5652
  356MOL0     H46977   4.301   8.666  11.775 -0.7100 -2.0154  1.4002
  356MOL0     H46978   4.796   9.447  11.314 -1.0562  2.3325 -0.4547
  356MOL0     H46979   5.036   9.408  11.393  1.0881 -0.1396 -1.7106
  356MOL0     H46980   5.577   9.615  11.176 -2.2953 -1.4997 -0.3774
  356MOL0     H46981   5.789   9.593  11.283  0.3321 -1.0290  0.7901
  356MOL0     H46982   5.956   9.579  11.424 -0.4458  0.1223  0.7203
  356MOL0     H46983   5.945   9.403  11.408  2.3528 -0.6380  0.0536
  356MOL0     H46984   6.054   9.546  11.660  0.4413 -0.4388  1.2326
  356MOL0     H46985   6.031   9.370  11.630  0.8152  0.5955  0.3588
  356MOL0     H46986   6.194   9.560  11.469  1.0180 -0.6326 -0.9361
  356MOL0     H46987   6.186   9.385  11.449  0.5971 -1.8777  1.3092
  356MOL0     H46988   6.275   9.509  11.709 -1.9665 -0.4851 -0.1937
  356MOL0     H46989   6.289   9.345  11.676 -1.3764 -0.2387 -0.3795
  356MOL0     H46990   6.635   9.537  11.550 -0.0843  1.3713 -1.1060
  356MOL0     H46991   5.599   9.453  11.646  1.4178 -1.6878  0.0654
  356MOL0     H46992   5.367   9.482  11.526 -0.4647 -0.3298 -1.4268
  357MOL0     O46993   6.114   5.347   9.551  0.0062 -0.6912  0.1341
  357MOL0     C46994   6.136   5.244   9.494 -0.5039 -0.4131 -0.0927
  357MOL0     O46995   6.045   5.145   9.467 -0.0033  0.0516 -0.5429
  357MOL0     C46996   5.911   5.172   9.500  0.8732 -0.1877 -0.5867
  357MOL0     C46997   5.829   5.097   9.587 -0.2158 -1.3841 -0.7999
  357MOL0     C46998   5.697   5.121   9.622 -0.0078 -0.0753 -0.3840
  357MOL0     C46999   5.637   5.233   9.555 -0.6061  0.0770  0.5072
  357MOL0     O47000   5.506   5.272   9.584 -0.4287 -0.3636 -0.1101
  357MOL0     C47001   5.416   5.173   9.621  0.1681  0.2109 -0.2060
  357MOL0     C47002   5.273   5.228   9.608 -0.2537 -0.5164 -0.8935
  357MOL0     C47003   5.225   5.261   9.470 -0.6118 -0.3706  0.3237
  357MOL0     C47004   5.075   5.283   9.465  0.7029  0.0139 -0.7778
  357MOL0     C47005   4.985   5.167   9.512 -0.3567  1.0162  0.7360
  357MOL0     C47006   5.036   5.029   9.463  0.4635  0.1609 -0.2099
  357MOL0     C47007   4.935   4.914   9.504 -0.2494 -0.3653 -0.1532
  357MOL0     C47008   4.998   4.769   9.528  0.5098 -0.6870 -0.2200
  357MOL0     N47009   4.920   4.666   9.458  1.2221  0.0572  0.4267
  357MOL0     C47010   4.976   4.599   9.352  0.5039 -0.0219 -0.4156
  357MOL0     C47011   4.878   4.535   9.292  0.6664  1.0820  1.1007
  357MOL0     C47012   4.884   4.447   9.169  0.0486 -0.4518  0.1665
  357MOL0     C47013   4.774   4.470   9.069  0.3629  0.1782 -0.6796
  357MOL0     C47014   4.770   4.360   8.960 -0.3362  0.4941  0.1135
  357MOL0     C47015   4.670   4.400   8.864 -0.9113 -0.3170 -0.9629
  357MOL0     O47016   4.536   4.379   8.914 -0.2484  1.1248 -0.7205
  357MOL0     C47017   4.483   4.250   8.897  0.3728 -1.0771  0.6411
  357MOL0     C47018   4.346   4.240   8.931  0.1041  0.7237 -0.5310
  357MOL0     C47019   4.267   4.120   8.914 -0.2600 -0.0074 -0.7794
  357MOL0     C47020   4.328   4.010   8.852  0.1913  1.3394 -0.1255
  357MOL0     C47021   4.252   3.878   8.832  0.1444  0.2777  0.5179
  357MOL0     O47022   4.333   3.767   8.814 -0.5863  0.4281 -0.5574
  357MOL0     C47023   4.283   3.635   8.823 -0.2553 -0.5406 -1.2687
  357MOL0     C47024   4.167   3.599   8.895 -0.9740  0.6211  0.0565
  357MOL0     C47025   4.132   3.463   8.898 -0.1957 -0.0961 -0.2952
  357MOL0     C47026   4.207   3.366   8.839  0.5926 -0.8668  0.1711
  357MOL0     O47027   4.163   3.238   8.851 -0.0066  1.0787 -0.7854
  357MOL0     C47028   4.262   3.143   8.886  0.1337 -0.6606 -0.8308
  357MOL0     C47029   4.202   2.998   8.922  0.1707 -0.9940  0.9141
  357MOL0     C47030   4.291   2.913   9.002 -0.3907 -0.1284 -1.3777
  357MOL0     C47031   4.215   2.788   9.045 -0.1115 -0.2827  0.0901
  357MOL0     C47032   4.319   2.689   9.126  0.1312 -0.3163 -0.2437
  357MOL0     C47033   4.329   2.736   9.275  0.1983 -0.0430 -0.0677
  357MOL0     C47034   4.429   2.649   9.339  0.5844 -0.9120 -0.5180
  357MOL0     C47035   4.446   2.682   9.486 -0.0092 -0.2743 -0.8003
  357MOL0    Cl47036   4.576   2.592   9.563  0.2931 -0.1855  0.3273
  357MOL0     C47037   4.327   3.400   8.775  0.6872 -0.0377  0.0837
  357MOL0     C47038   4.360   3.532   8.769 -0.3071 -0.0554  0.7077
  357MOL0     O47039   4.130   3.879   8.847  0.0683 -0.3168  0.1810
  357MOL0     C47040   4.459   4.017   8.806 -0.0443 -0.4956 -0.1301
  357MOL0     C47041   4.538   4.135   8.829  0.3256 -0.4116  0.2806
  357MOL0     N47042   4.766   4.547   9.371 -0.3022  0.1403  0.3362
  357MOL0     N47043   4.787   4.632   9.461  0.2708 -0.2238  0.1848
  357MOL0     C47044   5.706   5.301   9.457 -0.0863 -0.6322 -0.1339
  357MOL0     C47045   5.846   5.291   9.443 -0.1262  0.0227  0.0306
  357MOL0     C47046   6.280   5.229   9.457 -0.4519 -0.6466 -0.6193
  357MOL0     C47047   6.383   5.321   9.492  0.2724 -0.0436 -0.6330
  357MOL0     C47048   6.512   5.291   9.456 -0.2123  0.3136  0.6246
  357MOL0     C47049   6.541   5.192   9.365 -0.5398  0.1938  0.6772
  357MOL0     O47050   6.668   5.177   9.313 -0.5835  0.3544 -0.7053
  357MOL0     C47051   6.743   5.081   9.395 -0.5799 -0.0688 -0.3975
  357MOL0     C47052   6.726   4.933   9.372  0.1770 -0.0304 -0.0815
  357MOL0     C47053   6.869   4.863   9.385 -0.3372 -0.6167  0.4073
  357MOL0     C47054   6.863   4.706   9.398  0.2530 -0.1833 -0.3380
  357MOL0     C47055   6.800   4.661   9.520 -0.2972  0.2038  0.0275
  357MOL0     C47056   6.762   4.635   9.633 -0.4468 -0.2948  0.6363
  357MOL0     C47057   6.441   5.102   9.320  0.4987 -0.1147 -0.2222
  357MOL0     C47058   6.309   5.122   9.366  0.5865  0.5190 -0.4134
  357MOL0     H47059   5.868   5.004   9.626 -2.8265 -1.0923  2.9231
  357MOL0     H47060   5.645   5.055   9.691 -4.6881  2.0656 -1.4396
  357MOL0     H47061   5.423   5.142   9.726  0.9471 -1.1081 -0.6220
  357MOL0     H47062   5.428   5.094   9.547  0.9583  0.6713 -0.5803
  357MOL0     H47063   5.277   5.316   9.673 -0.4651  0.2660 -1.9083
  357MOL0     H47064   5.203   5.158   9.654 -1.4289  0.6152 -0.9015
  357MOL0     H47065   5.259   5.188   9.396  2.2620  1.9563 -0.8551
  357MOL0     H47066   5.275   5.352   9.434 -3.0274  0.5579 -0.9145
  357MOL0     H47067   5.051   5.371   9.525  0.3174 -0.5949 -0.0092
  357MOL0     H47068   5.050   5.291   9.359 -0.6165 -0.5209 -0.5278
  357MOL0     H47069   4.886   5.180   9.468 -0.0790  1.2382  0.1606
  357MOL0     H47070   4.969   5.173   9.620  1.8658 -2.7626  1.4515
  357MOL0     H47071   5.136   5.008   9.501  0.9206  1.4951 -0.6087
  357MOL0     H47072   5.042   5.038   9.354 -1.2668  0.1158 -0.3348
  357MOL0     H47073   4.888   4.938   9.599  0.7622  1.3554 -0.0421
  357MOL0     H47074   4.853   4.910   9.431 -1.7872 -0.6254  1.5346
  357MOL0     H47075   4.983   4.754   9.635  0.3686 -0.7713 -0.2508
  357MOL0     H47076   5.103   4.758   9.502  1.5704  0.0537  3.2338
  357MOL0     H47077   5.081   4.576   9.335  0.6363 -2.0657  2.4395
  357MOL0     H47078   4.890   4.343   9.203  1.5386 -0.8506 -1.1914
  357MOL0     H47079   4.978   4.470   9.118 -0.9600 -2.1847 -2.6962
  357MOL0     H47080   4.783   4.572   9.031 -1.3292  0.8273  0.5300
  357MOL0     H47081   4.680   4.468   9.124 -0.3179 -0.8311 -1.8212
  357MOL0     H47082   4.873   4.365   8.922 -0.5354 -0.3965 -0.5664
  357MOL0     H47083   4.758   4.261   9.004  0.5310 -0.1341 -1.0090
  357MOL0     H47084   4.686   4.339   8.774  0.9982  0.1364 -0.9715
  357MOL0     H47085   4.676   4.504   8.833 -0.8997 -0.2254 -0.6542
  357MOL0     H47086   4.294   4.329   8.966 -3.2210 -0.2251 -2.6447
  357MOL0     H47087   4.166   4.096   8.946 -0.4730 -2.3700 -2.9384
  357MOL0     H47088   4.092   3.664   8.940 -1.1816  0.2221  0.2909
  357MOL0     H47089   4.046   3.428   8.954  1.2517 -0.7312  1.6626
  357MOL0     H47090   4.333   3.172   8.964  0.5986 -3.2246 -0.1868
  357MOL0     H47091   4.322   3.118   8.798 -0.7567 -0.0715 -1.6264
  357MOL0     H47092   4.188   2.946   8.827 -1.9206 -3.3120  2.3802
  357MOL0     H47093   4.105   2.999   8.972 -1.0200 -1.2616 -1.2827
  357MOL0     H47094   4.332   2.970   9.085  0.5687 -0.7673 -1.3873
  357MOL0     H47095   4.373   2.874   8.940  0.7323 -2.2975  1.2668
  357MOL0     H47096   4.118   2.810   9.091 -2.2296 -1.1035 -3.5592
  357MOL0     H47097   4.182   2.737   8.954  0.5359  1.6869 -1.3229
  357MOL0     H47098   4.415   2.677   9.074  0.0503  2.7148 -1.2320
  357MOL0     H47099   4.260   2.597   9.128  0.0590 -0.2511  1.2490
  357MOL0     H47100   4.233   2.723   9.326  0.7174  1.7393  1.4742
  357MOL0     H47101   4.360   2.841   9.276 -2.0386  0.7630 -2.8263
  357MOL0     H47102   4.390   2.548   9.321  1.9120 -1.2065 -1.8891
  357MOL0     H47103   4.520   2.652   9.279 -0.0603 -1.4104 -1.5375
  357MOL0     H47104   4.349   2.669   9.536  0.7860  0.6686  1.0907
  357MOL0     H47105   4.470   2.789   9.490 -0.3749 -0.2238  1.9128
  357MOL0     H47106   4.389   3.326   8.726  0.2493  1.2275 -2.5348
  357MOL0     H47107   4.449   3.569   8.718  0.8869 -2.7635  0.6318
  357MOL0     H47108   4.505   3.929   8.763  2.3879  0.9052 -0.5881
  357MOL0     H47109   4.644   4.145   8.810  0.0912  2.1751 -0.0642
  357MOL0     H47110   5.655   5.370   9.391  1.3699 -2.3625 -3.2826
  357MOL0     H47111   5.907   5.329   9.361  0.0657 -2.7655 -1.2322
  357MOL0     H47112   6.353   5.411   9.546 -2.2916 -1.3069  0.2142
  357MOL0     H47113   6.597   5.355   9.479  3.0370 -4.4841  3.6856
  357MOL0     H47114   6.720   5.093   9.502 -1.2091  0.3588 -0.5752
  357MOL0     H47115   6.847   5.103   9.373 -1.1458  0.2933 -3.0450
  357MOL0     H47116   6.646   4.896   9.437 -1.4848  2.1014 -0.7826
  357MOL0     H47117   6.693   4.917   9.269  1.3193 -1.3218 -0.2769
  357MOL0     H47118   6.925   4.900   9.471  0.4650  0.0463 -0.3855
  357MOL0     H47119   6.930   4.893   9.300  1.6176 -4.1195  0.3806
  357MOL0     H47120   6.809   4.669   9.310 -0.7639  1.5460 -0.4798
  357MOL0     H47121   6.964   4.663   9.400 -0.4697 -1.9400  0.7941
  357MOL0     H47122   6.764   4.619   9.739  2.5408  0.5865  0.7972
  357MOL0     H47123   6.463   5.012   9.263 -0.0035 -1.9314  2.2878
  357MOL0     H47124   6.222   5.060   9.347 -1.6303  3.5463 -0.7558
  358MOL0     O47125   7.743   3.094   2.671  0.4366  0.5520 -0.0492
  358MOL0     C47126   7.810   3.079   2.570 -0.2429  0.0728  0.7126
  358MOL0     O47127   7.769   2.995   2.468 -0.6353  0.1570  0.2153
  358MOL0     C47128   7.632   2.980   2.461  0.1510 -0.0598 -0.0278
  358MOL0     C47129   7.553   2.917   2.557  0.0780 -0.1302  0.3636
  358MOL0     C47130   7.414   2.884   2.527 -0.8412  0.1983  0.2920
  358MOL0     C47131   7.362   2.904   2.402 -0.5597  0.2136  0.2372
  358MOL0     O47132   7.230   2.866   2.381  0.3129 -0.2319  0.8447
  358MOL0     C47133   7.208   2.822   2.247  0.3347  0.7553  1.1743
  358MOL0     C47134   7.090   2.716   2.254 -0.3899  0.5930  0.2433
  358MOL0     C47135   6.962   2.797   2.292 -0.3378 -0.1708 -0.1362
  358MOL0     C47136   6.839   2.704   2.287 -0.8049  0.2208 -0.3328
  358MOL0     C47137   6.721   2.794   2.275  1.0531 -0.2352  0.3594
  358MOL0     C47138   6.594   2.707   2.268 -0.2010  0.2550  1.1896
  358MOL0     C47139   6.464   2.781   2.262  0.5882  0.7403  1.0839
  358MOL0     C47140   6.348   2.691   2.198  0.4766  0.0389  0.3190
  358MOL0     N47141   6.328   2.583   2.301 -0.3284 -0.2795  0.3174
  358MOL0     C47142   6.291   2.602   2.434 -0.5726 -0.5500  0.3510
  358MOL0     C47143   6.274   2.475   2.481  0.5415 -0.5428  0.0487
  358MOL0     C47144   6.209   2.431   2.603 -0.0936  0.6425 -0.2940
  358MOL0     C47145   6.061   2.448   2.587  0.2761 -0.3843  0.0909
  358MOL0     C47146   5.991   2.357   2.473  0.6897  0.5349 -0.0288
  358MOL0     C47147   5.843   2.338   2.487 -0.1554 -0.4625 -0.4242
  358MOL0     O47148   5.778   2.461   2.454 -0.0595  0.1886  0.0195
  358MOL0     C47149   5.649   2.474   2.485  0.8057 -0.6564  0.0092
  358MOL0     C47150   5.590   2.597   2.440  0.2288  0.1322 -0.4352
  358MOL0     C47151   5.452   2.616   2.457 -0.1062  0.5004  0.6986
  358MOL0     C47152   5.368   2.517   2.511  0.0615  0.2200 -0.3920
  358MOL0     C47153   5.216   2.538   2.531 -1.2930 -0.4377  0.2751
  358MOL0     O47154   5.160   2.461   2.635 -0.6727 -0.4795 -0.0206
  358MOL0     C47155   5.031   2.424   2.625 -0.8848  0.7661  0.1731
  358MOL0     C47156   4.920   2.495   2.577  0.0325 -1.0064  0.1163
  358MOL0     C47157   4.793   2.433   2.569  0.3191  0.8459  0.1693
  358MOL0     C47158   4.782   2.298   2.612  1.2949  0.6438 -0.8911
  358MOL0     O47159   4.657   2.234   2.616 -0.6784 -0.3124  0.2241
  358MOL0     C47160   4.623   2.135   2.710 -0.4103  0.3022  0.2639
  358MOL0     C47161   4.472   2.110   2.700 -0.0988  0.2228 -0.2575
  358MOL0     C47162   4.418   2.060   2.562  0.6952  0.3547  0.2272
  358MOL0     C47163   4.487   1.929   2.523  0.1037 -0.5491  0.3773
  358MOL0     C47164   4.414   1.878   2.393  0.0981  0.2121  0.0379
  358MOL0     C47165   4.471   1.739   2.364  0.3661 -0.1376  0.1105
  358MOL0     C47166   4.615   1.738   2.322 -0.5528 -0.5800  0.0951
  358MOL0     C47167   4.674   1.592   2.312 -0.4462  0.1434 -0.1510
  358MOL0    Cl47168   4.839   1.605   2.254 -0.0093 -0.2776 -0.6851
  358MOL0     C47169   4.894   2.229   2.664  0.3266  0.6704 -0.2488
  358MOL0     C47170   5.012   2.290   2.657 -0.1867  0.1900 -0.1578
  358MOL0     O47171   5.166   2.628   2.467 -0.4970  1.1196  0.4097
  358MOL0     C47172   5.425   2.399   2.554 -0.4944 -0.0771  0.2114
  358MOL0     C47173   5.561   2.370   2.538 -0.4824 -0.4937 -0.8261
  358MOL0     N47174   6.321   2.385   2.386 -0.0962  0.5561 -1.0686
  358MOL0     N47175   6.353   2.448   2.284  0.7133  0.1003  0.4240
  358MOL0     C47176   7.442   2.964   2.306 -0.9091 -0.0008  0.7771
  358MOL0     C47177   7.575   2.993   2.337 -0.0552  0.2501 -0.4144
  358MOL0     C47178   7.952   3.127   2.572  1.0196 -0.2446  0.6143
  358MOL0     C47179   7.995   3.210   2.680  0.6702  0.5089  0.1162
  358MOL0     C47180   8.124   3.250   2.694 -0.3606  0.3221 -0.3020
  358MOL0     C47181   8.212   3.231   2.592 -0.7213  0.5500  0.6906
  358MOL0     O47182   8.351   3.278   2.592 -0.0900  0.4967  0.0960
  358MOL0     C47183   8.377   3.398   2.666 -0.4116 -0.4084 -0.0602
  358MOL0     C47184   8.500   3.469   2.612  0.0975  0.2519 -0.1156
  358MOL0     C47185   8.637   3.393   2.626 -0.3946  0.1924 -0.0709
  358MOL0     C47186   8.648   3.255   2.561  0.0262  0.2545 -1.3416
  358MOL0     C47187   8.784   3.207   2.542  0.2896 -0.7017  1.0413
  358MOL0     C47188   8.897   3.156   2.530  0.6135 -0.3139  0.0510
  358MOL0     C47189   8.163   3.167   2.476 -0.1388  0.9717  0.6748
  358MOL0     C47190   8.039   3.108   2.466  1.2423  0.9360 -0.1870
  358MOL0     H47191   7.587   2.906   2.659  2.5725  1.0324 -0.2666
  358MOL0     H47192   7.350   2.841   2.603 -1.8526  1.1283 -0.0107
  358MOL0     H47193   7.301   2.781   2.207 -0.5075 -1.8064  1.6458
  358MOL0     H47194   7.173   2.905   2.185 -1.9435 -0.2904  0.9478
  358MOL0     H47195   7.112   2.642   2.332  2.5142  1.2569  0.1753
  358MOL0     H47196   7.068   2.664   2.161 -0.0969  0.1746  0.4039
  358MOL0     H47197   6.941   2.876   2.219  1.2787 -2.0123 -2.8174
  358MOL0     H47198   6.974   2.836   2.393  3.0363  1.0345 -0.8564
  358MOL0     H47199   6.847   2.640   2.199 -0.6555  1.5106 -1.2978
  358MOL0     H47200   6.827   2.645   2.378  0.4904 -0.4215 -0.5608
  358MOL0     H47201   6.743   2.863   2.193 -0.4564 -0.0682  0.0702
  358MOL0     H47202   6.713   2.854   2.366 -0.0525 -0.2494  0.2847
  358MOL0     H47203   6.573   2.628   2.342 -4.2919  0.8505  0.9254
  358MOL0     H47204   6.609   2.643   2.181  0.5393  0.0570  1.4559
  358MOL0     H47205   6.441   2.805   2.366  0.6890  0.4866  1.1650
  358MOL0     H47206   6.481   2.867   2.196  0.3106  0.3801  0.5349
  358MOL0     H47207   6.363   2.649   2.099 -2.1616 -0.8764  0.2479
  358MOL0     H47208   6.260   2.755   2.192 -0.8971 -1.7113  0.9844
  358MOL0     H47209   6.256   2.700   2.466  2.3962  0.5226  0.6606
  358MOL0     H47210   6.250   2.492   2.684  2.8807  0.2954 -1.4210
  358MOL0     H47211   6.241   2.327   2.611  0.1506  0.7677  0.4096
  358MOL0     H47212   6.028   2.552   2.585 -3.0268 -1.2973  0.6166
  358MOL0     H47213   6.010   2.407   2.675 -2.5879 -0.0776 -1.3030
  358MOL0     H47214   6.016   2.403   2.377  1.9851  0.7818  0.4040
  358MOL0     H47215   6.045   2.261   2.477 -2.5854 -1.5807 -2.0871
  358MOL0     H47216   5.821   2.314   2.591 -4.3108  3.1020 -0.1372
  358MOL0     H47217   5.800   2.257   2.427  0.9697 -2.0369  0.8342
  358MOL0     H47218   5.646   2.669   2.383 -1.2781 -0.0751 -2.2913
  358MOL0     H47219   5.399   2.699   2.410 -1.5154 -0.0741  1.2334
  358MOL0     H47220   4.928   2.593   2.531 -0.9429 -1.2921 -0.7129
  358MOL0     H47221   4.714   2.495   2.530  1.6715  0.2547 -4.0690
  358MOL0     H47222   4.652   2.153   2.814  0.6890  0.4101 -0.0512
  358MOL0     H47223   4.675   2.044   2.680  1.6580  1.2594  0.7426
  358MOL0     H47224   4.417   2.199   2.733  0.8862  0.7535 -0.0235
  358MOL0     H47225   4.450   2.040   2.782  1.1749  0.2545  0.1277
  358MOL0     H47226   4.437   2.141   2.491  0.9033 -0.5299 -0.7399
  358MOL0     H47227   4.310   2.045   2.559  0.6932  0.4235  0.0070
  358MOL0     H47228   4.585   1.954   2.481 -0.7107 -2.6741 -3.2598
  358MOL0     H47229   4.482   1.861   2.608 -1.6301 -0.3463  0.4560
  358MOL0     H47230   4.433   1.941   2.306  0.7794 -0.7039 -0.4998
  358MOL0     H47231   4.306   1.860   2.400 -0.9029  4.9206  0.1691
  358MOL0     H47232   4.409   1.700   2.282 -0.0691 -2.4585  1.4597
  358MOL0     H47233   4.454   1.670   2.447  0.5078 -0.0675  0.1964
  358MOL0     H47234   4.620   1.802   2.233 -2.8866  0.8700  0.9020
  358MOL0     H47235   4.673   1.789   2.400 -1.4512 -0.8848  0.9758
  358MOL0     H47236   4.612   1.535   2.242  3.6960 -0.8443 -3.3667
  358MOL0     H47237   4.676   1.552   2.414 -1.8389  0.9879  0.2400
  358MOL0     H47238   4.894   2.127   2.699 -0.3720 -0.3412 -2.9314
  358MOL0     H47239   5.097   2.226   2.679  1.1342  0.0305 -4.7203
  358MOL0     H47240   5.356   2.318   2.577 -0.3669 -0.5512 -0.9807
  358MOL0     H47241   5.593   2.269   2.560  0.2520 -0.6609 -2.5287
  358MOL0     H47242   7.415   2.989   2.204  2.8529  2.5581  0.1980
  358MOL0     H47243   7.647   3.032   2.265  1.9468 -0.7647  0.9265
  358MOL0     H47244   7.922   3.231   2.757 -0.8902  1.1941 -1.4711
  358MOL0     H47245   8.155   3.282   2.793 -3.1055 -0.6818  1.0041
  358MOL0     H47246   8.387   3.373   2.773  0.1937 -1.9647 -0.4546
  358MOL0     H47247   8.288   3.461   2.661 -1.1638 -1.4706 -0.4475
  358MOL0     H47248   8.479   3.476   2.504 -0.6974  1.5078  0.1051
  358MOL0     H47249   8.509   3.572   2.648  0.1999  0.7227 -1.4161
  358MOL0     H47250   8.660   3.395   2.733 -0.2038  0.3934 -0.1130
  358MOL0     H47251   8.719   3.447   2.577  1.3383 -0.5957  1.8037
  358MOL0     H47252   8.593   3.183   2.623 -1.6306  2.6292  0.1418
  358MOL0     H47253   8.598   3.260   2.464 -4.1385  2.0683  0.6530
  358MOL0     H47254   8.998   3.133   2.504 -0.2746 -2.1029 -2.0862
  358MOL0     H47255   8.231   3.166   2.391 -0.0632  3.1461  0.6600
  358MOL0     H47256   8.002   3.053   2.379  0.7564  1.0270 -0.0391
  359MOL0     O47257   9.153   5.846   8.617  0.3232 -0.2931 -0.0261
  359MOL0     C47258   9.115   5.910   8.717 -0.1872 -0.2888  0.2218
  359MOL0     O47259   9.203   5.977   8.796 -0.0226  0.6261 -0.8923
  359MOL0     C47260   9.336   5.950   8.798 -0.1454  0.5500 -0.2399
  359MOL0     C47261   9.395   5.824   8.774 -0.1990  0.5995  0.3827
  359MOL0     C47262   9.531   5.808   8.763 -0.1238  0.6672 -0.2437
  359MOL0     C47263   9.613   5.917   8.789 -0.0940 -0.3789 -0.9487
  359MOL0     O47264   9.750   5.914   8.788  0.3233 -0.9259  0.0267
  359MOL0     C47265   9.822   5.807   8.722 -0.8813 -0.4296  0.2871
  359MOL0     C47266   9.813   5.825   8.576  0.0371 -1.2918  0.7180
  359MOL0     C47267   9.932   5.757   8.511  1.1353  0.3063  0.3489
  359MOL0     C47268   9.919   5.603   8.510  0.4877  0.3925 -0.5510
  359MOL0     C47269   9.886   5.542   8.374 -0.5311  1.0904  0.8018
  359MOL0     C47270   9.807   5.414   8.387 -0.0833 -0.1405 -0.0213
  359MOL0     C47271   9.819   5.353   8.244  0.4317 -0.9497  0.3159
  359MOL0     C47272   9.749   5.221   8.243  0.0900 -0.6984  0.2725
  359MOL0     N47273   9.614   5.223   8.296 -0.2097 -0.1139 -0.7160
  359MOL0     C47274   9.550   5.145   8.397 -0.3651 -0.5502  0.2886
  359MOL0     C47275   9.418   5.173   8.384  0.0598 -0.1623 -0.0078
  359MOL0     C47276   9.309   5.100   8.456  0.5279  0.2735  0.7063
  359MOL0     C47277   9.170   5.118   8.403  0.1808 -0.2767 -0.3587
  359MOL0     C47278   9.090   5.248   8.422 -0.3798 -0.4928  0.6083
  359MOL0     C47279   8.955   5.245   8.371  0.3011 -0.5376 -0.5196
  359MOL0     O47280   8.871   5.240   8.486  0.1688 -0.6509 -0.0504
  359MOL0     C47281   8.739   5.218   8.452  0.0698 -0.1951 -0.2131
  359MOL0     C47282   8.677   5.205   8.323  0.1506  0.7255 -0.7855
  359MOL0     C47283   8.540   5.198   8.306  0.7035 -0.0154  0.2983
  359MOL0     C47284   8.460   5.211   8.420 -0.1595  0.3859  0.4880
  359MOL0     C47285   8.314   5.220   8.406  0.4291 -0.9896  0.2465
  359MOL0     O47286   8.239   5.254   8.513  0.4457 -0.2143 -0.4842
  359MOL0     C47287   8.106   5.284   8.498  0.0986 -0.6646  0.1321
  359MOL0     C47288   8.014   5.234   8.403  0.1364 -0.9801  0.2038
  359MOL0     C47289   7.880   5.281   8.406  0.1965  0.8831 -0.4354
  359MOL0     C47290   7.836   5.376   8.499 -0.2962  0.2060  0.0575
  359MOL0     O47291   7.698   5.416   8.489  0.0268 -0.3150 -0.2797
  359MOL0     C47292   7.673   5.556   8.523 -0.7181  0.2544 -1.1500
  359MOL0     C47293   7.520   5.584   8.525 -0.4713 -0.3154 -0.6100
  359MOL0     C47294   7.478   5.727   8.561 -0.4242 -0.9773 -0.1765
  359MOL0     C47295   7.502   5.775   8.700  0.2920  0.4151  1.0470
  359MOL0     C47296   7.449   5.913   8.738 -0.4677  0.9985  0.5762
  359MOL0     C47297   7.502   6.022   8.648  0.1113  0.1774 -0.1982
  359MOL0     C47298   7.651   6.034   8.658 -0.1379  0.1896 -0.6567
  359MOL0     C47299   7.702   6.168   8.597  0.1545 -0.8659  0.1189
  359MOL0    Cl47300   7.876   6.203   8.625  0.2995 -0.2312  0.5216
  359MOL0     C47301   7.935   5.424   8.582 -0.0157  1.1076 -0.0331
  359MOL0     C47302   8.066   5.383   8.585 -0.3583 -0.7824 -0.9014
  359MOL0     O47303   8.274   5.208   8.287 -0.8725 -0.3342 -0.5983
  359MOL0     C47304   8.521   5.228   8.547 -0.6155  0.0833  0.8550
  359MOL0     C47305   8.658   5.229   8.559  0.5683  0.5599 -0.8827
  359MOL0     N47306   9.402   5.263   8.283  0.3098  0.8389  0.2030
  359MOL0     N47307   9.511   5.289   8.233 -0.7499 -0.4346 -0.1154
  359MOL0     C47308   9.559   6.037   8.823  0.4406 -1.0247 -0.1230
  359MOL0     C47309   9.421   6.060   8.819  0.3447 -0.2485  0.2144
  359MOL0     C47310   8.968   5.928   8.748  0.9928  0.3923 -0.0840
  359MOL0     C47311   8.935   5.999   8.869  0.0680  0.7256  0.1460
  359MOL0     C47312   8.799   6.007   8.909  0.0940  0.6569  0.9046
  359MOL0     C47313   8.697   5.945   8.828  0.1628  0.1837 -0.3337
  359MOL0     O47314   8.570   5.985   8.870  0.0117 -0.6458  0.2105
  359MOL0     C47315   8.466   5.927   8.791 -0.1547  0.0199 -0.1872
  359MOL0     C47316   8.337   5.973   8.862 -0.8373 -0.4640  0.4612
  359MOL0     C47317   8.261   6.070   8.771  0.7223  0.0092  0.0119
  359MOL0     C47318   8.206   6.015   8.631 -0.2841 -0.2301 -0.2396
  359MOL0     C47319   8.084   5.943   8.658  0.1330  0.4497 -0.8403
  359MOL0     C47320   7.985   5.873   8.679  0.0880  0.0016 -0.7943
  359MOL0     C47321   8.729   5.882   8.710  0.0340  0.3453  0.0150
  359MOL0     C47322   8.866   5.873   8.673 -0.3739  0.4838  0.2233
  359MOL0     H47323   9.328   5.739   8.763  0.7755 -0.0567 -0.6887
  359MOL0     H47324   9.572   5.713   8.731  2.3621  1.4331  0.4629
  359MOL0     H47325   9.786   5.711   8.760 -1.4886  0.2088  1.3718
  359MOL0     H47326   9.927   5.817   8.753 -1.3463  1.5344  1.3967
  359MOL0     H47327   9.806   5.933   8.562  0.2559 -1.1249  1.7790
  359MOL0     H47328   9.726   5.776   8.533  0.7110  0.7278 -3.4092
  359MOL0     H47329  10.022   5.795   8.560  0.4804  0.0720  1.7948
  359MOL0     H47330   9.935   5.788   8.407  0.9169 -4.8911 -1.4844
  359MOL0     H47331  10.017   5.563   8.538  1.2264  1.9541 -0.8497
  359MOL0     H47332   9.842   5.571   8.581 -1.3211  1.0431 -2.1230
  359MOL0     H47333   9.977   5.530   8.314 -0.4986 -1.5994  1.2526
  359MOL0     H47334   9.822   5.607   8.314 -1.5119 -1.9185 -1.7026
  359MOL0     H47335   9.704   5.432   8.420  0.5505  0.8100  1.6062
  359MOL0     H47336   9.848   5.351   8.467 -1.7943 -0.9340  0.2680
  359MOL0     H47337   9.778   5.407   8.158  4.1078  1.3579 -0.2499
  359MOL0     H47338   9.925   5.330   8.226 -0.1720 -2.7596 -1.2263
  359MOL0     H47339   9.813   5.154   8.301 -0.5892 -0.2709  1.5551
  359MOL0     H47340   9.751   5.174   8.144  2.0683 -0.0780 -0.0130
  359MOL0     H47341   9.599   5.072   8.460  0.4668  0.9045  1.3702
  359MOL0     H47342   9.321   5.126   8.562  1.3230  1.3957  0.3663
  359MOL0     H47343   9.327   4.992   8.452 -1.1805 -0.0412  0.9851
  359MOL0     H47344   9.105   5.034   8.430  0.0135 -1.2153 -3.3044
  359MOL0     H47345   9.184   5.108   8.295  1.9761 -4.9352  0.1040
  359MOL0     H47346   9.090   5.270   8.529  2.2924 -1.0998  0.8003
  359MOL0     H47347   9.143   5.324   8.365  0.9781 -0.2562  2.1454
  359MOL0     H47348   8.943   5.159   8.305 -1.0939 -0.3822 -0.4966
  359MOL0     H47349   8.922   5.327   8.307  2.3245  1.0757  0.3799
  359MOL0     H47350   8.747   5.205   8.240  0.9377 -0.7879 -0.1553
  359MOL0     H47351   8.502   5.194   8.204  1.9584  0.7343 -0.2218
  359MOL0     H47352   8.052   5.170   8.325 -0.5732 -0.9776 -0.1529
  359MOL0     H47353   7.807   5.248   8.333  1.8984 -1.1897 -1.3004
  359MOL0     H47354   7.713   5.639   8.464  2.5071  0.6931  1.4104
  359MOL0     H47355   7.718   5.578   8.620  1.5642 -0.8813 -1.8885
  359MOL0     H47356   7.472   5.516   8.595  0.3681  0.6575  0.9537
  359MOL0     H47357   7.473   5.563   8.428  1.5878  0.8170 -1.9322
  359MOL0     H47358   7.372   5.744   8.542 -0.4712 -2.0820 -1.0228
  359MOL0     H47359   7.532   5.789   8.488 -0.4952 -0.5219  0.1531
  359MOL0     H47360   7.452   5.703   8.766  2.1922 -1.6619  0.3733
  359MOL0     H47361   7.609   5.777   8.721  0.3780  0.8384  0.5698
  359MOL0     H47362   7.490   5.947   8.834  0.3153  4.5027 -0.8345
  359MOL0     H47363   7.339   5.911   8.743 -0.6862 -1.0814 -2.5621
  359MOL0     H47364   7.456   6.118   8.673 -0.4593  0.2613 -1.4920
  359MOL0     H47365   7.480   5.988   8.546  2.8316 -0.9366 -0.5013
  359MOL0     H47366   7.684   6.028   8.762 -1.6052  3.1387  0.0780
  359MOL0     H47367   7.683   5.948   8.597  2.6766  1.1590 -0.7023
  359MOL0     H47368   7.648   6.245   8.653  1.0886 -0.6107  0.6856
  359MOL0     H47369   7.672   6.173   8.492 -3.1613  0.5400  1.0157
  359MOL0     H47370   7.905   5.499   8.654 -0.5826 -0.5038  1.4785
  359MOL0     H47371   8.142   5.436   8.640 -0.5047 -1.3910 -0.0971
  359MOL0     H47372   8.461   5.261   8.631  2.0102  5.8187  0.9018
  359MOL0     H47373   8.695   5.263   8.655 -0.6739  1.4341 -0.6952
  359MOL0     H47374   9.614   6.128   8.844 -1.9347  0.7748 -1.0608
  359MOL0     H47375   9.374   6.156   8.835  0.4224 -0.2728  0.5920
  359MOL0     H47376   9.017   6.046   8.921  2.0363  0.2537 -2.3167
  359MOL0     H47377   8.776   6.073   8.991  0.9293  2.4250 -0.2217
  359MOL0     H47378   8.484   5.819   8.785  0.7097  0.2212 -2.1356
  359MOL0     H47379   8.465   5.967   8.689  0.4679  0.2932 -0.0910
  359MOL0     H47380   8.274   5.886   8.885  0.3768 -1.0600  1.6503
  359MOL0     H47381   8.361   6.015   8.960 -0.4848 -0.6497  0.4574
  359MOL0     H47382   8.324   6.156   8.747 -2.0222  1.3867 -3.2585
  359MOL0     H47383   8.178   6.104   8.834  1.8486  0.2564  1.4086
  359MOL0     H47384   8.192   6.107   8.574  2.2446  0.2687 -0.1282
  359MOL0     H47385   8.268   5.947   8.572  0.7972 -1.0013  1.7131
  359MOL0     H47386   7.894   5.817   8.692  0.4348 -0.6305 -1.0342
  359MOL0     H47387   8.662   5.848   8.632 -0.3671  2.3031 -0.5567
  359MOL0     H47388   8.901   5.821   8.584 -0.8995 -1.8029  1.3014
  360MOL0     O47389   7.313   8.940   3.514  0.0319 -0.4062 -0.3264
  360MOL0     C47390   7.238   8.927   3.423  0.9803 -0.1767 -0.0906
  360MOL0     O47391   7.282   8.891   3.295  0.7518 -0.2837  0.0007
  360MOL0     C47392   7.413   8.905   3.271 -0.4139  0.1830  0.7564
  360MOL0     C47393   7.468   9.024   3.212 -0.6611 -0.6564  0.2529
  360MOL0     C47394   7.611   9.023   3.183  0.4718 -0.1941 -0.0589
  360MOL0     C47395   7.688   8.911   3.205 -0.1651  0.1204  0.0647
  360MOL0     O47396   7.815   8.910   3.171 -0.4630  0.4478  0.1346
  360MOL0     C47397   7.857   8.803   3.082  0.9510  0.5742 -0.4068
  360MOL0     C47398   8.004   8.819   3.044 -0.5202  0.0963 -0.4879
  360MOL0     C47399   8.080   8.681   3.028 -0.6335 -1.2569  0.2812
  360MOL0     C47400   8.231   8.703   3.067  0.7004  0.5206  0.0046
  360MOL0     C47401   8.326   8.576   3.065  0.4996  0.1958  0.7302
  360MOL0     C47402   8.472   8.599   3.097  0.8586  0.3151 -1.4424
  360MOL0     C47403   8.565   8.478   3.138 -0.6583 -0.3378 -0.8918
  360MOL0     C47404   8.555   8.443   3.288 -0.2720 -0.5383 -0.0983
  360MOL0     N47405   8.431   8.383   3.322 -0.8708 -0.5323 -0.2098
  360MOL0     C47406   8.341   8.424   3.419  0.4662  0.2661 -1.3290
  360MOL0     C47407   8.241   8.331   3.415 -0.1048  0.2676  0.6534
  360MOL0     C47408   8.131   8.323   3.510  0.5178  0.1246 -0.2439
  360MOL0     C47409   7.996   8.348   3.436 -1.0506 -0.0483  0.8277
  360MOL0     C47410   7.886   8.381   3.536 -0.7739 -0.5635  0.2742
  360MOL0     C47411   7.760   8.395   3.467  0.0686 -0.9366  0.1640
  360MOL0     O47412   7.670   8.419   3.575 -0.2431 -0.1368  0.0964
  360MOL0     C47413   7.537   8.446   3.560 -0.1719 -0.9029  0.4013
  360MOL0     C47414   7.472   8.454   3.432  0.1342 -0.3287 -0.3157
  360MOL0     C47415   7.338   8.475   3.423 -0.0604  0.3647  1.0376
  360MOL0     C47416   7.257   8.488   3.535  0.2007  0.2126 -0.6177
  360MOL0     C47417   7.108   8.491   3.533 -0.2401 -0.9306  0.3370
  360MOL0     O47418   7.044   8.493   3.653  0.6263  0.1936 -0.2939
  360MOL0     C47419   6.915   8.546   3.670  0.0222 -0.8248 -0.0926
  360MOL0     C47420   6.856   8.642   3.583  0.2617  0.6752  1.1900
  360MOL0     C47421   6.729   8.693   3.613  0.3326 -0.0239 -0.2092
  360MOL0     C47422   6.659   8.640   3.723  0.3799  0.4245 -0.2474
  360MOL0     O47423   6.528   8.688   3.729  0.1284  0.4462 -0.3389
  360MOL0     C47424   6.434   8.625   3.814 -0.3736  0.9852 -0.6982
  360MOL0     C47425   6.294   8.662   3.790  0.1330  0.5450  0.1753
  360MOL0     C47426   6.253   8.623   3.649  0.3461 -1.0145  0.3571
  360MOL0     C47427   6.111   8.653   3.626  0.4683 -0.8089 -0.1448
  360MOL0     C47428   6.055   8.590   3.506 -0.1935 -0.1759  0.2688
  360MOL0     C47429   6.117   8.633   3.371 -1.0504 -0.3680  1.1847
  360MOL0     C47430   6.027   8.575   3.261  0.1241  0.6820  0.3958
  360MOL0     C47431   6.098   8.570   3.120  0.0090 -0.5161 -0.0398
  360MOL0    Cl47432   6.121   8.732   3.066 -0.1470  0.2526  0.4660
  360MOL0     C47433   6.714   8.539   3.803 -1.8710 -0.4758 -0.4035
  360MOL0     C47434   6.840   8.492   3.774  0.5938 -0.5500  1.1234
  360MOL0     O47435   7.050   8.507   3.424  0.0926  0.3907  0.0286
  360MOL0     C47436   7.327   8.484   3.664  0.4575 -0.7675 -0.2488
  360MOL0     C47437   7.464   8.461   3.677  0.3976 -0.9973 -0.0319
  360MOL0     N47438   8.288   8.230   3.329 -0.4292 -0.0098  0.8550
  360MOL0     N47439   8.393   8.271   3.265  0.6046  0.0333  0.3280
  360MOL0     C47440   7.630   8.795   3.264 -0.4431  0.0172 -1.2035
  360MOL0     C47441   7.494   8.792   3.287  0.1826 -1.1134 -0.5342
  360MOL0     C47442   7.098   8.959   3.454 -0.0197 -0.3589  0.5731
  360MOL0     C47443   7.002   8.942   3.347  0.2712 -0.0252  0.1648
  360MOL0     C47444   6.864   8.954   3.380  1.0147 -0.1851  0.4219
  360MOL0     C47445   6.818   8.994   3.506 -0.1259 -1.2360 -0.5473
  360MOL0     O47446   6.677   9.025   3.513  0.9005  0.4185  0.8203
  360MOL0     C47447   6.610   9.039   3.642 -0.2244  0.4026  0.7527
  360MOL0     C47448   6.466   9.044   3.610  0.7350  0.7423  1.0030
  360MOL0     C47449   6.377   9.045   3.735  0.2437 -1.0223  0.2771
  360MOL0     C47450   6.226   9.073   3.703 -0.5586 -0.5294  0.3276
  360MOL0     C47451   6.132   9.013   3.792 -0.1187 -0.8312  0.0118
  360MOL0     C47452   6.062   8.973   3.881 -0.8442  0.3112 -0.0779
  360MOL0     C47453   6.911   9.005   3.613  0.0910  0.0323  0.3362
  360MOL0     C47454   7.046   8.989   3.585  0.6497 -0.3869 -0.7175
  360MOL0     H47455   7.403   9.110   3.199 -0.9804 -0.8410  0.6192
  360MOL0     H47456   7.658   9.109   3.136  0.0120 -0.3319 -0.7866
  360MOL0     H47457   7.793   8.790   2.993 -1.6512  1.1175  1.2733
  360MOL0     H47458   7.847   8.706   3.130 -0.1727  0.8348 -0.0897
  360MOL0     H47459   8.058   8.892   3.106  1.5778 -0.5762 -1.4371
  360MOL0     H47460   7.988   8.874   2.951  0.6906  0.8462 -0.2730
  360MOL0     H47461   8.090   8.647   2.925  3.4904 -0.6774  0.3070
  360MOL0     H47462   8.033   8.599   3.083 -2.1313 -0.0442  0.8810
  360MOL0     H47463   8.287   8.773   3.003  2.4382 -1.4814 -0.7927
  360MOL0     H47464   8.238   8.740   3.170  1.5080 -3.2349  1.4549
  360MOL0     H47465   8.320   8.526   2.968  0.6387  0.3003  0.6670
  360MOL0     H47466   8.293   8.506   3.142  1.2722 -1.1687 -0.1271
  360MOL0     H47467   8.474   8.667   3.182 -1.2696  0.0406 -1.1367
  360MOL0     H47468   8.522   8.649   3.013 -0.1170 -0.0051 -2.2397
  360MOL0     H47469   8.542   8.388   3.079  0.5939 -1.0842 -0.2612
  360MOL0     H47470   8.668   8.502   3.110 -0.8927  0.0252 -1.4603
  360MOL0     H47471   8.589   8.528   3.348 -1.7909  0.2943 -0.3547
  360MOL0     H47472   8.637   8.375   3.313  1.3498  1.7316  1.1221
  360MOL0     H47473   8.342   8.519   3.471  1.0110 -0.8970  0.8569
  360MOL0     H47474   8.147   8.395   3.591  3.2692  0.6747 -1.1969
  360MOL0     H47475   8.144   8.223   3.551  5.4158  0.1576 -1.1363
  360MOL0     H47476   7.987   8.247   3.396  2.1320 -2.0551  4.5505
  360MOL0     H47477   8.013   8.428   3.363  1.4137  0.3538  1.7538
  360MOL0     H47478   7.879   8.311   3.619  0.0905 -0.5311  0.3829
  360MOL0     H47479   7.907   8.479   3.579 -1.0721 -1.5919  2.9260
  360MOL0     H47480   7.726   8.297   3.432  1.2625 -1.1217 -0.5191
  360MOL0     H47481   7.769   8.463   3.383  2.9617 -1.4924 -0.0940
  360MOL0     H47482   7.533   8.447   3.342  1.4265  1.5936  0.3506
  360MOL0     H47483   7.292   8.477   3.325  0.5919 -1.0343  0.6726
  360MOL0     H47484   6.909   8.677   3.495  2.1010  0.9148  2.3320
  360MOL0     H47485   6.689   8.773   3.552  1.8233  0.4046 -0.6722
  360MOL0     H47486   6.449   8.646   3.920 -0.2288  1.8328 -0.8771
  360MOL0     H47487   6.433   8.518   3.790 -3.1767  1.0972 -1.4539
  360MOL0     H47488   6.283   8.771   3.796 -2.8368  0.3262  0.2313
  360MOL0     H47489   6.238   8.611   3.868  0.5037 -0.5965 -0.2838
  360MOL0     H47490   6.246   8.514   3.642 -3.5350 -0.8193 -1.7884
  360MOL0     H47491   6.317   8.676   3.577  0.3809 -1.2293  0.2302
  360MOL0     H47492   6.053   8.622   3.714  0.8511 -1.0708  0.0148
  360MOL0     H47493   6.086   8.759   3.614 -3.0880 -1.1704  2.3807
  360MOL0     H47494   5.947   8.609   3.501 -0.1262 -0.1049 -1.7197
  360MOL0     H47495   6.064   8.482   3.522 -1.2451 -0.0952  1.6084
  360MOL0     H47496   6.215   8.583   3.364 -0.0904  1.6170 -4.6742
  360MOL0     H47497   6.135   8.740   3.365 -1.1383 -0.4073  0.0970
  360MOL0     H47498   5.974   8.486   3.297 -0.4588  1.0918  0.5800
  360MOL0     H47499   5.953   8.656   3.254 -0.4116  0.2373  0.8224
  360MOL0     H47500   6.044   8.515   3.042  3.0041 -2.7686 -0.7107
  360MOL0     H47501   6.194   8.519   3.130  0.1351 -0.6232 -1.5784
  360MOL0     H47502   6.661   8.483   3.879 -1.0067 -0.2541  0.3916
  360MOL0     H47503   6.886   8.402   3.814  0.8829 -0.8903  0.0659
  360MOL0     H47504   7.264   8.502   3.750 -0.2963 -1.3310 -0.6748
  360MOL0     H47505   7.514   8.465   3.773  1.0652  2.2613 -0.3828
  360MOL0     H47506   7.701   8.716   3.286  0.3754  0.5150 -1.9936
  360MOL0     H47507   7.438   8.701   3.305 -1.2844 -0.4990 -1.7534
  360MOL0     H47508   7.035   8.919   3.246  0.3546 -0.2893  0.2498
  360MOL0     H47509   6.789   8.938   3.304 -0.2559 -1.0118  1.7804
  360MOL0     H47510   6.635   9.127   3.702 -2.2247  0.8449  0.9833
  360MOL0     H47511   6.639   8.953   3.704 -0.9463  0.5325  1.2764
  360MOL0     H47512   6.443   9.136   3.555  1.8622  0.9724  0.8850
  360MOL0     H47513   6.429   8.956   3.557  0.6322  0.9870  0.6679
  360MOL0     H47514   6.399   9.132   3.797 -1.6557 -1.1556  1.2091
  360MOL0     H47515   6.395   8.952   3.790 -0.0044 -1.4748 -0.3980
  360MOL0     H47516   6.204   9.180   3.699 -1.9713 -0.8276 -3.0558
  360MOL0     H47517   6.206   9.032   3.604  1.8561  0.7223 -0.7557
  360MOL0     H47518   5.998   8.931   3.957  0.6843  0.9390  1.6314
  360MOL0     H47519   6.866   9.043   3.704 -0.6803  0.9035 -0.3946
  360MOL0     H47520   7.103   9.006   3.676 -3.0925 -2.3706  2.2587
  361MOL0     O47521   6.321   8.514   2.903  0.1001 -0.3067  0.3674
  361MOL0     C47522   6.327   8.601   2.809  0.1234 -0.6972  0.4098
  361MOL0     O47523   6.223   8.628   2.718 -0.2066 -0.6777 -0.0673
  361MOL0     C47524   6.103   8.560   2.733 -0.3493 -0.6495 -1.1294
  361MOL0     C47525   5.991   8.631   2.759  0.2313 -0.2268  0.2286
  361MOL0     C47526   5.861   8.574   2.768 -0.0278 -0.0262  0.0761
  361MOL0     C47527   5.846   8.429   2.768  0.5330 -0.2491  0.4009
  361MOL0     O47528   5.717   8.370   2.796  0.0954 -0.6570  0.5361
  361MOL0     C47529   5.598   8.449   2.800  0.0017  0.2243  0.3684
  361MOL0     C47530   5.489   8.348   2.784  0.5063  0.1692  0.1874
  361MOL0     C47531   5.358   8.422   2.812  0.0799  0.9801  0.2016
  361MOL0     C47532   5.247   8.323   2.823 -0.1052  0.7224  0.5093
  361MOL0     C47533   5.121   8.400   2.864 -0.3909  0.3344  0.0756
  361MOL0     C47534   4.996   8.305   2.852  0.3204  0.5106  0.3554
  361MOL0     C47535   4.851   8.369   2.854 -0.0694 -0.0283  0.1136
  361MOL0     C47536   4.837   8.465   2.728  1.0384 -0.3972  0.6679
  361MOL0     N47537   4.702   8.525   2.726  0.2539  0.7055 -0.0392
  361MOL0     C47538   4.586   8.465   2.695  0.1673  0.4140 -0.7440
  361MOL0     C47539   4.491   8.563   2.697 -0.3807  0.5127  0.0260
  361MOL0     C47540   4.343   8.535   2.666  0.2544  0.3583  0.5309
  361MOL0     C47541   4.264   8.657   2.641 -0.0931 -0.1495 -0.0715
  361MOL0     C47542   4.115   8.614   2.624  0.3507  0.5833  0.8111
  361MOL0     C47543   4.103   8.520   2.508 -0.4883 -0.4825 -0.0792
  361MOL0     O47544   3.976   8.551   2.448 -0.1325  0.3911 -0.1114
  361MOL0     C47545   3.862   8.519   2.518 -1.5862 -0.2674 -0.1455
  361MOL0     C47546   3.761   8.616   2.529  0.5525 -0.1249 -0.3037
  361MOL0     C47547   3.652   8.593   2.615 -0.5957  0.6412 -1.1811
  361MOL0     C47548   3.633   8.461   2.670  0.0496 -0.6151 -1.5350
  361MOL0     C47549   3.519   8.445   2.754 -0.4128 -0.0830 -0.5909
  361MOL0     O47550   3.529   8.352   2.854 -0.4151 -0.0277 -0.3809
  361MOL0     C47551   3.419   8.320   2.921 -0.3796  0.0077 -0.2216
  361MOL0     C47552   3.334   8.235   2.860  0.4001 -0.0438  0.0920
  361MOL0     C47553   3.208   8.206   2.920 -0.2715 -0.7857 -0.9141
  361MOL0     C47554   3.176   8.270   3.042  0.2156  0.1588 -0.6479
  361MOL0     O47555   3.064   8.231   3.116 -0.5915  0.5003  0.1004
  361MOL0     C47556   2.960   8.150   3.055 -0.7361  0.9139  0.6506
  361MOL0     C47557   2.839   8.141   3.146 -0.6592  0.2469 -0.1992
  361MOL0     C47558   2.737   8.070   3.058  0.5638 -0.3970 -0.0479
  361MOL0     C47559   2.592   8.045   3.117 -0.3185 -0.2314  0.2786
  361MOL0     C47560   2.490   7.979   3.014  0.5209  0.4413 -0.9355
  361MOL0     C47561   2.540   7.843   2.975 -0.0712  0.3707  0.2991
  361MOL0     C47562   2.461   7.793   2.854 -0.2397  0.0601 -0.8183
  361MOL0     C47563   2.515   7.845   2.719 -0.1065  0.8489 -0.6015
  361MOL0    Cl47564   2.683   7.796   2.689 -0.4673  0.2452 -0.3192
  361MOL0     C47565   3.267   8.359   3.105 -0.6830  0.6511  0.8528
  361MOL0     C47566   3.387   8.386   3.040  0.3891  0.3262 -0.4918
  361MOL0     O47567   3.422   8.519   2.739 -0.3753 -0.2057  0.3795
  361MOL0     C47568   3.732   8.364   2.658 -1.3652 -0.1365 -0.2541
  361MOL0     C47569   3.848   8.397   2.583  0.3570 -0.2308  0.1654
  361MOL0     N47570   4.557   8.683   2.733  0.2094 -0.5206 -0.0388
  361MOL0     N47571   4.678   8.654   2.760  0.0254 -0.1566  0.0921
  361MOL0     C47572   5.964   8.357   2.754  0.4599  0.2101  0.2718
  361MOL0     C47573   6.087   8.419   2.735  0.4463 -0.9485 -0.5795
  361MOL0     C47574   6.457   8.666   2.782 -0.4973 -0.4100  0.1048
  361MOL0     C47575   6.469   8.758   2.681 -0.0855  0.7676  0.7670
  361MOL0     C47576   6.594   8.812   2.640 -0.0377 -0.2236  0.2179
  361MOL0     C47577   6.706   8.776   2.711  0.0129 -0.0630  0.5118
  361MOL0     O47578   6.832   8.822   2.686  0.4004  0.5763 -0.0805
  361MOL0     C47579   6.865   8.835   2.542 -0.2410  0.3948  0.3731
  361MOL0     C47580   7.020   8.845   2.527 -0.2785  0.0973 -0.0673
  361MOL0     C47581   7.067   8.987   2.563  0.2241  0.1491 -0.5944
  361MOL0     C47582   7.218   9.002   2.552 -0.7341  0.2467 -0.1374
  361MOL0     C47583   7.262   9.126   2.484 -0.1092 -0.5293  0.1896
  361MOL0     C47584   7.296   9.230   2.438 -0.3020 -0.6765  0.4703
  361MOL0     C47585   6.690   8.689   2.818 -0.2923 -0.2174  0.1091
  361MOL0     C47586   6.572   8.638   2.861  0.4846 -0.2516 -0.6132
  361MOL0     H47587   5.999   8.739   2.763  3.4628 -0.3892  2.9526
  361MOL0     H47588   5.775   8.639   2.782  0.6457  1.0915 -0.8163
  361MOL0     H47589   5.591   8.523   2.720  0.3730  1.1836  1.1971
  361MOL0     H47590   5.592   8.516   2.886  1.6706  3.9180 -2.1708
  361MOL0     H47591   5.498   8.273   2.863  0.1707 -0.7499 -0.6277
  361MOL0     H47592   5.495   8.303   2.685 -1.0390 -2.4855  1.1895
  361MOL0     H47593   5.341   8.495   2.733  2.7555  3.0658  1.3835
  361MOL0     H47594   5.355   8.475   2.908 -0.5367 -0.5477  1.0622
  361MOL0     H47595   5.237   8.283   2.721 -0.9076  0.0556  0.8393
  361MOL0     H47596   5.284   8.258   2.903  2.2039  0.9683 -0.2682
  361MOL0     H47597   5.121   8.492   2.804  0.2053 -0.1270 -0.6465
  361MOL0     H47598   5.134   8.433   2.967  1.9853 -0.7620  0.1671
  361MOL0     H47599   4.992   8.240   2.940  1.8003  0.7532  0.6207
  361MOL0     H47600   5.001   8.238   2.766  3.6184  0.6360  0.3186
  361MOL0     H47601   4.775   8.293   2.836  1.1956 -1.2704 -0.1481
  361MOL0     H47602   4.828   8.419   2.949 -2.4921  1.7021 -1.2541
  361MOL0     H47603   4.843   8.405   2.636 -1.9415  0.9479 -0.5740
  361MOL0     H47604   4.913   8.543   2.727  0.2357  0.4436 -1.6991
  361MOL0     H47605   4.587   8.363   2.656  2.2202  0.5637 -1.2260
  361MOL0     H47606   4.299   8.473   2.745  1.8641  0.5579  1.6272
  361MOL0     H47607   4.348   8.472   2.577  0.6307  0.9654  0.1218
  361MOL0     H47608   4.296   8.705   2.549  0.1558  0.9237  0.5586
  361MOL0     H47609   4.282   8.732   2.718 -1.0362  0.9505 -0.9001
  361MOL0     H47610   4.082   8.566   2.717  0.2181 -2.0488 -0.5008
  361MOL0     H47611   4.060   8.706   2.605 -1.4855 -0.9387 -1.9190
  361MOL0     H47612   4.116   8.417   2.542  0.2104  0.4169  2.6532
  361MOL0     H47613   4.185   8.543   2.439 -0.8388  0.9598 -0.0512
  361MOL0     H47614   3.774   8.711   2.479  0.8949 -0.5178 -0.9759
  361MOL0     H47615   3.583   8.674   2.637  0.8654  1.5242  0.3776
  361MOL0     H47616   3.352   8.192   2.762 -0.1707  1.1098 -0.5456
  361MOL0     H47617   3.154   8.121   2.878  0.2644 -1.2172 -0.7445
  361MOL0     H47618   2.989   8.049   3.025 -0.1069  1.6095 -1.1935
  361MOL0     H47619   2.923   8.196   2.963  0.8545  2.9416  0.9463
  361MOL0     H47620   2.799   8.240   3.170  0.3356  0.9019 -1.0946
  361MOL0     H47621   2.864   8.083   3.235 -1.8962 -1.0385 -0.6606
  361MOL0     H47622   2.782   7.977   3.021  2.7112  0.5575  0.0477
  361MOL0     H47623   2.725   8.138   2.974  1.0482 -0.0563  0.1563
  361MOL0     H47624   2.604   7.972   3.198  0.9958 -3.6983 -2.7780
  361MOL0     H47625   2.548   8.140   3.149 -0.5862 -0.1666 -0.2648
  361MOL0     H47626   2.490   8.058   2.938  0.9165  0.2895 -1.0994
  361MOL0     H47627   2.387   7.970   3.049  0.9203  2.0969  0.8621
  361MOL0     H47628   2.522   7.775   3.058 -2.4498 -1.1102 -1.2922
  361MOL0     H47629   2.645   7.839   2.944 -0.4617 -1.6754 -0.9773
  361MOL0     H47630   2.460   7.684   2.856  0.4699  0.0323 -1.4747
  361MOL0     H47631   2.355   7.818   2.870  0.0167 -0.0185  1.2738
  361MOL0     H47632   2.492   7.950   2.703  1.5850  1.5069  1.0131
  361MOL0     H47633   2.454   7.802   2.639 -1.9326  0.7400  0.7893
  361MOL0     H47634   3.243   8.420   3.192  2.9329  4.3936 -0.4269
  361MOL0     H47635   3.459   8.453   3.085 -0.9669  0.5594  1.4142
  361MOL0     H47636   3.716   8.261   2.688 -1.4925 -0.0812 -0.1311
  361MOL0     H47637   3.918   8.314   2.579  1.7357  0.4717  4.4731
  361MOL0     H47638   5.954   8.252   2.727 -0.7952 -0.3850  2.7776
  361MOL0     H47639   6.173   8.355   2.723  0.0936 -1.1980 -1.8991
  361MOL0     H47640   6.386   8.768   2.612  0.0063 -1.2260  0.2888
  361MOL0     H47641   6.591   8.878   2.553 -1.9227  1.2134  1.2909
  361MOL0     H47642   6.808   8.919   2.500 -2.5580  1.2813  4.6674
  361MOL0     H47643   6.819   8.757   2.480 -1.0791  1.4950 -0.4390
  361MOL0     H47644   7.070   8.772   2.592 -3.3380 -2.4634 -0.3567
  361MOL0     H47645   7.043   8.813   2.425 -1.7233 -0.2159 -0.3183
  361MOL0     H47646   7.034   9.024   2.660  2.6028  1.2567 -0.1395
  361MOL0     H47647   7.016   9.041   2.482  0.4279  1.9362  0.4221
  361MOL0     H47648   7.271   9.009   2.647  1.1079 -3.1066 -0.7549
  361MOL0     H47649   7.270   8.922   2.497 -0.2894  1.0308 -0.8745
  361MOL0     H47650   7.344   9.321   2.410 -0.0377 -1.1614 -0.7086
  361MOL0     H47651   6.778   8.658   2.874 -1.5725 -0.7001  1.9519
  361MOL0     H47652   6.566   8.578   2.951  2.9653  0.9100  0.4224
  362MOL0     O47653   6.898   4.682   8.456  0.3772 -0.2881  0.6153
  362MOL0     C47654   7.012   4.724   8.430  0.1292  0.6265 -0.5340
  362MOL0     O47655   7.046   4.805   8.330 -0.5968  0.5144  0.3675
  362MOL0     C47656   6.937   4.874   8.280  0.3927 -0.0968 -0.6687
  362MOL0     C47657   6.928   5.008   8.314  0.2161 -0.1880  0.1921
  362MOL0     C47658   6.816   5.080   8.270 -0.2014  0.4195 -1.4436
  362MOL0     C47659   6.718   5.026   8.189  0.1045 -0.8038  0.1989
  362MOL0     O47660   6.611   5.096   8.123  0.7735 -0.2983  0.2305
  362MOL0     C47661   6.619   5.236   8.118  0.3786 -0.5917  0.2930
  362MOL0     C47662   6.510   5.315   8.037  0.1224  0.4355 -0.3448
  362MOL0     C47663   6.363   5.292   8.092 -0.2526  0.0403  0.5536
  362MOL0     C47664   6.258   5.355   7.998 -0.3866 -0.1303 -0.5337
  362MOL0     C47665   6.122   5.297   8.036  0.6030 -0.2342 -0.8636
  362MOL0     C47666   6.067   5.387   8.149  0.3021 -0.0279  0.7055
  362MOL0     C47667   5.926   5.357   8.192  0.2686  0.6279  0.1001
  362MOL0     C47668   5.814   5.405   8.098  0.3430 -0.7857  0.5420
  362MOL0     N47669   5.675   5.379   8.144  0.5159 -0.1099  0.1803
  362MOL0     C47670   5.622   5.265   8.191  0.2694 -0.6309  1.2960
  362MOL0     C47671   5.488   5.291   8.217 -0.3924  1.0858 -0.1404
  362MOL0     C47672   5.371   5.204   8.253 -0.7584 -0.0759 -0.1865
  362MOL0     C47673   5.293   5.171   8.134  0.2315  0.5308 -0.4943
  362MOL0     C47674   5.197   5.062   8.152 -0.2929 -0.1441  0.2835
  362MOL0     C47675   5.173   4.985   8.018 -0.8761  0.3792 -0.1673
  362MOL0     O47676   5.130   4.851   8.059 -0.2736 -0.2382 -0.7124
  362MOL0     C47677   5.002   4.827   8.110  0.2919 -0.0114  0.0284
  362MOL0     C47678   4.902   4.924   8.136  0.9076  0.0396 -0.6616
  362MOL0     C47679   4.778   4.879   8.180 -0.5743 -0.3932  0.1935
  362MOL0     C47680   4.748   4.741   8.208  0.6353 -0.4753 -0.4198
  362MOL0     C47681   4.618   4.687   8.262 -0.3151 -0.5211 -0.0662
  362MOL0     O47682   4.503   4.757   8.226  0.8322 -1.1721  0.0787
  362MOL0     C47683   4.380   4.713   8.270 -1.0586 -0.0717 -0.3913
  362MOL0     C47684   4.286   4.800   8.329 -0.5513  0.4455  0.2342
  362MOL0     C47685   4.158   4.762   8.367  0.2346  0.0161 -0.8767
  362MOL0     C47686   4.113   4.631   8.341  0.5015 -0.6760  0.4905
  362MOL0     O47687   3.985   4.587   8.378  0.5009 -0.2664  0.5726
  362MOL0     C47688   3.876   4.671   8.392 -0.4215 -0.5973  0.4410
  362MOL0     C47689   3.752   4.590   8.428 -0.1486 -0.1135 -0.2000
  362MOL0     C47690   3.718   4.502   8.307 -0.5200  0.9508 -1.5123
  362MOL0     C47691   3.575   4.442   8.335 -0.2832  0.3691 -0.4309
  362MOL0     C47692   3.555   4.385   8.472  0.7353  0.5669 -0.1839
  362MOL0     C47693   3.453   4.270   8.475  0.0574 -0.8874 -0.0077
  362MOL0     C47694   3.423   4.219   8.612  0.4257  0.4559 -1.4096
  362MOL0     C47695   3.344   4.083   8.621  0.2896 -0.5315  0.2809
  362MOL0    Cl47696   3.320   4.017   8.785 -0.3656 -0.3630  0.6086
  362MOL0     C47697   4.202   4.543   8.285  0.1532  0.3695 -0.1377
  362MOL0     C47698   4.337   4.581   8.257  0.8949 -0.0239  0.8709
  362MOL0     O47699   4.627   4.583   8.337  0.6948 -0.4719  0.1643
  362MOL0     C47700   4.852   4.644   8.184  0.0035  0.4485 -0.7541
  362MOL0     C47701   4.977   4.694   8.133  0.2898  0.0757  0.2704
  362MOL0     N47702   5.472   5.426   8.192  0.6163 -0.0340 -0.4248
  362MOL0     N47703   5.584   5.478   8.159 -0.5200 -0.1744 -0.0227
  362MOL0     C47704   6.733   4.889   8.151  1.7710  0.2710 -0.1643
  362MOL0     C47705   6.840   4.811   8.198 -0.7120 -0.0259 -0.7451
  362MOL0     C47706   7.128   4.652   8.498  0.7590  0.2953 -0.1891
  362MOL0     C47707   7.253   4.642   8.431 -0.1150  0.3786 -0.5030
  362MOL0     C47708   7.355   4.566   8.488 -0.2094 -0.3498  0.3125
  362MOL0     C47709   7.332   4.505   8.610 -0.2127  0.1700  0.2932
  362MOL0     O47710   7.436   4.425   8.648  0.3781 -0.9398 -0.4902
  362MOL0     C47711   7.436   4.388   8.785 -1.2996  0.4215  0.0575
  362MOL0     C47712   7.556   4.310   8.844 -1.2474  0.3774 -1.2181
  362MOL0     C47713   7.580   4.176   8.772 -0.5978  0.2865  0.1500
  362MOL0     C47714   7.662   4.068   8.834 -0.2279 -0.3458  0.1664
  362MOL0     C47715   7.596   4.012   8.957  0.2121 -0.6574  0.4985
  362MOL0     C47716   7.542   3.974   9.058 -0.0099  0.8050  0.0317
  362MOL0     C47717   7.207   4.508   8.671  0.2998 -0.3433 -0.3001
  362MOL0     C47718   7.107   4.592   8.618  0.4440  0.7117 -0.1193
  362MOL0     H47719   7.003   5.054   8.378  1.8206  0.7708 -2.2063
  362MOL0     H47720   6.806   5.183   8.302  1.4260  0.1983 -0.0880
  362MOL0     H47721   6.716   5.261   8.075  1.1122 -1.2064  1.5424
  362MOL0     H47722   6.617   5.268   8.222  0.5140  0.5005 -0.0260
  362MOL0     H47723   6.513   5.261   7.942 -0.3799 -3.7269  1.7724
  362MOL0     H47724   6.532   5.422   8.032  0.9087  0.2369 -1.4266
  362MOL0     H47725   6.354   5.332   8.193  1.0523 -0.7135  1.0062
  362MOL0     H47726   6.366   5.184   8.109  2.2382 -0.0027  0.3072
  362MOL0     H47727   6.264   5.463   8.014  1.7865 -0.1358 -0.9762
  362MOL0     H47728   6.271   5.319   7.896  0.0700 -1.3497 -0.0606
  362MOL0     H47729   6.141   5.196   8.072  1.7239 -0.1102 -1.0714
  362MOL0     H47730   6.056   5.282   7.950 -1.4349 -3.5648  1.0691
  362MOL0     H47731   6.064   5.487   8.104  2.3104  0.0216  0.5937
  362MOL0     H47732   6.136   5.386   8.234 -0.6019  1.2690  1.5122
  362MOL0     H47733   5.916   5.250   8.210 -0.5089  0.4045 -1.4537
  362MOL0     H47734   5.922   5.406   8.290 -1.8720 -1.8374  1.3460
  362MOL0     H47735   5.822   5.357   8.000  2.4012  1.2358 -0.3606
  362MOL0     H47736   5.814   5.514   8.083 -1.8008 -1.1034 -3.0000
  362MOL0     H47737   5.676   5.171   8.187 -0.8741 -1.2860  0.8211
  362MOL0     H47738   5.301   5.268   8.307  0.9899  2.1824 -0.4576
  362MOL0     H47739   5.416   5.122   8.309 -0.5942  1.8512  2.7265
  362MOL0     H47740   5.367   5.129   8.065 -0.4444  0.3353 -1.1109
  362MOL0     H47741   5.239   5.259   8.098 -0.5981 -0.0003 -0.5567
  362MOL0     H47742   5.243   4.997   8.227  1.6007  1.2374  0.3968
  362MOL0     H47743   5.102   5.102   8.188  1.4708  3.4956  1.3836
  362MOL0     H47744   5.257   4.983   7.949  0.1432  1.8922  0.9662
  362MOL0     H47745   5.097   5.035   7.958 -2.2955  2.7548  3.2772
  362MOL0     H47746   4.915   5.029   8.114  1.0430 -0.0500 -1.0098
  362MOL0     H47747   4.700   4.954   8.191 -2.4467 -2.0956 -0.8547
  362MOL0     H47748   4.323   4.902   8.336 -0.6814  0.4267  1.5850
  362MOL0     H47749   4.093   4.843   8.401 -0.4908 -0.4237 -1.1827
  362MOL0     H47750   3.853   4.736   8.307  0.8308 -0.8486 -0.1048
  362MOL0     H47751   3.885   4.737   8.479 -0.5601 -0.5618  0.4292
  362MOL0     H47752   3.673   4.663   8.447  0.9419  1.0843 -0.1122
  362MOL0     H47753   3.786   4.542   8.520 -0.0790 -0.1944 -0.2678
  362MOL0     H47754   3.798   4.429   8.291 -0.2554  1.2928 -1.7419
  362MOL0     H47755   3.724   4.561   8.216  0.6111 -0.8941 -2.7117
  362MOL0     H47756   3.500   4.520   8.316 -0.1359  0.0687 -2.5158
  362MOL0     H47757   3.568   4.365   8.258 -1.0382 -1.0782  1.0299
  362MOL0     H47758   3.526   4.464   8.542 -3.0953 -0.1401 -0.7662
  362MOL0     H47759   3.635   4.325   8.516  0.9162 -0.0003 -1.2700
  362MOL0     H47760   3.486   4.192   8.406  0.3738 -0.9414  0.2041
  362MOL0     H47761   3.363   4.316   8.433 -0.0428  1.1522  2.1950
  362MOL0     H47762   3.522   4.202   8.653 -0.1398 -1.0523 -0.6111
  362MOL0     H47763   3.361   4.292   8.665  1.2254  3.1198 -3.8402
  362MOL0     H47764   3.405   4.006   8.575  0.8145 -2.0093  3.2116
  362MOL0     H47765   3.244   4.099   8.579  0.3025 -2.9171 -0.7817
  362MOL0     H47766   4.160   4.444   8.267  1.3741 -0.0809 -0.6242
  362MOL0     H47767   4.398   4.520   8.192  0.3280  2.9554 -2.8197
  362MOL0     H47768   4.846   4.538   8.209 -0.1423 -0.3090 -3.6242
  362MOL0     H47769   5.052   4.616   8.130  0.3579  0.1024  1.0068
  362MOL0     H47770   6.665   4.841   8.080  0.8602  0.0456  0.8226
  362MOL0     H47771   6.862   4.706   8.180 -3.4210 -1.0130  1.1321
  362MOL0     H47772   7.256   4.700   8.339 -1.7538  0.5436 -0.4844
  362MOL0     H47773   7.449   4.566   8.434  0.7151 -0.3640  1.8608
  362MOL0     H47774   7.349   4.323   8.799 -1.1034 -0.0835 -1.0041
  362MOL0     H47775   7.416   4.475   8.849 -1.7979  0.4505 -0.1291
  362MOL0     H47776   7.649   4.366   8.833 -0.0987 -1.4576 -1.4556
  362MOL0     H47777   7.529   4.294   8.949  2.4978  0.7974 -0.0294
  362MOL0     H47778   7.621   4.200   8.673 -0.0082 -0.8062  0.1179
  362MOL0     H47779   7.483   4.127   8.759 -0.1736 -0.7181  0.6664
  362MOL0     H47780   7.683   3.986   8.764  3.7501  0.3384  0.3301
  362MOL0     H47781   7.753   4.119   8.866 -1.8286  2.0147  1.2346
  362MOL0     H47782   7.516   3.945   9.158  1.3635  2.0918  0.8199
  362MOL0     H47783   7.195   4.460   8.767 -0.5840  4.6797  2.4367
  362MOL0     H47784   7.019   4.609   8.679 -0.1963  4.7714 -1.8324
  363MOL0     O47785   5.593   9.793   2.430  1.2904 -0.1551 -0.1596
  363MOL0     C47786   5.554   9.892   2.497 -0.4006 -1.5064 -0.0408
  363MOL0     O47787   5.437   9.922   2.564 -0.4597  0.3417 -0.8061
  363MOL0     C47788   5.332   9.832   2.561 -0.1456  0.6455  0.1228
  363MOL0     C47789   5.238   9.853   2.661 -0.2574  0.5637  0.3010
  363MOL0     C47790   5.123   9.772   2.678  0.4868  0.3171 -0.1718
  363MOL0     C47791   5.108   9.658   2.596  0.2014  0.0167  0.2988
  363MOL0     O47792   5.001   9.567   2.611  0.4170 -0.2141 -0.0333
  363MOL0     C47793   4.895   9.611   2.686  0.0072 -0.0830  0.2201
  363MOL0     C47794   4.807   9.492   2.712  0.3463  0.5030  0.0604
  363MOL0     C47795   4.682   9.542   2.782 -0.6452 -0.1471 -0.1138
  363MOL0     C47796   4.575   9.434   2.767 -0.7497  0.0652  0.0551
  363MOL0     C47797   4.441   9.486   2.829 -0.3113  0.9695  0.4575
  363MOL0     C47798   4.359   9.579   2.738  0.1502 -0.5133 -0.1907
  363MOL0     C47799   4.330   9.539   2.592 -0.0908  0.5017 -0.5065
  363MOL0     C47800   4.221   9.638   2.542 -0.1894 -0.2692  0.2571
  363MOL0     N47801   4.076   9.602   2.563 -0.1722 -0.0961  0.5075
  363MOL0     C47802   3.987   9.531   2.480 -1.2456  0.1162  0.5810
  363MOL0     C47803   3.877   9.509   2.552 -0.2658 -0.1185  0.0723
  363MOL0     C47804   3.747   9.438   2.519  0.3291 -0.1902  0.0574
  363MOL0     C47805   3.685   9.465   2.381  0.4164  0.6446 -0.8661
  363MOL0     C47806   3.736   9.379   2.269  0.4844 -0.0917  0.4423
  363MOL0     C47807   3.704   9.416   2.119 -0.2497 -0.2565  0.4062
  363MOL0     O47808   3.568   9.452   2.111  0.1829 -0.6084 -0.5256
  363MOL0     C47809   3.473   9.354   2.105  0.2675 -0.0589 -0.5194
  363MOL0     C47810   3.490   9.221   2.059  0.5253  0.0600  0.3979
  363MOL0     C47811   3.383   9.125   2.052 -0.3966 -0.1336 -0.2784
  363MOL0     C47812   3.258   9.167   2.110 -0.1058  1.6701  0.1716
  363MOL0     C47813   3.146   9.071   2.118 -0.1696 -0.9202  1.0938
  363MOL0     O47814   3.158   8.946   2.066 -0.2615 -0.0335  0.3378
  363MOL0     C47815   3.059   8.854   2.087 -0.1439 -0.5697  0.7097
  363MOL0     C47816   3.054   8.770   2.190  0.2564  0.1366 -0.2143
  363MOL0     C47817   2.951   8.684   2.198  0.6076 -0.2284 -0.1228
  363MOL0     C47818   2.839   8.681   2.117 -0.6508 -0.2724  0.1808
  363MOL0     O47819   2.722   8.610   2.135 -0.2933  0.3523  0.2040
  363MOL0     C47820   2.683   8.581   2.268 -0.9125  0.0929 -0.0995
  363MOL0     C47821   2.542   8.521   2.274 -0.2781 -0.4364  0.1246
  363MOL0     C47822   2.533   8.386   2.198 -0.3459 -0.4965  0.7073
  363MOL0     C47823   2.390   8.347   2.197 -0.6733  0.3145  0.1085
  363MOL0     C47824   2.359   8.222   2.119  0.2772  0.0223 -0.6785
  363MOL0     C47825   2.203   8.197   2.111 -1.2376 -0.7915  0.0443
  363MOL0     C47826   2.182   8.070   2.026  0.9158  0.5977 -0.2382
  363MOL0     C47827   2.036   8.022   2.005  0.7748  0.5274  0.3365
  363MOL0    Cl47828   1.917   8.150   1.949  0.1867 -0.2220  0.0668
  363MOL0     C47829   2.841   8.782   2.012 -0.1165 -0.1492  0.1236
  363MOL0     C47830   2.952   8.867   1.997 -0.9412 -0.2783 -0.4349
  363MOL0     O47831   3.054   9.111   2.184 -0.4487 -0.5796  0.3984
  363MOL0     C47832   3.249   9.294   2.166  0.4732  0.3355 -0.4194
  363MOL0     C47833   3.345   9.388   2.163 -0.6733 -1.5217  0.5069
  363MOL0     N47834   3.894   9.561   2.677 -0.3010 -0.3932  0.6147
  363MOL0     N47835   4.013   9.612   2.687  0.1491  0.2539 -0.7010
  363MOL0     C47836   5.202   9.635   2.497 -0.7624  0.2498  0.4346
  363MOL0     C47837   5.308   9.726   2.474 -0.0533  0.7262 -0.2033
  363MOL0     C47838   5.651  10.002   2.491 -0.2807  1.1358 -0.6840
  363MOL0     C47839   5.632  10.126   2.563 -0.7613 -0.2869 -0.6189
  363MOL0     C47840   5.727  10.227   2.554  0.6882 -0.4788 -0.7915
  363MOL0     C47841   5.848  10.219   2.482 -0.0336  0.2515 -0.5775
  363MOL0     O47842   5.934  10.322   2.460  0.6136 -0.7961 -0.5530
  363MOL0     C47843   5.912  10.440   2.544  0.8982  0.9395  0.0394
  363MOL0     C47844   6.048  10.512   2.558 -0.3545 -0.5332 -0.3580
  363MOL0     C47845   6.122  10.422   2.653  0.2145  0.5180  0.4452
  363MOL0     C47846   6.230  10.500   2.731 -0.4620  1.1709 -0.5484
  363MOL0     C47847   6.327  10.581   2.651  0.4598 -0.4772 -0.4756
  363MOL0     C47848   6.412  10.646   2.596  0.3484 -0.3123  0.5726
  363MOL0     C47849   5.870  10.090   2.424  0.4723  0.6108  0.0211
  363MOL0     C47850   5.785   9.982   2.433 -0.3028 -0.5988  0.4210
  363MOL0     H47851   5.257   9.932   2.733  0.9914 -0.1586  0.8052
  363MOL0     H47852   5.049   9.809   2.747  0.0694 -0.5631 -0.1305
  363MOL0     H47853   4.850   9.689   2.625  2.6446  2.4468  1.2839
  363MOL0     H47854   4.922   9.646   2.786 -0.0701 -0.9701  0.5627
  363MOL0     H47855   4.856   9.412   2.769  1.6765  0.1155 -1.5706
  363MOL0     H47856   4.773   9.456   2.615  1.6603  0.7291 -0.4985
  363MOL0     H47857   4.647   9.639   2.747 -0.1308 -0.3334 -1.1536
  363MOL0     H47858   4.714   9.554   2.886  2.9859 -0.1968 -1.1195
  363MOL0     H47859   4.552   9.412   2.662 -0.7359  1.1500 -0.1897
  363MOL0     H47860   4.601   9.342   2.820 -0.8868 -0.7638 -1.2640
  363MOL0     H47861   4.454   9.532   2.927  1.5305 -1.0645  1.2578
  363MOL0     H47862   4.380   9.396   2.846  1.1900  0.4106  3.7530
  363MOL0     H47863   4.416   9.672   2.745 -0.4232 -0.1891  0.3242
  363MOL0     H47864   4.263   9.603   2.785  0.3907  2.1646 -0.8985
  363MOL0     H47865   4.424   9.557   2.540 -0.5050 -0.7084 -1.7175
  363MOL0     H47866   4.292   9.436   2.594 -2.9380  1.4150 -1.7324
  363MOL0     H47867   4.238   9.669   2.439  2.6475 -0.9647  0.4257
  363MOL0     H47868   4.241   9.736   2.585  3.3270 -1.4367  1.7286
  363MOL0     H47869   4.018   9.504   2.379  0.1914  1.9610  0.4724
  363MOL0     H47870   3.675   9.488   2.586  0.1567  1.9426 -1.5953
  363MOL0     H47871   3.750   9.332   2.544  2.0844 -0.2608 -0.2860
  363MOL0     H47872   3.709   9.568   2.354 -1.5993  0.5365 -3.3751
  363MOL0     H47873   3.576   9.460   2.385  0.4423 -0.4995 -1.1671
  363MOL0     H47874   3.844   9.391   2.277  0.2266  0.9634  3.6034
  363MOL0     H47875   3.731   9.271   2.287  0.9037 -0.1682  0.1186
  363MOL0     H47876   3.725   9.331   2.054 -3.0254 -1.0317  0.4058
  363MOL0     H47877   3.762   9.506   2.095  1.8586 -1.3852  0.9569
  363MOL0     H47878   3.585   9.184   2.023  1.3126  2.0544  0.3083
  363MOL0     H47879   3.392   9.029   2.001  3.1813 -1.2930  2.1560
  363MOL0     H47880   3.136   8.780   2.260  2.8578  2.7692 -3.2622
  363MOL0     H47881   2.969   8.597   2.261  2.1572  0.1874  0.0446
  363MOL0     H47882   2.689   8.673   2.328  1.3434 -3.2409  5.5333
  363MOL0     H47883   2.752   8.507   2.309  2.6245  0.6024 -4.3728
  363MOL0     H47884   2.485   8.596   2.218  0.6258  0.7354  0.7350
  363MOL0     H47885   2.499   8.523   2.375 -1.1225  2.4940 -0.1956
  363MOL0     H47886   2.594   8.308   2.244  0.7196 -1.6247 -2.3314
  363MOL0     H47887   2.568   8.398   2.095  0.8769  2.0398  1.3298
  363MOL0     H47888   2.353   8.321   2.296 -2.8649  0.6430 -0.5739
  363MOL0     H47889   2.325   8.430   2.168 -2.1734 -0.0309  2.2524
  363MOL0     H47890   2.412   8.138   2.164 -0.5624 -0.1594 -0.0163
  363MOL0     H47891   2.394   8.243   2.018 -1.6453  0.9027 -1.1975
  363MOL0     H47892   2.164   8.287   2.064 -0.3580  0.0180  0.8328
  363MOL0     H47893   2.152   8.201   2.208 -1.5272  0.7129 -0.1438
  363MOL0     H47894   2.218   8.090   1.925  1.4661  0.7814 -0.0090
  363MOL0     H47895   2.236   7.984   2.068 -0.8902 -0.5465 -0.1564
  363MOL0     H47896   1.999   7.990   2.103  2.4142 -1.4189  0.3825
  363MOL0     H47897   2.016   7.928   1.953  0.0952  0.4642  0.6932
  363MOL0     H47898   2.757   8.792   1.944 -1.3063 -0.0308  1.5425
  363MOL0     H47899   2.949   8.945   1.922  0.8941 -1.7034 -2.1080
  363MOL0     H47900   3.153   9.331   2.201 -0.2911  0.5143 -2.5257
  363MOL0     H47901   3.320   9.486   2.204 -2.2124 -3.5213  5.0104
  363MOL0     H47902   5.183   9.546   2.439  1.0740 -0.5947  1.0400
  363MOL0     H47903   5.370   9.695   2.390  1.0491 -0.4212  1.0035
  363MOL0     H47904   5.538  10.136   2.616 -0.1254  3.4394  0.0838
  363MOL0     H47905   5.697  10.316   2.608 -0.5973 -0.3364 -1.6999
  363MOL0     H47906   5.867  10.429   2.644  2.1180  0.3642  0.5472
  363MOL0     H47907   5.840  10.504   2.492 -1.6169 -1.9912 -0.4031
  363MOL0     H47908   6.096  10.502   2.460 -1.0910  2.3791 -1.1110
  363MOL0     H47909   6.046  10.618   2.584  0.7036  0.1492 -2.7900
  363MOL0     H47910   6.176  10.341   2.602  0.0153 -1.1907  2.7941
  363MOL0     H47911   6.052  10.373   2.721  1.7262 -1.8936  0.4005
  363MOL0     H47912   6.183  10.577   2.793 -0.1582  1.7117 -0.9871
  363MOL0     H47913   6.278  10.434   2.804 -1.4321 -0.8785 -1.6539
  363MOL0     H47914   6.478  10.724   2.566  1.8224 -0.6936  2.6083
  363MOL0     H47915   5.956  10.069   2.361 -0.2445 -1.6118 -0.3300
  363MOL0     H47916   5.810   9.883   2.397  0.8948 -0.6940  1.4292
  364MOL0     O47917   7.523   0.623   8.932 -0.3728  0.3519  0.8856
  364MOL0     C47918   7.468   0.693   8.847 -0.0657  1.3486 -0.0180
  364MOL0     O47919   7.527   0.733   8.722  0.1169  0.1624 -1.1385
  364MOL0     C47920   7.648   0.685   8.702 -1.4070 -0.3603  0.3785
  364MOL0     C47921   7.760   0.757   8.747 -0.4435  0.7756 -0.2438
  364MOL0     C47922   7.890   0.695   8.751 -0.0778  0.3299  0.1729
  364MOL0     C47923   7.909   0.571   8.689 -0.2975  0.4781  0.1997
  364MOL0     O47924   8.033   0.522   8.689 -0.0026  0.4053  0.0879
  364MOL0     C47925   8.088   0.417   8.607 -0.7679 -0.5943  0.2271
  364MOL0     C47926   8.121   0.470   8.468 -0.2202 -0.1893 -0.5298
  364MOL0     C47927   8.227   0.583   8.468  0.4103 -0.1399  0.3260
  364MOL0     C47928   8.370   0.530   8.484 -0.5799 -0.8715  0.0814
  364MOL0     C47929   8.470   0.630   8.432 -0.6862  0.5770  0.0897
  364MOL0     C47930   8.615   0.577   8.478 -0.3196 -0.6569 -0.1072
  364MOL0     C47931   8.714   0.701   8.487  0.3127  0.2431  1.2180
  364MOL0     C47932   8.856   0.662   8.532 -0.5483  0.2271  0.3753
  364MOL0     N47933   8.931   0.791   8.540  0.0820  0.5916  0.5820
  364MOL0     C47934   8.918   0.872   8.641 -0.3546 -0.1661 -0.3644
  364MOL0     C47935   8.940   0.992   8.575 -0.1889  1.0272  0.0283
  364MOL0     C47936   8.908   1.130   8.638 -0.0678  0.6970 -0.4486
  364MOL0     C47937   8.774   1.178   8.584 -0.6836 -0.4202  0.0520
  364MOL0     C47938   8.659   1.099   8.637  0.5716 -0.3360 -0.2481
  364MOL0     C47939   8.525   1.169   8.616  0.7290  0.3680  0.0620
  364MOL0     O47940   8.418   1.080   8.653  0.8382 -0.1689  0.4172
  364MOL0     C47941   8.295   1.122   8.605  0.1532 -0.1543 -0.7649
  364MOL0     C47942   8.206   1.023   8.589  0.7684 -0.2911 -0.1292
  364MOL0     C47943   8.077   1.060   8.542  0.1350  0.4403 -0.1922
  364MOL0     C47944   8.039   1.195   8.521  1.2820 -0.1331  0.4863
  364MOL0     C47945   7.904   1.223   8.466 -0.8377  0.6217  0.0571
  364MOL0     O47946   7.880   1.339   8.391  0.4895  0.2871 -0.1952
  364MOL0     C47947   7.748   1.350   8.340 -0.0098  0.5067  0.8541
  364MOL0     C47948   7.706   1.247   8.248 -0.4925  0.3934  0.3230
  364MOL0     C47949   7.582   1.266   8.192 -0.9197  0.0789  0.7546
  364MOL0     C47950   7.488   1.356   8.235 -0.3165  0.2811  0.4078
  364MOL0     O47951   7.370   1.363   8.157  0.3489 -1.0365  0.2281
  364MOL0     C47952   7.251   1.390   8.228 -0.1810  0.8084  0.2971
  364MOL0     C47953   7.126   1.367   8.150  0.2229  0.8851 -0.3269
  364MOL0     C47954   7.005   1.383   8.249  0.4316 -0.7166 -0.0397
  364MOL0     C47955   6.883   1.304   8.208 -1.3867  0.6643  0.0570
  364MOL0     C47956   6.759   1.347   8.279  0.7649  0.8742 -0.6843
  364MOL0     C47957   6.633   1.282   8.218 -0.7227  0.0010 -0.4525
  364MOL0     C47958   6.501   1.337   8.275 -0.1798  0.6222 -0.2250
  364MOL0     C47959   6.388   1.265   8.211  1.4655  0.5192  0.6474
  364MOL0    Cl47960   6.348   1.113   8.303 -0.4439  0.3490 -0.5733
  364MOL0     C47961   7.526   1.453   8.327  0.2981  0.2639 -0.6115
  364MOL0     C47962   7.661   1.457   8.369 -1.4411  0.1512  0.1650
  364MOL0     O47963   7.823   1.132   8.477  0.0912 -0.3303 -0.1012
  364MOL0     C47964   8.141   1.293   8.548  0.1023  0.0639  0.5963
  364MOL0     C47965   8.264   1.259   8.591  0.4597 -0.5997 -0.2091
  364MOL0     N47966   8.954   0.971   8.436  0.0138 -1.7755 -0.5690
  364MOL0     N47967   8.971   0.843   8.420  0.5940 -0.9882 -0.2191
  364MOL0     C47968   7.801   0.502   8.630  1.2781 -0.1773 -0.6938
  364MOL0     C47969   7.670   0.560   8.639 -0.2238  0.5989 -0.2931
  364MOL0     C47970   7.343   0.760   8.890 -0.3624 -0.0435  0.6776
  364MOL0     C47971   7.290   0.872   8.819  0.6170 -0.1950  0.5756
  364MOL0     C47972   7.164   0.928   8.863  0.3399  1.0597 -0.4930
  364MOL0     C47973   7.094   0.867   8.970  1.0186  0.3729  0.7745
  364MOL0     O47974   6.973   0.906   9.020 -0.1134 -0.1444 -0.5756
  364MOL0     C47975   6.916   1.021   8.966  0.0726 -0.2909 -0.0967
  364MOL0     C47976   6.772   1.018   8.991  0.2512  0.5318 -0.0690
  364MOL0     C47977   6.697   0.892   8.924 -0.6554 -0.2849 -0.3287
  364MOL0     C47978   6.557   0.861   8.961 -0.0224 -0.0583  0.0622
  364MOL0     C47979   6.467   0.971   8.940 -0.6766  0.1427  0.0808
  364MOL0     C47980   6.399   1.072   8.912  0.5663 -0.3212  0.0526
  364MOL0     C47981   7.148   0.756   9.033 -0.0632  0.1953 -0.0257
  364MOL0     C47982   7.265   0.704   8.985  0.7042  0.0366 -0.2017
  364MOL0     H47983   7.752   0.861   8.777  0.3505  0.3447  1.6101
  364MOL0     H47984   7.974   0.757   8.782  0.6969  0.0091 -1.1848
  364MOL0     H47985   8.003   0.349   8.616  0.0730 -1.8867 -1.1900
  364MOL0     H47986   8.180   0.382   8.655  0.2890  4.4915  2.6291
  364MOL0     H47987   8.030   0.515   8.427 -0.0398  0.7923  0.1150
  364MOL0     H47988   8.164   0.406   8.391 -1.6515  1.9341 -3.2547
  364MOL0     H47989   8.201   0.654   8.548 -2.2248  1.0459 -1.4551
  364MOL0     H47990   8.207   0.627   8.370 -1.3896 -0.8791  0.3402
  364MOL0     H47991   8.395   0.519   8.590  2.0982  2.7414  0.0247
  364MOL0     H47992   8.391   0.437   8.430  0.2503  0.1241 -1.3889
  364MOL0     H47993   8.454   0.735   8.457 -1.2503  1.4630 -3.4230
  364MOL0     H47994   8.460   0.626   8.323 -1.6044 -0.5846  0.2003
  364MOL0     H47995   8.657   0.487   8.431  0.5834 -0.5151  0.4102
  364MOL0     H47996   8.599   0.550   8.583  1.3193 -0.7064  0.1536
  364MOL0     H47997   8.721   0.737   8.384 -0.2315 -1.3132  0.5977
  364MOL0     H47998   8.664   0.778   8.546  0.4463  0.1997  1.3912
  364MOL0     H47999   8.900   0.600   8.454 -0.2341 -0.5205  1.1264
  364MOL0     H48000   8.864   0.607   8.626 -0.7738 -0.3674  0.0457
  364MOL0     H48001   8.890   0.854   8.744  1.2591 -0.9200 -0.0460
  364MOL0     H48002   8.981   1.204   8.606 -1.4253  2.3354  0.1185
  364MOL0     H48003   8.911   1.122   8.747  3.7430 -0.7434 -0.4863
  364MOL0     H48004   8.775   1.183   8.474 -1.9663 -3.4548 -0.2099
  364MOL0     H48005   8.765   1.283   8.610 -0.6144 -0.4779  0.3081
  364MOL0     H48006   8.658   1.000   8.592 -1.8206 -1.5582  2.2314
  364MOL0     H48007   8.672   1.093   8.746  0.9951 -1.0458 -0.3310
  364MOL0     H48008   8.521   1.184   8.508  2.6324 -2.9597 -0.5933
  364MOL0     H48009   8.530   1.261   8.675  0.2694  0.4163  0.0309
  364MOL0     H48010   8.239   0.919   8.597 -0.1560 -0.4703  2.1748
  364MOL0     H48011   8.012   0.979   8.510  0.3375 -0.7873  2.2689
  364MOL0     H48012   7.770   1.163   8.224  1.8273  1.9421  0.8367
  364MOL0     H48013   7.546   1.186   8.129  0.7633 -0.0163 -0.1579
  364MOL0     H48014   7.246   1.492   8.268  1.1125  0.0264  2.7056
  364MOL0     H48015   7.254   1.329   8.319  1.0574  2.8123  1.7000
  364MOL0     H48016   7.128   1.264   8.112 -2.3378  0.7750 -0.3727
  364MOL0     H48017   7.118   1.435   8.064  1.8141 -0.4942 -1.6277
  364MOL0     H48018   6.983   1.490   8.258 -0.8510 -0.9522 -0.2568
  364MOL0     H48019   7.038   1.340   8.344 -0.3692  0.6546  0.8926
  364MOL0     H48020   6.862   1.326   8.103  1.4145  1.9221 -0.3251
  364MOL0     H48021   6.903   1.196   8.215  0.6646  0.8988 -1.3419
  364MOL0     H48022   6.749   1.456   8.271  0.1730  0.7575 -1.5363
  364MOL0     H48023   6.764   1.319   8.385  0.3312  2.1618 -0.3029
  364MOL0     H48024   6.647   1.174   8.232  0.1405  0.0684 -0.7350
  364MOL0     H48025   6.638   1.292   8.109 -1.4100 -2.6682 -0.8192
  364MOL0     H48026   6.497   1.317   8.383 -1.1856 -0.2808 -0.4164
  364MOL0     H48027   6.485   1.443   8.253 -2.0817 -0.3556 -4.5388
  364MOL0     H48028   6.402   1.247   8.104  0.8514  3.8200 -0.1151
  364MOL0     H48029   6.299   1.328   8.224  0.9449 -0.7141  4.0440
  364MOL0     H48030   7.462   1.540   8.343 -0.7719 -0.9079  2.1745
  364MOL0     H48031   7.705   1.542   8.421 -0.4520  0.8489 -1.7232
  364MOL0     H48032   8.114   1.397   8.530 -0.3031 -0.5946 -3.7802
  364MOL0     H48033   8.330   1.341   8.613  1.1602 -0.8363 -1.3356
  364MOL0     H48034   7.812   0.403   8.588 -0.5180  0.0093 -1.6863
  364MOL0     H48035   7.595   0.500   8.589  0.8892  0.5330 -1.9480
  364MOL0     H48036   7.343   0.922   8.739  1.0201  0.6174  1.3307
  364MOL0     H48037   7.123   1.014   8.812 -2.0314  0.3089  0.0505
  364MOL0     H48038   6.919   1.021   8.857  1.0614 -2.8029 -0.1321
  364MOL0     H48039   6.962   1.118   8.987 -2.0715  0.8207 -0.1935
  364MOL0     H48040   6.752   1.024   9.098  0.2133  2.4899 -0.1438
  364MOL0     H48041   6.721   1.101   8.942 -0.5442 -0.3238 -0.7132
  364MOL0     H48042   6.751   0.799   8.947  0.8840  0.6999  0.2099
  364MOL0     H48043   6.698   0.908   8.816 -3.5084  0.5211 -0.3007
  364MOL0     H48044   6.524   0.774   8.903 -0.7191  0.7634 -0.8145
  364MOL0     H48045   6.546   0.833   9.066 -0.1532 -0.5375 -0.0792
  364MOL0     H48046   6.347   1.161   8.883 -2.9654 -2.3721 -0.5308
  364MOL0     H48047   7.094   0.709   9.115 -0.0319 -2.1533 -1.2771
  364MOL0     H48048   7.298   0.613   9.034  1.8095  1.3752  1.6559
  365MOL0     O48049  10.819   6.502   7.180 -0.0488 -0.4272 -0.3039
  365MOL0     C48050  10.901   6.589   7.160 -0.6297  0.5250  0.4877
  365MOL0     O48051  11.020   6.612   7.237 -0.6262  0.0434 -0.1264
  365MOL0     C48052  11.045   6.514   7.332 -0.2494  0.1252  0.1274
  365MOL0     C48053  10.992   6.520   7.462 -0.2780 -0.0117  0.1786
  365MOL0     C48054  11.029   6.429   7.556  0.0668  0.4569  0.2640
  365MOL0     C48055  11.114   6.322   7.524 -0.3556  0.2790 -0.2454
  365MOL0     O48056  11.148   6.235   7.619 -0.4698 -0.0308  0.1091
  365MOL0     C48057  11.276   6.165   7.613  0.7650 -0.0390  0.5358
  365MOL0     C48058  11.288   6.068   7.732  0.5626  0.0675 -0.9503
  365MOL0     C48059  11.428   6.035   7.772  0.1003  0.5344  0.0348
  365MOL0     C48060  11.424   5.940   7.893 -0.1911 -0.7446  0.0856
  365MOL0     C48061  11.559   5.893   7.950 -0.3589  0.1514 -0.5250
  365MOL0     C48062  11.659   5.833   7.855 -0.7556  0.1590  0.0574
  365MOL0     C48063  11.620   5.704   7.788  0.0598  1.1144 -0.6661
  365MOL0     C48064  11.615   5.576   7.872  0.4287 -0.5113 -0.4342
  365MOL0     N48065  11.611   5.453   7.793 -0.7294 -1.6974  1.1856
  365MOL0     C48066  11.719   5.377   7.759  0.4852  0.4785  0.7021
  365MOL0     C48067  11.666   5.265   7.708  0.5176  0.4755  0.7193
  365MOL0     C48068  11.731   5.157   7.641 -0.2649 -0.7859 -0.4035
  365MOL0     C48069  11.885   5.143   7.654  0.7637 -0.6565  0.4725
  365MOL0     C48070  11.922   5.100   7.795  0.8759 -0.1149  0.4653
  365MOL0     C48071  12.073   5.097   7.816 -0.3057 -0.3101 -0.7722
  365MOL0     O48072  12.125   4.986   7.747  0.5101  0.0445 -0.0946
  365MOL0     C48073  12.248   4.944   7.783  0.0958  1.1724  0.0491
  365MOL0     C48074  12.331   5.006   7.871 -0.3599  0.1503  0.2608
  365MOL0     C48075  12.450   4.945   7.898  0.4423  0.6973 -0.3430
  365MOL0     C48076  12.479   4.822   7.845 -0.1929  0.4724  0.3982
  365MOL0     C48077  12.597   4.752   7.891  0.5769  0.3916  0.5852
  365MOL0     O48078  12.636   4.638   7.815  0.1290  0.1833 -0.5456
  365MOL0     C48079  12.756   4.576   7.848  0.0876  0.4480  0.2867
  365MOL0     C48080  12.889   4.631   7.834 -0.0618 -0.6910  0.6718
  365MOL0     C48081  13.011   4.555   7.851 -0.2756 -0.3632  1.1746
  365MOL0     C48082  12.994   4.424   7.889  0.2103  0.3531 -0.4005
  365MOL0     O48083  13.093   4.337   7.918 -0.4790  1.1437  0.4763
  365MOL0     C48084  13.233   4.369   7.931  0.3896 -0.2479 -0.0474
  365MOL0     C48085  13.247   4.461   8.049 -0.4717  0.2674 -0.0033
  365MOL0     C48086  13.387   4.447   8.118  0.3200  0.6603  0.1532
  365MOL0     C48087  13.394   4.533   8.243 -0.1160 -0.5191 -0.7781
  365MOL0     C48088  13.529   4.521   8.318  0.4510  0.0676 -0.0855
  365MOL0     C48089  13.634   4.603   8.246  0.7103  0.2618  0.2686
  365MOL0     C48090  13.767   4.568   8.312 -0.2251  0.6674  0.5301
  365MOL0     C48091  13.892   4.621   8.233  0.1390 -0.1814 -0.0261
  365MOL0    Cl48092  13.904   4.810   8.243 -0.1659 -0.0204 -0.0565
  365MOL0     C48093  12.868   4.370   7.909  0.4669  0.3209  0.1378
  365MOL0     C48094  12.750   4.439   7.881  0.5754  0.0442  0.2936
  365MOL0     O48095  12.659   4.801   7.992  0.1190 -0.3874 -0.0626
  365MOL0     C48096  12.396   4.768   7.745  0.1825  0.2954 -0.1780
  365MOL0     C48097  12.274   4.823   7.715  0.2627 -0.3986  0.6537
  365MOL0     N48098  11.531   5.277   7.719  0.0360  0.5300  0.2997
  365MOL0     N48099  11.497   5.391   7.767 -0.9764 -0.9933  0.3563
  365MOL0     C48100  11.163   6.310   7.392  0.1221  0.2291 -0.2208
  365MOL0     C48101  11.131   6.406   7.303  0.2608 -0.4244  0.5557
  365MOL0     C48102  10.878   6.671   7.037  0.7513  1.0149  0.3126
  365MOL0     C48103  10.784   6.630   6.934  0.0829  0.4447  0.2803
  365MOL0     C48104  10.779   6.706   6.812  0.3063  0.3723 -0.2912
  365MOL0     C48105  10.856   6.823   6.795  0.3323  1.4008 -0.6417
  365MOL0     O48106  10.875   6.886   6.675 -1.0067 -0.4045 -0.2490
  365MOL0     C48107  10.814   6.830   6.560 -0.2640 -0.6292 -0.6395
  365MOL0     C48108  10.878   6.693   6.516  0.4190  0.4938 -0.4152
  365MOL0     C48109  11.020   6.705   6.457  1.6131 -0.1583 -0.5032
  365MOL0     C48110  11.130   6.757   6.553 -0.1227 -0.2006  0.9251
  365MOL0     C48111  11.248   6.769   6.468  0.1238 -0.5558 -0.5551
  365MOL0     C48112  11.338   6.789   6.390 -1.5519  0.1718  0.0735
  365MOL0     C48113  10.940   6.858   6.905 -0.8679 -0.9755 -0.4158
  365MOL0     C48114  10.957   6.783   7.023  0.4794 -0.2365  0.7747
  365MOL0     H48115  10.923   6.600   7.483  1.2735  1.0771  1.4149
  365MOL0     H48116  10.996   6.441   7.659 -0.9273 -0.6781  0.0971
  365MOL0     H48117  11.355   6.240   7.609 -0.5290  1.3450 -3.5021
  365MOL0     H48118  11.272   6.105   7.522  2.3342 -1.3269  1.2637
  365MOL0     H48119  11.236   5.973   7.715 -1.6031  1.0942 -0.3661
  365MOL0     H48120  11.250   6.114   7.823  6.0901  0.1036  1.7613
  365MOL0     H48121  11.472   6.133   7.794 -0.5070  1.0746 -1.0655
  365MOL0     H48122  11.491   5.992   7.693 -0.0022  1.5494 -0.6208
  365MOL0     H48123  11.373   5.999   7.970  2.1107  0.9516  0.3790
  365MOL0     H48124  11.367   5.849   7.870  0.6800 -1.1699 -0.4573
  365MOL0     H48125  11.535   5.819   8.027 -1.9022 -2.1681 -3.0493
  365MOL0     H48126  11.602   5.980   8.001 -4.3254  1.4075  1.0599
  365MOL0     H48127  11.752   5.813   7.909  0.6464  2.8614 -1.1941
  365MOL0     H48128  11.689   5.905   7.779  2.4151  2.5558  3.2121
  365MOL0     H48129  11.531   5.720   7.726 -0.8192  1.1302  0.5715
  365MOL0     H48130  11.699   5.682   7.716  0.6786  0.2054  0.2693
  365MOL0     H48131  11.534   5.576   7.945  0.9754 -3.2036  0.2678
  365MOL0     H48132  11.714   5.571   7.917  0.1140 -1.9089  0.1441
  365MOL0     H48133  11.821   5.410   7.773  1.7448 -3.3279  1.8470
  365MOL0     H48134  11.700   5.159   7.536 -1.3696 -2.3058 -0.1445
  365MOL0     H48135  11.692   5.058   7.668  4.4293 -2.8918 -0.2860
  365MOL0     H48136  11.933   5.237   7.626 -1.6165 -0.0577 -2.0237
  365MOL0     H48137  11.921   5.063   7.589 -2.0190 -2.6327  1.1802
  365MOL0     H48138  11.887   5.183   7.857 -2.1385  0.9315 -2.3448
  365MOL0     H48139  11.876   5.005   7.826 -1.2468  0.2677 -1.2591
  365MOL0     H48140  12.086   5.091   7.924 -0.0625  1.7323 -0.6380
  365MOL0     H48141  12.118   5.193   7.790  0.1733 -0.3712 -0.1750
  365MOL0     H48142  12.308   5.102   7.916 -0.7839  0.2594 -0.1765
  365MOL0     H48143  12.519   4.999   7.961  1.4373 -1.4916  0.5496
  365MOL0     H48144  12.889   4.734   7.799 -0.8875 -0.5073  1.1965
  365MOL0     H48145  13.110   4.593   7.829 -0.6082 -0.6783 -1.1934
  365MOL0     H48146  13.264   4.415   7.837  0.1561  0.2253  0.1053
  365MOL0     H48147  13.286   4.274   7.943  0.6004 -0.3806 -1.7775
  365MOL0     H48148  13.170   4.436   8.124  2.0527 -1.5623  2.2006
  365MOL0     H48149  13.231   4.566   8.023  0.2362  0.9613  2.1520
  365MOL0     H48150  13.460   4.483   8.045  0.9827  0.1910  0.5769
  365MOL0     H48151  13.392   4.343   8.151  1.1476  0.8150  0.5314
  365MOL0     H48152  13.377   4.638   8.217  2.8096  0.8203  2.0141
  365MOL0     H48153  13.313   4.500   8.310 -0.8029  1.1781 -0.7146
  365MOL0     H48154  13.564   4.418   8.330 -1.6250 -0.6604  0.1133
  365MOL0     H48155  13.522   4.557   8.421 -3.2478  2.4532 -0.9938
  365MOL0     H48156  13.617   4.711   8.251 -2.4384 -0.1710  1.2548
  365MOL0     H48157  13.642   4.561   8.145  2.9985  2.8385 -0.7482
  365MOL0     H48158  13.770   4.607   8.414 -0.3727 -0.0775  0.8208
  365MOL0     H48159  13.787   4.461   8.310  0.9469  0.8690  0.5659
  365MOL0     H48160  13.897   4.584   8.130  0.9583  0.0198 -0.0612
  365MOL0     H48161  13.969   4.569   8.289 -0.4843  0.1367  1.1581
  365MOL0     H48162  12.862   4.269   7.950 -1.4443  0.4640  0.3236
  365MOL0     H48163  12.659   4.382   7.893  1.5608 -1.4414  0.8603
  365MOL0     H48164  12.436   4.685   7.687  4.2442  3.1901 -1.9986
  365MOL0     H48165  12.191   4.787   7.654 -3.3241  1.8797  3.7304
  365MOL0     H48166  11.219   6.223   7.361 -2.4840 -1.6343 -0.0099
  365MOL0     H48167  11.160   6.404   7.198 -1.7625  0.3689 -0.0552
  365MOL0     H48168  10.725   6.541   6.952 -1.1412  1.4423  1.4555
  365MOL0     H48169  10.714   6.684   6.728  2.9279  0.4627 -2.4765
  365MOL0     H48170  10.824   6.905   6.480  1.0246  0.4482  0.4784
  365MOL0     H48171  10.707   6.820   6.576 -0.0957  0.1461  1.1374
  365MOL0     H48172  10.869   6.621   6.598 -1.0840  1.8135  0.6782
  365MOL0     H48173  10.805   6.659   6.442 -4.0206  1.2510  3.0998
  365MOL0     H48174  11.016   6.773   6.371  0.0507  1.8486  1.0643
  365MOL0     H48175  11.041   6.600   6.433  0.9142 -0.4607  0.1620
  365MOL0     H48176  11.100   6.855   6.590 -4.3772 -1.4669  1.4004
  365MOL0     H48177  11.159   6.696   6.639 -1.2638 -1.9454  0.1422
  365MOL0     H48178  11.423   6.782   6.325 -1.5860 -0.1971  0.0668
  365MOL0     H48179  11.006   6.943   6.897 -2.3403  0.1353 -1.3106
  365MOL0     H48180  11.015   6.815   7.110 -1.2308  1.3708  1.4001
  366MOL0     O48181   4.490   3.973   4.165 -0.6813 -0.2292  0.5972
  366MOL0     C48182   4.457   3.976   4.286  0.2460  1.1896 -0.1460
  366MOL0     O48183   4.523   3.917   4.390  0.2482 -0.0143 -0.3470
  366MOL0     C48184   4.648   3.869   4.388 -0.3185  0.0521  0.5720
  366MOL0     C48185   4.732   3.885   4.506 -0.4683  1.0520 -0.2992
  366MOL0     C48186   4.867   3.862   4.500  0.5809  0.3502  0.5953
  366MOL0     C48187   4.930   3.814   4.387 -0.4777 -0.0861  0.3384
  366MOL0     O48188   5.061   3.782   4.398 -0.1393 -0.0943  0.7002
  366MOL0     C48189   5.168   3.833   4.309 -1.2216  0.5648 -0.4714
  366MOL0     C48190   5.306   3.776   4.376  0.7497 -0.7352 -0.0297
  366MOL0     C48191   5.421   3.861   4.313 -0.3788  0.2691 -0.1288
  366MOL0     C48192   5.558   3.831   4.380  0.1737  0.3298 -0.0223
  366MOL0     C48193   5.669   3.922   4.340  0.2993  0.0530 -0.3787
  366MOL0     C48194   5.800   3.902   4.408  0.0590 -0.2094  0.1594
  366MOL0     C48195   5.903   3.998   4.349 -0.3381 -0.2430 -0.2186
  366MOL0     C48196   6.049   3.981   4.415  1.4557  0.5627 -0.1725
  366MOL0     N48197   6.053   3.960   4.564  0.5600 -0.2916 -0.0687
  366MOL0     C48198   5.994   4.041   4.659 -0.4174 -0.7838  0.4522
  366MOL0     C48199   5.974   3.955   4.759  0.3274  0.0618 -0.1603
  366MOL0     C48200   5.911   3.981   4.897 -0.6299 -1.0884  0.5014
  366MOL0     C48201   5.772   4.030   4.886 -0.8569  0.1680 -0.2999
  366MOL0     C48202   5.761   4.164   4.958  0.3158 -0.3087 -0.3241
  366MOL0     C48203   5.747   4.161   5.113  0.3171  0.3225  0.3165
  366MOL0     O48204   5.625   4.096   5.159 -0.4919 -0.3418 -0.1718
  366MOL0     C48205   5.515   4.157   5.123  1.0971  0.0902 -0.3147
  366MOL0     C48206   5.503   4.294   5.096  0.0074  0.3472 -0.8557
  366MOL0     C48207   5.385   4.346   5.054 -0.4736 -0.2389 -0.1831
  366MOL0     C48208   5.268   4.273   5.055  1.3946 -0.4165 -0.5955
  366MOL0     C48209   5.135   4.341   5.031  0.0784  0.2883 -0.1423
  366MOL0     O48210   5.027   4.275   5.001  0.0071  0.7409  0.5874
  366MOL0     C48211   4.890   4.323   4.993  0.2154  0.3736 -0.0436
  366MOL0     C48212   4.793   4.235   4.936  0.3602 -0.3303 -0.8297
  366MOL0     C48213   4.662   4.278   4.922  0.3577 -0.1683  0.6306
  366MOL0     C48214   4.612   4.400   4.953 -0.6301  0.6137 -0.0799
  366MOL0     O48215   4.480   4.430   4.938 -0.1701  0.2701  0.3278
  366MOL0     C48216   4.391   4.354   4.864  0.0532 -0.0046  0.2139
  366MOL0     C48217   4.262   4.433   4.886  0.1727 -0.5763  0.6932
  366MOL0     C48218   4.141   4.360   4.837 -0.0227 -0.2914  0.1329
  366MOL0     C48219   4.017   4.447   4.805  0.6876 -0.1048  0.2062
  366MOL0     C48220   3.894   4.375   4.769 -0.4853  0.5202  0.8694
  366MOL0     C48221   3.820   4.318   4.889 -0.0154  0.2122 -0.0476
  366MOL0     C48222   3.702   4.239   4.847 -0.7801  0.5279  0.2717
  366MOL0     C48223   3.637   4.177   4.962  0.4748  0.4887  0.5023
  366MOL0    Cl48224   3.521   4.058   4.898  0.1226  0.2344 -0.7306
  366MOL0     C48225   4.702   4.492   5.012  0.4966  0.7279  0.1009
  366MOL0     C48226   4.840   4.457   5.026  0.1455 -0.1974 -0.3086
  366MOL0     O48227   5.139   4.462   5.043 -0.4351  0.1530  0.2573
  366MOL0     C48228   5.268   4.133   5.085 -0.6764  0.3660  0.4705
  366MOL0     C48229   5.400   4.078   5.105 -0.2485  0.0644  0.8710
  366MOL0     N48230   6.027   3.831   4.732 -0.6527 -0.1039  0.1295
  366MOL0     N48231   6.077   3.831   4.612 -0.4590 -0.5364  0.3024
  366MOL0     C48232   4.851   3.793   4.274  0.4755 -0.3333 -0.3557
  366MOL0     C48233   4.713   3.820   4.271 -0.3774 -0.0866 -0.6320
  366MOL0     C48234   4.334   4.061   4.315  0.4779 -0.0837  0.4996
  366MOL0     C48235   4.273   4.143   4.219 -0.7709  0.1117  0.7857
  366MOL0     C48236   4.167   4.224   4.261  1.0651 -0.3616 -0.2863
  366MOL0     C48237   4.121   4.227   4.401  0.3511  0.8273 -0.1582
  366MOL0     O48238   4.021   4.315   4.453  0.1940  0.2468 -0.1419
  366MOL0     C48239   3.986   4.419   4.359  0.0194 -0.3943 -1.2755
  366MOL0     C48240   3.892   4.536   4.421 -0.7004  1.3770 -0.2706
  366MOL0     C48241   3.747   4.513   4.449  0.3424  0.4242  0.4626
  366MOL0     C48242   3.695   4.622   4.542 -0.5225  0.2969  0.4039
  366MOL0     C48243   3.559   4.604   4.597 -1.1978 -0.5101 -0.1471
  366MOL0     C48244   3.448   4.575   4.637 -0.1451  0.4160 -0.0289
  366MOL0     C48245   4.191   4.151   4.494 -0.6851  0.1135  0.2175
  366MOL0     C48246   4.291   4.063   4.450 -0.2872  0.3894  0.0405
  366MOL0     H48247   4.687   3.936   4.592  0.1729  0.8925  0.1363
  366MOL0     H48248   4.939   3.888   4.577  1.9820 -0.1904 -0.4866
  366MOL0     H48249   5.173   3.942   4.320 -0.4606  0.3055  2.8476
  366MOL0     H48250   5.157   3.791   4.209 -0.0806 -1.0161  0.0167
  366MOL0     H48251   5.326   3.671   4.351  2.3188 -1.0077  2.0773
  366MOL0     H48252   5.299   3.780   4.485 -1.5033 -1.7666 -0.0875
  366MOL0     H48253   5.399   3.968   4.323  2.3623  0.8017  1.2026
  366MOL0     H48254   5.421   3.847   4.204  2.9325 -2.3029  0.0488
  366MOL0     H48255   5.545   3.835   4.489  1.6601 -3.1210  0.4085
  366MOL0     H48256   5.584   3.729   4.352  0.3209  0.3450  0.0581
  366MOL0     H48257   5.637   4.025   4.357 -0.5193 -0.0254 -1.3461
  366MOL0     H48258   5.681   3.903   4.233 -1.7694 -0.8346 -0.5098
  366MOL0     H48259   5.846   3.803   4.404 -0.3165 -0.4164  0.7780
  366MOL0     H48260   5.785   3.910   4.516  0.9639 -1.6003  0.4139
  366MOL0     H48261   5.918   3.983   4.241  2.2786 -1.0553  0.1765
  366MOL0     H48262   5.868   4.101   4.354 -2.7196 -1.0407  0.7039
  366MOL0     H48263   6.100   4.076   4.396 -0.6488  1.8364  0.1404
  366MOL0     H48264   6.097   3.897   4.365 -2.2246 -1.5440 -0.5320
  366MOL0     H48265   5.971   4.147   4.664 -1.8050 -0.9237 -1.7119
  366MOL0     H48266   5.976   4.060   4.936 -0.1966 -0.4491 -1.4101
  366MOL0     H48267   5.941   3.898   4.961  2.7367 -1.0805 -0.8655
  366MOL0     H48268   5.704   3.957   4.930  1.3377 -1.2669  0.9297
  366MOL0     H48269   5.741   4.052   4.783  2.0208  0.1334 -1.2721
  366MOL0     H48270   5.846   4.229   4.937 -0.8090  1.1385 -0.5057
  366MOL0     H48271   5.676   4.217   4.915 -0.4789 -0.9225  0.4420
  366MOL0     H48272   5.760   4.261   5.154 -0.2081  0.7510 -0.5334
  366MOL0     H48273   5.832   4.109   5.159  0.9855  0.8730 -0.2706
  366MOL0     H48274   5.581   4.368   5.109  0.6377 -0.6389  1.7213
  366MOL0     H48275   5.388   4.447   5.013 -1.2762 -0.5479 -1.0580
  366MOL0     H48276   4.828   4.141   4.894  1.2315  1.1540 -3.7662
  366MOL0     H48277   4.601   4.202   4.874  0.2093  1.3664 -1.7263
  366MOL0     H48278   4.389   4.254   4.908 -0.3881 -0.0426  0.1152
  366MOL0     H48279   4.415   4.348   4.758 -2.3141  1.4663 -0.4934
  366MOL0     H48280   4.265   4.530   4.835 -0.1012 -1.6412 -1.4933
  366MOL0     H48281   4.258   4.453   4.993  2.5747 -0.5919  0.8499
  366MOL0     H48282   4.127   4.284   4.914 -2.0677  2.1370  2.3681
  366MOL0     H48283   4.157   4.305   4.744  2.4759  1.0327 -0.3084
  366MOL0     H48284   3.996   4.515   4.888  0.4292  2.0047 -1.5137
  366MOL0     H48285   4.048   4.518   4.728  1.8320  0.3563  1.0624
  366MOL0     H48286   3.903   4.298   4.691 -0.7729  0.6592  0.6951
  366MOL0     H48287   3.826   4.446   4.720 -1.6653 -1.4443 -0.4931
  366MOL0     H48288   3.780   4.395   4.956  1.8756  2.1616 -1.0165
  366MOL0     H48289   3.889   4.257   4.948  2.0129  1.5531 -0.8955
  366MOL0     H48290   3.630   4.304   4.797 -1.5306  1.3408  2.2951
  366MOL0     H48291   3.734   4.163   4.775  1.5272 -0.9278  2.6559
  366MOL0     H48292   3.596   4.246   5.037  1.8489  0.4833  1.3075
  366MOL0     H48293   3.715   4.127   5.020 -1.1957  0.1486  2.5779
  366MOL0     H48294   4.670   4.594   5.027  0.9355  1.1351 -1.4916
  366MOL0     H48295   4.917   4.530   5.049  0.7582 -0.5911 -1.0570
  366MOL0     H48296   5.179   4.072   5.089  0.1719 -0.8721  1.0870
  366MOL0     H48297   5.417   3.973   5.127 -0.2990 -0.1981 -0.2759
  366MOL0     H48298   4.896   3.742   4.189 -1.2999 -1.9158 -0.4167
  366MOL0     H48299   4.655   3.775   4.191  0.4764 -3.2190  0.3871
  366MOL0     H48300   4.321   4.143   4.122 -0.6539  2.3612  0.8061
  366MOL0     H48301   4.120   4.295   4.194  1.7044  2.4892  2.0631
  366MOL0     H48302   3.938   4.364   4.278 -0.9277 -0.4978 -0.6697
  366MOL0     H48303   4.067   4.470   4.308  0.1411 -2.4919 -3.3295
  366MOL0     H48304   3.944   4.569   4.512 -1.6269 -0.0544  0.8176
  366MOL0     H48305   3.907   4.621   4.354  2.0286  1.0302 -0.2289
  366MOL0     H48306   3.733   4.410   4.482  0.6256 -0.8398 -2.9799
  366MOL0     H48307   3.687   4.512   4.357 -1.9286 -0.8198  1.8762
  366MOL0     H48308   3.769   4.621   4.623 -0.0852  1.0241  0.0227
  366MOL0     H48309   3.697   4.723   4.499  1.3478 -0.0397 -0.4440
  366MOL0     H48310   3.356   4.554   4.689  1.0391 -1.2415  1.5803
  366MOL0     H48311   4.176   4.147   4.601  1.8189  0.0104  0.6246
  366MOL0     H48312   4.342   4.000   4.522  0.4796  0.6150 -0.3000
  367MOL0     O48313   1.964   4.703   2.104  0.3094 -0.4044  0.3373
  367MOL0     C48314   1.976   4.827   2.093  0.5684 -0.2024 -0.3579
  367MOL0     O48315   1.891   4.917   2.028 -0.5379  0.9928 -0.3441
  367MOL0     C48316   1.806   4.865   1.937  0.6705 -0.6390  0.0559
  367MOL0     C48317   1.833   4.763   1.852 -0.7699  0.6196 -0.7285
  367MOL0     C48318   1.749   4.725   1.753 -0.1713 -0.1534  0.5938
  367MOL0     C48319   1.627   4.796   1.733  0.7118  1.4844  0.5788
  367MOL0     O48320   1.550   4.763   1.625 -0.2462  0.2685  0.0406
  367MOL0     C48321   1.498   4.627   1.619  0.3876 -0.5029 -0.5936
  367MOL0     C48322   1.408   4.583   1.730 -0.2011  0.2807 -0.3206
  367MOL0     C48323   1.297   4.680   1.771  0.5178  0.1920  0.2492
  367MOL0     C48324   1.169   4.691   1.693 -1.1460 -1.1918  0.4684
  367MOL0     C48325   1.067   4.576   1.709  0.3229  0.0525  0.4140
  367MOL0     C48326   0.938   4.591   1.630 -0.3235  0.2262 -0.0864
  367MOL0     C48327   0.830   4.480   1.650 -0.3508  0.7257 -0.2500
  367MOL0     C48328   0.783   4.481   1.795  0.1425 -0.2705 -0.1936
  367MOL0     N48329   0.657   4.411   1.802 -0.7447  0.5773  0.2021
  367MOL0     C48330   0.552   4.444   1.881 -1.2141  0.0390 -0.1706
  367MOL0     C48331   0.465   4.346   1.880 -0.6289 -0.6780 -0.6642
  367MOL0     C48332   0.327   4.354   1.929  0.3868  0.3808 -0.7344
  367MOL0     C48333   0.246   4.422   1.814 -0.3344  0.0164 -0.3224
  367MOL0     C48334   0.127   4.499   1.865  0.4405 -0.7061 -0.0280
  367MOL0     C48335   0.025   4.434   1.953 -0.5231  0.9221  0.1788
  367MOL0     O48336  -0.075   4.531   1.980  0.6242 -0.0418 -0.3289
  367MOL0     C48337  -0.191   4.486   2.032  0.5567  0.0551 -0.9496
  367MOL0     C48338  -0.275   4.392   1.975  0.2030  0.2593  0.2549
  367MOL0     C48339  -0.402   4.370   2.028 -0.1803  0.3256 -0.6139
  367MOL0     C48340  -0.446   4.455   2.135 -0.8056  0.3132 -1.1401
  367MOL0     C48341  -0.592   4.452   2.183 -0.3423  0.0566  1.3318
  367MOL0     O48342  -0.628   4.537   2.286 -0.3002  0.1288  0.0800
  367MOL0     C48343  -0.743   4.529   2.363  0.7525  0.6156 -0.2406
  367MOL0     C48344  -0.812   4.409   2.398  0.1608 -0.2820  1.0235
  367MOL0     C48345  -0.928   4.409   2.476 -0.0482  0.2729  0.0666
  367MOL0     C48346  -0.990   4.524   2.527 -0.1849 -0.2303 -0.1862
  367MOL0     O48347  -1.103   4.522   2.600  0.1042 -0.1144  0.3786
  367MOL0     C48348  -1.202   4.425   2.561 -0.1395 -0.3636 -0.4015
  367MOL0     C48349  -1.335   4.430   2.633  0.1067 -0.2021 -0.2021
  367MOL0     C48350  -1.431   4.336   2.574  0.0386  0.8304  0.1867
  367MOL0     C48351  -1.580   4.353   2.629  0.4377  0.2406  0.6616
  367MOL0     C48352  -1.681   4.268   2.553  0.5388 -0.4984 -0.6532
  367MOL0     C48353  -1.804   4.241   2.639  0.6812  0.2852  0.3507
  367MOL0     C48354  -1.914   4.162   2.571  0.1532 -0.1273  0.4603
  367MOL0     C48355  -2.004   4.092   2.666  0.5975 -0.2185  0.0873
  367MOL0    Cl48356  -1.935   3.943   2.716  0.2041  0.2345  0.2266
  367MOL0     C48357  -0.916   4.647   2.498 -0.2959 -0.6076  0.1718
  367MOL0     C48358  -0.791   4.646   2.428 -0.3290 -0.2940  0.4711
  367MOL0     O48359  -0.662   4.364   2.134  0.5455  0.1903  0.5757
  367MOL0     C48360  -0.347   4.531   2.203  0.2729  0.3296 -0.2328
  367MOL0     C48361  -0.226   4.551   2.149 -1.4684  0.7427 -1.1773
  367MOL0     N48362   0.529   4.238   1.820 -0.2845 -0.6542 -0.4238
  367MOL0     N48363   0.636   4.282   1.770  0.0123  0.4776 -0.1644
  367MOL0     C48364   1.587   4.893   1.825 -0.9598 -0.9080 -0.5262
  367MOL0     C48365   1.679   4.933   1.929  0.5823  0.4147 -0.1096
  367MOL0     C48366   2.096   4.879   2.164 -0.9107 -1.3188 -0.0842
  367MOL0     C48367   2.125   5.021   2.151  0.5994 -1.3076  0.6088
  367MOL0     C48368   2.247   5.077   2.200 -0.1311 -0.2598  0.3423
  367MOL0     C48369   2.349   4.998   2.260 -0.3972  0.7624  0.0721
  367MOL0     O48370   2.474   5.049   2.282  0.1719 -0.0177 -0.4737
  367MOL0     C48371   2.555   4.989   2.386 -0.7007 -0.1779  0.4965
  367MOL0     C48372   2.708   5.024   2.377  0.1253 -1.1148 -0.0818
  367MOL0     C48373   2.787   4.926   2.289  0.1242  0.5394  0.6051
  367MOL0     C48374   2.794   4.789   2.356 -0.3494  0.5468  0.1984
  367MOL0     C48375   2.917   4.712   2.336 -0.0828  0.1643 -0.1518
  367MOL0     C48376   3.025   4.654   2.332  0.8771 -0.2468  0.4829
  367MOL0     C48377   2.323   4.859   2.282 -0.6412 -0.0968 -0.7405
  367MOL0     C48378   2.207   4.804   2.221 -0.1216 -0.7244  0.3450
  367MOL0     H48379   1.909   4.687   1.869 -1.7199 -0.2714 -0.3494
  367MOL0     H48380   1.772   4.640   1.689 -0.8448 -2.4832  3.2331
  367MOL0     H48381   1.586   4.564   1.612  2.2280  1.7125  0.9733
  367MOL0     H48382   1.444   4.605   1.526  1.1063  0.0464 -1.1566
  367MOL0     H48383   1.464   4.545   1.816  1.5486 -3.0054 -2.6865
  367MOL0     H48384   1.371   4.485   1.698  1.4596 -0.4938  0.0014
  367MOL0     H48385   1.343   4.778   1.786  0.9419  0.1689 -0.8440
  367MOL0     H48386   1.269   4.641   1.869  1.2324 -3.4555 -0.8465
  367MOL0     H48387   1.125   4.783   1.733  1.2421 -0.5400  1.7739
  367MOL0     H48388   1.194   4.697   1.587  0.7162  0.8400  0.9630
  367MOL0     H48389   1.036   4.561   1.813 -1.3607  1.6994  0.2014
  367MOL0     H48390   1.111   4.480   1.679 -1.4274 -0.0058 -2.3422
  367MOL0     H48391   0.960   4.600   1.524 -0.7525 -1.5566 -0.3585
  367MOL0     H48392   0.893   4.685   1.663  1.1213  0.4637  1.3512
  367MOL0     H48393   0.749   4.510   1.582 -0.4818  1.2458  0.1318
  367MOL0     H48394   0.861   4.379   1.619  0.4922  0.2210  2.0733
  367MOL0     H48395   0.772   4.579   1.841  3.1598  0.3309 -0.5320
  367MOL0     H48396   0.855   4.429   1.859 -0.0186  1.9235  1.9044
  367MOL0     H48397   0.540   4.540   1.929 -0.7400 -0.3774  0.7990
  367MOL0     H48398   0.316   4.412   2.021  3.5201  0.6304 -0.4234
  367MOL0     H48399   0.288   4.254   1.949  0.9295  0.2334 -0.4159
  367MOL0     H48400   0.225   4.345   1.739  0.7745  0.8132 -1.5128
  367MOL0     H48401   0.306   4.491   1.754 -1.2591  0.0543 -1.2287
  367MOL0     H48402   0.157   4.597   1.904 -3.2539  0.5583  0.0969
  367MOL0     H48403   0.078   4.534   1.773  0.6174 -0.0039  0.1361
  367MOL0     H48404   0.074   4.389   2.040 -0.5243  0.4944 -0.0377
  367MOL0     H48405  -0.020   4.354   1.893 -1.2273  0.1870  1.6403
  367MOL0     H48406  -0.231   4.341   1.890  4.0954  1.1162  1.5137
  367MOL0     H48407  -0.474   4.295   1.996 -0.3401 -0.3499  1.2015
  367MOL0     H48408  -0.778   4.312   2.363 -1.4717 -0.7220  0.5854
  367MOL0     H48409  -0.967   4.309   2.486  0.3646  0.3682  4.1122
  367MOL0     H48410  -1.156   4.327   2.578 -0.5608 -0.7181 -1.2551
  367MOL0     H48411  -1.217   4.432   2.453 -0.0875  1.8882 -0.3068
  367MOL0     H48412  -1.374   4.533   2.629  0.0352 -0.0064  2.9788
  367MOL0     H48413  -1.325   4.401   2.737  0.1096  0.2628 -0.0709
  367MOL0     H48414  -1.405   4.240   2.620 -2.6144 -0.9953 -1.8496
  367MOL0     H48415  -1.428   4.342   2.465 -1.4844 -0.0900  0.0592
  367MOL0     H48416  -1.582   4.323   2.734  3.2791  3.0724  1.6916
  367MOL0     H48417  -1.608   4.457   2.615 -1.3646 -0.3834 -0.7628
  367MOL0     H48418  -1.642   4.169   2.526 -1.8573 -1.6552 -0.1045
  367MOL0     H48419  -1.703   4.319   2.459  0.4650  0.7227  0.0080
  367MOL0     H48420  -1.848   4.330   2.684  1.4995  0.1527  1.4897
  367MOL0     H48421  -1.762   4.171   2.713 -2.9686 -2.4245  0.1341
  367MOL0     H48422  -1.968   4.236   2.512  0.2368  0.9954  1.7451
  367MOL0     H48423  -1.885   4.085   2.499 -4.5592 -1.3199 -0.5162
  367MOL0     H48424  -2.099   4.069   2.617 -1.0738 -2.2593  3.8550
  367MOL0     H48425  -2.030   4.163   2.746  0.3654 -2.0689  1.7366
  367MOL0     H48426  -0.960   4.740   2.533 -1.1290 -0.4918 -1.1016
  367MOL0     H48427  -0.747   4.742   2.403 -2.0490  0.2256 -0.7563
  367MOL0     H48428  -0.374   4.576   2.299 -0.7343 -0.4203 -0.1425
  367MOL0     H48429  -0.154   4.620   2.192  1.9181 -3.4198  0.5533
  367MOL0     H48430   1.492   4.937   1.797 -2.8137 -4.2550 -0.0164
  367MOL0     H48431   1.652   5.011   2.001  0.1944  1.0458 -0.9269
  367MOL0     H48432   2.054   5.089   2.106  1.3032 -0.8104  0.2212
  367MOL0     H48433   2.267   5.181   2.176 -1.2077 -0.7445 -3.2673
  367MOL0     H48434   2.561   4.879   2.389  2.6306 -0.0942  0.5341
  367MOL0     H48435   2.529   5.035   2.482  4.2026  3.1306  0.5558
  367MOL0     H48436   2.717   5.128   2.341 -0.6274 -0.3725  1.7739
  367MOL0     H48437   2.753   5.021   2.477 -2.6177 -1.9759  1.2058
  367MOL0     H48438   2.890   4.963   2.284 -0.1920  1.5030  1.0144
  367MOL0     H48439   2.748   4.916   2.187 -0.7271 -0.9349  1.0478
  367MOL0     H48440   2.787   4.790   2.465 -1.6595 -3.7006  0.3238
  367MOL0     H48441   2.704   4.736   2.322  0.7932 -1.4394  0.1661
  367MOL0     H48442   3.110   4.589   2.331 -0.1539 -1.6773  1.1785
  367MOL0     H48443   2.401   4.794   2.322  0.0416  0.1418 -1.6596
  367MOL0     H48444   2.199   4.696   2.221  1.1132 -0.8383 -0.4284
  368MOL0     O48445   9.445   6.968   0.505  0.0961 -0.1792 -1.0072
  368MOL0     C48446   9.515   6.871   0.536  0.1810  0.5402  0.2499
  368MOL0     O48447   9.487   6.776   0.637 -0.4832  0.2748 -0.1096
  368MOL0     C48448   9.364   6.793   0.698  0.3340 -0.0837 -0.5668
  368MOL0     C48449   9.238   6.738   0.659 -0.3769  0.3162  0.4340
  368MOL0     C48450   9.125   6.768   0.727  0.6147 -0.2212  0.2210
  368MOL0     C48451   9.133   6.843   0.840  0.3751 -0.1424 -0.5636
  368MOL0     O48452   9.019   6.863   0.915  0.1747  0.4868  0.6181
  368MOL0     C48453   8.914   6.937   0.854 -0.2428 -0.3942  0.1609
  368MOL0     C48454   8.789   6.953   0.952 -0.4727 -0.8830 -0.4133
  368MOL0     C48455   8.825   7.031   1.085 -0.0262  0.1340 -0.5071
  368MOL0     C48456   8.710   7.047   1.183  0.1647  1.1129 -0.1441
  368MOL0     C48457   8.585   7.132   1.141 -0.8171 -1.1131  0.6469
  368MOL0     C48458   8.623   7.271   1.079  0.1511  0.3201  0.1026
  368MOL0     C48459   8.685   7.370   1.180 -0.9221 -0.3003  0.4455
  368MOL0     C48460   8.566   7.432   1.260 -0.9864 -0.6376 -0.1419
  368MOL0     N48461   8.580   7.575   1.292 -0.0857  0.3538 -0.8194
  368MOL0     C48462   8.583   7.619   1.420 -0.2840 -0.4328 -0.0726
  368MOL0     C48463   8.558   7.753   1.421 -0.5964  1.0122 -0.2356
  368MOL0     C48464   8.552   7.848   1.539 -0.4531  0.9774 -0.2808
  368MOL0     C48465   8.432   7.842   1.633  0.1957 -0.6803 -0.9351
  368MOL0     C48466   8.429   7.962   1.728 -0.1631  0.8685 -0.0574
  368MOL0     C48467   8.309   7.940   1.817 -0.0328 -0.5103 -0.0015
  368MOL0     O48468   8.318   8.005   1.944  0.0037  1.3549 -0.6267
  368MOL0     C48469   8.208   8.022   2.019  0.2909 -0.2811 -0.0035
  368MOL0     C48470   8.120   7.916   2.045 -0.2692  0.2639  0.1519
  368MOL0     C48471   8.005   7.944   2.124  0.1642  0.3054  0.5299
  368MOL0     C48472   7.974   8.071   2.182  0.8052 -0.1581  0.0780
  368MOL0     C48473   7.848   8.101   2.261  0.3031  0.3901 -0.2719
  368MOL0     O48474   7.849   8.212   2.329  0.2465 -0.2935 -0.9445
  368MOL0     C48475   7.734   8.252   2.391  0.8696  0.0451 -1.0229
  368MOL0     C48476   7.693   8.385   2.384 -0.5315  0.2583  0.2123
  368MOL0     C48477   7.560   8.435   2.435  0.1205 -0.3927  0.8712
  368MOL0     C48478   7.485   8.341   2.507  0.4866 -0.3770  0.0156
  368MOL0     O48479   7.359   8.372   2.553  0.2436  0.1637 -0.1527
  368MOL0     C48480   7.332   8.507   2.596  0.3041 -1.2779 -0.4500
  368MOL0     C48481   7.187   8.499   2.658  0.7410 -0.0676 -0.3325
  368MOL0     C48482   7.088   8.475   2.541  0.7772  0.0657 -1.0290
  368MOL0     C48483   6.938   8.490   2.598 -0.5442  0.2317 -0.0537
  368MOL0     C48484   6.828   8.474   2.488  0.0926 -0.2327  0.7592
  368MOL0     C48485   6.687   8.449   2.554  0.9835  1.0845 -0.8379
  368MOL0     C48486   6.574   8.461   2.455  0.6101 -0.3596  0.1129
  368MOL0     C48487   6.431   8.441   2.506 -0.5315  0.4461 -0.3922
  368MOL0    Cl48488   6.321   8.461   2.371  0.0765 -0.0972  0.6466
  368MOL0     C48489   7.523   8.209   2.512  0.0647  0.2723 -0.3146
  368MOL0     C48490   7.647   8.166   2.468 -0.3946  1.1295 -0.2148
  368MOL0     O48491   7.760   8.015   2.258 -0.1804 -0.9063 -0.0557
  368MOL0     C48492   8.070   8.175   2.150  1.0658  0.3664 -0.0638
  368MOL0     C48493   8.177   8.157   2.061  0.5063 -0.1542 -0.0537
  368MOL0     N48494   8.553   7.783   1.286  0.2629  0.6602 -0.3039
  368MOL0     N48495   8.574   7.680   1.209  0.3870  0.3882 -1.2006
  368MOL0     C48496   9.254   6.897   0.883 -0.2414 -0.2434  0.1102
  368MOL0     C48497   9.367   6.875   0.809  0.3617 -0.3116 -0.3160
  368MOL0     C48498   9.643   6.864   0.469 -0.1192 -0.4838  0.4033
  368MOL0     C48499   9.717   6.748   0.468  0.1139  0.7339 -0.0187
  368MOL0     C48500   9.849   6.750   0.413 -0.0736  0.3883 -0.2604
  368MOL0     C48501   9.898   6.866   0.351  0.1372 -0.6707 -1.3225
  368MOL0     O48502  10.031   6.875   0.304  0.2898  0.4356  0.9440
  368MOL0     C48503  10.093   6.755   0.252 -0.1378 -0.1666  0.2649
  368MOL0     C48504  10.023   6.695   0.127 -0.6039  0.6668  0.5586
  368MOL0     C48505  10.120   6.603   0.049 -0.1199 -0.2444 -0.2179
  368MOL0     C48506  10.067   6.532  -0.076 -0.0953 -0.1152 -0.8034
  368MOL0     C48507   9.994   6.411  -0.052  0.1319 -0.3082 -0.0734
  368MOL0     C48508   9.947   6.312  -0.024 -0.2106  0.7836 -0.1773
  368MOL0     C48509   9.819   6.978   0.354  0.0751  0.0712 -0.0015
  368MOL0     C48510   9.693   6.980   0.407  0.8660 -0.4917  0.2071
  368MOL0     H48511   9.244   6.675   0.571  3.7064  0.3298  0.4873
  368MOL0     H48512   9.032   6.725   0.692  1.4994 -2.3245  0.2935
  368MOL0     H48513   8.886   6.880   0.765  1.9949  0.8663 -1.4585
  368MOL0     H48514   8.936   7.036   0.812 -2.4655 -0.8175 -2.2371
  368MOL0     H48515   8.745   6.854   0.965 -2.7983  0.1652  0.1987
  368MOL0     H48516   8.705   7.009   0.909 -0.9237 -0.0092  1.4572
  368MOL0     H48517   8.870   7.130   1.069  2.1747 -0.5256  1.1333
  368MOL0     H48518   8.910   6.987   1.136  0.8070  3.0514  0.8593
  368MOL0     H48519   8.664   6.950   1.202  1.9325  0.4185  0.7816
  368MOL0     H48520   8.740   7.082   1.282 -1.3506  2.0194  0.0245
  368MOL0     H48521   8.515   7.145   1.224 -0.4453 -0.5495  0.8795
  368MOL0     H48522   8.535   7.086   1.056 -1.0497  0.5228 -0.1470
  368MOL0     H48523   8.540   7.322   1.030  0.1444  0.5771  0.3798
  368MOL0     H48524   8.685   7.244   0.993  0.7110 -1.1302  0.9130
  368MOL0     H48525   8.763   7.324   1.242  0.9426 -0.0901 -1.6331
  368MOL0     H48526   8.729   7.446   1.115  3.2945  0.1031  3.3169
  368MOL0     H48527   8.545   7.382   1.355 -0.6667 -0.9677 -0.2434
  368MOL0     H48528   8.467   7.424   1.213 -0.5147 -4.5197 -0.8418
  368MOL0     H48529   8.595   7.571   1.517  2.3852 -0.6679 -0.4609
  368MOL0     H48530   8.555   7.948   1.495  0.9957  0.4600 -1.4312
  368MOL0     H48531   8.641   7.828   1.599  0.3099 -0.5766 -1.8663
  368MOL0     H48532   8.444   7.752   1.694 -2.6527 -0.1873  0.5232
  368MOL0     H48533   8.336   7.838   1.581 -0.4281  1.5594 -0.0631
  368MOL0     H48534   8.523   7.963   1.785  0.2574  1.0393 -0.7399
  368MOL0     H48535   8.434   8.058   1.677  1.8662  0.3385 -0.9503
  368MOL0     H48536   8.302   7.835   1.846  2.8814 -1.6233 -2.7366
  368MOL0     H48537   8.225   7.980   1.759  1.1581  1.3732 -0.5255
  368MOL0     H48538   8.139   7.819   2.000  2.7625  1.9006 -2.4481
  368MOL0     H48539   7.938   7.859   2.139  2.6997 -1.7681  0.7367
  368MOL0     H48540   7.760   8.463   2.349  1.5361 -0.7509  1.6622
  368MOL0     H48541   7.533   8.537   2.408  1.4741 -0.0016  0.8776
  368MOL0     H48542   7.338   8.587   2.522  0.0656  1.7407  2.5232
  368MOL0     H48543   7.393   8.541   2.681  0.1017  1.0536 -1.1618
  368MOL0     H48544   7.154   8.587   2.713  2.4371  0.8672 -0.7269
  368MOL0     H48545   7.170   8.410   2.719 -5.3580  1.0569  0.1772
  368MOL0     H48546   7.107   8.374   2.503  1.8522  0.3462 -1.2965
  368MOL0     H48547   7.099   8.542   2.455 -0.4716  1.3047 -0.2455
  368MOL0     H48548   6.921   8.407   2.667  0.4061 -1.5349 -1.8523
  368MOL0     H48549   6.916   8.581   2.656  0.7480  1.8208 -1.9273
  368MOL0     H48550   6.842   8.381   2.432 -0.1873 -0.9491  1.8510
  368MOL0     H48551   6.826   8.554   2.412 -0.1583 -3.7449 -3.3171
  368MOL0     H48552   6.664   8.529   2.626  0.7612  2.8221 -2.7317
  368MOL0     H48553   6.690   8.352   2.604  0.6548  0.4450 -2.0436
  368MOL0     H48554   6.577   8.564   2.416  0.5185 -0.2842  0.3034
  368MOL0     H48555   6.589   8.392   2.372 -0.8424 -0.2042 -0.3000
  368MOL0     H48556   6.406   8.524   2.574  1.1415  0.3962  0.3283
  368MOL0     H48557   6.406   8.343   2.548 -3.0834  0.6842 -1.1776
  368MOL0     H48558   7.451   8.141   2.555 -0.7648  1.3308 -0.0037
  368MOL0     H48559   7.662   8.059   2.464 -0.0616  1.1928 -0.7430
  368MOL0     H48560   8.029   8.271   2.177  0.9713  0.2971  0.0408
  368MOL0     H48561   8.245   8.232   2.023  0.2499 -1.2571 -3.0337
  368MOL0     H48562   9.260   6.949   0.978  1.4462  1.2711 -0.7622
  368MOL0     H48563   9.465   6.903   0.848  0.2714 -1.9013  1.1860
  368MOL0     H48564   9.671   6.661   0.512 -0.9452  0.6410 -1.2602
  368MOL0     H48565   9.918   6.667   0.413 -0.6944 -0.1477 -1.4810
  368MOL0     H48566  10.088   6.678   0.329 -1.2469  0.3062  0.6890
  368MOL0     H48567  10.196   6.774   0.222 -1.0275 -0.2284 -3.3384
  368MOL0     H48568   9.930   6.642   0.152 -1.3137  1.5228 -0.1784
  368MOL0     H48569   9.996   6.776   0.058 -2.3947  1.9936  2.6691
  368MOL0     H48570  10.145   6.519   0.115 -1.8625 -0.7848 -0.1897
  368MOL0     H48571  10.211   6.652   0.014  1.2188 -2.4621 -0.0772
  368MOL0     H48572  10.009   6.603  -0.136  0.7669  2.3450  1.0949
  368MOL0     H48573  10.148   6.506  -0.145 -1.5270  0.4684 -2.8182
  368MOL0     H48574   9.895   6.220  -0.006 -0.7987  0.6406 -2.3839
  368MOL0     H48575   9.856   7.075   0.320 -1.3726  1.3212  1.7969
  368MOL0     H48576   9.634   7.070   0.395  0.4652 -1.1222 -4.1742
  369MOL0     O48577   9.417   7.598   4.195 -0.8122  0.1084 -0.4569
  369MOL0     C48578   9.516   7.669   4.191 -0.3339 -0.8175 -0.4749
  369MOL0     O48579   9.516   7.805   4.207 -0.4613  0.1909 -0.4088
  369MOL0     C48580   9.387   7.863   4.199 -0.5040 -0.8016 -0.5260
  369MOL0     C48581   9.307   7.869   4.322  0.9614  0.4270 -0.3139
  369MOL0     C48582   9.187   7.937   4.330  0.0202 -0.1503 -0.4938
  369MOL0     C48583   9.144   8.009   4.212 -0.4928 -0.3466  1.2949
  369MOL0     O48584   9.027   8.084   4.209  0.2751  0.3515  1.2429
  369MOL0     C48585   8.932   8.080   4.305  0.1478  0.0355 -0.2159
  369MOL0     C48586   8.820   8.171   4.279 -0.0696  0.2830  0.4095
  369MOL0     C48587   8.714   8.144   4.385 -0.3118 -0.7313  0.2415
  369MOL0     C48588   8.608   8.039   4.357  0.6359 -0.7593 -0.1969
  369MOL0     C48589   8.477   8.062   4.427  0.1579  0.4043 -0.1417
  369MOL0     C48590   8.373   7.952   4.398 -0.3296 -0.8255  0.0792
  369MOL0     C48591   8.266   7.942   4.499 -0.2721  0.8187  0.1530
  369MOL0     C48592   8.167   7.844   4.445  0.3657  0.1792  0.6085
  369MOL0     N48593   8.095   7.775   4.551  0.0863 -0.1109  0.0203
  369MOL0     C48594   7.980   7.826   4.613  0.1307 -0.1576  0.0331
  369MOL0     C48595   7.947   7.733   4.705  0.2879  0.2031 -0.1417
  369MOL0     C48596   7.812   7.720   4.769 -0.7617 -0.5114  0.0071
  369MOL0     C48597   7.700   7.714   4.662 -0.6045  0.4310  0.1957
  369MOL0     C48598   7.700   7.563   4.612  0.0371  0.5979 -0.1139
  369MOL0     C48599   7.607   7.472   4.688  0.4682  0.7057 -0.1541
  369MOL0     O48600   7.468   7.485   4.647  0.2134 -0.5961 -1.0420
  369MOL0     C48601   7.370   7.432   4.724  0.9079  0.6246  1.2423
  369MOL0     C48602   7.382   7.304   4.774 -0.1298  0.3386  0.0994
  369MOL0     C48603   7.278   7.251   4.847 -0.9443 -0.1296  0.3753
  369MOL0     C48604   7.157   7.320   4.868  0.2153 -0.1429 -0.3762
  369MOL0     C48605   7.060   7.260   4.962 -0.0543  0.3674  0.0432
  369MOL0     O48606   7.088   7.139   5.025  0.2631 -0.4777  0.0638
  369MOL0     C48607   7.018   7.097   5.135  0.4336  0.3640  0.1067
  369MOL0     C48608   6.981   6.968   5.125 -0.6044  0.2144 -0.6783
  369MOL0     C48609   6.899   6.919   5.224 -0.7988  0.6293 -0.0917
  369MOL0     C48610   6.851   6.997   5.329 -0.0505 -1.2409 -0.9290
  369MOL0     O48611   6.786   6.951   5.440 -0.7562 -0.5625 -0.6542
  369MOL0     C48612   6.775   6.812   5.459 -0.2257 -0.4551 -0.0830
  369MOL0     C48613   6.673   6.790   5.568  0.0115 -0.6035 -0.4543
  369MOL0     C48614   6.732   6.850   5.700 -0.1876  0.5997  0.3660
  369MOL0     C48615   6.642   6.826   5.824  0.2465 -0.5314  0.3701
  369MOL0     C48616   6.720   6.844   5.955 -0.1125  0.6906  0.4318
  369MOL0     C48617   6.650   6.834   6.092  0.9461 -0.2005  0.1611
  369MOL0     C48618   6.747   6.866   6.203 -0.3923  0.1167  0.2454
  369MOL0     C48619   6.680   6.806   6.325 -1.5502  0.7296  0.2455
  369MOL0    Cl48620   6.519   6.855   6.358  0.0489  0.1811  0.1864
  369MOL0     C48621   6.880   7.138   5.329 -0.6873 -0.0346 -0.9120
  369MOL0     C48622   6.963   7.191   5.231 -0.5576 -0.3534  0.6144
  369MOL0     O48623   6.963   7.332   4.977  0.5426  0.0940 -0.7028
  369MOL0     C48624   7.151   7.452   4.822  0.0633 -0.1205 -0.8420
  369MOL0     C48625   7.254   7.509   4.744 -1.0792  0.9216  0.4385
  369MOL0     N48626   8.043   7.631   4.703  0.4424  0.1287 -0.1178
  369MOL0     N48627   8.121   7.650   4.604 -0.1017  1.2954  0.0707
  369MOL0     C48628   9.222   8.004   4.095 -0.0611 -0.0625 -1.2898
  369MOL0     C48629   9.348   7.939   4.092 -0.0049 -0.1935 -0.7745
  369MOL0     C48630   9.653   7.605   4.182  0.9385 -0.2171 -0.2797
  369MOL0     C48631   9.775   7.682   4.200 -0.3047 -0.0836  0.2891
  369MOL0     C48632   9.898   7.615   4.197 -0.2166  0.1491  0.1923
  369MOL0     C48633   9.905   7.473   4.188 -1.4858 -0.1574  0.2317
  369MOL0     O48634  10.036   7.411   4.208 -0.3747  0.3321  0.4859
  369MOL0     C48635  10.041   7.262   4.206 -0.5343  0.2739  0.6092
  369MOL0     C48636  10.182   7.217   4.226 -0.2835  0.9145  0.4823
  369MOL0     C48637  10.229   7.238   4.374  0.3002  0.4058  0.9188
  369MOL0     C48638  10.352   7.149   4.399  0.8213 -0.0231  0.6271
  369MOL0     C48639  10.474   7.189   4.325  0.1464  0.3586 -0.3410
  369MOL0     C48640  10.565   7.218   4.259  0.0085  0.3777 -0.4251
  369MOL0     C48641   9.790   7.405   4.158 -0.3890 -0.2910 -0.8761
  369MOL0     C48642   9.665   7.462   4.166 -0.2446 -0.0627  0.2726
  369MOL0     H48643   9.355   7.821   4.406 -0.6855 -0.1997  0.3155
  369MOL0     H48644   9.132   7.950   4.423  1.3629  0.7055  0.2199
  369MOL0     H48645   8.970   8.105   4.404 -0.8430  0.7427 -0.0084
  369MOL0     H48646   8.908   7.974   4.321  2.5509 -0.6741 -0.7506
  369MOL0     H48647   8.771   8.150   4.184 -0.8951  3.1718  0.0815
  369MOL0     H48648   8.856   8.275   4.275 -1.1805  0.7380  1.5460
  369MOL0     H48649   8.664   8.241   4.388 -3.1000 -2.0663  3.1987
  369MOL0     H48650   8.758   8.138   4.485  1.4627 -2.9050 -0.5862
  369MOL0     H48651   8.585   8.042   4.250 -1.2076 -1.9186  0.1329
  369MOL0     H48652   8.646   7.939   4.381 -0.5317 -0.9848  0.8158
  369MOL0     H48653   8.434   8.159   4.402  1.0507  0.6345 -0.8276
  369MOL0     H48654   8.501   8.065   4.534 -0.2821 -2.7547  0.1608
  369MOL0     H48655   8.437   7.862   4.399  1.2639  0.2543 -0.4829
  369MOL0     H48656   8.328   7.957   4.299 -0.5477 -0.9048  0.1726
  369MOL0     H48657   8.308   7.890   4.586 -0.4668 -0.2579 -0.3869
  369MOL0     H48658   8.218   8.038   4.520 -4.1010 -0.1850 -2.9522
  369MOL0     H48659   8.205   7.757   4.391 -2.5550 -0.9060  0.1080
  369MOL0     H48660   8.094   7.893   4.379 -2.0345 -2.5639  1.0366
  369MOL0     H48661   7.937   7.922   4.589 -1.4737 -0.8814 -0.0960
  369MOL0     H48662   7.805   7.803   4.841  2.2118  0.0747 -0.2288
  369MOL0     H48663   7.808   7.622   4.818 -3.2068 -2.1309 -3.0795
  369MOL0     H48664   7.724   7.777   4.576  5.4002 -1.7225 -0.1763
  369MOL0     H48665   7.604   7.736   4.709 -0.3439  2.0055  0.0362
  369MOL0     H48666   7.658   7.566   4.511  2.0089  2.1199 -0.9616
  369MOL0     H48667   7.800   7.519   4.608 -0.0403  0.2933  0.9789
  369MOL0     H48668   7.635   7.490   4.792  2.4006  1.2620 -0.7277
  369MOL0     H48669   7.629   7.368   4.663 -0.3782  0.6220 -0.5916
  369MOL0     H48670   7.485   7.271   4.760  0.6125  2.2002  0.7677
  369MOL0     H48671   7.288   7.156   4.897  0.6444  0.4411  1.2145
  369MOL0     H48672   7.018   6.905   5.044 -0.4027 -0.0802 -0.3624
  369MOL0     H48673   6.876   6.813   5.218 -0.8061  0.7048 -2.3220
  369MOL0     H48674   6.871   6.771   5.491  0.3819  0.9871  0.0160
  369MOL0     H48675   6.747   6.756   5.369  1.5353 -3.3723  1.0585
  369MOL0     H48676   6.673   6.681   5.564 -2.3244 -0.6598 -0.3704
  369MOL0     H48677   6.575   6.829   5.540  0.1462 -1.3006 -1.9962
  369MOL0     H48678   6.738   6.956   5.677  1.8222  0.7206  1.2292
  369MOL0     H48679   6.836   6.825   5.722  0.8261  2.4565 -1.9318
  369MOL0     H48680   6.562   6.899   5.816  1.4930  1.0478  1.5817
  369MOL0     H48681   6.594   6.728   5.819 -2.5796  0.7428  0.9571
  369MOL0     H48682   6.759   6.946   5.954  1.2053  0.2297  1.6809
  369MOL0     H48683   6.801   6.771   5.958 -0.3411  0.4623  1.1950
  369MOL0     H48684   6.610   6.732   6.095 -1.7353  0.7711  0.6141
  369MOL0     H48685   6.568   6.906   6.097 -0.0471 -0.6956 -4.3246
  369MOL0     H48686   6.852   6.839   6.192 -0.2098  1.6923 -3.4975
  369MOL0     H48687   6.757   6.974   6.208  2.1893  0.1333 -2.3454
  369MOL0     H48688   6.741   6.821   6.415  2.5235 -2.9161 -1.5260
  369MOL0     H48689   6.675   6.698   6.305 -0.4994  0.3378  1.9309
  369MOL0     H48690   6.855   7.204   5.411 -0.1449  1.4991 -1.9474
  369MOL0     H48691   7.007   7.290   5.232  2.9509 -1.6986 -2.0683
  369MOL0     H48692   7.063   7.512   4.845  1.9936  1.6885  2.8743
  369MOL0     H48693   7.248   7.608   4.699 -0.3238  0.4392 -0.7744
  369MOL0     H48694   9.183   8.055   4.008 -2.8645  0.9359  0.4248
  369MOL0     H48695   9.410   7.946   4.003  1.4043 -2.2784 -0.0383
  369MOL0     H48696   9.782   7.790   4.208  0.9890 -0.0466 -0.9953
  369MOL0     H48697   9.988   7.671   4.223 -0.5442 -0.1000  2.0247
  369MOL0     H48698  10.012   7.225   4.107  1.5579  0.4539 -0.1150
  369MOL0     H48699   9.970   7.220   4.278 -1.0598  2.3401  1.3527
  369MOL0     H48700  10.191   7.113   4.193  4.3812  0.8818  1.2133
  369MOL0     H48701  10.246   7.283   4.166 -1.8294  2.5251  0.5062
  369MOL0     H48702  10.146   7.212   4.441  0.4263 -2.4863  0.0811
  369MOL0     H48703  10.239   7.346   4.389 -1.4206  1.3901 -3.3406
  369MOL0     H48704  10.366   7.144   4.508 -2.1918  0.7486  1.1329
  369MOL0     H48705  10.330   7.048   4.365 -0.2522  1.0198 -2.0324
  369MOL0     H48706  10.656   7.219   4.203  2.5008 -0.8354  3.1631
  369MOL0     H48707   9.790   7.298   4.139 -4.2544 -0.9689  1.6440
  369MOL0     H48708   9.569   7.412   4.177 -1.7710  1.6814 -3.3519
  370MOL0     O48709   3.111   3.354  10.872 -0.2632  0.1028 -0.2052
  370MOL0     C48710   3.186   3.333  10.776 -0.0035  0.0152 -0.5658
  370MOL0     O48711   3.204   3.214  10.703 -0.3213  0.1417 -0.3399
  370MOL0     C48712   3.129   3.110  10.742 -0.1176 -0.8009 -0.8067
  370MOL0     C48713   3.182   3.032  10.838 -0.5689  0.7220 -1.0975
  370MOL0     C48714   3.121   2.908  10.874 -0.3894 -0.0179 -0.1061
  370MOL0     C48715   3.004   2.865  10.807 -0.5535 -0.1289 -0.4661
  370MOL0     O48716   2.928   2.753  10.829 -0.5685  0.1739  0.1345
  370MOL0     C48717   2.958   2.658  10.931 -0.6679  0.8397  0.0390
  370MOL0     C48718   2.839   2.559  10.916  0.2928 -0.2247 -0.4045
  370MOL0     C48719   2.705   2.587  10.978  1.2254 -0.4680 -0.1765
  370MOL0     C48720   2.612   2.650  10.877 -0.1091 -0.2393  0.2369
  370MOL0     C48721   2.467   2.675  10.924 -0.8988  0.9871  0.3476
  370MOL0     C48722   2.385   2.552  10.969  0.0958 -0.6582 -0.1869
  370MOL0     C48723   2.236   2.595  10.980  0.1023 -0.3976  0.0361
  370MOL0     C48724   2.164   2.466  11.021 -0.0703  1.0519 -0.4346
  370MOL0     N48725   2.031   2.479  11.086  0.3820  0.3067  0.2378
  370MOL0     C48726   2.010   2.572  11.186 -0.2831  0.8702 -0.2753
  370MOL0     C48727   1.875   2.555  11.215 -0.6177  0.7097  0.4071
  370MOL0     C48728   1.798   2.651  11.288  0.2719 -1.0754  0.7970
  370MOL0     C48729   1.764   2.602  11.435  0.7769  0.2991 -0.4616
  370MOL0     C48730   1.891   2.614  11.521  0.1677 -0.5353  0.4158
  370MOL0     C48731   1.867   2.611  11.669  0.3735  0.6045 -1.0001
  370MOL0     O48732   1.807   2.478  11.702 -0.2413  0.4128  0.0792
  370MOL0     C48733   1.688   2.459  11.766 -0.1664  0.5383  0.4460
  370MOL0     C48734   1.670   2.484  11.899  0.0537  0.4918  0.2616
  370MOL0     C48735   1.548   2.465  11.965  0.3596  0.1514  0.1164
  370MOL0     C48736   1.433   2.421  11.890 -0.3378 -0.0268  0.7555
  370MOL0     C48737   1.305   2.413  11.956 -0.3534 -0.2047 -0.3340
  370MOL0     O48738   1.290   2.487  12.076 -0.2267  0.5963  0.3646
  370MOL0     C48739   1.166   2.495  12.144  0.6818 -0.2297  0.5317
  370MOL0     C48740   1.045   2.514  12.075 -0.3203 -0.3846  1.1131
  370MOL0     C48741   0.924   2.509  12.146 -0.0422  0.1527  0.3700
  370MOL0     C48742   0.915   2.478  12.281  0.4581  0.7040  0.4063
  370MOL0     O48743   0.800   2.461  12.355  0.3160 -0.8428  0.5789
  370MOL0     C48744   0.731   2.342  12.329 -0.4094 -0.3094  0.1583
  370MOL0     C48745   0.588   2.349  12.381 -0.1943 -0.4510  0.0722
  370MOL0     C48746   0.570   2.364  12.531  0.9972  0.6579 -0.2727
  370MOL0     C48747   0.422   2.384  12.555 -0.0233 -0.7446 -0.1286
  370MOL0     C48748   0.397   2.401  12.704  0.2301  0.3572 -0.4101
  370MOL0     C48749   0.445   2.531  12.778 -0.5505 -0.1693  0.6938
  370MOL0     C48750   0.407   2.540  12.925 -0.1865  0.4986  0.1636
  370MOL0     C48751   0.461   2.659  12.996  0.0343 -0.0506  0.1121
  370MOL0    Cl48752   0.370   2.689  13.142 -0.0830 -0.3840 -0.0843
  370MOL0     C48753   1.039   2.479  12.354  0.7026  0.4758  0.7990
  370MOL0     C48754   1.162   2.489  12.284 -0.0868 -0.5748  0.0326
  370MOL0     O48755   1.221   2.346  11.902  0.0442 -0.0252 -0.6105
  370MOL0     C48756   1.456   2.384  11.756  0.8036  0.6904 -0.0785
  370MOL0     C48757   1.583   2.402  11.698  0.9321 -0.1120 -0.0763
  370MOL0     N48758   1.828   2.444  11.143  0.3990 -0.2611 -0.1097
  370MOL0     N48759   1.924   2.397  11.066  0.5477 -0.1950  0.2086
  370MOL0     C48760   2.956   2.947  10.707 -0.0603 -0.0065  0.8477
  370MOL0     C48761   3.009   3.073  10.677  0.5546  0.7254  0.3316
  370MOL0     C48762   3.287   3.439  10.734  0.5875 -0.4089 -0.7081
  370MOL0     C48763   3.369   3.416  10.618  0.5641 -0.5403  1.0106
  370MOL0     C48764   3.475   3.506  10.574 -0.1439  0.4126 -0.1466
  370MOL0     C48765   3.492   3.624  10.648  1.0353  0.0467 -0.0732
  370MOL0     O48766   3.585   3.708  10.593 -0.4717  0.5466  0.7824
  370MOL0     C48767   3.681   3.757  10.685  0.2594  0.0275 -0.3363
  370MOL0     C48768   3.729   3.659  10.796  0.2172  0.3200 -0.0967
  370MOL0     C48769   3.838   3.741  10.874 -1.2528 -0.2446 -0.1997
  370MOL0     C48770   3.863   3.691  11.019  0.4617 -0.4442 -0.0375
  370MOL0     C48771   3.967   3.752  11.093 -0.2003  0.1643  0.6119
  370MOL0     C48772   4.058   3.815  11.148 -0.5627 -0.9506 -0.2040
  370MOL0     C48773   3.414   3.652  10.764  0.1110 -0.3949 -0.1241
  370MOL0     C48774   3.311   3.560  10.806 -0.4764  0.8275 -0.0991
  370MOL0     H48775   3.278   3.060  10.879 -0.8359  0.1253 -0.0194
  370MOL0     H48776   3.168   2.843  10.947  1.1632  2.4459  1.2406
  370MOL0     H48777   2.966   2.713  11.026 -0.7966  0.4476  0.2776
  370MOL0     H48778   3.057   2.615  10.913  0.6318  3.8983 -0.7483
  370MOL0     H48779   2.875   2.479  10.981 -0.2697  0.1620  0.3916
  370MOL0     H48780   2.841   2.516  10.816 -0.5420 -0.3883 -0.3592
  370MOL0     H48781   2.709   2.657  11.062 -0.0023  0.1104 -0.5691
  370MOL0     H48782   2.650   2.498  11.010 -1.2942  0.0564 -2.5660
  370MOL0     H48783   2.652   2.748  10.849 -4.8220  1.8075 -0.2181
  370MOL0     H48784   2.617   2.570  10.803 -1.6974 -2.7376  2.6149
  370MOL0     H48785   2.411   2.707  10.835 -2.0915  1.2961  1.1739
  370MOL0     H48786   2.464   2.758  10.996 -0.0495  1.5497 -0.2447
  370MOL0     H48787   2.412   2.518  11.069 -3.1979  0.6080  1.2766
  370MOL0     H48788   2.412   2.471  10.901  1.1900  0.8759 -1.6899
  370MOL0     H48789   2.222   2.675  11.053 -2.0367 -0.1618 -0.5770
  370MOL0     H48790   2.195   2.621  10.882  3.5754 -1.7071 -1.9564
  370MOL0     H48791   2.223   2.409  11.093 -0.3896 -1.1584 -1.8299
  370MOL0     H48792   2.162   2.398  10.936 -0.2871  1.9537 -1.1618
  370MOL0     H48793   2.079   2.641  11.233 -0.1461  0.8858 -0.5012
  370MOL0     H48794   1.716   2.664  11.217  1.8839  0.0145 -0.9528
  370MOL0     H48795   1.838   2.753  11.278 -0.8805 -0.7963 -1.4008
  370MOL0     H48796   1.716   2.504  11.442 -0.2754  0.8822  1.1575
  370MOL0     H48797   1.685   2.661  11.483  1.2909 -1.5843  3.0068
  370MOL0     H48798   1.963   2.536  11.493  0.1939 -0.1148 -0.7819
  370MOL0     H48799   1.940   2.710  11.499 -0.1789 -0.4734 -0.1053
  370MOL0     H48800   1.799   2.690  11.704  0.9994  0.0289  1.7539
  370MOL0     H48801   1.962   2.619  11.722 -0.8478  1.2906  1.2165
  370MOL0     H48802   1.757   2.520  11.953  0.2385  0.7036 -0.1722
  370MOL0     H48803   1.549   2.480  12.073  1.5695  1.5837 -0.0633
  370MOL0     H48804   1.035   2.518  11.967 -2.3773  0.2022  1.2863
  370MOL0     H48805   0.840   2.512  12.078  0.2220  0.2200  0.0387
  370MOL0     H48806   0.797   2.277  12.388 -1.6946  0.0786  2.1271
  370MOL0     H48807   0.727   2.307  12.226  3.6510 -0.4744 -0.1125
  370MOL0     H48808   0.540   2.255  12.351 -1.9778  0.5998 -0.4997
  370MOL0     H48809   0.538   2.425  12.320 -2.9289  0.4889  3.2193
  370MOL0     H48810   0.627   2.445  12.578  4.0190 -0.8319 -1.0936
  370MOL0     H48811   0.600   2.269  12.576 -1.8837  0.2890  1.0720
  370MOL0     H48812   0.397   2.479  12.508  3.5352  0.0911 -0.6550
  370MOL0     H48813   0.362   2.302  12.514 -1.7836  0.4869 -0.0881
  370MOL0     H48814   0.434   2.314  12.760 -3.1595 -0.0091  1.5830
  370MOL0     H48815   0.289   2.401  12.724  0.3114 -0.2763  0.0636
  370MOL0     H48816   0.394   2.614  12.728 -1.2972 -1.6585 -1.1325
  370MOL0     H48817   0.554   2.535  12.773 -0.5180 -1.9166 -0.9231
  370MOL0     H48818   0.299   2.540  12.942 -0.2402 -1.3240  0.0595
  370MOL0     H48819   0.431   2.452  12.987 -0.8922  1.7417  2.3268
  370MOL0     H48820   0.453   2.745  12.929 -0.2874 -1.1935 -1.3685
  370MOL0     H48821   0.568   2.645  13.016  0.1395  1.1416  0.4695
  370MOL0     H48822   1.046   2.479  12.463 -0.0838  0.0942  0.8648
  370MOL0     H48823   1.263   2.489  12.325 -0.3247  0.2274  0.6307
  370MOL0     H48824   1.363   2.345  11.719  0.6146  2.3654 -1.4856
  370MOL0     H48825   1.594   2.367  11.596  1.6210 -0.5627  0.1484
  370MOL0     H48826   2.860   2.919  10.663 -0.6231  1.1249  1.3139
  370MOL0     H48827   2.977   3.134  10.593 -3.0691 -1.8507 -0.3744
  370MOL0     H48828   3.353   3.327  10.558 -0.1812 -0.4685  1.0940
  370MOL0     H48829   3.538   3.487  10.487 -0.8509  2.2336 -1.0991
  370MOL0     H48830   3.638   3.847  10.729  0.7047 -0.4171  1.0377
  370MOL0     H48831   3.765   3.791  10.624  1.1419 -0.5501  0.5446
  370MOL0     H48832   3.638   3.640  10.854 -1.1877 -1.6337 -2.7294
  370MOL0     H48833   3.777   3.567  10.763 -0.6527  0.0412 -0.6180
  370MOL0     H48834   3.808   3.846  10.887  0.9217  0.4264 -0.1853
  370MOL0     H48835   3.934   3.731  10.822 -0.9180 -2.4923  0.7272
  370MOL0     H48836   3.767   3.704  11.068  0.3138  3.6041 -1.0016
  370MOL0     H48837   3.887   3.585  11.006  1.2834 -0.2390 -0.2811
  370MOL0     H48838   4.146   3.868  11.178 -0.7776  0.0331 -1.2647
  370MOL0     H48839   3.432   3.746  10.816  0.4395 -1.7374  2.3317
  370MOL0     H48840   3.264   3.573  10.903 -4.4890  1.1209 -1.8831
  371MOL0     O48841   5.558   8.627  10.490 -0.9420  0.0429  0.7375
  371MOL0     C48842   5.622   8.591  10.589  0.9283  0.5327  0.3182
  371MOL0     O48843   5.569   8.509  10.677 -1.0863 -0.8064  0.1903
  371MOL0     C48844   5.450   8.447  10.652 -0.0052 -0.2899  1.0251
  371MOL0     C48845   5.400   8.392  10.531  0.3993 -0.1457 -0.3463
  371MOL0     C48846   5.274   8.335  10.521  0.1022 -0.7492 -0.2178
  371MOL0     C48847   5.192   8.333  10.635 -0.4657  0.2907 -0.5355
  371MOL0     O48848   5.062   8.280  10.633  0.4479 -0.1166  0.6633
  371MOL0     C48849   5.031   8.152  10.578 -1.0523 -0.5305 -0.2241
  371MOL0     C48850   4.903   8.160  10.499 -0.7029 -0.0705  0.0534
  371MOL0     C48851   4.786   8.215  10.578 -0.8056 -0.5792  0.2994
  371MOL0     C48852   4.699   8.108  10.639  0.1887 -0.0143  0.0921
  371MOL0     C48853   4.600   8.153  10.737  0.1474 -0.1620 -0.1471
  371MOL0     C48854   4.496   8.041  10.760 -0.4399  0.7683 -0.0145
  371MOL0     C48855   4.380   8.034  10.662 -0.0823  0.1659 -0.4251
  371MOL0     C48856   4.266   7.943  10.721 -0.2233 -0.2363 -0.1561
  371MOL0     N48857   4.145   7.949  10.651 -0.3351  0.1407 -0.2238
  371MOL0     C48858   4.081   8.062  10.627  0.3330  0.1219  0.8336
  371MOL0     C48859   3.956   8.026  10.583  0.3190 -0.1558 -0.7992
  371MOL0     C48860   3.844   8.126  10.552  0.2833  0.1652 -0.4949
  371MOL0     C48861   3.741   8.071  10.447  0.7239 -0.0599  0.5497
  371MOL0     C48862   3.617   8.170  10.446  0.4507  0.4757  0.8500
  371MOL0     C48863   3.550   8.146  10.313 -0.6796 -0.0213  0.3006
  371MOL0     O48864   3.427   8.217  10.305 -1.0297 -0.6848 -0.4916
  371MOL0     C48865   3.356   8.190  10.194  0.2604  0.9802  0.6873
  371MOL0     C48866   3.388   8.262  10.076 -0.5789 -0.0459 -0.6558
  371MOL0     C48867   3.324   8.232   9.958  0.0125 -0.2052  0.1195
  371MOL0     C48868   3.225   8.133   9.957 -0.3394  0.2166  0.0008
  371MOL0     C48869   3.148   8.075   9.843  0.5777 -0.0592  0.8685
  371MOL0     O48870   3.176   8.131   9.713  0.2495  0.6564  0.1576
  371MOL0     C48871   3.122   8.062   9.614 -0.7345 -0.3319  1.0316
  371MOL0     C48872   3.199   7.978   9.523 -0.1399 -0.5258  0.7800
  371MOL0     C48873   3.141   7.919   9.407 -0.9766  0.9912  0.0157
  371MOL0     C48874   3.015   7.962   9.367  0.1032 -0.0411  0.3087
  371MOL0     O48875   2.943   7.915   9.261  0.3909  0.1008  0.7948
  371MOL0     C48876   2.987   7.811   9.183 -0.0027  0.4235  1.0997
  371MOL0     C48877   2.906   7.787   9.048 -0.1109 -0.4557  0.3642
  371MOL0     C48878   2.765   7.743   9.085  0.0735 -0.1393 -0.0972
  371MOL0     C48879   2.674   7.717   8.969  0.4800  0.2724  0.4301
  371MOL0     C48880   2.555   7.622   8.999  0.4305  0.7831 -0.4593
  371MOL0     C48881   2.457   7.611   8.883 -0.5148 -0.2124 -0.2129
  371MOL0     C48882   2.348   7.516   8.925 -1.3527  0.1341  0.4822
  371MOL0     C48883   2.225   7.513   8.838  0.0368 -1.0593 -0.4703
  371MOL0    Cl48884   2.246   7.504   8.658  0.1496 -0.1381  0.0502
  371MOL0     C48885   2.945   8.049   9.450  0.4474  0.4248 -0.1126
  371MOL0     C48886   3.000   8.101   9.569  0.1454  0.5285 -0.3209
  371MOL0     O48887   3.054   7.996   9.868  0.1128 -0.3098  0.2908
  371MOL0     C48888   3.196   8.072  10.076 -0.1827 -0.5764 -0.0044
  371MOL0     C48889   3.256   8.100  10.195 -1.1829 -0.4667  0.7396
  371MOL0     N48890   3.963   7.886  10.580 -0.3031  0.7480  0.6636
  371MOL0     N48891   4.080   7.842  10.612  0.2865 -0.5383  0.7934
  371MOL0     C48892   5.256   8.363  10.761 -0.0221 -0.0166  1.1336
  371MOL0     C48893   5.385   8.414  10.763  0.1582 -0.2323 -0.3142
  371MOL0     C48894   5.755   8.643  10.613 -0.4389 -0.1055  0.3145
  371MOL0     C48895   5.842   8.606  10.715 -0.2348  0.2793  0.4625
  371MOL0     C48896   5.972   8.654  10.727  0.2158 -0.2131 -0.0608
  371MOL0     C48897   6.015   8.766  10.652 -0.4648 -0.7428 -0.1494
  371MOL0     O48898   6.143   8.811  10.672  0.1458 -1.1292  0.4199
  371MOL0     C48899   6.205   8.900  10.575 -0.3933 -0.3069  0.0047
  371MOL0     C48900   6.201   9.042  10.640 -0.8252 -0.2226  0.2613
  371MOL0     C48901   6.247   9.074  10.780  0.6475 -0.2348  0.1650
  371MOL0     C48902   6.391   9.080  10.786 -0.4562  1.0610  0.2632
  371MOL0     C48903   6.443   9.211  10.749 -0.0686  0.3256  0.2597
  371MOL0     C48904   6.498   9.317  10.722 -0.3892 -0.1265 -0.5565
  371MOL0     C48905   5.920   8.815  10.564 -1.1095 -0.9572  0.4519
  371MOL0     C48906   5.803   8.752  10.539 -0.5130 -0.4498 -0.4039
  371MOL0     H48907   5.453   8.414  10.439 -0.0082 -2.7339 -1.2770
  371MOL0     H48908   5.232   8.314  10.423 -1.1541  0.0138  0.1273
  371MOL0     H48909   5.023   8.086  10.665  0.7651 -2.5951 -1.4956
  371MOL0     H48910   5.109   8.110  10.514 -0.3670 -0.4064  0.5079
  371MOL0     H48911   4.878   8.061  10.461  1.5111 -0.1745 -1.2527
  371MOL0     H48912   4.910   8.227  10.413 -3.3697  1.8571  1.1721
  371MOL0     H48913   4.718   8.273  10.515 -0.7946 -1.5793 -0.6620
  371MOL0     H48914   4.830   8.278  10.656 -0.9818 -1.1879  0.9022
  371MOL0     H48915   4.650   8.065  10.551 -3.6929  3.6148  0.1561
  371MOL0     H48916   4.759   8.030  10.686 -0.5601 -0.6971 -0.0471
  371MOL0     H48917   4.555   8.241  10.690  0.0621 -0.3344 -0.3843
  371MOL0     H48918   4.648   8.172  10.834 -0.8038  0.1954  0.2581
  371MOL0     H48919   4.449   8.047  10.859 -2.6553  0.8445 -1.0001
  371MOL0     H48920   4.547   7.946  10.747  1.3166  1.7377 -0.5021
  371MOL0     H48921   4.341   8.133  10.635  0.0757  0.5178  0.5935
  371MOL0     H48922   4.422   7.982  10.576 -2.6329  0.2689 -1.8488
  371MOL0     H48923   4.246   7.984  10.821 -2.1658 -0.4795 -0.4147
  371MOL0     H48924   4.301   7.840  10.727 -0.1400 -0.2332 -0.5830
  371MOL0     H48925   4.116   8.165  10.619 -1.5209  0.7089 -0.5379
  371MOL0     H48926   3.895   8.214  10.513  0.6819  0.0742 -0.1835
  371MOL0     H48927   3.798   8.146  10.650  2.3771  1.5779  0.2469
  371MOL0     H48928   3.717   7.965  10.460 -0.2569  0.3876  2.7888
  371MOL0     H48929   3.790   8.078  10.349 -0.7539  0.2689 -0.2032
  371MOL0     H48930   3.547   8.148  10.527  1.3998 -0.4039  1.4547
  371MOL0     H48931   3.654   8.273  10.451 -0.8022  0.9934  0.0517
  371MOL0     H48932   3.526   8.039  10.306  0.5245 -0.3686  1.1436
  371MOL0     H48933   3.616   8.173  10.230  0.1069 -2.1408  0.1682
  371MOL0     H48934   3.476   8.325  10.083 -0.6568  0.1157 -1.0605
  371MOL0     H48935   3.352   8.285   9.868  1.4317  1.8222  1.6773
  371MOL0     H48936   3.305   7.971   9.546  0.2535 -1.6760 -1.1349
  371MOL0     H48937   3.193   7.850   9.342 -0.9079  1.8731 -0.8823
  371MOL0     H48938   2.988   7.726   9.252  1.0075 -1.6752 -1.3423
  371MOL0     H48939   3.093   7.824   9.160 -0.2891  2.3860  0.7045
  371MOL0     H48940   2.959   7.706   8.997  0.7787  0.0553  0.4402
  371MOL0     H48941   2.898   7.876   8.984 -1.0707 -1.2816 -0.6975
  371MOL0     H48942   2.727   7.831   9.138  0.4649  0.8926 -1.4597
  371MOL0     H48943   2.776   7.659   9.154  0.9224  1.5465  1.9651
  371MOL0     H48944   2.630   7.815   8.948  0.4665  0.5464  1.6263
  371MOL0     H48945   2.727   7.688   8.878  1.3042  2.0245  0.3247
  371MOL0     H48946   2.504   7.652   9.091 -2.0046 -0.3788 -1.3344
  371MOL0     H48947   2.601   7.524   9.020 -0.4677  0.8004  1.8531
  371MOL0     H48948   2.511   7.571   8.796  0.5115 -0.0266  0.3214
  371MOL0     H48949   2.423   7.714   8.876  0.1573  0.1642  1.5223
  371MOL0     H48950   2.395   7.418   8.914 -0.0045  0.7175  0.8565
  371MOL0     H48951   2.320   7.536   9.029  1.1536 -3.2753  1.9950
  371MOL0     H48952   2.176   7.608   8.861  2.6826  0.8838 -2.2841
  371MOL0     H48953   2.161   7.430   8.868 -1.1409  0.1029  0.3366
  371MOL0     H48954   2.845   8.078   9.419 -1.1587 -3.3176  0.9858
  371MOL0     H48955   2.931   8.172   9.616 -3.5626 -2.0471 -1.3909
  371MOL0     H48956   3.119   7.996  10.089 -1.1221  0.1316 -1.1972
  371MOL0     H48957   3.227   8.049  10.286 -2.9924 -0.7358  0.0542
  371MOL0     H48958   5.198   8.356  10.853 -2.7985  0.4677 -0.4571
  371MOL0     H48959   5.426   8.460  10.853  0.9137 -0.5175 -0.5024
  371MOL0     H48960   5.819   8.526  10.784  0.4337  0.8358  1.3608
  371MOL0     H48961   6.031   8.598  10.800  0.9786  0.6277 -0.0180
  371MOL0     H48962   6.144   8.896  10.484 -0.5675 -0.8535  0.1387
  371MOL0     H48963   6.310   8.877  10.556 -0.2283  1.2110 -1.1013
  371MOL0     H48964   6.247   9.113  10.571 -1.8515  1.1492  0.9422
  371MOL0     H48965   6.097   9.075  10.650 -0.4246  1.1365  0.1348
  371MOL0     H48966   6.208   9.000  10.850 -3.5742  1.7783  0.2273
  371MOL0     H48967   6.199   9.168  10.810  1.5772 -0.7499  3.6818
  371MOL0     H48968   6.426   9.054  10.886 -0.8627 -0.0857  0.1207
  371MOL0     H48969   6.444   9.006  10.725 -0.3412 -0.1725  1.8011
  371MOL0     H48970   6.519   9.422  10.727 -1.7482  0.1007  1.3602
  371MOL0     H48971   5.939   8.905  10.505 -0.5717 -0.2345  1.7030
  371MOL0     H48972   5.740   8.790  10.459 -1.9327 -3.7966 -1.0651
  372MOL0     O48973   2.356   5.958  10.101 -0.1070 -0.2975  0.6434
  372MOL0     C48974   2.393   6.021  10.001 -0.0318  0.0141 -0.1587
  372MOL0     O48975   2.444   5.969   9.891  0.1226 -0.3408 -0.3881
  372MOL0     C48976   2.448   5.836   9.868  0.2459 -0.0675  0.1246
  372MOL0     C48977   2.338   5.749   9.892  0.1891 -1.0968 -0.2256
  372MOL0     C48978   2.354   5.615   9.869 -0.1266  0.6544 -0.0513
  372MOL0     C48979   2.473   5.553   9.834 -1.2536 -0.1366 -0.4371
  372MOL0     O48980   2.484   5.416   9.826  0.4049 -0.2251 -0.6374
  372MOL0     C48981   2.589   5.366   9.914 -0.3341 -0.8851  0.0775
  372MOL0     C48982   2.553   5.219   9.928  0.7716  0.8590 -0.3469
  372MOL0     C48983   2.655   5.152  10.028  0.0884 -0.1322 -0.3860
  372MOL0     C48984   2.669   5.005  10.008 -0.1069  0.3483  0.9387
  372MOL0     C48985   2.714   4.937  10.137  0.0459 -0.6063  0.0735
  372MOL0     C48986   2.789   4.801  10.102 -0.3350 -0.6124 -0.7367
  372MOL0     C48987   2.700   4.701  10.019 -0.2505  0.1143 -0.6548
  372MOL0     C48988   2.776   4.588   9.952  0.8616  0.2246  0.4196
  372MOL0     N48989   2.835   4.608   9.819  0.3886  0.2356 -0.2401
  372MOL0     C48990   2.774   4.628   9.698  0.1346 -0.4319 -0.4938
  372MOL0     C48991   2.880   4.658   9.615  0.6709  0.5137  0.5448
  372MOL0     C48992   2.849   4.707   9.478 -0.6951 -0.4630 -1.3750
  372MOL0     C48993   2.830   4.603   9.377  0.4005  0.9258  0.5658
  372MOL0     C48994   2.712   4.519   9.405  0.3666 -0.1129  0.2285
  372MOL0     C48995   2.666   4.443   9.286 -0.5243  0.7055  0.8379
  372MOL0     O48996   2.542   4.365   9.288 -0.1948 -0.6520 -0.2076
  372MOL0     C48997   2.421   4.431   9.294  0.0983  0.8744 -0.2609
  372MOL0     C48998   2.340   4.413   9.408  0.1526 -0.4025  0.5732
  372MOL0     C48999   2.208   4.471   9.402 -0.4130  0.4912  0.3679
  372MOL0     C49000   2.155   4.522   9.284  0.2364  0.2227 -0.2823
  372MOL0     C49001   2.029   4.597   9.291 -0.4859  0.2470  1.6819
  372MOL0     O49002   1.952   4.579   9.396  0.2285  0.4477  0.6263
  372MOL0     C49003   1.837   4.646   9.413  0.6057 -0.5474  0.0948
  372MOL0     C49004   1.824   4.732   9.529 -0.1935 -0.1975 -0.3643
  372MOL0     C49005   1.704   4.802   9.560  0.7773  0.0526 -0.1970
  372MOL0     C49006   1.597   4.799   9.473  0.3993  0.6229  1.0217
  372MOL0     O49007   1.482   4.868   9.482  0.0164  0.1788  0.5520
  372MOL0     C49008   1.490   5.012   9.494 -0.0999  0.4710 -0.3209
  372MOL0     C49009   1.357   5.075   9.445 -0.1793  0.1146  0.7111
  372MOL0     C49010   1.344   5.046   9.288  0.9701  0.6436 -0.4295
  372MOL0     C49011   1.273   5.162   9.217  0.6537  0.4007  0.3197
  372MOL0     C49012   1.118   5.148   9.237 -0.9581  0.7234  0.6294
  372MOL0     C49013   1.051   5.065   9.126 -0.2542  0.0402 -0.2998
  372MOL0     C49014   0.897   5.071   9.139 -0.7729 -0.0722  0.7718
  372MOL0     C49015   0.821   5.020   9.017  0.1725  0.4380 -0.1536
  372MOL0    Cl49016   0.833   4.853   8.995 -0.3805  0.0297  0.6857
  372MOL0     C49017   1.602   4.706   9.361 -0.4885 -0.6129  0.2749
  372MOL0     C49018   1.720   4.634   9.331  0.3881  0.2028 -0.2114
  372MOL0     O49019   1.998   4.664   9.192 -0.0159  0.6289 -0.2431
  372MOL0     C49020   2.237   4.525   9.170  0.6318 -0.3231 -0.3309
  372MOL0     C49021   2.373   4.492   9.177  0.7734  0.3375  0.0850
  372MOL0     N49022   3.003   4.634   9.680  0.9209  0.2866  0.2191
  372MOL0     N49023   2.976   4.599   9.799  0.1108 -0.3219  0.5659
  372MOL0     C49024   2.586   5.642   9.812  0.8823  0.2364 -0.0893
  372MOL0     C49025   2.576   5.777   9.830  0.3701  0.1016  0.6972
  372MOL0     C49026   2.380   6.164  10.003 -0.5889 -0.0644 -0.6352
  372MOL0     C49027   2.396   6.232   9.883  0.0114  0.4614 -0.1162
  372MOL0     C49028   2.372   6.369   9.869 -0.6567  0.5249 -0.6912
  372MOL0     C49029   2.341   6.441   9.979  0.6171 -0.0688  0.3008
  372MOL0     O49030   2.317   6.574   9.951  0.1315  0.1299  0.3873
  372MOL0     C49031   2.307   6.674  10.054 -0.6501 -0.5576  0.3850
  372MOL0     C49032   2.435   6.762  10.082  0.6097  0.4763  0.7936
  372MOL0     C49033   2.502   6.822   9.954  0.1761  0.3145 -0.0922
  372MOL0     C49034   2.604   6.731   9.877  0.5971 -1.0454  0.4243
  372MOL0     C49035   2.657   6.795   9.754 -0.9234 -0.0291  0.1670
  372MOL0     C49036   2.669   6.852   9.647  0.2403 -0.0535 -0.0243
  372MOL0     C49037   2.344   6.380  10.106 -0.7103 -0.6954  0.1822
  372MOL0     C49038   2.355   6.243  10.115 -0.0531 -0.1573  0.2866
  372MOL0     H49039   2.243   5.792   9.920  0.7663  1.0781 -1.3976
  372MOL0     H49040   2.263   5.557   9.882 -1.1541  1.9131 -1.3358
  372MOL0     H49041   2.596   5.415  10.012 -0.3945 -0.3812 -0.1642
  372MOL0     H49042   2.682   5.371   9.858 -0.3654  1.7169  0.1133
  372MOL0     H49043   2.556   5.186   9.824 -2.2687 -1.0449  0.0419
  372MOL0     H49044   2.452   5.210   9.969  0.7638  2.5479  0.0675
  372MOL0     H49045   2.615   5.177  10.126  0.2168 -3.3753  0.5923
  372MOL0     H49046   2.756   5.192  10.014  0.3961 -0.8331 -0.1940
  372MOL0     H49047   2.573   4.960   9.979  0.3818  0.3736 -0.7823
  372MOL0     H49048   2.735   4.991   9.922 -1.9213  3.0348 -1.0561
  372MOL0     H49049   2.626   4.927  10.201  0.6294 -1.2852  0.7937
  372MOL0     H49050   2.785   5.003  10.188 -1.0716  0.7672 -0.0944
  372MOL0     H49051   2.822   4.762  10.198 -0.2999  0.3980 -0.3331
  372MOL0     H49052   2.881   4.818  10.045  1.8619 -0.6027  2.5389
  372MOL0     H49053   2.628   4.644  10.079 -0.5163 -2.1004 -2.9040
  372MOL0     H49054   2.641   4.762   9.950 -1.9623 -0.0091  0.6459
  372MOL0     H49055   2.709   4.505   9.928 -1.8191  2.3683  0.1120
  372MOL0     H49056   2.856   4.556  10.020  2.5139  0.4298 -1.3526
  372MOL0     H49057   2.670   4.651   9.675  0.3643 -0.4486 -1.5749
  372MOL0     H49058   2.925   4.780   9.449 -3.5847  2.4656 -2.1391
  372MOL0     H49059   2.757   4.763   9.497 -1.0799 -1.0941 -1.3582
  372MOL0     H49060   2.918   4.540   9.358 -0.0712  0.0426  1.2897
  372MOL0     H49061   2.808   4.665   9.289  2.1143  0.8429  0.0344
  372MOL0     H49062   2.734   4.440   9.478  0.7258  0.2660  0.5319
  372MOL0     H49063   2.633   4.580   9.449  1.1696 -0.6661  2.5886
  372MOL0     H49064   2.745   4.373   9.254  0.3159  2.1190 -0.3226
  372MOL0     H49065   2.666   4.509   9.198  3.4068 -0.5459 -0.3189
  372MOL0     H49066   2.362   4.378   9.509 -1.2283  0.4139  1.1760
  372MOL0     H49067   2.139   4.463   9.485  1.2674 -0.8612  1.7092
  372MOL0     H49068   1.911   4.739   9.593 -0.2587  0.2837 -0.3263
  372MOL0     H49069   1.701   4.866   9.648 -0.5558 -0.9454  0.5176
  372MOL0     H49070   1.580   5.052   9.447  0.5957 -0.5150  0.1284
  372MOL0     H49071   1.497   5.028   9.602  2.6954 -1.2739 -0.1267
  372MOL0     H49072   1.372   5.181   9.463 -1.3527 -0.1423  3.8773
  372MOL0     H49073   1.275   5.043   9.510  0.4012 -2.2968  0.3653
  372MOL0     H49074   1.292   4.950   9.276  0.9322  0.8758 -2.3233
  372MOL0     H49075   1.446   5.047   9.249  1.3888  2.1448  0.6355
  372MOL0     H49076   1.295   5.257   9.268 -1.6388 -1.2310  4.9796
  372MOL0     H49077   1.290   5.163   9.109 -0.2576 -3.1343  0.0133
  372MOL0     H49078   1.068   5.246   9.240  0.9493  1.6969  2.3829
  372MOL0     H49079   1.093   5.105   9.334 -1.3144 -1.2227 -0.2859
  372MOL0     H49080   1.089   4.963   9.127  1.2755  0.5754  1.0575
  372MOL0     H49081   1.081   5.114   9.032  0.3310  0.5410  0.1418
  372MOL0     H49082   0.864   5.028   9.234  0.5515 -3.7275 -0.2398
  372MOL0     H49083   0.882   5.179   9.146  3.1260  0.6996 -0.3473
  372MOL0     H49084   0.862   5.069   8.928  0.2269 -0.2375 -0.5036
  372MOL0     H49085   0.714   5.040   9.024  0.0111 -0.3924 -0.1366
  372MOL0     H49086   1.520   4.692   9.292 -0.8051 -1.6940  0.8404
  372MOL0     H49087   1.731   4.570   9.245 -1.9149  0.9833 -1.1526
  372MOL0     H49088   2.191   4.581   9.089  1.0340  0.5638  0.0515
  372MOL0     H49089   2.432   4.498   9.086 -2.1650 -4.0497 -2.4786
  372MOL0     H49090   2.686   5.605   9.790  1.6717  0.5696  2.4918
  372MOL0     H49091   2.656   5.847   9.809 -1.2412  1.6501 -0.5102
  372MOL0     H49092   2.425   6.165   9.802 -2.9983 -2.4541  0.9683
  372MOL0     H49093   2.385   6.420   9.774 -0.4025 -0.5095 -1.2279
  372MOL0     H49094   2.262   6.629  10.143  1.0951 -4.7893 -0.6402
  372MOL0     H49095   2.230   6.742  10.019 -1.3571 -3.1553 -3.7674
  372MOL0     H49096   2.411   6.842  10.152 -1.0265  1.2374 -0.5637
  372MOL0     H49097   2.514   6.700  10.126  1.1343  2.5430  2.9363
  372MOL0     H49098   2.560   6.908   9.988 -0.1599  0.6786 -0.4312
  372MOL0     H49099   2.416   6.848   9.893 -0.0995 -0.0121  0.1512
  372MOL0     H49100   2.681   6.695   9.946 -0.7797 -1.2425  1.9273
  372MOL0     H49101   2.552   6.641   9.843 -2.6465  0.0704  1.9709
  372MOL0     H49102   2.676   6.897   9.550 -0.8306 -0.0508 -0.1154
  372MOL0     H49103   2.332   6.432  10.201  1.3226 -2.3944  1.4389
  372MOL0     H49104   2.349   6.189  10.209  1.5964 -0.7246  0.0989
  373MOL0     O49105   9.171   8.680  10.281 -0.1276 -0.1858  0.1582
  373MOL0     C49106   9.210   8.650  10.167  0.2353  0.8676 -0.5334
  373MOL0     O49107   9.139   8.673  10.048  0.8271  0.2114 -0.3706
  373MOL0     C49108   9.015   8.734  10.062  0.0835  0.2305  0.0540
  373MOL0     C49109   8.999   8.872  10.063 -0.2269 -0.3482  0.6130
  373MOL0     C49110   8.874   8.923  10.073  0.0343 -0.2389 -0.4755
  373MOL0     C49111   8.756   8.852  10.080  0.3981 -0.5096 -0.8434
  373MOL0     O49112   8.636   8.915  10.093  0.0966 -0.2927  0.3058
  373MOL0     C49113   8.541   8.889   9.981  0.0194  0.0855 -0.6284
  373MOL0     C49114   8.424   8.985  10.003 -0.5773 -0.2315 -0.1555
  373MOL0     C49115   8.334   8.975   9.878  0.2243  0.0624 -1.0443
  373MOL0     C49116   8.198   9.037   9.928 -0.4475  0.2556  0.2147
  373MOL0     C49117   8.108   9.056   9.807 -1.0777 -0.6534 -0.4880
  373MOL0     C49118   7.955   9.055   9.852  0.4906 -0.0480  0.2267
  373MOL0     C49119   7.843   9.062   9.742  0.0524 -0.1005 -1.5221
  373MOL0     C49120   7.700   9.101   9.808  0.3972  0.2475  0.6587
  373MOL0     N49121   7.596   9.094   9.704 -0.3826 -0.0086  0.0902
  373MOL0     C49122   7.500   8.991   9.677 -0.1581 -0.6241  0.1716
  373MOL0     C49123   7.422   9.043   9.579  0.5478  1.0335 -0.0594
  373MOL0     C49124   7.302   8.976   9.520  0.4009 -0.7625  0.1753
  373MOL0     C49125   7.191   8.947   9.620  0.3100 -0.2920 -0.2770
  373MOL0     C49126   7.161   9.079   9.695  0.1402  0.5730  0.3563
  373MOL0     C49127   7.037   9.093   9.768  0.1185 -0.3692 -0.3865
  373MOL0     O49128   7.035   9.000   9.872 -0.3823 -0.4529  0.1559
  373MOL0     C49129   6.910   8.962   9.917  0.6373  0.2143  0.3179
  373MOL0     C49130   6.789   9.010   9.866  0.0733 -0.6223  0.3921
  373MOL0     C49131   6.673   8.952   9.921 -0.7542  0.1943  0.0952
  373MOL0     C49132   6.669   8.856  10.023  0.1717 -0.3378 -0.6815
  373MOL0     C49133   6.551   8.812  10.086  0.0617 -0.7078 -0.0008
  373MOL0     O49134   6.569   8.747  10.213  0.2867 -0.2191  0.0945
  373MOL0     C49135   6.472   8.653  10.245 -0.3826  0.1966 -0.2198
  373MOL0     C49136   6.429   8.550  10.157 -0.6213 -1.0352 -0.0950
  373MOL0     C49137   6.315   8.489  10.195  0.1961 -0.2273 -0.4769
  373MOL0     C49138   6.233   8.512  10.305  0.1454  0.2369  0.3034
  373MOL0     O49139   6.122   8.434  10.314  0.3394 -0.2981  0.1099
  373MOL0     C49140   6.029   8.454  10.413 -0.0144 -0.4336 -0.5069
  373MOL0     C49141   5.921   8.352  10.423 -0.5982 -0.1511  0.8141
  373MOL0     C49142   5.849   8.346  10.285  0.1401  0.0354  0.2120
  373MOL0     C49143   5.733   8.243  10.290  0.2672  0.4354  0.2518
  373MOL0     C49144   5.633   8.260  10.174 -0.4935 -0.0663  0.3875
  373MOL0     C49145   5.537   8.147  10.176 -0.7063 -0.1010  0.8517
  373MOL0     C49146   5.428   8.138  10.282  0.0802  0.6840 -0.1448
  373MOL0     C49147   5.336   8.011  10.270  0.5511 -0.3283  0.2425
  373MOL0    Cl49148   5.429   7.874  10.358 -0.8992  0.4813  0.6485
  373MOL0     C49149   6.281   8.607  10.401  0.0385 -0.3350 -0.1495
  373MOL0     C49150   6.402   8.676  10.371 -0.4327  0.5776  1.0959
  373MOL0     O49151   6.448   8.824  10.023 -0.7944  0.1357  0.0848
  373MOL0     C49152   6.790   8.813  10.069 -0.0901  0.0783  0.9603
  373MOL0     C49153   6.908   8.864  10.018  0.1306 -0.6459 -0.8333
  373MOL0     N49154   7.459   9.171   9.555 -0.1697 -0.3370  0.3627
  373MOL0     N49155   7.562   9.194   9.621 -0.0412  0.4230  0.2931
  373MOL0     C49156   8.764   8.717  10.078 -0.3073  0.4921  0.2484
  373MOL0     C49157   8.899   8.662  10.072  0.2460 -0.0048  0.0479
  373MOL0     C49158   9.352   8.591  10.150 -0.1619  0.3953  0.1064
  373MOL0     C49159   9.435   8.548  10.261  0.5986  0.6321 -0.1543
  373MOL0     C49160   9.561   8.505  10.241 -0.5922 -0.1259 -0.0679
  373MOL0     C49161   9.627   8.497  10.118 -0.4027 -0.6297  0.3095
  373MOL0     O49162   9.754   8.451  10.118 -0.2201  0.7952  0.2561
  373MOL0     C49163   9.815   8.409   9.997 -0.3430  0.3469  0.1157
  373MOL0     C49164   9.866   8.517   9.899 -0.0647 -0.3859 -0.3490
  373MOL0     C49165   9.950   8.455   9.795 -0.2956 -0.0626 -0.1582
  373MOL0     C49166   9.885   8.349   9.705  0.2894  0.0475 -1.0655
  373MOL0     C49167   9.786   8.419   9.618 -0.6685 -0.8053 -0.3830
  373MOL0     C49168   9.704   8.449   9.530 -0.2037  0.1259 -0.3699
  373MOL0     C49169   9.549   8.547  10.002 -0.5291  0.5386 -0.5912
  373MOL0     C49170   9.417   8.588  10.028  0.3345 -0.7157  0.8195
  373MOL0     H49171   9.085   8.937  10.050  0.5188 -1.2692  0.8338
  373MOL0     H49172   8.855   9.029  10.075 -2.0979 -0.5919  0.5346
  373MOL0     H49173   8.507   8.784   9.986 -2.9324  0.9772  0.7200
  373MOL0     H49174   8.577   8.925   9.885 -1.1300  0.3870 -0.9692
  373MOL0     H49175   8.452   9.091  10.011 -2.4246  0.1895  1.6892
  373MOL0     H49176   8.385   8.951  10.100  0.0353  0.4806  0.3523
  373MOL0     H49177   8.323   8.870   9.848 -2.2769 -0.4453  1.2754
  373MOL0     H49178   8.373   9.040   9.799 -2.6349  2.1014 -0.9313
  373MOL0     H49179   8.155   8.965   9.999  0.0533 -3.8241 -3.2609
  373MOL0     H49180   8.209   9.133   9.980  2.9117  0.7251 -1.1623
  373MOL0     H49181   8.112   8.969   9.741  0.4213  0.3779 -1.8470
  373MOL0     H49182   8.155   9.133   9.744  1.5950 -0.9680  0.9607
  373MOL0     H49183   7.940   9.144   9.914  1.2756 -0.4139  0.9634
  373MOL0     H49184   7.946   8.964   9.912  1.9651 -0.4692 -0.1517
  373MOL0     H49185   7.862   9.138   9.666 -2.9816  3.6272  1.0642
  373MOL0     H49186   7.833   8.959   9.707 -0.9228 -0.9694  1.0067
  373MOL0     H49187   7.701   9.201   9.853 -0.7183  1.1414 -1.1782
  373MOL0     H49188   7.669   9.029   9.884 -0.4990  0.8350  0.8683
  373MOL0     H49189   7.494   8.894   9.726  2.1124 -1.8392 -1.7556
  373MOL0     H49190   7.327   8.878   9.480 -1.5267 -0.3980 -2.0824
  373MOL0     H49191   7.273   9.052   9.447  2.8243 -1.5699 -1.7661
  373MOL0     H49192   7.231   8.871   9.688  0.1487  0.6330  0.8841
  373MOL0     H49193   7.099   8.920   9.568 -1.8911  1.8266  2.2194
  373MOL0     H49194   7.231   9.093   9.777  2.0774  2.1379 -1.4390
  373MOL0     H49195   7.164   9.172   9.637 -1.3019  2.3211  2.8873
  373MOL0     H49196   6.956   9.081   9.694 -0.3706  4.4317 -0.9687
  373MOL0     H49197   7.039   9.196   9.806 -0.5526 -0.9782  1.4194
  373MOL0     H49198   6.789   9.090   9.793 -1.9556 -2.5461 -1.9209
  373MOL0     H49199   6.577   8.988   9.886 -2.4880 -3.2166  0.8794
  373MOL0     H49200   6.481   8.539  10.063  1.5065  1.0312  0.7357
  373MOL0     H49201   6.286   8.410  10.127 -4.0775  1.2756 -0.7240
  373MOL0     H49202   5.979   8.548  10.390 -0.5896 -0.6805 -0.2856
  373MOL0     H49203   6.082   8.452  10.508  0.5795 -0.2371 -0.8306
  373MOL0     H49204   5.847   8.384  10.497 -0.6783  1.8905 -0.0830
  373MOL0     H49205   5.966   8.259  10.459 -0.8474  0.8135  3.9399
  373MOL0     H49206   5.912   8.336  10.196  0.4491 -1.6576  0.5933
  373MOL0     H49207   5.802   8.445  10.273 -0.2865  0.2107  2.7632
  373MOL0     H49208   5.779   8.145  10.278  1.4142  1.1472 -1.5387
  373MOL0     H49209   5.675   8.251  10.383  2.5120 -1.6120  1.9545
  373MOL0     H49210   5.689   8.258  10.080 -0.2954 -1.6363  0.5112
  373MOL0     H49211   5.584   8.358  10.180 -4.8623 -1.9881 -0.5220
  373MOL0     H49212   5.591   8.053  10.162 -0.0974  0.4599 -0.8354
  373MOL0     H49213   5.475   8.156  10.086  0.6584  0.9019 -0.0175
  373MOL0     H49214   5.466   8.143  10.385 -3.8393  0.9776  1.4550
  373MOL0     H49215   5.362   8.225  10.274 -0.2547  0.4096 -0.3465
  373MOL0     H49216   5.318   7.993  10.163  1.9910  1.2401 -0.3149
  373MOL0     H49217   5.239   8.025  10.317  1.0379  0.2659  1.0759
  373MOL0     H49218   6.228   8.628  10.493 -0.9079  1.2447 -1.0136
  373MOL0     H49219   6.432   8.754  10.440  0.5735 -0.3678  1.7638
  373MOL0     H49220   6.796   8.737  10.147  0.9663  0.8240  1.6354
  373MOL0     H49221   7.005   8.844  10.063  1.1848  2.0112 -1.7191
  373MOL0     H49222   8.671   8.664  10.096 -1.0195  1.3616 -0.8104
  373MOL0     H49223   8.916   8.555  10.061  2.3572  0.1676  1.0061
  373MOL0     H49224   9.388   8.550  10.359 -0.9261  0.7119 -0.8668
  373MOL0     H49225   9.623   8.483  10.328 -0.8467 -0.0913  0.1255
  373MOL0     H49226   9.754   8.333   9.948 -2.6188  2.3852 -0.3820
  373MOL0     H49227   9.908   8.358  10.027 -0.3781  0.0014 -0.3450
  373MOL0     H49228   9.785   8.569   9.846  0.1555 -0.1453 -0.4493
  373MOL0     H49229   9.933   8.592   9.941  3.2382 -2.4602 -1.5120
  373MOL0     H49230  10.039   8.409   9.841  0.2439  2.4490  1.4883
  373MOL0     H49231   9.992   8.534   9.732 -1.2366  0.7487  0.2077
  373MOL0     H49232   9.969   8.300   9.655  0.3282 -1.2541  0.2086
  373MOL0     H49233   9.832   8.275   9.765  0.3308  1.2228  0.4591
  373MOL0     H49234   9.638   8.493   9.458 -0.0499 -0.6928 -1.0436
  373MOL0     H49235   9.586   8.555   9.901  1.7442 -0.6075  0.0897
  373MOL0     H49236   9.353   8.609   9.943  1.4316 -0.2511  0.0910
  374MOL0     O49237   8.730   3.290   4.352  0.0266 -0.1302 -0.3205
  374MOL0     C49238   8.691   3.396   4.301 -0.1503  1.0002  0.7230
  374MOL0     O49239   8.576   3.402   4.223  0.0786 -0.4859  0.0823
  374MOL0     C49240   8.491   3.297   4.221 -0.2164 -0.4621 -1.0559
  374MOL0     C49241   8.409   3.275   4.331 -0.1326  0.4329 -0.1292
  374MOL0     C49242   8.302   3.176   4.326 -0.0708 -0.7213  0.4276
  374MOL0     C49243   8.294   3.093   4.211 -0.4341  0.1521  0.4104
  374MOL0     O49244   8.190   2.992   4.203  0.1470 -0.6864 -0.1215
  374MOL0     C49245   8.087   3.023   4.108 -0.4340  0.7242  0.6283
  374MOL0     C49246   8.015   2.887   4.079 -0.0246  0.8136  0.0408
  374MOL0     C49247   7.897   2.896   3.987 -0.0309 -0.0816  0.5786
  374MOL0     C49248   7.796   2.782   4.002 -0.1918  0.2011 -1.2720
  374MOL0     C49249   7.676   2.801   3.905 -0.2400  0.6208 -0.1384
  374MOL0     C49250   7.564   2.695   3.939 -0.8446 -0.2360 -0.5130
  374MOL0     C49251   7.441   2.700   3.859  0.8001 -0.0491  0.8322
  374MOL0     C49252   7.454   2.662   3.712 -0.3126 -0.0735 -0.1184
  374MOL0     N49253   7.360   2.724   3.620 -0.1703  0.2741 -0.4013
  374MOL0     C49254   7.235   2.774   3.652  0.4641  0.6768  0.5568
  374MOL0     C49255   7.185   2.829   3.539  0.1006 -0.5484  0.6738
  374MOL0     C49256   7.058   2.904   3.536 -0.3129  0.3550  0.2126
  374MOL0     C49257   7.039   3.000   3.660  1.0965 -0.2442 -0.8905
  374MOL0     C49258   7.160   3.095   3.685  0.2107  0.4910  1.0459
  374MOL0     C49259   7.127   3.205   3.782  0.4707  0.0677  0.2892
  374MOL0     O49260   7.025   3.285   3.722 -0.6312  0.9436  0.7267
  374MOL0     C49261   6.980   3.400   3.777  0.3940 -0.5511  0.0308
  374MOL0     C49262   6.993   3.442   3.911  0.5822  0.3815  0.1476
  374MOL0     C49263   6.945   3.566   3.948 -0.3102 -0.5650  0.2455
  374MOL0     C49264   6.879   3.652   3.861 -0.7020 -0.0020 -0.2051
  374MOL0     C49265   6.830   3.781   3.915 -0.0886  0.1259  0.1800
  374MOL0     O49266   6.820   3.797   4.054 -0.5689  0.2027  0.0477
  374MOL0     C49267   6.723   3.893   4.082 -0.2352 -0.0235  0.2352
  374MOL0     C49268   6.736   4.029   4.047  0.3107  0.8568  1.0831
  374MOL0     C49269   6.628   4.109   4.066  0.2583 -0.2447  0.6792
  374MOL0     C49270   6.511   4.073   4.134  0.4646  0.7674 -0.0111
  374MOL0     O49271   6.425   4.171   4.135  0.5037 -0.0223 -0.0648
  374MOL0     C49272   6.289   4.151   4.184 -1.1925  0.2182 -0.2591
  374MOL0     C49273   6.204   4.114   4.062 -0.0228 -0.0650  0.7707
  374MOL0     C49274   6.190   3.970   4.051  0.2599  0.7319  0.3200
  374MOL0     C49275   6.072   3.932   3.961 -0.5957  0.1656  0.2874
  374MOL0     C49276   6.085   3.961   3.816 -0.2076 -0.0925  0.6001
  374MOL0     C49277   5.969   3.917   3.731 -0.5825 -0.3820  0.3155
  374MOL0     C49278   5.844   3.979   3.789 -0.0475  0.0871  0.0985
  374MOL0     C49279   5.729   3.972   3.692 -0.4029  0.5050  0.5130
  374MOL0    Cl49280   5.575   3.998   3.765  0.6793  0.0581  0.3332
  374MOL0     C49281   6.500   3.940   4.186 -0.6579  0.8800  1.1120
  374MOL0     C49282   6.606   3.851   4.150  0.4573  0.5757  0.4165
  374MOL0     O49283   6.788   3.862   3.830 -0.4764 -0.0345 -0.3202
  374MOL0     C49284   6.851   3.610   3.732 -0.4775 -0.4317  0.6506
  374MOL0     C49285   6.898   3.482   3.691 -0.1186 -0.0682  0.3403
  374MOL0     N49286   7.284   2.811   3.437  0.0490  0.9236 -0.0834
  374MOL0     N49287   7.381   2.734   3.484 -0.2574  0.2906 -0.3323
  374MOL0     C49288   8.379   3.117   4.104 -0.3233  0.5381  0.3381
  374MOL0     C49289   8.472   3.225   4.103 -0.5746  0.7494 -0.1880
  374MOL0     C49290   8.802   3.497   4.294  0.6935 -0.8841  0.6921
  374MOL0     C49291   8.787   3.610   4.224  0.4462 -0.3475 -0.2330
  374MOL0     C49292   8.896   3.692   4.198 -0.3447 -0.2427 -0.4888
  374MOL0     C49293   9.029   3.665   4.253  0.8044  0.5763 -0.7100
  374MOL0     O49294   9.122   3.751   4.204  0.2674  0.0307  0.1237
  374MOL0     C49295   9.265   3.713   4.215 -0.3500  0.3466  0.2707
  374MOL0     C49296   9.314   3.723   4.361 -0.0664  0.0230  0.1389
  374MOL0     C49297   9.457   3.659   4.366  0.0422 -0.0599  0.3870
  374MOL0     C49298   9.528   3.682   4.496 -0.5598 -0.7092 -1.6111
  374MOL0     C49299   9.469   3.636   4.629  0.0845  0.3371  0.7829
  374MOL0     C49300   9.410   3.598   4.726  0.9449 -0.2270  0.4239
  374MOL0     C49301   9.044   3.548   4.326  1.3275  0.6619  0.8274
  374MOL0     C49302   8.929   3.470   4.348 -0.4080 -1.0414  0.1901
  374MOL0     H49303   8.418   3.339   4.418  0.5014  2.5168 -1.6454
  374MOL0     H49304   8.240   3.151   4.411 -0.8085  1.5928  0.6189
  374MOL0     H49305   8.130   3.055   4.012  0.8491 -1.2667  0.4836
  374MOL0     H49306   8.013   3.099   4.135 -1.7468 -0.2057 -0.2587
  374MOL0     H49307   7.997   2.831   4.171  0.1092  1.0785  0.2307
  374MOL0     H49308   8.083   2.822   4.024  1.0945  1.3351  0.7507
  374MOL0     H49309   7.936   2.905   3.886 -2.4773 -1.0372 -0.5298
  374MOL0     H49310   7.829   2.981   3.991  2.2337  1.8021  1.5406
  374MOL0     H49311   7.830   2.680   3.980 -0.3148  0.2877 -1.8628
  374MOL0     H49312   7.765   2.783   4.107 -0.3980  1.7192 -1.3245
  374MOL0     H49313   7.708   2.795   3.800  0.1567  1.8431 -0.1047
  374MOL0     H49314   7.623   2.897   3.908 -1.1869  0.2537 -2.4730
  374MOL0     H49315   7.548   2.711   4.046 -2.4240  0.4735 -0.8312
  374MOL0     H49316   7.601   2.592   3.937 -0.6443 -0.1915  0.5191
  374MOL0     H49317   7.361   2.635   3.895  1.6533 -3.3445 -2.6503
  374MOL0     H49318   7.418   2.807   3.870 -1.8996 -0.4794  0.1626
  374MOL0     H49319   7.449   2.554   3.701 -0.6318 -0.0410 -0.3150
  374MOL0     H49320   7.546   2.698   3.667 -2.6151  2.6666 -3.0969
  374MOL0     H49321   7.195   2.785   3.752 -0.9349  1.7251 -0.0882
  374MOL0     H49322   6.975   2.834   3.533  0.4288 -0.5533  0.3690
  374MOL0     H49323   7.053   2.965   3.445  1.9234  1.0200  0.4545
  374MOL0     H49324   7.009   2.947   3.751 -1.5129  2.3246 -0.0722
  374MOL0     H49325   6.949   3.053   3.627 -0.2974 -1.3437  0.9791
  374MOL0     H49326   7.246   3.040   3.725  0.4775  1.2002  1.4703
  374MOL0     H49327   7.192   3.135   3.588  1.8421 -2.6983  0.1447
  374MOL0     H49328   7.219   3.264   3.796  0.1988  0.1187  2.0240
  374MOL0     H49329   7.096   3.181   3.884  0.1947 -1.2639 -0.0843
  374MOL0     H49330   7.036   3.372   3.982 -2.3790 -0.8549  0.8494
  374MOL0     H49331   6.968   3.601   4.047 -0.2076  0.1448 -0.0231
  374MOL0     H49332   6.825   4.057   3.992  0.3697 -0.0304  0.7107
  374MOL0     H49333   6.634   4.210   4.026 -2.9262  0.5556  1.9141
  374MOL0     H49334   6.248   4.238   4.235 -0.6408 -1.1872  2.8809
  374MOL0     H49335   6.288   4.073   4.261  2.2587 -1.1438 -1.3952
  374MOL0     H49336   6.239   4.157   3.967 -0.5526  0.8073  0.9541
  374MOL0     H49337   6.106   4.156   4.087  0.5694  0.2229  2.7049
  374MOL0     H49338   6.179   3.925   4.150  0.8999  3.1954  1.6096
  374MOL0     H49339   6.278   3.919   4.011 -0.7157  0.4683 -1.5850
  374MOL0     H49340   6.050   3.825   3.976  1.2422 -0.4741 -1.2152
  374MOL0     H49341   5.987   3.986   4.003 -2.1569  0.1004 -2.5556
  374MOL0     H49342   6.175   3.915   3.775 -0.7401 -1.1935  0.6338
  374MOL0     H49343   6.102   4.069   3.807  1.2399 -0.0667  2.7675
  374MOL0     H49344   5.962   3.808   3.732 -1.0882 -0.4194 -1.9118
  374MOL0     H49345   5.987   3.958   3.632 -3.5906  0.4308 -0.0029
  374MOL0     H49346   5.815   3.919   3.876 -0.5550  0.3281  0.0972
  374MOL0     H49347   5.856   4.081   3.827 -3.3085  0.2965  0.8130
  374MOL0     H49348   5.716   3.876   3.640 -1.6725  0.5386  0.7415
  374MOL0     H49349   5.746   4.046   3.614  0.4472  2.2445  2.2790
  374MOL0     H49350   6.411   3.906   4.238 -1.7979 -0.8008 -1.7168
  374MOL0     H49351   6.593   3.747   4.176 -0.8100  0.0914 -1.8825
  374MOL0     H49352   6.797   3.673   3.661  0.8711 -1.1708 -1.1079
  374MOL0     H49353   6.870   3.451   3.591 -1.9906  0.7404  0.5587
  374MOL0     H49354   8.375   3.045   4.023  4.5078 -2.9798  2.7177
  374MOL0     H49355   8.527   3.244   4.012 -2.5265  1.6134 -1.2492
  374MOL0     H49356   8.696   3.633   4.170  1.2717 -1.3009 -2.1697
  374MOL0     H49357   8.873   3.778   4.135  0.2429  0.1456 -0.1826
  374MOL0     H49358   9.338   3.775   4.161  1.2802  0.1627  2.1542
  374MOL0     H49359   9.271   3.608   4.185  0.4567  0.4158  0.1538
  374MOL0     H49360   9.315   3.824   4.401 -1.2893  0.0078  0.2301
  374MOL0     H49361   9.246   3.663   4.423 -0.6808  0.8170  0.2416
  374MOL0     H49362   9.522   3.680   4.280  0.4058 -0.3453  0.5891
  374MOL0     H49363   9.437   3.552   4.353 -2.9322  0.6989 -2.7027
  374MOL0     H49364   9.625   3.633   4.483  0.6169  0.9670  0.3244
  374MOL0     H49365   9.554   3.788   4.497 -1.3874 -0.4787 -2.8619
  374MOL0     H49366   9.350   3.562   4.806 -4.9450  3.5561 -1.6169
  374MOL0     H49367   9.131   3.504   4.372  0.5921 -2.5593 -0.6054
  374MOL0     H49368   8.938   3.380   4.408 -0.1882  1.0064  3.4711
  375MOL0     O49369  10.022   6.728   0.713  0.2574  0.0188  0.2770
  375MOL0     C49370  10.002   6.848   0.722 -0.1627  0.9517  0.0997
  375MOL0     O49371   9.919   6.907   0.812 -0.5139 -0.3306  0.4879
  375MOL0     C49372   9.831   6.847   0.892  0.6638 -0.2413 -0.3479
  375MOL0     C49373   9.787   6.714   0.884  0.8267  1.2095  0.2333
  375MOL0     C49374   9.681   6.656   0.961  0.0839  0.8821 -0.4549
  375MOL0     C49375   9.610   6.732   1.057 -1.1849  0.1843 -0.0138
  375MOL0     O49376   9.507   6.677   1.118  0.9149 -0.5884 -0.8917
  375MOL0     C49377   9.435   6.776   1.208 -0.3836 -0.8794  0.1902
  375MOL0     C49378   9.296   6.718   1.209 -0.6181 -0.2442 -1.3030
  375MOL0     C49379   9.214   6.798   1.311  0.7852 -0.2217 -0.2871
  375MOL0     C49380   9.084   6.718   1.343 -0.2922 -0.8435  0.2636
  375MOL0     C49381   8.974   6.806   1.398  0.2360 -0.8831 -0.2189
  375MOL0     C49382   9.013   6.879   1.529 -0.9893  0.5609  0.1608
  375MOL0     C49383   8.891   6.925   1.618  0.3601 -0.9808  0.2738
  375MOL0     C49384   8.823   6.800   1.678 -0.2288 -0.4357  0.3433
  375MOL0     N49385   8.717   6.839   1.777  0.3148 -0.0772 -0.2383
  375MOL0     C49386   8.657   6.753   1.871  0.8210 -0.4551 -0.0357
  375MOL0     C49387   8.548   6.818   1.909 -0.1019  0.0757  0.0325
  375MOL0     C49388   8.455   6.773   2.016  0.3337 -0.0909 -0.5312
  375MOL0     C49389   8.335   6.685   1.973  0.3360  0.4347  0.0112
  375MOL0     C49390   8.232   6.753   1.886 -0.0176 -0.3962  0.0368
  375MOL0     C49391   8.178   6.891   1.947 -0.1609  0.0276  0.0639
  375MOL0     O49392   8.121   6.887   2.077 -0.2714  0.3636  0.5987
  375MOL0     C49393   7.987   6.847   2.084 -1.1098  0.0831  0.6635
  375MOL0     C49394   7.911   6.779   1.982 -0.1404 -0.3210  0.3153
  375MOL0     C49395   7.780   6.748   2.000  0.3286 -0.9182  0.3047
  375MOL0     C49396   7.724   6.757   2.131  0.5441 -0.8404 -0.1112
  375MOL0     C49397   7.582   6.722   2.162  0.2541  0.4073  0.0314
  375MOL0     O49398   7.520   6.661   2.058  0.2909  0.1924  0.6169
  375MOL0     C49399   7.384   6.627   2.057  0.7258 -0.1544  0.4897
  375MOL0     C49400   7.344   6.505   2.008  0.3304 -1.2495  0.6792
  375MOL0     C49401   7.210   6.476   1.993 -0.0221  0.0490 -0.5749
  375MOL0     C49402   7.113   6.570   2.023  0.6321  0.3478 -0.7395
  375MOL0     O49403   6.968   6.556   2.012 -1.3473  0.3814  0.7954
  375MOL0     C49404   6.911   6.431   2.000 -0.5392 -1.0873 -0.7580
  375MOL0     C49405   6.777   6.432   2.073  0.1390 -0.5584 -0.2906
  375MOL0     C49406   6.710   6.296   2.051  0.9214  0.9084  0.7587
  375MOL0     C49407   6.567   6.292   2.093  0.8322  0.6524 -0.1443
  375MOL0     C49408   6.516   6.144   2.067 -0.2425 -0.2790  0.1504
  375MOL0     C49409   6.367   6.145   2.104 -0.3346 -0.3505 -0.1771
  375MOL0     C49410   6.306   6.010   2.076  0.7892  0.3617 -0.2310
  375MOL0     C49411   6.194   5.982   2.180 -0.4577  0.2982 -0.9236
  375MOL0    Cl49412   6.068   6.112   2.155 -0.2861  0.2590  0.2121
  375MOL0     C49413   7.153   6.701   2.052  0.2787 -0.0665 -0.1555
  375MOL0     C49414   7.287   6.728   2.078  0.5766 -0.2096  0.8812
  375MOL0     O49415   7.537   6.731   2.279  0.2931  0.0721  0.3496
  375MOL0     C49416   7.800   6.821   2.234 -0.4223  0.0034 -0.0895
  375MOL0     C49417   7.931   6.872   2.204  0.3408  0.3293  1.0171
  375MOL0     N49418   8.539   6.932   1.827 -0.3913 -0.4570 -0.4959
  375MOL0     N49419   8.645   6.946   1.763 -0.7256  0.1857  0.5277
  375MOL0     C49420   9.653   6.867   1.069  0.1925 -0.1760  0.2363
  375MOL0     C49421   9.763   6.920   0.995 -0.9684  0.7180  0.6022
  375MOL0     C49422  10.089   6.941   0.648  0.1816 -0.1649 -0.0206
  375MOL0     C49423  10.048   7.068   0.631 -0.5671 -1.2905 -0.1170
  375MOL0     C49424  10.130   7.162   0.575 -0.1434  0.0988  0.0127
  375MOL0     C49425  10.258   7.129   0.536 -0.7190 -0.9739 -0.3240
  375MOL0     O49426  10.345   7.232   0.508  0.2364 -0.2629 -0.7470
  375MOL0     C49427  10.462   7.200   0.422  0.5814 -0.0270  0.3547
  375MOL0     C49428  10.421   7.154   0.286  0.2434  0.5058 -0.0278
  375MOL0     C49429  10.516   7.048   0.236  0.4994 -0.1563  0.1539
  375MOL0     C49430  10.667   7.086   0.246 -0.1196 -0.1442 -0.4498
  375MOL0     C49431  10.709   7.212   0.187  0.0279  0.3255 -0.5552
  375MOL0     C49432  10.751   7.315   0.134 -0.1658  0.2731  0.0204
  375MOL0     C49433  10.296   6.995   0.549 -1.0512 -0.1435 -0.4372
  375MOL0     C49434  10.217   6.900   0.605  0.2538  0.6592 -0.0201
  375MOL0     H49435   9.830   6.652   0.806 -0.1937  2.5072 -1.4304
  375MOL0     H49436   9.661   6.550   0.948 -2.3482  1.2120  0.1746
  375MOL0     H49437   9.439   6.878   1.168  1.8438 -1.7062 -1.9746
  375MOL0     H49438   9.477   6.777   1.309  0.0278  1.9673  0.0751
  375MOL0     H49439   9.305   6.618   1.251 -0.3131 -0.9625 -3.0318
  375MOL0     H49440   9.252   6.716   1.109 -0.9526 -0.1666 -1.1589
  375MOL0     H49441   9.194   6.899   1.275  2.3808  0.5177  0.7653
  375MOL0     H49442   9.271   6.814   1.403 -1.7661 -0.4086  1.4301
  375MOL0     H49443   9.048   6.688   1.244 -0.4539 -0.1849  0.1187
  375MOL0     H49444   9.114   6.626   1.394  1.6069 -1.2278 -1.3860
  375MOL0     H49445   8.889   6.739   1.407  0.9954 -1.6942  1.3619
  375MOL0     H49446   8.943   6.888   1.332  4.4896  1.4051  0.2285
  375MOL0     H49447   9.077   6.966   1.509  1.5449 -1.4399 -0.9425
  375MOL0     H49448   9.081   6.810   1.580  1.2174  1.4818 -1.4051
  375MOL0     H49449   8.933   6.991   1.694 -1.1256  1.7483 -1.1127
  375MOL0     H49450   8.824   6.982   1.552 -2.2124 -2.7643  1.1830
  375MOL0     H49451   8.891   6.729   1.725 -0.6827  0.2014  2.0075
  375MOL0     H49452   8.769   6.756   1.593  0.4619 -2.0639  0.7178
  375MOL0     H49453   8.682   6.651   1.899  0.8336 -0.5694 -0.4454
  375MOL0     H49454   8.419   6.858   2.075  1.8837 -2.1830  3.8308
  375MOL0     H49455   8.507   6.710   2.089 -0.4691 -2.0167 -1.5445
  375MOL0     H49456   8.285   6.670   2.069  0.5814 -1.0919 -0.0790
  375MOL0     H49457   8.374   6.590   1.937  0.9256 -0.1273  1.9983
  375MOL0     H49458   8.277   6.765   1.787  3.4564  1.4309  1.6319
  375MOL0     H49459   8.153   6.679   1.873  1.8209 -2.5507  0.5758
  375MOL0     H49460   8.120   6.943   1.871  2.6515  4.5105  0.6054
  375MOL0     H49461   8.267   6.953   1.959  1.1711 -1.8097  0.1701
  375MOL0     H49462   7.958   6.747   1.890 -1.2433  0.0951 -0.4167
  375MOL0     H49463   7.720   6.715   1.916 -2.1813  0.7139  1.3425
  375MOL0     H49464   7.424   6.431   2.002  0.8196 -0.7082  0.3992
  375MOL0     H49465   7.171   6.377   1.971  2.7245 -2.1748  3.3398
  375MOL0     H49466   6.978   6.355   2.042  0.7729  0.5665  0.2609
  375MOL0     H49467   6.901   6.404   1.895 -1.8104  0.2793 -1.0271
  375MOL0     H49468   6.716   6.518   2.047  2.0870  1.2325  0.6833
  375MOL0     H49469   6.805   6.436   2.179 -0.8823  3.1046 -0.0530
  375MOL0     H49470   6.762   6.214   2.102  1.7197 -0.7261 -2.4386
  375MOL0     H49471   6.701   6.274   1.945  1.5601 -1.1613  1.0856
  375MOL0     H49472   6.557   6.318   2.199  1.7559 -0.4776  0.2422
  375MOL0     H49473   6.509   6.363   2.034  0.4098 -0.5053 -1.1662
  375MOL0     H49474   6.561   6.071   2.135 -0.1182 -0.1521  0.2040
  375MOL0     H49475   6.534   6.126   1.961 -0.8483  2.0654 -0.4075
  375MOL0     H49476   6.312   6.227   2.058  0.7392  1.3327  1.3754
  375MOL0     H49477   6.380   6.163   2.212  0.2619  1.2116 -0.4825
  375MOL0     H49478   6.261   6.003   1.976  0.5696 -1.2773 -0.0513
  375MOL0     H49479   6.383   5.932   2.079  0.4877  0.0617  2.9692
  375MOL0     H49480   6.234   5.983   2.282 -1.8107 -1.0885 -0.3457
  375MOL0     H49481   6.149   5.884   2.162  2.0085 -1.5859  2.0951
  375MOL0     H49482   7.079   6.781   2.057 -0.2081 -0.5039 -0.2772
  375MOL0     H49483   7.330   6.826   2.097  2.0412 -0.5089 -0.6020
  375MOL0     H49484   7.747   6.850   2.325  0.2713  3.4244 -0.6171
  375MOL0     H49485   7.986   6.922   2.283  0.1966 -0.8776  1.9074
  375MOL0     H49486   9.610   6.944   1.133 -0.8132  2.2418 -3.0443
  375MOL0     H49487   9.792   7.022   1.016  0.2057  0.4044  0.6072
  375MOL0     H49488   9.947   7.102   0.652 -0.3014 -0.5515  0.0069
  375MOL0     H49489  10.095   7.265   0.566  0.4103  0.5335  2.2827
  375MOL0     H49490  10.526   7.124   0.467 -0.4896 -1.3692 -0.2836
  375MOL0     H49491  10.525   7.289   0.419  1.7916 -0.6959  3.0652
  375MOL0     H49492  10.318   7.119   0.275 -0.1782  1.8654 -0.4929
  375MOL0     H49493  10.446   7.238   0.221  3.3215 -1.2170 -1.3202
  375MOL0     H49494  10.490   7.019   0.134  1.6650 -1.6970  0.2516
  375MOL0     H49495  10.489   6.961   0.297  0.7769 -0.2416  0.1601
  375MOL0     H49496  10.697   7.085   0.351  1.2781  0.2997 -0.8191
  375MOL0     H49497  10.720   7.000   0.203 -1.6773 -1.3999  0.0587
  375MOL0     H49498  10.790   7.407   0.097 -1.2362  0.8668  0.3219
  375MOL0     H49499  10.389   6.953   0.511 -0.7587 -0.5083  0.6477
  375MOL0     H49500  10.246   6.796   0.613 -1.6873  0.2025  2.2388
  376MOL0     O49501   1.618   7.045   9.458 -0.7261  0.1330 -0.1955
  376MOL0     C49502   1.621   7.161   9.499 -0.5921  0.4876 -0.9545
  376MOL0     O49503   1.515   7.234   9.547 -0.1975 -0.1555 -0.1906
  376MOL0     C49504   1.401   7.164   9.585 -0.7191 -0.7643  0.1962
  376MOL0     C49505   1.320   7.113   9.484 -0.5136  0.1294 -0.2057
  376MOL0     C49506   1.201   7.044   9.517 -0.5445  0.0311 -0.2022
  376MOL0     C49507   1.164   7.013   9.646 -0.7045  0.9337  0.0004
  376MOL0     O49508   1.063   6.934   9.680  0.4327 -0.2622  0.1223
  376MOL0     C49509   0.996   6.856   9.582 -0.5362  0.1249  1.1840
  376MOL0     C49510   0.879   6.781   9.639 -0.3807  0.0899 -0.0067
  376MOL0     C49511   0.789   6.875   9.718 -0.3651 -0.2620  0.7150
  376MOL0     C49512   0.661   6.805   9.773 -0.6381  0.0779 -0.2676
  376MOL0     C49513   0.565   6.907   9.834  0.9324 -0.4071  0.3569
  376MOL0     C49514   0.443   6.853   9.906 -1.1566  0.1402  0.0859
  376MOL0     C49515   0.367   6.974   9.974 -0.6146 -0.4098  0.2547
  376MOL0     C49516   0.279   7.045   9.874 -0.1290 -1.1886 -0.2628
  376MOL0     N49517   0.168   7.118   9.931 -0.4737 -0.0721  0.5982
  376MOL0     C49518   0.121   7.119  10.060 -0.3669 -0.1205  0.6584
  376MOL0     C49519   0.008   7.188  10.059  0.7050  0.2299 -0.2997
  376MOL0     C49520  -0.066   7.235  10.180  0.4873 -0.1259 -0.1017
  376MOL0     C49521  -0.211   7.175  10.190 -0.5596 -1.0181  0.1523
  376MOL0     C49522  -0.321   7.242  10.097 -0.2199  0.0929  0.7239
  376MOL0     C49523  -0.470   7.203  10.123 -0.0174  0.4555  0.5530
  376MOL0     O49524  -0.547   7.275  10.022 -0.2886 -0.1840 -0.7280
  376MOL0     C49525  -0.679   7.274  10.008  0.0028  0.7931  0.7092
  376MOL0     C49526  -0.767   7.269  10.114  0.4617  1.1764  0.6014
  376MOL0     C49527  -0.907   7.270  10.087 -0.5015 -0.7480 -0.4824
  376MOL0     C49528  -0.961   7.261   9.965  0.1547 -0.6278  0.0324
  376MOL0     C49529  -1.101   7.263   9.958 -0.6014  0.2639  0.1486
  376MOL0     O49530  -1.178   7.335  10.048 -0.0914 -0.1961 -0.2435
  376MOL0     C49531  -1.299   7.273  10.092 -0.1887  0.6157  0.1646
  376MOL0     C49532  -1.393   7.351  10.164 -0.1570 -0.5134 -0.7122
  376MOL0     C49533  -1.500   7.301  10.235 -0.9431  0.2024  0.2951
  376MOL0     C49534  -1.536   7.167  10.210  0.7400  0.8906 -0.3789
  376MOL0     O49535  -1.647   7.107  10.269  0.4166  0.6469 -0.0314
  376MOL0     C49536  -1.625   6.983  10.347 -0.0980 -0.5896  0.1469
  376MOL0     C49537  -1.634   7.023  10.493 -0.4549  0.5536  0.3323
  376MOL0     C49538  -1.555   6.919  10.576  0.9858  0.5412 -0.8693
  376MOL0     C49539  -1.567   6.960  10.726  0.1608  0.3281  0.2388
  376MOL0     C49540  -1.466   6.874  10.800  0.5925 -0.3381  0.2556
  376MOL0     C49541  -1.476   6.883  10.955  0.8851  0.0056  0.9838
  376MOL0     C49542  -1.352   6.820  11.016  1.0442 -0.0137  0.1437
  376MOL0     C49543  -1.249   6.921  11.068 -0.4081 -0.6524  0.0642
  376MOL0    Cl49544  -1.086   6.847  11.086  0.3066 -0.6024  0.5215
  376MOL0     C49545  -1.462   7.092  10.114  0.4845  1.2472 -1.0910
  376MOL0     C49546  -1.344   7.146  10.060  0.2193  0.4492 -1.2097
  376MOL0     O49547  -1.146   7.211   9.855  0.4347 -0.4406  0.0809
  376MOL0     C49548  -0.868   7.273   9.862  0.6981  0.8520 -0.7268
  376MOL0     C49549  -0.728   7.265   9.881 -0.0844  0.0313  0.9828
  376MOL0     N49550  -0.018   7.228   9.925 -0.0036  0.7278 -1.2435
  376MOL0     N49551   0.079   7.181   9.851 -0.4500 -0.4572 -0.2801
  376MOL0     C49552   1.246   7.063   9.744  0.5727  0.0612 -0.4094
  376MOL0     C49553   1.354   7.143   9.718  0.6402  0.5622 -0.0604
  376MOL0     C49554   1.749   7.230   9.470 -0.3713  0.7001 -0.3143
  376MOL0     C49555   1.795   7.323   9.562 -0.2114 -0.3275 -0.0200
  376MOL0     C49556   1.912   7.389   9.530  0.1135  0.3424  0.7970
  376MOL0     C49557   1.997   7.346   9.427  0.0532  0.0034 -1.2176
  376MOL0     O49558   2.119   7.405   9.407  0.1751  0.3709  0.9252
  376MOL0     C49559   2.190   7.482   9.511 -0.0749 -0.2505  0.0585
  376MOL0     C49560   2.160   7.631   9.500  0.2652 -0.2209  0.1857
  376MOL0     C49561   2.185   7.677   9.357  0.2240  0.7186 -0.2431
  376MOL0     C49562   2.325   7.652   9.296  0.6350  0.3651  0.4969
  376MOL0     C49563   2.426   7.726   9.373  0.5420  0.6775 -0.0458
  376MOL0     C49564   2.522   7.750   9.436 -0.8768  0.8976 -0.8462
  376MOL0     C49565   1.950   7.259   9.333 -0.1663  0.4754  0.2786
  376MOL0     C49566   1.825   7.204   9.350  0.4267  0.2094 -0.2831
  376MOL0     H49567   1.343   7.129   9.379 -2.0083 -0.2172 -0.6090
  376MOL0     H49568   1.134   7.008   9.439  0.4482 -0.4936 -0.8253
  376MOL0     H49569   1.059   6.784   9.529  2.2571  1.8347  1.9615
  376MOL0     H49570   0.951   6.928   9.513  2.1846  0.9204  0.1099
  376MOL0     H49571   0.920   6.706   9.708  0.1255 -0.5689 -1.0030
  376MOL0     H49572   0.821   6.731   9.560  0.3355 -3.8915  1.7220
  376MOL0     H49573   0.762   6.961   9.655  0.7749 -0.3147  0.1324
  376MOL0     H49574   0.842   6.914   9.805 -2.5052 -2.7873  3.3221
  376MOL0     H49575   0.613   6.756   9.687 -1.4452  3.2628 -1.7828
  376MOL0     H49576   0.687   6.733   9.851 -0.5318 -1.6151 -1.7823
  376MOL0     H49577   0.531   6.968   9.750 -0.0582 -1.2961  0.0972
  376MOL0     H49578   0.629   6.976   9.890  1.8238 -0.4074 -0.6283
  376MOL0     H49579   0.491   6.783   9.975  1.7862  2.3608  0.5469
  376MOL0     H49580   0.382   6.801   9.832  0.6962 -0.0088 -1.4004
  376MOL0     H49581   0.304   6.921  10.046 -0.6621 -3.9086 -2.1706
  376MOL0     H49582   0.430   7.048  10.025  1.7423 -0.9097 -1.7392
  376MOL0     H49583   0.234   6.973   9.805 -1.2164  0.8862 -1.8250
  376MOL0     H49584   0.332   7.115   9.809  1.1728 -1.7712  0.1303
  376MOL0     H49585   0.172   7.081  10.148  1.0520 -1.6795 -0.7640
  376MOL0     H49586  -0.078   7.344  10.174  0.0231 -0.1902 -0.3605
  376MOL0     H49587  -0.009   7.202  10.268  0.2104 -2.0559 -0.6115
  376MOL0     H49588  -0.253   7.184  10.291 -1.2143 -2.0557 -0.0035
  376MOL0     H49589  -0.196   7.068  10.173 -1.4414 -1.3258  1.1800
  376MOL0     H49590  -0.318   7.352  10.099 -1.7207  0.1768 -0.3887
  376MOL0     H49591  -0.304   7.225   9.990 -2.9922 -1.7429  0.4750
  376MOL0     H49592  -0.497   7.246  10.220 -0.3387  0.7746  0.3226
  376MOL0     H49593  -0.481   7.095  10.131 -1.2293  0.3711 -1.5353
  376MOL0     H49594  -0.726   7.262  10.214  4.7203  1.1883 -0.9044
  376MOL0     H49595  -0.977   7.273  10.170  2.0187  0.0395  1.7599
  376MOL0     H49596  -1.368   7.456  10.165 -0.6086 -0.4044 -0.1198
  376MOL0     H49597  -1.561   7.354  10.307  0.2888  0.6754  1.0179
  376MOL0     H49598  -1.528   6.940  10.323  0.0063 -1.2876  1.7037
  376MOL0     H49599  -1.701   6.910  10.319  0.0827 -0.1248 -1.6574
  376MOL0     H49600  -1.739   7.022  10.524  0.3527  0.9103  3.4004
  376MOL0     H49601  -1.604   7.126  10.513  0.6991  0.5165 -1.0431
  376MOL0     H49602  -1.449   6.924  10.547  0.7882  3.8514 -1.4375
  376MOL0     H49603  -1.609   6.826  10.556  0.8629  0.7352 -1.4469
  376MOL0     H49604  -1.558   7.067  10.748 -3.3731  1.1549 -1.5387
  376MOL0     H49605  -1.671   6.943  10.755 -0.1663  1.3569 -0.2645
  376MOL0     H49606  -1.368   6.898  10.758 -0.6251 -0.3069 -2.8405
  376MOL0     H49607  -1.491   6.777  10.757 -1.0616  0.2905 -0.2806
  376MOL0     H49608  -1.562   6.818  10.975 -1.4702  1.4712 -3.1267
  376MOL0     H49609  -1.494   6.984  10.994  0.1800  0.6128 -0.8085
  376MOL0     H49610  -1.376   6.768  11.110 -0.1338 -1.0617 -0.7078
  376MOL0     H49611  -1.320   6.740  10.948 -2.7874 -0.1633 -1.7500
  376MOL0     H49612  -1.285   6.950  11.167 -1.1745 -0.1472 -0.3523
  376MOL0     H49613  -1.238   7.007  11.001  0.2710 -0.9839 -0.2613
  376MOL0     H49614  -1.490   6.991  10.085  1.5201  1.4012 -2.7759
  376MOL0     H49615  -1.287   7.077   9.999  0.3233 -0.0559 -0.5573
  376MOL0     H49616  -0.896   7.276   9.757  1.5534  1.2643 -0.9465
  376MOL0     H49617  -0.655   7.271   9.801 -1.1154  1.5499  0.1059
  376MOL0     H49618   1.217   7.041   9.846 -0.6792 -3.3336 -1.3815
  376MOL0     H49619   1.413   7.185   9.799 -0.7698  0.5604  0.9998
  376MOL0     H49620   1.750   7.355   9.655 -1.3720 -2.0869  0.0604
  376MOL0     H49621   1.945   7.459   9.605  0.8943 -0.0276  0.8047
  376MOL0     H49622   2.299   7.479   9.510  0.0735  2.1530  1.9052
  376MOL0     H49623   2.158   7.447   9.610  3.1151  0.6176  1.4995
  376MOL0     H49624   2.058   7.650   9.537 -0.8682 -3.5946 -0.7951
  376MOL0     H49625   2.233   7.691   9.555 -3.1781  3.8745  0.8613
  376MOL0     H49626   2.172   7.785   9.356  1.1171  0.8332 -0.5430
  376MOL0     H49627   2.120   7.637   9.279  1.1677  0.9660 -1.1794
  376MOL0     H49628   2.338   7.544   9.292 -1.6371  0.0432  0.4200
  376MOL0     H49629   2.325   7.696   9.196 -0.4248 -1.2536 -0.2535
  376MOL0     H49630   2.610   7.765   9.496 -1.1201  0.4547 -0.3761
  376MOL0     H49631   2.008   7.228   9.246 -2.6527  0.3364 -1.4415
  376MOL0     H49632   1.784   7.137   9.275 -0.5949  0.1936  0.2719
  377MOL0     O49633   7.565   4.915   2.916 -0.0384  0.0507 -0.6134
  377MOL0     C49634   7.592   4.805   2.878  0.3651 -0.5269  0.2466
  377MOL0     O49635   7.513   4.723   2.794 -0.0522  0.0919  0.4393
  377MOL0     C49636   7.381   4.750   2.779  0.0353 -0.5953 -0.2217
  377MOL0     C49637   7.322   4.867   2.732 -0.4718  0.4135 -0.7153
  377MOL0     C49638   7.180   4.880   2.727  0.7823 -0.2762 -0.1512
  377MOL0     C49639   7.091   4.775   2.771  0.4653 -0.6209  0.0874
  377MOL0     O49640   6.957   4.800   2.784 -0.1207  0.3083 -0.2177
  377MOL0     C49641   6.890   4.892   2.692  0.4023  0.0494  0.1513
  377MOL0     C49642   6.839   5.010   2.766 -0.0820  0.3004  0.1813
  377MOL0     C49643   6.741   5.089   2.673 -0.3286  0.1772 -0.0283
  377MOL0     C49644   6.706   5.220   2.749  0.2719  1.0728  0.6015
  377MOL0     C49645   6.561   5.250   2.752 -0.3946  0.1826  0.2507
  377MOL0     C49646   6.496   5.293   2.618  0.0315 -1.0545  0.5780
  377MOL0     C49647   6.346   5.316   2.656 -0.8348 -1.0078  0.4134
  377MOL0     C49648   6.251   5.341   2.539 -0.1040 -0.9170 -0.2591
  377MOL0     N49649   6.127   5.378   2.592 -0.3303 -0.1489  0.2177
  377MOL0     C49650   6.077   5.506   2.595  0.3430 -0.1158  0.3374
  377MOL0     C49651   5.950   5.490   2.643 -0.0421 -0.3173 -0.2855
  377MOL0     C49652   5.843   5.592   2.678 -0.5884 -1.0762  0.2254
  377MOL0     C49653   5.726   5.538   2.764  0.4755 -0.6898  0.6875
  377MOL0     C49654   5.617   5.643   2.785  0.7543 -0.3565  0.1462
  377MOL0     C49655   5.477   5.584   2.812 -0.4505  0.3180 -0.0549
  377MOL0     O49656   5.393   5.676   2.886 -0.2980 -0.0846  0.4231
  377MOL0     C49657   5.276   5.621   2.941 -0.2010  0.1983  0.0869
  377MOL0     C49658   5.212   5.699   3.042  1.1466 -0.3427 -0.5058
  377MOL0     C49659   5.083   5.657   3.092  0.4352 -0.2413  0.2211
  377MOL0     C49660   5.029   5.540   3.050 -0.6200  1.6171 -0.3207
  377MOL0     C49661   4.894   5.496   3.090  0.0108  1.0274 -0.2351
  377MOL0     O49662   4.845   5.562   3.196 -0.4020  0.1278 -0.1140
  377MOL0     C49663   4.730   5.539   3.265  0.7378 -0.4269 -0.4546
  377MOL0     C49664   4.698   5.629   3.373  0.3406  0.1213 -1.0622
  377MOL0     C49665   4.595   5.600   3.463  0.5702 -0.6422  0.0865
  377MOL0     C49666   4.502   5.494   3.436 -0.0296  0.2377 -1.1917
  377MOL0     O49667   4.400   5.481   3.526  0.1472 -0.2380  0.9193
  377MOL0     C49668   4.278   5.442   3.454 -0.0649 -0.0014  0.2168
  377MOL0     C49669   4.160   5.456   3.548  0.1217 -0.6445 -0.0577
  377MOL0     C49670   4.026   5.398   3.490 -0.4916 -0.1092  0.6267
  377MOL0     C49671   3.914   5.410   3.586 -0.3151  0.5167 -0.3403
  377MOL0     C49672   3.795   5.331   3.530 -0.5094 -0.3331 -0.4830
  377MOL0     C49673   3.696   5.319   3.640 -0.1208 -0.2093  0.5158
  377MOL0     C49674   3.619   5.456   3.663 -0.4994  0.6923 -1.4326
  377MOL0     C49675   3.512   5.448   3.777  0.5677  0.1901  0.4473
  377MOL0    Cl49676   3.397   5.330   3.730  0.4015 -0.0807 -0.2276
  377MOL0     C49677   4.532   5.412   3.322  0.1857  0.9706 -0.8564
  377MOL0     C49678   4.648   5.426   3.244 -0.3369 -0.8195 -0.7295
  377MOL0     O49679   4.843   5.401   3.038 -0.5287 -0.0014  0.9014
  377MOL0     C49680   5.097   5.463   2.950 -0.0099  0.3542  0.2527
  377MOL0     C49681   5.219   5.503   2.892  0.4695  0.6637 -0.4890
  377MOL0     N49682   5.931   5.361   2.674 -0.2230 -0.3208  0.2527
  377MOL0     N49683   6.044   5.300   2.645  1.0134 -0.0329 -0.4789
  377MOL0     C49684   7.148   4.661   2.817  0.3545  0.3416  0.1579
  377MOL0     C49685   7.288   4.646   2.817  0.1353 -0.4472 -0.2117
  377MOL0     C49686   7.708   4.739   2.945  0.7115 -0.0035 -1.0918
  377MOL0     C49687   7.740   4.784   3.074  0.0590 -0.0537 -0.3220
  377MOL0     C49688   7.860   4.736   3.132  0.1368  1.2462  0.3632
  377MOL0     C49689   7.952   4.655   3.062  0.4071  0.6974  0.7293
  377MOL0     O49690   8.076   4.631   3.109  0.1906 -0.3508 -0.3460
  377MOL0     C49691   8.097   4.670   3.251  0.3947  0.8166  0.0362
  377MOL0     C49692   8.243   4.645   3.293  0.6845  0.2671 -0.5300
  377MOL0     C49693   8.247   4.666   3.449 -0.2853 -0.7467  0.0256
  377MOL0     C49694   8.377   4.596   3.497  1.1401 -0.1285  0.4543
  377MOL0     C49695   8.343   4.451   3.481 -0.4259  1.1098  0.4791
  377MOL0     C49696   8.324   4.328   3.475 -0.6210 -0.3020 -0.4947
  377MOL0     C49697   7.921   4.610   2.937  0.0749 -0.7879 -0.5468
  377MOL0     C49698   7.800   4.645   2.885  0.2745 -0.5083  0.3869
  377MOL0     H49699   7.393   4.938   2.692  1.4697 -1.8854 -1.5618
  377MOL0     H49700   7.139   4.975   2.693  1.3676  0.0214 -0.0263
  377MOL0     H49701   6.814   4.829   2.645  1.3596 -1.8760  1.0808
  377MOL0     H49702   6.948   4.934   2.610 -1.9691  1.8744 -0.7264
  377MOL0     H49703   6.914   5.081   2.800 -3.9540  4.4704  1.0388
  377MOL0     H49704   6.775   4.982   2.850  1.2854  0.0343  1.1633
  377MOL0     H49705   6.651   5.028   2.662  1.7233 -3.0942 -0.0338
  377MOL0     H49706   6.779   5.100   2.571  0.6126 -1.5250  0.1012
  377MOL0     H49707   6.727   5.210   2.856  2.0635  1.3259  0.3095
  377MOL0     H49708   6.758   5.303   2.701 -0.2541  0.4492 -1.1450
  377MOL0     H49709   6.568   5.345   2.805  0.2168  1.0500 -1.3249
  377MOL0     H49710   6.497   5.179   2.805  1.1089 -0.4860  1.2486
  377MOL0     H49711   6.505   5.216   2.541  0.0445 -0.3162 -0.1736
  377MOL0     H49712   6.546   5.381   2.576  0.9486 -1.3513  1.0232
  377MOL0     H49713   6.312   5.239   2.725 -1.5627  1.5104  3.0413
  377MOL0     H49714   6.344   5.415   2.703 -2.0892 -1.5474  1.5263
  377MOL0     H49715   6.239   5.255   2.472 -0.4518 -0.2919 -1.0033
  377MOL0     H49716   6.287   5.415   2.468 -0.1897  0.3772  0.9995
  377MOL0     H49717   6.130   5.593   2.556 -0.0826  0.9726  2.0844
  377MOL0     H49718   5.799   5.617   2.581  0.6366  0.7944  0.0940
  377MOL0     H49719   5.886   5.682   2.722 -3.0526 -0.0041  0.6273
  377MOL0     H49720   5.777   5.511   2.857  3.2299  0.0388 -0.5171
  377MOL0     H49721   5.686   5.451   2.710  0.1718 -1.3742  1.9533
  377MOL0     H49722   5.635   5.708   2.871 -2.3650  1.4100 -0.3995
  377MOL0     H49723   5.608   5.697   2.690  0.9747 -0.5513  0.0110
  377MOL0     H49724   5.504   5.508   2.885 -1.0720  0.0822 -0.0610
  377MOL0     H49725   5.426   5.545   2.724  0.9432  1.8311 -1.6020
  377MOL0     H49726   5.259   5.794   3.065 -1.4724  0.9691 -0.1807
  377MOL0     H49727   5.017   5.719   3.152 -1.9086 -0.7497 -1.6686
  377MOL0     H49728   4.755   5.722   3.369  0.1917  0.2004 -4.4873
  377MOL0     H49729   4.582   5.663   3.550  0.7311  2.0798 -1.7305
  377MOL0     H49730   4.289   5.344   3.406  1.4549 -0.5907  1.6550
  377MOL0     H49731   4.256   5.504   3.367  2.5279  0.3369 -0.2846
  377MOL0     H49732   4.146   5.561   3.575 -0.5479 -0.9060  0.6406
  377MOL0     H49733   4.184   5.400   3.640  2.8588  0.5286  0.0406
  377MOL0     H49734   4.041   5.290   3.476 -1.1564 -0.3577  1.6385
  377MOL0     H49735   4.005   5.455   3.399 -1.3017  0.1099  0.9359
  377MOL0     H49736   3.949   5.370   3.682 -0.7829  2.9101  0.9067
  377MOL0     H49737   3.890   5.516   3.595 -0.1312  0.4452  1.4101
  377MOL0     H49738   3.828   5.231   3.498 -1.3237 -0.8972  0.3916
  377MOL0     H49739   3.759   5.381   3.440  2.7233  0.0343 -1.7057
  377MOL0     H49740   3.746   5.293   3.734  0.8154 -0.9376 -0.1594
  377MOL0     H49741   3.632   5.234   3.615 -0.6955  1.2647 -3.9374
  377MOL0     H49742   3.691   5.533   3.691 -1.2493  0.4070  1.6606
  377MOL0     H49743   3.568   5.490   3.572 -1.0745 -2.8062 -2.5690
  377MOL0     H49744   3.460   5.543   3.790 -0.6816 -0.1252 -1.7251
  377MOL0     H49745   3.559   5.430   3.874  0.6259 -0.4668  0.3012
  377MOL0     H49746   4.467   5.327   3.308 -2.0915  2.2620  1.1608
  377MOL0     H49747   4.661   5.352   3.166  0.7013 -4.1210  2.2855
  377MOL0     H49748   5.043   5.374   2.922  2.9001 -1.5904  0.3117
  377MOL0     H49749   5.265   5.449   2.810  1.0941 -0.4535  0.5663
  377MOL0     H49750   7.085   4.586   2.862 -0.5659 -0.0731 -1.7300
  377MOL0     H49751   7.332   4.550   2.842  4.0478 -0.0061 -4.0997
  377MOL0     H49752   7.675   4.855   3.124  0.8642  0.9484 -0.6758
  377MOL0     H49753   7.879   4.784   3.227  0.0493  2.8267 -0.3853
  377MOL0     H49754   8.035   4.605   3.313  0.5532  1.6922  1.1526
  377MOL0     H49755   8.059   4.772   3.264 -4.7114 -0.9084  1.2494
  377MOL0     H49756   8.273   4.547   3.254 -0.1575 -0.8816  1.4950
  377MOL0     H49757   8.300   4.727   3.251  0.9632  0.2309 -0.2253
  377MOL0     H49758   8.163   4.615   3.496 -1.2214 -3.2496 -3.8579
  377MOL0     H49759   8.248   4.774   3.470 -1.2242 -0.4364 -1.3593
  377MOL0     H49760   8.466   4.624   3.440  0.4456 -1.2467 -1.2671
  377MOL0     H49761   8.407   4.635   3.594  1.7981 -1.1103  0.6603
  377MOL0     H49762   8.311   4.222   3.487  3.9908 -0.7658  2.9835
  377MOL0     H49763   7.979   4.533   2.887  0.0828 -0.7969 -0.5240
  377MOL0     H49764   7.773   4.595   2.792 -2.1883 -0.1576  0.8344
  378MOL0     O49765   1.380  11.229   3.473 -0.6035  0.3158 -0.4394
  378MOL0     C49766   1.475  11.277   3.534  0.0564  0.3022 -0.2224
  378MOL0     O49767   1.493  11.276   3.673 -0.2756  0.2924 -0.6322
  378MOL0     C49768   1.395  11.204   3.740  0.3820 -0.4884  0.4341
  378MOL0     C49769   1.269  11.264   3.756  0.7350 -0.1048 -1.4330
  378MOL0     C49770   1.176  11.199   3.836 -0.3138  0.0743  0.0761
  378MOL0     C49771   1.197  11.082   3.904 -0.7297  0.3306 -0.5825
  378MOL0     O49772   1.122  11.009   3.990  0.6279  0.4577  0.0674
  378MOL0     C49773   0.996  11.059   4.021 -0.1986  1.6474 -0.5728
  378MOL0     C49774   0.926  10.927   4.071 -0.2530 -1.3703 -0.2913
  378MOL0     C49775   0.781  10.970   4.120 -0.3150  0.7430 -0.5536
  378MOL0     C49776   0.785  11.050   4.253 -0.2215 -0.4185 -0.2248
  378MOL0     C49777   0.650  11.083   4.307 -0.0259  0.3462  0.2265
  378MOL0     C49778   0.644  11.204   4.392 -0.0189  0.3469 -1.0888
  378MOL0     C49779   0.495  11.192   4.435 -0.4642 -1.2252 -0.0548
  378MOL0     C49780   0.469  11.314   4.533 -0.4341 -0.2954 -0.6214
  378MOL0     N49781   0.486  11.440   4.460 -0.1804  0.2674 -0.0256
  378MOL0     C49782   0.403  11.494   4.369  0.2117 -0.7722  0.0170
  378MOL0     C49783   0.456  11.612   4.324  0.1749  0.7995 -0.2913
  378MOL0     C49784   0.396  11.696   4.221 -0.2757 -0.4824  0.3934
  378MOL0     C49785   0.275  11.643   4.147  0.0126  0.3090  0.2747
  378MOL0     C49786   0.146  11.676   4.225 -0.3286 -0.4584 -0.8760
  378MOL0     C49787   0.024  11.614   4.149  0.4129  0.1528 -0.5822
  378MOL0     O49788   0.024  11.474   4.150 -0.4151  0.1022  0.0283
  378MOL0     C49789  -0.097  11.424   4.138  0.0836  0.0358  0.2277
  378MOL0     C49790  -0.128  11.312   4.214  1.0057 -0.2952 -0.3080
  378MOL0     C49791  -0.248  11.248   4.192  0.2837 -0.3174 -0.2253
  378MOL0     C49792  -0.340  11.289   4.094 -0.4331 -1.2367 -0.6758
  378MOL0     C49793  -0.476  11.231   4.080 -0.7897  0.4893 -0.8919
  378MOL0     O49794  -0.547  11.269   3.963  0.3535 -0.2183 -0.7333
  378MOL0     C49795  -0.678  11.233   3.976  0.1211  0.2742  0.1735
  378MOL0     C49796  -0.731  11.100   3.962 -0.6832 -0.4236  0.5189
  378MOL0     C49797  -0.867  11.085   3.943 -0.4455 -0.1389 -0.3269
  378MOL0     C49798  -0.961  11.185   3.955 -0.4112 -0.0268  0.2213
  378MOL0     O49799  -1.087  11.166   3.914  0.1140  0.0326  0.0904
  378MOL0     C49800  -1.189  11.255   3.965  0.1043 -0.6125 -0.2706
  378MOL0     C49801  -1.321  11.213   3.916  0.2368  0.8967 -0.1068
  378MOL0     C49802  -1.430  11.317   3.939 -1.3237  0.8134 -0.1797
  378MOL0     C49803  -1.559  11.262   3.888  0.1198 -1.2104 -1.2529
  378MOL0     C49804  -1.667  11.358   3.944 -0.3469  0.4464 -0.5337
  378MOL0     C49805  -1.660  11.499   3.894  0.2101  0.4862  0.7319
  378MOL0     C49806  -1.693  11.508   3.737  0.4376  0.8732  0.0232
  378MOL0     C49807  -1.723  11.651   3.696  0.3893 -0.0149  0.4639
  378MOL0    Cl49808  -1.757  11.661   3.521 -0.5667 -0.5550 -0.7160
  378MOL0     C49809  -0.910  11.314   3.992  0.7651  0.2743  0.1228
  378MOL0     C49810  -0.767  11.333   3.995  0.4743  0.7092 -0.2628
  378MOL0     O49811  -0.525  11.172   4.173 -0.3899 -0.0742 -0.3564
  378MOL0     C49812  -0.308  11.410   4.023  0.5460 -0.6335  0.5410
  378MOL0     C49813  -0.181  11.467   4.034 -0.0261 -0.0452 -0.5424
  378MOL0     N49814   0.578  11.621   4.396  0.4074 -0.8325  0.5685
  378MOL0     N49815   0.594  11.520   4.479  0.1687  0.5991  0.0879
  378MOL0     C49816   1.326  11.041   3.904 -0.4307  0.4981 -0.2301
  378MOL0     C49817   1.424  11.094   3.822 -0.4024 -0.4583  0.8039
  378MOL0     C49818   1.574  11.345   3.456  0.6316  0.5679 -0.5408
  378MOL0     C49819   1.708  11.358   3.503 -0.0513  0.2312 -1.2457
  378MOL0     C49820   1.797  11.431   3.429 -0.2698  0.1179 -0.9605
  378MOL0     C49821   1.768  11.485   3.311  0.0435 -0.2332 -0.3241
  378MOL0     O49822   1.863  11.553   3.236  0.5108  0.2905  0.2847
  378MOL0     C49823   1.957  11.641   3.306 -1.7008 -0.4963  0.0012
  378MOL0     C49824   2.025  11.741   3.201 -0.0435  0.6098 -0.1721
  378MOL0     C49825   2.172  11.728   3.221 -1.1833 -0.4467 -0.0498
  378MOL0     C49826   2.258  11.802   3.121 -0.3245  0.3788 -0.7044
  378MOL0     C49827   2.390  11.827   3.184  0.6934  0.1061 -0.0548
  378MOL0     C49828   2.501  11.840   3.231 -0.2825 -0.5377  0.8870
  378MOL0     C49829   1.644  11.457   3.252  0.0217  0.0959  0.4874
  378MOL0     C49830   1.545  11.397   3.323  0.0654  0.2430 -0.8193
  378MOL0     H49831   1.255  11.368   3.729  0.5145  0.8046  1.8194
  378MOL0     H49832   1.074  11.233   3.855 -0.1710 -0.2629  1.5770
  378MOL0     H49833   0.938  11.084   3.931  0.9332 -1.4458 -2.3056
  378MOL0     H49834   1.006  11.141   4.093 -0.6643 -0.1619  1.6579
  378MOL0     H49835   0.981  10.883   4.155  1.2920 -0.3865 -0.7426
  378MOL0     H49836   0.910  10.850   3.996  1.9788  2.6257 -5.5945
  378MOL0     H49837   0.722  10.880   4.138 -2.5165  2.3153  0.4384
  378MOL0     H49838   0.732  11.021   4.036  1.9308  0.0778 -2.3895
  378MOL0     H49839   0.835  11.000   4.337 -1.3564 -1.4131 -0.1156
  378MOL0     H49840   0.836  11.142   4.224 -1.9356  1.3531  2.0221
  378MOL0     H49841   0.621  10.997   4.369 -0.9774  0.0554 -0.5948
  378MOL0     H49842   0.578  11.101   4.227 -0.4609  0.2197  0.5874
  378MOL0     H49843   0.657  11.296   4.334 -0.2366  2.5862  2.1516
  378MOL0     H49844   0.706  11.214   4.481 -0.0529 -0.5008 -0.9597
  378MOL0     H49845   0.428  11.211   4.350 -0.0820  1.6446  0.1956
  378MOL0     H49846   0.465  11.095   4.475 -0.0214 -0.9359  1.0204
  378MOL0     H49847   0.550  11.313   4.608 -0.2352 -1.7220 -0.8200
  378MOL0     H49848   0.370  11.311   4.579  0.1392 -0.8485  0.6289
  378MOL0     H49849   0.307  11.454   4.337  0.4201  1.1912 -3.6694
  378MOL0     H49850   0.475  11.716   4.148  0.3134 -0.1987  1.0975
  378MOL0     H49851   0.377  11.791   4.270  2.4435 -0.8841  2.4682
  378MOL0     H49852   0.287  11.536   4.126  1.7221  0.0307  2.2689
  378MOL0     H49853   0.270  11.689   4.048  3.8410  1.7542  0.5632
  378MOL0     H49854   0.148  11.640   4.328 -2.8586 -1.6308 -1.1828
  378MOL0     H49855   0.137  11.785   4.223  0.4247 -0.3597 -3.3909
  378MOL0     H49856   0.019  11.643   4.043 -3.0977 -1.1026 -0.9056
  378MOL0     H49857  -0.069  11.645   4.197  2.2276  1.6198  2.2240
  378MOL0     H49858  -0.055  11.269   4.281 -1.1824 -3.2425  0.4112
  378MOL0     H49859  -0.265  11.171   4.266  0.1480  0.6619  0.7829
  378MOL0     H49860  -0.656  11.022   3.963  0.8711  0.9898 -0.9514
  378MOL0     H49861  -0.904  10.989   3.909  3.2306 -1.6567 -0.4278
  378MOL0     H49862  -1.158  11.351   3.922  1.4851 -1.8923 -2.3345
  378MOL0     H49863  -1.183  11.269   4.074  1.1082 -0.1880 -0.3591
  378MOL0     H49864  -1.345  11.120   3.969  0.6729  0.0080 -1.3984
  378MOL0     H49865  -1.323  11.194   3.808 -0.7213 -1.7125  0.2946
  378MOL0     H49866  -1.399  11.403   3.880  0.5984 -1.5750 -2.8881
  378MOL0     H49867  -1.427  11.337   4.047  2.0868 -0.9576  0.1875
  378MOL0     H49868  -1.565  11.264   3.779 -0.7045  1.5237 -1.2249
  378MOL0     H49869  -1.574  11.165   3.937  1.6605 -1.3720 -1.0499
  378MOL0     H49870  -1.662  11.346   4.052 -3.6606  2.6608 -0.0009
  378MOL0     H49871  -1.764  11.319   3.912 -1.5647  2.6461  0.3294
  378MOL0     H49872  -1.561  11.546   3.904  0.1060  1.2641 -1.3576
  378MOL0     H49873  -1.731  11.554   3.957 -1.4325 -3.0834  2.2176
  378MOL0     H49874  -1.612  11.460   3.682  0.4330  0.0274  0.7328
  378MOL0     H49875  -1.782  11.446   3.722  0.3346  1.2090 -0.8204
  378MOL0     H49876  -1.631  11.706   3.716  0.3709 -0.5464  2.1676
  378MOL0     H49877  -1.812  11.687   3.749 -2.8755 -3.0505 -2.4224
  378MOL0     H49878  -0.965  11.407   3.989 -0.4094 -0.4362 -1.5615
  378MOL0     H49879  -0.725  11.431   4.018 -0.3333  1.3784 -1.4869
  378MOL0     H49880  -0.365  11.451   3.940 -1.9476 -0.6972  2.0969
  378MOL0     H49881  -0.152  11.545   3.964  3.9913 -0.4615  0.4239
  378MOL0     H49882   1.354  10.958   3.968  0.1239  0.3959 -0.5952
  378MOL0     H49883   1.524  11.052   3.829 -0.7356 -1.5451 -0.4379
  378MOL0     H49884   1.731  11.311   3.598 -0.9687 -0.2241 -1.2339
  378MOL0     H49885   1.901  11.445   3.457  0.0911  0.9830 -2.6554
  378MOL0     H49886   2.033  11.565   3.326 -3.4788 -2.0479  1.2183
  378MOL0     H49887   1.926  11.691   3.398 -1.8578 -0.1194 -0.2530
  378MOL0     H49888   1.985  11.705   3.106 -1.1769 -1.0820  0.8665
  378MOL0     H49889   1.981  11.838   3.227 -0.9350 -0.6413  3.8481
  378MOL0     H49890   2.216  11.628   3.226 -1.9321 -0.7396  1.0591
  378MOL0     H49891   2.173  11.769   3.323 -1.7437 -2.6698  0.9124
  378MOL0     H49892   2.262  11.744   3.028  2.9983 -2.2221  0.8463
  378MOL0     H49893   2.219  11.900   3.093 -1.3659  0.2464  0.2318
  378MOL0     H49894   2.601  11.834   3.270  0.3036  0.1922 -0.4291
  378MOL0     H49895   1.626  11.507   3.158  2.3512  0.3606  0.1102
  378MOL0     H49896   1.445  11.398   3.282  1.0067  1.6120 -3.3831
  379MOL0     O49897   5.583  11.281   5.504  0.0413 -0.0338  0.1965
  379MOL0     C49898   5.691  11.218   5.472 -0.2146  0.2140 -0.1126
  379MOL0     O49899   5.723  11.083   5.507  1.1963 -0.6858  0.4934
  379MOL0     C49900   5.623  10.995   5.549 -0.1247 -0.5671  0.1483
  379MOL0     C49901   5.542  11.026   5.656  0.0169  0.4849  0.1277
  379MOL0     C49902   5.457  10.934   5.716  1.5372 -0.4737 -0.0139
  379MOL0     C49903   5.436  10.805   5.659  0.0960  0.0037  0.3170
  379MOL0     O49904   5.345  10.725   5.717  0.6131  0.3511 -0.0010
  379MOL0     C49905   5.366  10.584   5.712  0.1393 -0.2500 -0.0309
  379MOL0     C49906   5.270  10.540   5.606 -0.4489  0.3522 -0.2490
  379MOL0     C49907   5.126  10.577   5.643 -0.3016 -0.0903 -0.8822
  379MOL0     C49908   5.030  10.472   5.573  0.9750  0.6730  0.1224
  379MOL0     C49909   4.876  10.484   5.627 -0.1457  0.4764 -0.1637
  379MOL0     C49910   4.860  10.367   5.731 -0.6840  0.1804  0.6558
  379MOL0     C49911   4.817  10.238   5.662 -0.3927 -0.9072 -0.3745
  379MOL0     C49912   4.678  10.235   5.602  0.8298  0.3461 -0.2202
  379MOL0     N49913   4.676  10.173   5.468  0.4063 -0.0020 -0.1503
  379MOL0     C49914   4.693  10.232   5.343 -0.4329  0.4519  0.2674
  379MOL0     C49915   4.689  10.131   5.256  0.1923  0.8510  0.1810
  379MOL0     C49916   4.699  10.138   5.103  0.6054  1.2336  0.2789
  379MOL0     C49917   4.559  10.176   5.049  0.1212 -0.3176  0.2272
  379MOL0     C49918   4.514  10.110   4.922 -0.6477  0.2936 -0.1580
  379MOL0     C49919   4.503   9.958   4.929 -0.0129  0.3796 -0.2348
  379MOL0     O49920   4.442   9.910   4.803  1.6093 -0.0664  0.1439
  379MOL0     C49921   4.364   9.789   4.802  0.0272  0.1781  0.0948
  379MOL0     C49922   4.280   9.767   4.691  0.2995 -0.0760  0.6515
  379MOL0     C49923   4.208   9.653   4.675 -0.3824  0.3717  0.4330
  379MOL0     C49924   4.209   9.554   4.778  0.2804  0.0038  0.2490
  379MOL0     C49925   4.126   9.429   4.753 -0.1362 -0.2432 -0.1138
  379MOL0     O49926   4.104   9.395   4.619 -0.7265  0.2734  0.6865
  379MOL0     C49927   4.001   9.318   4.581  1.2572 -0.1335  0.6787
  379MOL0     C49928   4.023   9.196   4.508 -1.2517 -0.4588  0.5818
  379MOL0     C49929   3.930   9.110   4.465 -0.4945  0.0631 -0.0452
  379MOL0     C49930   3.795   9.151   4.483 -0.3630  0.4510 -0.0880
  379MOL0     O49931   3.689   9.067   4.455 -0.0907 -0.0320 -0.5326
  379MOL0     C49932   3.698   8.923   4.441 -0.2131 -0.9880 -0.5913
  379MOL0     C49933   3.559   8.861   4.468 -0.3151  0.0314  0.1295
  379MOL0     C49934   3.509   8.842   4.612 -0.4982  0.6129  0.2679
  379MOL0     C49935   3.473   8.975   4.673 -0.6778 -0.6126 -0.8237
  379MOL0     C49936   3.353   9.047   4.617 -0.1040 -0.1884  0.2415
  379MOL0     C49937   3.301   9.155   4.718 -0.8681 -0.5922 -0.0121
  379MOL0     C49938   3.409   9.241   4.780  0.2824  0.4663  0.2537
  379MOL0     C49939   3.335   9.365   4.817  0.7629  0.2722 -0.7577
  379MOL0    Cl49940   3.182   9.341   4.914  0.1461 -0.2591  0.2951
  379MOL0     C49941   3.763   9.283   4.535 -0.7889 -0.2363  0.5203
  379MOL0     C49942   3.866   9.365   4.592 -0.3577  0.4589 -0.2309
  379MOL0     O49943   4.085   9.361   4.848  0.1720  0.1855  0.2012
  379MOL0     C49944   4.279   9.571   4.896 -1.4048  0.0749  0.0179
  379MOL0     C49945   4.361   9.689   4.903 -0.7550 -0.0192 -0.3930
  379MOL0     N49946   4.670  10.013   5.319  0.3724  0.0655 -0.6950
  379MOL0     N49947   4.665  10.036   5.445  0.4595 -0.7663  0.3463
  379MOL0     C49948   5.510  10.781   5.536 -0.9801  0.2125  0.2043
  379MOL0     C49949   5.600  10.871   5.486 -0.2699  0.7731 -0.5695
  379MOL0     C49950   5.802  11.297   5.409  0.4914 -0.2287 -0.2656
  379MOL0     C49951   5.931  11.236   5.386 -0.0488 -0.5204 -0.3523
  379MOL0     C49952   6.039  11.318   5.345 -0.2501  0.7079 -0.9563
  379MOL0     C49953   6.016  11.453   5.309  0.1160 -0.1610 -0.2366
  379MOL0     O49954   6.116  11.527   5.253 -0.4021 -0.4163 -0.2153
  379MOL0     C49955   6.215  11.559   5.356 -1.3105 -0.2709  0.6031
  379MOL0     C49956   6.229  11.704   5.368 -0.2802 -0.0095 -0.0685
  379MOL0     C49957   6.101  11.782   5.401  0.1898  0.1842  0.0969
  379MOL0     C49958   6.060  11.760   5.549 -0.2372 -0.3663  0.1616
  379MOL0     C49959   5.917  11.790   5.571  0.3579 -1.2166 -0.0222
  379MOL0     C49960   5.799  11.799   5.601 -0.2113 -0.0690  0.1059
  379MOL0     C49961   5.889  11.505   5.319  0.0423  0.7761 -0.1661
  379MOL0     C49962   5.783  11.432   5.364  0.0476 -0.5520 -0.0925
  379MOL0     H49963   5.534  11.121   5.707 -4.5519  0.1849  0.3929
  379MOL0     H49964   5.404  10.962   5.806  0.4104  1.2599 -1.1567
  379MOL0     H49965   5.330  10.527   5.799  0.8095 -0.5510  0.0537
  379MOL0     H49966   5.470  10.558   5.688  0.2093  1.5471 -2.0039
  379MOL0     H49967   5.296  10.434   5.596  2.6830  1.0736 -0.8274
  379MOL0     H49968   5.295  10.589   5.511 -1.8752 -0.3543 -1.0226
  379MOL0     H49969   5.110  10.683   5.619 -0.3282  0.9749  3.1128
  379MOL0     H49970   5.108  10.566   5.750 -2.6296  1.3683 -1.0415
  379MOL0     H49971   5.017  10.495   5.467 -0.9846  2.4344  0.6565
  379MOL0     H49972   5.074  10.372   5.570  2.4922  1.3339 -1.5401
  379MOL0     H49973   4.798  10.465   5.552  0.4056 -2.9929 -0.0410
  379MOL0     H49974   4.854  10.582   5.669  0.1272  0.4468  0.0510
  379MOL0     H49975   4.777  10.399   5.795 -2.1737 -0.2269 -0.9710
  379MOL0     H49976   4.940  10.360   5.804  1.0450  2.5747 -0.8429
  379MOL0     H49977   4.886  10.209   5.582 -0.5639  3.2715 -2.3185
  379MOL0     H49978   4.821  10.166   5.744 -0.0051  0.5155  0.9026
  379MOL0     H49979   4.636  10.335   5.618  0.5145 -0.2361  3.5896
  379MOL0     H49980   4.609  10.176   5.664  0.4336 -0.4217 -1.3593
  379MOL0     H49981   4.699  10.336   5.315 -0.0770  0.2665 -0.3658
  379MOL0     H49982   4.735  10.041   5.067  0.0937  0.5678  1.5063
  379MOL0     H49983   4.781  10.207   5.079  1.7446  0.5525  2.0365
  379MOL0     H49984   4.574  10.284   5.039  1.0708 -0.5060 -0.5753
  379MOL0     H49985   4.480  10.159   5.122  0.3209  1.0063  0.7799
  379MOL0     H49986   4.410  10.138   4.901 -0.3515  2.8529  1.3569
  379MOL0     H49987   4.581  10.134   4.839  0.8882  2.2174  1.5436
  379MOL0     H49988   4.435   9.941   5.013  1.6718  2.0834  1.5922
  379MOL0     H49989   4.605   9.923   4.943  0.3719  1.9980  1.3945
  379MOL0     H49990   4.280   9.842   4.612  3.2680 -1.0692 -0.4355
  379MOL0     H49991   4.153   9.635   4.583  3.6433  0.9588 -2.3368
  379MOL0     H49992   4.122   9.160   4.481  0.5474  1.8063  3.4366
  379MOL0     H49993   3.959   9.018   4.415  0.1809  0.1119  0.2530
  379MOL0     H49994   3.771   8.886   4.514 -0.7460 -1.7799 -0.4472
  379MOL0     H49995   3.730   8.890   4.342 -2.5847 -1.0240 -1.4075
  379MOL0     H49996   3.561   8.759   4.428  3.1431 -2.3928  5.3544
  379MOL0     H49997   3.479   8.914   4.416 -0.6805 -2.7565 -2.4139
  379MOL0     H49998   3.590   8.800   4.673 -1.1995 -0.1649  0.6735
  379MOL0     H49999   3.421   8.777   4.611 -0.6287  0.7935 -0.7819
  379MOL0     H50000   3.454   8.961   4.780 -0.2667  2.8713 -0.1837
  379MOL0     H50001   3.562   9.038   4.672 -1.1512  0.0779 -2.5702
  379MOL0     H50002   3.274   8.976   4.593  0.3261 -1.7857  3.1877
  379MOL0     H50003   3.381   9.089   4.519  2.4981 -0.6932  0.6995
  379MOL0     H50004   3.243   9.099   4.793 -0.3828  0.4504  1.1692
  379MOL0     H50005   3.224   9.216   4.670 -0.1481 -0.5856 -1.1699
  379MOL0     H50006   3.453   9.179   4.859  3.2204  1.5065 -0.4690
  379MOL0     H50007   3.491   9.252   4.709  1.0450  0.1953  1.0649
  379MOL0     H50008   3.310   9.422   4.727  0.7621  1.8668  0.2160
  379MOL0     H50009   3.402   9.426   4.878  0.4695  0.2189 -0.3729
  379MOL0     H50010   3.660   9.311   4.552 -1.1986 -0.9158 -0.6617
  379MOL0     H50011   3.847   9.461   4.640 -2.0396 -0.4930  1.1235
  379MOL0     H50012   4.268   9.500   4.977 -5.1677  1.4483  0.9127
  379MOL0     H50013   4.419   9.688   4.995  1.6897  2.0399 -1.7592
  379MOL0     H50014   5.503  10.693   5.472 -0.5254  0.5824 -0.3581
  379MOL0     H50015   5.648  10.832   5.396 -1.5743  1.7078 -1.7251
  379MOL0     H50016   5.958  11.133   5.404  1.5135 -0.9912 -4.2858
  379MOL0     H50017   6.138  11.274   5.349 -1.2752 -1.6897  0.0117
  379MOL0     H50018   6.312  11.520   5.324  0.7632  2.4575  3.0000
  379MOL0     H50019   6.199  11.507   5.451 -2.7603  0.8687  1.0228
  379MOL0     H50020   6.308  11.720   5.441  1.6434 -1.3296 -1.7473
  379MOL0     H50021   6.274  11.740   5.275 -1.7415 -0.7351 -1.1049
  379MOL0     H50022   6.027  11.747   5.328 -0.2897  0.0521  0.6414
  379MOL0     H50023   6.125  11.888   5.386  0.4101  0.0546 -0.4983
  379MOL0     H50024   6.088  11.662   5.590  1.8912 -0.2674 -0.9290
  379MOL0     H50025   6.116  11.828   5.613 -0.3940  0.8372 -0.9521
  379MOL0     H50026   5.700  11.805   5.642  0.3319  2.1849  1.3014
  379MOL0     H50027   5.853  11.601   5.285  0.1324  0.8180 -0.1418
  379MOL0     H50028   5.689  11.487   5.364  0.9797  1.0898 -0.0817
  380MOL0     O50029   5.945   6.471   5.986 -0.1542  0.1110 -0.6293
  380MOL0     C50030   6.005   6.557   6.054  0.5450  1.2366  0.4755
  380MOL0     O50031   6.131   6.600   6.030 -0.1895  0.6643 -0.4728
  380MOL0     C50032   6.221   6.524   5.957 -0.4530  0.4236  0.4466
  380MOL0     C50033   6.226   6.383   5.968 -0.2898 -0.5896 -1.4037
  380MOL0     C50034   6.314   6.304   5.900  0.2951 -0.2019  0.9254
  380MOL0     C50035   6.387   6.368   5.800  0.4306  0.9380 -0.5792
  380MOL0     O50036   6.482   6.305   5.717  0.1827 -0.0250  0.0354
  380MOL0     C50037   6.554   6.188   5.766 -0.4481 -0.5547  0.3732
  380MOL0     C50038   6.671   6.173   5.674 -0.4032 -0.2983  0.4587
  380MOL0     C50039   6.648   6.141   5.531  0.9017  0.4752 -0.5889
  380MOL0     C50040   6.573   6.002   5.520  0.1436 -0.7080  0.0513
  380MOL0     C50041   6.538   5.971   5.379  0.3979 -0.1041 -0.2361
  380MOL0     C50042   6.474   5.831   5.379 -0.3537  0.1520  0.1192
  380MOL0     C50043   6.396   5.814   5.251 -0.3518  0.7252  0.8827
  380MOL0     C50044   6.255   5.882   5.255  0.0294  0.0077 -0.3331
  380MOL0     N50045   6.149   5.816   5.327  0.6971  0.3016 -0.2399
  380MOL0     C50046   6.118   5.818   5.463 -0.1293 -0.1091  0.7250
  380MOL0     C50047   6.024   5.726   5.477 -0.3717 -0.2916  0.1669
  380MOL0     C50048   5.973   5.666   5.604 -0.3367  0.0262 -0.2604
  380MOL0     C50049   5.825   5.681   5.639  0.1347 -0.6524  0.8453
  380MOL0     C50050   5.788   5.614   5.766 -0.4638 -0.5346  0.3098
  380MOL0     C50051   5.640   5.636   5.798 -0.4907  0.5191  0.2845
  380MOL0     O50052   5.610   5.608   5.939  0.3872 -0.3221  0.5259
  380MOL0     C50053   5.477   5.598   5.979  0.2962  1.2195 -0.2815
  380MOL0     C50054   5.448   5.566   6.114  0.6020 -0.2294  0.1532
  380MOL0     C50055   5.310   5.558   6.150  0.4589 -0.7265 -0.5863
  380MOL0     C50056   5.199   5.572   6.060 -0.0396 -0.4905  0.1784
  380MOL0     C50057   5.059   5.549   6.105 -0.7961  0.0491  0.0814
  380MOL0     O50058   4.960   5.595   6.026 -0.2361  0.7219  0.8577
  380MOL0     C50059   4.828   5.578   6.071  0.3788 -0.7510  0.5402
  380MOL0     C50060   4.752   5.463   6.060 -1.0000 -2.0833  1.0408
  380MOL0     C50061   4.619   5.464   6.103  0.5143 -0.0730  0.3934
  380MOL0     C50062   4.557   5.578   6.148 -0.2961  0.0902  0.3795
  380MOL0     O50063   4.433   5.587   6.198 -0.1208  0.5663  0.0235
  380MOL0     C50064   4.401   5.505   6.311  0.0349 -0.4601 -0.8702
  380MOL0     C50065   4.287   5.563   6.382  0.5762 -0.0087 -0.0669
  380MOL0     C50066   4.327   5.685   6.461  0.2547 -0.5026  0.2211
  380MOL0     C50067   4.214   5.765   6.533 -0.2371  0.5901 -0.3177
  380MOL0     C50068   4.128   5.655   6.609  0.4584  0.2749  0.0643
  380MOL0     C50069   4.034   5.733   6.696  0.3425 -0.7752  0.0453
  380MOL0     C50070   3.928   5.644   6.768  0.1436 -0.4664  0.5879
  380MOL0     C50071   3.817   5.732   6.847  0.3605  0.0075 -0.3988
  380MOL0    Cl50072   3.702   5.616   6.930  0.0940 -0.2618 -0.0139
  380MOL0     C50073   4.629   5.692   6.145 -1.1193  0.3197  0.0443
  380MOL0     C50074   4.762   5.700   6.104  0.9971  0.3337 -0.5377
  380MOL0     O50075   5.041   5.495   6.215  0.1516 -0.5891  0.4569
  380MOL0     C50076   5.231   5.593   5.923  0.3535 -0.4929 -0.1891
  380MOL0     C50077   5.365   5.600   5.886  0.2072 -0.3874  0.1459
  380MOL0     N50078   5.994   5.672   5.356  0.1516  0.1481  0.0902
  380MOL0     N50079   6.063   5.726   5.268 -0.6587  0.1896  0.3510
  380MOL0     C50080   6.389   6.508   5.791  0.7877 -0.7070  0.1241
  380MOL0     C50081   6.310   6.591   5.881  0.4442  0.6416  0.6983
  380MOL0     C50082   5.931   6.631   6.158  0.0803  0.5817  0.6751
  380MOL0     C50083   5.808   6.580   6.203 -0.5298 -0.4988  0.2083
  380MOL0     C50084   5.745   6.648   6.305  0.2701  0.4109 -0.1527
  380MOL0     C50085   5.781   6.773   6.365  0.2878  0.8930 -0.3535
  380MOL0     O50086   5.714   6.838   6.463 -0.0410  0.5707 -0.7315
  380MOL0     C50087   5.594   6.787   6.521  0.4268  0.3165 -0.7359
  380MOL0     C50088   5.463   6.828   6.442 -0.0754 -0.4385 -0.5281
  380MOL0     C50089   5.451   6.983   6.435  1.0393 -0.0435 -0.1283
  380MOL0     C50090   5.303   7.029   6.418 -0.4328 -0.0861  0.1150
  380MOL0     C50091   5.286   7.095   6.288  0.2603 -0.3326 -0.5296
  380MOL0     C50092   5.274   7.149   6.172  0.0923  0.2079 -0.4617
  380MOL0     C50093   5.906   6.826   6.321  0.2348  0.4974  0.6285
  380MOL0     C50094   5.976   6.752   6.225 -0.3338 -0.3047  0.1626
  380MOL0     H50095   6.169   6.327   6.042 -0.7695  0.6819 -0.7873
  380MOL0     H50096   6.314   6.199   5.929  1.3175 -0.9196 -1.4749
  380MOL0     H50097   6.486   6.102   5.771 -0.4472 -0.5358  0.7236
  380MOL0     H50098   6.601   6.200   5.864 -0.6904 -1.6699  0.6382
  380MOL0     H50099   6.734   6.088   5.704  0.4177 -1.1335 -3.1822
  380MOL0     H50100   6.730   6.265   5.681  0.0281 -0.5109 -0.2119
  380MOL0     H50101   6.742   6.106   5.487  0.4540 -1.3354 -0.1770
  380MOL0     H50102   6.602   6.226   5.479  2.2421  0.5726 -1.6949
  380MOL0     H50103   6.633   5.925   5.569  1.7540  1.6178  1.9025
  380MOL0     H50104   6.482   6.002   5.580  0.3983 -0.9700  0.4459
  380MOL0     H50105   6.633   5.965   5.325  1.1879  0.0544  1.0961
  380MOL0     H50106   6.475   6.054   5.345  0.9024 -1.0765 -4.0950
  380MOL0     H50107   6.402   5.808   5.458 -0.5240 -1.9181 -0.5875
  380MOL0     H50108   6.554   5.757   5.386 -2.0469 -1.6458  1.4711
  380MOL0     H50109   6.449   5.851   5.162 -2.8601 -0.1097 -1.1023
  380MOL0     H50110   6.376   5.707   5.241  1.3160  0.4745 -0.2978
  380MOL0     H50111   6.212   5.903   5.157  2.6632 -0.2876 -1.6249
  380MOL0     H50112   6.280   5.976   5.304  2.0825 -0.0215 -1.2475
  380MOL0     H50113   6.164   5.888   5.533  0.0954  1.8514 -1.2463
  380MOL0     H50114   6.034   5.682   5.693 -0.2274 -1.2971 -0.0681
  380MOL0     H50115   5.995   5.562   5.580  2.6386  0.6916 -0.8381
  380MOL0     H50116   5.764   5.634   5.562 -0.6069 -0.7327  1.4714
  380MOL0     H50117   5.805   5.789   5.639  1.2050 -0.3408 -2.6201
  380MOL0     H50118   5.811   5.508   5.754  1.5801 -0.2255  1.1831
  380MOL0     H50119   5.844   5.646   5.854  0.4773  1.2260 -0.8892
  380MOL0     H50120   5.593   5.568   5.726  0.2524  1.1944 -0.8765
  380MOL0     H50121   5.619   5.743   5.789  1.6292  0.9468 -0.1164
  380MOL0     H50122   5.519   5.561   6.196  0.5920 -0.9765  0.1213
  380MOL0     H50123   5.278   5.540   6.252 -0.3728  0.1360 -0.6753
  380MOL0     H50124   4.796   5.371   6.023  1.0434 -1.3492  1.5128
  380MOL0     H50125   4.572   5.367   6.118  1.9983 -0.8685  0.0365
  380MOL0     H50126   4.485   5.483   6.378 -0.2495 -2.3334 -1.0930
  380MOL0     H50127   4.367   5.416   6.259 -1.5845  0.9191 -2.2798
  380MOL0     H50128   4.243   5.486   6.446 -0.1672  1.0363  0.7198
  380MOL0     H50129   4.214   5.594   6.307  0.1731  1.3734  0.8494
  380MOL0     H50130   4.371   5.762   6.397 -1.1859 -0.1268 -0.3650
  380MOL0     H50131   4.399   5.658   6.538 -1.4289  0.9600  2.4294
  380MOL0     H50132   4.262   5.837   6.599 -1.5348  0.6792  0.5661
  380MOL0     H50133   4.156   5.819   6.457 -1.3519 -1.5253 -1.0494
  380MOL0     H50134   4.183   5.595   6.683  0.4056 -1.3107 -1.1246
  380MOL0     H50135   4.078   5.586   6.540 -0.1666 -0.4752  1.2286
  380MOL0     H50136   3.989   5.812   6.636  4.3624  1.1937 -0.7514
  380MOL0     H50137   4.098   5.774   6.775  0.0281 -1.8712  0.8904
  380MOL0     H50138   3.878   5.573   6.701  1.8231 -5.3643  3.9563
  380MOL0     H50139   3.996   5.591   6.836  0.0582 -2.3040 -0.6813
  380MOL0     H50140   3.760   5.790   6.774  1.4579  0.4230 -0.9476
  380MOL0     H50141   3.864   5.790   6.927 -1.9757  0.0133  1.0604
  380MOL0     H50142   4.590   5.784   6.188  0.5685  0.9011  0.3678
  380MOL0     H50143   4.807   5.798   6.121  0.1926  0.3966  1.4761
  380MOL0     H50144   5.154   5.603   5.848  1.7549 -3.0939 -2.1208
  380MOL0     H50145   5.369   5.632   5.783 -1.0005  0.3918  0.3283
  380MOL0     H50146   6.446   6.551   5.709 -3.0438  0.4552 -2.1656
  380MOL0     H50147   6.309   6.700   5.885 -0.7883  0.6492  0.5380
  380MOL0     H50148   5.771   6.485   6.166 -0.4831  0.0105 -1.1980
  380MOL0     H50149   5.655   6.595   6.335  1.0175 -0.5469  0.4500
  380MOL0     H50150   5.577   6.826   6.622  0.2442 -1.4301 -0.0482
  380MOL0     H50151   5.604   6.678   6.524  0.4033  0.3305  0.3777
  380MOL0     H50152   5.471   6.780   6.344 -2.9178 -2.1799  0.0051
  380MOL0     H50153   5.370   6.791   6.484 -1.1368 -0.0256 -2.3974
  380MOL0     H50154   5.511   7.008   6.348 -1.1717  0.3906 -1.6052
  380MOL0     H50155   5.498   7.038   6.518 -1.5013 -0.2125  1.5458
  380MOL0     H50156   5.236   6.945   6.435 -1.4204  0.6335 -0.0891
  380MOL0     H50157   5.267   7.106   6.487  2.0504 -0.2243  1.6977
  380MOL0     H50158   5.278   7.195   6.075 -1.2250  1.7298  0.1711
  380MOL0     H50159   5.930   6.929   6.346 -2.4395  1.8752 -1.9456
  380MOL0     H50160   6.074   6.786   6.193 -0.8164 -0.5597 -1.7229
  381MOL0     O50161   9.954   0.433  11.283 -0.5984  0.0490 -0.6566
  381MOL0     C50162  10.007   0.486  11.382 -0.1958 -0.8889 -0.2540
  381MOL0     O50163   9.937   0.547  11.478  0.8838 -0.1254 -0.4738
  381MOL0     C50164   9.805   0.528  11.479  0.0581  0.1100  0.0303
  381MOL0     C50165   9.720   0.617  11.411 -0.4355  0.0320  0.2371
  381MOL0     C50166   9.585   0.583  11.387  0.4128  0.3986  0.3204
  381MOL0     C50167   9.528   0.470  11.438  0.2635  0.4936 -0.1616
  381MOL0     O50168   9.398   0.448  11.417 -0.1516  0.3037 -0.0666
  381MOL0     C50169   9.331   0.361  11.508 -0.1659  0.1331 -0.8318
  381MOL0     C50170   9.180   0.382  11.511 -0.2252 -0.0613 -0.0135
  381MOL0     C50171   9.115   0.427  11.385 -0.5430 -0.3856  1.2211
  381MOL0     C50172   9.149   0.328  11.277  0.1421  0.1040 -0.7588
  381MOL0     C50173   9.095   0.383  11.148 -0.6967 -0.8635  0.4698
  381MOL0     C50174   8.948   0.420  11.129  0.2753 -0.2246  0.5729
  381MOL0     C50175   8.856   0.302  11.132  0.1097  0.4866  0.3142
  381MOL0     C50176   8.711   0.329  11.106 -0.3401 -1.1384 -0.2457
  381MOL0     N50177   8.628   0.215  11.126  0.3623  0.0516 -0.2405
  381MOL0     C50178   8.540   0.213  11.227  0.3049  0.3621 -0.6355
  381MOL0     C50179   8.499   0.080  11.215  0.2269 -0.5830  0.1665
  381MOL0     C50180   8.374   0.032  11.286  0.1258 -0.7592  0.9260
  381MOL0     C50181   8.278  -0.022  11.178  0.1802 -0.0304 -0.0514
  381MOL0     C50182   8.241   0.077  11.058  0.6098 -0.0388  0.8545
  381MOL0     C50183   8.114   0.021  10.989 -0.8729 -0.4531 -0.1538
  381MOL0     O50184   8.082   0.104  10.870  0.2959 -0.0923 -0.7648
  381MOL0     C50185   7.962   0.087  10.799 -0.3039 -0.1408  0.0614
  381MOL0     C50186   7.871  -0.011  10.827  0.2569  1.1668 -0.0545
  381MOL0     C50187   7.744  -0.017  10.773  0.1951 -0.2771 -0.5955
  381MOL0     C50188   7.699   0.080  10.676 -0.3969  0.9769  0.0814
  381MOL0     C50189   7.570   0.086  10.608  0.4729  0.7026  0.1211
  381MOL0     O50190   7.470   0.017  10.669 -0.1569 -0.3542  0.1593
  381MOL0     C50191   7.343   0.034  10.625  1.1181  0.9405 -0.6075
  381MOL0     C50192   7.285   0.160  10.651 -0.1789  0.7962  0.8602
  381MOL0     C50193   7.154   0.184  10.625 -0.1755 -1.8463  0.0430
  381MOL0     C50194   7.073   0.091  10.563 -1.6202 -0.6518 -0.2324
  381MOL0     O50195   6.946   0.112  10.520  0.3133  0.3230  0.2246
  381MOL0     C50196   6.900   0.246  10.496 -1.0759 -0.5750 -0.0178
  381MOL0     C50197   6.879   0.318  10.629  0.0373  0.1701 -0.5199
  381MOL0     C50198   6.730   0.303  10.676 -0.0387 -0.0951 -0.3473
  381MOL0     C50199   6.640   0.410  10.602  0.3908  0.4490  0.5690
  381MOL0     C50200   6.504   0.392  10.667  0.4455 -0.2219 -0.0673
  381MOL0     C50201   6.391   0.485  10.601  0.0595  0.0114 -0.3075
  381MOL0     C50202   6.248   0.415  10.615 -0.0491  0.7809 -0.2439
  381MOL0     C50203   6.148   0.443  10.496 -0.3524 -0.3475  0.8346
  381MOL0    Cl50204   6.123   0.619  10.472  0.1310  0.3781 -0.2091
  381MOL0     C50205   7.130  -0.038  10.537  0.4067  1.3532 -0.4081
  381MOL0     C50206   7.258  -0.065  10.580 -0.3692 -0.2721  0.5118
  381MOL0     O50207   7.561   0.143  10.500 -0.0719  0.3157 -0.3469
  381MOL0     C50208   7.802   0.167  10.634  0.4891 -0.4077 -0.4868
  381MOL0     C50209   7.930   0.176  10.700 -0.0263  0.1181 -0.4668
  381MOL0     N50210   8.561   0.011  11.111 -0.2974 -0.4484  0.5190
  381MOL0     N50211   8.640   0.100  11.058  1.5965 -0.1173  0.1992
  381MOL0     C50212   9.609   0.374  11.503  0.4869  0.1439 -0.5177
  381MOL0     C50213   9.751   0.404  11.514 -0.7952  0.1033 -0.7694
  381MOL0     C50214  10.150   0.472  11.401 -0.8110  0.1356 -0.5285
  381MOL0     C50215  10.223   0.410  11.299 -0.6492 -0.2104 -0.2398
  381MOL0     C50216  10.363   0.409  11.311  0.2205  1.2374  0.1558
  381MOL0     C50217  10.427   0.462  11.419 -0.9343  0.3594 -0.2887
  381MOL0     O50218  10.566   0.458  11.437 -0.3090  0.4840 -0.3118
  381MOL0     C50219  10.643   0.366  11.351  0.1705 -0.4425  0.2017
  381MOL0     C50220  10.786   0.361  11.400 -0.6767 -0.6502  0.9552
  381MOL0     C50221  10.903   0.302  11.302  0.0276  0.4971 -0.0747
  381MOL0     C50222  10.966   0.414  11.217  1.0701  0.9326  0.2847
  381MOL0     C50223  10.903   0.408  11.084 -0.5176 -0.6989  0.1221
  381MOL0     C50224  10.839   0.414  10.984  0.5723 -0.4716  1.3700
  381MOL0     C50225  10.354   0.530  11.517 -0.7749  0.4394  0.2640
  381MOL0     C50226  10.214   0.527  11.510  0.0829  0.4633 -0.5839
  381MOL0     H50227   9.763   0.695  11.348 -1.5407  0.5248  0.0687
  381MOL0     H50228   9.523   0.645  11.324 -0.5469 -0.0082  0.8422
  381MOL0     H50229   9.367   0.380  11.609  1.5997 -1.4616 -1.0967
  381MOL0     H50230   9.351   0.261  11.468 -0.4735  0.0011 -0.6546
  381MOL0     H50231   9.159   0.459  11.586  0.9101 -0.5246  0.8090
  381MOL0     H50232   9.130   0.288  11.534  0.9241 -0.9041 -0.8627
  381MOL0     H50233   9.167   0.518  11.354 -2.0632  0.4751  1.1276
  381MOL0     H50234   9.008   0.448  11.399 -0.6760  1.5225 -1.8071
  381MOL0     H50235   9.256   0.306  11.265  0.4721  1.3601 -0.2349
  381MOL0     H50236   9.095   0.234  11.290  0.9155 -0.4368 -1.3084
  381MOL0     H50237   9.126   0.315  11.069 -0.1532 -0.2344  0.1262
  381MOL0     H50238   9.145   0.480  11.135 -0.4571 -0.9619  0.6431
  381MOL0     H50239   8.930   0.468  11.032  1.3679 -0.4640  0.2379
  381MOL0     H50240   8.916   0.478  11.216 -0.7472 -0.8367  0.6304
  381MOL0     H50241   8.900   0.233  11.059 -1.3736 -1.3454  1.0616
  381MOL0     H50242   8.865   0.253  11.229  0.4506  1.9614  1.0483
  381MOL0     H50243   8.692   0.366  11.004 -0.2677 -2.3660 -0.7190
  381MOL0     H50244   8.677   0.405  11.177 -1.9607  2.2461 -4.2306
  381MOL0     H50245   8.495   0.293  11.285 -1.4382 -0.1222 -1.2442
  381MOL0     H50246   8.344   0.128  11.329 -0.9764 -0.8905  0.4666
  381MOL0     H50247   8.386  -0.049  11.359  0.3225 -0.1437  1.5906
  381MOL0     H50248   8.180  -0.042  11.223  0.1448  0.7032  0.2260
  381MOL0     H50249   8.311  -0.109  11.122  1.0228 -0.4649  1.0927
  381MOL0     H50250   8.218   0.173  11.106 -0.5597  0.5385 -0.7881
  381MOL0     H50251   8.322   0.083  10.985  0.0248 -2.5644 -0.1261
  381MOL0     H50252   8.027   0.020  11.056 -1.4330  2.6629 -0.6690
  381MOL0     H50253   8.127  -0.083  10.957  1.1859 -0.0912 -0.6317
  381MOL0     H50254   7.895  -0.084  10.904 -0.3825  0.5898 -0.3874
  381MOL0     H50255   7.690  -0.106  10.803  0.9038 -0.8735 -1.0601
  381MOL0     H50256   7.352   0.240  10.682  3.8963 -1.6412 -0.8849
  381MOL0     H50257   7.128   0.289  10.626  2.7456 -1.0295 -0.5970
  381MOL0     H50258   6.806   0.249  10.440 -1.6827  0.4628  1.0209
  381MOL0     H50259   6.978   0.296  10.438 -2.6577  0.8040 -1.0532
  381MOL0     H50260   6.903   0.425  10.617 -2.3585  0.9697  1.0908
  381MOL0     H50261   6.941   0.276  10.709  1.4170 -0.0033 -1.6308
  381MOL0     H50262   6.719   0.322  10.783  1.4783 -2.1390  0.2440
  381MOL0     H50263   6.701   0.199  10.660  2.5590 -0.8745 -0.4306
  381MOL0     H50264   6.675   0.510  10.627  0.6491  0.2039  1.1888
  381MOL0     H50265   6.646   0.404  10.493 -1.7593  1.4613  0.3359
  381MOL0     H50266   6.507   0.401  10.776  2.3083 -1.9482  0.0692
  381MOL0     H50267   6.485   0.287  10.643  2.8182 -0.9695  1.0278
  381MOL0     H50268   6.413   0.502  10.495 -3.8179 -1.1099 -1.4581
  381MOL0     H50269   6.369   0.586  10.637  0.2973  0.8263 -2.3196
  381MOL0     H50270   6.267   0.307  10.616 -2.1923  0.3608 -0.5607
  381MOL0     H50271   6.199   0.442  10.708  0.5464  0.4886  0.1669
  381MOL0     H50272   6.054   0.388  10.508 -2.9178  3.1504 -1.2144
  381MOL0     H50273   6.183   0.393  10.405 -1.4041  0.2590  0.0688
  381MOL0     H50274   7.067  -0.116  10.496  1.0070 -0.6703  2.2221
  381MOL0     H50275   7.296  -0.166  10.566 -0.3248 -0.3479  1.1443
  381MOL0     H50276   7.777   0.250  10.569 -3.7046  0.2710  1.6251
  381MOL0     H50277   7.991   0.262  10.674 -0.0177  0.5808  1.0055
  381MOL0     H50278   9.573   0.274  11.527  1.2120  0.5130  2.4972
  381MOL0     H50279   9.812   0.329  11.563 -2.4540 -0.9699 -0.2422
  381MOL0     H50280  10.180   0.377  11.205 -0.0711  1.6492 -1.2043
  381MOL0     H50281  10.409   0.340  11.241 -2.2426 -1.2151  0.7557
  381MOL0     H50282  10.642   0.405  11.249 -1.4923  5.0468  1.9917
  381MOL0     H50283  10.604   0.263  11.351 -0.1099 -0.3381 -0.5116
  381MOL0     H50284  10.797   0.466  11.431 -1.1357 -1.1383  2.8645
  381MOL0     H50285  10.802   0.299  11.489  4.1519  1.7915  2.1598
  381MOL0     H50286  10.858   0.227  11.237 -0.1247 -0.0674  0.6711
  381MOL0     H50287  10.982   0.245  11.352 -1.7214 -1.2007  0.8607
  381MOL0     H50288  10.947   0.515  11.255  1.4588  1.2678 -0.3886
  381MOL0     H50289  11.075   0.415  11.218  1.0867  0.4077  1.8344
  381MOL0     H50290  10.801   0.403  10.885  0.4887 -0.9750  1.4569
  381MOL0     H50291  10.403   0.578  11.602 -0.2141 -0.9558  0.7533
  381MOL0     H50292  10.154   0.582  11.581  0.6121  2.9916 -1.9868
  382MOL0     O50293   6.535   6.808   9.664 -0.5608  0.2691 -0.4943
  382MOL0     C50294   6.505   6.859   9.769  0.6161 -0.4937 -0.0463
  382MOL0     O50295   6.584   6.894   9.872  0.2498  0.1863 -0.7266
  382MOL0     C50296   6.727   6.875   9.885 -0.7127  0.2902  0.0743
  382MOL0     C50297   6.786   6.904  10.011 -1.2415  0.6004 -0.1586
  382MOL0     C50298   6.923   6.881  10.035  0.2432 -0.3733 -0.0981
  382MOL0     C50299   7.009   6.840   9.932 -0.0252 -0.0013  0.1533
  382MOL0     O50300   7.137   6.817   9.965 -0.3596  0.2512  0.7843
  382MOL0     C50301   7.230   6.774   9.863  0.3837 -1.1695 -0.0963
  382MOL0     C50302   7.360   6.742   9.935  0.0217  0.4958  0.1583
  382MOL0     C50303   7.450   6.857   9.970 -0.4182  0.2876 -0.1263
  382MOL0     C50304   7.578   6.830  10.053 -0.4786 -0.1532  0.8464
  382MOL0     C50305   7.699   6.770   9.973  0.6353  0.3767 -0.1130
  382MOL0     C50306   7.817   6.773  10.070  0.5305 -1.0738 -0.4494
  382MOL0     C50307   7.945   6.782   9.990 -0.4698 -0.1412  0.3489
  382MOL0     C50308   8.065   6.781  10.083  1.4524  0.5477 -0.3658
  382MOL0     N50309   8.197   6.764  10.010 -0.1183 -0.5095  0.6243
  382MOL0     C50310   8.219   6.788   9.874 -0.3366 -0.2478 -0.2755
  382MOL0     C50311   8.354   6.772   9.851  0.6011  0.0155  0.7778
  382MOL0     C50312   8.430   6.772   9.711  1.1738  0.0354  1.0850
  382MOL0     C50313   8.582   6.763   9.732  0.8376 -0.8321  0.4634
  382MOL0     C50314   8.620   6.606   9.741 -0.2931 -0.8353 -0.4417
  382MOL0     C50315   8.766   6.584   9.764 -0.2514  0.5693  0.3214
  382MOL0     O50316   8.843   6.645   9.665  0.2781 -1.1309  0.3101
  382MOL0     C50317   8.986   6.633   9.675  0.1036  0.4988 -0.2181
  382MOL0     C50318   9.055   6.531   9.747  0.3218 -0.3369  0.8485
  382MOL0     C50319   9.194   6.513   9.726  0.0307  0.0415  0.0480
  382MOL0     C50320   9.276   6.600   9.649  0.8733  0.0013  0.0752
  382MOL0     C50321   9.421   6.587   9.658 -0.1112 -0.9666  0.6681
  382MOL0     O50322   9.484   6.623   9.541  0.1265  0.4442 -0.4253
  382MOL0     C50323   9.623   6.625   9.544  0.5614  0.5006  0.9845
  382MOL0     C50324   9.696   6.522   9.484 -0.1781 -0.0209 -0.6397
  382MOL0     C50325   9.840   6.535   9.470  0.7405  0.3372 -0.2221
  382MOL0     C50326   9.907   6.649   9.513  0.2587 -0.6866 -0.0748
  382MOL0     O50327  10.048   6.657   9.511  0.9225 -0.2067 -0.2296
  382MOL0     C50328  10.122   6.773   9.459  0.0752 -0.0875  0.6991
  382MOL0     C50329  10.258   6.723   9.423 -0.9476 -0.2151  1.1302
  382MOL0     C50330  10.272   6.604   9.320  0.2086  0.3403 -0.2343
  382MOL0     C50331  10.400   6.513   9.346  0.4787  0.1445 -0.2787
  382MOL0     C50332  10.525   6.584   9.308 -0.3477  0.2043 -0.9416
  382MOL0     C50333  10.646   6.513   9.372 -0.3834 -0.2698  0.3988
  382MOL0     C50334  10.662   6.377   9.313  0.0664 -0.1611 -0.2633
  382MOL0     C50335  10.798   6.321   9.338 -0.4601 -0.0350 -0.3473
  382MOL0    Cl50336  10.834   6.164   9.257 -0.6977 -0.1030  0.1883
  382MOL0     C50337   9.833   6.754   9.573  1.3265 -0.6936  1.3646
  382MOL0     C50338   9.690   6.742   9.592  0.4034 -0.1358  0.3761
  382MOL0     O50339   9.474   6.552   9.761  0.8872 -0.2769  0.2319
  382MOL0     C50340   9.206   6.708   9.581  1.5726 -0.3340 -0.9810
  382MOL0     C50341   9.068   6.726   9.601  0.1582  0.0912  0.1435
  382MOL0     N50342   8.416   6.736   9.974  0.3784 -0.3105  0.7126
  382MOL0     N50343   8.317   6.726  10.064  0.2978 -0.1470  0.1553
  382MOL0     C50344   6.965   6.831   9.795 -0.1573 -0.8324 -0.2059
  382MOL0     C50345   6.823   6.848   9.774 -0.0466 -0.8767 -0.5975
  382MOL0     C50346   6.367   6.897   9.786  0.3107  0.1960  0.0190
  382MOL0     C50347   6.264   6.810   9.770  1.3462  0.1754  0.2890
  382MOL0     C50348   6.137   6.836   9.804  0.9058 -0.0852  0.1140
  382MOL0     C50349   6.099   6.960   9.847 -0.0908  0.5532 -0.0757
  382MOL0     O50350   5.965   6.978   9.869 -0.5589 -0.0853  0.4943
  382MOL0     C50351   5.928   7.111   9.914 -0.1611 -0.3340  0.1478
  382MOL0     C50352   5.783   7.110   9.888  0.4801 -0.1744  0.2464
  382MOL0     C50353   5.702   7.014   9.974  0.6489  0.2144  0.3656
  382MOL0     C50354   5.548   7.019   9.940  0.0150 -0.0577  0.9434
  382MOL0     C50355   5.489   7.155   9.948 -0.4481 -0.5215 -0.4215
  382MOL0     C50356   5.452   7.266   9.963  0.9242  0.4202  0.3914
  382MOL0     C50357   6.203   7.052   9.863  0.7668  0.4157 -0.4000
  382MOL0     C50358   6.334   7.028   9.834  0.0174 -0.4923  0.7540
  382MOL0     H50359   6.717   6.938  10.087 -3.8238  1.6161 -2.7256
  382MOL0     H50360   6.957   6.889  10.137 -1.6337 -1.0669  0.6254
  382MOL0     H50361   7.248   6.858   9.795 -1.1985  1.3067  2.3516
  382MOL0     H50362   7.197   6.683   9.813 -1.9125 -0.0311 -0.7918
  382MOL0     H50363   7.404   6.673   9.862 -0.8242  0.7279 -0.5910
  382MOL0     H50364   7.335   6.689  10.027 -1.8107  1.1196  0.0581
  382MOL0     H50365   7.391   6.935  10.018  2.7183  1.7633  1.6500
  382MOL0     H50366   7.479   6.897   9.872  0.3280  3.7037  1.3446
  382MOL0     H50367   7.604   6.928  10.095 -2.5539 -0.4794  3.0767
  382MOL0     H50368   7.568   6.763  10.139  1.9927  0.0433  1.3734
  382MOL0     H50369   7.722   6.834   9.887 -0.0439  0.5373 -0.1843
  382MOL0     H50370   7.670   6.672   9.934 -0.7101  1.9540 -3.4313
  382MOL0     H50371   7.819   6.683  10.134  1.8122 -2.5229 -2.4198
  382MOL0     H50372   7.796   6.857  10.137  0.3128 -3.1927  2.3713
  382MOL0     H50373   7.969   6.693   9.931 -0.5304 -0.4188  0.7405
  382MOL0     H50374   7.946   6.873   9.929 -0.2541  0.5631  1.3710
  382MOL0     H50375   8.051   6.710  10.164 -2.4104  0.7462 -0.6971
  382MOL0     H50376   8.061   6.875  10.140 -4.5191 -0.6762  1.9830
  382MOL0     H50377   8.147   6.800   9.794  2.2930  0.8915 -2.6423
  382MOL0     H50378   8.403   6.864   9.658  2.0051 -0.6398 -0.5707
  382MOL0     H50379   8.383   6.689   9.658  1.5753  1.1140 -1.0551
  382MOL0     H50380   8.612   6.824   9.818  2.1236 -0.2575 -0.3578
  382MOL0     H50381   8.634   6.800   9.643  1.1380 -0.1420  0.9203
  382MOL0     H50382   8.572   6.562   9.829  2.0644 -3.6496 -0.3629
  382MOL0     H50383   8.601   6.552   9.648  1.3606 -0.4516 -1.0484
  382MOL0     H50384   8.789   6.477   9.766 -2.0120  0.1243 -1.0149
  382MOL0     H50385   8.798   6.631   9.857 -0.4726 -2.6762  2.1695
  382MOL0     H50386   9.004   6.456   9.807  1.4710 -3.6101 -1.9187
  382MOL0     H50387   9.235   6.428   9.779 -1.5798  1.2963  3.6190
  382MOL0     H50388   9.647   6.429   9.455 -0.9326  0.3917 -0.7101
  382MOL0     H50389   9.898   6.455   9.425  0.1577 -0.1598 -0.1101
  382MOL0     H50390  10.132   6.847   9.539  3.0570 -0.7096  1.0164
  382MOL0     H50391  10.060   6.809   9.377 -0.3134 -1.6034  0.3001
  382MOL0     H50392  10.294   6.685   9.519  1.8177 -2.1784 -0.5546
  382MOL0     H50393  10.313   6.805   9.377 -1.7142 -1.6915 -2.8956
  382MOL0     H50394  10.281   6.644   9.218  1.8315  0.6402 -0.0128
  382MOL0     H50395  10.183   6.542   9.328  1.1013 -0.8467  1.0447
  382MOL0     H50396  10.395   6.496   9.454 -1.6781 -1.0896 -0.5175
  382MOL0     H50397  10.396   6.414   9.299  0.0585 -1.8336  3.5337
  382MOL0     H50398  10.527   6.684   9.353  1.9621  0.4466 -1.4332
  382MOL0     H50399  10.527   6.593   9.199 -1.9215  1.0101 -0.9243
  382MOL0     H50400  10.633   6.514   9.481  1.0686  0.7116  0.5958
  382MOL0     H50401  10.735   6.570   9.344 -1.1020 -0.7500 -3.3232
  382MOL0     H50402  10.586   6.310   9.353  0.6605 -1.9169 -1.8574
  382MOL0     H50403  10.638   6.374   9.206  0.0874 -0.8501 -0.2518
  382MOL0     H50404  10.806   6.303   9.446  1.7443 -2.5659 -0.8337
  382MOL0     H50405  10.873   6.390   9.298 -1.9045 -0.5721 -4.5298
  382MOL0     H50406   9.888   6.831   9.626  1.3262 -0.5744  1.1901
  382MOL0     H50407   9.626   6.818   9.636  0.9475  0.8786 -0.5553
  382MOL0     H50408   9.265   6.778   9.522  2.9777  1.0778  1.8888
  382MOL0     H50409   9.024   6.816   9.559  2.7652  0.9913 -0.8795
  382MOL0     H50410   7.024   6.794   9.712  1.3461  0.2718  0.3395
  382MOL0     H50411   6.792   6.840   9.670  0.9710 -2.2675 -0.8240
  382MOL0     H50412   6.299   6.710   9.747  2.6770  1.0118 -1.7122
  382MOL0     H50413   6.068   6.754   9.791 -0.0224  0.8133 -0.8606
  382MOL0     H50414   5.969   7.188   9.848 -1.7537 -1.4129 -2.2004
  382MOL0     H50415   5.960   7.132  10.017  1.5872 -1.2172 -0.1803
  382MOL0     H50416   5.749   7.211   9.911  2.5794  1.0052 -1.5740
  382MOL0     H50417   5.761   7.092   9.783 -2.5282  2.8157  0.1879
  382MOL0     H50418   5.707   7.028  10.082 -0.8299 -2.0341  0.7980
  382MOL0     H50419   5.729   6.909   9.961  2.5360  0.6762  0.3449
  382MOL0     H50420   5.537   6.986   9.836 -1.1485  0.8108  0.7732
  382MOL0     H50421   5.496   6.954  10.011  0.4438 -0.9884  0.4292
  382MOL0     H50422   5.421   7.366   9.983  3.2591  0.5893  4.1173
  382MOL0     H50423   6.175   7.148   9.904  1.5623 -0.7019  3.0933
  382MOL0     H50424   6.413   7.097   9.861  0.8457 -0.9027 -0.5379
  383MOL0     O50425   0.308   0.960   8.906  0.6644 -0.3235 -0.8509
  383MOL0     C50426   0.347   0.858   8.848 -0.4834  0.1621 -0.2381
  383MOL0     O50427   0.281   0.750   8.810  0.3666 -0.2085 -1.1060
  383MOL0     C50428   0.143   0.752   8.824 -0.4829 -0.3993 -0.1918
  383MOL0     C50429   0.085   0.715   8.949  0.3545 -0.6662  0.3550
  383MOL0     C50430  -0.059   0.717   8.965  0.0105 -0.6413  0.1185
  383MOL0     C50431  -0.147   0.745   8.865  1.0238 -0.4616 -0.2688
  383MOL0     O50432  -0.281   0.745   8.907  0.0982  0.9172 -0.6864
  383MOL0     C50433  -0.380   0.755   8.803 -0.1154  0.0270 -0.0918
  383MOL0     C50434  -0.523   0.741   8.866  0.3973  0.5201  0.5604
  383MOL0     C50435  -0.632   0.718   8.754  0.0031 -0.3167 -0.7341
  383MOL0     C50436  -0.777   0.730   8.801  0.2244  0.4143 -1.4937
  383MOL0     C50437  -0.874   0.714   8.683 -0.4232  0.7035  0.1080
  383MOL0     C50438  -1.008   0.688   8.741  0.2228  0.3059 -0.3096
  383MOL0     C50439  -1.103   0.685   8.623 -1.1034 -0.3576 -0.1274
  383MOL0     C50440  -1.243   0.648   8.668 -0.6282  0.1065  0.5538
  383MOL0     N50441  -1.316   0.781   8.690  0.2426  0.7211 -0.2141
  383MOL0     C50442  -1.393   0.850   8.597  0.1171  1.2043  0.9249
  383MOL0     C50443  -1.457   0.945   8.669  0.2967  1.3149  0.5354
  383MOL0     C50444  -1.558   1.040   8.622  0.4838 -1.0566  0.1739
  383MOL0     C50445  -1.521   1.188   8.616 -0.6434 -0.2642  0.9594
  383MOL0     C50446  -1.635   1.284   8.571 -0.7344  0.1670  0.4567
  383MOL0     C50447  -1.776   1.237   8.589  0.4065  0.5241  0.4415
  383MOL0     O50448  -1.856   1.359   8.566 -0.2623  0.9368 -0.0623
  383MOL0     C50449  -1.974   1.358   8.491  0.6049 -0.5507 -0.0314
  383MOL0     C50450  -2.043   1.477   8.470  0.6185  0.3950  0.5142
  383MOL0     C50451  -2.162   1.471   8.395 -0.3939 -0.5930 -0.2691
  383MOL0     C50452  -2.212   1.357   8.330 -0.8545  0.3947  0.3202
  383MOL0     C50453  -2.335   1.356   8.252 -0.3471 -0.1775 -0.3944
  383MOL0     O50454  -2.360   1.241   8.178  0.5270 -0.4808  0.5790
  383MOL0     C50455  -2.493   1.229   8.144 -0.2985 -0.0018  0.4086
  383MOL0     C50456  -2.552   1.316   8.058 -0.3110 -0.0430  0.6908
  383MOL0     C50457  -2.685   1.307   8.038  0.2112  0.3491  0.5875
  383MOL0     C50458  -2.766   1.207   8.099 -0.8278  0.2857  0.0651
  383MOL0     O50459  -2.896   1.215   8.066 -0.0212  0.3443 -0.0797
  383MOL0     C50460  -2.987   1.170   8.166 -0.0984  0.1261 -0.4982
  383MOL0     C50461  -3.131   1.140   8.116 -0.1091 -0.7287  1.5544
  383MOL0     C50462  -3.195   1.256   8.027  0.2786 -0.2903 -0.5440
  383MOL0     C50463  -3.189   1.391   8.103 -0.2607  0.4545  0.4082
  383MOL0     C50464  -3.262   1.494   8.026 -0.3053 -0.4607 -0.0829
  383MOL0     C50465  -3.262   1.629   8.095  0.5480  0.3253 -0.7250
  383MOL0     C50466  -3.364   1.638   8.206 -0.0433 -0.0569  0.0786
  383MOL0     C50467  -3.343   1.766   8.281 -0.3191  1.0557 -0.8034
  383MOL0    Cl50468  -3.458   1.770   8.417  0.0531 -0.0507 -0.2355
  383MOL0     C50469  -2.705   1.104   8.171 -0.0988 -0.3964 -0.7940
  383MOL0     C50470  -2.564   1.113   8.191  0.2004 -0.6924 -0.8092
  383MOL0     O50471  -2.413   1.452   8.276  0.0098  0.4164  0.1312
  383MOL0     C50472  -2.145   1.234   8.354  0.2422  0.6202  0.0092
  383MOL0     C50473  -2.034   1.238   8.432 -0.3740 -0.5115  0.3738
  383MOL0     N50474  -1.438   0.920   8.801 -0.4355 -0.2522 -0.4327
  383MOL0     N50475  -1.359   0.827   8.816 -0.9827 -0.5370 -0.7756
  383MOL0     C50476  -0.092   0.779   8.736  0.3482 -0.6153 -1.4528
  383MOL0     C50477   0.052   0.786   8.721  0.2918  0.8910  0.5113
  383MOL0     C50478   0.496   0.856   8.854  0.0645  0.2088  0.1344
  383MOL0     C50479   0.565   0.970   8.892 -0.9850 -0.0683 -0.6234
  383MOL0     C50480   0.704   0.966   8.907  0.3757  0.8183 -0.2182
  383MOL0     C50481   0.773   0.847   8.908 -0.2518 -0.0821  1.0441
  383MOL0     O50482   0.910   0.857   8.939  0.5668  0.0705  1.0106
  383MOL0     C50483   0.970   0.734   8.971  0.6266  0.7686  0.1868
  383MOL0     C50484   1.103   0.771   9.029  0.8510  0.2198  0.0934
  383MOL0     C50485   1.209   0.675   9.073 -0.1533  0.5594 -0.1414
  383MOL0     C50486   1.269   0.616   8.950 -0.0023 -0.0004  0.5459
  383MOL0     C50487   1.379   0.523   8.980  0.2106 -0.1795 -0.5184
  383MOL0     C50488   1.464   0.440   8.970 -0.7842 -0.6709  0.7391
  383MOL0     C50489   0.699   0.729   8.876  0.2788  0.1757 -0.1795
  383MOL0     C50490   0.564   0.733   8.847  0.1255  0.2344 -0.1353
  383MOL0     H50491   0.149   0.706   9.036  0.5246 -0.6201  0.2348
  383MOL0     H50492  -0.087   0.689   9.066  1.3073  1.5396  1.1585
  383MOL0     H50493  -0.366   0.672   8.733 -1.4863 -1.6311  1.4988
  383MOL0     H50494  -0.379   0.849   8.747 -2.0824 -0.4064 -0.9523
  383MOL0     H50495  -0.546   0.820   8.939 -0.8165  1.4112 -0.7352
  383MOL0     H50496  -0.521   0.653   8.931  1.3244  0.1591  0.0649
  383MOL0     H50497  -0.633   0.615   8.716 -0.3839 -0.8872  0.7335
  383MOL0     H50498  -0.627   0.783   8.666 -1.6345  2.5227  1.1098
  383MOL0     H50499  -0.791   0.649   8.873  2.9116  1.0682 -0.0779
  383MOL0     H50500  -0.792   0.826   8.852 -0.2646 -1.2798  1.7928
  383MOL0     H50501  -0.848   0.626   8.624 -0.8690  1.1189 -0.7165
  383MOL0     H50502  -0.879   0.802   8.618  2.7990 -0.9117 -2.6707
  383MOL0     H50503  -1.038   0.769   8.808  1.9294  1.2717 -0.6373
  383MOL0     H50504  -1.001   0.594   8.796 -0.8519  0.2288 -0.2804
  383MOL0     H50505  -1.109   0.771   8.555  0.6249 -1.6546 -2.0419
  383MOL0     H50506  -1.074   0.604   8.556 -1.9554  0.4543 -1.5334
  383MOL0     H50507  -1.229   0.590   8.760  0.6495  0.2842  0.4867
  383MOL0     H50508  -1.310   0.593   8.602 -1.8037 -2.9141  3.8724
  383MOL0     H50509  -1.388   0.823   8.492  3.2573 -2.3800  1.7517
  383MOL0     H50510  -1.647   1.022   8.683  0.3083  2.4059  1.1380
  383MOL0     H50511  -1.585   1.010   8.520 -2.6467 -1.1489  0.9234
  383MOL0     H50512  -1.436   1.194   8.547 -3.8064  1.7063 -3.2562
  383MOL0     H50513  -1.486   1.217   8.715  0.6828 -2.6367  1.2504
  383MOL0     H50514  -1.644   1.376   8.630 -1.8415  1.1244 -1.1486
  383MOL0     H50515  -1.622   1.303   8.464 -0.1955  0.1171  0.5091
  383MOL0     H50516  -1.795   1.196   8.689 -1.4987 -1.1515 -0.5523
  383MOL0     H50517  -1.787   1.154   8.519 -2.2082 -0.8760  2.3381
  383MOL0     H50518  -1.997   1.564   8.516  0.4506 -0.4582  2.4166
  383MOL0     H50519  -2.213   1.565   8.375  1.7436  0.1849 -2.6141
  383MOL0     H50520  -2.485   1.389   8.013 -0.3381  0.8743  2.1069
  383MOL0     H50521  -2.735   1.393   7.995  0.7973 -0.1237 -1.1115
  383MOL0     H50522  -2.988   1.246   8.245 -0.1629 -1.2153  0.8544
  383MOL0     H50523  -2.946   1.084   8.221  3.4409  1.1831 -1.2540
  383MOL0     H50524  -3.196   1.113   8.200 -2.9100 -1.3838 -0.6809
  383MOL0     H50525  -3.122   1.057   8.045 -0.3181  1.4147 -1.1328
  383MOL0     H50526  -3.299   1.229   8.006  0.4569 -1.5113  0.1159
  383MOL0     H50527  -3.143   1.262   7.930 -0.4171  3.9240 -0.8669
  383MOL0     H50528  -3.231   1.375   8.203  2.9647 -0.6586  1.7049
  383MOL0     H50529  -3.083   1.419   8.101 -0.1141  0.2233  2.5751
  383MOL0     H50530  -3.361   1.453   8.004  0.2877 -1.7521 -0.4171
  383MOL0     H50531  -3.214   1.519   7.931  0.8382 -0.0330  0.5911
  383MOL0     H50532  -3.291   1.700   8.017  3.0262  0.0794 -1.9672
  383MOL0     H50533  -3.163   1.660   8.130  0.5138 -0.9017  0.5381
  383MOL0     H50534  -3.465   1.646   8.166  0.2560  3.9698 -0.3099
  383MOL0     H50535  -3.347   1.551   8.269 -0.1586 -2.6155 -3.1567
  383MOL0     H50536  -3.350   1.854   8.216  3.2431  0.3444 -2.4206
  383MOL0     H50537  -3.243   1.756   8.324 -0.5254  4.1665  0.6300
  383MOL0     H50538  -2.757   1.028   8.229 -0.7474  1.0806  0.6415
  383MOL0     H50539  -2.508   1.040   8.248 -0.3833 -1.2388 -0.9190
  383MOL0     H50540  -2.174   1.134   8.323 -0.8071  0.2294  2.0724
  383MOL0     H50541  -1.988   1.142   8.453  1.6215  0.6936  1.8780
  383MOL0     H50542  -0.159   0.800   8.653 -0.0661  0.8745 -0.7753
  383MOL0     H50543   0.109   0.822   8.637 -0.1170  1.3491  0.4284
  383MOL0     H50544   0.510   1.062   8.911  0.5615  1.3866 -2.7500
  383MOL0     H50545   0.746   1.065   8.920 -0.8438  1.5495 -1.5855
  383MOL0     H50546   0.972   0.667   8.884  0.6264  0.3170  0.5330
  383MOL0     H50547   0.916   0.676   9.046  2.1689 -3.2206 -1.4904
  383MOL0     H50548   1.153   0.832   8.954  0.5635 -2.1709 -2.1801
  383MOL0     H50549   1.094   0.856   9.097 -0.4184  2.3719 -2.5485
  383MOL0     H50550   1.178   0.595   9.140  1.7992 -0.0082  0.1668
  383MOL0     H50551   1.293   0.728   9.119  0.2444 -1.0685  1.1077
  383MOL0     H50552   1.193   0.570   8.886  1.3059 -0.8284 -0.4742
  383MOL0     H50553   1.310   0.689   8.879 -1.1058  0.5737  0.4671
  383MOL0     H50554   1.543   0.368   8.960  0.0887  0.1299  1.6149
  383MOL0     H50555   0.739   0.628   8.872 -1.4773 -0.9149  4.1168
  383MOL0     H50556   0.523   0.634   8.830  0.5841  0.2558 -1.4665
  384MOL0     O50557   2.505   6.989  10.322  0.6000  0.0911 -0.0762
  384MOL0     C50558   2.548   7.084  10.270 -0.6837 -0.4652  1.0980
  384MOL0     O50559   2.506   7.157  10.154 -0.5158 -0.1708  0.4727
  384MOL0     C50560   2.381   7.140  10.104 -0.0963 -0.1379  0.5307
  384MOL0     C50561   2.267   7.129  10.177  0.3074  0.8777  0.3519
  384MOL0     C50562   2.145   7.105  10.122  0.9336  0.1987  0.3734
  384MOL0     C50563   2.136   7.082   9.984  1.0632  0.7153  0.8021
  384MOL0     O50564   2.025   7.061   9.911 -0.0850  0.3278 -0.2586
  384MOL0     C50565   1.909   7.143   9.927 -0.0086 -0.5663 -0.4536
  384MOL0     C50566   1.815   7.095   9.816 -0.6304  0.5888 -0.4690
  384MOL0     C50567   1.733   6.975   9.844  0.5371 -0.0681 -0.7204
  384MOL0     C50568   1.613   6.992   9.946  0.7229  0.9635 -0.2909
  384MOL0     C50569   1.548   6.855   9.954  0.9097  0.3354  0.5490
  384MOL0     C50570   1.514   6.799   9.814 -0.1917  0.1561  0.9870
  384MOL0     C50571   1.418   6.682   9.825  0.5166 -0.3341 -0.4325
  384MOL0     C50572   1.422   6.583   9.708  0.8911  0.0349  0.2089
  384MOL0     N50573   1.312   6.493   9.719  0.6025  0.8609  0.2344
  384MOL0     C50574   1.184   6.516   9.676  0.4656  0.1405 -0.6317
  384MOL0     C50575   1.116   6.402   9.696 -0.1512 -0.6170  0.4282
  384MOL0     C50576   0.969   6.389   9.650  0.0380  0.3789 -0.1439
  384MOL0     C50577   0.952   6.349   9.502  0.2092  0.6050 -0.6238
  384MOL0     C50578   0.812   6.310   9.470 -0.1281 -0.0010 -1.0544
  384MOL0     C50579   0.699   6.409   9.501 -0.8928 -0.1876  0.2680
  384MOL0     O50580   0.658   6.413   9.638  0.5960  0.4992  0.6205
  384MOL0     C50581   0.541   6.481   9.660  0.7534  1.4831 -0.2894
  384MOL0     C50582   0.481   6.584   9.584 -0.0708  1.1578  0.8315
  384MOL0     C50583   0.354   6.629   9.623  0.1671  0.2064  0.0008
  384MOL0     C50584   0.279   6.565   9.719 -0.4129 -0.0855 -0.1271
  384MOL0     C50585   0.148   6.627   9.751 -0.1693  0.2803 -0.7926
  384MOL0     O50586   0.064   6.557   9.832  0.0455  0.4419 -0.4076
  384MOL0     C50587  -0.036   6.637   9.884  0.2989  0.9949  1.0832
  384MOL0     C50588  -0.023   6.769   9.936 -0.4961 -0.5804  0.6021
  384MOL0     C50589  -0.140   6.824   9.999 -0.1632  0.0058 -0.2191
  384MOL0     C50590  -0.262   6.759  10.016 -0.2473  0.5458  0.8212
  384MOL0     O50591  -0.366   6.819  10.074  0.6650  0.2414  0.7331
  384MOL0     C50592  -0.491   6.741  10.080 -0.2553  0.3080  0.1739
  384MOL0     C50593  -0.587   6.845  10.123 -0.7148 -0.1195  0.1931
  384MOL0     C50594  -0.730   6.802  10.161 -0.5974  0.3164  0.1327
  384MOL0     C50595  -0.822   6.913  10.219 -0.2613  0.9100  0.1321
  384MOL0     C50596  -0.958   6.867  10.201 -0.0094 -0.1686 -0.0778
  384MOL0     C50597  -1.072   6.952  10.264 -0.1307 -0.2455 -0.2376
  384MOL0     C50598  -1.029   7.038  10.384 -0.7333  0.2350  0.2434
  384MOL0     C50599  -1.153   7.128  10.423 -0.6740  0.9890  0.3611
  384MOL0    Cl50600  -1.141   7.213  10.574 -0.3580 -0.5891 -0.5587
  384MOL0     C50601  -0.266   6.637   9.952  0.4411 -0.5193 -0.0699
  384MOL0     C50602  -0.153   6.573   9.901  0.3575 -0.6308  0.0363
  384MOL0     O50603   0.127   6.737   9.703  1.2732  0.3217 -1.0013
  384MOL0     C50604   0.339   6.466   9.798 -0.9747  0.4747 -0.1472
  384MOL0     C50605   0.462   6.430   9.767  0.1274  0.2732  0.9896
  384MOL0     N50606   1.205   6.308   9.747  0.7030  0.1095 -0.3469
  384MOL0     N50607   1.315   6.370   9.774 -0.7697  0.3929 -0.8308
  384MOL0     C50608   2.252   7.103   9.908  0.3023 -0.0341  0.3852
  384MOL0     C50609   2.377   7.122   9.971  0.1356  1.0260  0.0182
  384MOL0     C50610   2.664   7.149  10.346 -0.5899 -0.3659  0.2464
  384MOL0     C50611   2.721   7.271  10.299  0.1898  0.2334  0.0173
  384MOL0     C50612   2.817   7.341  10.367 -0.2118 -0.1467  0.2401
  384MOL0     C50613   2.876   7.288  10.487  0.5197 -0.8855  0.4377
  384MOL0     O50614   2.953   7.360  10.566  0.1770  0.6877 -0.1811
  384MOL0     C50615   3.080   7.389  10.518 -0.4426  0.2998 -1.2962
  384MOL0     C50616   3.101   7.540  10.515 -0.2477  0.1795  1.1270
  384MOL0     C50617   3.106   7.592  10.368 -0.1753  0.3524  0.0246
  384MOL0     C50618   3.121   7.750  10.349 -0.0039 -0.1818 -0.2527
  384MOL0     C50619   3.244   7.795  10.419 -0.3641  0.7192  0.5605
  384MOL0     C50620   3.354   7.841  10.462  0.3111  0.0374  0.4618
  384MOL0     C50621   2.831   7.159  10.526 -0.0836  0.5763 -0.4522
  384MOL0     C50622   2.728   7.088  10.457 -0.1581  0.2778  0.3356
  384MOL0     H50623   2.278   7.146  10.284 -0.8858  0.5056  0.5471
  384MOL0     H50624   2.064   7.099  10.194  2.7916  0.6775  2.6497
  384MOL0     H50625   1.936   7.248   9.913 -0.1239 -0.1135  2.1920
  384MOL0     H50626   1.868   7.134  10.028  0.5742  0.8992 -0.0699
  384MOL0     H50627   1.881   7.068   9.733  1.7916 -0.0415  1.5400
  384MOL0     H50628   1.755   7.179   9.781  0.4406  0.5097 -2.7032
  384MOL0     H50629   1.789   6.889   9.881  0.3067 -0.2432 -0.7696
  384MOL0     H50630   1.704   6.947   9.742  1.6609 -3.0187 -0.3150
  384MOL0     H50631   1.645   7.022  10.047  0.1575  2.4142 -0.5112
  384MOL0     H50632   1.540   7.067   9.914 -0.5874 -0.8084 -1.6309
  384MOL0     H50633   1.455   6.857  10.011 -0.5604 -0.5408 -1.7067
  384MOL0     H50634   1.628   6.802  10.007  1.0320  0.8532  0.8937
  384MOL0     H50635   1.604   6.762   9.763 -0.3517 -1.3846  1.7543
  384MOL0     H50636   1.453   6.866   9.753 -0.2642  0.2156  1.1234
  384MOL0     H50637   1.456   6.637   9.918  2.7422 -2.4375 -2.2248
  384MOL0     H50638   1.320   6.729   9.838  0.2788 -1.4724  2.8901
  384MOL0     H50639   1.520   6.533   9.703  0.7717 -0.1444 -4.1999
  384MOL0     H50640   1.419   6.635   9.612  0.2999 -2.9180 -1.5034
  384MOL0     H50641   1.144   6.610   9.639 -0.9841 -0.7378 -1.3977
  384MOL0     H50642   0.906   6.474   9.672 -2.3850 -0.9126 -1.6261
  384MOL0     H50643   0.932   6.303   9.707  0.9245 -0.2288 -0.4487
  384MOL0     H50644   1.015   6.261   9.484 -0.7104 -0.1033 -0.4331
  384MOL0     H50645   0.984   6.429   9.434  1.1682 -0.2903 -1.2601
  384MOL0     H50646   0.810   6.274   9.367  0.1860 -0.7651 -0.7979
  384MOL0     H50647   0.790   6.223   9.532  2.4797 -0.1171 -0.1824
  384MOL0     H50648   0.621   6.379   9.430 -1.5307  0.4281  0.7009
  384MOL0     H50649   0.733   6.510   9.480 -2.1709  0.3727  0.7923
  384MOL0     H50650   0.527   6.637   9.501 -2.1679  0.9297 -0.5397
  384MOL0     H50651   0.313   6.711   9.564 -1.3037  0.8924  1.8420
  384MOL0     H50652   0.067   6.830   9.937  0.0816 -1.4053  0.3449
  384MOL0     H50653  -0.123   6.923  10.039 -1.1960 -0.0568  0.4030
  384MOL0     H50654  -0.490   6.656  10.150  0.1212 -0.1859 -0.4185
  384MOL0     H50655  -0.530   6.705   9.985  0.1311 -0.7155  0.3851
  384MOL0     H50656  -0.595   6.926  10.049 -3.1525  1.3353  1.9141
  384MOL0     H50657  -0.552   6.901  10.210 -1.6160  1.9098 -0.6576
  384MOL0     H50658  -0.708   6.732  10.241 -0.2203  0.5741  0.2600
  384MOL0     H50659  -0.776   6.744  10.081  1.2170  0.9920 -1.5114
  384MOL0     H50660  -0.807   6.907  10.327 -0.4677 -0.6192  0.0981
  384MOL0     H50661  -0.802   7.008  10.169  1.5004  0.7839  0.5339
  384MOL0     H50662  -0.963   6.764  10.239  2.2757 -0.6138 -0.8116
  384MOL0     H50663  -0.984   6.866  10.095 -1.5822 -0.6292  0.2762
  384MOL0     H50664  -1.152   6.884  10.295  1.0003 -0.2228  3.2096
  384MOL0     H50665  -1.105   7.027  10.192 -0.5264 -0.3042 -0.1207
  384MOL0     H50666  -1.008   6.967  10.466 -1.8108 -2.2951 -1.5553
  384MOL0     H50667  -0.941   7.100  10.367  0.3269 -0.9758  1.0765
  384MOL0     H50668  -1.250   7.079  10.412 -2.6332  4.6150 -0.0910
  384MOL0     H50669  -1.157   7.209  10.350  0.5939  1.1860  0.4971
  384MOL0     H50670  -0.351   6.571   9.938  2.0378 -2.8450  0.6142
  384MOL0     H50671  -0.157   6.469   9.868 -0.4681 -1.0725  1.4486
  384MOL0     H50672   0.288   6.416   9.880 -1.6060  0.8573 -0.2976
  384MOL0     H50673   0.486   6.341   9.825  1.9321  0.0549 -0.0037
  384MOL0     H50674   2.255   7.098   9.799 -0.4525  2.7440  0.1553
  384MOL0     H50675   2.467   7.129   9.911  0.4987 -0.9108  0.2863
  384MOL0     H50676   2.666   7.333  10.229  1.3236  0.6030 -0.5758
  384MOL0     H50677   2.844   7.439  10.328  3.1360 -1.4503 -1.0540
  384MOL0     H50678   3.101   7.341  10.422  0.3893  0.2926 -1.1155
  384MOL0     H50679   3.159   7.347  10.581  0.3299  1.0352 -1.7449
  384MOL0     H50680   3.032   7.596  10.579 -3.2663 -1.4681 -0.4425
  384MOL0     H50681   3.189   7.564  10.576  0.0988 -2.6533  1.9038
  384MOL0     H50682   3.008   7.565  10.326 -0.1641 -0.1356  0.2991
  384MOL0     H50683   3.190   7.543  10.317  1.1112  1.4461  1.0467
  384MOL0     H50684   3.131   7.758  10.240  0.5590 -4.4308 -0.6998
  384MOL0     H50685   3.024   7.796  10.373 -1.9228 -1.8404 -3.9572
  384MOL0     H50686   3.446   7.870  10.508  1.3553 -1.0913 -0.8468
  384MOL0     H50687   2.884   7.112  10.608 -0.8359  0.5472  0.0257
  384MOL0     H50688   2.686   6.992  10.486 -0.9956  1.0730  1.8223
  385MOL0     O50689  10.117   6.291   9.121 -0.1689  0.5498 -0.0723
  385MOL0     C50690  10.169   6.368   9.043  0.5412  0.2464  0.0857
  385MOL0     O50691  10.110   6.477   8.993  0.4617 -0.0073  0.1457
  385MOL0     C50692   9.997   6.529   9.048 -0.5352 -0.2421 -0.1710
  385MOL0     C50693   9.986   6.674   9.038 -0.3934 -0.4849  0.5175
  385MOL0     C50694   9.885   6.751   9.086  0.2122  0.0261  0.5641
  385MOL0     C50695   9.776   6.679   9.145 -0.0552 -0.0559 -0.2767
  385MOL0     O50696   9.666   6.756   9.183  0.1982 -0.1178  0.1383
  385MOL0     C50697   9.534   6.689   9.199 -0.5302  0.4302  1.1310
  385MOL0     C50698   9.427   6.785   9.231  0.2947 -0.2597 -0.5035
  385MOL0     C50699   9.433   6.919   9.149  0.0347 -0.2125  0.4171
  385MOL0     C50700   9.308   7.012   9.155  0.2267  0.1428  0.3218
  385MOL0     C50701   9.303   7.087   9.290 -0.1865 -0.0720 -0.4287
  385MOL0     C50702   9.165   7.143   9.318  0.4066 -0.1145 -0.1961
  385MOL0     C50703   9.175   7.257   9.427  0.6293  0.0673  0.0005
  385MOL0     C50704   9.234   7.225   9.563 -0.5638  0.2688 -0.7615
  385MOL0     N50705   9.122   7.184   9.658  0.0284 -0.0885 -0.3938
  385MOL0     C50706   9.026   7.250   9.727  0.6265  0.8175  0.0200
  385MOL0     C50707   8.942   7.160   9.794 -0.3767 -0.3841  0.1108
  385MOL0     C50708   8.826   7.186   9.887  0.3710 -0.5743 -0.1343
  385MOL0     C50709   8.863   7.232  10.025  0.2515 -0.2813 -0.5417
  385MOL0     C50710   8.794   7.162  10.144  0.0085  0.7062 -0.1881
  385MOL0     C50711   8.807   7.011  10.161 -0.8585 -0.5936 -0.1692
  385MOL0     O50712   8.762   6.962  10.283 -0.2259 -0.1008 -0.6634
  385MOL0     C50713   8.632   6.960  10.318  0.1662 -0.4390 -0.6370
  385MOL0     C50714   8.527   6.993  10.227 -0.5859  0.2934  0.6553
  385MOL0     C50715   8.394   6.969  10.248 -0.3137 -0.1515  0.2600
  385MOL0     C50716   8.352   6.935  10.382 -0.4229  0.2650  0.3999
  385MOL0     C50717   8.215   6.925  10.418 -0.1667 -0.3970 -0.9809
  385MOL0     O50718   8.142   7.000  10.338 -0.1552  0.6936  0.3928
  385MOL0     C50719   8.009   7.038  10.361  0.2701 -1.0694  0.3088
  385MOL0     C50720   7.936   7.090  10.249 -0.8640  0.5353 -0.9588
  385MOL0     C50721   7.800   7.106  10.249 -0.4110 -0.3892 -0.8963
  385MOL0     C50722   7.731   7.080  10.370 -0.2425 -0.0350  0.5955
  385MOL0     O50723   7.595   7.078  10.376  0.2856 -0.2542 -0.5778
  385MOL0     C50724   7.543   6.947  10.405 -0.5214 -0.6412  0.4165
  385MOL0     C50725   7.392   6.958  10.376  0.2672 -0.0132 -0.1378
  385MOL0     C50726   7.313   6.822  10.398  0.0292 -0.1580  0.1893
  385MOL0     C50727   7.171   6.824  10.327 -0.1165  0.0650  0.9253
  385MOL0     C50728   7.088   6.692  10.333 -0.2857  0.6361 -0.8122
  385MOL0     C50729   7.049   6.663  10.474 -0.8425  0.0195  0.0384
  385MOL0     C50730   6.984   6.521  10.473  0.3427  0.3465  0.3539
  385MOL0     C50731   6.923   6.473  10.601  1.0676 -0.5658  0.4383
  385MOL0    Cl50732   6.894   6.294  10.597  0.2776  0.4464 -0.2557
  385MOL0     C50733   7.799   7.040  10.487 -0.5743 -0.3048  0.1087
  385MOL0     C50734   7.937   7.020  10.479  0.1830 -0.4628  0.0178
  385MOL0     O50735   8.172   6.866  10.516 -0.1239  0.3518 -0.6320
  385MOL0     C50736   8.449   6.900  10.472  0.9337  0.0155 -0.2055
  385MOL0     C50737   8.584   6.916  10.438 -0.1881 -0.1521  0.0084
  385MOL0     N50738   8.985   7.036   9.757 -0.6991  0.1588 -0.2060
  385MOL0     N50739   9.090   7.055   9.684  0.7877  0.0013  0.2222
  385MOL0     C50740   9.781   6.540   9.162  0.3728 -0.2263 -0.1370
  385MOL0     C50741   9.890   6.469   9.117 -0.4940  0.2482 -0.2113
  385MOL0     C50742  10.312   6.352   9.012 -0.2154  0.2400 -1.1577
  385MOL0     C50743  10.379   6.452   8.939 -0.3700  0.6379  0.4414
  385MOL0     C50744  10.520   6.440   8.921  0.3834  0.0997  0.6631
  385MOL0     C50745  10.586   6.320   8.958  0.7053 -0.2796  0.4261
  385MOL0     O50746  10.715   6.293   8.912 -0.5356  0.1162  0.3002
  385MOL0     C50747  10.749   6.158   8.859  0.4436 -0.3734  0.6838
  385MOL0     C50748  10.645   6.092   8.755  0.2857  0.2513 -1.2638
  385MOL0     C50749  10.677   5.939   8.743  0.1271 -0.1584  0.5901
  385MOL0     C50750  10.592   5.871   8.632  0.3376  0.4790  0.2421
  385MOL0     C50751  10.594   5.930   8.502 -0.3668 -0.1951  0.8327
  385MOL0     C50752  10.609   5.978   8.390 -0.0020  0.0514 -0.1579
  385MOL0     C50753  10.520   6.229   9.037  0.0040  0.2865  0.3251
  385MOL0     C50754  10.383   6.243   9.057 -0.5574  0.8079  1.2425
  385MOL0     H50755  10.061   6.723   8.976  2.0187 -2.2575  1.8363
  385MOL0     H50756   9.893   6.858   9.069 -0.7029 -0.0519 -0.5140
  385MOL0     H50757   9.542   6.615   9.279  2.0669 -0.9009 -0.2271
  385MOL0     H50758   9.508   6.630   9.111 -1.4337  2.8822 -0.3366
  385MOL0     H50759   9.414   6.802   9.338  0.4947  0.6551 -0.6187
  385MOL0     H50760   9.341   6.726   9.197  0.1152  0.6038 -1.6038
  385MOL0     H50761   9.447   6.900   9.042  2.6584  0.3952  0.5949
  385MOL0     H50762   9.524   6.967   9.188  0.4200 -1.5251  1.1869
  385MOL0     H50763   9.308   7.086   9.075  2.2061 -0.0246  0.1189
  385MOL0     H50764   9.219   6.951   9.135  1.7053 -2.1804  0.4272
  385MOL0     H50765   9.375   7.170   9.287 -0.3775  0.1473  0.6218
  385MOL0     H50766   9.328   7.027   9.378  1.9538  1.1689 -0.1063
  385MOL0     H50767   9.097   7.061   9.343 -2.3116  1.2076 -2.6681
  385MOL0     H50768   9.124   7.193   9.230 -2.5247  0.6132  1.4353
  385MOL0     H50769   9.234   7.338   9.382  0.3969  0.3754  0.2432
  385MOL0     H50770   9.075   7.300   9.442  0.8922  0.1739  1.5794
  385MOL0     H50771   9.286   7.311   9.605 -0.9660  0.9105 -1.5424
  385MOL0     H50772   9.310   7.146   9.562  3.2032  3.6285 -1.6881
  385MOL0     H50773   9.008   7.355   9.743 -1.4229  0.6384 -0.8272
  385MOL0     H50774   8.754   7.104   9.896 -1.5110  1.1316  1.3342
  385MOL0     H50775   8.762   7.265   9.848  0.4181 -0.2755  0.3814
  385MOL0     H50776   8.833   7.336  10.034 -0.3475 -0.5352  0.5674
  385MOL0     H50777   8.971   7.235  10.037  0.1550 -0.7262  0.6084
  385MOL0     H50778   8.830   7.213  10.234  0.4048  0.6682 -0.3266
  385MOL0     H50779   8.687   7.179  10.129  0.1172  0.1198 -1.8356
  385MOL0     H50780   8.911   6.977  10.163 -0.6601 -0.1151 -1.3342
  385MOL0     H50781   8.767   6.963  10.071 -1.6242  0.2355 -0.2868
  385MOL0     H50782   8.547   7.034  10.128 -4.2248  1.0282  0.0780
  385MOL0     H50783   8.335   6.979  10.158 -0.8138 -0.4371  0.5502
  385MOL0     H50784   7.988   7.104  10.154 -1.0209 -2.5984 -1.6170
  385MOL0     H50785   7.759   7.147  10.157  1.7322  0.1204 -1.6639
  385MOL0     H50786   7.557   6.910  10.507 -3.4808 -2.5147  0.2491
  385MOL0     H50787   7.591   6.879  10.333  2.4010  0.7968  0.8402
  385MOL0     H50788   7.377   6.978  10.269 -1.8047 -0.6393  0.0066
  385MOL0     H50789   7.356   7.038  10.441  1.7706  1.4976 -1.0661
  385MOL0     H50790   7.320   6.797  10.504  1.6406  1.6247  0.5552
  385MOL0     H50791   7.387   6.754  10.354  1.5238  1.0554  0.7280
  385MOL0     H50792   7.113   6.903  10.375 -0.5366 -0.6709  1.6598
  385MOL0     H50793   7.180   6.867  10.227  3.2698  0.7029  1.3850
  385MOL0     H50794   7.141   6.604  10.296  0.4560  1.0637 -0.7915
  385MOL0     H50795   6.994   6.710  10.279  0.2868  2.2117 -1.3493
  385MOL0     H50796   6.975   6.741  10.493 -1.0147 -0.3418  0.8840
  385MOL0     H50797   7.128   6.669  10.550  1.9001 -0.0244 -2.6022
  385MOL0     H50798   6.910   6.523  10.393  0.8887  1.7077 -0.1400
  385MOL0     H50799   7.061   6.448  10.449 -0.6527 -0.6567  0.1323
  385MOL0     H50800   6.840   6.533  10.638  1.9854 -1.0329  3.5801
  385MOL0     H50801   7.004   6.490  10.673 -1.1609 -1.0999  3.2400
  385MOL0     H50802   7.757   7.015  10.584  0.8840  2.8964  1.7536
  385MOL0     H50803   7.989   6.988  10.569 -1.4482  0.6150  1.4167
  385MOL0     H50804   8.431   6.862  10.572 -1.3146  0.7472 -0.2821
  385MOL0     H50805   8.655   6.891  10.516 -2.1083 -0.7535  1.6525
  385MOL0     H50806   9.694   6.485   9.197 -0.8522  2.2891  1.0653
  385MOL0     H50807   9.877   6.362   9.131  2.1893 -0.5238 -2.6972
  385MOL0     H50808  10.327   6.542   8.911 -0.9008 -0.5167 -2.6375
  385MOL0     H50809  10.572   6.510   8.856  1.4151 -1.7686 -0.5993
  385MOL0     H50810  10.766   6.084   8.938 -1.0211  2.4513  3.9020
  385MOL0     H50811  10.842   6.177   8.804  0.0266  0.6470  0.3025
  385MOL0     H50812  10.550   6.116   8.802  2.8669  1.6460  4.0556
  385MOL0     H50813  10.653   6.135   8.655 -0.0419  0.7598 -1.0733
  385MOL0     H50814  10.652   5.889   8.836  0.3391  0.9654  1.2702
  385MOL0     H50815  10.784   5.927   8.721  0.1298  0.5382  0.1860
  385MOL0     H50816  10.625   5.767   8.625  1.6838  0.9418 -0.8646
  385MOL0     H50817  10.487   5.866   8.662 -0.8454 -1.3898 -3.4933
  385MOL0     H50818  10.604   6.025   8.294 -0.4452 -0.7528 -0.5384
  385MOL0     H50819  10.576   6.144   9.074  2.2202  1.4837 -0.1325
  385MOL0     H50820  10.340   6.160   9.113 -3.9955  1.7944  0.2994
  386MOL0     O50821   7.059   4.581   5.435  0.0705  0.4543 -0.0365
  386MOL0     C50822   7.135   4.487   5.466  0.6031  0.4106 -0.1024
  386MOL0     O50823   7.109   4.355   5.446 -0.5554  0.6161  0.0076
  386MOL0     C50824   6.990   4.328   5.388 -0.0145  0.1721 -0.0066
  386MOL0     C50825   6.877   4.312   5.474 -0.1850  1.2337 -0.0422
  386MOL0     C50826   6.761   4.260   5.432  0.7600 -0.1619  0.5143
  386MOL0     C50827   6.732   4.243   5.299 -0.4057  0.7234  0.7232
  386MOL0     O50828   6.610   4.208   5.245 -0.1809  0.2516  0.0455
  386MOL0     C50829   6.523   4.125   5.317 -0.0379 -0.3589 -0.3993
  386MOL0     C50830   6.583   3.987   5.353 -0.2688  0.1717  0.0963
  386MOL0     C50831   6.478   3.919   5.437  0.3064 -0.3691 -0.4876
  386MOL0     C50832   6.506   3.776   5.472  0.9735  1.2802  0.3973
  386MOL0     C50833   6.639   3.743   5.548  0.4041  0.7602  0.2275
  386MOL0     C50834   6.762   3.722   5.447  0.2769  0.1917  0.0071
  386MOL0     C50835   6.867   3.644   5.534  0.7234 -0.2700  0.2483
  386MOL0     C50836   6.998   3.633   5.449  0.8693 -0.0639  0.5450
  386MOL0     N50837   7.102   3.549   5.505 -0.2845 -0.5265  0.1219
  386MOL0     C50838   7.223   3.595   5.551  0.5057  0.3594 -0.4274
  386MOL0     C50839   7.289   3.475   5.579 -0.4430  0.4706 -0.3136
  386MOL0     C50840   7.423   3.469   5.644  0.0875  0.8378 -0.0358
  386MOL0     C50841   7.540   3.461   5.541 -0.0235 -0.0851  0.5529
  386MOL0     C50842   7.531   3.332   5.459 -0.2771 -0.1275 -0.0649
  386MOL0     C50843   7.646   3.321   5.350 -0.7853  0.2929 -0.0238
  386MOL0     O50844   7.642   3.203   5.274  0.3307  0.6393 -0.2670
  386MOL0     C50845   7.749   3.192   5.197 -0.2121 -0.2823  0.1523
  386MOL0     C50846   7.795   3.060   5.180 -1.0006 -0.2582 -0.2073
  386MOL0     C50847   7.896   3.034   5.091  0.1132  0.1820  0.2985
  386MOL0     C50848   7.966   3.132   5.029  0.2022 -0.1658 -0.0924
  386MOL0     C50849   8.083   3.105   4.939  0.6696 -0.6797  0.0078
  386MOL0     O50850   8.096   2.979   4.885  0.2722  0.6082 -0.2154
  386MOL0     C50851   8.201   2.948   4.802  0.1428 -0.8967 -1.2000
  386MOL0     C50852   8.178   2.892   4.678 -1.1601  0.4560  0.6515
  386MOL0     C50853   8.279   2.861   4.585  0.4304 -0.4886  0.6513
  386MOL0     C50854   8.411   2.873   4.626 -0.9519  0.4168 -0.2670
  386MOL0     O50855   8.520   2.834   4.557  0.4491 -0.2030 -0.1379
  386MOL0     C50856   8.513   2.809   4.415  0.2686 -0.1549  0.6748
  386MOL0     C50857   8.652   2.788   4.356  0.0955  0.0208  0.2258
  386MOL0     C50858   8.707   2.652   4.399  0.1324 -0.3426 -1.2784
  386MOL0     C50859   8.833   2.622   4.312  0.8755 -1.3879 -0.9582
  386MOL0     C50860   8.895   2.485   4.347 -0.1100 -0.2265  0.1535
  386MOL0     C50861   9.013   2.452   4.255  0.3898  0.3978  0.1220
  386MOL0     C50862   9.154   2.508   4.296  0.1859  0.1729 -0.1459
  386MOL0     C50863   9.264   2.505   4.187 -0.3024 -0.2344 -0.4319
  386MOL0    Cl50864   9.426   2.566   4.241  0.1745  0.1484 -0.0069
  386MOL0     C50865   8.436   2.919   4.759 -0.3302 -0.3013 -0.2312
  386MOL0     C50866   8.332   2.967   4.842 -0.1420 -0.1867  0.1957
  386MOL0     O50867   8.156   3.196   4.920  0.2798 -0.4818 -0.1108
  386MOL0     C50868   7.923   3.263   5.042 -0.1563  0.4973  0.1400
  386MOL0     C50869   7.815   3.293   5.122  0.4592 -0.1818  0.1358
  386MOL0     N50870   7.213   3.366   5.550  0.6868 -0.4010 -0.2069
  386MOL0     N50871   7.100   3.409   5.514  1.1607  0.0324  0.0493
  386MOL0     C50872   6.836   4.284   5.208 -0.1771 -0.9005 -0.3490
  386MOL0     C50873   6.963   4.321   5.256  0.1991 -0.2639 -0.2653
  386MOL0     C50874   7.271   4.532   5.505  0.2376 -0.0825 -0.0343
  386MOL0     C50875   7.302   4.670   5.513 -0.0310 -0.5205 -0.1278
  386MOL0     C50876   7.423   4.713   5.560 -0.3886  0.4141  0.0144
  386MOL0     C50877   7.531   4.622   5.568 -0.1640 -0.9979 -0.8392
  386MOL0     O50878   7.663   4.667   5.592  0.3268 -0.0934  0.8169
  386MOL0     C50879   7.752   4.576   5.667  0.2089 -1.0896  0.0010
  386MOL0     C50880   7.892   4.634   5.668  0.4245 -0.8925  0.0911
  386MOL0     C50881   7.970   4.593   5.544  0.2627  0.0888  0.8091
  386MOL0     C50882   8.119   4.655   5.553  0.7059 -0.1509  0.5005
  386MOL0     C50883   8.208   4.585   5.642 -0.8596 -0.2065 -0.3612
  386MOL0     C50884   8.275   4.523   5.730 -0.0024 -0.0101  0.4605
  386MOL0     C50885   7.500   4.486   5.541 -0.2641  0.1487 -0.5731
  386MOL0     C50886   7.372   4.440   5.510 -0.3975 -0.6335  0.0503
  386MOL0     H50887   6.895   4.323   5.581  2.4184  0.6300 -0.3513
  386MOL0     H50888   6.686   4.250   5.509 -0.4287 -2.5202 -0.8385
  386MOL0     H50889   6.433   4.110   5.258  0.4025  1.0455 -1.4919
  386MOL0     H50890   6.501   4.175   5.412  1.6181 -1.8174  0.8295
  386MOL0     H50891   6.676   3.990   5.411  0.7781 -1.8098 -1.3318
  386MOL0     H50892   6.602   3.923   5.266  0.6181 -0.3155  0.6255
  386MOL0     H50893   6.384   3.943   5.386  0.5497  1.6944 -0.0665
  386MOL0     H50894   6.475   3.968   5.534 -0.5150 -0.6334 -0.3742
  386MOL0     H50895   6.433   3.738   5.543  1.2626 -2.0316 -0.8985
  386MOL0     H50896   6.497   3.711   5.385  0.2765 -3.9403  3.8787
  386MOL0     H50897   6.627   3.659   5.617 -2.5129  0.3390 -0.6330
  386MOL0     H50898   6.665   3.831   5.608 -1.1574  1.1157  0.4327
  386MOL0     H50899   6.806   3.816   5.412  1.2471  0.4364  1.7851
  386MOL0     H50900   6.740   3.659   5.361  0.3305  1.8648 -1.2956
  386MOL0     H50901   6.887   3.700   5.625 -2.8249  1.6669  0.0398
  386MOL0     H50902   6.837   3.541   5.555 -3.5082  0.6435 -0.3091
  386MOL0     H50903   7.031   3.737   5.439 -0.6307  0.7040  2.6783
  386MOL0     H50904   6.984   3.603   5.345 -0.4826 -1.2041  1.0220
  386MOL0     H50905   7.256   3.696   5.572 -1.5878  0.6583  1.8270
  386MOL0     H50906   7.426   3.377   5.702  0.5128  1.0600  0.3060
  386MOL0     H50907   7.432   3.557   5.709 -1.3223  1.1648 -0.2492
  386MOL0     H50908   7.640   3.467   5.585 -0.0612 -0.4958  0.6924
  386MOL0     H50909   7.521   3.547   5.476 -3.2088 -0.9301  0.1808
  386MOL0     H50910   7.545   3.259   5.540  2.9199 -0.3225 -0.6652
  386MOL0     H50911   7.435   3.326   5.407 -0.1088  0.9986 -0.5312
  386MOL0     H50912   7.740   3.326   5.404 -1.5441  1.0028  1.2852
  386MOL0     H50913   7.645   3.413   5.291  1.5208  2.1109  2.5143
  386MOL0     H50914   7.751   2.968   5.217  0.1487 -0.6912  0.1205
  386MOL0     H50915   7.932   2.932   5.084  1.0020  0.1654  3.6399
  386MOL0     H50916   8.076   2.870   4.649 -0.2317 -1.7430 -1.2896
  386MOL0     H50917   8.246   2.836   4.485 -0.6985 -1.7948  1.3114
  386MOL0     H50918   8.453   2.892   4.377  0.6729  0.3688  1.1506
  386MOL0     H50919   8.450   2.722   4.395  1.5619 -1.4339  1.8601
  386MOL0     H50920   8.719   2.873   4.375  0.4082 -0.3258  0.6993
  386MOL0     H50921   8.623   2.781   4.250 -2.2336 -0.6801  0.8402
  386MOL0     H50922   8.629   2.576   4.388  0.7800 -0.9524 -1.7167
  386MOL0     H50923   8.738   2.650   4.504 -1.4660  0.6291 -0.7631
  386MOL0     H50924   8.807   2.627   4.206  0.8798 -0.5395 -0.9290
  386MOL0     H50925   8.913   2.695   4.328 -0.8142  1.1734 -3.1522
  386MOL0     H50926   8.809   2.420   4.328 -1.1535  1.4794 -1.2695
  386MOL0     H50927   8.918   2.479   4.454 -0.4861  2.4751  0.4531
  386MOL0     H50928   8.997   2.485   4.152  1.5478  0.2284 -0.1301
  386MOL0     H50929   9.017   2.343   4.259 -1.4707  0.2856 -0.5291
  386MOL0     H50930   9.154   2.609   4.338  0.1605  0.8048 -1.6132
  386MOL0     H50931   9.189   2.438   4.373 -1.5090  0.1838  0.6741
  386MOL0     H50932   9.229   2.564   4.103  3.5072  1.1244 -1.2920
  386MOL0     H50933   9.279   2.403   4.150 -0.6302 -0.3160 -0.3431
  386MOL0     H50934   8.541   2.921   4.786  0.0427 -0.1934 -1.5732
  386MOL0     H50935   8.348   3.019   4.936 -3.0042  0.6520  0.3230
  386MOL0     H50936   7.988   3.337   4.996  1.1520  0.3691  1.6845
  386MOL0     H50937   7.785   3.397   5.127 -0.8851 -0.5075 -0.6632
  386MOL0     H50938   6.812   4.293   5.102  0.5098  0.2838 -0.4248
  386MOL0     H50939   7.046   4.362   5.200 -1.2241  0.8013 -1.6579
  386MOL0     H50940   7.223   4.739   5.487  0.1544 -1.5821 -4.0882
  386MOL0     H50941   7.438   4.817   5.585  0.3648 -0.3090  2.9035
  386MOL0     H50942   7.752   4.472   5.635  1.7075 -1.5251  1.2942
  386MOL0     H50943   7.717   4.582   5.771 -0.4251  0.3461 -0.2586
  386MOL0     H50944   7.885   4.743   5.679 -1.5770 -1.0517  0.7534
  386MOL0     H50945   7.945   4.592   5.754 -1.2310  0.6143  1.9319
  386MOL0     H50946   7.923   4.634   5.455  2.0885  0.0460 -0.2270
  386MOL0     H50947   7.979   4.485   5.533  1.2374  0.1744  0.6402
  386MOL0     H50948   8.162   4.659   5.453  0.1041  1.9601  0.2762
  386MOL0     H50949   8.107   4.761   5.577 -1.3133 -0.6153  1.7839
  386MOL0     H50950   8.361   4.485   5.779  0.8960 -1.5804 -2.1178
  386MOL0     H50951   7.574   4.407   5.533  0.1897  0.6859 -1.8845
  386MOL0     H50952   7.371   4.334   5.487  4.8427 -0.7595 -0.7629
  387MOL0     O50953   0.103   4.345   0.402 -0.6075  0.3064  0.2241
  387MOL0     C50954   0.058   4.452   0.373  0.3239 -0.8688  1.1501
  387MOL0     O50955  -0.034   4.530   0.436 -0.0322  0.0361 -0.1249
  387MOL0     C50956  -0.070   4.502   0.572 -0.0111  0.1393  0.2512
  387MOL0     C50957  -0.038   4.382   0.647 -0.7055  0.4499  0.4545
  387MOL0     C50958  -0.081   4.358   0.776  0.2725  0.0068  1.0234
  387MOL0     C50959  -0.162   4.460   0.840 -0.7397  0.4966  0.2531
  387MOL0     O50960  -0.212   4.441   0.968 -0.3877 -0.4116 -0.8954
  387MOL0     C50961  -0.150   4.344   1.051 -0.4150 -0.9642  0.4472
  387MOL0     C50962  -0.237   4.305   1.171  0.5739 -0.0111 -0.1345
  387MOL0     C50963  -0.370   4.227   1.137  0.6042 -0.7635 -0.4360
  387MOL0     C50964  -0.414   4.149   1.261 -0.3557  0.0247 -0.3039
  387MOL0     C50965  -0.541   4.062   1.251  0.2773  0.7441 -0.5827
  387MOL0     C50966  -0.669   4.144   1.292 -0.1779 -0.5348 -0.4486
  387MOL0     C50967  -0.797   4.061   1.291  0.3570 -0.2781  0.6415
  387MOL0     C50968  -0.932   4.133   1.304 -0.3195  0.1557  0.0598
  387MOL0     N50969  -1.051   4.041   1.309 -0.1575 -0.4292  0.0255
  387MOL0     C50970  -1.175   4.083   1.356 -0.1818 -0.7363  0.0370
  387MOL0     C50971  -1.254   3.976   1.334  0.5176  0.3766 -0.6990
  387MOL0     C50972  -1.401   3.961   1.382  0.1839 -0.1699  0.4620
  387MOL0     C50973  -1.493   4.078   1.337 -0.0676  0.1153 -0.4425
  387MOL0     C50974  -1.532   4.068   1.187  0.4881 -0.1499 -0.5197
  387MOL0     C50975  -1.622   4.185   1.147  0.4433 -0.2920  0.1096
  387MOL0     O50976  -1.749   4.167   1.217  0.2315  0.3142 -0.8462
  387MOL0     C50977  -1.860   4.250   1.210  0.6123 -0.1996 -0.1712
  387MOL0     C50978  -1.976   4.199   1.271 -0.6235  1.3317  0.8344
  387MOL0     C50979  -2.097   4.270   1.266 -0.2492 -0.0493 -0.0847
  387MOL0     C50980  -2.099   4.402   1.209 -0.5607  0.0072 -0.1038
  387MOL0     C50981  -2.231   4.474   1.205  0.0137 -1.0747  0.2217
  387MOL0     O50982  -2.320   4.434   1.296  0.6059  0.7161 -0.1114
  387MOL0     C50983  -2.438   4.510   1.309  0.5302 -0.3087 -0.9896
  387MOL0     C50984  -2.433   4.628   1.386 -0.0165 -1.1136  0.2943
  387MOL0     C50985  -2.539   4.711   1.399  0.2333  0.0990 -0.0070
  387MOL0     C50986  -2.668   4.676   1.350 -0.4640  0.6416  0.5722
  387MOL0     O50987  -2.771   4.759   1.382  0.0238  0.7081 -0.2472
  387MOL0     C50988  -2.891   4.754   1.302 -0.0983  0.2195 -0.1527
  387MOL0     C50989  -2.970   4.875   1.339  0.5848 -0.6610  0.4722
  387MOL0     C50990  -2.928   4.992   1.259  0.3957 -0.5614 -0.1997
  387MOL0     C50991  -3.008   5.109   1.292  0.8427 -0.1975 -0.0676
  387MOL0     C50992  -3.150   5.110   1.248 -0.1775  1.2717 -0.5993
  387MOL0     C50993  -3.214   5.233   1.211  0.6466  0.1192  0.5192
  387MOL0     C50994  -3.371   5.222   1.178  1.1355 -0.9494 -0.0851
  387MOL0     C50995  -3.447   5.347   1.134  0.1923  0.1057 -0.6310
  387MOL0    Cl50996  -3.625   5.327   1.143 -0.2057  0.2752 -0.2266
  387MOL0     C50997  -2.682   4.537   1.303  0.0170 -0.3567  0.3692
  387MOL0     C50998  -2.568   4.463   1.278 -0.9077  0.1193 -0.0625
  387MOL0     O50999  -2.242   4.573   1.130  0.4494 -0.3849  0.0915
  387MOL0     C51000  -1.981   4.447   1.143 -0.1796  0.1997  0.6343
  387MOL0     C51001  -1.866   4.377   1.138  0.2567  0.7589  0.3421
  387MOL0     N51002  -1.191   3.882   1.264 -0.6037  0.7541 -0.2045
  387MOL0     N51003  -1.065   3.918   1.251  0.2907 -0.6701 -0.2524
  387MOL0     C51004  -0.193   4.576   0.775  0.9170  0.6481  0.3435
  387MOL0     C51005  -0.151   4.597   0.640 -0.9199  0.4166 -0.7912
  387MOL0     C51006   0.095   4.517   0.245 -0.7177  0.3096  0.5100
  387MOL0     C51007   0.079   4.647   0.220 -0.0390 -0.5701  0.2704
  387MOL0     C51008   0.098   4.703   0.089  0.3499  0.5043  0.0281
  387MOL0     C51009   0.161   4.629  -0.011 -0.1510  0.4028  1.1269
  387MOL0     O51010   0.172   4.690  -0.140 -0.2197  0.3375  0.3583
  387MOL0     C51011   0.196   4.615  -0.258 -0.9925 -0.0497  0.6279
  387MOL0     C51012   0.339   4.658  -0.303 -0.0028  0.7524  0.1134
  387MOL0     C51013   0.378   4.587  -0.430 -0.0350 -0.3916  0.1405
  387MOL0     C51014   0.521   4.619  -0.473 -0.3317  0.6816 -0.2716
  387MOL0     C51015   0.566   4.552  -0.602 -0.1882 -0.0802  0.0976
  387MOL0     C51016   0.606   4.490  -0.698 -0.3586 -1.1350  0.4364
  387MOL0     C51017   0.184   4.489   0.016 -0.4518  0.7047 -0.5674
  387MOL0     C51018   0.140   4.432   0.140 -0.4872 -0.2882 -0.1775
  387MOL0     H51019   0.018   4.300   0.603 -0.0044  0.7508  0.7702
  387MOL0     H51020  -0.050   4.259   0.810  1.2443  0.1975  0.7206
  387MOL0     H51021  -0.052   4.381   1.081  1.5987 -3.1701 -2.8396
  387MOL0     H51022  -0.134   4.247   1.004 -0.5231 -0.6192 -0.3113
  387MOL0     H51023  -0.253   4.406   1.210 -0.1809  0.2161 -0.9804
  387MOL0     H51024  -0.184   4.233   1.234 -0.7733  0.1610  1.2261
  387MOL0     H51025  -0.365   4.161   1.050 -3.7687 -2.8397  0.6152
  387MOL0     H51026  -0.443   4.303   1.109  0.5909 -0.7471 -0.3576
  387MOL0     H51027  -0.333   4.076   1.259 -0.8732 -0.6534 -3.8240
  387MOL0     H51028  -0.426   4.213   1.349  1.7181  0.7039 -0.4590
  387MOL0     H51029  -0.531   3.971   1.310 -2.6428 -0.1819 -1.3816
  387MOL0     H51030  -0.535   4.028   1.147  0.4873  1.4452 -0.8076
  387MOL0     H51031  -0.694   4.221   1.219 -1.0346  1.3508  1.7026
  387MOL0     H51032  -0.655   4.186   1.392 -2.0881  0.3041 -0.4860
  387MOL0     H51033  -0.791   3.997   1.203 -1.7232  0.5601 -0.1887
  387MOL0     H51034  -0.792   3.988   1.373  0.7827  0.8515  1.6575
  387MOL0     H51035  -0.929   4.203   1.220  3.0560 -2.3251 -2.1276
  387MOL0     H51036  -0.932   4.184   1.401  1.9233 -0.2290  0.3105
  387MOL0     H51037  -1.192   4.175   1.411  1.3534 -0.1731 -0.3743
  387MOL0     H51038  -1.409   3.964   1.491  1.4034  0.7968  0.5425
  387MOL0     H51039  -1.438   3.867   1.339  0.1851 -0.3424  0.8267
  387MOL0     H51040  -1.447   4.173   1.365  5.1384 -1.7053 -1.6511
  387MOL0     H51041  -1.587   4.053   1.386 -0.7586 -3.5281 -3.2253
  387MOL0     H51042  -1.449   4.077   1.116 -0.3252  0.0191 -1.4660
  387MOL0     H51043  -1.584   3.975   1.165 -2.3742  0.5502  2.4948
  387MOL0     H51044  -1.646   4.199   1.041  1.7192 -2.0238 -0.4646
  387MOL0     H51045  -1.577   4.280   1.174  0.3981 -0.1799 -0.2025
  387MOL0     H51046  -1.977   4.102   1.319  0.1941  1.6735  1.5570
  387MOL0     H51047  -2.189   4.223   1.302 -0.0738 -2.2542 -2.2563
  387MOL0     H51048  -2.340   4.663   1.431 -1.2243  0.3588  1.7748
  387MOL0     H51049  -2.520   4.802   1.455  0.0580  0.4731 -0.5466
  387MOL0     H51050  -2.943   4.664   1.338  4.0615 -1.3803  2.6217
  387MOL0     H51051  -2.876   4.742   1.194  0.5603 -1.9619  0.1247
  387MOL0     H51052  -2.971   4.889   1.447 -2.5837  0.3966  0.4408
  387MOL0     H51053  -3.072   4.860   1.302 -0.0695  2.1578  0.8757
  387MOL0     H51054  -2.940   4.965   1.154 -1.0650 -2.5758  0.4286
  387MOL0     H51055  -2.824   5.022   1.274 -0.3065  0.8501  2.4878
  387MOL0     H51056  -3.002   5.114   1.401 -1.8496 -4.0508  0.4489
  387MOL0     H51057  -2.965   5.194   1.238 -0.9392  1.7255  1.3654
  387MOL0     H51058  -3.217   5.058   1.316 -0.8937  2.9733  0.0388
  387MOL0     H51059  -3.147   5.051   1.155  0.8949  0.1233  0.1290
  387MOL0     H51060  -3.169   5.284   1.126 -3.0281 -0.2319 -1.8213
  387MOL0     H51061  -3.209   5.294   1.302  1.3838 -0.8653  1.1691
  387MOL0     H51062  -3.390   5.153   1.096  0.0285 -3.2141  1.9360
  387MOL0     H51063  -3.428   5.180   1.262 -2.4396 -1.3995 -2.5429
  387MOL0     H51064  -3.402   5.373   1.038 -0.6843  0.0884 -1.0494
  387MOL0     H51065  -3.434   5.435   1.199  0.5846 -1.0834  0.9855
  387MOL0     H51066  -2.781   4.494   1.287  0.0663 -0.2449 -0.2594
  387MOL0     H51067  -2.569   4.366   1.230  1.3952  1.4131 -3.0639
  387MOL0     H51068  -1.986   4.535   1.080 -3.1287 -0.7225 -0.6079
  387MOL0     H51069  -1.787   4.405   1.068 -0.7510  2.8924 -0.0154
  387MOL0     H51070  -0.244   4.651   0.835  2.7318  0.3273  2.4188
  387MOL0     H51071  -0.181   4.688   0.590  0.2502  1.6109  0.5923
  387MOL0     H51072   0.039   4.716   0.293 -2.0391 -2.1369  0.7465
  387MOL0     H51073   0.087   4.810   0.081  0.7145  0.6100  0.8160
  387MOL0     H51074   0.135   4.648  -0.343  0.4358  1.9365  0.2842
  387MOL0     H51075   0.190   4.508  -0.238  0.4995 -0.5381 -1.2513
  387MOL0     H51076   0.331   4.767  -0.315 -1.2401  0.9040  1.8330
  387MOL0     H51077   0.403   4.635  -0.218  0.2973 -1.7105 -0.7214
  387MOL0     H51078   0.301   4.620  -0.499  1.1178  1.0726 -0.4834
  387MOL0     H51079   0.370   4.478  -0.418  0.3296 -0.2517  2.1011
  387MOL0     H51080   0.520   4.724  -0.503 -1.8876 -0.1619 -3.6654
  387MOL0     H51081   0.593   4.609  -0.390  1.3125  2.3479 -1.4210
  387MOL0     H51082   0.630   4.418  -0.773  2.7293 -2.7887  2.7793
  387MOL0     H51083   0.223   4.414  -0.052 -0.1990 -0.3724  0.7462
  387MOL0     H51084   0.127   4.325   0.153  1.4143 -0.4752  0.3723
  388MOL0     O51085   6.189  10.842   3.661  1.0668  0.2196 -0.7307
  388MOL0     C51086   6.168  10.905   3.555 -0.6641  0.1140 -0.0289
  388MOL0     O51087   6.063  10.887   3.472 -0.3970 -0.5399  0.6819
  388MOL0     C51088   5.940  10.845   3.512  0.3827  0.1684  0.2576
  388MOL0     C51089   5.849  10.794   3.417 -0.2552  0.7803  0.1157
  388MOL0     C51090   5.722  10.752   3.462  0.1829 -0.6763  0.3842
  388MOL0     C51091   5.677  10.766   3.594 -0.1606 -0.6294  1.3260
  388MOL0     O51092   5.547  10.740   3.650 -0.4580 -0.0290  0.3861
  388MOL0     C51093   5.448  10.683   3.568  0.7146 -0.4521 -0.3974
  388MOL0     C51094   5.359  10.605   3.670  1.0588 -0.5120 -0.4887
  388MOL0     C51095   5.247  10.521   3.600  0.8717  0.1457 -0.1007
  388MOL0     C51096   5.168  10.445   3.703 -0.1718 -0.7978 -0.2224
  388MOL0     C51097   5.034  10.380   3.647 -0.6323  0.4616  0.4058
  388MOL0     C51098   4.980  10.285   3.754 -0.2005 -0.1523  0.7166
  388MOL0     C51099   4.826  10.264   3.754 -0.0786  0.6241 -0.8871
  388MOL0     C51100   4.779  10.220   3.617 -0.3714  0.1416 -1.0738
  388MOL0     N51101   4.631  10.211   3.602  0.9641  1.0619  0.8126
  388MOL0     C51102   4.560  10.097   3.573 -0.4818  0.0180  0.6453
  388MOL0     C51103   4.436  10.141   3.544  0.2385 -0.0410 -0.4068
  388MOL0     C51104   4.307  10.049   3.531 -0.7928  0.5230  0.2276
  388MOL0     C51105   4.175  10.123   3.505 -0.3655  0.3088  0.3087
  388MOL0     C51106   4.166  10.186   3.366  0.4783  0.2953  0.8967
  388MOL0     C51107   4.034  10.259   3.343 -0.7421 -0.0824  0.6564
  388MOL0     O51108   3.927  10.161   3.320 -0.7607 -0.5623  0.1892
  388MOL0     C51109   3.848  10.174   3.215  1.0639  0.7901  0.5835
  388MOL0     C51110   3.877  10.211   3.084 -0.4435  0.3259  0.8027
  388MOL0     C51111   3.775  10.239   2.985 -0.4070 -0.3688 -0.1451
  388MOL0     C51112   3.641  10.226   3.010 -0.0858 -0.2122 -0.2761
  388MOL0     C51113   3.536  10.251   2.918 -0.1065  0.0169  0.2785
  388MOL0     O51114   3.408  10.211   2.943 -0.1951  0.2117 -0.2621
  388MOL0     C51115   3.313  10.241   2.843 -0.4731 -0.6608 -0.1892
  388MOL0     C51116   3.279  10.382   2.823  0.9079  0.5444 -0.1746
  388MOL0     C51117   3.170  10.408   2.734 -0.1279  0.9074 -0.9989
  388MOL0     C51118   3.109  10.305   2.655 -0.2548 -0.5629  0.6559
  388MOL0     O51119   3.000  10.325   2.573  0.1646 -0.5203  0.4727
  388MOL0     C51120   2.996  10.447   2.486  0.5582 -0.3682  0.0398
  388MOL0     C51121   2.914  10.417   2.363  0.6223  0.6788  1.0290
  388MOL0     C51122   2.909  10.544   2.279 -0.5210  0.3288 -0.6349
  388MOL0     C51123   2.860  10.517   2.133  0.6480 -1.0031  0.4747
  388MOL0     C51124   2.850  10.641   2.042 -0.5989  1.0857  0.6874
  388MOL0     C51125   2.989  10.708   2.031  0.2606  0.2832 -0.5152
  388MOL0     C51126   2.995  10.792   1.904  0.0533  0.9069 -0.2798
  388MOL0     C51127   3.121  10.881   1.908  0.8705 -0.3627  0.8353
  388MOL0    Cl51128   3.271  10.781   1.886  0.3339  0.1339  0.4819
  388MOL0     C51129   3.144  10.175   2.683  0.2799 -0.1204 -0.6817
  388MOL0     C51130   3.239  10.137   2.776 -0.6392 -0.1653 -0.7812
  388MOL0     O51131   3.572  10.281   2.806 -0.5628  0.3983 -0.2097
  388MOL0     C51132   3.615  10.181   3.134 -0.5718 -0.2192  0.0476
  388MOL0     C51133   3.715  10.148   3.236  0.0941  0.4596  0.6246
  388MOL0     N51134   4.438  10.276   3.550  0.0102 -0.8076  0.0251
  388MOL0     N51135   4.554  10.325   3.579 -0.0336 -0.3579  0.4605
  388MOL0     C51136   5.768  10.818   3.687 -0.7005 -0.2017 -0.3810
  388MOL0     C51137   5.894  10.854   3.652 -0.2736  0.2025  0.1437
  388MOL0     C51138   6.285  10.989   3.498 -0.2208  0.0553 -0.4241
  388MOL0     C51139   6.262  11.047   3.366  0.5252 -0.7074  0.1141
  388MOL0     C51140   6.364  11.122   3.315 -0.6653 -0.5264  0.3274
  388MOL0     C51141   6.481  11.143   3.396  0.2162  0.1822  0.7663
  388MOL0     O51142   6.571  11.222   3.334  0.2318  0.4465 -0.0271
  388MOL0     C51143   6.645  11.318   3.403  0.3956  0.1298 -0.1902
  388MOL0     C51144   6.544  11.417   3.462  0.8267  0.3375  0.8506
  388MOL0     C51145   6.612  11.517   3.556 -0.2856 -0.3160  0.1195
  388MOL0     C51146   6.716  11.615   3.478  0.2078  0.1865  0.6073
  388MOL0     C51147   6.855  11.586   3.529 -0.3213 -0.2823 -0.7316
  388MOL0     C51148   6.974  11.572   3.560 -0.2373 -0.3429  0.7779
  388MOL0     C51149   6.495  11.098   3.532  0.5852  0.0782 -0.3391
  388MOL0     C51150   6.391  11.031   3.589  0.7290  0.3100  0.0412
  388MOL0     H51151   5.878  10.801   3.313 -2.3871  1.3714 -0.4875
  388MOL0     H51152   5.657  10.701   3.391  0.6690 -2.9556  1.4770
  388MOL0     H51153   5.496  10.615   3.497 -0.4862 -0.0362 -1.6459
  388MOL0     H51154   5.393  10.754   3.506  1.9701  0.5838 -0.3638
  388MOL0     H51155   5.297  10.666   3.737 -0.4755 -2.9147  0.4500
  388MOL0     H51156   5.415  10.535   3.732 -0.3219 -2.4562 -1.3332
  388MOL0     H51157   5.283  10.443   3.532 -2.2314 -1.3887 -0.1752
  388MOL0     H51158   5.178  10.589   3.548 -0.8353  0.1158  1.9806
  388MOL0     H51159   5.232  10.376   3.759 -2.1494 -2.6695 -0.1405
  388MOL0     H51160   5.144  10.512   3.787  4.7899 -0.6088  1.4176
  388MOL0     H51161   5.061  10.324   3.557  1.5875 -0.1565  1.3760
  388MOL0     H51162   4.963  10.461   3.628 -0.8446 -0.0640 -1.2254
  388MOL0     H51163   5.006  10.337   3.847 -0.0950 -1.1914  1.2763
  388MOL0     H51164   5.025  10.187   3.742 -1.8159 -1.0667  1.7283
  388MOL0     H51165   4.809  10.181   3.824  4.8293  0.7739  0.8612
  388MOL0     H51166   4.764  10.345   3.791 -2.0792 -1.2415  0.0962
  388MOL0     H51167   4.820  10.120   3.601 -0.6536  0.3992 -3.8498
  388MOL0     H51168   4.811  10.290   3.538 -1.7157  1.2295 -0.7033
  388MOL0     H51169   4.601   9.997   3.564  0.9134  0.6872 -1.0877
  388MOL0     H51170   4.305   9.979   3.616  0.7010 -1.1608 -1.0477
  388MOL0     H51171   4.334   9.990   3.443 -0.1452  3.7424 -1.8759
  388MOL0     H51172   4.159  10.203   3.578 -1.1792 -0.0705  0.5559
  388MOL0     H51173   4.097  10.048   3.519  0.9037 -1.1457 -0.1057
  388MOL0     H51174   4.244  10.260   3.345  1.5592 -1.5426 -2.1857
  388MOL0     H51175   4.181  10.104   3.295  0.3832  2.5802 -1.9445
  388MOL0     H51176   4.052  10.322   3.255  1.4441 -0.0441  1.0799
  388MOL0     H51177   4.019  10.325   3.429 -1.8279 -0.2385  0.5957
  388MOL0     H51178   3.977  10.240   3.053 -0.4241  0.3162  0.8562
  388MOL0     H51179   3.813  10.266   2.887 -0.2262 -1.6771 -0.4511
  388MOL0     H51180   3.310  10.460   2.891  1.0689 -0.7809  1.3390
  388MOL0     H51181   3.129  10.508   2.732 -2.0053  0.2005  0.1696
  388MOL0     H51182   3.101  10.468   2.461  0.2922  0.5116 -0.3995
  388MOL0     H51183   2.961  10.529   2.549 -2.3129 -0.6127 -1.1080
  388MOL0     H51184   2.815  10.378   2.389  2.0008 -3.3252  0.9242
  388MOL0     H51185   2.966  10.344   2.300 -1.4114  0.3966 -0.4193
  388MOL0     H51186   3.012  10.579   2.274  1.2480 -3.8217  1.5491
  388MOL0     H51187   2.841  10.614   2.330 -1.9552 -0.8188 -0.9023
  388MOL0     H51188   2.923  10.446   2.078  0.9916  0.6488 -1.3703
  388MOL0     H51189   2.759  10.475   2.142 -0.4460  1.6922  2.2190
  388MOL0     H51190   2.776  10.716   2.074 -1.8248 -0.6643  2.1590
  388MOL0     H51191   2.823  10.614   1.940 -0.2640  1.0855  0.5978
  388MOL0     H51192   3.077  10.646   2.050  0.3935  0.5512 -0.2382
  388MOL0     H51193   2.988  10.782   2.112 -1.4525  1.6618 -1.7144
  388MOL0     H51194   2.991  10.745   1.805  0.9590  0.7772 -0.2645
  388MOL0     H51195   2.903  10.850   1.911  0.6054  1.5956  2.2240
  388MOL0     H51196   3.126  10.939   2.001 -0.3351  1.3213 -0.0984
  388MOL0     H51197   3.129  10.956   1.829  0.5255 -0.4124  0.7552
  388MOL0     H51198   3.070  10.105   2.645 -0.0155 -0.5580  0.6737
  388MOL0     H51199   3.260  10.037   2.812  1.7583  0.6908  0.4183
  388MOL0     H51200   3.514  10.150   3.157 -0.0980 -3.4660 -1.7141
  388MOL0     H51201   3.695  10.108   3.335 -0.0032 -0.1777  0.3532
  388MOL0     H51202   5.732  10.827   3.789  2.8501  0.2546  0.9787
  388MOL0     H51203   5.957  10.882   3.736 -0.1825  1.2522 -0.2524
  388MOL0     H51204   6.173  11.022   3.309  0.5743 -0.4119 -0.0978
  388MOL0     H51205   6.367  11.149   3.209 -2.6252  0.3604  0.4390
  388MOL0     H51206   6.721  11.357   3.335  1.0157 -1.5621 -0.5232
  388MOL0     H51207   6.696  11.273   3.488 -0.7933 -1.0177 -0.0557
  388MOL0     H51208   6.493  11.474   3.384 -0.8423 -1.3773  0.6052
  388MOL0     H51209   6.464  11.363   3.514  0.7439 -0.8438 -0.4412
  388MOL0     H51210   6.659  11.467   3.641 -3.2592 -0.8999  1.5420
  388MOL0     H51211   6.528  11.570   3.602 -0.0292 -0.4118  0.7073
  388MOL0     H51212   6.716  11.598   3.370 -1.2770  0.0151  0.6080
  388MOL0     H51213   6.695  11.721   3.495 -1.1774 -0.2968  2.1413
  388MOL0     H51214   7.076  11.552   3.587 -0.5789 -2.2168  0.8639
  388MOL0     H51215   6.580  11.126   3.593  1.7450 -0.6215 -1.6097
  388MOL0     H51216   6.388  10.990   3.690  0.4693 -0.0980 -0.1308
  389MOL0     O51217   8.920   6.446   4.086  0.1711  0.5634 -0.7088
  389MOL0     C51218   8.986   6.511   4.010  0.6299 -0.0805 -0.0767
  389MOL0     O51219   8.941   6.629   3.947  0.8968  0.4602 -0.0697
  389MOL0     C51220   8.817   6.679   3.958  0.1582 -0.5792 -0.9013
  389MOL0     C51221   8.704   6.623   4.028 -0.2270  0.2959  0.8392
  389MOL0     C51222   8.580   6.680   4.017 -0.8924 -1.4620 -0.2408
  389MOL0     C51223   8.569   6.804   3.944  0.4510  0.4914  0.0587
  389MOL0     O51224   8.462   6.885   3.934 -0.2902 -0.5101 -0.3952
  389MOL0     C51225   8.344   6.830   3.887  0.2013  0.0894 -0.4498
  389MOL0     C51226   8.258   6.952   3.873 -0.2996 -0.3822  0.8747
  389MOL0     C51227   8.171   6.966   3.989  0.0478  0.4166 -0.2284
  389MOL0     C51228   8.096   7.102   3.973 -0.6718  0.2851  0.5753
  389MOL0     C51229   8.030   7.146   4.107 -0.3233  0.4929 -0.0643
  389MOL0     C51230   7.927   7.049   4.169  1.2877  0.5777 -0.3570
  389MOL0     C51231   7.813   6.989   4.075 -0.4853 -0.4380  1.0676
  389MOL0     C51232   7.730   6.885   4.137 -0.3659  0.2581 -0.3023
  389MOL0     N51233   7.634   6.931   4.234  0.4141  0.0989  0.0093
  389MOL0     C51234   7.512   6.987   4.213  0.0984  0.5485  0.4663
  389MOL0     C51235   7.454   6.991   4.334  0.3065  0.4864 -0.2805
  389MOL0     C51236   7.312   7.019   4.373  0.2702 -0.7378  0.4486
  389MOL0     C51237   7.293   7.146   4.463  0.0072 -0.2280 -0.4433
  389MOL0     C51238   7.147   7.163   4.511  0.6177 -0.1755 -0.4206
  389MOL0     C51239   7.085   7.032   4.580 -0.6788 -0.5085  0.3345
  389MOL0     O51240   6.977   7.079   4.654 -0.1601 -0.4257 -0.9610
  389MOL0     C51241   6.896   6.995   4.726  1.0598  0.6045  0.2264
  389MOL0     C51242   6.798   7.047   4.805  0.1411 -0.9274 -0.2216
  389MOL0     C51243   6.727   6.957   4.891  0.3414 -0.0167 -0.1226
  389MOL0     C51244   6.742   6.819   4.900  0.6899 -0.1738 -0.7277
  389MOL0     C51245   6.675   6.736   5.004 -0.5240  0.0981 -0.1006
  389MOL0     O51246   6.586   6.800   5.084 -0.4081 -0.4975 -0.4202
  389MOL0     C51247   6.518   6.748   5.187 -0.1963  0.4424 -0.6291
  389MOL0     C51248   6.415   6.830   5.239 -0.0313 -0.9358  0.5951
  389MOL0     C51249   6.323   6.781   5.325  0.7984 -0.0576  0.8742
  389MOL0     C51250   6.340   6.663   5.389 -0.7194  0.4067 -0.4527
  389MOL0     O51251   6.275   6.613   5.494  0.1989 -0.1255 -0.2211
  389MOL0     C51252   6.131   6.621   5.479 -0.2781 -0.6637  0.4614
  389MOL0     C51253   6.064   6.530   5.575  0.1869 -0.7832 -0.8045
  389MOL0     C51254   5.913   6.531   5.537 -0.5622 -0.6119  0.1871
  389MOL0     C51255   5.833   6.462   5.644 -0.5494 -0.4465  0.0403
  389MOL0     C51256   5.685   6.447   5.615  0.7337  0.1650  0.1274
  389MOL0     C51257   5.625   6.345   5.721  0.1748  0.2881  0.6697
  389MOL0     C51258   5.610   6.377   5.875 -0.5033  0.0949  0.2242
  389MOL0     C51259   5.632   6.256   5.965  0.0804  0.0573  0.7090
  389MOL0    Cl51260   5.504   6.137   5.939  0.1536 -0.0030  0.4282
  389MOL0     C51261   6.450   6.585   5.353  0.6183  0.4221 -0.5760
  389MOL0     C51262   6.541   6.621   5.248  0.2947 -1.5111 -0.2959
  389MOL0     O51263   6.719   6.619   5.024  0.9910 -0.6577 -0.0854
  389MOL0     C51264   6.834   6.768   4.806 -0.4195  0.2804  0.1718
  389MOL0     C51265   6.911   6.853   4.723  0.0430 -0.2211  0.2901
  389MOL0     N51266   7.546   6.938   4.426  0.2214 -0.7789 -0.2535
  389MOL0     N51267   7.650   6.907   4.362  0.5845  0.4475 -0.6550
  389MOL0     C51268   8.679   6.861   3.886 -0.3083 -0.3850  0.4418
  389MOL0     C51269   8.800   6.794   3.892  0.1999 -0.0239  0.9942
  389MOL0     C51270   9.113   6.454   3.982 -0.0705  0.7641  0.4358
  389MOL0     C51271   9.225   6.536   3.942  0.1080  0.1697  0.0741
  389MOL0     C51272   9.357   6.473   3.936  0.3594 -1.1346 -0.2679
  389MOL0     C51273   9.375   6.336   3.961  0.9384 -0.2969  0.1023
  389MOL0     O51274   9.494   6.274   3.937  0.3405 -0.2623  0.0490
  389MOL0     C51275   9.566   6.317   3.817 -0.4142 -0.1675  1.1417
  389MOL0     C51276   9.621   6.207   3.726 -1.0263  0.2456 -0.1673
  389MOL0     C51277   9.696   6.099   3.816 -0.4005  0.0167 -1.1421
  389MOL0     C51278   9.635   5.955   3.803 -0.3614  0.8429 -0.3501
  389MOL0     C51279   9.488   5.951   3.830 -0.1596 -0.4656 -0.0564
  389MOL0     C51280   9.368   5.937   3.857  0.4022  0.5045 -0.2856
  389MOL0     C51281   9.266   6.261   4.000  0.7344  0.4165  0.6971
  389MOL0     C51282   9.138   6.312   4.015  0.8657 -0.6003  0.6758
  389MOL0     H51283   8.711   6.528   4.081 -1.3439 -1.4137 -1.8212
  389MOL0     H51284   8.488   6.664   4.073 -1.0035 -0.6192 -0.1696
  389MOL0     H51285   8.303   6.752   3.952 -2.0719  0.9040 -0.8336
  389MOL0     H51286   8.355   6.796   3.783 -2.9986  2.1709 -1.6123
  389MOL0     H51287   8.197   6.937   3.783 -1.1475 -0.8768  1.5253
  389MOL0     H51288   8.322   7.041   3.869 -1.7235  0.7504  2.0695
  389MOL0     H51289   8.233   6.969   4.079 -1.6952  0.2123  1.0423
  389MOL0     H51290   8.103   6.881   3.999  1.4375 -1.2372 -3.4653
  389MOL0     H51291   8.167   7.174   3.931  0.3918 -0.2403  1.4118
  389MOL0     H51292   8.014   7.092   3.902 -2.0791 -2.5529  2.3890
  389MOL0     H51293   7.990   7.246   4.091  2.5738  1.8049  0.1163
  389MOL0     H51294   8.107   7.160   4.184 -0.9656 -2.0156  1.1413
  389MOL0     H51295   7.885   7.095   4.259  0.9847 -1.9867  0.8936
  389MOL0     H51296   7.969   6.958   4.212 -0.2485  0.0406  0.0731
  389MOL0     H51297   7.756   7.074   4.038 -0.0129  0.3309  2.0525
  389MOL0     H51298   7.863   6.945   3.989 -1.8156  0.2007 -0.0639
  389MOL0     H51299   7.800   6.814   4.183  0.3342  0.9843 -0.2151
  389MOL0     H51300   7.681   6.824   4.060 -0.3572  0.0096 -0.1152
  389MOL0     H51301   7.471   7.006   4.114  1.0701 -2.5702 -0.6315
  389MOL0     H51302   7.277   6.925   4.416  0.4819 -0.2601  1.6881
  389MOL0     H51303   7.257   7.033   4.279  1.0451  0.6400  0.1744
  389MOL0     H51304   7.326   7.233   4.405 -0.3076 -0.4008 -0.8831
  389MOL0     H51305   7.352   7.129   4.554  0.1602 -2.8490 -0.9612
  389MOL0     H51306   7.130   7.239   4.587  2.0978 -1.3153  1.1062
  389MOL0     H51307   7.087   7.197   4.425 -0.4623  1.1639  0.8147
  389MOL0     H51308   7.162   6.998   4.649  1.2166  1.3694 -0.7585
  389MOL0     H51309   7.058   6.957   4.505 -1.9198  2.3015 -2.2049
  389MOL0     H51310   6.776   7.153   4.806 -2.3965 -1.3166 -2.5814
  389MOL0     H51311   6.648   7.009   4.945  1.4191  2.0632 -0.4411
  389MOL0     H51312   6.405   6.933   5.207  1.9310 -1.1025 -0.7722
  389MOL0     H51313   6.238   6.840   5.355 -0.2060 -1.3798  0.7283
  389MOL0     H51314   6.099   6.603   5.376 -0.5566  0.3425  0.3611
  389MOL0     H51315   6.096   6.723   5.501  3.2126  0.7019  0.3515
  389MOL0     H51316   6.066   6.579   5.673  2.1218  0.6130 -1.5060
  389MOL0     H51317   6.105   6.428   5.579  0.9245 -0.5143 -1.3745
  389MOL0     H51318   5.895   6.485   5.439 -2.0056 -0.5839  0.4132
  389MOL0     H51319   5.884   6.636   5.531 -2.8850 -1.1558  0.8646
  389MOL0     H51320   5.871   6.360   5.644  2.1366  0.4366  2.0987
  389MOL0     H51321   5.861   6.500   5.743  2.6573 -3.2269  0.3722
  389MOL0     H51322   5.663   6.409   5.516 -0.2580 -3.7913  1.6894
  389MOL0     H51323   5.646   6.550   5.611 -1.5308 -0.6743 -2.9815
  389MOL0     H51324   5.691   6.258   5.719  0.7373  0.7084  0.0870
  389MOL0     H51325   5.525   6.312   5.695  0.7716  0.8093 -2.7859
  389MOL0     H51326   5.671   6.462   5.907 -0.3562 -0.5067  1.6171
  389MOL0     H51327   5.506   6.406   5.891 -0.6749  0.3759 -1.2764
  389MOL0     H51328   5.635   6.298   6.066 -1.3894  0.5046  0.5896
  389MOL0     H51329   5.727   6.205   5.951  0.0182 -0.3526  1.6528
  389MOL0     H51330   6.463   6.493   5.408 -1.0699  1.2419  1.3166
  389MOL0     H51331   6.632   6.563   5.231  3.6249  1.9197  3.7357
  389MOL0     H51332   6.848   6.661   4.808  1.5484  0.4520 -1.1549
  389MOL0     H51333   6.976   6.806   4.650 -0.4030 -0.5060  0.0688
  389MOL0     H51334   8.681   6.965   3.856  0.5687  0.3654  2.8998
  389MOL0     H51335   8.882   6.849   3.847 -1.1240  0.1838 -1.3060
  389MOL0     H51336   9.209   6.641   3.919  2.8769  0.2986 -1.8761
  389MOL0     H51337   9.439   6.536   3.905  1.2177 -1.4928  1.1872
  389MOL0     H51338   9.653   6.365   3.863  0.5023  0.3115 -0.9633
  389MOL0     H51339   9.517   6.393   3.756  0.8019 -0.8197 -0.7148
  389MOL0     H51340   9.535   6.172   3.669 -1.3054  1.3648 -0.4641
  389MOL0     H51341   9.701   6.249   3.664 -0.0785 -0.7414  0.3407
  389MOL0     H51342   9.701   6.127   3.921  3.5636 -0.0127 -1.1782
  389MOL0     H51343   9.798   6.090   3.777 -0.1582  1.1533 -0.8048
  389MOL0     H51344   9.649   5.912   3.704 -2.5303  0.0883 -0.3754
  389MOL0     H51345   9.670   5.889   3.883 -1.4265  0.2812 -0.3264
  389MOL0     H51346   9.266   5.915   3.883  0.3274  0.3863 -0.6693
  389MOL0     H51347   9.278   6.153   4.002  0.8652  0.4025 -0.3155
  389MOL0     H51348   9.059   6.248   4.053 -1.1716  1.3029 -0.0938
  390MOL0     O51349   8.933   9.951   6.441  0.2950  0.2857 -0.3593
  390MOL0     C51350   8.922   9.905   6.322 -0.0911 -0.1715  0.2012
  390MOL0     O51351   8.811   9.914   6.241  0.2029 -0.8143 -0.1008
  390MOL0     C51352   8.704   9.971   6.300 -0.6430 -0.1882  1.7252
  390MOL0     C51353   8.611   9.914   6.389 -0.4658  0.4718 -0.1959
  390MOL0     C51354   8.508   9.989   6.440 -0.0726 -1.0026  0.0959
  390MOL0     C51355   8.497  10.130   6.417  1.2221 -1.0004 -0.3830
  390MOL0     O51356   8.395  10.206   6.480 -0.4290  0.2669  0.8478
  390MOL0     C51357   8.357  10.336   6.421  0.0766  0.6948 -0.0816
  390MOL0     C51358   8.230  10.366   6.509 -0.3040  0.1590 -0.1771
  390MOL0     C51359   8.112  10.276   6.457  0.7059 -0.6767  0.9092
  390MOL0     C51360   7.996  10.265   6.563  0.1107  0.1385  0.4231
  390MOL0     C51361   7.928  10.400   6.563  0.1613 -1.0336  0.5256
  390MOL0     C51362   7.809  10.395   6.657 -0.1465  0.6447 -0.0046
  390MOL0     C51363   7.745  10.540   6.672 -0.7380  0.8771  0.6738
  390MOL0     C51364   7.597  10.522   6.712 -0.0364  0.0341 -0.1785
  390MOL0     N51365   7.567  10.445   6.839 -0.0637  0.0415  0.4441
  390MOL0     C51366   7.634  10.465   6.960 -0.6417 -0.2042  0.3118
  390MOL0     C51367   7.553  10.395   7.047  0.7710  0.4379 -0.4977
  390MOL0     C51368   7.575  10.366   7.192  0.5307 -0.3500  0.3154
  390MOL0     C51369   7.503  10.481   7.264  0.6886 -0.1984  0.2033
  390MOL0     C51370   7.553  10.619   7.217 -1.4433 -0.8323 -0.0773
  390MOL0     C51371   7.531  10.734   7.330 -0.5081  0.0371  1.3477
  390MOL0     O51372   7.412  10.725   7.396 -0.1928 -0.1741 -0.1502
  390MOL0     C51373   7.418  10.685   7.526  0.6786  0.3290 -0.6811
  390MOL0     C51374   7.358  10.569   7.563 -0.3068 -0.4173 -0.0034
  390MOL0     C51375   7.356  10.537   7.704  0.4852  1.1399  0.0203
  390MOL0     C51376   7.405  10.635   7.796 -0.2307 -0.2945 -0.1869
  390MOL0     C51377   7.371  10.628   7.944 -0.1967  0.4161  0.2086
  390MOL0     O51378   7.296  10.514   7.970 -0.1661  0.1783 -0.9951
  390MOL0     C51379   7.231  10.494   8.092 -0.6027  0.0122 -0.1852
  390MOL0     C51380   7.096  10.510   8.087  0.0361 -0.0932 -0.5178
  390MOL0     C51381   7.018  10.486   8.203 -0.2328 -0.2199 -0.0386
  390MOL0     C51382   7.077  10.435   8.314  0.7883  0.1019  0.4063
  390MOL0     O51383   6.998  10.409   8.420  0.1262  0.1249 -0.0559
  390MOL0     C51384   7.013  10.276   8.490  0.7932  0.3467  0.0209
  390MOL0     C51385   6.882  10.205   8.520 -0.8871  0.9089  0.7025
  390MOL0     C51386   6.802  10.268   8.628 -0.4268 -0.7488  0.2833
  390MOL0     C51387   6.767  10.423   8.604 -0.5202  0.8869 -0.1481
  390MOL0     C51388   6.650  10.463   8.694  0.1931  0.2388 -0.7200
  390MOL0     C51389   6.509  10.407   8.649 -0.5198 -0.2699  0.4166
  390MOL0     C51390   6.413  10.438   8.752  0.2405  0.1458  0.5661
  390MOL0     C51391   6.273  10.392   8.717 -0.3297  0.7546 -0.0832
  390MOL0    Cl51392   6.148  10.490   8.793  0.5637 -0.2189  0.4121
  390MOL0     C51393   7.214  10.402   8.310  0.5442  0.3962  0.3811
  390MOL0     C51394   7.294  10.429   8.199  0.4194  0.5652  0.1901
  390MOL0     O51395   7.407  10.716   8.022 -0.1378 -0.5241 -0.1819
  390MOL0     C51396   7.461  10.756   7.746  0.0898  0.9299 -0.0601
  390MOL0     C51397   7.474  10.779   7.612 -0.0271 -1.1519  0.0655
  390MOL0     N51398   7.442  10.342   6.985  0.1229  1.2100 -0.5656
  390MOL0     N51399   7.457  10.368   6.853 -0.0716  0.4834  0.1169
  390MOL0     C51400   8.591  10.193   6.334 -1.0042  1.1453 -0.2402
  390MOL0     C51401   8.693  10.107   6.274 -1.2953 -0.8973 -0.1259
  390MOL0     C51402   9.047   9.841   6.259 -0.3653 -0.3748  0.2123
  390MOL0     C51403   9.050   9.794   6.125  0.1942 -0.3921  0.4962
  390MOL0     C51404   9.168   9.741   6.072  0.1785 -0.3874  0.6403
  390MOL0     C51405   9.290   9.751   6.139 -0.1246  0.1633 -0.1516
  390MOL0     O51406   9.417   9.713   6.100 -0.1024  0.6512 -0.8493
  390MOL0     C51407   9.412   9.587   6.047  0.3613 -0.1593  0.2601
  390MOL0     C51408   9.553   9.543   6.008 -0.4172 -0.4712  0.1101
  390MOL0     C51409   9.641   9.533   6.132 -0.3494 -0.7451 -0.0872
  390MOL0     C51410   9.788   9.483   6.105  0.4484 -0.6004  0.2981
  390MOL0     C51411   9.796   9.341   6.076 -0.2635 -0.2712 -0.6697
  390MOL0     C51412   9.780   9.228   6.042  0.4225  0.0065  0.1420
  390MOL0     C51413   9.278   9.808   6.266 -0.6574  0.0557  0.0562
  390MOL0     C51414   9.165   9.849   6.327 -1.2661 -0.0756  0.0970
  390MOL0     H51415   8.624   9.808   6.408 -0.8925 -0.2979 -3.5680
  390MOL0     H51416   8.448   9.945   6.519  2.1613 -1.4957  1.6094
  390MOL0     H51417   8.328  10.320   6.317 -1.2462 -1.5823  0.5569
  390MOL0     H51418   8.432  10.413   6.442  0.7841 -0.3201  1.3406
  390MOL0     H51419   8.199  10.471   6.512  0.9449  0.5542 -0.2117
  390MOL0     H51420   8.259  10.344   6.612 -0.6598  2.5742  0.4954
  390MOL0     H51421   8.147  10.176   6.430 -1.6087 -1.4951  0.7582
  390MOL0     H51422   8.082  10.328   6.365  1.7123  0.8537  1.3934
  390MOL0     H51423   7.932  10.185   6.525  2.2960 -2.0527  1.0394
  390MOL0     H51424   8.038  10.240   6.661  1.1684  0.7492  0.1467
  390MOL0     H51425   7.886  10.421   6.464  0.2394  0.8047  0.8404
  390MOL0     H51426   7.989  10.486   6.591  1.2923 -0.9879 -1.8185
  390MOL0     H51427   7.856  10.370   6.752  3.0683 -0.9011 -1.8171
  390MOL0     H51428   7.735  10.324   6.617 -0.0622  0.1587  0.6932
  390MOL0     H51429   7.806  10.587   6.751  4.1287  0.7999 -2.6280
  390MOL0     H51430   7.762  10.607   6.587  0.4644  1.5639  1.4129
  390MOL0     H51431   7.556  10.477   6.621 -1.1851  2.0917 -0.7281
  390MOL0     H51432   7.542  10.616   6.720 -0.8276 -0.1243 -3.0154
  390MOL0     H51433   7.718  10.523   6.997 -1.2609  0.9547 -0.0133
  390MOL0     H51434   7.682  10.354   7.212  1.1311  2.6890 -0.6061
  390MOL0     H51435   7.529  10.274   7.228 -0.3769  0.6948  1.9152
  390MOL0     H51436   7.525  10.467   7.371  0.1611 -3.6692 -0.0141
  390MOL0     H51437   7.397  10.485   7.241  0.9017  3.1290 -0.6554
  390MOL0     H51438   7.662  10.623   7.202 -1.3834  0.0558  0.5385
  390MOL0     H51439   7.500  10.640   7.123 -1.6158 -1.1355 -0.0493
  390MOL0     H51440   7.526  10.826   7.272 -1.0137 -0.3234  0.8116
  390MOL0     H51441   7.620  10.739   7.393  0.4449 -0.8532  0.1217
  390MOL0     H51442   7.313  10.498   7.495  0.3653 -2.0069  1.1647
  390MOL0     H51443   7.315  10.446   7.747  0.2531  0.9990 -0.4881
  390MOL0     H51444   7.044  10.545   7.999  0.0942  0.0313 -0.5017
  390MOL0     H51445   6.912  10.510   8.198 -0.4409 -0.9281  0.8179
  390MOL0     H51446   7.069  10.295   8.583 -0.4889  2.9548  0.3537
  390MOL0     H51447   7.072  10.215   8.421 -0.2662  1.7601 -2.2550
  390MOL0     H51448   6.898  10.098   8.539 -0.2561  1.3208  2.8074
  390MOL0     H51449   6.822  10.198   8.429  0.0049 -0.5237  0.2004
  390MOL0     H51450   6.854  10.278   8.723 -0.5598  4.0285  0.1011
  390MOL0     H51451   6.710  10.212   8.642 -1.0641  0.8997  3.3208
  390MOL0     H51452   6.843  10.489   8.646  0.1282 -0.2841  0.5686
  390MOL0     H51453   6.760  10.444   8.497 -2.2748 -0.0821 -0.2551
  390MOL0     H51454   6.647  10.572   8.693 -1.3616  0.2182 -1.5085
  390MOL0     H51455   6.672  10.439   8.798  2.3085  0.2343 -1.1190
  390MOL0     H51456   6.511  10.299   8.632 -0.6287 -0.3702  1.0044
  390MOL0     H51457   6.494  10.459   8.554  0.3792 -1.7725 -0.5869
  390MOL0     H51458   6.451  10.391   8.843  0.7428  0.6173  0.6058
  390MOL0     H51459   6.411  10.546   8.767  0.1630  0.3462 -0.7901
  390MOL0     H51460   6.265  10.285   8.737  0.5925  0.6430 -0.2602
  390MOL0     H51461   6.254  10.394   8.609 -0.5504 -2.7698 -0.1952
  390MOL0     H51462   7.263  10.353   8.393  3.5105 -0.4613 -1.7397
  390MOL0     H51463   7.397  10.393   8.197  0.4999  0.8451 -1.7170
  390MOL0     H51464   7.507  10.838   7.800 -3.6203  2.9525  0.3643
  390MOL0     H51465   7.524  10.868   7.575  4.6428 -2.7121  1.9006
  390MOL0     H51466   8.593  10.299   6.313 -0.6714  1.5325  1.5868
  390MOL0     H51467   8.761  10.145   6.199 -2.2118 -0.9153 -0.9922
  390MOL0     H51468   8.959   9.787   6.066  1.6386 -1.3715 -1.7342
  390MOL0     H51469   9.172   9.689   5.977 -0.1479 -1.5813  1.2595
  390MOL0     H51470   9.355   9.585   5.954  1.6142  1.4859 -0.5927
  390MOL0     H51471   9.375   9.505   6.110 -0.7078 -0.9183 -1.2839
  390MOL0     H51472   9.550   9.444   5.963  1.5486  0.6098 -2.6848
  390MOL0     H51473   9.584   9.616   5.932  1.3436 -0.7957  0.4784
  390MOL0     H51474   9.599   9.453   6.194 -0.6106 -0.8047 -0.3416
  390MOL0     H51475   9.640   9.624   6.193 -1.8431 -0.2682 -0.7763
  390MOL0     H51476   9.837   9.548   6.031 -0.4804  3.0262  2.5744
  390MOL0     H51477   9.836   9.514   6.199  2.3472  0.4274 -0.9502
  390MOL0     H51478   9.763   9.126   6.016  1.9746  0.2084 -1.8706
  390MOL0     H51479   9.363   9.802   6.333 -1.5142  2.2957  1.4648
  390MOL0     H51480   9.169   9.890   6.428  1.3597 -1.2198  0.5212
  391MOL0     O51481   1.012   5.335  11.172  1.3411  0.6766 -0.3443
  391MOL0     C51482   0.976   5.433  11.236 -0.0951 -0.2172 -0.6010
  391MOL0     O51483   1.058   5.545  11.268  0.4688  0.1569  0.5599
  391MOL0     C51484   1.173   5.546  11.199  0.1559 -0.6619 -0.8415
  391MOL0     C51485   1.288   5.553  11.284 -0.1424  0.0351  0.1134
  391MOL0     C51486   1.418   5.553  11.222 -0.3422 -1.2695  0.0457
  391MOL0     C51487   1.426   5.571  11.085 -0.4545  0.8518  0.4997
  391MOL0     O51488   1.535   5.597  11.019 -0.0703  0.4344  0.6963
  391MOL0     C51489   1.622   5.488  11.009 -0.4595 -0.5893 -0.0523
  391MOL0     C51490   1.756   5.525  10.963 -0.4275  0.1283  0.7386
  391MOL0     C51491   1.839   5.618  11.052 -0.0498 -0.0176  0.4592
  391MOL0     C51492   1.979   5.625  10.993 -0.6819  1.1176 -0.3885
  391MOL0     C51493   2.062   5.714  11.079  0.4041  0.6602 -0.3258
  391MOL0     C51494   2.199   5.710  11.015 -0.3944  0.6540 -0.3884
  391MOL0     C51495   2.290   5.811  11.094 -0.3914 -0.8354  0.6982
  391MOL0     C51496   2.408   5.854  11.011  0.5191 -0.6087 -0.8316
  391MOL0     N51497   2.470   5.983  11.065  0.2165  0.3662  0.2371
  391MOL0     C51498   2.433   6.117  11.060  0.0917 -0.2368 -1.3967
  391MOL0     C51499   2.526   6.189  11.129  0.7161 -0.8584  0.4069
  391MOL0     C51500   2.533   6.334  11.132 -0.4108  0.1356 -0.5456
  391MOL0     C51501   2.526   6.390  11.273 -0.5842  0.0625 -0.5091
  391MOL0     C51502   2.386   6.382  11.334 -0.3435  0.5041  0.6005
  391MOL0     C51503   2.376   6.250  11.422 -0.4067 -0.2779  0.2960
  391MOL0     O51504   2.260   6.265  11.505  0.3258 -0.5475 -0.2817
  391MOL0     C51505   2.140   6.214  11.465 -0.7321  0.3572  0.5670
  391MOL0     C51506   2.036   6.208  11.561  0.4342  0.2227 -0.4369
  391MOL0     C51507   1.907   6.173  11.509  0.1825 -0.5145 -0.4310
  391MOL0     C51508   1.882   6.136  11.378  0.2041 -0.4748  0.3247
  391MOL0     C51509   1.746   6.089  11.335  0.9566  0.0368  0.2316
  391MOL0     O51510   1.647   6.077  11.428 -0.4490 -0.4244  0.5450
  391MOL0     C51511   1.515   6.053  11.386  0.0582 -0.1902 -0.3452
  391MOL0     C51512   1.416   6.144  11.427  0.5943 -0.0443  0.3466
  391MOL0     C51513   1.277   6.133  11.403 -0.3672  0.1117 -0.0385
  391MOL0     C51514   1.240   6.017  11.335  0.6706  0.3928  0.6067
  391MOL0     O51515   1.111   5.995  11.297  0.9450  0.4338 -0.7001
  391MOL0     C51516   1.008   6.069  11.358 -0.5892  0.4490 -0.3416
  391MOL0     C51517   0.878   6.023  11.297 -0.0806  0.2096  0.0994
  391MOL0     C51518   0.758   6.093  11.359 -0.0046 -0.0219  0.0697
  391MOL0     C51519   0.629   6.043  11.294 -0.5611  0.3293 -0.0172
  391MOL0     C51520   0.501   6.076  11.366  0.1248 -0.9314  0.4584
  391MOL0     C51521   0.377   6.023  11.290 -0.3468 -0.3607 -0.0061
  391MOL0     C51522   0.343   6.091  11.158 -0.1020 -0.5966 -0.8474
  391MOL0     C51523   0.319   6.247  11.170  0.2485 -0.3065  0.0682
  391MOL0    Cl51524   0.156   6.254  11.239  0.1996 -0.1131 -0.2851
  391MOL0     C51525   1.335   5.928  11.286 -0.2594  0.0266 -0.0380
  391MOL0     C51526   1.473   5.950  11.307 -0.0171  1.1819  1.0007
  391MOL0     O51527   1.736   6.052  11.215  0.4827 -0.7474 -0.4645
  391MOL0     C51528   1.992   6.140  11.280 -0.4924  0.2877  0.0550
  391MOL0     C51529   2.121   6.165  11.329  1.0040 -0.8024 -0.5801
  391MOL0     N51530   2.618   6.106  11.173 -0.1131  0.3323  0.1556
  391MOL0     N51531   2.587   5.985  11.138  0.2237  0.0179 -0.2730
  391MOL0     C51532   1.315   5.572  10.998 -0.3205  0.2354 -0.4116
  391MOL0     C51533   1.193   5.561  11.063  0.0914 -0.9583  0.0681
  391MOL0     C51534   0.839   5.436  11.281  0.4458  0.7446  0.1314
  391MOL0     C51535   0.804   5.541  11.367  0.0707  0.3495  1.0262
  391MOL0     C51536   0.671   5.565  11.400 -0.8804  0.0988 -0.6707
  391MOL0     C51537   0.571   5.477  11.350  0.4508 -0.1540 -0.5634
  391MOL0     O51538   0.443   5.503  11.396  0.1207 -0.2763 -0.6264
  391MOL0     C51539   0.357   5.387  11.425  1.4673  0.5563 -0.2458
  391MOL0     C51540   0.411   5.309  11.555  0.4000 -0.4497 -0.7496
  391MOL0     C51541   0.325   5.191  11.594  0.2160  0.2130 -0.0711
  391MOL0     C51542   0.196   5.229  11.669  0.0906  0.1471 -0.2570
  391MOL0     C51543   0.109   5.113  11.671 -0.1582 -0.9061  0.2778
  391MOL0     C51544   0.030   5.020  11.671 -0.1111 -0.3604 -0.1350
  391MOL0     C51545   0.608   5.367  11.278 -0.4526  0.1648 -0.6470
  391MOL0     C51546   0.741   5.341  11.243  0.2100  0.0696 -0.2712
  391MOL0     H51547   1.271   5.558  11.391  1.2047 -2.6597  0.5287
  391MOL0     H51548   1.506   5.545  11.285 -0.1302  0.3171 -0.0081
  391MOL0     H51549   1.576   5.416  10.941  0.4954 -0.5935 -0.7045
  391MOL0     H51550   1.632   5.442  11.108 -1.3666  0.9940  0.8339
  391MOL0     H51551   1.741   5.566  10.863  1.0228 -1.4583 -0.1737
  391MOL0     H51552   1.806   5.430  10.943  1.9379  1.8537 -2.6054
  391MOL0     H51553   1.838   5.562  11.146 -2.7948 -0.0933  0.4656
  391MOL0     H51554   1.808   5.722  11.055  0.2824  0.0756  0.7069
  391MOL0     H51555   2.027   5.527  10.984  0.2856  1.4556  0.7900
  391MOL0     H51556   1.975   5.676  10.897  1.3607  0.0933 -1.0776
  391MOL0     H51557   2.064   5.676  11.182 -1.2063  2.0212  0.2470
  391MOL0     H51558   2.016   5.811  11.097  0.1582  0.0476  2.9428
  391MOL0     H51559   2.192   5.740  10.910  1.1106  2.3041 -0.0653
  391MOL0     H51560   2.249   5.612  11.019 -3.7762 -1.1601  2.3705
  391MOL0     H51561   2.233   5.900  11.120 -0.5779  0.6797 -3.9407
  391MOL0     H51562   2.318   5.767  11.190 -1.3882 -2.0567  0.4633
  391MOL0     H51563   2.376   5.858  10.907 -0.7160  0.4528 -0.4515
  391MOL0     H51564   2.483   5.777  11.028  2.2043  0.7932 -1.6408
  391MOL0     H51565   2.359   6.158  10.992  0.2067 -0.2836 -1.5489
  391MOL0     H51566   2.461   6.382  11.065 -0.4078  0.0851 -0.5847
  391MOL0     H51567   2.637   6.344  11.100  0.3284 -0.4335  1.4864
  391MOL0     H51568   2.538   6.498  11.264 -2.5986  0.2721 -1.0764
  391MOL0     H51569   2.598   6.352  11.347 -0.3071 -1.4504 -1.5109
  391MOL0     H51570   2.379   6.478  11.386 -0.3849  0.1716  1.2170
  391MOL0     H51571   2.303   6.377  11.263 -0.4149 -1.4817  0.7680
  391MOL0     H51572   2.462   6.243  11.490 -0.6304 -2.8130  0.4288
  391MOL0     H51573   2.375   6.152  11.374  0.0478  0.6939 -1.8248
  391MOL0     H51574   2.042   6.222  11.668  1.7318  0.8196 -0.5700
  391MOL0     H51575   1.837   6.160  11.591 -0.8594  3.0125 -0.5720
  391MOL0     H51576   1.443   6.231  11.487  0.2901 -0.3904  0.9934
  391MOL0     H51577   1.203   6.201  11.444 -1.3405 -0.0384 -1.4828
  391MOL0     H51578   1.019   6.178  11.352  0.5888  0.3779  0.2615
  391MOL0     H51579   1.006   6.040  11.463 -0.2534 -1.0775 -0.7289
  391MOL0     H51580   0.887   5.915  11.316  0.0387  0.5118  1.9239
  391MOL0     H51581   0.879   6.050  11.191 -2.4977  0.8945  0.1861
  391MOL0     H51582   0.760   6.201  11.342 -1.9721 -0.1814 -1.5080
  391MOL0     H51583   0.771   6.073  11.466  0.1465  0.0300  0.0610
  391MOL0     H51584   0.628   6.091  11.196  0.7470  0.0793 -0.1695
  391MOL0     H51585   0.638   5.936  11.274 -3.6495  0.1568 -0.9396
  391MOL0     H51586   0.493   6.185  11.378  1.3157 -0.8127  0.1974
  391MOL0     H51587   0.504   6.030  11.465  0.1827 -2.1431 -0.0876
  391MOL0     H51588   0.288   6.030  11.353 -0.7167 -2.0873 -0.2919
  391MOL0     H51589   0.395   5.917  11.272 -0.7841 -0.5112  0.4202
  391MOL0     H51590   0.414   6.086  11.075 -2.6392 -1.3551 -3.1428
  391MOL0     H51591   0.257   6.033  11.124 -0.1836  0.3659 -2.3971
  391MOL0     H51592   0.315   6.301  11.075 -0.1928  1.5982  1.1126
  391MOL0     H51593   0.399   6.293  11.230  1.7178 -0.1806 -1.8918
  391MOL0     H51594   1.309   5.847  11.219  2.0568  0.4248 -1.5287
  391MOL0     H51595   1.549   5.887  11.261 -1.0363  0.5008  0.1865
  391MOL0     H51596   1.971   6.109  11.179 -1.5225 -0.9341  0.6060
  391MOL0     H51597   2.204   6.146  11.262  0.3257  1.1767 -2.0636
  391MOL0     H51598   1.327   5.603  10.895 -1.4373  3.1122  0.2295
  391MOL0     H51599   1.105   5.557  11.000 -0.7009 -1.5725  1.1707
  391MOL0     H51600   0.880   5.611  11.402 -0.7462 -0.4641  4.8743
  391MOL0     H51601   0.643   5.636  11.477 -3.1608 -3.6391  2.3607
  391MOL0     H51602   0.346   5.316  11.343  2.8710 -0.9299  0.7661
  391MOL0     H51603   0.259   5.434  11.441 -0.1578 -2.1850 -1.5572
  391MOL0     H51604   0.516   5.286  11.539  0.6482  1.5658 -2.4913
  391MOL0     H51605   0.409   5.382  11.637  0.5298  0.6900 -1.7230
  391MOL0     H51606   0.393   5.142  11.664  0.1487 -1.0366 -0.8549
  391MOL0     H51607   0.301   5.123  11.511 -0.4932 -2.1947  1.9845
  391MOL0     H51608   0.221   5.270  11.767 -1.2413  0.0156  0.1477
  391MOL0     H51609   0.135   5.303  11.616 -0.6668 -1.2487 -1.4136
  391MOL0     H51610  -0.029   4.930  11.668  1.2584 -1.2789 -0.4248
  391MOL0     H51611   0.526   5.301  11.251 -2.2283  2.2387 -0.5739
  391MOL0     H51612   0.757   5.246  11.193 -1.1386 -0.2746 -0.0675
  392MOL0     O51613   6.368   5.196   2.198  0.6167  0.5912 -0.4303
  392MOL0     C51614   6.338   5.119   2.107  0.1547 -0.8810 -0.5006
  392MOL0     O51615   6.220   5.083   2.077 -0.1999  0.3368  0.0095
  392MOL0     C51616   6.105   5.117   2.153 -0.1895 -1.3580  0.0682
  392MOL0     C51617   5.988   5.146   2.076 -1.1357 -0.8958  0.6723
  392MOL0     C51618   5.869   5.176   2.128 -0.7109  0.0778 -1.1992
  392MOL0     C51619   5.849   5.174   2.271 -0.3092 -0.5088 -0.3022
  392MOL0     O51620   5.712   5.204   2.312 -0.0394  0.1335 -0.5092
  392MOL0     C51621   5.660   5.169   2.445  0.2366  0.3998  0.3446
  392MOL0     C51622   5.635   5.011   2.452  0.0423 -0.6332 -0.4396
  392MOL0     C51623   5.584   4.957   2.318 -0.3472 -0.0248 -0.1352
  392MOL0     C51624   5.545   4.807   2.323 -0.4165 -0.4927  0.6233
  392MOL0     C51625   5.471   4.751   2.200 -0.9147  0.0722 -0.2019
  392MOL0     C51626   5.327   4.803   2.219  0.3630 -0.4824 -0.0761
  392MOL0     C51627   5.243   4.760   2.091 -0.9993  0.0771 -0.3419
  392MOL0     C51628   5.233   4.868   1.982 -0.4240  0.3013  0.5494
  392MOL0     N51629   5.140   4.836   1.874  0.4187 -0.4391 -0.5170
  392MOL0     C51630   5.160   4.775   1.757  0.4610  0.3418  0.9236
  392MOL0     C51631   5.034   4.726   1.709  0.2614 -0.9177  0.4209
  392MOL0     C51632   5.005   4.649   1.579 -0.0302  0.2604 -0.1085
  392MOL0     C51633   4.854   4.636   1.538 -0.1987 -0.6292 -0.0188
  392MOL0     C51634   4.774   4.772   1.512 -0.6743  0.6562  0.8216
  392MOL0     C51635   4.630   4.733   1.499 -0.1269  1.1539  0.6926
  392MOL0     O51636   4.559   4.849   1.479 -0.0207  0.0471 -0.0426
  392MOL0     C51637   4.423   4.846   1.478  0.3640 -0.8850 -0.5190
  392MOL0     C51638   4.346   4.737   1.517 -0.4009  0.1723 -0.4165
  392MOL0     C51639   4.208   4.747   1.549  0.0325 -0.7141  0.8194
  392MOL0     C51640   4.140   4.873   1.526 -0.1457  1.1228  0.4986
  392MOL0     C51641   3.999   4.873   1.554  0.2976 -0.4254 -0.5932
  392MOL0     O51642   3.929   4.765   1.530  0.1110  0.1155 -0.3529
  392MOL0     C51643   3.793   4.748   1.540  0.4866 -0.7187  0.7102
  392MOL0     C51644   3.705   4.811   1.629 -1.1056 -0.2425 -0.0664
  392MOL0     C51645   3.564   4.793   1.615 -0.4942  0.7291 -0.5661
  392MOL0     C51646   3.509   4.690   1.539 -0.4082  1.1738 -0.9726
  392MOL0     O51647   3.378   4.672   1.512 -0.0439 -0.3416  0.1161
  392MOL0     C51648   3.304   4.786   1.466 -0.0114 -0.1631 -0.0224
  392MOL0     C51649   3.157   4.742   1.477  0.2794 -0.3393  0.2595
  392MOL0     C51650   3.060   4.858   1.438 -0.4673 -0.2246  0.3212
  392MOL0     C51651   2.911   4.822   1.449  0.0615  0.5984 -0.3126
  392MOL0     C51652   2.845   4.714   1.344  0.5749 -0.1147 -0.1363
  392MOL0     C51653   2.687   4.730   1.322  0.0983 -0.0822 -0.2598
  392MOL0     C51654   2.613   4.751   1.451 -0.2397 -0.0570 -0.6696
  392MOL0     C51655   2.459   4.748   1.429 -0.6909 -0.3046  0.1173
  392MOL0    Cl51656   2.423   4.893   1.330  0.4898 -0.3104 -0.0153
  392MOL0     C51657   3.605   4.611   1.466  0.5285 -1.0059  1.0607
  392MOL0     C51658   3.738   4.652   1.455  0.0431 -0.0352 -0.0693
  392MOL0     O51659   3.945   4.977   1.587 -0.4808 -0.2454  0.5258
  392MOL0     C51660   4.212   4.976   1.464  0.3094  0.8900  0.4237
  392MOL0     C51661   4.351   4.961   1.448  0.0671 -0.8860  0.0107
  392MOL0     N51662   4.939   4.788   1.790 -0.8015 -0.6642  0.4910
  392MOL0     N51663   5.003   4.842   1.890 -0.5543  0.1017  0.4092
  392MOL0     C51664   5.960   5.144   2.350 -0.5309 -0.8523 -0.0987
  392MOL0     C51665   6.085   5.116   2.294 -0.3324 -0.0832  0.1980
  392MOL0     C51666   6.442   5.063   2.015  0.2089  1.0815 -0.7807
  392MOL0     C51667   6.427   4.938   1.942 -0.2906 -0.0174  0.1802
  392MOL0     C51668   6.532   4.901   1.860 -1.6446  0.8054 -0.7950
  392MOL0     C51669   6.650   4.966   1.844 -0.4526  0.3816  0.1114
  392MOL0     O51670   6.750   4.922   1.758  0.6304 -0.1921  0.2861
  392MOL0     C51671   6.866   5.007   1.730 -1.4980  0.3405 -1.7690
  392MOL0     C51672   6.989   4.975   1.821 -0.9785  0.1988 -0.0986
  392MOL0     C51673   7.106   5.004   1.737 -0.0411 -0.0971 -0.2389
  392MOL0     C51674   7.242   4.988   1.812  0.1886  0.6937 -0.5370
  392MOL0     C51675   7.237   5.049   1.950  0.7128  0.1843  0.2582
  392MOL0     C51676   7.222   5.099   2.061  0.2945 -0.9115  1.2127
  392MOL0     C51677   6.656   5.087   1.913 -0.1768  0.2129 -0.3522
  392MOL0     C51678   6.560   5.137   1.996 -0.0681  0.6087 -1.1517
  392MOL0     H51679   5.995   5.144   1.967  2.1239 -2.6378  0.7987
  392MOL0     H51680   5.798   5.194   2.047  0.1892 -1.2944 -2.3507
  392MOL0     H51681   5.561   5.213   2.453 -0.0378  0.2635 -1.7316
  392MOL0     H51682   5.720   5.197   2.531 -3.5141 -2.0718  4.1881
  392MOL0     H51683   5.571   4.991   2.538  0.8166  0.6037  0.4730
  392MOL0     H51684   5.734   4.974   2.480  0.0360 -1.0011 -0.8962
  392MOL0     H51685   5.658   4.980   2.241  2.1559 -1.8993  1.5445
  392MOL0     H51686   5.495   5.013   2.287 -0.4236  0.2320  0.5207
  392MOL0     H51687   5.643   4.757   2.328 -0.4915 -0.5972  1.1382
  392MOL0     H51688   5.500   4.787   2.421 -1.5091 -2.7620 -0.2871
  392MOL0     H51689   5.485   4.643   2.216  1.1214  0.1691 -1.0582
  392MOL0     H51690   5.511   4.781   2.103  0.9746 -1.1820  0.1278
  392MOL0     H51691   5.313   4.909   2.238 -0.5477 -0.6348  0.1360
  392MOL0     H51692   5.281   4.750   2.303  0.8968  0.1405  0.6226
  392MOL0     H51693   5.295   4.670   2.057 -1.4087 -1.6852  3.2876
  392MOL0     H51694   5.150   4.710   2.121  1.7809 -3.6265  3.3241
  392MOL0     H51695   5.331   4.885   1.937 -1.4475 -0.6698 -2.3206
  392MOL0     H51696   5.183   4.956   2.023 -4.0844 -1.6911  0.7703
  392MOL0     H51697   5.250   4.775   1.697 -0.6663  1.0608 -0.8595
  392MOL0     H51698   5.055   4.552   1.584 -1.1785 -0.6195 -3.2899
  392MOL0     H51699   5.042   4.704   1.493 -0.9366  0.0320 -0.6675
  392MOL0     H51700   4.802   4.576   1.614 -0.2827 -0.6330 -0.0796
  392MOL0     H51701   4.854   4.581   1.444  0.0128 -0.1639 -0.2931
  392MOL0     H51702   4.788   4.844   1.593  0.8768 -0.7656  1.9000
  392MOL0     H51703   4.810   4.818   1.419 -0.7259 -2.4501 -0.8743
  392MOL0     H51704   4.592   4.673   1.583 -1.5889  1.2147  0.1047
  392MOL0     H51705   4.614   4.670   1.411  1.3793 -0.6718  1.6511
  392MOL0     H51706   4.388   4.638   1.531 -1.2919 -0.3020 -0.9847
  392MOL0     H51707   4.145   4.665   1.582  0.0148 -0.8732  0.3947
  392MOL0     H51708   3.739   4.893   1.693 -1.0435 -0.4046  0.1095
  392MOL0     H51709   3.502   4.848   1.686 -1.0376 -0.0808 -0.3899
  392MOL0     H51710   3.326   4.805   1.360  2.7145  3.9971  1.0474
  392MOL0     H51711   3.319   4.882   1.517  0.2432 -1.2975  2.1256
  392MOL0     H51712   3.139   4.708   1.579  2.3611 -0.0514  0.7535
  392MOL0     H51713   3.135   4.661   1.406 -0.3485  2.0334 -2.4350
  392MOL0     H51714   3.086   4.881   1.335 -0.7770 -1.9489 -0.1781
  392MOL0     H51715   3.080   4.948   1.497 -0.0837 -1.3174  1.9423
  392MOL0     H51716   2.896   4.790   1.552  0.5056 -0.7680 -0.6386
  392MOL0     H51717   2.857   4.913   1.425 -3.2451 -1.1971 -0.2338
  392MOL0     H51718   2.851   4.611   1.381 -1.7117  0.2673  1.5260
  392MOL0     H51719   2.891   4.724   1.245 -1.1413 -0.2478 -0.9941
  392MOL0     H51720   2.645   4.643   1.271 -0.6423  0.4820 -0.6411
  392MOL0     H51721   2.681   4.812   1.250 -1.0645  1.0346  1.0319
  392MOL0     H51722   2.633   4.663   1.514 -0.4139  0.5233  0.2234
  392MOL0     H51723   2.646   4.843   1.500 -0.9795 -0.1516  0.0296
  392MOL0     H51724   2.403   4.758   1.522  0.4749 -0.7017  0.8763
  392MOL0     H51725   2.435   4.648   1.392 -2.6747 -1.0115  2.9569
  392MOL0     H51726   3.558   4.543   1.395 -2.9493  0.5701  1.5997
  392MOL0     H51727   3.807   4.606   1.383  2.5634  2.3251  0.6627
  392MOL0     H51728   4.167   5.074   1.450 -2.5715 -0.3815 -0.1369
  392MOL0     H51729   4.400   5.049   1.410  0.6289 -0.8228  0.8596
  392MOL0     H51730   5.945   5.134   2.457 -0.3592 -0.6325 -0.0526
  392MOL0     H51731   6.175   5.089   2.349  0.3332  1.3404 -0.1352
  392MOL0     H51732   6.339   4.876   1.957 -1.3397  1.8118  2.0674
  392MOL0     H51733   6.532   4.811   1.801  1.0221 -0.9308  1.5836
  392MOL0     H51734   6.855   5.116   1.726  3.3147  1.4828  3.5686
  392MOL0     H51735   6.882   4.970   1.628  0.0191  0.0298 -1.4422
  392MOL0     H51736   6.967   5.033   1.911 -0.7147 -1.9570  1.4245
  392MOL0     H51737   6.989   4.872   1.857  0.6651  0.9110  2.1605
  392MOL0     H51738   7.096   5.109   1.710  1.0358  0.2919  0.7990
  392MOL0     H51739   7.109   4.950   1.642 -0.6424 -0.4359 -0.0739
  392MOL0     H51740   7.267   4.882   1.823  0.9260  0.9745  0.7474
  392MOL0     H51741   7.323   5.045   1.765  2.8865  0.1990  3.0019
  392MOL0     H51742   7.205   5.132   2.162 -0.4019  0.4426  0.6798
  392MOL0     H51743   6.745   5.149   1.908 -1.2471  1.8487  0.1583
  392MOL0     H51744   6.590   5.226   2.050  0.9791  1.0053 -2.3361
  393MOL0     O51745   5.695  10.817   7.545 -0.3081 -0.1829  0.5542
  393MOL0     C51746   5.681  10.721   7.628  0.1194  0.3122 -0.2516
  393MOL0     O51747   5.575  10.640   7.647  0.1361  0.1295  0.0417
  393MOL0     C51748   5.461  10.642   7.572  0.4417  0.5753  0.6868
  393MOL0     C51749   5.384  10.526   7.550 -0.2945 -0.4244  0.4756
  393MOL0     C51750   5.253  10.532   7.502 -0.5505 -0.0859  0.5262
  393MOL0     C51751   5.196  10.651   7.463  0.1610  0.5919 -0.2871
  393MOL0     O51752   5.077  10.641   7.396  0.5520 -0.2593 -0.5996
  393MOL0     C51753   4.991  10.754   7.372  0.5430 -0.0767  0.0333
  393MOL0     C51754   4.855  10.676   7.345 -0.1312  0.4742 -0.1233
  393MOL0     C51755   4.849  10.629   7.196 -0.0829  0.3128 -0.2479
  393MOL0     C51756   4.731  10.522   7.183  0.5041 -0.7501 -0.2196
  393MOL0     C51757   4.589  10.570   7.196 -1.4218 -0.6895 -1.0353
  393MOL0     C51758   4.490  10.446   7.192 -0.8207 -1.0645 -0.2919
  393MOL0     C51759   4.344  10.499   7.172 -0.1454 -0.1334  0.3899
  393MOL0     C51760   4.238  10.386   7.174  0.7072  1.1157  0.1613
  393MOL0     N51761   4.096  10.440   7.157 -0.5432 -0.0998 -0.1989
  393MOL0     C51762   3.982  10.370   7.150  0.9425  0.0931  0.1078
  393MOL0     C51763   3.879  10.459   7.177  0.0810  0.4610  0.6745
  393MOL0     C51764   3.735  10.431   7.182  0.4685  0.0734  0.0836
  393MOL0     C51765   3.688  10.347   7.063  0.2787 -0.5471 -0.5299
  393MOL0     C51766   3.533  10.347   7.052 -1.0667 -0.2161 -1.1185
  393MOL0     C51767   3.488  10.283   6.918 -0.3734  0.6224 -0.2140
  393MOL0     O51768   3.350  10.280   6.897  0.0351  0.1358 -0.7678
  393MOL0     C51769   3.277  10.187   6.970  0.0019  0.1986  0.5235
  393MOL0     C51770   3.135  10.191   6.951  0.3718 -0.2199 -0.3516
  393MOL0     C51771   3.053  10.107   7.017 -0.2482  0.3068 -0.0975
  393MOL0     C51772   3.099  10.009   7.103 -0.9985  0.3589  0.4009
  393MOL0     C51773   3.017   9.919   7.171  0.1587  0.3230 -0.1007
  393MOL0     O51774   2.883   9.916   7.125 -0.2112  0.0431  0.7048
  393MOL0     C51775   2.793   9.830   7.185 -1.0103 -0.8713 -0.1177
  393MOL0     C51776   2.716   9.749   7.106  0.0740  0.2617  0.1902
  393MOL0     C51777   2.630   9.651   7.151 -0.0025  0.0316 -0.7631
  393MOL0     C51778   2.618   9.639   7.297  0.0250 -0.3913  0.9690
  393MOL0     O51779   2.540   9.548   7.347 -0.3790 -0.2470  0.3395
  393MOL0     C51780   2.396   9.570   7.311 -0.5495  0.4733 -0.7403
  393MOL0     C51781   2.312   9.485   7.400 -0.8598 -0.0708  0.2212
  393MOL0     C51782   2.330   9.505   7.551  0.1805 -0.6958  0.3954
  393MOL0     C51783   2.244   9.415   7.639 -0.4340  0.1746  0.0985
  393MOL0     C51784   2.099   9.457   7.644  0.0862 -0.4324  0.0646
  393MOL0     C51785   2.022   9.356   7.716  1.3012  1.1014 -0.1506
  393MOL0     C51786   1.877   9.400   7.726  1.4949  0.9789  0.2629
  393MOL0     C51787   1.792   9.294   7.802 -0.4101  0.4148  0.8605
  393MOL0    Cl51788   1.796   9.356   7.971  0.5190  0.2779  0.1303
  393MOL0     C51789   2.683   9.734   7.379 -0.6599 -0.6487 -0.6513
  393MOL0     C51790   2.770   9.823   7.324 -0.2224 -0.0438  0.4772
  393MOL0     O51791   3.060   9.862   7.270 -0.1394 -0.1736 -0.9736
  393MOL0     C51792   3.241  10.013   7.132 -0.6723  0.0603  0.1513
  393MOL0     C51793   3.330  10.096   7.063 -0.0879  0.1699 -0.5409
  393MOL0     N51794   3.937  10.584   7.204  0.1566 -0.2979 -0.3426
  393MOL0     N51795   4.067  10.573   7.183 -0.4534  0.9447  0.4447
  393MOL0     C51796   5.273  10.765   7.470  0.3574 -1.5132  0.7107
  393MOL0     C51797   5.399  10.757   7.527  0.4458 -0.4590 -0.2376
  393MOL0     C51798   5.797  10.712   7.720  0.1539  0.2457  0.6518
  393MOL0     C51799   5.790  10.623   7.831 -0.6047  0.5972  0.1165
  393MOL0     C51800   5.905  10.622   7.913 -0.4300  0.5110 -0.2305
  393MOL0     C51801   6.026  10.701   7.877  0.2198 -0.3403 -0.8034
  393MOL0     O51802   6.149  10.685   7.937 -0.1213 -0.3018 -0.0424
  393MOL0     C51803   6.166  10.591   8.038 -0.5240  0.1390  0.1353
  393MOL0     C51804   6.169  10.446   7.983  0.5368  0.4935 -0.0735
  393MOL0     C51805   6.282  10.410   7.877  0.3981 -1.2592 -0.5974
  393MOL0     C51806   6.273  10.274   7.833 -0.1829  0.7456  0.1024
  393MOL0     C51807   6.368  10.246   7.721  0.6357 -0.2851  0.0887
  393MOL0     C51808   6.445  10.205   7.632 -0.2589 -0.7820 -0.8920
  393MOL0     C51809   6.023  10.789   7.770 -0.5637 -0.6522  0.3932
  393MOL0     C51810   5.905  10.796   7.697 -0.1169 -0.6441 -0.3052
  393MOL0     H51811   5.435  10.431   7.567  1.0691 -0.7471 -4.0636
  393MOL0     H51812   5.202  10.437   7.498  0.3350 -0.5609  0.1389
  393MOL0     H51813   5.014  10.809   7.280  1.7946  0.5581  0.6938
  393MOL0     H51814   4.976  10.823   7.456 -0.5519  0.8379 -0.8922
  393MOL0     H51815   4.769  10.737   7.374 -0.4044  0.4799 -0.9150
  393MOL0     H51816   4.843  10.596   7.419 -1.4460  1.9658  1.3557
  393MOL0     H51817   4.934  10.568   7.163 -1.2937 -0.9282 -1.1934
  393MOL0     H51818   4.837  10.716   7.130 -1.3972  0.9362  0.7813
  393MOL0     H51819   4.741  10.474   7.085 -1.8546 -0.5043 -0.6319
  393MOL0     H51820   4.756  10.446   7.258  3.1869  1.1770  0.9939
  393MOL0     H51821   4.568  10.636   7.112 -0.4635 -0.4913 -1.1329
  393MOL0     H51822   4.581  10.618   7.294 -0.5748  0.1095 -1.3506
  393MOL0     H51823   4.493  10.403   7.293 -1.2691  2.4340  1.3646
  393MOL0     H51824   4.508  10.375   7.111 -1.5475  1.0125 -2.3730
  393MOL0     H51825   4.333  10.561   7.261  2.7731  2.0079 -0.5777
  393MOL0     H51826   4.337  10.564   7.084 -2.4204 -0.1766  0.4711
  393MOL0     H51827   4.245  10.328   7.266 -1.4759  0.5216  0.0161
  393MOL0     H51828   4.257  10.319   7.090 -0.2761  4.2963 -2.8648
  393MOL0     H51829   3.986  10.263   7.133  2.7723 -0.5012  3.3292
  393MOL0     H51830   3.686  10.527   7.165  0.8928 -0.1138 -2.5864
  393MOL0     H51831   3.701  10.401   7.282  2.6628  2.3740  1.6427
  393MOL0     H51832   3.722  10.244   7.076 -1.0481 -0.7703  1.6825
  393MOL0     H51833   3.725  10.392   6.970 -0.4506 -2.1924 -1.6632
  393MOL0     H51834   3.501  10.290   7.140  1.8516 -2.3173 -1.2632
  393MOL0     H51835   3.483  10.444   7.056 -1.5949 -0.3454 -3.2101
  393MOL0     H51836   3.532  10.183   6.919 -0.1423  0.7159 -0.9555
  393MOL0     H51837   3.535  10.340   6.838 -1.2554 -0.7525 -1.7783
  393MOL0     H51838   3.111  10.271   6.882 -1.6634  0.6247  1.2383
  393MOL0     H51839   2.949  10.106   6.988 -0.5865 -0.5046  1.0472
  393MOL0     H51840   2.746   9.758   7.002  2.2385 -0.4815  0.7028
  393MOL0     H51841   2.583   9.589   7.076  1.8117 -1.1482 -0.9911
  393MOL0     H51842   2.392   9.523   7.212  1.6024  0.3064 -0.7836
  393MOL0     H51843   2.372   9.677   7.312 -0.4964  0.5031 -1.6470
  393MOL0     H51844   2.331   9.380   7.378  1.8804  0.4613 -0.3864
  393MOL0     H51845   2.210   9.516   7.374  0.1075  1.6782 -1.9419
  393MOL0     H51846   2.296   9.606   7.576 -1.4418 -1.2415  0.5470
  393MOL0     H51847   2.435   9.491   7.574  0.7042 -1.7969 -2.2363
  393MOL0     H51848   2.240   9.317   7.592  0.7311  0.1553 -0.0106
  393MOL0     H51849   2.289   9.406   7.738 -1.6087  0.6130  0.6875
  393MOL0     H51850   2.065   9.465   7.540  0.8710 -2.3009 -0.3850
  393MOL0     H51851   2.083   9.548   7.702  1.9143 -0.3524  0.5219
  393MOL0     H51852   2.060   9.349   7.818 -0.0885 -0.0453  0.3209
  393MOL0     H51853   2.034   9.258   7.668  1.0646 -0.0229  1.9422
  393MOL0     H51854   1.860   9.496   7.776  0.1546  1.1273 -0.4465
  393MOL0     H51855   1.842   9.401   7.622 -2.6959 -3.0330  1.3276
  393MOL0     H51856   1.837   9.197   7.775  1.6388  1.6730 -0.5474
  393MOL0     H51857   1.691   9.297   7.759 -0.5248  0.9420  1.1596
  393MOL0     H51858   2.674   9.727   7.487  0.4566  2.4157 -0.2796
  393MOL0     H51859   2.835   9.887   7.383  2.3245 -0.8678 -1.2200
  393MOL0     H51860   3.288   9.946   7.203 -1.9849  0.2918  1.2766
  393MOL0     H51861   3.436  10.080   7.082  0.2114  3.6509  1.5077
  393MOL0     H51862   5.232  10.864   7.452 -0.7267 -2.3180 -1.5908
  393MOL0     H51863   5.440  10.858   7.531 -1.5316  0.3603  0.2797
  393MOL0     H51864   5.696  10.573   7.851  0.6464 -3.0982 -2.1894
  393MOL0     H51865   5.886  10.579   8.011 -3.0764 -0.3835 -1.0480
  393MOL0     H51866   6.087  10.595   8.114  1.4728 -2.9785  2.6283
  393MOL0     H51867   6.259  10.608   8.093 -0.5096  0.1156  0.1170
  393MOL0     H51868   6.158  10.375   8.066 -1.7131  1.0296  0.1513
  393MOL0     H51869   6.075  10.438   7.928 -0.0327  2.0935  0.6167
  393MOL0     H51870   6.377  10.433   7.927  1.5859  0.9530 -3.5702
  393MOL0     H51871   6.256  10.485   7.802 -0.9791  0.1175  1.1553
  393MOL0     H51872   6.300  10.211   7.918 -1.8016  0.9019  0.7586
  393MOL0     H51873   6.181  10.235   7.789  1.3233 -1.3005 -1.4610
  393MOL0     H51874   6.525  10.173   7.569  0.1006 -2.3306  0.2988
  393MOL0     H51875   6.120  10.836   7.753  0.3031 -1.2062  3.3008
  393MOL0     H51876   5.907  10.869   7.616  1.3358  0.5914  0.7935
  394MOL0     O51877   4.073   7.768   0.140 -1.2673 -0.1565  0.0867
  394MOL0     C51878   4.022   7.749   0.246  0.1065  0.1709 -0.9816
  394MOL0     O51879   4.085   7.763   0.374  0.4132 -0.1481  0.3120
  394MOL0     C51880   4.200   7.849   0.377  1.3610  0.2092 -0.0020
  394MOL0     C51881   4.322   7.827   0.451  0.3052 -0.2791 -0.4879
  394MOL0     C51882   4.437   7.914   0.444  1.7655 -0.4973 -1.0090
  394MOL0     C51883   4.435   8.029   0.364  0.0639 -0.2044 -0.4200
  394MOL0     O51884   4.544   8.109   0.366 -0.0888  0.1896  0.4806
  394MOL0     C51885   4.529   8.225   0.283  0.1593  0.0195 -0.0455
  394MOL0     C51886   4.665   8.299   0.286 -0.0917 -0.6673  0.6618
  394MOL0     C51887   4.696   8.384   0.410  0.0522 -0.5347 -0.1054
  394MOL0     C51888   4.849   8.395   0.443  0.2138  0.4256  0.2257
  394MOL0     C51889   4.884   8.471   0.573  0.1619 -0.2406  0.9510
  394MOL0     C51890   4.891   8.384   0.697  0.4730  0.0067  0.0329
  394MOL0     C51891   4.881   8.474   0.809 -0.3193  0.1187 -0.4357
  394MOL0     C51892   4.878   8.402   0.948  0.7445  0.1815 -1.4506
  394MOL0     N51893   4.833   8.490   1.052 -0.9817 -0.1037  0.0585
  394MOL0     C51894   4.710   8.545   1.055 -0.2937 -0.0991  0.0876
  394MOL0     C51895   4.717   8.649   1.140  0.3478 -0.3504 -1.5012
  394MOL0     C51896   4.603   8.733   1.178  0.4656  0.0096 -0.2595
  394MOL0     C51897   4.485   8.660   1.243 -0.1298 -0.0769  0.1539
  394MOL0     C51898   4.377   8.758   1.275  1.2367 -0.0104  0.6449
  394MOL0     C51899   4.246   8.681   1.325  0.1558 -0.1601 -0.1706
  394MOL0     O51900   4.181   8.627   1.215 -0.0859 -0.1117  0.3241
  394MOL0     C51901   4.056   8.569   1.225 -0.3307 -0.2950  0.1661
  394MOL0     C51902   3.997   8.546   1.105  0.8729  0.6834  0.1717
  394MOL0     C51903   3.879   8.471   1.106 -0.5763  0.1842  0.6068
  394MOL0     C51904   3.822   8.411   1.221  0.9776  0.6803 -0.3229
  394MOL0     C51905   3.684   8.342   1.209 -0.2743 -0.7505  0.5032
  394MOL0     O51906   3.617   8.368   1.093 -0.0532 -0.8137  0.5206
  394MOL0     C51907   3.476   8.346   1.084 -0.1080 -0.3024 -0.1012
  394MOL0     C51908   3.432   8.317   0.952  0.2246  0.4652 -0.6400
  394MOL0     C51909   3.297   8.280   0.938 -0.1310  0.0832 -0.4313
  394MOL0     C51910   3.208   8.277   1.047 -0.3544 -0.1830 -0.0813
  394MOL0     O51911   3.081   8.243   1.039 -0.4717  0.3711 -0.2027
  394MOL0     C51912   3.000   8.270   0.921  0.4794 -0.3932 -0.0942
  394MOL0     C51913   2.843   8.245   0.953 -0.3344 -0.0329  0.4151
  394MOL0     C51914   2.827   8.319   1.084  0.8692  1.2046 -0.6460
  394MOL0     C51915   2.684   8.324   1.129  0.3945  0.3658  0.4411
  394MOL0     C51916   2.607   8.186   1.135 -0.1228  0.3176  0.2838
  394MOL0     C51917   2.461   8.198   1.187  0.0435 -0.0795  0.2375
  394MOL0     C51918   2.448   8.255   1.332  0.2878  0.6177 -0.6300
  394MOL0     C51919   2.316   8.345   1.351 -0.7141  0.5728  0.6727
  394MOL0    Cl51920   2.183   8.264   1.294  0.0779  0.0461 -0.0715
  394MOL0     C51921   3.253   8.308   1.175 -0.1838  0.4654 -0.3812
  394MOL0     C51922   3.383   8.340   1.194 -0.1912 -0.5701 -0.0360
  394MOL0     O51923   3.642   8.286   1.312  0.2025  0.2179  0.3983
  394MOL0     C51924   3.872   8.450   1.345  0.1454  0.3434  0.0194
  394MOL0     C51925   3.996   8.523   1.347  0.1147  0.4604  0.1579
  394MOL0     N51926   4.841   8.658   1.197  0.1913  0.1739 -0.2827
  394MOL0     N51927   4.913   8.567   1.134  1.7919 -1.5347  0.6549
  394MOL0     C51928   4.312   8.061   0.300  0.5966  0.2178  0.4424
  394MOL0     C51929   4.197   7.968   0.307  0.4729 -0.1459 -0.5583
  394MOL0     C51930   3.879   7.703   0.253 -0.2030 -0.9875 -0.0099
  394MOL0     C51931   3.809   7.683   0.367 -0.5342  0.3960 -1.0540
  394MOL0     C51932   3.673   7.639   0.360 -0.1336 -0.1063  0.4100
  394MOL0     C51933   3.614   7.615   0.234  0.0368  1.1485  0.0486
  394MOL0     O51934   3.497   7.549   0.218  0.0508  0.1159  0.0342
  394MOL0     C51935   3.407   7.561   0.329 -0.4499  0.0078 -0.1652
  394MOL0     C51936   3.267   7.518   0.287  0.6855  0.3097  0.4601
  394MOL0     C51937   3.204   7.608   0.176 -0.3126 -0.0043 -0.0986
  394MOL0     C51938   3.055   7.595   0.152  0.2796 -0.3143  0.6540
  394MOL0     C51939   3.022   7.463   0.098 -0.0808  0.6929 -0.1043
  394MOL0     C51940   2.993   7.350   0.058 -0.1530  0.2014  0.3578
  394MOL0     C51941   3.690   7.619   0.120 -1.1183  0.4125  0.0758
  394MOL0     C51942   3.820   7.668   0.128 -0.1206 -0.1471  0.4440
  394MOL0     H51943   4.314   7.737   0.511 -4.0821 -1.3215 -2.2018
  394MOL0     H51944   4.519   7.881   0.506 -1.2970 -5.2779  1.0475
  394MOL0     H51945   4.457   8.290   0.333  2.3027  2.6220 -0.1598
  394MOL0     H51946   4.498   8.185   0.186  0.7560 -5.3828  1.6626
  394MOL0     H51947   4.661   8.365   0.200  1.5483 -2.8926 -1.2538
  394MOL0     H51948   4.749   8.230   0.272 -0.5122 -0.7824 -1.7109
  394MOL0     H51949   4.657   8.325   0.494  1.2908  1.8398  2.2811
  394MOL0     H51950   4.640   8.477   0.413 -1.8103 -1.5648  3.8859
  394MOL0     H51951   4.884   8.294   0.467  2.1038  1.2605  1.2370
  394MOL0     H51952   4.910   8.438   0.364  0.4404 -1.8190 -0.8935
  394MOL0     H51953   4.803   8.544   0.583 -0.1271 -0.6471  1.6656
  394MOL0     H51954   4.983   8.517   0.565  1.1228 -1.9650  2.1729
  394MOL0     H51955   4.974   8.313   0.700  2.1133  1.6485 -2.8461
  394MOL0     H51956   4.805   8.316   0.696  0.5930 -0.1474 -0.6433
  394MOL0     H51957   4.972   8.534   0.820  1.7088 -3.0874  2.2910
  394MOL0     H51958   4.801   8.548   0.800  0.4986  0.9821 -0.7926
  394MOL0     H51959   4.969   8.345   0.970  0.9253  0.3790 -1.6758
  394MOL0     H51960   4.801   8.325   0.947 -0.6809  1.3639  1.9199
  394MOL0     H51961   4.620   8.520   0.998 -0.9184 -1.2468  1.5117
  394MOL0     H51962   4.568   8.791   1.091 -0.3288 -0.2992 -0.1531
  394MOL0     H51963   4.652   8.806   1.243  0.8812 -0.8836  0.4357
  394MOL0     H51964   4.524   8.613   1.334 -1.1809 -2.6994 -0.6582
  394MOL0     H51965   4.453   8.577   1.179 -2.1774  2.3767 -2.2393
  394MOL0     H51966   4.411   8.831   1.349 -0.2082  1.8238 -0.3897
  394MOL0     H51967   4.347   8.816   1.187  0.3368 -1.8077 -0.2846
  394MOL0     H51968   4.176   8.749   1.373  1.0919  0.5663  0.1988
  394MOL0     H51969   4.272   8.601   1.395 -2.1396  0.4849  1.5161
  394MOL0     H51970   4.051   8.586   1.019 -0.5332  1.9300 -0.1749
  394MOL0     H51971   3.825   8.458   1.013  1.3232  0.2005 -0.5628
  394MOL0     H51972   3.505   8.314   0.871  0.1799 -0.8155 -0.6557
  394MOL0     H51973   3.256   8.267   0.839 -2.1725  1.7355  0.1090
  394MOL0     H51974   3.022   8.200   0.840 -0.0675  1.9926 -2.4535
  394MOL0     H51975   3.027   8.372   0.892 -0.3393  0.9043  3.2917
  394MOL0     H51976   2.843   8.139   0.976  0.2395 -0.0906  0.1589
  394MOL0     H51977   2.771   8.273   0.875  0.8336 -2.0127 -1.4859
  394MOL0     H51978   2.868   8.421   1.081  0.6969  1.4640  2.3600
  394MOL0     H51979   2.884   8.269   1.163 -1.5822 -0.6511  0.0566
  394MOL0     H51980   2.683   8.376   1.226  2.4079  2.0371 -0.3669
  394MOL0     H51981   2.637   8.389   1.055  2.6223  0.2331 -1.1687
  394MOL0     H51982   2.660   8.125   1.209 -0.0876  0.8352  0.6897
  394MOL0     H51983   2.606   8.133   1.039  1.0422  1.9430 -0.6628
  394MOL0     H51984   2.416   8.100   1.173 -0.8864  0.3558  0.1451
  394MOL0     H51985   2.401   8.260   1.120 -0.0872 -0.9268 -0.4537
  394MOL0     H51986   2.452   8.170   1.401 -2.2673 -0.0381 -1.2024
  394MOL0     H51987   2.533   8.320   1.357  0.6898  0.5179 -1.6867
  394MOL0     H51988   2.322   8.441   1.298 -1.5594  0.0416 -0.4296
  394MOL0     H51989   2.298   8.357   1.458 -0.8352 -1.3454  0.9033
  394MOL0     H51990   3.180   8.320   1.255 -1.4657  0.2199 -1.4813
  394MOL0     H51991   3.411   8.378   1.292  2.9502 -0.6200 -0.8256
  394MOL0     H51992   3.826   8.407   1.433 -0.7271  0.8749 -0.1586
  394MOL0     H51993   4.043   8.545   1.442  1.0642  0.7050 -0.3578
  394MOL0     H51994   4.293   8.152   0.244 -0.7009 -0.8044 -0.8517
  394MOL0     H51995   4.111   8.000   0.250 -1.6814 -1.9279  1.5027
  394MOL0     H51996   3.847   7.701   0.467  0.3679 -0.7239 -1.1808
  394MOL0     H51997   3.617   7.629   0.452 -2.1906  0.2843 -0.7330
  394MOL0     H51998   3.418   7.666   0.356  1.0885  0.3769 -2.0470
  394MOL0     H51999   3.423   7.492   0.412 -0.2807  1.8404  1.4008
  394MOL0     H52000   3.274   7.412   0.260  0.8837 -0.1765  2.2590
  394MOL0     H52001   3.201   7.514   0.375 -0.5533 -1.8926 -0.4631
  394MOL0     H52002   3.250   7.595   0.078 -0.7292  3.8084 -0.9584
  394MOL0     H52003   3.221   7.709   0.215  1.3041 -0.3066  0.0756
  394MOL0     H52004   3.005   7.608   0.248  0.7973 -0.9807  1.0235
  394MOL0     H52005   3.031   7.674   0.080 -0.8463 -1.2003  0.0392
  394MOL0     H52006   2.964   7.252   0.027  0.9155 -0.0792  0.2034
  394MOL0     H52007   3.648   7.573   0.030  0.0216 -0.6414  0.0481
  394MOL0     H52008   3.862   7.675   0.028 -1.9411  3.5720 -0.2438
  395MOL0     O52009   6.478   5.506   5.456 -0.0046 -0.0646  0.7529
  395MOL0     C52010   6.508   5.428   5.364  0.0063  0.9015  0.1803
  395MOL0     O52011   6.629   5.401   5.314  0.0347  0.5190  0.7117
  395MOL0     C52012   6.737   5.458   5.376  0.5576  0.7877  0.5490
  395MOL0     C52013   6.841   5.495   5.293  0.6867  0.1430  0.0758
  395MOL0     C52014   6.957   5.543   5.351 -0.0790 -0.3612  0.1337
  395MOL0     C52015   6.961   5.562   5.488 -0.2389  0.4965  0.0542
  395MOL0     O52016   7.078   5.614   5.543  0.7955 -0.4302  0.1407
  395MOL0     C52017   7.156   5.518   5.613  0.7367 -0.3808 -0.4005
  395MOL0     C52018   7.294   5.579   5.651  0.9788 -0.0672  0.1519
  395MOL0     C52019   7.386   5.626   5.544 -0.7379  0.4731  0.2052
  395MOL0     C52020   7.520   5.680   5.600  0.1435  0.1067  1.0889
  395MOL0     C52021   7.604   5.737   5.480  0.3035  0.5214 -0.5994
  395MOL0     C52022   7.710   5.828   5.545 -0.3684  0.5962  0.8842
  395MOL0     C52023   7.819   5.749   5.615 -0.0346 -0.1706  0.4859
  395MOL0     C52024   7.946   5.823   5.664  0.5956  0.4363  0.3668
  395MOL0     N52025   8.038   5.732   5.748  1.1511 -0.2640  0.4788
  395MOL0     C52026   8.098   5.614   5.711 -0.3269 -0.2977  0.0198
  395MOL0     C52027   8.193   5.587   5.808 -0.2457 -0.2736 -1.2564
  395MOL0     C52028   8.292   5.475   5.813 -0.1543 -0.1221  0.6249
  395MOL0     C52029   8.322   5.424   5.959 -1.0854  0.1321  0.3527
  395MOL0     C52030   8.229   5.304   5.993  0.5723 -0.5150 -0.1456
  395MOL0     C52031   8.083   5.337   6.045  0.1524  0.5038  1.1017
  395MOL0     O52032   7.984   5.348   5.934  0.3376 -0.7669 -0.0625
  395MOL0     C52033   7.848   5.325   5.946  0.0304 -0.4505 -0.7979
  395MOL0     C52034   7.760   5.408   5.882 -0.6872  0.9346 -0.2270
  395MOL0     C52035   7.621   5.385   5.884  1.7562  0.4975  0.2700
  395MOL0     C52036   7.569   5.286   5.964  0.2682 -0.5430  0.0900
  395MOL0     C52037   7.428   5.273   5.982 -0.7887  0.0259  0.4142
  395MOL0     O52038   7.382   5.209   6.097 -0.8497 -0.8073 -0.5188
  395MOL0     C52039   7.252   5.165   6.113 -0.1738 -0.3691 -0.6696
  395MOL0     C52040   7.204   5.127   6.242  0.4426 -1.4096 -0.0106
  395MOL0     C52041   7.080   5.067   6.262  1.5251  1.2626 -0.5196
  395MOL0     C52042   6.997   5.052   6.150  0.4140  0.8269 -0.1859
  395MOL0     O52043   6.873   4.987   6.187  0.0514  0.2976 -0.1641
  395MOL0     C52044   6.798   4.941   6.080 -0.1244  0.6816 -0.3706
  395MOL0     C52045   6.653   4.919   6.131  0.4418 -0.0477 -0.1312
  395MOL0     C52046   6.552   4.906   6.020 -0.2919 -0.1132 -0.2784
  395MOL0     C52047   6.400   4.905   6.057 -1.0138 -0.5118 -0.3294
  395MOL0     C52048   6.312   4.893   5.935 -0.4973 -0.1320  0.3241
  395MOL0     C52049   6.170   4.882   5.987  0.4175 -0.5417  0.0616
  395MOL0     C52050   6.076   4.825   5.886  0.5231 -0.1419 -0.0116
  395MOL0     C52051   5.944   4.770   5.949  0.4398 -0.1686  0.0904
  395MOL0    Cl52052   5.859   4.900   6.034 -0.0445  0.4632  0.1683
  395MOL0     C52053   7.038   5.084   6.021 -0.1652 -0.2350 -0.3795
  395MOL0     C52054   7.176   5.129   6.007 -0.1595 -0.3982 -0.1246
  395MOL0     O52055   7.360   5.325   5.899  0.1064  0.5326  0.4494
  395MOL0     C52056   7.656   5.208   6.041  0.2554 -0.1367 -0.1603
  395MOL0     C52057   7.791   5.224   6.025  0.3694  0.1792 -0.1730
  395MOL0     N52058   8.184   5.680   5.912  0.0457 -0.4551 -0.1929
  395MOL0     N52059   8.087   5.764   5.867  0.4111  0.5839 -0.5859
  395MOL0     C52060   6.863   5.522   5.569  0.0725 -0.3304  0.5174
  395MOL0     C52061   6.751   5.474   5.515  1.3903 -0.8797  0.5701
  395MOL0     C52062   6.390   5.373   5.293 -0.1294 -0.6128  0.7168
  395MOL0     C52063   6.263   5.406   5.327  0.1959 -0.2640  0.2304
  395MOL0     C52064   6.149   5.359   5.258 -0.4370  0.3026 -0.2379
  395MOL0     C52065   6.164   5.255   5.166 -0.1853 -0.2384  0.3101
  395MOL0     O52066   6.058   5.191   5.100  0.5701 -0.0486 -0.1540
  395MOL0     C52067   5.928   5.251   5.116  0.1846 -0.6299 -0.0407
  395MOL0     C52068   5.814   5.174   5.035 -0.2803  0.1285  0.8054
  395MOL0     C52069   5.683   5.224   5.076  0.7464  0.4054  0.4577
  395MOL0     C52070   5.602   5.122   5.153  0.3921  0.2473 -0.6630
  395MOL0     C52071   5.475   5.171   5.189  0.6863  0.6165 -0.6367
  395MOL0     C52072   5.366   5.199   5.226 -0.7489 -0.3373 -0.4613
  395MOL0     C52073   6.293   5.213   5.126 -0.4883  0.6059  0.0172
  395MOL0     C52074   6.400   5.277   5.186 -0.0303  0.7974 -1.0296
  395MOL0     H52075   6.836   5.481   5.186  0.5869  1.1649 -0.0635
  395MOL0     H52076   7.047   5.576   5.299 -1.4425 -1.0973 -2.8873
  395MOL0     H52077   7.195   5.427   5.566  0.1705 -0.9409  0.1828
  395MOL0     H52078   7.099   5.502   5.706 -0.9104 -0.9618 -1.4598
  395MOL0     H52079   7.346   5.500   5.707 -0.1138  0.4995  2.0822
  395MOL0     H52080   7.282   5.664   5.720 -0.6802 -1.0490  1.1346
  395MOL0     H52081   7.330   5.715   5.511  0.9959  1.4782 -0.1357
  395MOL0     H52082   7.407   5.547   5.471 -2.1682 -1.8000  2.1032
  395MOL0     H52083   7.489   5.756   5.672  0.5793  1.9507 -0.5789
  395MOL0     H52084   7.576   5.600   5.648 -0.4508 -1.4491 -0.6857
  395MOL0     H52085   7.546   5.795   5.408  1.8149 -1.4475 -3.5996
  395MOL0     H52086   7.653   5.658   5.423 -0.1522  0.0582 -0.3587
  395MOL0     H52087   7.669   5.907   5.610  0.8479  1.9483  0.0781
  395MOL0     H52088   7.755   5.888   5.466  1.4125 -3.1324 -1.1774
  395MOL0     H52089   7.771   5.718   5.709 -0.1200  3.1643  1.6813
  395MOL0     H52090   7.863   5.667   5.558 -0.5298 -0.1148  0.0175
  395MOL0     H52091   7.901   5.902   5.724 -3.1299  1.0892 -2.8885
  395MOL0     H52092   8.003   5.869   5.583  3.1768 -0.9915  1.2449
  395MOL0     H52093   8.086   5.561   5.617  0.1163 -2.2969  1.0261
  395MOL0     H52094   8.381   5.523   5.771  0.4636 -0.7148  1.2311
  395MOL0     H52095   8.268   5.394   5.743 -1.1034 -1.2941  2.2409
  395MOL0     H52096   8.320   5.504   6.033  1.9128  0.3072  0.3567
  395MOL0     H52097   8.423   5.383   5.966 -2.1757 -2.5737  1.7297
  395MOL0     H52098   8.212   5.240   5.906 -0.3416 -1.3684  0.6421
  395MOL0     H52099   8.275   5.238   6.067 -2.8399 -0.9256  1.7989
  395MOL0     H52100   8.079   5.432   6.098 -4.5590 -0.2782  2.6421
  395MOL0     H52101   8.053   5.259   6.116 -0.5200  1.3344  1.7531
  395MOL0     H52102   7.799   5.491   5.823  2.0770 -1.8779 -2.7258
  395MOL0     H52103   7.557   5.453   5.829 -0.4302 -2.7311 -1.4645
  395MOL0     H52104   7.261   5.150   6.331 -0.7016  0.4491  0.2817
  395MOL0     H52105   7.045   5.067   6.364 -0.3971  0.6683 -1.1402
  395MOL0     H52106   6.842   4.853   6.031  2.2118  1.6324 -0.0965
  395MOL0     H52107   6.781   5.025   6.013 -2.4725 -1.2781 -2.4145
  395MOL0     H52108   6.628   5.010   6.187  0.7883 -0.6123  0.9694
  395MOL0     H52109   6.645   4.833   6.198  0.7635  0.0781  0.0670
  395MOL0     H52110   6.594   4.813   5.979  1.8289 -0.5854  2.6106
  395MOL0     H52111   6.569   4.987   5.949  0.2210 -0.6821 -0.8257
  395MOL0     H52112   6.385   4.814   6.116  0.0189 -3.7682 -4.5737
  395MOL0     H52113   6.374   4.998   6.109  3.7233  0.8031  0.1590
  395MOL0     H52114   6.331   4.799   5.882  1.3512 -0.5174  1.5795
  395MOL0     H52115   6.326   4.970   5.859 -1.9413 -1.1790 -1.0867
  395MOL0     H52116   6.123   4.977   6.012 -2.4571 -1.2378 -2.0844
  395MOL0     H52117   6.184   4.814   6.072  0.4962 -0.9460 -0.2673
  395MOL0     H52118   6.057   4.900   5.809  0.4125  0.1042  0.2533
  395MOL0     H52119   6.125   4.741   5.835  3.1391  2.6746 -2.5239
  395MOL0     H52120   5.954   4.687   6.020 -0.9846 -1.2761 -0.9552
  395MOL0     H52121   5.888   4.720   5.870 -1.1907  0.8778  0.5362
  395MOL0     H52122   6.983   5.058   5.931 -3.2206  0.3066  1.2064
  395MOL0     H52123   7.211   5.130   5.904  0.1989  1.1837 -0.0107
  395MOL0     H52124   7.624   5.134   6.114  2.4172  0.4883  1.5323
  395MOL0     H52125   7.856   5.150   6.068  1.5244  1.2086 -0.0843
  395MOL0     H52126   6.858   5.539   5.676  0.6588  4.1681  0.0273
  395MOL0     H52127   6.667   5.443   5.576 -1.1507  0.0526 -2.2305
  395MOL0     H52128   6.253   5.478   5.407  0.9705  1.5677 -1.2366
  395MOL0     H52129   6.055   5.408   5.284  0.9709  1.7237  2.6310
  395MOL0     H52130   5.922   5.358   5.093 -1.9880 -0.6384  0.2836
  395MOL0     H52131   5.892   5.252   5.220 -1.3602 -0.5052 -0.5550
  395MOL0     H52132   5.834   5.178   4.928 -3.0090  2.3404  0.2710
  395MOL0     H52133   5.837   5.076   5.076  1.4473  0.6782  1.2461
  395MOL0     H52134   5.627   5.235   4.982 -2.0896 -0.6950  1.9201
  395MOL0     H52135   5.687   5.324   5.121 -0.6151  1.5289 -1.7290
  395MOL0     H52136   5.605   5.038   5.083  3.0946  0.4222 -0.8521
  395MOL0     H52137   5.656   5.094   5.244  0.5294 -0.1915 -0.8755
  395MOL0     H52138   5.263   5.227   5.235 -0.6885  0.2905 -1.6282
  395MOL0     H52139   6.308   5.134   5.053  3.9208  0.4953  0.7722
  395MOL0     H52140   6.495   5.235   5.154 -0.9028 -1.1322 -1.2557
  396MOL0     O52141   1.262   0.533  10.414 -0.5604  0.2687  0.3150
  396MOL0     C52142   1.281   0.644  10.364  0.1171 -0.1752 -0.4918
  396MOL0     O52143   1.207   0.754  10.384 -0.8483 -0.3068 -0.9741
  396MOL0     C52144   1.110   0.738  10.479 -1.5320 -0.5228  0.7623
  396MOL0     C52145   1.140   0.779  10.612  1.1605  0.4450 -0.1818
  396MOL0     C52146   1.024   0.779  10.703  0.2269 -0.4039  0.2952
  396MOL0     C52147   0.892   0.740  10.657  0.1326 -0.5873 -0.5461
  396MOL0     O52148   0.795   0.738  10.753  0.7172 -0.7979 -0.4369
  396MOL0     C52149   0.671   0.676  10.732  0.0183 -0.0434 -0.4618
  396MOL0     C52150   0.693   0.519  10.732  0.4872  0.8224 -0.7828
  396MOL0     C52151   0.559   0.456  10.685  0.3741 -0.1939 -0.0947
  396MOL0     C52152   0.543   0.326  10.762 -0.5590 -0.8934  0.4442
  396MOL0     C52153   0.416   0.257  10.750 -0.0124 -0.4476  0.4236
  396MOL0     C52154   0.408   0.170  10.618 -0.6598  0.2581 -0.8034
  396MOL0     C52155   0.263   0.121  10.583 -0.3327 -0.5063  0.2054
  396MOL0     C52156   0.271   0.065  10.444 -0.3702 -0.2836  0.3237
  396MOL0     N52157   0.150  -0.015  10.404  0.4042 -1.1931 -0.4147
  396MOL0     C52158   0.076  -0.099  10.480 -0.0382  0.0030  0.0153
  396MOL0     C52159  -0.007  -0.153  10.393  0.4583  0.0540  1.1124
  396MOL0     C52160  -0.094  -0.271  10.417  0.7238  0.3109 -0.4622
  396MOL0     C52161  -0.231  -0.237  10.459 -0.7137 -0.3809 -0.8933
  396MOL0     C52162  -0.324  -0.224  10.336  0.8660  0.2147 -0.4256
  396MOL0     C52163  -0.473  -0.247  10.363  0.2904 -0.1225 -0.4454
  396MOL0     O52164  -0.521  -0.134  10.437 -0.5784 -0.9052  0.9397
  396MOL0     C52165  -0.654  -0.116  10.463  0.2586  0.1275 -0.3660
  396MOL0     C52166  -0.752  -0.200  10.415  0.5875 -0.6283  0.4557
  396MOL0     C52167  -0.885  -0.165  10.442 -0.2431  0.1054  0.7193
  396MOL0     C52168  -0.923  -0.048  10.512 -0.4221  1.0799 -0.4232
  396MOL0     C52169  -1.062  -0.014  10.525 -1.1527 -0.9991 -0.2917
  396MOL0     O52170  -1.153  -0.113  10.497  0.3775 -0.5580 -0.4790
  396MOL0     C52171  -1.280  -0.094  10.453  0.4215  0.5474  0.4496
  396MOL0     C52172  -1.360   0.004  10.497 -0.0650  0.1929  0.0056
  396MOL0     C52173  -1.492   0.027  10.450 -0.6251 -0.0780  0.2769
  396MOL0     C52174  -1.557  -0.053  10.360  0.3877  0.2155  0.6471
  396MOL0     O52175  -1.677  -0.012  10.317 -0.2234 -0.2703 -0.3247
  396MOL0     C52176  -1.763  -0.080  10.219 -0.2022 -0.2965  0.1673
  396MOL0     C52177  -1.885   0.006  10.204  0.2006 -0.7174  0.5115
  396MOL0     C52178  -1.969   0.002  10.334  0.3073  0.1975  0.6712
  396MOL0     C52179  -2.102   0.079  10.313 -0.5695 -0.8193  0.8413
  396MOL0     C52180  -2.084   0.232  10.284 -0.4102 -0.0242  0.3530
  396MOL0     C52181  -2.222   0.311  10.279  0.4404  0.9384  0.5068
  396MOL0     C52182  -2.287   0.299  10.138 -0.8170 -0.2474 -0.1644
  396MOL0     C52183  -2.429   0.343  10.143 -0.6728  0.2520  0.0739
  396MOL0    Cl52184  -2.446   0.518  10.184 -0.1353  0.5201  0.3475
  396MOL0     C52185  -1.483  -0.161  10.318  0.3395  0.2033 -0.1249
  396MOL0     C52186  -1.348  -0.177  10.359 -0.5296 -0.2629  0.4474
  396MOL0     O52187  -1.083   0.104  10.558 -0.0543  0.1647  0.6695
  396MOL0     C52188  -0.821   0.031  10.551  0.0464  0.1161  0.4161
  396MOL0     C52189  -0.686   0.003  10.524 -0.0081  0.4590 -0.4309
  396MOL0     N52190  -0.006  -0.079  10.269 -1.0169  0.8806  0.4543
  396MOL0     N52191   0.100   0.003  10.273  0.1687  0.8418 -0.4932
  396MOL0     C52192   0.873   0.713  10.523  0.9803  0.4901 -0.0812
  396MOL0     C52193   0.981   0.711  10.433 -0.1706 -0.2313  0.1832
  396MOL0     C52194   1.407   0.673  10.277  0.6744  0.6741 -0.2773
  396MOL0     C52195   1.438   0.804  10.226  0.3865  0.6786 -0.6540
  396MOL0     C52196   1.555   0.826  10.150 -0.0996 -0.1441  0.8571
  396MOL0     C52197   1.645   0.728  10.133  0.0247  1.0565  0.3178
  396MOL0     O52198   1.772   0.750  10.082 -0.4172  0.2284 -0.0773
  396MOL0     C52199   1.782   0.810   9.950 -0.1573 -0.9191  0.5823
  396MOL0     C52200   1.893   0.729   9.874 -0.6256  0.3520  0.0858
  396MOL0     C52201   1.909   0.759   9.717  0.1010 -0.2120  0.1908
  396MOL0     C52202   2.022   0.677   9.655  0.2794  0.4465 -0.0533
  396MOL0     C52203   1.985   0.536   9.631  0.3645 -0.5004  0.2921
  396MOL0     C52204   1.951   0.415   9.632 -0.3058  0.3950  0.2312
  396MOL0     C52205   1.612   0.602  10.180  0.2956 -0.5957 -0.4708
  396MOL0     C52206   1.492   0.568  10.241 -0.2738  0.2309 -0.7099
  396MOL0     H52207   1.239   0.810  10.645 -0.1938  3.6653  1.3563
  396MOL0     H52208   1.037   0.811  10.806 -2.7107  0.1441  0.6062
  396MOL0     H52209   0.628   0.704  10.636 -1.3491  0.4290  0.2678
  396MOL0     H52210   0.607   0.698  10.817 -1.5843  1.7566 -2.0647
  396MOL0     H52211   0.726   0.491  10.833 -5.3514 -0.3726  1.1549
  396MOL0     H52212   0.774   0.487  10.666  1.5039  1.9324 -0.1165
  396MOL0     H52213   0.561   0.435  10.577 -2.2003  1.3736 -0.5498
  396MOL0     H52214   0.474   0.519  10.712  1.4793  0.6575  1.6101
  396MOL0     H52215   0.626   0.260  10.732 -0.3026  0.3680 -1.8545
  396MOL0     H52216   0.561   0.333  10.870 -2.2540 -2.7031  0.9110
  396MOL0     H52217   0.331   0.326  10.750  1.2049  1.1102  0.1404
  396MOL0     H52218   0.397   0.204  10.844 -0.4351 -0.2872  0.4325
  396MOL0     H52219   0.471   0.087  10.649 -0.5385  0.2934 -0.9571
  396MOL0     H52220   0.461   0.215  10.534 -0.4034 -1.4865 -1.6131
  396MOL0     H52221   0.233   0.047  10.658  0.2182  0.8621  1.8511
  396MOL0     H52222   0.195   0.207  10.576 -0.7464 -0.9338 -1.6216
  396MOL0     H52223   0.346  -0.013  10.430 -2.0250 -2.7552  3.6890
  396MOL0     H52224   0.284   0.141  10.366 -0.9552  0.0826  0.5779
  396MOL0     H52225   0.064  -0.124  10.585  0.5102  0.8089  0.2780
  396MOL0     H52226  -0.058  -0.318  10.508 -1.9535  1.0561  1.0765
  396MOL0     H52227  -0.094  -0.341  10.333  1.7394 -0.9069  0.5184
  396MOL0     H52228  -0.236  -0.148  10.521  2.5748  1.2668 -2.6944
  396MOL0     H52229  -0.275  -0.320  10.515  1.6492  1.5256  4.4695
  396MOL0     H52230  -0.326  -0.127  10.285 -3.1831 -0.0650 -1.1005
  396MOL0     H52231  -0.294  -0.298  10.261  0.3897 -0.2265 -0.1806
  396MOL0     H52232  -0.483  -0.332  10.431 -0.3249 -0.3525 -0.8188
  396MOL0     H52233  -0.523  -0.265  10.267  2.4022  2.1364 -2.1066
  396MOL0     H52234  -0.742  -0.288  10.353 -2.8462 -0.7637 -0.0969
  396MOL0     H52235  -0.961  -0.231  10.402 -1.2589  2.1812 -1.0207
  396MOL0     H52236  -1.325   0.071  10.575  1.9809 -2.0873  1.2049
  396MOL0     H52237  -1.536   0.119  10.489  0.8269  0.4571  0.6945
  396MOL0     H52238  -1.772  -0.187  10.240 -0.9088 -0.1207  0.8289
  396MOL0     H52239  -1.711  -0.069  10.123  0.3613 -0.2715  0.4730
  396MOL0     H52240  -1.946  -0.042  10.128  0.3816  0.5924 -0.5102
  396MOL0     H52241  -1.847   0.100  10.163  3.4431 -2.8419 -1.8594
  396MOL0     H52242  -1.910   0.046  10.416  1.9668  0.0183 -0.3918
  396MOL0     H52243  -1.989  -0.102  10.361  0.1953  0.5254  1.9200
  396MOL0     H52244  -2.166   0.034  10.236 -2.0398 -0.0027  1.5385
  396MOL0     H52245  -2.156   0.078  10.409 -4.7890 -0.9880 -1.2769
  396MOL0     H52246  -2.033   0.258  10.191  0.6072  0.0060  0.8976
  396MOL0     H52247  -2.027   0.267  10.371  1.5064  0.0283 -0.8781
  396MOL0     H52248  -2.209   0.417  10.306 -1.6795  1.0524  1.2666
  396MOL0     H52249  -2.293   0.265  10.348  1.2689 -0.3852  0.5022
  396MOL0     H52250  -2.235   0.362  10.066  2.0355 -4.2670 -2.0274
  396MOL0     H52251  -2.285   0.193  10.110  3.1593 -0.2843 -0.3610
  396MOL0     H52252  -2.489   0.290  10.218 -3.6303  1.7307 -1.0496
  396MOL0     H52253  -2.468   0.339  10.041 -0.6373  2.8229 -0.1129
  396MOL0     H52254  -1.515  -0.225  10.237  3.3257 -0.9841 -0.4843
  396MOL0     H52255  -1.298  -0.258  10.307  3.1635  2.2648 -0.3376
  396MOL0     H52256  -0.839   0.128  10.596  1.8299  0.5443  0.2845
  396MOL0     H52257  -0.609   0.078  10.540 -0.7843  0.9374  1.3277
  396MOL0     H52258   0.775   0.685  10.486 -0.4129 -0.8901  4.0816
  396MOL0     H52259   0.958   0.701  10.328  1.3654 -1.9675 -0.0412
  396MOL0     H52260   1.373   0.884  10.261  0.1729  0.3108 -0.2021
  396MOL0     H52261   1.566   0.915  10.087  1.5730 -0.1731  1.0631
  396MOL0     H52262   1.816   0.912   9.970 -1.2123 -0.6757  1.1940
  396MOL0     H52263   1.690   0.813   9.891  0.7375  0.2810 -0.8013
  396MOL0     H52264   1.993   0.738   9.917 -0.2316 -0.2948 -0.6713
  396MOL0     H52265   1.847   0.629   9.879  1.2355 -0.5736 -0.5286
  396MOL0     H52266   1.934   0.864   9.702 -0.7632 -0.1073 -0.6158
  396MOL0     H52267   1.813   0.736   9.670 -1.0633  2.4297  1.1236
  396MOL0     H52268   2.052   0.730   9.564  0.9214 -0.1693 -0.2081
  396MOL0     H52269   2.104   0.683   9.727 -0.6612 -1.2673  1.2521
  396MOL0     H52270   1.939   0.309   9.627  2.0211  0.1360 -1.6217
  396MOL0     H52271   1.683   0.529  10.144  0.9532  0.3962 -1.2197
  396MOL0     H52272   1.482   0.463  10.264  1.0414  0.1956 -0.1981
  397MOL0     O52273  10.554   8.960   0.217 -0.0292  0.0308  0.0218
  397MOL0     C52274  10.496   9.014   0.306  0.5313  0.1487 -1.0452
  397MOL0     O52275  10.554   9.101   0.393  0.5690  0.4710  0.3754
  397MOL0     C52276  10.685   9.125   0.382 -0.4954  0.4031 -0.1473
  397MOL0     C52277  10.730   9.255   0.349 -0.6007 -1.0267  0.4697
  397MOL0     C52278  10.869   9.284   0.363 -0.1075 -0.4532  1.0468
  397MOL0     C52279  10.956   9.189   0.414  1.0711 -0.2631 -0.3500
  397MOL0     O52280  11.088   9.216   0.433  0.1751  0.5044  0.0164
  397MOL0     C52281  11.135   9.342   0.445  0.0689  0.3655  0.1776
  397MOL0     C52282  11.191   9.391   0.314  0.7176  0.9057 -0.6450
  397MOL0     C52283  11.283   9.511   0.314 -1.1129 -0.5441  0.8030
  397MOL0     C52284  11.411   9.487   0.405 -0.2177  0.4181  0.0623
  397MOL0     C52285  11.502   9.367   0.372  0.5863 -0.7374  0.5521
  397MOL0     C52286  11.650   9.401   0.389 -0.2476  0.3760  0.7981
  397MOL0     C52287  11.746   9.296   0.329  0.0643  0.1341  0.3329
  397MOL0     C52288  11.768   9.164   0.399  0.2877 -0.3819 -1.0747
  397MOL0     N52289  11.772   9.162   0.542 -0.0485  0.3609 -1.1102
  397MOL0     C52290  11.848   9.237   0.626 -0.2911  0.0535 -0.5811
  397MOL0     C52291  11.820   9.207   0.749  0.2810 -0.5031  0.0490
  397MOL0     C52292  11.881   9.254   0.883  0.3618 -0.2264 -0.3614
  397MOL0     C52293  11.891   9.150   1.002  0.0369  0.3376 -0.2977
  397MOL0     C52294  11.930   9.207   1.146 -0.2247 -0.0431 -0.2780
  397MOL0     C52295  11.822   9.240   1.238  0.2790  0.0615 -0.5950
  397MOL0     O52296  11.721   9.311   1.166 -0.1667  0.5024 -0.6383
  397MOL0     C52297  11.586   9.316   1.201 -0.2606  0.4063  0.1737
  397MOL0     C52298  11.509   9.394   1.118 -0.0841  1.4325  0.1331
  397MOL0     C52299  11.371   9.420   1.126  0.0136  0.0705 -0.6026
  397MOL0     C52300  11.303   9.353   1.230  0.4337 -0.4814  0.4300
  397MOL0     C52301  11.157   9.370   1.245 -0.4933 -0.5821  0.8556
  397MOL0     O52302  11.086   9.305   1.339  0.5846  0.0220 -0.5310
  397MOL0     C52303  10.950   9.320   1.333 -0.4179 -0.2539  0.8186
  397MOL0     C52304  10.886   9.439   1.376 -0.2591  0.4220  0.3266
  397MOL0     C52305  10.747   9.460   1.369 -0.4315 -0.9616 -0.4546
  397MOL0     C52306  10.664   9.355   1.333 -0.6129  0.1292  0.2112
  397MOL0     O52307  10.527   9.373   1.326 -0.5744 -0.0717 -0.5652
  397MOL0     C52308  10.459   9.475   1.413  0.0910  0.2389 -0.3468
  397MOL0     C52309  10.308   9.466   1.387 -0.7937 -0.0521 -0.0744
  397MOL0     C52310  10.228   9.553   1.486 -0.1185  0.3836 -0.2504
  397MOL0     C52311  10.087   9.564   1.440 -0.4552  0.0058 -0.6320
  397MOL0     C52312   9.991   9.616   1.549 -0.8283 -0.2303  0.2591
  397MOL0     C52313   9.849   9.579   1.510 -0.3133 -0.0595 -0.3276
  397MOL0     C52314   9.746   9.664   1.567  0.3629 -0.2229  0.5104
  397MOL0     C52315   9.614   9.604   1.517  0.5405  0.6149  0.3287
  397MOL0    Cl52316   9.594   9.659   1.346 -0.1865  0.5544  0.6012
  397MOL0     C52317  10.721   9.238   1.281  0.5627  1.0614 -0.2229
  397MOL0     C52318  10.864   9.226   1.270  0.9588  0.7146 -1.3174
  397MOL0     O52319  11.106   9.430   1.151  0.8707 -0.6560  0.8225
  397MOL0     C52320  11.377   9.271   1.314 -0.8518  0.7190 -0.4227
  397MOL0     C52321  11.516   9.241   1.299  0.4688 -0.2396  0.1683
  397MOL0     N52322  11.723   9.106   0.745 -0.5993  0.2959 -0.2668
  397MOL0     N52323  11.704   9.081   0.624  0.1188 -0.1598 -0.7097
  397MOL0     C52324  10.909   9.065   0.452 -0.0676  0.0585 -0.5424
  397MOL0     C52325  10.770   9.035   0.443 -0.1875 -0.1936  0.2658
  397MOL0     C52326  10.364   8.972   0.349 -0.7749  1.0452 -0.6911
  397MOL0     C52327  10.304   9.018   0.477  0.2356 -0.2670  0.4184
  397MOL0     C52328  10.176   8.981   0.511  0.2963  0.1010 -0.1179
  397MOL0     C52329  10.107   8.889   0.435  0.5130  0.1083  0.4598
  397MOL0     O52330   9.974   8.856   0.460 -0.1607  0.6067 -0.1566
  397MOL0     C52331   9.902   8.914   0.577 -0.2568 -0.7271  0.2666
  397MOL0     C52332   9.755   8.871   0.584  0.8023 -0.7029 -0.0522
  397MOL0     C52333   9.702   8.903   0.727 -0.4267  0.4955 -0.2152
  397MOL0     C52334   9.552   8.872   0.729  0.5360 -1.0035  1.0330
  397MOL0     C52335   9.524   8.735   0.726  0.2373  0.2842 -1.2011
  397MOL0     C52336   9.511   8.614   0.718 -0.4185 -0.5754  0.0177
  397MOL0     C52337  10.154   8.847   0.313 -0.8240  0.4944 -0.3247
  397MOL0     C52338  10.280   8.882   0.274 -1.2229  0.0754  0.1331
  397MOL0     H52339  10.674   9.338   0.305  1.7920 -0.4660 -1.7691
  397MOL0     H52340  10.906   9.385   0.350  2.2863 -1.2389  1.4407
  397MOL0     H52341  11.222   9.332   0.510 -1.8538  2.1099  3.2873
  397MOL0     H52342  11.059   9.410   0.485 -1.0663 -1.0290  0.4788
  397MOL0     H52343  11.106   9.413   0.249  1.3255 -0.4179 -1.9442
  397MOL0     H52344  11.248   9.308   0.271  0.8354 -0.4569  1.9265
  397MOL0     H52345  11.247   9.607   0.354  2.2078  0.1979  2.3140
  397MOL0     H52346  11.308   9.516   0.208  0.1048  2.4213  1.1373
  397MOL0     H52347  11.465   9.582   0.397 -0.1041  0.2326 -2.2274
  397MOL0     H52348  11.377   9.471   0.507  1.7507 -1.1551  0.5496
  397MOL0     H52349  11.483   9.339   0.268 -0.4760  2.0358 -0.0921
  397MOL0     H52350  11.469   9.293   0.446 -1.8162 -0.7856 -0.4834
  397MOL0     H52351  11.663   9.428   0.494  1.5797 -0.0197  0.7012
  397MOL0     H52352  11.666   9.491   0.329 -1.2923 -1.0645 -1.8012
  397MOL0     H52353  11.709   9.269   0.229  4.4916  0.7362 -1.7070
  397MOL0     H52354  11.841   9.348   0.317 -1.5106  3.2287  0.2944
  397MOL0     H52355  11.858   9.122   0.353  0.3038  0.8576 -2.2319
  397MOL0     H52356  11.692   9.089   0.372  1.8695 -2.7534  0.6691
  397MOL0     H52357  11.943   9.283   0.603  0.3743 -0.1282  1.5550
  397MOL0     H52358  11.814   9.337   0.907 -0.9485 -0.7657 -1.9682
  397MOL0     H52359  11.982   9.290   0.862 -0.6500  2.0855 -1.6623
  397MOL0     H52360  11.969   9.077   0.978  0.0385  0.6263 -1.1770
  397MOL0     H52361  11.792   9.105   1.013 -0.4153  1.2458 -0.5901
  397MOL0     H52362  12.004   9.144   1.196  0.0325  1.4251  1.2764
  397MOL0     H52363  11.973   9.306   1.130  0.8158 -0.4794 -0.2177
  397MOL0     H52364  11.868   9.305   1.314 -1.2183 -1.0707  1.3584
  397MOL0     H52365  11.783   9.151   1.286  1.1662 -0.3771 -0.6690
  397MOL0     H52366  11.583   9.441   1.054  3.6539  0.7297  3.5916
  397MOL0     H52367  11.329   9.495   1.059  2.0571 -1.2408 -3.5439
  397MOL0     H52368  10.943   9.521   1.421  0.7208 -0.1541  0.1737
  397MOL0     H52369  10.715   9.556   1.410  2.4422  0.3711 -1.0199
  397MOL0     H52370  10.490   9.577   1.387 -0.8729  1.1430  1.7827
  397MOL0     H52371  10.479   9.458   1.519  0.7838  2.2222 -0.1050
  397MOL0     H52372  10.272   9.363   1.384 -1.2978  0.0507  1.7007
  397MOL0     H52373  10.286   9.514   1.291 -0.8937 -0.7277 -0.3877
  397MOL0     H52374  10.270   9.653   1.505  0.3387  0.3553 -1.0627
  397MOL0     H52375  10.223   9.486   1.572  0.0796 -0.5742 -0.9640
  397MOL0     H52376  10.081   9.606   1.340  2.7930  0.5770 -0.6874
  397MOL0     H52377  10.056   9.460   1.424  1.6596 -0.9308  0.8151
  397MOL0     H52378  10.008   9.724   1.540  1.8853 -0.6685 -1.1741
  397MOL0     H52379  10.024   9.597   1.651  0.6709  1.2335  0.0969
  397MOL0     H52380   9.844   9.473   1.538  2.3497  0.0289  0.7159
  397MOL0     H52381   9.832   9.593   1.402 -0.3668 -1.2919 -0.4944
  397MOL0     H52382   9.756   9.637   1.673  2.7244 -1.1517  0.1213
  397MOL0     H52383   9.760   9.766   1.530 -2.1197  1.1098  2.9293
  397MOL0     H52384   9.535   9.626   1.589  0.5222  0.5206  0.3367
  397MOL0     H52385   9.615   9.495   1.518  1.5873  0.5960 -0.5313
  397MOL0     H52386  10.651   9.166   1.239  0.7021  0.1294  1.0911
  397MOL0     H52387  10.915   9.142   1.222  3.2077  0.7624  0.8274
  397MOL0     H52388  11.331   9.227   1.402  1.6338 -2.6688 -0.6077
  397MOL0     H52389  11.561   9.166   1.363 -1.0270  0.6449  2.3431
  397MOL0     H52390  10.992   9.001   0.482  0.9497  0.8609 -1.5417
  397MOL0     H52391  10.725   8.945   0.485 -1.5670  1.8462  3.6114
  397MOL0     H52392  10.359   9.080   0.547  0.4875  0.9169 -0.7933
  397MOL0     H52393  10.141   9.020   0.606 -0.2782 -1.9852  0.5726
  397MOL0     H52394   9.906   9.023   0.574  0.6774 -0.5909  3.2176
  397MOL0     H52395   9.947   8.875   0.669  0.8808 -0.4190 -0.1340
  397MOL0     H52396   9.692   8.929   0.515 -0.1441  1.1449  2.2369
  397MOL0     H52397   9.741   8.764   0.566 -2.4672 -0.4631  0.3702
  397MOL0     H52398   9.715   9.008   0.756 -3.0671  0.4458  1.5000
  397MOL0     H52399   9.756   8.851   0.807  0.1947  1.5012  0.0440
  397MOL0     H52400   9.515   8.919   0.820 -1.9103 -1.5635  0.4125
  397MOL0     H52401   9.495   8.918   0.647 -3.6381 -1.8056  3.2058
  397MOL0     H52402   9.506   8.507   0.720 -0.1744 -0.5823  0.4596
  397MOL0     H52403  10.091   8.781   0.255  1.0103 -2.5318  0.9221
  397MOL0     H52404  10.319   8.835   0.184  0.0186 -0.7990  1.0909
  398MOL0     O52405   7.211   5.387   5.280  0.1628 -0.0588  0.3869
  398MOL0     C52406   7.305   5.329   5.229 -1.2540 -0.4840  0.1625
  398MOL0     O52407   7.314   5.192   5.206 -0.1750 -0.0083  0.1912
  398MOL0     C52408   7.200   5.111   5.213 -0.3966  0.6926 -0.5467
  398MOL0     C52409   7.200   4.982   5.278 -0.9295 -0.4600 -0.2003
  398MOL0     C52410   7.081   4.919   5.309  0.1032  0.6633  0.7191
  398MOL0     C52411   6.962   4.976   5.265 -0.0787 -0.5443  0.4966
  398MOL0     O52412   6.838   4.929   5.283 -0.6196 -0.4507 -0.7822
  398MOL0     C52413   6.808   4.807   5.355 -0.6502 -0.6370  0.2806
  398MOL0     C52414   6.665   4.773   5.342  0.1684  1.0105  0.2205
  398MOL0     C52415   6.620   4.658   5.438 -0.2651  0.5534  0.1281
  398MOL0     C52416   6.490   4.594   5.377  0.3503 -0.2236  0.2892
  398MOL0     C52417   6.411   4.510   5.481  0.0975  0.6267  1.0791
  398MOL0     C52418   6.289   4.451   5.418  0.7290  0.4010 -0.1001
  398MOL0     C52419   6.201   4.375   5.528 -0.1470  0.0035 -0.7701
  398MOL0     C52420   6.075   4.305   5.487 -0.3608  0.6489  0.1024
  398MOL0     N52421   6.114   4.197   5.393 -0.5423 -0.2363  1.0293
  398MOL0     C52422   6.096   4.064   5.428 -0.1407  0.3244 -0.2774
  398MOL0     C52423   6.084   4.000   5.312  0.2962  0.2622 -0.5468
  398MOL0     C52424   6.059   3.850   5.304 -0.7087  0.3066 -0.5959
  398MOL0     C52425   5.916   3.805   5.268 -0.1581  0.8018 -0.5020
  398MOL0     C52426   5.815   3.831   5.377  0.6344  0.4930  0.2705
  398MOL0     C52427   5.678   3.790   5.321  0.1812 -0.8726 -0.2134
  398MOL0     O52428   5.591   3.844   5.421 -0.4893  1.1634  0.2721
  398MOL0     C52429   5.461   3.834   5.391  0.6689  1.1471  1.0906
  398MOL0     C52430   5.371   3.897   5.476 -0.7682  0.3068  0.1483
  398MOL0     C52431   5.242   3.900   5.453 -0.0161  0.6868 -0.1237
  398MOL0     C52432   5.185   3.844   5.341 -0.3780  0.5283  0.8106
  398MOL0     C52433   5.045   3.856   5.305 -0.0384 -0.2844  0.2096
  398MOL0     O52434   4.956   3.915   5.389  0.0608 -0.6791  0.1959
  398MOL0     C52435   4.830   3.931   5.352 -0.4120 -0.5213 -0.0925
  398MOL0     C52436   4.803   4.038   5.265 -0.0837  0.5632 -0.6666
  398MOL0     C52437   4.670   4.067   5.229  0.4146 -0.5602  0.1833
  398MOL0     C52438   4.569   3.982   5.277  0.0061 -0.2847  0.5146
  398MOL0     O52439   4.436   3.996   5.244 -0.1391 -0.0252 -0.0257
  398MOL0     C52440   4.381   4.114   5.180  0.2745  0.1538  0.2828
  398MOL0     C52441   4.353   4.246   5.256  1.1456 -0.7079 -0.3201
  398MOL0     C52442   4.260   4.213   5.377 -0.3642 -0.0396  0.5255
  398MOL0     C52443   4.252   4.321   5.488 -0.2322  0.0548 -0.7653
  398MOL0     C52444   4.210   4.264   5.624 -0.8269 -1.0620 -0.0706
  398MOL0     C52445   4.069   4.198   5.640  0.3630 -0.2485  0.0809
  398MOL0     C52446   4.043   4.143   5.789 -1.0296 -0.7766  0.3530
  398MOL0     C52447   3.902   4.084   5.795  0.6671  0.5276  0.3439
  398MOL0    Cl52448   3.792   4.220   5.786  0.3510 -0.2777  0.3802
  398MOL0     C52449   4.599   3.869   5.355  0.4346  0.0368  0.2472
  398MOL0     C52450   4.727   3.855   5.401  0.1086 -0.5351 -0.3999
  398MOL0     O52451   5.019   3.830   5.188  0.2012 -0.3083 -0.7278
  398MOL0     C52452   5.270   3.760   5.269 -0.2717 -0.1466 -0.2835
  398MOL0     C52453   5.407   3.750   5.298  0.1763 -0.4288  0.1218
  398MOL0     N52454   6.103   4.084   5.205  0.1311  0.4682  0.0844
  398MOL0     N52455   6.117   4.204   5.258 -0.7564  0.3592  0.2931
  398MOL0     C52456   6.964   5.092   5.193  0.0629 -0.4556 -0.2067
  398MOL0     C52457   7.077   5.160   5.165 -0.7960  0.7676 -0.1169
  398MOL0     C52458   7.425   5.420   5.205  0.0679  1.1049 -0.3251
  398MOL0     C52459   7.424   5.555   5.215  0.5543 -0.4313 -0.4743
  398MOL0     C52460   7.531   5.632   5.178  0.2309  0.1263 -0.2371
  398MOL0     C52461   7.639   5.572   5.105 -0.7127 -0.5202  0.3097
  398MOL0     O52462   7.739   5.639   5.051 -1.2701 -0.1967 -0.8832
  398MOL0     C52463   7.716   5.746   4.962  0.2359 -0.3391  0.5067
  398MOL0     C52464   7.614   5.712   4.850  0.1496  0.1450  0.4914
  398MOL0     C52465   7.581   5.833   4.757  0.8782  0.3011  0.0202
  398MOL0     C52466   7.495   5.795   4.640 -0.0531  0.4345  0.7208
  398MOL0     C52467   7.449   5.912   4.564 -0.5701 -0.0941 -0.4638
  398MOL0     C52468   7.401   6.018   4.531  0.1487  0.8193  0.0764
  398MOL0     C52469   7.645   5.434   5.106 -0.4212 -0.7887  0.5219
  398MOL0     C52470   7.542   5.356   5.153  0.3444 -0.3096 -0.5078
  398MOL0     H52471   7.293   4.946   5.318 -0.6334  1.4314  0.9422
  398MOL0     H52472   7.064   4.839   5.381 -0.0889  0.4383  0.4276
  398MOL0     H52473   6.842   4.802   5.459 -2.4462  1.7462  1.0708
  398MOL0     H52474   6.860   4.726   5.303 -1.0956 -0.3929 -0.5690
  398MOL0     H52475   6.661   4.739   5.238  1.4861 -4.3061  1.6165
  398MOL0     H52476   6.601   4.861   5.358  1.9472  3.0250 -2.7819
  398MOL0     H52477   6.609   4.691   5.542 -1.3507 -0.1087  0.2354
  398MOL0     H52478   6.705   4.589   5.442  0.0762  0.8858 -0.9629
  398MOL0     H52479   6.424   4.673   5.339 -0.6037 -0.1326  2.0431
  398MOL0     H52480   6.510   4.529   5.291  0.5698 -1.5138  1.2969
  398MOL0     H52481   6.375   4.567   5.567 -0.4728  3.1443 -0.7001
  398MOL0     H52482   6.482   4.435   5.517  0.5282  0.3032 -0.3745
  398MOL0     H52483   6.318   4.388   5.333 -0.4989 -2.3612  1.3726
  398MOL0     H52484   6.226   4.525   5.370  0.9862  1.4711  1.1495
  398MOL0     H52485   6.258   4.291   5.567 -1.7494 -0.6136  0.3107
  398MOL0     H52486   6.175   4.442   5.610 -1.2827 -0.6446 -0.5827
  398MOL0     H52487   6.009   4.373   5.432 -0.0206 -0.1290 -1.3114
  398MOL0     H52488   6.022   4.259   5.571  2.7579  1.3615  2.6418
  398MOL0     H52489   6.077   4.029   5.529  2.3789  0.6288  0.3636
  398MOL0     H52490   6.090   3.810   5.401 -0.4767  0.7252 -0.4932
  398MOL0     H52491   6.124   3.796   5.236  1.6479  0.5939  1.2774
  398MOL0     H52492   5.925   3.696   5.262  0.6653  0.9464 -3.0739
  398MOL0     H52493   5.880   3.862   5.182 -3.0871  2.6155  1.7414
  398MOL0     H52494   5.833   3.785   5.475 -2.0456  0.3225  0.7712
  398MOL0     H52495   5.819   3.935   5.411 -0.2769  0.0285  1.9235
  398MOL0     H52496   5.675   3.681   5.318 -2.2578 -0.8769  0.7034
  398MOL0     H52497   5.658   3.834   5.223  2.7093  2.9211  0.7445
  398MOL0     H52498   5.412   3.942   5.565 -0.9798  0.6133  0.0939
  398MOL0     H52499   5.181   3.968   5.513  0.2737  2.9504 -2.2091
  398MOL0     H52500   4.888   4.093   5.228  1.3033  1.0122  2.7814
  398MOL0     H52501   4.644   4.158   5.177  0.9574  1.1258  2.6547
  398MOL0     H52502   4.284   4.082   5.142  1.2470 -2.5838 -0.1109
  398MOL0     H52503   4.438   4.147   5.093  2.3721 -0.3945  1.3840
  398MOL0     H52504   4.303   4.323   5.197  0.1817 -1.6733 -0.8155
  398MOL0     H52505   4.449   4.284   5.293  0.2312  2.0585 -0.5830
  398MOL0     H52506   4.307   4.125   5.422 -3.0460 -1.1404  1.3386
  398MOL0     H52507   4.161   4.186   5.338 -0.1809  2.1454 -1.7862
  398MOL0     H52508   4.350   4.369   5.499  0.2436 -1.0709  0.0123
  398MOL0     H52509   4.183   4.397   5.451  1.3631  1.1102 -1.6903
  398MOL0     H52510   4.218   4.338   5.705 -1.1700 -3.0509  1.8621
  398MOL0     H52511   4.291   4.200   5.657 -0.6065  0.4702  2.6665
  398MOL0     H52512   4.057   4.105   5.584  1.7903 -2.0822  2.6064
  398MOL0     H52513   3.990   4.272   5.620 -0.0798 -1.0438 -1.2013
  398MOL0     H52514   4.119   4.070   5.817  1.3755  1.2052 -0.6331
  398MOL0     H52515   4.057   4.221   5.863  0.9594 -0.1599 -0.6036
  398MOL0     H52516   3.875   4.032   5.887 -2.0328  0.0197 -0.6454
  398MOL0     H52517   3.881   4.019   5.709  1.8338  2.0144 -1.1381
  398MOL0     H52518   4.517   3.804   5.386 -1.1350  0.9823 -1.7121
  398MOL0     H52519   4.747   3.782   5.479  1.3253 -0.3043 -0.4798
  398MOL0     H52520   5.229   3.703   5.186 -0.5661 -0.8837  0.3541
  398MOL0     H52521   5.464   3.676   5.243 -1.8755 -3.3082  1.5552
  398MOL0     H52522   6.877   5.141   5.150  1.3703  3.8370  1.5163
  398MOL0     H52523   7.072   5.257   5.116  1.0548  3.0409  3.7029
  398MOL0     H52524   7.328   5.603   5.233 -0.4934 -1.2584 -3.2949
  398MOL0     H52525   7.542   5.740   5.187 -0.2520  0.0079  2.8906
  398MOL0     H52526   7.814   5.768   4.918  1.5033 -0.9668  2.8495
  398MOL0     H52527   7.694   5.838   5.016  0.8354 -0.7219  1.4374
  398MOL0     H52528   7.654   5.632   4.787 -0.7215 -0.7220  1.0040
  398MOL0     H52529   7.516   5.693   4.895  0.2572 -2.5158 -0.2389
  398MOL0     H52530   7.662   5.892   4.713 -0.4040 -0.9133 -4.5649
  398MOL0     H52531   7.515   5.896   4.817  1.1797 -0.8061  1.5679
  398MOL0     H52532   7.560   5.743   4.569 -3.9591 -1.0976 -2.1656
  398MOL0     H52533   7.408   5.732   4.661 -0.2029 -0.0619 -1.1540
  398MOL0     H52534   7.363   6.114   4.505 -2.5066  1.1410  4.2007
  398MOL0     H52535   7.723   5.389   5.045 -0.9216  0.7464 -1.3916
  398MOL0     H52536   7.540   5.248   5.143 -2.0753 -0.2955 -0.8848
  399MOL0     O52537   0.550   2.929   7.591  0.8112 -0.1059 -0.2132
  399MOL0     C52538   0.487   2.853   7.521 -0.5576 -0.1429  0.0039
  399MOL0     O52539   0.360   2.880   7.475 -0.5633 -0.2483 -0.1393
  399MOL0     C52540   0.300   2.986   7.524 -0.5758  0.5922  0.7102
  399MOL0     C52541   0.276   3.003   7.658  0.1372 -0.0083  0.1183
  399MOL0     C52542   0.215   3.119   7.707 -0.2741 -0.0490 -0.1817
  399MOL0     C52543   0.179   3.223   7.630 -0.0464 -0.2728 -0.0484
  399MOL0     O52544   0.129   3.329   7.691 -0.3101  1.0751  0.4110
  399MOL0     C52545   0.056   3.427   7.615 -0.1167  0.2596 -0.7949
  399MOL0     C52546  -0.098   3.393   7.591 -0.7416 -0.1664 -0.6586
  399MOL0     C52547  -0.173   3.521   7.543  0.1425  0.1361 -0.9459
  399MOL0     C52548  -0.326   3.519   7.574  0.0315 -0.8823  0.4414
  399MOL0     C52549  -0.407   3.621   7.480  0.3587  0.2696 -0.5452
  399MOL0     C52550  -0.543   3.653   7.538 -1.0419 -0.6049 -1.4946
  399MOL0     C52551  -0.622   3.726   7.430 -0.7366 -0.9106  0.2543
  399MOL0     C52552  -0.745   3.793   7.495 -0.1022  0.3778 -0.0851
  399MOL0     N52553  -0.852   3.835   7.401  0.2800  0.8175  0.6299
  399MOL0     C52554  -0.971   3.770   7.367  0.1956 -0.4789  0.2200
  399MOL0     C52555  -1.036   3.855   7.285 -0.3813 -0.0861 -0.0287
  399MOL0     C52556  -1.177   3.850   7.224  0.9463  0.1477  0.2571
  399MOL0     C52557  -1.275   3.820   7.336 -0.2042  0.4004 -0.7130
  399MOL0     C52558  -1.412   3.835   7.284  0.4991 -0.4028 -1.0201
  399MOL0     C52559  -1.503   3.887   7.405  0.1647 -0.5797  0.4601
  399MOL0     O52560  -1.472   4.019   7.462  0.3494  0.1018  0.2720
  399MOL0     C52561  -1.530   4.130   7.397  1.1098 -0.3136  0.0453
  399MOL0     C52562  -1.642   4.130   7.309 -0.5644  0.4404 -0.1611
  399MOL0     C52563  -1.700   4.253   7.268 -0.1184  0.7252  0.9169
  399MOL0     C52564  -1.657   4.374   7.307 -0.0350  0.5304 -0.5331
  399MOL0     C52565  -1.717   4.501   7.260 -0.6378 -0.1207 -0.2498
  399MOL0     O52566  -1.793   4.488   7.147 -0.1440 -0.0847  0.0559
  399MOL0     C52567  -1.845   4.601   7.094 -0.4953  1.0560 -0.1335
  399MOL0     C52568  -1.772   4.723   7.070 -0.8580  0.1896  0.8456
  399MOL0     C52569  -1.834   4.827   6.991  0.3732 -0.0674  1.5536
  399MOL0     C52570  -1.972   4.813   6.940  0.1379 -1.0813 -0.4294
  399MOL0     O52571  -2.025   4.921   6.867  0.6421  0.3881  0.0938
  399MOL0     C52572  -2.158   4.955   6.885  0.3558 -0.1680  0.0624
  399MOL0     C52573  -2.213   5.046   6.768  0.7620  0.2504  0.3645
  399MOL0     C52574  -2.351   5.082   6.793 -0.2689  0.5475  0.3703
  399MOL0     C52575  -2.409   5.184   6.695 -0.1037  0.4686 -0.4940
  399MOL0     C52576  -2.535   5.135   6.633 -0.5579 -0.3790 -0.0861
  399MOL0     C52577  -2.594   5.233   6.541 -0.0005 -0.0964  0.5313
  399MOL0     C52578  -2.714   5.164   6.473 -0.3346 -0.7653 -0.6745
  399MOL0     C52579  -2.769   5.227   6.343 -0.9308  0.2965 -0.4386
  399MOL0    Cl52580  -2.644   5.218   6.207  0.0238 -0.3611 -0.1027
  399MOL0     C52581  -2.035   4.691   6.969  0.4127 -0.3762  0.1521
  399MOL0     C52582  -1.974   4.595   7.046  0.4370  0.2251  0.1870
  399MOL0     O52583  -1.693   4.600   7.319 -0.7397  0.2385 -0.7619
  399MOL0     C52584  -1.549   4.377   7.397  0.0057  1.2371  0.0758
  399MOL0     C52585  -1.481   4.253   7.437 -0.2158 -0.0331  0.2418
  399MOL0     N52586  -0.945   3.959   7.255 -0.8317  0.1565 -0.4682
  399MOL0     N52587  -0.843   3.950   7.334  0.5191  0.1675  0.4196
  399MOL0     C52588   0.206   3.215   7.491 -0.5466 -1.1171  0.3348
  399MOL0     C52589   0.266   3.094   7.440 -0.1581 -0.8857 -0.8539
  399MOL0     C52590   0.561   2.729   7.472  0.9566  0.3303 -0.8804
  399MOL0     C52591   0.683   2.695   7.519  0.6661  0.1199 -0.5802
  399MOL0     C52592   0.752   2.583   7.477  0.5890 -0.4167 -0.2285
  399MOL0     C52593   0.696   2.508   7.371 -0.4725  0.0058 -0.2565
  399MOL0     O52594   0.770   2.401   7.317  0.1658  0.3696  0.0492
  399MOL0     C52595   0.737   2.352   7.187 -0.1300  0.1553  0.2602
  399MOL0     C52596   0.839   2.250   7.123  0.0237 -0.4040 -0.5858
  399MOL0     C52597   0.822   2.102   7.160  0.3175  0.9698 -0.3100
  399MOL0     C52598   0.777   2.078   7.295 -0.2700 -1.2116  0.4884
  399MOL0     C52599   0.782   1.945   7.359  0.0442 -0.5342  0.3726
  399MOL0     C52600   0.766   1.830   7.396  0.4962  0.4844  0.8484
  399MOL0     C52601   0.569   2.543   7.322 -0.3342  0.4135 -0.0263
  399MOL0     C52602   0.509   2.656   7.368  0.0325  1.0788  0.0645
  399MOL0     H52603   0.306   2.921   7.723  2.5795  1.6912  1.3067
  399MOL0     H52604   0.206   3.136   7.814 -1.7730  2.3810 -0.6049
  399MOL0     H52605   0.097   3.462   7.520  0.5667 -0.9891 -0.9868
  399MOL0     H52606   0.046   3.519   7.673  0.1670  0.5134 -1.1405
  399MOL0     H52607  -0.139   3.351   7.683  1.5194 -0.1545  0.4219
  399MOL0     H52608  -0.101   3.327   7.505  1.3884  0.2312 -1.1100
  399MOL0     H52609  -0.145   3.531   7.437 -0.6867 -0.0261 -1.1860
  399MOL0     H52610  -0.118   3.608   7.582 -0.8707  1.0966 -1.5996
  399MOL0     H52611  -0.361   3.416   7.556  0.3344 -0.8298 -0.4950
  399MOL0     H52612  -0.354   3.558   7.672  1.5011 -1.3042  1.0535
  399MOL0     H52613  -0.414   3.581   7.379 -1.1930  0.9602 -0.7407
  399MOL0     H52614  -0.353   3.717   7.478  0.8367  0.1132  1.5917
  399MOL0     H52615  -0.529   3.708   7.632  1.3960 -4.5542  0.7428
  399MOL0     H52616  -0.568   3.549   7.563  0.4004 -0.3350  1.5349
  399MOL0     H52617  -0.562   3.808   7.390 -1.6211 -0.0493  0.6480
  399MOL0     H52618  -0.646   3.659   7.347 -2.1390 -0.1770  0.0367
  399MOL0     H52619  -0.695   3.880   7.539  2.3106 -0.2668 -1.3964
  399MOL0     H52620  -0.795   3.739   7.575  0.5403  0.7458  0.5701
  399MOL0     H52621  -1.004   3.676   7.412  0.8165 -0.5684  0.5019
  399MOL0     H52622  -1.191   3.770   7.150  1.5188 -1.0716  1.4140
  399MOL0     H52623  -1.209   3.948   7.188 -2.2573 -0.3891  1.2652
  399MOL0     H52624  -1.246   3.889   7.416 -1.9244  0.8334 -0.4253
  399MOL0     H52625  -1.261   3.722   7.382 -0.8771  0.2771 -0.7677
  399MOL0     H52626  -1.420   3.903   7.198  0.4098 -0.5783 -1.1538
  399MOL0     H52627  -1.463   3.742   7.257 -0.0188 -0.1909 -0.7971
  399MOL0     H52628  -1.490   3.814   7.486  0.6256 -1.3049 -0.2569
  399MOL0     H52629  -1.610   3.877   7.385 -0.2595  2.6594  0.7185
  399MOL0     H52630  -1.680   4.036   7.269 -2.0431  0.8684  0.1867
  399MOL0     H52631  -1.777   4.242   7.192  1.4334  1.1358 -0.7884
  399MOL0     H52632  -1.670   4.734   7.106 -0.3009 -1.2401 -0.2291
  399MOL0     H52633  -1.778   4.919   6.977  1.3245 -0.7248  0.8649
  399MOL0     H52634  -2.171   5.008   6.980  0.2118  2.9951 -1.5916
  399MOL0     H52635  -2.208   4.857   6.884 -0.0521  0.0158  0.9709
  399MOL0     H52636  -2.204   4.979   6.682 -0.4934 -1.7675  1.7098
  399MOL0     H52637  -2.160   5.141   6.762 -1.4930  1.4742 -3.1717
  399MOL0     H52638  -2.369   5.121   6.894 -3.3680 -0.9757  0.5572
  399MOL0     H52639  -2.423   4.999   6.795 -1.1039  1.2597  0.1707
  399MOL0     H52640  -2.427   5.278   6.747 -2.5489 -0.5393  0.6339
  399MOL0     H52641  -2.343   5.209   6.611 -1.7348  1.3956 -1.5637
  399MOL0     H52642  -2.603   5.108   6.715 -0.1989  0.6501  0.5626
  399MOL0     H52643  -2.510   5.044   6.578 -3.0832 -1.1664 -0.0500
  399MOL0     H52644  -2.523   5.259   6.462  0.8473 -3.7322 -0.1220
  399MOL0     H52645  -2.630   5.323   6.592  3.2243  1.4182  0.3668
  399MOL0     H52646  -2.701   5.056   6.461 -0.8024 -1.1004  1.4429
  399MOL0     H52647  -2.798   5.177   6.542 -0.3224  0.0494 -0.8007
  399MOL0     H52648  -2.795   5.331   6.366  1.7328  0.6366  1.5384
  399MOL0     H52649  -2.859   5.176   6.308 -0.8670  0.3534 -0.6848
  399MOL0     H52650  -2.139   4.680   6.943 -0.5384 -0.4540  3.4598
  399MOL0     H52651  -2.035   4.508   7.068  0.5861 -0.6078 -2.3460
  399MOL0     H52652  -1.507   4.465   7.444  3.1429 -0.8984  1.6855
  399MOL0     H52653  -1.393   4.263   7.499 -0.9151  1.1161  1.0895
  399MOL0     H52654   0.185   3.304   7.433  1.5277 -0.6515  0.2277
  399MOL0     H52655   0.284   3.089   7.333 -0.1610  1.1836 -0.9926
  399MOL0     H52656   0.726   2.757   7.597  0.6953  1.6051 -1.7152
  399MOL0     H52657   0.845   2.538   7.513  0.0758 -0.5336  1.0023
  399MOL0     H52658   0.735   2.438   7.120 -1.3471 -1.3990 -1.7968
  399MOL0     H52659   0.632   2.321   7.187  0.0882 -0.6309  0.7838
  399MOL0     H52660   0.804   2.243   7.020 -2.8931  0.0117  0.2930
  399MOL0     H52661   0.940   2.286   7.148 -0.2446 -1.2401  2.0033
  399MOL0     H52662   0.910   2.040   7.139  0.5064  1.3010 -0.5067
  399MOL0     H52663   0.730   2.074   7.108  0.3813  0.6427 -0.2478
  399MOL0     H52664   0.822   2.152   7.363 -0.2979  0.0532 -0.8195
  399MOL0     H52665   0.670   2.100   7.293 -0.1978 -0.8655  0.3389
  399MOL0     H52666   0.753   1.730   7.431  1.4073 -0.0027 -0.1673
  399MOL0     H52667   0.499   2.493   7.256 -1.6532  0.3639  1.3457
  399MOL0     H52668   0.408   2.664   7.328  0.4902 -2.0621 -2.0532
  400MOL0     O52669   5.350   7.654   4.059  0.3571  0.3506  0.4755
  400MOL0     C52670   5.342   7.746   4.143 -0.6149 -0.1718  0.0110
  400MOL0     O52671   5.229   7.784   4.214 -0.3637 -0.6841  0.1723
  400MOL0     C52672   5.112   7.702   4.194  0.1792  0.6027  0.7095
  400MOL0     C52673   5.093   7.575   4.250 -0.5747  0.0430  0.8104
  400MOL0     C52674   4.990   7.498   4.217  0.8311 -0.0662  1.1573
  400MOL0     C52675   4.890   7.539   4.125 -0.7793 -0.4347  0.2445
  400MOL0     O52676   4.786   7.459   4.095 -0.0981  0.5204 -0.0404
  400MOL0     C52677   4.677   7.445   4.182  0.5575  0.6294  0.3788
  400MOL0     C52678   4.623   7.297   4.188 -0.5147  0.5678  1.1777
  400MOL0     C52679   4.484   7.273   4.253  1.3575 -0.1302  0.5877
  400MOL0     C52680   4.439   7.134   4.225  0.4453  0.1523 -0.1932
  400MOL0     C52681   4.310   7.091   4.309 -0.1349  0.0745  0.7582
  400MOL0     C52682   4.185   7.174   4.247  0.0922  0.5828 -0.0914
  400MOL0     C52683   4.078   7.172   4.349 -0.3070 -0.2876  0.2403
  400MOL0     C52684   4.102   7.261   4.473  0.0627  0.6921  0.3050
  400MOL0     N52685   4.122   7.394   4.429 -0.1908  0.7199 -0.5541
  400MOL0     C52686   4.037   7.493   4.372  0.9415 -0.1535 -0.9333
  400MOL0     C52687   4.118   7.599   4.349  0.7755  0.7993  0.7426
  400MOL0     C52688   4.070   7.726   4.299 -0.0316 -0.5510 -0.1446
  400MOL0     C52689   3.942   7.730   4.209 -0.1874 -0.0397  0.1662
  400MOL0     C52690   3.935   7.852   4.115 -0.7379 -0.6771  0.0829
  400MOL0     C52691   3.816   7.854   4.031  0.9296 -0.5027  0.7032
  400MOL0     O52692   3.709   7.895   4.126  0.2405  0.2276 -0.0685
  400MOL0     C52693   3.573   7.872   4.093  0.7754 -0.3946 -1.1574
  400MOL0     C52694   3.530   7.808   3.980 -1.0307  0.4525 -0.1206
  400MOL0     C52695   3.394   7.773   3.975 -0.4750 -0.2817  0.0484
  400MOL0     C52696   3.291   7.817   4.063  0.4102 -0.6170 -0.2564
  400MOL0     C52697   3.146   7.790   4.046  0.7377  0.3647  0.9962
  400MOL0     O52698   3.079   7.784   4.163  0.1651 -0.4801 -0.8239
  400MOL0     C52699   2.943   7.752   4.173  0.2099  0.6069 -0.3422
  400MOL0     C52700   2.845   7.796   4.076  0.2272  0.3469 -1.1239
  400MOL0     C52701   2.712   7.754   4.096  1.5568  0.0089  0.0570
  400MOL0     C52702   2.674   7.663   4.193 -0.7990  0.8362 -0.4842
  400MOL0     O52703   2.551   7.607   4.219 -0.7057 -1.2548 -0.1257
  400MOL0     C52704   2.434   7.668   4.183  0.8137 -0.0658 -0.0297
  400MOL0     C52705   2.305   7.579   4.175  0.0960 -0.8192  0.1703
  400MOL0     C52706   2.172   7.661   4.154  0.2222  0.2123 -0.8891
  400MOL0     C52707   2.058   7.602   4.222  0.1842 -0.3888  1.1993
  400MOL0     C52708   1.936   7.686   4.189 -0.3864 -0.2078 -0.1119
  400MOL0     C52709   1.823   7.610   4.237 -0.1924  0.7349 -0.5091
  400MOL0     C52710   1.691   7.668   4.191  0.3085 -0.6490  0.4120
  400MOL0     C52711   1.572   7.584   4.219 -0.5553 -0.2149  1.2124
  400MOL0    Cl52712   1.599   7.420   4.133 -0.3543  0.1969 -0.3754
  400MOL0     C52713   2.774   7.625   4.286  0.1060  0.3343  0.8268
  400MOL0     C52714   2.903   7.672   4.277  0.7673 -0.3711 -0.8309
  400MOL0     O52715   3.100   7.779   3.934  0.0349  0.3573  0.6225
  400MOL0     C52716   3.346   7.888   4.171  0.5982 -0.7654 -0.7185
  400MOL0     C52717   3.479   7.926   4.186 -0.7511  0.2585 -0.8316
  400MOL0     N52718   4.245   7.567   4.382  0.0085  1.0227  0.2963
  400MOL0     N52719   4.253   7.442   4.423  0.3102  0.3513 -0.2538
  400MOL0     C52720   4.906   7.663   4.063 -0.3052  0.3176  0.4110
  400MOL0     C52721   5.008   7.751   4.105 -0.2534 -0.3540  0.3712
  400MOL0     C52722   5.463   7.832   4.173 -0.0346 -0.3312 -0.0103
  400MOL0     C52723   5.469   7.907   4.295  0.5745 -0.2601 -0.2694
  400MOL0     C52724   5.589   7.980   4.322  0.1484 -0.7061 -0.0346
  400MOL0     C52725   5.687   7.981   4.221 -0.0195 -0.3112  0.0813
  400MOL0     O52726   5.803   8.047   4.259  0.9725 -0.2174 -0.2376
  400MOL0     C52727   5.913   8.047   4.175  0.0200  0.4215 -0.4889
  400MOL0     C52728   6.021   8.132   4.248 -0.0577  0.3578  0.6040
  400MOL0     C52729   6.150   8.145   4.158  0.1617  0.8532 -0.1770
  400MOL0     C52730   6.232   8.016   4.162 -0.3591 -0.0178  0.0796
  400MOL0     C52731   6.358   8.051   4.090  0.9209 -1.0521  0.1757
  400MOL0     C52732   6.465   8.085   4.038 -0.4013  0.4714 -0.0924
  400MOL0     C52733   5.677   7.903   4.113  0.3531 -0.3239 -0.2497
  400MOL0     C52734   5.566   7.823   4.089 -0.2427  0.2989  0.9105
  400MOL0     H52735   5.163   7.531   4.320  0.7023  0.7891  0.0547
  400MOL0     H52736   4.972   7.414   4.284 -0.4507  0.8041  1.9440
  400MOL0     H52737   4.596   7.512   4.151  0.7709 -0.2149 -2.2365
  400MOL0     H52738   4.718   7.472   4.280 -0.2336  0.9561  0.6328
  400MOL0     H52739   4.702   7.247   4.245  0.6890  0.0488 -0.8270
  400MOL0     H52740   4.626   7.275   4.081  0.0601  1.5511  0.9798
  400MOL0     H52741   4.421   7.349   4.207 -2.1967 -1.5218  2.7991
  400MOL0     H52742   4.490   7.305   4.357  0.2626 -0.3814  0.7339
  400MOL0     H52743   4.424   7.128   4.116  3.7770  2.3582 -0.9200
  400MOL0     H52744   4.520   7.064   4.248 -0.6179  0.3357  5.2191
  400MOL0     H52745   4.319   7.123   4.413 -3.1007  3.0648  0.2834
  400MOL0     H52746   4.288   6.984   4.299 -0.2378  0.2455 -1.0980
  400MOL0     H52747   4.141   7.126   4.159  1.1831 -0.0914 -0.2900
  400MOL0     H52748   4.222   7.270   4.211 -0.3332  0.9272  0.3859
  400MOL0     H52749   3.984   7.208   4.306 -2.2068 -1.3348  3.1680
  400MOL0     H52750   4.054   7.073   4.388 -0.8441  0.4365  1.8346
  400MOL0     H52751   4.185   7.222   4.533  1.3084  0.0552 -1.7380
  400MOL0     H52752   4.016   7.265   4.541  0.1094  0.7876  0.3588
  400MOL0     H52753   3.929   7.496   4.361  1.0351  0.5679 -1.8037
  400MOL0     H52754   4.156   7.780   4.258  0.0786 -0.0083  0.7557
  400MOL0     H52755   4.043   7.791   4.383  1.3553  1.0420 -0.8504
  400MOL0     H52756   3.856   7.713   4.275 -0.8226  0.1073 -0.6035
  400MOL0     H52757   3.948   7.648   4.137 -0.2971  1.7261 -1.9797
  400MOL0     H52758   3.926   7.947   4.169  0.1361 -1.9188  2.5991
  400MOL0     H52759   4.025   7.855   4.053 -1.2196 -0.0960 -0.6065
  400MOL0     H52760   3.807   7.753   3.991  1.0591  0.3995 -1.8255
  400MOL0     H52761   3.818   7.922   3.945  0.7144 -0.7166  0.5291
  400MOL0     H52762   3.606   7.790   3.905 -0.3216 -2.3723  1.1513
  400MOL0     H52763   3.362   7.722   3.884  0.1756 -2.7561  1.1167
  400MOL0     H52764   2.875   7.858   3.993  1.2578  1.7260  0.2241
  400MOL0     H52765   2.635   7.764   4.020  3.2279 -4.4451 -2.6522
  400MOL0     H52766   2.457   7.714   4.087  1.3680 -1.6580 -0.6881
  400MOL0     H52767   2.415   7.754   4.248  0.1103 -0.2444  0.0097
  400MOL0     H52768   2.304   7.533   4.274 -0.1141 -0.7546  0.1971
  400MOL0     H52769   2.316   7.504   4.096  2.8108  0.0727 -0.4286
  400MOL0     H52770   2.154   7.663   4.046  0.8298 -0.4530 -1.0130
  400MOL0     H52771   2.178   7.763   4.193  1.1756 -0.5869  1.1754
  400MOL0     H52772   2.049   7.496   4.194  2.4500 -0.3863  0.2490
  400MOL0     H52773   2.071   7.589   4.330 -0.3656  2.9120  1.7549
  400MOL0     H52774   1.917   7.698   4.082 -0.2118 -2.2744 -0.4172
  400MOL0     H52775   1.944   7.782   4.241  1.0260 -0.1775 -0.3530
  400MOL0     H52776   1.815   7.594   4.345 -4.7929  0.1868 -0.7251
  400MOL0     H52777   1.820   7.508   4.197 -0.4671  1.4245 -2.3443
  400MOL0     H52778   1.662   7.760   4.243 -3.2809 -1.5575  0.2641
  400MOL0     H52779   1.700   7.691   4.084  0.1911 -2.9511 -0.1516
  400MOL0     H52780   1.479   7.631   4.187  0.8011  0.6319 -1.9008
  400MOL0     H52781   1.554   7.567   4.326 -1.0375 -0.8478  1.0357
  400MOL0     H52782   2.742   7.564   4.369 -1.3576  1.5487  1.1895
  400MOL0     H52783   2.979   7.649   4.352 -1.1919 -2.1075  0.7471
  400MOL0     H52784   3.282   7.921   4.253  0.1564  2.9706 -2.3725
  400MOL0     H52785   3.522   7.976   4.272  1.1686 -1.5912 -0.6151
  400MOL0     H52786   4.836   7.692   3.985  1.5305  0.4645 -1.2796
  400MOL0     H52787   5.009   7.854   4.072 -1.2382 -0.5512 -0.3234
  400MOL0     H52788   5.388   7.899   4.367  0.8212 -2.1185 -0.1555
  400MOL0     H52789   5.615   8.035   4.412  1.0913  0.3887 -0.9578
  400MOL0     H52790   5.903   8.092   4.076  1.4580 -0.3561 -1.0299
  400MOL0     H52791   5.946   7.942   4.173 -1.3330 -0.0124 -0.9277
  400MOL0     H52792   5.981   8.233   4.260 -0.3284  0.4803 -1.1281
  400MOL0     H52793   6.039   8.086   4.346  0.9611  0.5442  0.5135
  400MOL0     H52794   6.208   8.232   4.190 -0.3798 -0.0688  3.7507
  400MOL0     H52795   6.118   8.173   4.057 -0.2661  2.3473  0.3496
  400MOL0     H52796   6.255   7.985   4.264  1.5393 -3.6554 -1.2655
  400MOL0     H52797   6.180   7.931   4.117  0.5665 -1.5974  1.8323
  400MOL0     H52798   6.560   8.113   3.998 -1.6100  0.5882 -3.0922
  400MOL0     H52799   5.755   7.901   4.038  0.4457 -0.4488 -0.1517
  400MOL0     H52800   5.575   7.768   3.995  3.6985 -1.3661  2.0842
  401MOL0     O52801   3.734   0.227   7.425  0.5872 -0.1048  0.4002
  401MOL0     C52802   3.691   0.251   7.312  0.2774  0.1114  0.1480
  401MOL0     O52803   3.755   0.315   7.208 -0.0247 -1.0982  0.3736
  401MOL0     C52804   3.877   0.382   7.216  0.4532  0.5056 -0.1145
  401MOL0     C52805   3.936   0.424   7.341  0.2715 -0.0261  0.2199
  401MOL0     C52806   4.051   0.504   7.334  0.3064 -0.5798 -0.3058
  401MOL0     C52807   4.113   0.540   7.210 -0.2976 -1.0838  0.1111
  401MOL0     O52808   4.232   0.612   7.210  0.2618  0.4142 -0.2476
  401MOL0     C52809   4.316   0.587   7.103 -0.1437 -0.6023 -0.1590
  401MOL0     C52810   4.450   0.662   7.145 -0.4798 -0.5538  0.3165
  401MOL0     C52811   4.523   0.598   7.266  1.1716 -0.5033 -0.2651
  401MOL0     C52812   4.656   0.669   7.291 -0.6254 -0.5799  0.2114
  401MOL0     C52813   4.775   0.620   7.211 -0.2264 -0.0091  0.0419
  401MOL0     C52814   4.887   0.728   7.217 -0.0047  0.7012  0.7457
  401MOL0     C52815   4.948   0.763   7.359  0.4080  0.2559  0.2118
  401MOL0     C52816   5.015   0.643   7.432  0.0206 -0.0913  0.5435
  401MOL0     N52817   5.022   0.659   7.571  0.1163  0.1373 -0.1123
  401MOL0     C52818   4.933   0.597   7.655  0.3590  0.0592  0.1223
  401MOL0     C52819   4.984   0.614   7.779  0.2535  0.1951  0.6972
  401MOL0     C52820   4.914   0.575   7.901 -0.6896  0.1918 -0.0488
  401MOL0     C52821   5.002   0.502   7.992  0.3658  0.1807 -0.3333
  401MOL0     C52822   5.028   0.359   7.953  0.1835 -0.2537 -0.2337
  401MOL0     C52823   4.913   0.267   7.998 -0.6348  0.8773  0.4872
  401MOL0     O52824   4.927   0.138   7.936 -0.0051  0.7558 -0.8261
  401MOL0     C52825   5.028   0.055   7.966  0.4216 -0.1823 -1.0033
  401MOL0     C52826   5.027  -0.063   7.905  0.1932  0.2024 -0.8109
  401MOL0     C52827   5.130  -0.156   7.909  0.2927 -0.0250 -0.1196
  401MOL0     C52828   5.241  -0.122   7.994 -0.1582  0.1439 -0.5550
  401MOL0     C52829   5.370  -0.201   7.985  0.1247  0.0423 -1.0517
  401MOL0     O52830   5.454  -0.193   8.102  0.9582  0.1640  0.4433
  401MOL0     C52831   5.581  -0.243   8.103  0.5104  0.0118  1.4893
  401MOL0     C52832   5.633  -0.286   8.226  0.2545  0.0893  0.4107
  401MOL0     C52833   5.763  -0.327   8.239 -0.6284 -0.4039  0.5789
  401MOL0     C52834   5.850  -0.336   8.119 -0.4436 -0.2606  0.3048
  401MOL0     O52835   5.980  -0.379   8.113  0.4530 -0.7564  0.7275
  401MOL0     C52836   6.064  -0.335   8.220  0.1222 -0.0913 -0.2815
  401MOL0     C52837   6.212  -0.357   8.199 -0.3225  0.9113  0.5930
  401MOL0     C52838   6.259  -0.270   8.074 -0.7152 -0.1345  0.4578
  401MOL0     C52839   6.407  -0.265   8.051 -0.3394  0.0933 -0.1249
  401MOL0     C52840   6.457  -0.387   7.974 -0.3497 -0.2560  0.7508
  401MOL0     C52841   6.606  -0.407   7.978 -0.7072  0.2776  0.0530
  401MOL0     C52842   6.657  -0.523   7.891 -0.0278 -0.0661  0.0192
  401MOL0     C52843   6.736  -0.633   7.953 -0.4211 -0.2995  0.1414
  401MOL0    Cl52844   6.798  -0.716   7.814  0.0019 -0.0921  0.2278
  401MOL0     C52845   5.792  -0.317   7.993  0.1030  0.4641  0.8454
  401MOL0     C52846   5.661  -0.265   7.990 -0.7227  0.0455 -0.0965
  401MOL0     O52847   5.390  -0.274   7.892  0.4232  0.9115  0.0260
  401MOL0     C52848   5.239  -0.000   8.063  1.1521  0.5202 -0.2133
  401MOL0     C52849   5.130   0.087   8.056  0.3352 -0.0980  0.6765
  401MOL0     N52850   5.098   0.689   7.773  0.2115 -0.1800  0.6737
  401MOL0     N52851   5.114   0.720   7.649  1.3068  0.4424 -0.3975
  401MOL0     C52852   4.047   0.498   7.092 -0.1746 -0.7588  0.0988
  401MOL0     C52853   3.935   0.416   7.093  0.0265 -0.4652  0.2443
  401MOL0     C52854   3.560   0.190   7.289  0.8885 -0.0141  0.7686
  401MOL0     C52855   3.530   0.130   7.165 -0.3623 -0.1195 -0.7424
  401MOL0     C52856   3.418   0.053   7.144 -0.7814  0.2098  0.7808
  401MOL0     C52857   3.321   0.043   7.244  0.1495 -0.2486  0.0816
  401MOL0     O52858   3.207  -0.023   7.219  0.5127  0.8478 -1.3705
  401MOL0     C52859   3.105   0.060   7.168  0.4059 -0.4176 -1.2969
  401MOL0     C52860   2.962   0.002   7.197 -0.1233  0.3073  1.1525
  401MOL0     C52861   2.960  -0.150   7.149  0.5034 -0.0525  0.2432
  401MOL0     C52862   2.816  -0.193   7.148  0.0464 -0.2357  0.2838
  401MOL0     C52863   2.793  -0.316   7.070 -0.7820 -0.0997 -0.6854
  401MOL0     C52864   2.787  -0.415   7.001  0.3510 -0.7217 -1.0351
  401MOL0     C52865   3.343   0.106   7.366 -0.3664 -0.5455  0.2899
  401MOL0     C52866   3.463   0.177   7.393 -1.6763  0.3884 -0.2626
  401MOL0     H52867   3.891   0.401   7.437  1.0285 -0.7537  0.4076
  401MOL0     H52868   4.094   0.555   7.420  0.4722  0.1638 -0.8203
  401MOL0     H52869   4.274   0.633   7.013  0.4773  1.3481  0.4996
  401MOL0     H52870   4.326   0.478   7.092  0.7703 -0.6774  1.1660
  401MOL0     H52871   4.425   0.764   7.174  2.5103 -0.2957  2.5164
  401MOL0     H52872   4.519   0.678   7.062 -1.1779  0.0607 -0.1495
  401MOL0     H52873   4.539   0.490   7.253 -0.7603 -0.9362  0.5718
  401MOL0     H52874   4.466   0.603   7.359  0.0339 -0.1380 -0.9698
  401MOL0     H52875   4.645   0.777   7.285  0.5966 -0.3946  1.0509
  401MOL0     H52876   4.674   0.647   7.396 -1.1182 -1.4112  0.1368
  401MOL0     H52877   4.755   0.625   7.103 -0.3900 -1.7368 -0.0419
  401MOL0     H52878   4.808   0.518   7.231  3.3538  1.1113  0.4446
  401MOL0     H52879   4.846   0.822   7.180  0.1546  0.6867  0.5320
  401MOL0     H52880   4.977   0.706   7.158  2.3649  0.3842  4.1531
  401MOL0     H52881   5.018   0.846   7.351  3.0253 -1.6904  1.2138
  401MOL0     H52882   4.865   0.797   7.421  0.7036 -0.2680  0.9127
  401MOL0     H52883   5.112   0.626   7.386 -1.4219 -0.0562 -2.7858
  401MOL0     H52884   4.958   0.552   7.408  1.2436 -1.0394  1.0911
  401MOL0     H52885   4.838   0.551   7.630 -0.4896  0.7859  1.8652
  401MOL0     H52886   4.822   0.524   7.872  0.4374 -2.8536  1.2863
  401MOL0     H52887   4.875   0.664   7.951 -1.6717  1.4148 -2.7704
  401MOL0     H52888   4.957   0.516   8.090  3.4955  1.7109  1.0187
  401MOL0     H52889   5.105   0.540   7.994  1.2214 -1.8716 -1.3748
  401MOL0     H52890   5.059   0.347   7.849  1.3891 -2.3662  0.3089
  401MOL0     H52891   5.123   0.326   7.996  0.6846 -0.4461 -1.4567
  401MOL0     H52892   4.818   0.314   7.972 -2.3145 -0.6195  3.4057
  401MOL0     H52893   4.901   0.254   8.106  1.3687 -1.2001  0.5306
  401MOL0     H52894   4.941  -0.081   7.841  1.9399  2.2396 -4.0203
  401MOL0     H52895   5.124  -0.246   7.848 -0.9494 -1.4248  1.9552
  401MOL0     H52896   5.570  -0.285   8.315 -0.1188  0.1397  0.1512
  401MOL0     H52897   5.807  -0.357   8.333 -0.4013  1.4987  1.1235
  401MOL0     H52898   6.027  -0.389   8.307 -0.5936 -2.6063 -2.0365
  401MOL0     H52899   6.056  -0.226   8.225  1.2774  0.1753 -2.5966
  401MOL0     H52900   6.233  -0.464   8.188 -1.5782  0.9516 -3.7449
  401MOL0     H52901   6.257  -0.318   8.291 -0.7559  0.3873  1.0388
  401MOL0     H52902   6.217  -0.169   8.086 -1.0947 -0.4738  2.3218
  401MOL0     H52903   6.216  -0.308   7.981  1.6115  0.4840 -0.9577
  401MOL0     H52904   6.436  -0.171   8.003 -0.9213  0.3948  0.1006
  401MOL0     H52905   6.454  -0.258   8.150 -0.0347  0.9433 -0.3210
  401MOL0     H52906   6.434  -0.384   7.868  0.0827 -0.4095  0.6509
  401MOL0     H52907   6.408  -0.475   8.016 -0.1661  0.2904  2.2093
  401MOL0     H52908   6.649  -0.433   8.076  2.5495 -3.1955 -1.9891
  401MOL0     H52909   6.656  -0.315   7.948 -1.8214  1.1920  0.9038
  401MOL0     H52910   6.562  -0.569   7.862 -1.0557  1.1636  1.2849
  401MOL0     H52911   6.724  -0.483   7.814  0.2702  1.0849  0.8366
  401MOL0     H52912   6.674  -0.702   8.011 -2.9035  2.0797  0.4773
  401MOL0     H52913   6.821  -0.594   8.009  0.9185 -2.4118 -0.2802
  401MOL0     H52914   5.849  -0.303   7.902 -1.5036  1.8051 -0.0080
  401MOL0     H52915   5.627  -0.224   7.896  3.9565  2.0337 -1.2024
  401MOL0     H52916   5.322   0.019   8.130 -0.4495 -0.9066  2.3329
  401MOL0     H52917   5.120   0.164   8.132 -2.7452 -0.2859  0.5636
  401MOL0     H52918   4.091   0.534   7.000 -0.1095 -4.3463 -1.4406
  401MOL0     H52919   3.898   0.388   6.995 -0.5807 -1.5221  0.7546
  401MOL0     H52920   3.603   0.148   7.087 -1.1856  2.4340 -1.0120
  401MOL0     H52921   3.405   0.016   7.043 -0.7687  2.8477 -0.2623
  401MOL0     H52922   3.139   0.082   7.067  2.5971 -0.7528 -0.6863
  401MOL0     H52923   3.116   0.149   7.230 -1.4193 -1.6113  0.8886
  401MOL0     H52924   2.938   0.005   7.303 -1.7943 -3.0250  1.0034
  401MOL0     H52925   2.881   0.051   7.142  1.4318 -0.2163 -1.8146
  401MOL0     H52926   3.008  -0.209   7.228  1.0454 -0.1705 -0.1699
  401MOL0     H52927   3.016  -0.162   7.056  2.7726  2.0149  1.2502
  401MOL0     H52928   2.779  -0.213   7.249 -1.6183  1.0670 -0.0160
  401MOL0     H52929   2.749  -0.114   7.111 -0.5694  0.2515  2.3022
  401MOL0     H52930   2.776  -0.506   6.945  0.6213 -1.7696  0.5407
  401MOL0     H52931   3.271   0.087   7.445 -1.0170 -0.3534 -0.2413
  401MOL0     H52932   3.466   0.225   7.491 -3.9283 -0.4713  0.2846
  402MOL0     O52933   1.924   9.273   4.435 -0.6238 -0.2832  0.8246
  402MOL0     C52934   1.949   9.185   4.352  0.0456 -0.1664  0.7766
  402MOL0     O52935   2.073   9.165   4.298  0.7682  0.4156 -0.2546
  402MOL0     C52936   2.189   9.222   4.345  0.3851  0.1203 -1.0403
  402MOL0     C52937   2.197   9.354   4.299 -0.8606 -0.4167 -0.8843
  402MOL0     C52938   2.312   9.418   4.339 -0.0358  0.0179 -1.2980
  402MOL0     C52939   2.429   9.354   4.389 -0.2532  0.9442  0.4083
  402MOL0     O52940   2.535   9.443   4.412 -0.3736 -0.9228 -0.4922
  402MOL0     C52941   2.642   9.416   4.499  0.0170  0.2515 -0.3780
  402MOL0     C52942   2.785   9.412   4.436  0.5870  0.3811  1.0684
  402MOL0     C52943   2.907   9.413   4.544  0.8781 -0.6642 -0.4384
  402MOL0     C52944   2.891   9.299   4.645 -0.2796 -0.0852 -0.4735
  402MOL0     C52945   2.840   9.344   4.788 -1.2968 -0.2604 -0.2882
  402MOL0     C52946   2.808   9.214   4.868  0.9289 -0.7812 -0.6379
  402MOL0     C52947   2.669   9.166   4.830  1.0182  0.1069 -0.5250
  402MOL0     C52948   2.661   9.030   4.768 -0.1477 -1.2377 -1.1646
  402MOL0     N52949   2.517   8.987   4.743 -0.9141  0.6311 -0.4749
  402MOL0     C52950   2.406   9.044   4.799 -0.8792 -0.3784 -0.2156
  402MOL0     C52951   2.305   8.991   4.731  0.2454 -1.5732  0.1687
  402MOL0     C52952   2.167   9.027   4.752  0.0834 -0.4360  0.0706
  402MOL0     C52953   2.074   8.911   4.769 -0.3295  0.5862 -0.2818
  402MOL0     C52954   1.930   8.957   4.803 -0.1268 -0.4150 -0.6281
  402MOL0     C52955   1.861   9.002   4.679  0.3225  0.0253 -0.0880
  402MOL0     O52956   1.826   8.890   4.600  0.5652  0.3108 -0.1157
  402MOL0     C52957   1.688   8.858   4.578 -0.2974 -1.4531 -0.9675
  402MOL0     C52958   1.657   8.788   4.466 -0.7506 -0.1032  0.3041
  402MOL0     C52959   1.524   8.760   4.442 -0.0617 -0.2463  0.3908
  402MOL0     C52960   1.417   8.789   4.535 -0.0423 -0.0318 -0.2463
  402MOL0     C52961   1.275   8.762   4.513  0.4080 -0.6235  0.4998
  402MOL0     O52962   1.243   8.679   4.402 -0.3160  0.0096 -0.6429
  402MOL0     C52963   1.115   8.636   4.397  0.4710  0.0789  0.1143
  402MOL0     C52964   1.062   8.563   4.502 -1.5497 -1.4522 -0.3948
  402MOL0     C52965   0.937   8.503   4.487  0.3326  0.4554 -0.7648
  402MOL0     C52966   0.860   8.501   4.370 -0.7932 -0.0064 -0.0684
  402MOL0     O52967   0.740   8.438   4.358 -0.2662  1.1543 -0.2397
  402MOL0     C52968   0.661   8.447   4.239 -0.0297 -1.0023  0.5141
  402MOL0     C52969   0.516   8.401   4.267 -0.1089  0.1216  0.0387
  402MOL0     C52970   0.426   8.388   4.149  0.9709 -0.5295 -0.2499
  402MOL0     C52971   0.468   8.265   4.060 -0.1156 -0.3100  0.1402
  402MOL0     C52972   0.362   8.233   3.952  0.7649  0.4631 -0.9735
  402MOL0     C52973   0.387   8.087   3.915 -0.4898  0.2079  0.2057
  402MOL0     C52974   0.490   8.065   3.804  0.1323  0.1844  0.3639
  402MOL0     C52975   0.503   7.925   3.748  0.0866  0.2860  1.3344
  402MOL0    Cl52976   0.610   7.927   3.601 -0.1994 -0.0724  0.4199
  402MOL0     C52977   0.915   8.585   4.261 -0.1405  0.4068 -0.0384
  402MOL0     C52978   1.041   8.647   4.279 -0.4476 -1.2039  0.2695
  402MOL0     O52979   1.196   8.800   4.595  0.5750 -0.5976  0.0915
  402MOL0     C52980   1.457   8.858   4.649  0.3899 -0.5667  0.3950
  402MOL0     C52981   1.591   8.895   4.672 -0.2409 -0.0710  0.8148
  402MOL0     N52982   2.353   8.909   4.632 -0.3199  0.3586  0.1945
  402MOL0     N52983   2.476   8.908   4.637 -0.1692 -0.1889  0.1258
  402MOL0     C52984   2.413   9.223   4.429  0.1462  0.1251 -0.2632
  402MOL0     C52985   2.295   9.151   4.405 -0.1487  0.0440  0.2158
  402MOL0     C52986   1.833   9.124   4.284 -0.9863 -1.1184  0.3997
  402MOL0     C52987   1.853   9.053   4.165 -0.6621 -0.3946 -0.1628
  402MOL0     C52988   1.743   8.996   4.108  0.5487  0.0047  1.0867
  402MOL0     C52989   1.614   8.999   4.155  0.2982 -0.9065  0.0005
  402MOL0     O52990   1.512   8.962   4.065  0.6771 -0.3566  0.4013
  402MOL0     C52991   1.382   8.975   4.113 -0.1288  0.4967  0.2748
  402MOL0     C52992   1.288   8.932   3.999  0.9310 -0.5240  0.6619
  402MOL0     C52993   1.133   8.956   4.022  0.2795 -0.3496 -0.3125
  402MOL0     C52994   1.045   8.857   3.948 -0.5454 -0.0203 -0.0292
  402MOL0     C52995   0.907   8.856   3.996  0.7421 -0.0621 -0.2905
  402MOL0     C52996   0.788   8.844   4.023  0.4946  0.1475  0.1283
  402MOL0     C52997   1.594   9.061   4.284  0.0537  0.6467  0.2214
  402MOL0     C52998   1.703   9.121   4.345 -0.3720  0.5814  0.8684
  402MOL0     H52999   2.107   9.407   4.267 -0.6514 -0.5316 -1.6858
  402MOL0     H53000   2.314   9.525   4.319 -3.1758  0.0640 -1.8576
  402MOL0     H53001   2.624   9.322   4.552  0.2657  1.3904  1.8813
  402MOL0     H53002   2.631   9.494   4.576  1.8714 -1.9452  2.3081
  402MOL0     H53003   2.795   9.499   4.371 -0.4883  0.1711  0.6111
  402MOL0     H53004   2.789   9.317   4.382  1.8692  0.0222  1.7428
  402MOL0     H53005   2.903   9.509   4.596 -1.6609 -0.7615 -0.3178
  402MOL0     H53006   3.006   9.416   4.499  0.5095  0.7947 -1.2187
  402MOL0     H53007   2.832   9.221   4.597  0.5142 -0.8832 -0.1906
  402MOL0     H53008   2.989   9.253   4.659 -0.7859 -0.6168  1.8275
  402MOL0     H53009   2.762   9.419   4.783  0.7013  1.9966  0.4948
  402MOL0     H53010   2.919   9.399   4.839  0.6903 -1.7190 -1.6182
  402MOL0     H53011   2.808   9.240   4.974  0.5493 -2.2218 -0.2546
  402MOL0     H53012   2.889   9.142   4.854 -0.2100 -2.6771  1.8259
  402MOL0     H53013   2.610   9.155   4.921  2.3283  0.5597  0.4087
  402MOL0     H53014   2.620   9.239   4.764  4.6298  2.0910 -1.2606
  402MOL0     H53015   2.713   8.950   4.823 -0.1416  0.0574  0.8036
  402MOL0     H53016   2.714   9.042   4.673  0.4347  1.2627 -0.6033
  402MOL0     H53017   2.410   9.111   4.884  1.0518 -1.5096  0.6692
  402MOL0     H53018   2.139   9.078   4.659  1.7421 -0.5392 -0.5165
  402MOL0     H53019   2.161   9.094   4.838 -1.0443  0.2281 -0.4936
  402MOL0     H53020   2.103   8.854   4.857 -1.1013 -1.8024 -1.4873
  402MOL0     H53021   2.070   8.853   4.676 -1.0930  0.4416 -0.1634
  402MOL0     H53022   1.888   8.865   4.844 -1.1395 -0.0887 -0.9179
  402MOL0     H53023   1.924   9.031   4.884  0.3355 -2.4335  1.3665
  402MOL0     H53024   1.930   9.055   4.612 -1.8711 -1.3497 -3.7448
  402MOL0     H53025   1.780   9.070   4.710 -0.8303 -0.5772 -1.6126
  402MOL0     H53026   1.742   8.766   4.402 -3.5217  0.0207 -3.7938
  402MOL0     H53027   1.491   8.719   4.348 -0.2390  1.2699 -0.2497
  402MOL0     H53028   1.124   8.539   4.588  0.5725  1.7349 -0.8481
  402MOL0     H53029   0.895   8.433   4.558 -2.8537  1.4436 -1.5269
  402MOL0     H53030   0.705   8.391   4.155 -2.8679 -1.6865 -0.6667
  402MOL0     H53031   0.653   8.552   4.210 -0.4192 -1.8181 -2.7638
  402MOL0     H53032   0.477   8.474   4.340  1.0355  0.4179  0.3698
  402MOL0     H53033   0.513   8.306   4.321 -2.5375  0.3772  0.4779
  402MOL0     H53034   0.428   8.475   4.084  0.5976 -0.6492 -0.4233
  402MOL0     H53035   0.325   8.380   4.189  0.2958 -0.3572 -1.8636
  402MOL0     H53036   0.563   8.289   4.013  0.3485 -0.9672  0.7320
  402MOL0     H53037   0.472   8.186   4.135 -4.0328  0.2016  1.1388
  402MOL0     H53038   0.364   8.304   3.869 -1.8013  2.1543  0.2642
  402MOL0     H53039   0.261   8.237   3.995  0.5678  1.9522 -1.5296
  402MOL0     H53040   0.291   8.054   3.874  0.0599 -0.5958 -0.4724
  402MOL0     H53041   0.410   8.022   4.000 -2.2984 -1.5247 -0.5590
  402MOL0     H53042   0.468   8.133   3.722  2.1595 -0.2879 -0.6345
  402MOL0     H53043   0.581   8.095   3.856 -0.9350  1.4465  1.5529
  402MOL0     H53044   0.405   7.899   3.707 -0.3199  4.8617 -1.1773
  402MOL0     H53045   0.540   7.849   3.819 -3.6863  0.3403  3.6453
  402MOL0     H53046   0.858   8.594   4.170  0.6214 -2.0685 -0.8410
  402MOL0     H53047   1.084   8.698   4.193  1.1213 -2.5791  0.1863
  402MOL0     H53048   1.386   8.874   4.729 -0.8422 -0.0669 -0.7504
  402MOL0     H53049   1.598   8.956   4.761 -1.6261 -0.4293  1.1809
  402MOL0     H53050   2.495   9.171   4.478 -0.2454  1.8216  2.4529
  402MOL0     H53051   2.278   9.047   4.430 -1.1952  0.2708  0.4584
  402MOL0     H53052   1.945   9.041   4.108 -1.5336  0.5644 -1.8555
  402MOL0     H53053   1.759   8.945   4.013  0.4046 -1.2715  1.7315
  402MOL0     H53054   1.349   9.075   4.144  1.8987  1.8499 -1.6435
  402MOL0     H53055   1.371   8.897   4.189  1.4646  0.7374  0.7764
  402MOL0     H53056   1.304   8.981   3.903  1.7658 -2.5529 -0.2704
  402MOL0     H53057   1.299   8.826   3.979  0.6137  0.0605 -3.3338
  402MOL0     H53058   1.115   9.061   3.995  2.3845  0.3346  0.6377
  402MOL0     H53059   1.115   8.954   4.130  1.8819 -0.4088 -0.0141
  402MOL0     H53060   1.066   8.871   3.842  0.4915 -2.7005 -0.2612
  402MOL0     H53061   1.078   8.756   3.975 -0.4729 -0.4787 -1.7385
  402MOL0     H53062   0.685   8.847   4.049  0.1732 -2.4733 -0.5885
  402MOL0     H53063   1.501   9.077   4.338 -0.3091  0.1395 -0.2545
  402MOL0     H53064   1.684   9.168   4.441  1.9872  0.5772  1.4005
  403MOL0     O53065   2.254   1.592   1.280  0.3738 -0.5773  1.1391
  403MOL0     C53066   2.310   1.655   1.191  0.4135  0.0990  0.9040
  403MOL0     O53067   2.245   1.740   1.098  0.5611  0.3006 -0.0380
  403MOL0     C53068   2.107   1.755   1.113  0.0221  0.7485 -0.5342
  403MOL0     C53069   2.042   1.812   1.217  0.7851 -0.6418 -0.2559
  403MOL0     C53070   1.900   1.816   1.216  0.2742  0.4920 -0.6572
  403MOL0     C53071   1.823   1.763   1.108  0.2022 -0.2273  0.0346
  403MOL0     O53072   1.679   1.745   1.103 -0.4035  1.0065  0.3924
  403MOL0     C53073   1.594   1.815   1.195  0.7206 -0.1866 -0.1854
  403MOL0     C53074   1.544   1.952   1.155 -0.0763  0.4649  0.0397
  403MOL0     C53075   1.402   1.959   1.103 -0.4098  0.1844  0.1812
  403MOL0     C53076   1.341   2.099   1.089  0.4774  0.4039  0.5306
  403MOL0     C53077   1.393   2.163   0.955  0.4364 -0.0098 -0.4531
  403MOL0     C53078   1.342   2.107   0.819 -1.0425 -0.5995 -0.3024
  403MOL0     C53079   1.191   2.088   0.818 -0.4781  0.4150 -0.1339
  403MOL0     C53080   1.136   2.040   0.683  0.2048 -0.4408  0.9471
  403MOL0     N53081   0.985   2.066   0.677  0.0184  0.5664 -0.2729
  403MOL0     C53082   0.912   2.131   0.576 -1.3524  0.2773 -1.1668
  403MOL0     C53083   0.787   2.140   0.634 -1.0852  0.6552 -0.2055
  403MOL0     C53084   0.677   2.205   0.557 -0.1303  0.6456 -0.1173
  403MOL0     C53085   0.529   2.201   0.615 -0.5185 -0.2455  0.5140
  403MOL0     C53086   0.463   2.066   0.605 -0.0906 -0.9592 -0.4354
  403MOL0     C53087   0.321   2.064   0.668 -1.5136 -0.7809 -0.9810
  403MOL0     O53088   0.229   2.125   0.580 -0.0698 -0.5870  0.1479
  403MOL0     C53089   0.096   2.111   0.616 -0.5540 -0.3718 -0.1460
  403MOL0     C53090   0.003   2.200   0.557  0.9475  1.2315 -0.1700
  403MOL0     C53091  -0.126   2.207   0.596  0.1440 -0.1751 -0.9572
  403MOL0     C53092  -0.177   2.117   0.691  0.3753 -0.7639  0.1756
  403MOL0     C53093  -0.326   2.110   0.718  0.2467 -0.0801 -0.0990
  403MOL0     O53094  -0.362   2.000   0.794  0.6546  0.3420  0.3039
  403MOL0     C53095  -0.494   1.983   0.821 -0.3580  0.7752  0.1071
  403MOL0     C53096  -0.575   1.926   0.731 -0.2169 -0.3156  0.3756
  403MOL0     C53097  -0.712   1.923   0.757 -0.0494 -0.2444 -0.5196
  403MOL0     C53098  -0.771   1.986   0.872  0.5303 -0.2289  0.7167
  403MOL0     O53099  -0.908   2.007   0.891 -0.1048 -0.3520  1.0166
  403MOL0     C53100  -0.985   2.002   0.769  0.1955 -0.2667 -0.0867
  403MOL0     C53101  -1.131   2.052   0.813 -0.2699  0.7963  0.0776
  403MOL0     C53102  -1.248   2.042   0.697 -0.1553 -0.5944 -0.1575
  403MOL0     C53103  -1.382   2.070   0.767 -0.2663 -0.1178 -0.0409
  403MOL0     C53104  -1.491   2.030   0.674 -1.0824  0.4575 -0.8028
  403MOL0     C53105  -1.631   2.049   0.732  0.3677  0.1156  0.4168
  403MOL0     C53106  -1.743   1.984   0.642 -0.7909 -0.2947 -1.2606
  403MOL0     C53107  -1.709   1.841   0.611  0.2500  0.9217 -0.2314
  403MOL0    Cl53108  -1.857   1.741   0.561 -0.0939  0.3046  0.5405
  403MOL0     C53109  -0.684   2.038   0.969 -0.2368  0.0949  0.4650
  403MOL0     C53110  -0.541   2.029   0.940  0.1214 -0.6564 -0.4429
  403MOL0     O53111  -0.402   2.204   0.681 -0.7477  0.6760 -0.0402
  403MOL0     C53112  -0.091   2.038   0.761 -0.9885  0.2520 -0.2920
  403MOL0     C53113   0.041   2.031   0.720  0.9110 -0.0986  0.3093
  403MOL0     N53114   0.788   2.066   0.756  0.3608 -0.1945 -1.4338
  403MOL0     N53115   0.905   2.018   0.780 -0.9082  0.1242 -0.1845
  403MOL0     C53116   1.890   1.723   0.995 -0.6889  0.2014 -1.0457
  403MOL0     C53117   2.035   1.726   0.998  0.0043 -0.1317 -0.2334
  403MOL0     C53118   2.456   1.666   1.192  0.3604 -0.2098  0.4034
  403MOL0     C53119   2.519   1.778   1.138  0.1947 -0.1536  0.0450
  403MOL0     C53120   2.658   1.781   1.123 -0.4251 -0.5442 -0.6502
  403MOL0     C53121   2.739   1.676   1.164  0.2152  0.3149 -0.4746
  403MOL0     O53122   2.870   1.690   1.137 -0.3198  0.1100  0.0154
  403MOL0     C53123   2.971   1.600   1.185 -0.3392  0.1630 -0.4915
  403MOL0     C53124   3.109   1.649   1.149 -0.7342 -0.9192  1.1434
  403MOL0     C53125   3.227   1.555   1.178  0.5418 -0.6553 -0.8748
  403MOL0     C53126   3.357   1.620   1.108  1.4680  1.2260 -0.3440
  403MOL0     C53127   3.467   1.539   1.156  0.6030 -0.8741 -0.6464
  403MOL0     C53128   3.565   1.465   1.181 -0.0728 -0.3895 -0.4566
  403MOL0     C53129   2.675   1.562   1.228  0.8511 -1.3746  0.1219
  403MOL0     C53130   2.536   1.562   1.247  0.6687 -0.1022  0.8598
  403MOL0     H53131   2.092   1.834   1.310 -0.8738 -2.9337  1.2822
  403MOL0     H53132   1.857   1.848   1.311  0.4719  1.6392 -0.9411
  403MOL0     H53133   1.639   1.825   1.295  0.7178 -1.0254 -0.0949
  403MOL0     H53134   1.515   1.743   1.218 -1.3984  2.2724  0.8647
  403MOL0     H53135   1.612   1.999   1.083  1.7678 -0.3040  1.2221
  403MOL0     H53136   1.563   2.015   1.242  3.9824  3.0032 -2.3771
  403MOL0     H53137   1.336   1.905   1.171 -1.1347  1.9896  0.9819
  403MOL0     H53138   1.394   1.903   1.009 -1.2071 -1.5795  1.2622
  403MOL0     H53139   1.231   2.096   1.087  0.4962 -1.1880  0.7044
  403MOL0     H53140   1.374   2.160   1.173 -2.1757  1.5661  0.8262
  403MOL0     H53141   1.501   2.150   0.954  0.5041  0.3190  0.7732
  403MOL0     H53142   1.371   2.270   0.956  1.3743  0.2835  3.3132
  403MOL0     H53143   1.389   2.009   0.813 -0.3671 -0.5743  2.6737
  403MOL0     H53144   1.361   2.175   0.735 -0.2683 -1.0651 -0.5114
  403MOL0     H53145   1.155   2.015   0.891  1.9213  1.4660  2.2657
  403MOL0     H53146   1.141   2.182   0.844 -0.8933  0.1059  0.1960
  403MOL0     H53147   1.161   1.934   0.667  1.9585  0.0510  0.1058
  403MOL0     H53148   1.185   2.096   0.603 -3.1356  0.6566 -0.4890
  403MOL0     H53149   0.943   2.165   0.478 -1.3018 -2.2748 -2.1216
  403MOL0     H53150   0.665   2.156   0.460 -1.0670  0.6115  0.0100
  403MOL0     H53151   0.705   2.308   0.534  1.7629 -0.4165 -3.2775
  403MOL0     H53152   0.475   2.276   0.556  0.2953 -0.4704 -0.5467
  403MOL0     H53153   0.544   2.229   0.719 -0.8957 -0.5452  0.6504
  403MOL0     H53154   0.452   2.047   0.498 -2.5349  1.1771 -0.6644
  403MOL0     H53155   0.520   1.990   0.659 -1.7179 -1.5542  0.4949
  403MOL0     H53156   0.326   2.102   0.770 -0.2651 -0.9325 -0.9640
  403MOL0     H53157   0.288   1.960   0.672 -0.5102 -1.1119 -0.9853
  403MOL0     H53158   0.019   2.276   0.481 -3.1199  0.9101 -1.6217
  403MOL0     H53159  -0.199   2.269   0.544  0.9992 -0.2670 -2.3205
  403MOL0     H53160  -0.525   1.864   0.657  0.9878 -0.0901  0.9760
  403MOL0     H53161  -0.779   1.878   0.683  2.8500 -2.4166 -2.0000
  403MOL0     H53162  -0.998   1.899   0.737 -1.1888 -0.0419 -0.2767
  403MOL0     H53163  -0.934   2.057   0.690 -0.2702 -1.1583 -1.0226
  403MOL0     H53164  -1.115   2.155   0.847  1.0780 -0.0529  2.2508
  403MOL0     H53165  -1.158   1.993   0.901  0.1115  1.1751  0.4532
  403MOL0     H53166  -1.249   1.941   0.657  1.3197 -1.3329  1.5525
  403MOL0     H53167  -1.234   2.112   0.614  3.0740  0.9775  1.4896
  403MOL0     H53168  -1.390   2.011   0.859  0.0026  1.4135  0.9923
  403MOL0     H53169  -1.392   2.176   0.791 -0.8740 -0.2298  0.2120
  403MOL0     H53170  -1.467   1.924   0.667  1.1632  0.9460 -1.1577
  403MOL0     H53171  -1.482   2.072   0.573  2.2293  2.7092  0.2706
  403MOL0     H53172  -1.646   2.157   0.731  3.0621  0.5641  0.7735
  403MOL0     H53173  -1.649   2.011   0.833  3.8343  0.8321  1.4317
  403MOL0     H53174  -1.837   1.988   0.697 -0.4841  0.5152 -0.7713
  403MOL0     H53175  -1.745   2.041   0.548  3.5855 -1.8106 -2.5267
  403MOL0     H53176  -1.664   1.800   0.701  3.4381 -0.0804 -2.1378
  403MOL0     H53177  -1.627   1.834   0.539  0.2611 -0.9373 -0.0769
  403MOL0     H53178  -0.724   2.082   1.060  0.4422 -1.2926  1.4703
  403MOL0     H53179  -0.476   2.064   1.020 -3.0472  1.1199  1.5876
  403MOL0     H53180  -0.131   1.968   0.834 -0.1815 -1.5604 -1.5002
  403MOL0     H53181   0.103   1.963   0.777  1.4307  1.5542  1.8214
  403MOL0     H53182   1.843   1.687   0.904  0.5725  2.0857 -2.5150
  403MOL0     H53183   2.082   1.706   0.902 -3.3795 -2.0699 -1.6476
  403MOL0     H53184   2.457   1.862   1.109  1.2943  0.6141 -0.1286
  403MOL0     H53185   2.711   1.866   1.081 -0.7766  0.9465  1.7528
  403MOL0     H53186   2.958   1.501   1.141 -2.1178  0.2335 -0.1868
  403MOL0     H53187   2.965   1.584   1.294  0.3782  1.3241 -0.2635
  403MOL0     H53188   3.109   1.671   1.041 -2.6433 -0.6475  1.1617
  403MOL0     H53189   3.133   1.736   1.212 -0.4021  0.5663 -0.9146
  403MOL0     H53190   3.208   1.452   1.150 -3.1643  0.7452 -4.3492
  403MOL0     H53191   3.233   1.561   1.288 -2.9971 -2.0051 -0.5015
  403MOL0     H53192   3.353   1.608   0.999  0.1757 -2.9861 -0.0048
  403MOL0     H53193   3.366   1.722   1.147 -1.5700  2.0000 -1.3737
  403MOL0     H53194   3.653   1.409   1.208  0.1039 -0.6775 -1.5702
  403MOL0     H53195   2.734   1.473   1.249 -0.7192 -3.2321 -2.6144
  403MOL0     H53196   2.497   1.473   1.296 -0.4782  0.6958  1.4444
  404MOL0     O53197   3.376  10.467   5.260 -0.0418  0.1825  0.1553
  404MOL0     C53198   3.477  10.425   5.320 -0.1500 -0.2006 -0.3660
  404MOL0     O53199   3.486  10.331   5.429  0.0671  0.5146 -0.1360
  404MOL0     C53200   3.365  10.311   5.494 -1.0956 -0.3885  0.7340
  404MOL0     C53201   3.303  10.184   5.470 -0.1712 -1.0668 -0.2448
  404MOL0     C53202   3.178  10.145   5.523 -0.3200  1.1601 -0.9565
  404MOL0     C53203   3.106  10.248   5.586  0.1342  0.0182  0.3949
  404MOL0     O53204   2.969  10.230   5.623  0.3578 -0.3507 -0.3055
  404MOL0     C53205   2.884  10.121   5.583 -0.8104  0.0364 -0.0930
  404MOL0     C53206   2.751  10.126   5.666 -0.4912  0.3162  0.2102
  404MOL0     C53207   2.636  10.041   5.594  0.4359  0.4758  1.0511
  404MOL0     C53208   2.546   9.962   5.693 -1.0858 -0.2267 -1.3158
  404MOL0     C53209   2.436   9.899   5.611 -0.2138 -0.7848 -0.2217
  404MOL0     C53210   2.357   9.813   5.708  0.5459  0.2646  0.4626
  404MOL0     C53211   2.235   9.753   5.641  0.2666  0.8662  0.2053
  404MOL0     C53212   2.128   9.720   5.748 -0.5867 -0.3228 -0.3674
  404MOL0     N53213   2.000   9.677   5.691 -0.7014  0.7398  0.7397
  404MOL0     C53214   1.973   9.549   5.647  0.3400  0.7962 -0.9059
  404MOL0     C53215   1.836   9.543   5.630 -0.3534 -0.4336  0.3842
  404MOL0     C53216   1.760   9.419   5.593  0.1691  1.1820 -0.4364
  404MOL0     C53217   1.644   9.379   5.683  0.0786 -0.3352  0.2801
  404MOL0     C53218   1.605   9.237   5.636  0.0240  0.4922 -0.3726
  404MOL0     C53219   1.460   9.196   5.669  0.2261  0.7331 -0.5908
  404MOL0     O53220   1.422   9.224   5.807  0.0474 -0.1617  0.1288
  404MOL0     C53221   1.290   9.220   5.839  0.0219 -0.3054 -0.0783
  404MOL0     C53222   1.185   9.155   5.770 -0.2685 -0.6799  0.3415
  404MOL0     C53223   1.062   9.151   5.828  0.2723 -0.4619  0.3446
  404MOL0     C53224   1.034   9.201   5.955 -0.1722 -0.3906 -0.8510
  404MOL0     C53225   0.895   9.195   5.999  0.1978  0.8780  0.7370
  404MOL0     O53226   0.866   9.245   6.123  0.4619 -0.1409  0.0883
  404MOL0     C53227   0.744   9.246   6.188 -0.3534 -0.6112 -0.6239
  404MOL0     C53228   0.620   9.200   6.147  0.4448  0.3494  0.6746
  404MOL0     C53229   0.498   9.224   6.212  1.4854  0.7892 -0.6073
  404MOL0     C53230   0.489   9.298   6.327 -0.1952  0.2705 -1.2070
  404MOL0     O53231   0.378   9.339   6.406  0.4650 -0.5684  0.3457
  404MOL0     C53232   0.252   9.289   6.363  0.2988 -0.1880 -0.0565
  404MOL0     C53233   0.118   9.370   6.410  0.2813 -0.8967 -0.1351
  404MOL0     C53234  -0.015   9.287   6.421 -0.7114  0.9428 -0.1831
  404MOL0     C53235  -0.132   9.367   6.462  0.4628  0.6776 -1.0562
  404MOL0     C53236  -0.262   9.293   6.499 -0.1469  0.2139  0.0598
  404MOL0     C53237  -0.377   9.396   6.507 -0.2596  0.1654  0.9753
  404MOL0     C53238  -0.495   9.328   6.580 -0.0270  0.2065  0.4763
  404MOL0     C53239  -0.610   9.419   6.581  0.3308  0.3486  0.4553
  404MOL0    Cl53240  -0.744   9.347   6.686  0.0337  0.1478  0.0077
  404MOL0     C53241   0.609   9.346   6.382  0.0082 -0.3345  0.4538
  404MOL0     C53242   0.731   9.321   6.314 -0.2421  0.1091  0.9747
  404MOL0     O53243   0.812   9.147   5.919  0.2589  0.6607 -0.3810
  404MOL0     C53244   1.134   9.259   6.029 -0.6951  0.4998  0.0011
  404MOL0     C53245   1.258   9.266   5.975 -0.1251 -0.7964 -0.7274
  404MOL0     N53246   1.790   9.670   5.656 -0.1539 -0.5807  0.0448
  404MOL0     N53247   1.891   9.751   5.681  0.8802 -1.1791 -0.0197
  404MOL0     C53248   3.158  10.377   5.588  0.5176  0.5303 -0.8374
  404MOL0     C53249   3.291  10.410   5.555  1.5469  0.7883 -0.0622
  404MOL0     C53250   3.603  10.485   5.276 -0.4572  0.6705 -0.2049
  404MOL0     C53251   3.604  10.579   5.169 -0.4676  0.0534 -0.4191
  404MOL0     C53252   3.723  10.651   5.148  0.1489  0.1277 -0.6089
  404MOL0     C53253   3.835  10.650   5.230 -0.1632  0.1130  0.2432
  404MOL0     O53254   3.949  10.729   5.212 -0.2763  0.1564  0.1868
  404MOL0     C53255   3.938  10.856   5.140 -0.5503 -0.1975 -0.4476
  404MOL0     C53256   3.957  10.983   5.229 -1.2758 -0.3276  0.6002
  404MOL0     C53257   4.098  11.021   5.267  0.6567 -0.5110 -0.6888
  404MOL0     C53258   4.119  11.166   5.289 -0.1296  0.1439 -0.1081
  404MOL0     C53259   4.260  11.192   5.319 -0.2048 -0.0232 -0.6713
  404MOL0     C53260   4.378  11.197   5.328 -0.0164 -0.3290  0.1271
  404MOL0     C53261   3.830  10.548   5.327  0.3093 -0.5275 -0.6783
  404MOL0     C53262   3.723  10.469   5.351  0.6525  0.2202 -0.1521
  404MOL0     H53263   3.360  10.107   5.419  1.0099 -1.0902  1.0495
  404MOL0     H53264   3.134  10.046   5.515 -1.2435  1.2076  2.2039
  404MOL0     H53265   2.935  10.027   5.608  0.4730  0.7971  0.2582
  404MOL0     H53266   2.856  10.114   5.478  1.9895 -3.8053 -0.8022
  404MOL0     H53267   2.727  10.232   5.663  1.4019  0.7418 -0.8816
  404MOL0     H53268   2.776  10.089   5.766 -0.7391  2.6282  1.1758
  404MOL0     H53269   2.684   9.982   5.515 -0.0477  1.1049  0.2683
  404MOL0     H53270   2.575  10.116   5.543 -1.5070  2.6055  5.9361
  404MOL0     H53271   2.602   9.884   5.745 -0.6442  1.5801  1.1133
  404MOL0     H53272   2.499  10.030   5.765  0.9499  1.5905 -1.6035
  404MOL0     H53273   2.473   9.842   5.525 -4.0136  0.4537 -2.9691
  404MOL0     H53274   2.365   9.975   5.576  1.7104  1.5713  0.7219
  404MOL0     H53275   2.327   9.884   5.785  0.9157  2.8217 -1.6107
  404MOL0     H53276   2.416   9.736   5.759 -3.0610 -4.1422 -1.3642
  404MOL0     H53277   2.193   9.813   5.560  0.5168 -1.8858 -2.1421
  404MOL0     H53278   2.271   9.662   5.592 -1.7804  0.1974 -0.1285
  404MOL0     H53279   2.113   9.811   5.807  2.7729  0.1231 -0.0376
  404MOL0     H53280   2.166   9.648   5.821  1.7738  1.4823  0.3011
  404MOL0     H53281   2.045   9.469   5.634 -0.1453  0.1837  0.0925
  404MOL0     H53282   1.832   9.337   5.591 -2.5251 -1.4098  0.7179
  404MOL0     H53283   1.729   9.436   5.489  0.3302 -1.1245 -0.9205
  404MOL0     H53284   1.565   9.454   5.672  0.2909 -0.4187 -3.0772
  404MOL0     H53285   1.658   9.365   5.790 -0.7776 -1.0346  0.3133
  404MOL0     H53286   1.633   9.217   5.532 -0.6256 -1.9179 -0.1451
  404MOL0     H53287   1.676   9.178   5.694  0.0470 -0.6856 -1.5383
  404MOL0     H53288   1.450   9.091   5.642 -3.1984  1.3373 -2.2648
  404MOL0     H53289   1.394   9.264   5.615  2.1481  0.8767 -2.9497
  404MOL0     H53290   1.198   9.113   5.671 -0.0141 -0.4790  0.2885
  404MOL0     H53291   0.992   9.081   5.784 -0.0701 -0.6477  1.1480
  404MOL0     H53292   0.610   9.150   6.051 -0.7450  2.5329 -0.4143
  404MOL0     H53293   0.405   9.186   6.172  1.5400  0.0317 -0.0393
  404MOL0     H53294   0.243   9.192   6.411 -1.8469 -0.2075 -0.4113
  404MOL0     H53295   0.242   9.274   6.255 -0.1055 -0.9978  0.0928
  404MOL0     H53296   0.090   9.443   6.333 -5.3884 -3.7685 -1.3183
  404MOL0     H53297   0.141   9.412   6.509 -0.2608 -1.6383  0.3122
  404MOL0     H53298  -0.002   9.206   6.493 -1.5230 -1.7056 -2.8347
  404MOL0     H53299  -0.027   9.234   6.326  1.2926  0.5896 -0.2820
  404MOL0     H53300  -0.102   9.427   6.549  0.4623 -0.3391 -0.3415
  404MOL0     H53301  -0.154   9.440   6.383 -4.1682  0.3178 -0.3602
  404MOL0     H53302  -0.252   9.231   6.589 -1.1952  2.3528  1.7251
  404MOL0     H53303  -0.297   9.223   6.423  0.9297 -0.0948 -0.1684
  404MOL0     H53304  -0.410   9.421   6.406  0.1869 -0.4517  0.6681
  404MOL0     H53305  -0.342   9.491   6.548  1.6268  1.9709 -4.0776
  404MOL0     H53306  -0.530   9.233   6.538 -1.9669  0.2756  1.8405
  404MOL0     H53307  -0.464   9.317   6.684  1.7896 -1.0702 -0.1260
  404MOL0     H53308  -0.637   9.433   6.476  1.3267 -2.9186 -0.3341
  404MOL0     H53309  -0.591   9.517   6.625 -0.4937 -0.0091  1.6510
  404MOL0     H53310   0.591   9.407   6.470 -0.9782 -0.3037  0.2489
  404MOL0     H53311   0.817   9.379   6.347  2.2187 -1.5845 -2.0113
  404MOL0     H53312   1.128   9.295   6.131  4.3633 -3.8127  2.3471
  404MOL0     H53313   1.341   9.312   6.029 -0.2958  0.9987 -1.9026
  404MOL0     H53314   3.115  10.468   5.628  0.0092 -0.0360 -0.0670
  404MOL0     H53315   3.338  10.508   5.565 -0.3278  2.3433 -4.0910
  404MOL0     H53316   3.515  10.608   5.114 -0.7813  0.7489  0.4309
  404MOL0     H53317   3.717  10.720   5.065  2.0137  1.3871  0.2660
  404MOL0     H53318   3.844  10.869   5.087  1.0234  0.6684 -3.2639
  404MOL0     H53319   4.009  10.871   5.058 -2.0602  2.8057 -1.3594
  404MOL0     H53320   3.922  11.066   5.167  1.1315 -0.2283 -0.7379
  404MOL0     H53321   3.896  10.966   5.318 -1.2236 -1.6700  0.4064
  404MOL0     H53322   4.166  10.992   5.186  1.0949  0.5081 -0.6953
  404MOL0     H53323   4.124  10.970   5.361  0.3815 -0.2882 -0.4913
  404MOL0     H53324   4.097  11.220   5.197  0.2441  0.9827  0.2835
  404MOL0     H53325   4.046  11.205   5.360 -0.2368  0.9557 -0.6591
  404MOL0     H53326   4.483  11.198   5.351 -0.0481  1.9381  0.3853
  404MOL0     H53327   3.916  10.518   5.387 -1.3132 -0.8858  1.5831
  404MOL0     H53328   3.729  10.406   5.439 -1.3424 -1.5316 -1.1759
  405MOL0     O53329   8.147   0.915   9.695 -0.3785  0.0534  0.0886
  405MOL0     C53330   8.082   0.939   9.591 -0.0506 -0.4699 -0.1135
  405MOL0     O53331   8.127   0.934   9.461  0.3082  0.9006 -0.0596
  405MOL0     C53332   8.256   0.893   9.433 -0.1439  0.5371 -0.3417
  405MOL0     C53333   8.274   0.843   9.312  0.5016  0.5698  0.3896
  405MOL0     C53334   8.396   0.779   9.271 -0.3700  0.3017  0.3829
  405MOL0     C53335   8.501   0.767   9.364 -0.8203  1.1543 -0.0193
  405MOL0     O53336   8.618   0.721   9.320 -0.7901  0.0959  0.7432
  405MOL0     C53337   8.705   0.660   9.412  0.0068 -0.4097  0.1066
  405MOL0     C53338   8.805   0.559   9.351 -0.1749 -0.3584  0.0513
  405MOL0     C53339   8.727   0.442   9.292  0.5522  0.5266 -0.6616
  405MOL0     C53340   8.816   0.337   9.226  0.6610 -0.0641  0.5142
  405MOL0     C53341   8.743   0.221   9.156 -0.7768 -0.2486  1.3484
  405MOL0     C53342   8.612   0.177   9.226  0.2921 -0.0447 -1.0211
  405MOL0     C53343   8.564   0.037   9.202  0.1342  0.2083  1.3841
  405MOL0     C53344   8.435   0.001   9.264  0.4745  0.4472  0.5881
  405MOL0     N53345   8.320   0.089   9.217  0.6197 -0.0019  0.0960
  405MOL0     C53346   8.247   0.180   9.282  0.7607 -0.0857  0.1111
  405MOL0     C53347   8.165   0.231   9.190 -0.2769 -0.0139 -0.7800
  405MOL0     C53348   8.065   0.339   9.189 -0.2259 -0.5161 -0.4863
  405MOL0     C53349   8.027   0.393   9.047 -0.3723 -0.5826 -0.8141
  405MOL0     C53350   7.896   0.470   9.055  0.4741  0.7275  0.0626
  405MOL0     C53351   7.900   0.616   9.090  0.0379  0.0464 -0.4994
  405MOL0     O53352   7.885   0.618   9.235  0.6513  0.2067  0.2898
  405MOL0     C53353   7.763   0.635   9.302  0.1602 -0.0257 -0.0403
  405MOL0     C53354   7.782   0.652   9.442  0.2467 -0.3774  0.3105
  405MOL0     C53355   7.672   0.675   9.524 -0.8856  0.4268 -0.4360
  405MOL0     C53356   7.542   0.661   9.467  0.0772  0.1049 -0.0549
  405MOL0     C53357   7.419   0.679   9.548 -0.0160  0.2106  0.8956
  405MOL0     O53358   7.306   0.665   9.476  0.0406  0.1346 -0.8476
  405MOL0     C53359   7.188   0.685   9.540  0.6137  0.2987  0.0088
  405MOL0     C53360   7.114   0.796   9.514  0.7044  0.4767  0.1730
  405MOL0     C53361   6.984   0.816   9.578 -0.4436  0.2039  0.6669
  405MOL0     C53362   6.930   0.715   9.658 -0.2354 -0.0229  0.0877
  405MOL0     O53363   6.808   0.745   9.709  0.7759  0.5284  0.4439
  405MOL0     C53364   6.768   0.673   9.826  0.1637 -0.1292  0.2971
  405MOL0     C53365   6.828   0.744   9.951 -0.2460  0.1139 -0.4036
  405MOL0     C53366   6.795   0.890   9.970 -0.1583 -0.0210  1.0163
  405MOL0     C53367   6.846   0.946  10.098 -0.6764  0.7376  0.0493
  405MOL0     C53368   6.776   1.057  10.154  0.2249 -0.3722 -0.0641
  405MOL0     C53369   6.791   1.193  10.094 -0.2983 -0.0031 -0.4203
  405MOL0     C53370   6.705   1.226   9.972  0.1333 -0.0844  0.8470
  405MOL0     C53371   6.694   1.379   9.936  0.1533  0.6460 -0.0389
  405MOL0    Cl53372   6.621   1.477  10.072 -0.6108 -0.1875 -0.4563
  405MOL0     C53373   7.000   0.597   9.673  0.5288 -0.3528  0.2851
  405MOL0     C53374   7.130   0.590   9.624  0.5827  0.1242 -0.1739
  405MOL0     O53375   7.433   0.681   9.672  0.2784  0.0166 -0.0187
  405MOL0     C53376   7.531   0.616   9.327 -0.4044 -0.2960 -0.2532
  405MOL0     C53377   7.645   0.610   9.244 -0.7286 -0.5185  0.7807
  405MOL0     N53378   8.185   0.165   9.074 -0.0411 -0.7364  0.3890
  405MOL0     N53379   8.275   0.079   9.092 -0.5080  0.4556  1.1260
  405MOL0     C53380   8.482   0.828   9.489  0.2625 -0.1950 -0.4730
  405MOL0     C53381   8.363   0.897   9.521 -0.3669 -0.2956 -0.9135
  405MOL0     C53382   7.940   0.968   9.616  0.7453 -0.6866  0.6664
  405MOL0     C53383   7.849   0.975   9.507  0.6040  0.2572 -0.2827
  405MOL0     C53384   7.712   1.019   9.522  0.1504  0.3474 -1.1070
  405MOL0     C53385   7.671   1.064   9.649  0.3434 -0.3490 -0.1946
  405MOL0     O53386   7.559   1.149   9.668 -1.1277  0.0642 -0.8694
  405MOL0     C53387   7.454   1.140   9.576  0.0184 -0.1304  1.0552
  405MOL0     C53388   7.328   1.204   9.641  0.1863  0.4474  0.2454
  405MOL0     C53389   7.257   1.107   9.739  0.4199 -0.4091 -0.3744
  405MOL0     C53390   7.121   1.151   9.783 -0.2952 -0.0418  0.1883
  405MOL0     C53391   7.127   1.254   9.888 -0.2688  0.6660 -0.4852
  405MOL0     C53392   7.130   1.335   9.977  0.2784 -0.7546  0.5407
  405MOL0     C53393   7.763   1.061   9.755 -0.3973 -0.6257  0.7548
  405MOL0     C53394   7.887   0.999   9.747 -0.8530 -0.3861  0.2294
  405MOL0     H53395   8.186   0.851   9.249  0.6058  1.2913  0.3290
  405MOL0     H53396   8.410   0.747   9.169 -2.5073 -1.4192  0.5452
  405MOL0     H53397   8.641   0.614   9.488  0.3648 -1.6198 -0.3133
  405MOL0     H53398   8.769   0.733   9.465  1.0991 -0.9925 -0.3738
  405MOL0     H53399   8.893   0.543   9.414  1.3455  2.1593 -1.2598
  405MOL0     H53400   8.851   0.608   9.265 -1.7169  3.7644  1.3424
  405MOL0     H53401   8.660   0.485   9.218  0.2414 -0.6542 -1.0938
  405MOL0     H53402   8.660   0.397   9.366 -1.4531  1.9245 -1.5635
  405MOL0     H53403   8.861   0.392   9.143 -0.0873  0.1276  0.2317
  405MOL0     H53404   8.895   0.308   9.296  3.4836  2.4492 -1.4078
  405MOL0     H53405   8.808   0.134   9.159  0.0597  0.3408  4.4490
  405MOL0     H53406   8.721   0.246   9.052  1.6419  0.8686  1.0435
  405MOL0     H53407   8.528   0.245   9.208  1.1374  1.6187  0.9204
  405MOL0     H53408   8.628   0.174   9.334 -0.5465  3.5858 -0.6766
  405MOL0     H53409   8.552   0.023   9.094 -0.6523 -0.3778  1.5421
  405MOL0     H53410   8.640  -0.031   9.240 -0.2808  0.4081  2.6014
  405MOL0     H53411   8.429   0.002   9.374  0.9292 -1.0629  0.6542
  405MOL0     H53412   8.416  -0.104   9.240  1.0747 -0.3106  3.0669
  405MOL0     H53413   8.251   0.206   9.387  1.0241  0.5044 -0.0457
  405MOL0     H53414   8.106   0.416   9.255  1.0126 -1.4906 -0.0825
  405MOL0     H53415   7.971   0.308   9.237 -1.1142  1.8593 -0.5406
  405MOL0     H53416   7.999   0.303   8.992 -1.4078 -0.1699 -0.9857
  405MOL0     H53417   8.091   0.465   8.995  1.8321  1.8796  4.5680
  405MOL0     H53418   7.842   0.465   8.960 -0.8563 -1.5267  0.8389
  405MOL0     H53419   7.823   0.417   9.117 -3.4027  4.1850 -1.0757
  405MOL0     H53420   7.813   0.654   9.036  0.3971  0.8826 -0.5000
  405MOL0     H53421   7.992   0.662   9.052  0.8737 -1.6762 -0.6810
  405MOL0     H53422   7.875   0.677   9.491 -0.5424 -0.9857  2.1826
  405MOL0     H53423   7.681   0.713   9.625 -4.4395  0.4724  0.0093
  405MOL0     H53424   7.170   0.872   9.461  0.4901  0.6378  0.1759
  405MOL0     H53425   6.942   0.913   9.554  1.0217  1.1651  1.7826
  405MOL0     H53426   6.786   0.566   9.829  0.3296 -0.1522  4.0873
  405MOL0     H53427   6.660   0.687   9.841  0.3014 -1.0488  2.6579
  405MOL0     H53428   6.936   0.726   9.958 -0.6533 -2.1769  2.2570
  405MOL0     H53429   6.798   0.693  10.044 -1.1019  0.9491 -0.2093
  405MOL0     H53430   6.686   0.899   9.965 -0.1056  0.0628 -0.5482
  405MOL0     H53431   6.837   0.950   9.890  0.9955  1.6001  2.7604
  405MOL0     H53432   6.843   0.863  10.170 -0.7318  0.0632 -0.7054
  405MOL0     H53433   6.952   0.966  10.076 -0.9312  0.8005 -1.2513
  405MOL0     H53434   6.802   1.060  10.261  0.9742 -0.2962 -0.2432
  405MOL0     H53435   6.669   1.034  10.155 -0.2476  1.6470 -0.2467
  405MOL0     H53436   6.896   1.205  10.064 -0.6870 -0.4931 -2.0926
  405MOL0     H53437   6.769   1.266  10.172  0.9665  0.9596 -0.9236
  405MOL0     H53438   6.749   1.176   9.885  3.1903  1.5835  1.3144
  405MOL0     H53439   6.602   1.188   9.979  0.0400  0.2652  1.3573
  405MOL0     H53440   6.641   1.393   9.841 -0.7854  0.5592  0.4633
  405MOL0     H53441   6.798   1.410   9.918 -0.2142  0.5296 -2.8857
  405MOL0     H53442   6.960   0.525   9.744  0.0457 -0.3755 -0.0018
  405MOL0     H53443   7.166   0.490   9.645 -0.1209  0.0471  0.7718
  405MOL0     H53444   7.434   0.580   9.294  0.4237 -1.6647 -1.3089
  405MOL0     H53445   7.619   0.591   9.140 -1.0819 -0.8765  0.9316
  405MOL0     H53446   8.560   0.836   9.564 -0.8787  0.6123  0.6663
  405MOL0     H53447   8.351   0.968   9.603 -0.4693  0.5861 -1.6824
  405MOL0     H53448   7.884   0.953   9.406 -0.1629 -0.8591 -0.3234
  405MOL0     H53449   7.647   1.021   9.435  1.0610 -2.3134 -1.9313
  405MOL0     H53450   7.429   1.040   9.538 -3.6184  1.1134 -0.2585
  405MOL0     H53451   7.479   1.193   9.484 -2.5431 -0.4455  0.0820
  405MOL0     H53452   7.354   1.298   9.689 -1.0214 -0.4691  2.8649
  405MOL0     H53453   7.252   1.228   9.566  0.2514  0.3625  0.1521
  405MOL0     H53454   7.311   1.095   9.834 -0.2082  2.0045  0.3412
  405MOL0     H53455   7.260   1.014   9.682  0.7620 -1.1000  0.7254
  405MOL0     H53456   7.067   1.180   9.692  1.7152 -2.0177 -1.7423
  405MOL0     H53457   7.070   1.063   9.823  1.8709 -0.7197  1.6201
  405MOL0     H53458   7.119   1.425  10.035  1.8221  0.5745 -1.0844
  405MOL0     H53459   7.734   1.111   9.846  1.3407 -0.0694  1.0350
  405MOL0     H53460   7.954   0.997   9.833  0.9823  0.9316 -1.0815
  406MOL0     O53461   5.267   7.584   4.685 -0.6284 -0.8886 -0.8380
  406MOL0     C53462   5.303   7.658   4.777  0.1760 -0.5712 -0.2785
  406MOL0     O53463   5.247   7.661   4.902 -0.1487  0.2190 -0.7392
  406MOL0     C53464   5.141   7.584   4.934  0.5034 -0.4914 -0.0836
  406MOL0     C53465   5.004   7.623   4.935  0.2124 -0.7977  1.1033
  406MOL0     C53466   4.903   7.530   4.962 -0.6824 -0.0911 -0.0487
  406MOL0     C53467   4.927   7.399   5.005  0.7957  0.0678 -0.4061
  406MOL0     O53468   4.830   7.317   5.055  0.4603  0.2424  0.0432
  406MOL0     C53469   4.731   7.285   4.956  1.0776 -0.3522  0.1823
  406MOL0     C53470   4.736   7.133   4.933 -0.3938 -0.0625  0.2826
  406MOL0     C53471   4.715   7.048   5.056 -0.5433  0.1480  0.0028
  406MOL0     C53472   4.597   7.100   5.141 -0.3231  1.2435  0.5826
  406MOL0     C53473   4.529   6.971   5.205  0.5825 -0.6956 -0.1753
  406MOL0     C53474   4.408   7.003   5.288  0.2777  0.0245  0.9019
  406MOL0     C53475   4.304   6.888   5.315 -0.0748  0.2985  0.3519
  406MOL0     C53476   4.323   6.808   5.442 -1.1963 -1.2838  0.4512
  406MOL0     N53477   4.450   6.734   5.439 -0.0184  0.1061 -0.3702
  406MOL0     C53478   4.564   6.781   5.506 -0.0745  0.2968  0.5583
  406MOL0     C53479   4.655   6.695   5.452 -0.1202  0.5818 -0.6423
  406MOL0     C53480   4.804   6.703   5.490  0.5453 -1.2911 -0.1010
  406MOL0     C53481   4.881   6.737   5.364 -0.1058 -0.1403  0.0592
  406MOL0     C53482   4.930   6.878   5.350  0.5515 -0.6152 -0.1496
  406MOL0     C53483   5.045   6.898   5.451  0.4494  0.0724 -0.0904
  406MOL0     O53484   5.096   7.030   5.421 -0.3098 -0.1571 -0.8964
  406MOL0     C53485   5.186   7.040   5.309  0.1963  0.4890 -0.5290
  406MOL0     C53486   5.257   6.929   5.259  0.1366  0.5978  0.0804
  406MOL0     C53487   5.348   6.950   5.157  0.4628  0.4330  0.6269
  406MOL0     C53488   5.396   7.082   5.115 -0.4737 -0.2949  0.4147
  406MOL0     C53489   5.504   7.111   5.009 -0.0408 -0.0244 -0.3822
  406MOL0     O53490   5.503   7.236   4.956 -0.0859  0.1760 -0.1548
  406MOL0     C53491   5.600   7.294   4.879 -0.8166 -0.0351  0.5556
  406MOL0     C53492   5.718   7.237   4.839  1.0233 -0.1951  0.1640
  406MOL0     C53493   5.814   7.306   4.757  0.7590  0.4044  0.0954
  406MOL0     C53494   5.785   7.438   4.716 -0.5189 -0.0219  0.5330
  406MOL0     O53495   5.854   7.518   4.627 -0.3954 -0.0781 -0.3114
  406MOL0     C53496   5.966   7.469   4.553  0.2163 -0.7898  0.3776
  406MOL0     C53497   6.048   7.602   4.538 -0.4558  0.8449 -0.7166
  406MOL0     C53498   6.172   7.565   4.454  0.6928 -0.2377 -0.5159
  406MOL0     C53499   6.253   7.688   4.426 -0.2045 -0.8921  0.7296
  406MOL0     C53500   6.365   7.666   4.327 -0.6504 -0.0818 -0.4371
  406MOL0     C53501   6.472   7.775   4.347 -0.4210 -0.3870 -0.1017
  406MOL0     C53502   6.561   7.790   4.224 -0.2278 -0.1296 -0.3062
  406MOL0     C53503   6.682   7.871   4.269  0.3292  0.0660  0.0510
  406MOL0    Cl53504   6.750   7.952   4.130  0.5582 -0.6784  0.3354
  406MOL0     C53505   5.671   7.496   4.768 -0.6284  0.1106  1.4026
  406MOL0     C53506   5.580   7.428   4.843  0.3697 -0.2244  0.3336
  406MOL0     O53507   5.582   7.021   4.986 -0.7435  0.4931 -0.3653
  406MOL0     C53508   5.320   7.190   5.167  0.4398  0.0545 -1.0921
  406MOL0     C53509   5.213   7.163   5.255 -0.0339 -0.3636 -0.0434
  406MOL0     N53510   4.600   6.592   5.373 -0.7721 -0.4750  1.1251
  406MOL0     N53511   4.477   6.624   5.361  0.5492  0.7012 -0.5910
  406MOL0     C53512   5.064   7.362   5.010 -0.4603 -1.0375 -0.0631
  406MOL0     C53513   5.164   7.454   4.972 -0.5255  0.4153  0.1598
  406MOL0     C53514   5.408   7.760   4.749 -0.7179 -0.1576 -0.2994
  406MOL0     C53515   5.456   7.851   4.839  0.6739 -0.0915  0.6775
  406MOL0     C53516   5.565   7.932   4.812 -1.1882  0.1767  1.2031
  406MOL0     C53517   5.634   7.924   4.691  0.5456  0.5129  0.1511
  406MOL0     O53518   5.747   7.989   4.675 -0.8169  0.0340  0.0171
  406MOL0     C53519   5.854   7.981   4.774  0.9948 -1.3100  0.3309
  406MOL0     C53520   5.990   7.961   4.715 -0.3506 -0.3822 -0.7350
  406MOL0     C53521   6.098   7.975   4.817 -0.7306 -0.4893 -0.2089
  406MOL0     C53522   6.102   7.869   4.923 -0.0619  0.4171 -0.4345
  406MOL0     C53523   6.232   7.859   4.977  0.0831 -0.0929  0.5776
  406MOL0     C53524   6.350   7.845   5.011  0.0721 -0.2965 -0.9242
  406MOL0     C53525   5.595   7.818   4.603 -0.0331 -0.8601 -0.4380
  406MOL0     C53526   5.484   7.742   4.635  0.0755  0.2675 -0.2213
  406MOL0     H53527   4.985   7.722   4.896 -1.0354 -1.4193  0.0856
  406MOL0     H53528   4.801   7.565   4.949 -0.4802  0.5111 -0.0635
  406MOL0     H53529   4.759   7.339   4.866 -0.0555  0.6302  0.3886
  406MOL0     H53530   4.630   7.317   4.986  1.6399  2.5960 -0.7091
  406MOL0     H53531   4.835   7.105   4.895  0.5801  2.6022  0.6412
  406MOL0     H53532   4.661   7.116   4.855  1.4611 -1.4432 -1.2946
  406MOL0     H53533   4.805   7.046   5.119 -1.1921 -4.0038  1.1060
  406MOL0     H53534   4.703   6.948   5.014 -0.0020  0.9184 -2.0846
  406MOL0     H53535   4.621   7.182   5.209  0.2561 -0.1329  2.1108
  406MOL0     H53536   4.522   7.142   5.074 -0.1025 -0.3565 -0.7399
  406MOL0     H53537   4.602   6.920   5.268  1.3250 -1.6284 -1.7365
  406MOL0     H53538   4.502   6.897   5.129  1.4916 -1.2418  0.0214
  406MOL0     H53539   4.345   7.079   5.239 -0.8624 -0.7071  1.1786
  406MOL0     H53540   4.423   7.051   5.385 -2.8026 -1.2930  2.1698
  406MOL0     H53541   4.207   6.938   5.320 -0.0449  0.3806  0.1331
  406MOL0     H53542   4.313   6.821   5.229  0.0758 -0.0793  0.6591
  406MOL0     H53543   4.241   6.735   5.441 -2.0798 -0.3271  1.1820
  406MOL0     H53544   4.323   6.876   5.527 -1.5648  0.5225 -0.9546
  406MOL0     H53545   4.578   6.864   5.574  1.4754 -1.9978  3.2508
  406MOL0     H53546   4.843   6.607   5.525  2.6232 -0.2671  0.5741
  406MOL0     H53547   4.822   6.778   5.568  2.0345  0.0899 -1.6876
  406MOL0     H53548   4.813   6.716   5.281 -2.6861  0.5186  1.8893
  406MOL0     H53549   4.974   6.680   5.356 -0.8018 -1.2615 -0.2383
  406MOL0     H53550   4.974   6.889   5.250  0.8621 -0.9881 -0.0544
  406MOL0     H53551   4.849   6.949   5.368  1.0484 -0.2406  0.6665
  406MOL0     H53552   5.125   6.823   5.459  2.1203  1.6536 -1.0354
  406MOL0     H53553   5.004   6.898   5.552  1.8099 -0.3357  0.4927
  406MOL0     H53554   5.229   6.828   5.288 -0.4944  0.5209 -0.7557
  406MOL0     H53555   5.391   6.860   5.114 -1.3229  1.0632 -2.9155
  406MOL0     H53556   5.740   7.131   4.854 -0.1856 -0.0763  3.6692
  406MOL0     H53557   5.904   7.250   4.735  0.4481 -0.8215  1.7375
  406MOL0     H53558   5.947   7.411   4.462  3.5190  0.2567 -1.1176
  406MOL0     H53559   6.023   7.395   4.611 -1.6902 -1.4587  1.5322
  406MOL0     H53560   6.091   7.645   4.629  1.2519 -1.7141 -0.1947
  406MOL0     H53561   5.994   7.676   4.479 -1.3342  1.6446  1.0328
  406MOL0     H53562   6.144   7.539   4.351 -0.1139  0.8156 -0.5800
  406MOL0     H53563   6.224   7.479   4.498  1.3369  0.8540  0.9348
  406MOL0     H53564   6.185   7.762   4.384 -0.8121 -0.8216  1.8047
  406MOL0     H53565   6.286   7.741   4.516 -0.0357 -0.1006  0.2112
  406MOL0     H53566   6.327   7.669   4.225  1.6119 -1.4050 -1.3944
  406MOL0     H53567   6.412   7.567   4.333  0.3584  0.3973 -0.0760
  406MOL0     H53568   6.535   7.749   4.433  1.1459  1.8858 -0.4654
  406MOL0     H53569   6.421   7.868   4.372  1.0811  0.0336  1.6768
  406MOL0     H53570   6.595   7.691   4.192 -1.0979 -0.2995 -0.7490
  406MOL0     H53571   6.513   7.835   4.136  0.8826  2.9057  0.5004
  406MOL0     H53572   6.750   7.799   4.316 -1.5768 -1.2118  0.9770
  406MOL0     H53573   6.655   7.932   4.357  0.3461 -0.4071  0.3881
  406MOL0     H53574   5.662   7.603   4.753  0.4367 -0.0855 -1.1541
  406MOL0     H53575   5.488   7.473   4.877 -0.0099  0.4237 -1.4315
  406MOL0     H53576   5.345   7.295   5.161  1.1417 -0.0585 -0.3239
  406MOL0     H53577   5.163   7.249   5.298  4.5702  3.0321 -0.7053
  406MOL0     H53578   5.096   7.267   5.050 -0.3975 -0.2683  1.8358
  406MOL0     H53579   5.270   7.428   4.975 -0.8080 -0.9155 -0.7415
  406MOL0     H53580   5.407   7.854   4.937  0.2447 -0.2732  0.4711
  406MOL0     H53581   5.600   8.004   4.885 -1.6087  1.5906  0.0485
  406MOL0     H53582   5.825   7.904   4.846 -2.1137  0.8858  1.6658
  406MOL0     H53583   5.854   8.078   4.824  2.1078 -1.8748  1.4602
  406MOL0     H53584   5.998   7.859   4.677 -0.5591  0.2177 -2.5136
  406MOL0     H53585   6.008   8.038   4.639 -0.1574  1.4342  1.0739
  406MOL0     H53586   6.103   8.075   4.859  0.5450 -0.9142  0.7200
  406MOL0     H53587   6.194   7.968   4.764 -0.9196  1.5444 -0.9118
  406MOL0     H53588   6.027   7.887   5.000  2.6507  0.5794  2.3613
  406MOL0     H53589   6.077   7.771   4.881  0.3157 -2.2420  4.7562
  406MOL0     H53590   6.450   7.843   5.049 -0.3453 -0.0617  0.2533
  406MOL0     H53591   5.642   7.794   4.508  2.7818  0.5309  0.4758
  406MOL0     H53592   5.460   7.665   4.562  0.0592 -0.1789  0.2500
  407MOL0     O53593   0.360   8.324   0.376 -0.2335 -0.1688  0.0159
  407MOL0     C53594   0.419   8.245   0.441 -0.3486 -0.1665 -0.5462
  407MOL0     O53595   0.557   8.242   0.441  0.4351 -0.0704 -0.2601
  407MOL0     C53596   0.629   8.329   0.370 -0.7616 -0.0159 -0.8384
  407MOL0     C53597   0.604   8.376   0.241 -0.1852 -0.2616  0.2139
  407MOL0     C53598   0.709   8.446   0.171 -0.2932  0.8588 -0.3516
  407MOL0     C53599   0.842   8.458   0.221  0.3329  0.6831  0.0193
  407MOL0     O53600   0.926   8.527   0.142 -0.9585 -0.2428 -0.0573
  407MOL0     C53601   1.051   8.556   0.219  0.4357  0.2269  0.6395
  407MOL0     C53602   1.152   8.651   0.140  0.1027  0.2461 -0.0807
  407MOL0     C53603   1.280   8.669   0.215  0.5822 -0.9666  0.0209
  407MOL0     C53604   1.379   8.763   0.147 -0.1948 -0.3387  0.2291
  407MOL0     C53605   1.518   8.795   0.232 -0.0515  0.1889  0.6634
  407MOL0     C53606   1.484   8.873   0.364 -0.3015  0.7602  0.4690
  407MOL0     C53607   1.608   8.902   0.456 -0.7719 -0.5248 -0.2964
  407MOL0     C53608   1.653   8.776   0.528 -0.0578 -0.1274 -0.0713
  407MOL0     N53609   1.546   8.718   0.611 -0.4539 -0.4148 -0.0217
  407MOL0     C53610   1.480   8.603   0.584 -0.2635  0.4133  0.2638
  407MOL0     C53611   1.377   8.604   0.680 -0.0587  0.3070 -0.1214
  407MOL0     C53612   1.257   8.514   0.666 -0.5180 -0.1363  0.1991
  407MOL0     C53613   1.120   8.590   0.702  0.5199  0.0806  0.1982
  407MOL0     C53614   1.016   8.475   0.698 -0.3061 -0.1046 -0.3800
  407MOL0     C53615   0.871   8.530   0.711 -0.6147 -0.0330  0.2653
  407MOL0     O53616   0.787   8.424   0.759  0.6798 -0.1575  1.1563
  407MOL0     C53617   0.652   8.445   0.781  1.2154  0.2808  0.2399
  407MOL0     C53618   0.603   8.568   0.817 -0.0202  0.9441  0.5110
  407MOL0     C53619   0.474   8.584   0.857  0.0810  0.1316  0.0646
  407MOL0     C53620   0.381   8.473   0.855 -0.0220 -0.3919 -0.4423
  407MOL0     C53621   0.240   8.482   0.899  0.0119 -0.0705 -0.7096
  407MOL0     O53622   0.154   8.389   0.847  0.5427  0.0475 -0.5609
  407MOL0     C53623   0.019   8.410   0.861 -0.6626  0.1006  0.3207
  407MOL0     C53624  -0.045   8.441   0.980  1.3384 -0.4197  0.7212
  407MOL0     C53625  -0.189   8.445   0.984  0.6735 -1.0791 -0.3640
  407MOL0     C53626  -0.262   8.412   0.872 -0.6421  0.7824 -0.0520
  407MOL0     O53627  -0.397   8.396   0.882  0.9425 -0.8797 -0.4835
  407MOL0     C53628  -0.482   8.409   0.767  0.8438 -0.2367  0.0205
  407MOL0     C53629  -0.620   8.437   0.840  0.5336 -0.4596 -0.1188
  407MOL0     C53630  -0.700   8.319   0.886  0.1764  1.1484 -0.4926
  407MOL0     C53631  -0.825   8.378   0.954 -0.6296 -0.0864  0.0839
  407MOL0     C53632  -0.916   8.260   1.000  0.3412 -0.2924  0.2980
  407MOL0     C53633  -1.046   8.310   1.064  0.2004 -0.2430  0.0436
  407MOL0     C53634  -1.138   8.189   1.090 -0.1791  0.6742  1.0531
  407MOL0     C53635  -1.264   8.212   1.169 -0.3236 -0.4754 -0.3676
  407MOL0    Cl53636  -1.365   8.060   1.162 -0.2667 -0.5542  0.2598
  407MOL0     C53637  -0.192   8.392   0.752  0.1933 -0.1703  0.2020
  407MOL0     C53638  -0.057   8.379   0.746 -0.5225 -0.0770 -0.3129
  407MOL0     O53639   0.215   8.591   0.945  0.7347  0.0443  0.6000
  407MOL0     C53640   0.432   8.348   0.812  0.0606 -0.6259 -0.1626
  407MOL0     C53641   0.569   8.334   0.778  0.2866 -0.3591 -0.1863
  407MOL0     N53642   1.401   8.702   0.767 -0.0301 -0.8337 -0.2409
  407MOL0     N53643   1.498   8.771   0.725 -0.2145  1.2496 -0.0168
  407MOL0     C53644   0.866   8.398   0.347 -0.2865 -0.6040 -0.6044
  407MOL0     C53645   0.758   8.343   0.418  0.0866  0.3113  0.6190
  407MOL0     C53646   0.342   8.144   0.518 -0.1029 -1.0965 -0.4628
  407MOL0     C53647   0.396   8.018   0.549  0.0039 -0.2408 -0.6201
  407MOL0     C53648   0.324   7.911   0.600  0.2058 -1.0373  0.1678
  407MOL0     C53649   0.196   7.925   0.639  0.1512  0.0268  0.3947
  407MOL0     O53650   0.119   7.838   0.712  0.2091 -0.1670 -0.2474
  407MOL0     C53651   0.174   7.712   0.749 -0.7462 -0.3678 -0.0079
  407MOL0     C53652   0.060   7.626   0.814  0.2086 -0.2949  0.4982
  407MOL0     C53653   0.001   7.694   0.940 -0.2875 -0.1255  0.3335
  407MOL0     C53654  -0.097   7.603   1.010  0.3265  0.0152 -0.4311
  407MOL0     C53655  -0.227   7.608   0.947  0.4418 -0.1908 -0.6454
  407MOL0     C53656  -0.344   7.628   0.915 -0.0334  0.5122  0.0758
  407MOL0     C53657   0.126   8.041   0.608  0.8348  0.2962  0.7867
  407MOL0     C53658   0.200   8.151   0.548 -0.2552  0.6031 -0.3291
  407MOL0     H53659   0.514   8.358   0.183  0.4583  2.5850 -1.8876
  407MOL0     H53660   0.681   8.490   0.076 -2.4360 -2.1926 -1.2670
  407MOL0     H53661   1.093   8.461   0.253 -4.2912 -1.5439  2.3707
  407MOL0     H53662   1.013   8.609   0.307 -1.2398 -2.4841  1.6837
  407MOL0     H53663   1.120   8.755   0.140  1.6004  0.7625  1.9948
  407MOL0     H53664   1.160   8.607   0.040 -2.0849 -1.7352  0.5311
  407MOL0     H53665   1.325   8.570   0.222  0.4719 -1.3802 -3.3428
  407MOL0     H53666   1.268   8.703   0.318  0.6294  1.0911 -0.6168
  407MOL0     H53667   1.419   8.712   0.059  0.3859  0.1137  0.2268
  407MOL0     H53668   1.335   8.855   0.107  0.2644  0.1874  0.9053
  407MOL0     H53669   1.593   8.855   0.180  2.1792 -1.6005  1.6465
  407MOL0     H53670   1.556   8.695   0.251  0.2973 -0.2562 -2.0571
  407MOL0     H53671   1.405   8.815   0.413  1.3175 -2.7563 -0.7776
  407MOL0     H53672   1.441   8.967   0.329 -1.0457  0.1351 -0.3229
  407MOL0     H53673   1.685   8.943   0.390 -0.3416 -0.8250  0.0206
  407MOL0     H53674   1.582   8.978   0.529 -2.7176  1.1647 -2.5872
  407MOL0     H53675   1.726   8.802   0.606 -0.1248 -3.6652  1.3592
  407MOL0     H53676   1.691   8.707   0.453  0.9358  1.5355 -1.1752
  407MOL0     H53677   1.491   8.530   0.504 -1.0136 -0.9626  1.3753
  407MOL0     H53678   1.273   8.433   0.737 -2.1622  0.2583  1.0754
  407MOL0     H53679   1.250   8.471   0.565  2.8737 -0.8884  0.1724
  407MOL0     H53680   1.088   8.676   0.641  1.0498  0.2380  0.1349
  407MOL0     H53681   1.114   8.626   0.805 -1.9608  0.0371  0.1203
  407MOL0     H53682   1.012   8.417   0.606  1.8695  2.0053 -1.9215
  407MOL0     H53683   1.050   8.402   0.773 -0.5731 -0.8290 -0.9499
  407MOL0     H53684   0.840   8.568   0.613  0.0527 -3.4716 -1.4355
  407MOL0     H53685   0.862   8.601   0.794 -1.5632  0.2310 -0.0419
  407MOL0     H53686   0.670   8.653   0.827  0.1248  1.2073 -2.1060
  407MOL0     H53687   0.444   8.680   0.899  1.9142  0.0585  1.6560
  407MOL0     H53688   0.008   8.476   1.068 -0.6110  1.6178  1.1559
  407MOL0     H53689  -0.242   8.469   1.076  0.9845  1.7255 -0.8410
  407MOL0     H53690  -0.483   8.316   0.708  1.2696  0.3823 -0.9874
  407MOL0     H53691  -0.452   8.491   0.702  1.7806  1.4926  2.4699
  407MOL0     H53692  -0.685   8.492   0.772  1.8521 -0.2880 -1.2879
  407MOL0     H53693  -0.597   8.501   0.927 -0.2756 -0.0856 -0.1679
  407MOL0     H53694  -0.637   8.252   0.945 -0.8105  0.9882  0.4152
  407MOL0     H53695  -0.745   8.264   0.802 -1.2309 -0.1096  1.0070
  407MOL0     H53696  -0.791   8.440   1.038  1.1691 -0.8779 -0.0205
  407MOL0     H53697  -0.883   8.438   0.883  0.7010  0.5417 -0.5181
  407MOL0     H53698  -0.865   8.192   1.070  1.9608 -0.6821 -1.2019
  407MOL0     H53699  -0.941   8.197   0.914 -3.7840  0.6290  0.5766
  407MOL0     H53700  -1.097   8.389   1.008  1.4078  1.8168  1.7013
  407MOL0     H53701  -1.028   8.354   1.162  1.5131 -0.5850 -0.0294
  407MOL0     H53702  -1.162   8.147   0.992 -0.1507 -4.5378  2.9598
  407MOL0     H53703  -1.084   8.116   1.151  0.6413  0.0982 -0.3234
  407MOL0     H53704  -1.316   8.299   1.129 -0.4285 -0.4245 -0.1234
  407MOL0     H53705  -1.230   8.237   1.270  3.1726  0.0459 -1.5372
  407MOL0     H53706  -0.253   8.378   0.663 -2.7076  1.6571  1.7801
  407MOL0     H53707  -0.009   8.357   0.652  0.1313  2.9126 -0.7646
  407MOL0     H53708   0.378   8.254   0.811 -2.1640  0.5252  1.6332
  407MOL0     H53709   0.609   8.236   0.753  1.3921  0.6434 -2.7261
  407MOL0     H53710   0.954   8.377   0.408  0.1507 -0.1836 -1.0819
  407MOL0     H53711   0.769   8.300   0.517 -0.7851 -1.4921 -0.0213
  407MOL0     H53712   0.499   7.990   0.531  0.3401 -0.3341  1.2033
  407MOL0     H53713   0.382   7.820   0.607  1.4346 -0.5669 -2.7054
  407MOL0     H53714   0.245   7.732   0.829 -0.2910 -2.1822  0.0871
  407MOL0     H53715   0.218   7.662   0.662  1.2022  2.1183 -0.5501
  407MOL0     H53716  -0.012   7.609   0.733 -0.8947  0.3203  1.3099
  407MOL0     H53717   0.108   7.535   0.850  2.9765  1.1117  0.6182
  407MOL0     H53718  -0.042   7.792   0.918 -1.4811 -1.0610 -1.7763
  407MOL0     H53719   0.075   7.717   1.017 -1.9461  2.3882  1.3201
  407MOL0     H53720  -0.048   7.507   1.024  2.3407  1.3249  2.4462
  407MOL0     H53721  -0.113   7.630   1.115  1.4862 -1.6097  0.1906
  407MOL0     H53722  -0.449   7.640   0.897  0.0824  0.2811 -0.8037
  407MOL0     H53723   0.022   8.050   0.639  0.6223 -0.3004  0.2804
  407MOL0     H53724   0.148   8.243   0.524 -0.8988  1.0541  2.4338
  408MOL0     O53725   0.302  11.246   6.484 -0.6941  0.7375 -0.3871
  408MOL0     C53726   0.377  11.180   6.556  0.8742  0.2191  0.2933
  408MOL0     O53727   0.332  11.096   6.659  0.6433 -0.6995  0.0405
  408MOL0     C53728   0.215  11.122   6.722  0.5754  0.0437  0.6127
  408MOL0     C53729   0.155  11.006   6.768  0.7607  0.1729 -1.2476
  408MOL0     C53730   0.034  11.010   6.837  0.8387  0.1133 -0.0488
  408MOL0     C53731  -0.040  11.125   6.859  0.2426  1.1279 -0.5503
  408MOL0     O53732  -0.165  11.105   6.928 -0.0496  0.0252  0.3609
  408MOL0     C53733  -0.274  11.206   6.917 -0.0734  0.5997 -0.0307
  408MOL0     C53734  -0.410  11.152   6.975 -0.1076  0.2143 -0.4326
  408MOL0     C53735  -0.522  11.263   6.982 -0.2218 -0.6599 -1.0650
  408MOL0     C53736  -0.652  11.200   7.052 -0.9517 -0.5330 -0.8023
  408MOL0     C53737  -0.730  11.092   6.967 -1.0850  0.2204 -0.5031
  408MOL0     C53738  -0.818  11.140   6.856  0.1575 -0.8522  0.3148
  408MOL0     C53739  -0.914  11.029   6.810 -0.6307  0.5395 -1.3192
  408MOL0     C53740  -1.032  11.006   6.909  1.1632  0.4281 -1.3813
  408MOL0     N53741  -1.137  11.118   6.923  0.5763  0.3245 -0.1345
  408MOL0     C53742  -1.176  11.186   6.810  0.5846 -0.2895  0.1465
  408MOL0     C53743  -1.254  11.281   6.870  0.2889 -0.0435  0.3620
  408MOL0     C53744  -1.329  11.384   6.794 -0.3039 -0.6386 -0.2683
  408MOL0     C53745  -1.297  11.528   6.839 -0.2651 -1.2156  0.4148
  408MOL0     C53746  -1.425  11.618   6.827  0.0765  0.2676 -0.0091
  408MOL0     C53747  -1.411  11.764   6.835  1.3526  0.1358 -0.3650
  408MOL0     O53748  -1.547  11.824   6.838  0.1250 -0.4615 -0.6463
  408MOL0     C53749  -1.609  11.832   6.960 -0.3427 -0.2124  0.7312
  408MOL0     C53750  -1.559  11.790   7.087 -0.4692  0.1114 -0.1104
  408MOL0     C53751  -1.643  11.788   7.198  0.4962  0.0590 -0.0705
  408MOL0     C53752  -1.775  11.832   7.186  0.5142 -0.0883 -0.6730
  408MOL0     C53753  -1.868  11.819   7.296 -0.6830 -0.2076  0.6680
  408MOL0     O53754  -1.990  11.877   7.290  0.5406  0.2167  0.1800
  408MOL0     C53755  -2.074  11.839   7.401 -0.8676 -0.7736 -0.1141
  408MOL0     C53756  -2.126  11.946   7.478 -0.2236  0.5453  0.8916
  408MOL0     C53757  -2.207  11.918   7.587 -0.1619  0.4743 -0.2763
  408MOL0     C53758  -2.242  11.786   7.616  0.0465 -0.2379 -0.1238
  408MOL0     O53759  -2.339  11.770   7.719 -0.2781  0.4195 -0.4387
  408MOL0     C53760  -2.452  11.691   7.677  0.0164 -0.2612  0.3404
  408MOL0     C53761  -2.518  11.645   7.806  0.7009 -0.7009 -0.0005
  408MOL0     C53762  -2.660  11.692   7.822  0.3375  0.4608  1.2193
  408MOL0     C53763  -2.742  11.622   7.926 -0.2960  0.5197  0.6201
  408MOL0     C53764  -2.863  11.702   7.972  0.1364 -1.2566 -0.6709
  408MOL0     C53765  -2.972  11.619   8.032 -0.0702 -0.0120  0.1426
  408MOL0     C53766  -3.089  11.687   8.088 -0.0146  0.1568  0.2470
  408MOL0     C53767  -3.201  11.597   8.126  0.1102 -0.3669 -0.0598
  408MOL0    Cl53768  -3.316  11.689   8.213 -0.2114  0.1516  0.0175
  408MOL0     C53769  -2.183  11.679   7.553 -0.5135  0.4334  0.2442
  408MOL0     C53770  -2.096  11.710   7.446 -0.2665  0.3078  0.2430
  408MOL0     O53771  -1.819  11.773   7.400 -0.0774 -0.4634 -0.3696
  408MOL0     C53772  -1.820  11.893   7.068 -0.0483  0.2807  0.9892
  408MOL0     C53773  -1.733  11.882   6.958  0.3286 -0.0507 -0.4921
  408MOL0     N53774  -1.254  11.274   7.009  0.3820 -0.7117  0.1756
  408MOL0     N53775  -1.186  11.171   7.036  0.1651 -0.1742 -0.6441
  408MOL0     C53776   0.019  11.245   6.818  0.3150  0.0428 -0.1989
  408MOL0     C53777   0.141  11.240   6.747  0.4327 -0.3118  0.7481
  408MOL0     C53778   0.515  11.169   6.515  0.0008  0.4186  0.3435
  408MOL0     C53779   0.574  11.239   6.408 -0.2028 -0.8247  0.4086
  408MOL0     C53780   0.711  11.237   6.387  1.1813  0.8063 -0.4078
  408MOL0     C53781   0.790  11.167   6.479  0.5823 -0.5463 -0.6174
  408MOL0     O53782   0.926  11.177   6.481  0.0565 -0.1231  0.2455
  408MOL0     C53783   1.003  11.189   6.364 -0.1530  0.6193  0.3120
  408MOL0     C53784   1.149  11.154   6.392  0.3609  0.0545  0.0836
  408MOL0     C53785   1.212  11.098   6.258 -0.2387  0.0997 -1.2153
  408MOL0     C53786   1.368  11.099   6.277 -0.1398 -0.0324 -0.9365
  408MOL0     C53787   1.450  11.023   6.177 -0.0563 -0.5696 -0.6366
  408MOL0     C53788   1.518  10.968   6.089 -0.0596  0.3261 -0.2787
  408MOL0     C53789   0.731  11.110   6.592  0.4693 -1.2741  0.3376
  408MOL0     C53790   0.594  11.107   6.608 -0.2727 -0.6279 -0.6217
  408MOL0     H53791   0.210  10.912   6.763  1.7071  0.6664 -0.5170
  408MOL0     H53792  -0.004  10.914   6.872 -1.5230  1.3047  0.8019
  408MOL0     H53793  -0.287  11.240   6.814 -0.7459  0.1672 -0.0943
  408MOL0     H53794  -0.237  11.293   6.972  0.8174 -0.3896  0.9952
  408MOL0     H53795  -0.407  11.120   7.079  4.2588  0.5591 -0.2582
  408MOL0     H53796  -0.432  11.064   6.914  0.1668 -0.0873 -0.0999
  408MOL0     H53797  -0.541  11.297   6.880 -0.1678  2.5738 -0.1076
  408MOL0     H53798  -0.492  11.348   7.043  1.1301 -2.0184  0.2540
  408MOL0     H53799  -0.630  11.165   7.153 -0.1392 -0.7173 -1.0354
  408MOL0     H53800  -0.718  11.285   7.071  0.2711  0.0955  1.0097
  408MOL0     H53801  -0.795  11.049   7.043 -0.5666  2.1710  1.1175
  408MOL0     H53802  -0.663  11.014   6.930  2.0892  3.0699 -1.3084
  408MOL0     H53803  -0.749  11.177   6.780  2.1958 -2.1795  1.4326
  408MOL0     H53804  -0.880  11.226   6.883  0.1710  0.0104 -2.1255
  408MOL0     H53805  -0.957  11.036   6.710  0.2605  1.0021 -1.6895
  408MOL0     H53806  -0.855  10.938   6.825  0.5831  1.3258 -1.1153
  408MOL0     H53807  -0.987  10.982   7.005  1.2163  2.6392 -0.8007
  408MOL0     H53808  -1.089  10.922   6.869 -0.0528  0.5976 -0.0719
  408MOL0     H53809  -1.148  11.171   6.707  0.1326 -0.9837  0.1216
  408MOL0     H53810  -1.434  11.370   6.823  0.0136 -0.2199  1.1205
  408MOL0     H53811  -1.312  11.394   6.686  2.5634  2.6532  0.3316
  408MOL0     H53812  -1.221  11.581   6.780 -1.0279 -1.2011 -0.5724
  408MOL0     H53813  -1.272  11.524   6.945  0.4268 -0.1017  0.3133
  408MOL0     H53814  -1.468  11.601   6.728 -0.8130  1.9641  0.0654
  408MOL0     H53815  -1.494  11.584   6.905  0.7529  1.5295  1.1800
  408MOL0     H53816  -1.356  11.799   6.747  0.9882  1.4754 -0.0906
  408MOL0     H53817  -1.346  11.782   6.922  2.0071 -3.6963  0.1040
  408MOL0     H53818  -1.458  11.755   7.105  1.1407  3.4114 -1.7506
  408MOL0     H53819  -1.616  11.739   7.291 -0.6954 -0.2964  0.1046
  408MOL0     H53820  -2.097  12.046   7.445 -1.8353 -0.6012 -5.0991
  408MOL0     H53821  -2.249  11.990   7.657 -1.5612 -0.4450 -0.1435
  408MOL0     H53822  -2.422  11.598   7.627 -0.2142 -1.1005  1.7037
  408MOL0     H53823  -2.511  11.756   7.612  1.5929  0.7320 -0.1684
  408MOL0     H53824  -2.466  11.678   7.896 -2.1340  0.3444  1.3969
  408MOL0     H53825  -2.520  11.536   7.809 -1.0119 -0.7019  2.4930
  408MOL0     H53826  -2.717  11.684   7.729 -0.4506  2.5670  1.4857
  408MOL0     H53827  -2.654  11.797   7.853 -1.1615  0.7007  0.7612
  408MOL0     H53828  -2.762  11.521   7.890  0.7952 -1.2451  4.4576
  408MOL0     H53829  -2.687  11.591   8.015  1.4267  2.3537  0.2628
  408MOL0     H53830  -2.917  11.754   7.892 -0.0342  0.4655  0.5012
  408MOL0     H53831  -2.827  11.772   8.048  0.7179 -1.4833 -0.7318
  408MOL0     H53832  -2.929  11.562   8.116  0.4770  1.0728  0.6135
  408MOL0     H53833  -3.003  11.542   7.961 -2.7567 -1.2395  2.4252
  408MOL0     H53834  -3.060  11.745   8.176  0.5988 -0.3685  0.4014
  408MOL0     H53835  -3.120  11.762   8.015  0.4060  0.7019  0.6209
  408MOL0     H53836  -3.170  11.516   8.193 -3.0275 -0.6661  1.1816
  408MOL0     H53837  -3.245  11.553   8.036 -1.2413 -1.3191  1.0301
  408MOL0     H53838  -2.201  11.576   7.582  1.2962  0.5355  1.9488
  408MOL0     H53839  -2.054  11.626   7.392 -4.5517 -3.0703  1.5691
  408MOL0     H53840  -1.920  11.928   7.046  0.1368 -0.6728 -1.8188
  408MOL0     H53841  -1.766  11.906   6.857  1.0850 -2.7142 -1.4680
  408MOL0     H53842  -0.027  11.339   6.849  2.5064  0.5870  1.7420
  408MOL0     H53843   0.179  11.334   6.709 -1.2720 -0.3898 -1.4170
  408MOL0     H53844   0.506  11.299   6.348  1.2449 -1.1227 -1.6254
  408MOL0     H53845   0.750  11.306   6.314 -0.1285 -0.0951 -2.0261
  408MOL0     H53846   0.999  11.292   6.325  1.2002  0.3180 -0.7045
  408MOL0     H53847   0.957  11.119   6.293  1.3189 -2.3652  2.1415
  408MOL0     H53848   1.197  11.248   6.417 -1.3443  0.8512  0.5198
  408MOL0     H53849   1.158  11.080   6.473  2.3450  0.3647  0.1857
  408MOL0     H53850   1.174  11.165   6.181 -2.0970 -0.3612 -0.7668
  408MOL0     H53851   1.171  11.002   6.227 -2.2908  0.7922 -0.8266
  408MOL0     H53852   1.397  11.204   6.287 -0.9485  0.0022  2.2489
  408MOL0     H53853   1.390  11.047   6.371  0.1207 -0.6314 -1.3214
  408MOL0     H53854   1.578  10.914   6.019  1.3738 -0.9274  1.8092
  408MOL0     H53855   0.792  11.069   6.672  1.8829 -3.6392 -1.8253
  408MOL0     H53856   0.562  11.059   6.699  3.1605 -1.9865  0.0420
  409MOL0     O53857   1.766   7.922  10.266 -0.1508  0.0525  0.0019
  409MOL0     C53858   1.786   8.009  10.186 -0.2046 -0.5708  0.6580
  409MOL0     O53859   1.687   8.082  10.124 -0.1524  0.1583 -0.0992
  409MOL0     C53860   1.565   8.024  10.137  0.7665 -0.3626 -0.0935
  409MOL0     C53861   1.486   8.068  10.246  0.8737 -0.4677 -0.0417
  409MOL0     C53862   1.366   8.003  10.260 -0.1604  0.4011 -0.1095
  409MOL0     C53863   1.314   7.916  10.166 -1.3450 -0.9791 -0.0674
  409MOL0     O53864   1.197   7.846  10.171 -0.2987  0.1859 -0.5747
  409MOL0     C53865   1.130   7.847  10.295 -0.2947 -0.1374  0.6698
  409MOL0     C53866   0.997   7.765  10.269 -0.5507  0.6710 -0.3355
  409MOL0     C53867   0.941   7.712  10.400 -0.0790 -0.2630  0.4938
  409MOL0     C53868   0.793   7.674  10.386  0.2846  0.5088  0.5176
  409MOL0     C53869   0.711   7.656  10.511 -0.0919  0.4683 -0.5516
  409MOL0     C53870   0.562   7.643  10.471 -0.1413 -0.6806  0.1333
  409MOL0     C53871   0.480   7.619  10.592  0.1959  0.5866  0.5285
  409MOL0     C53872   0.447   7.734  10.694  0.9808  0.6858 -0.1192
  409MOL0     N53873   0.334   7.692  10.783  0.0227  0.1874 -0.0283
  409MOL0     C53874   0.308   7.567  10.831 -0.3770  0.0675  0.1541
  409MOL0     C53875   0.198   7.588  10.903 -0.6908  0.0319 -0.9362
  409MOL0     C53876   0.097   7.492  10.945  0.4153  0.2794 -0.1468
  409MOL0     C53877  -0.040   7.540  10.893 -0.2419 -0.4486  0.0923
  409MOL0     C53878  -0.157   7.441  10.916 -0.1154  1.2731 -0.2403
  409MOL0     C53879  -0.186   7.411  11.059  0.4522  0.1882 -0.4449
  409MOL0     O53880  -0.276   7.298  11.085 -0.2121  0.2659 -0.1457
  409MOL0     C53881  -0.410   7.307  11.061 -0.0126 -0.5170  0.3430
  409MOL0     C53882  -0.478   7.428  11.022 -0.8159 -0.3527 -0.3686
  409MOL0     C53883  -0.617   7.437  11.001 -0.5465  0.0100  0.0604
  409MOL0     C53884  -0.692   7.325  11.029 -0.0461  0.1191  0.2386
  409MOL0     C53885  -0.843   7.340  11.017 -0.4725 -1.1083  0.6876
  409MOL0     O53886  -0.913   7.229  11.031 -0.0088 -0.0943 -0.5237
  409MOL0     C53887  -1.047   7.240  11.044  1.1973 -0.0278  1.5883
  409MOL0     C53888  -1.133   7.258  10.933 -0.0546 -0.8329  1.8260
  409MOL0     C53889  -1.272   7.273  10.948 -0.3430  1.2778  0.9108
  409MOL0     C53890  -1.332   7.263  11.075  0.2052 -0.0505 -0.7296
  409MOL0     O53891  -1.468   7.272  11.065 -0.2695 -0.1764 -0.0974
  409MOL0     C53892  -1.540   7.286  11.188 -0.1817 -0.5373 -1.2454
  409MOL0     C53893  -1.585   7.161  11.256  0.2554  0.3371  0.3201
  409MOL0     C53894  -1.697   7.192  11.356  1.1139  1.0971 -0.8178
  409MOL0     C53895  -1.837   7.222  11.295  0.3245 -0.5264  0.4610
  409MOL0     C53896  -1.960   7.205  11.387  0.6079  0.6859 -1.0428
  409MOL0     C53897  -1.947   7.283  11.517 -0.3565  0.1149  0.1851
  409MOL0     C53898  -2.079   7.317  11.588  0.2479 -0.0374 -0.2017
  409MOL0     C53899  -2.153   7.199  11.650 -0.6658  0.4277 -0.9706
  409MOL0    Cl53900  -2.265   7.266  11.772 -0.2823  0.3049 -0.1626
  409MOL0     C53901  -1.250   7.247  11.191  0.2934 -0.2643 -0.2761
  409MOL0     C53902  -1.111   7.232  11.172  0.2690  0.1497  0.1895
  409MOL0     O53903  -0.887   7.451  10.978  0.2155  0.2098  0.4115
  409MOL0     C53904  -0.634   7.200  11.067 -0.2893 -0.8379 -0.2093
  409MOL0     C53905  -0.489   7.193  11.085 -1.2681 -0.9833  0.1430
  409MOL0     N53906   0.170   7.727  10.906 -0.2415  0.2925 -1.1668
  409MOL0     N53907   0.250   7.786  10.831 -0.1895  0.0670 -0.0175
  409MOL0     C53908   1.384   7.891  10.051  0.1035 -0.3322  0.4021
  409MOL0     C53909   1.512   7.931  10.039  0.1283  0.5345  0.8094
  409MOL0     C53910   1.932   8.041  10.140  0.2679  0.5363  1.3427
  409MOL0     C53911   1.962   8.150  10.051  0.2853 -0.1065 -0.3052
  409MOL0     C53912   2.090   8.168   9.995 -0.3032 -0.2185 -0.3228
  409MOL0     C53913   2.194   8.094  10.053  0.3167 -0.3484 -0.4838
  409MOL0     O53914   2.328   8.104  10.012 -0.2879  0.5787 -0.2114
  409MOL0     C53915   2.358   8.206   9.919 -0.5433  0.8232 -0.5989
  409MOL0     C53916   2.503   8.252   9.920 -0.1898  0.4660 -0.3995
  409MOL0     C53917   2.511   8.402   9.916 -0.5353 -0.0667 -0.5113
  409MOL0     C53918   2.652   8.450   9.882  0.1320 -0.2289  0.1409
  409MOL0     C53919   2.762   8.385   9.949  0.1110 -0.7321 -0.8107
  409MOL0     C53920   2.858   8.326   9.996  0.4712 -0.9082  0.7219
  409MOL0     C53921   2.175   7.992  10.142 -0.0392  0.1697 -0.1472
  409MOL0     C53922   2.041   7.964  10.182  0.0074  0.0799  0.7668
  409MOL0     H53923   1.519   8.125  10.331  1.8566 -1.2438  0.1173
  409MOL0     H53924   1.302   8.013  10.347 -2.0093 -3.7688 -0.7587
  409MOL0     H53925   1.102   7.951  10.312  0.4523  0.5108 -1.6712
  409MOL0     H53926   1.187   7.796  10.373  0.9827 -2.3921 -1.5715
  409MOL0     H53927   1.028   7.684  10.203  4.6953 -0.2296  2.6844
  409MOL0     H53928   0.919   7.824  10.219 -1.1923  0.4469  0.3711
  409MOL0     H53929   0.953   7.796  10.469  1.5919  1.9995 -2.3166
  409MOL0     H53930   0.999   7.629  10.442  0.9743 -0.8986 -2.0569
  409MOL0     H53931   0.742   7.752  10.328  0.7679 -0.5439 -1.4278
  409MOL0     H53932   0.796   7.580  10.331  3.4720  0.6795  0.2368
  409MOL0     H53933   0.736   7.734  10.584 -0.8463 -1.0431  1.4079
  409MOL0     H53934   0.745   7.562  10.555 -0.3952 -1.2213 -3.6294
  409MOL0     H53935   0.563   7.555  10.407  4.6016 -0.5021 -0.4034
  409MOL0     H53936   0.522   7.724  10.409  0.7124 -3.7332 -5.0047
  409MOL0     H53937   0.383   7.582  10.558 -0.3860 -1.2508  3.7697
  409MOL0     H53938   0.506   7.534  10.655 -3.1611  1.8953  4.1178
  409MOL0     H53939   0.426   7.827  10.641  0.3998 -0.0585 -1.2495
  409MOL0     H53940   0.542   7.748  10.747  2.1917  4.1331 -2.8150
  409MOL0     H53941   0.363   7.475  10.812  0.6351  0.3659  1.4955
  409MOL0     H53942   0.100   7.480  11.053  2.5092 -2.6038 -0.4101
  409MOL0     H53943   0.103   7.392  10.901 -3.5784 -0.5741  0.8600
  409MOL0     H53944  -0.032   7.552  10.784 -0.5586  0.5400  0.1677
  409MOL0     H53945  -0.071   7.637  10.932  0.5479 -0.0731 -0.1787
  409MOL0     H53946  -0.247   7.472  10.861 -1.2248 -2.4874 -0.8189
  409MOL0     H53947  -0.135   7.343  10.873  1.1507 -0.0826  3.1556
  409MOL0     H53948  -0.212   7.511  11.095  2.9200  1.4352 -1.8232
  409MOL0     H53949  -0.094   7.390  11.114 -0.3214  1.3659  1.3988
  409MOL0     H53950  -0.413   7.514  11.003  0.4271 -1.2737 -0.3918
  409MOL0     H53951  -0.668   7.525  10.963 -1.3512 -0.6999 -0.5512
  409MOL0     H53952  -1.090   7.278  10.835 -0.0775  1.5380  2.2214
  409MOL0     H53953  -1.343   7.295  10.869 -2.5404 -0.0446  2.3917
  409MOL0     H53954  -1.624   7.353  11.170 -1.7762 -1.3781  2.3192
  409MOL0     H53955  -1.480   7.345  11.257  2.0866 -2.0927 -1.7578
  409MOL0     H53956  -1.502   7.112  11.308 -1.3889 -1.2984  1.5402
  409MOL0     H53957  -1.617   7.084  11.185  0.4541 -0.1084  0.7023
  409MOL0     H53958  -1.666   7.285  11.405  0.9937 -0.1488  1.8287
  409MOL0     H53959  -1.718   7.117  11.433  0.6293 -0.4994 -2.4340
  409MOL0     H53960  -1.828   7.324  11.257 -0.1923  0.5961  3.1514
  409MOL0     H53961  -1.844   7.153  11.210 -2.3910 -0.3497  0.4426
  409MOL0     H53962  -1.981   7.105  11.428  3.8932  1.1336  2.3355
  409MOL0     H53963  -2.045   7.242  11.330 -0.8895  1.5451  1.5734
  409MOL0     H53964  -1.886   7.374  11.510 -1.2329  0.6183 -1.3331
  409MOL0     H53965  -1.889   7.222  11.587  0.6059 -0.4329 -1.0602
  409MOL0     H53966  -2.057   7.395  11.661  0.5675 -1.6584  1.5097
  409MOL0     H53967  -2.147   7.370  11.521 -0.0742  3.1202  2.3377
  409MOL0     H53968  -2.079   7.135  11.700  1.0046  3.0630  0.1460
  409MOL0     H53969  -2.212   7.140  11.579 -1.1566  0.4288 -0.5741
  409MOL0     H53970  -1.288   7.252  11.292 -1.3431 -0.5230 -0.8516
  409MOL0     H53971  -1.044   7.215  11.256  1.8235 -1.0787 -1.2404
  409MOL0     H53972  -0.694   7.116  11.098 -2.6669  0.3920 -1.1414
  409MOL0     H53973  -0.442   7.103  11.125  2.9118  0.0327 -1.8993
  409MOL0     H53974   1.319   7.843   9.978  0.5522  3.4418 -2.8555
  409MOL0     H53975   1.578   7.907   9.957 -0.7143  1.6937 -0.2360
  409MOL0     H53976   1.881   8.217  10.027 -0.2690 -0.5977  0.1610
  409MOL0     H53977   2.087   8.243   9.917 -2.8123  1.9240  1.6417
  409MOL0     H53978   2.308   8.301   9.938  4.8276  4.0003 -0.3601
  409MOL0     H53979   2.334   8.172   9.818 -3.7298  1.2404 -0.0895
  409MOL0     H53980   2.550   8.224  10.014  0.6801 -1.1443 -1.2658
  409MOL0     H53981   2.565   8.199   9.847  0.3211 -0.4771  0.6996
  409MOL0     H53982   2.480   8.438  10.014 -0.7456  0.7180 -0.8574
  409MOL0     H53983   2.442   8.443   9.841 -3.0927 -3.6687 -0.3669
  409MOL0     H53984   2.665   8.441   9.774  0.4781 -1.5184  0.2690
  409MOL0     H53985   2.656   8.557   9.904  1.8047  0.2748 -2.1799
  409MOL0     H53986   2.945   8.273  10.028  0.0288 -1.4568  1.0278
  409MOL0     H53987   2.257   7.924  10.164  0.3134  0.5191 -0.3756
  409MOL0     H53988   2.016   7.877  10.241 -1.2965 -0.8702 -1.0987
  410MOL0     O53989   6.546   6.408   2.886  0.4957 -0.4176 -0.6503
  410MOL0     C53990   6.479   6.456   2.797 -0.3586 -0.4336 -0.0725
  410MOL0     O53991   6.345   6.462   2.783 -0.5336  0.2593  0.2969
  410MOL0     C53992   6.265   6.428   2.892 -0.5305  0.7212  0.0855
  410MOL0     C53993   6.135   6.407   2.843 -0.3413 -0.0011  0.5882
  410MOL0     C53994   6.039   6.361   2.932  0.3226  1.0607 -0.4400
  410MOL0     C53995   6.066   6.345   3.072  0.6975  0.6150 -0.4875
  410MOL0     O53996   5.983   6.301   3.172  0.2634 -0.5602 -0.6557
  410MOL0     C53997   5.853   6.355   3.171  0.7811 -0.2831 -0.3074
  410MOL0     C53998   5.763   6.292   3.284 -0.3744  0.6845 -0.0898
  410MOL0     C53999   5.611   6.300   3.241 -0.4851 -0.0747 -1.3372
  410MOL0     C54000   5.524   6.230   3.337 -1.4801 -0.0032 -0.4662
  410MOL0     C54001   5.385   6.210   3.289  0.6780  0.5830  0.6906
  410MOL0     C54002   5.315   6.109   3.383 -0.5749  0.0318 -0.4711
  410MOL0     C54003   5.172   6.076   3.332 -1.1068  0.2889 -0.4562
  410MOL0     C54004   5.103   5.954   3.402 -0.0129  0.6192  0.5187
  410MOL0     N54005   5.087   5.965   3.544  0.1530 -0.7210 -0.7050
  410MOL0     C54006   4.981   6.008   3.625 -0.4559 -0.0685  0.2679
  410MOL0     C54007   5.040   6.028   3.748  0.0591  0.1500 -0.3830
  410MOL0     C54008   4.976   6.088   3.861  0.0978 -0.0480 -0.3331
  410MOL0     C54009   4.839   6.012   3.900 -0.3700 -0.5007 -0.8036
  410MOL0     C54010   4.720   6.092   3.852  0.0298  0.2325 -1.2303
  410MOL0     C54011   4.597   6.046   3.919 -1.0465 -0.7297 -0.9269
  410MOL0     O54012   4.558   5.919   3.869  0.0353 -0.1808 -0.1072
  410MOL0     C54013   4.430   5.881   3.876  0.2296 -1.0063 -0.1350
  410MOL0     C54014   4.330   5.940   3.946  0.3465 -0.5194 -0.0540
  410MOL0     C54015   4.191   5.904   3.947  0.5208 -0.0501  0.1662
  410MOL0     C54016   4.155   5.792   3.867 -0.3337  0.5041  0.5101
  410MOL0     C54017   4.017   5.749   3.848  0.3017 -0.5855  0.8645
  410MOL0     O54018   3.930   5.825   3.930 -0.6020  0.2098  0.8507
  410MOL0     C54019   3.812   5.776   3.968  0.0546 -0.7160  0.6770
  410MOL0     C54020   3.799   5.642   4.029 -0.0067  0.1640 -0.5371
  410MOL0     C54021   3.674   5.596   4.064  0.3384  0.0749 -0.9325
  410MOL0     C54022   3.564   5.679   4.051 -0.4724  0.3945  0.5020
  410MOL0     O54023   3.441   5.640   4.097 -0.2848  0.7517 -0.5573
  410MOL0     C54024   3.326   5.728   4.090  0.0085 -0.4201 -1.2001
  410MOL0     C54025   3.215   5.665   4.164  0.1594  0.3484  1.3812
  410MOL0     C54026   3.124   5.570   4.085 -0.4476 -0.1287  0.3450
  410MOL0     C54027   3.200   5.451   4.013 -0.0867  0.0443  0.5288
  410MOL0     C54028   3.107   5.352   3.941  0.2994  0.3281 -0.2890
  410MOL0     C54029   3.040   5.420   3.819 -0.1812  0.7963  0.2220
  410MOL0     C54030   2.945   5.322   3.746 -0.0519  0.3188 -1.0546
  410MOL0     C54031   2.880   5.408   3.630 -0.1826 -0.5329  0.3644
  410MOL0    Cl54032   3.006   5.450   3.506 -0.1012  0.1738  0.0016
  410MOL0     C54033   3.583   5.807   3.995 -0.1567  0.3829  0.1095
  410MOL0     C54034   3.705   5.857   3.953  0.2559 -0.5872 -0.9917
  410MOL0     O54035   3.991   5.636   3.802  0.0352 -1.4457  0.0814
  410MOL0     C54036   4.260   5.719   3.804 -0.0651  0.0572  0.5310
  410MOL0     C54037   4.392   5.775   3.803 -0.0225 -0.3154  0.4506
  410MOL0     N54038   5.171   5.980   3.754  0.6873 -0.4176  0.1846
  410MOL0     N54039   5.195   5.947   3.631  0.2082 -0.4520 -0.4409
  410MOL0     C54040   6.192   6.369   3.116  0.4683 -0.6282  1.0871
  410MOL0     C54041   6.296   6.411   3.030  0.0956  0.0032  0.1209
  410MOL0     C54042   6.560   6.518   2.685 -0.2412 -0.5886  0.3754
  410MOL0     C54043   6.698   6.494   2.673 -1.2502 -0.4696  0.5547
  410MOL0     C54044   6.760   6.543   2.559 -0.4244  0.2629  0.2116
  410MOL0     C54045   6.693   6.606   2.453 -0.1901  0.7154  0.0820
  410MOL0     O54046   6.750   6.660   2.337 -0.0776  0.3669  0.0103
  410MOL0     C54047   6.897   6.685   2.335 -0.1661 -1.0495  0.5869
  410MOL0     C54048   6.967   6.786   2.438  0.5329 -0.2533  0.2190
  410MOL0     C54049   6.878   6.917   2.435 -0.2865  0.0128  0.5743
  410MOL0     C54050   6.927   7.036   2.514 -0.1793  0.3082  0.5536
  410MOL0     C54051   6.850   7.150   2.464  0.7844 -1.1893 -0.4589
  410MOL0     C54052   6.781   7.250   2.421 -0.1168  0.8191  0.3876
  410MOL0     C54053   6.557   6.627   2.468  0.2566  0.1885 -0.1157
  410MOL0     C54054   6.486   6.580   2.576  0.8674  0.0450 -0.0086
  410MOL0     H54055   6.115   6.414   2.737  0.2340  0.0083  0.4763
  410MOL0     H54056   5.942   6.339   2.889 -0.9249  3.3266  1.0044
  410MOL0     H54057   5.805   6.332   3.076 -1.3204  1.8793  0.1205
  410MOL0     H54058   5.857   6.464   3.176 -0.4625 -0.0323 -3.1095
  410MOL0     H54059   5.777   6.342   3.381  0.4624 -0.5779  0.4685
  410MOL0     H54060   5.793   6.187   3.294 -0.5660  0.3624 -2.4531
  410MOL0     H54061   5.591   6.256   3.142 -2.0706  2.3832 -2.2106
  410MOL0     H54062   5.577   6.403   3.231  2.3131  1.2326  1.2370
  410MOL0     H54063   5.570   6.134   3.362 -1.2458  0.3364  0.4294
  410MOL0     H54064   5.513   6.287   3.429  0.9914 -0.9806  0.5269
  410MOL0     H54065   5.391   6.147   3.200 -0.3211 -2.4026  2.5838
  410MOL0     H54066   5.323   6.296   3.263  0.9080  2.3413  5.0451
  410MOL0     H54067   5.298   6.150   3.483 -1.4766  0.7469 -0.9067
  410MOL0     H54068   5.381   6.022   3.384  0.4900  0.7326 -2.8569
  410MOL0     H54069   5.109   6.166   3.325 -1.7747 -0.2363 -1.4781
  410MOL0     H54070   5.185   6.033   3.232  1.1176 -0.8608  0.2612
  410MOL0     H54071   5.172   5.869   3.391  4.5121  4.0350 -0.7599
  410MOL0     H54072   5.003   5.949   3.359  0.8178  0.0419 -1.4620
  410MOL0     H54073   4.890   6.061   3.599 -0.0814 -1.0007 -3.5652
  410MOL0     H54074   4.948   6.193   3.856 -1.6641 -0.3798  1.2171
  410MOL0     H54075   5.044   6.075   3.947 -2.7195  0.4732  2.1269
  410MOL0     H54076   4.852   5.986   4.005  0.2219 -0.4893 -0.8749
  410MOL0     H54077   4.828   5.917   3.847 -3.2871  0.1665 -1.5807
  410MOL0     H54078   4.723   6.199   3.875 -3.3103  0.3532 -0.9139
  410MOL0     H54079   4.711   6.092   3.743  1.1147  1.2922 -1.3446
  410MOL0     H54080   4.524   6.123   3.893 -0.2355  0.0035 -1.0713
  410MOL0     H54081   4.609   6.030   4.027 -2.5801 -0.0531 -0.6386
  410MOL0     H54082   4.354   6.033   3.997 -1.2535 -0.4293  0.5733
  410MOL0     H54083   4.121   5.956   4.011  3.1411  1.6263  1.8837
  410MOL0     H54084   3.876   5.566   4.037  3.1395  3.3687  3.2685
  410MOL0     H54085   3.673   5.503   4.120  2.1899  0.5941  0.0653
  410MOL0     H54086   3.294   5.743   3.986  0.4384 -1.0259 -1.4210
  410MOL0     H54087   3.348   5.821   4.143  1.2730 -2.1818  1.6124
  410MOL0     H54088   3.147   5.743   4.202 -1.3193 -1.2495  2.1593
  410MOL0     H54089   3.256   5.603   4.244  1.7406 -0.8364 -0.2767
  410MOL0     H54090   3.061   5.628   4.016  2.6610  1.5148 -1.3490
  410MOL0     H54091   3.061   5.520   4.158  0.9724 -0.8272  1.1313
  410MOL0     H54092   3.276   5.483   3.941  1.4788 -2.6407  0.8301
  410MOL0     H54093   3.249   5.401   4.097 -1.4359  0.6882  1.7407
  410MOL0     H54094   3.032   5.315   4.012  1.5147 -1.5566  0.0693
  410MOL0     H54095   3.166   5.264   3.916 -0.9131 -1.3656  2.2871
  410MOL0     H54096   3.123   5.446   3.752  4.2947 -0.3876  4.7148
  410MOL0     H54097   2.991   5.515   3.842  0.5802  1.4646 -0.8165
  410MOL0     H54098   2.993   5.230   3.712 -2.1221 -1.7474  1.2089
  410MOL0     H54099   2.869   5.290   3.818  1.4870 -1.2647 -0.0282
  410MOL0     H54100   2.843   5.507   3.659 -0.6152 -0.6777  0.3168
  410MOL0     H54101   2.796   5.362   3.578 -0.1291  1.0847 -1.2206
  410MOL0     H54102   3.499   5.875   3.983 -0.8575 -0.3977  0.5330
  410MOL0     H54103   3.714   5.954   3.906 -3.2408  1.1815  1.5203
  410MOL0     H54104   4.237   5.632   3.743  1.9811  0.4223 -0.8658
  410MOL0     H54105   4.475   5.731   3.748  0.4273  0.1713  0.7269
  410MOL0     H54106   6.227   6.358   3.219  1.3869  0.8331  0.9565
  410MOL0     H54107   6.394   6.431   3.071  1.5247 -2.1968 -1.9986
  410MOL0     H54108   6.757   6.450   2.753  0.1891  1.1603  0.4642
  410MOL0     H54109   6.866   6.519   2.554 -1.0305 -2.7142 -0.6606
  410MOL0     H54110   6.903   6.736   2.239 -3.4677  0.5907  1.0984
  410MOL0     H54111   6.949   6.589   2.327  1.2189 -0.1488 -2.7828
  410MOL0     H54112   6.967   6.759   2.544  0.9309  1.4779  0.6840
  410MOL0     H54113   7.072   6.790   2.407  0.2665 -0.7415 -0.8154
  410MOL0     H54114   6.774   6.889   2.455  0.2740 -1.9056  1.0220
  410MOL0     H54115   6.872   6.940   2.329 -2.1606 -1.7248  0.2429
  410MOL0     H54116   6.899   7.024   2.619  2.1216 -1.2706  1.0398
  410MOL0     H54117   7.033   7.056   2.496 -0.2892  2.3757  1.8986
  410MOL0     H54118   6.716   7.332   2.398 -3.1865 -1.5637 -0.0562
  410MOL0     H54119   6.524   6.686   2.383  2.2897  0.7747 -0.5613
  410MOL0     H54120   6.379   6.590   2.589  0.8440 -3.0267  4.4244
  411MOL0     O54121   4.425   3.412   5.205 -0.4315  0.3558  0.0345
  411MOL0     C54122   4.495   3.330   5.251  0.6591  0.2277  0.2824
  411MOL0     O54123   4.464   3.198   5.272 -0.1348 -0.2645 -0.4010
  411MOL0     C54124   4.349   3.155   5.220  0.3419  0.1307 -0.2245
  411MOL0     C54125   4.362   3.049   5.132 -0.4466 -0.2549 -0.8705
  411MOL0     C54126   4.249   2.990   5.079  0.7604  0.4672  0.3873
  411MOL0     C54127   4.121   3.035   5.100  0.1138 -0.4117 -0.0267
  411MOL0     O54128   4.012   2.984   5.035 -0.3589  0.0993  0.4769
  411MOL0     C54129   4.031   2.954   4.888 -0.1487  0.3843 -0.0700
  411MOL0     C54130   3.920   2.850   4.853  1.0397 -0.6724  0.5390
  411MOL0     C54131   3.779   2.918   4.853 -0.0159  0.3313  0.7702
  411MOL0     C54132   3.674   2.837   4.778  0.0840 -0.0886  0.8847
  411MOL0     C54133   3.534   2.897   4.783 -0.5136  0.3351 -0.2597
  411MOL0     C54134   3.437   2.804   4.713  0.9663  0.3478 -0.3873
  411MOL0     C54135   3.289   2.844   4.710 -0.3677  0.1960  0.2092
  411MOL0     C54136   3.226   2.827   4.848  0.6870 -0.3249 -0.1662
  411MOL0     N54137   3.097   2.758   4.854  0.4383 -0.4838  0.2334
  411MOL0     C54138   2.982   2.834   4.852  0.6365 -0.4188 -0.0585
  411MOL0     C54139   2.881   2.745   4.874 -0.0495  0.1663  0.2989
  411MOL0     C54140   2.726   2.777   4.867  0.3005 -0.7326 -0.6426
  411MOL0     C54141   2.645   2.710   4.980 -0.6366 -0.6430  0.3027
  411MOL0     C54142   2.683   2.753   5.119 -0.7116  0.0262 -0.0538
  411MOL0     C54143   2.607   2.675   5.226  0.9192 -0.2345 -1.2058
  411MOL0     O54144   2.461   2.677   5.180 -1.0209  0.9335  0.1469
  411MOL0     C54145   2.352   2.704   5.259 -1.1560  0.1945 -0.4146
  411MOL0     C54146   2.360   2.717   5.403  0.1984 -0.0176  0.7257
  411MOL0     C54147   2.238   2.734   5.480  0.0414  0.5007  0.4872
  411MOL0     C54148   2.114   2.744   5.410 -0.1308 -0.9265  0.0300
  411MOL0     C54149   1.985   2.790   5.480  0.7373  0.0490  0.8532
  411MOL0     O54150   1.879   2.807   5.391  0.0956  0.2058  0.3567
  411MOL0     C54151   1.761   2.835   5.449  0.6636 -0.3130  0.5632
  411MOL0     C54152   1.711   2.767   5.560  1.1047  0.3276 -0.1430
  411MOL0     C54153   1.592   2.795   5.624  0.2229 -0.4995 -0.4317
  411MOL0     C54154   1.501   2.897   5.572 -0.7483 -0.1168  0.9300
  411MOL0     O54155   1.380   2.939   5.618 -0.1868 -0.1690 -0.3872
  411MOL0     C54156   1.315   2.854   5.707  0.4827  0.5582  0.1369
  411MOL0     C54157   1.158   2.854   5.685 -0.0009 -1.0205 -1.4273
  411MOL0     C54158   1.077   2.978   5.718 -0.2859 -0.7426 -0.4145
  411MOL0     C54159   0.928   2.940   5.739 -0.2111 -1.0986 -0.3358
  411MOL0     C54160   0.831   3.063   5.750 -0.1255  0.4134  0.7175
  411MOL0     C54161   0.684   3.015   5.721  0.3323 -0.9492  0.4751
  411MOL0     C54162   0.572   3.129   5.723 -0.4435 -0.4323 -0.0940
  411MOL0     C54163   0.562   3.177   5.867  1.5778  0.3026  0.0487
  411MOL0    Cl54164   0.434   3.288   5.885 -0.1109 -0.4568 -0.5974
  411MOL0     C54165   1.546   2.950   5.454  0.0826 -0.2565 -1.0981
  411MOL0     C54166   1.675   2.933   5.395 -0.1447  0.1406  0.1054
  411MOL0     O54167   1.984   2.807   5.602  0.3912 -0.5954 -0.4209
  411MOL0     C54168   2.113   2.722   5.272 -0.7518  0.1929 -0.3402
  411MOL0     C54169   2.227   2.708   5.193  0.7862 -0.8865 -0.0555
  411MOL0     N54170   2.937   2.618   4.878 -0.1595 -0.2120 -0.5965
  411MOL0     N54171   3.068   2.628   4.875 -0.2627  0.5849  0.2968
  411MOL0     C54172   4.109   3.145   5.189 -0.4716 -0.6628 -0.3499
  411MOL0     C54173   4.222   3.204   5.254  0.7050  0.8051 -0.0319
  411MOL0     C54174   4.623   3.388   5.299 -0.3910  0.1567 -0.3657
  411MOL0     C54175   4.689   3.353   5.418 -0.3040  0.6034  0.1094
  411MOL0     C54176   4.802   3.422   5.454  0.9325  1.0580  0.1137
  411MOL0     C54177   4.864   3.519   5.376  0.1850  0.7214  0.3488
  411MOL0     O54178   4.974   3.580   5.417 -0.2896  0.3137  0.7754
  411MOL0     C54179   5.022   3.566   5.550 -0.5956 -0.1044  0.8828
  411MOL0     C54180   4.956   3.658   5.648  0.1359  0.7408  0.8875
  411MOL0     C54181   4.993   3.641   5.794  0.9830 -0.0161 -0.9436
  411MOL0     C54182   5.139   3.686   5.825  0.5594 -0.5295 -0.1024
  411MOL0     C54183   5.157   3.732   5.963  0.4978  0.1089  0.4015
  411MOL0     C54184   5.169   3.786   6.067  0.3288 -0.0179 -0.4371
  411MOL0     C54185   4.801   3.552   5.252 -0.8322 -0.5367  0.1240
  411MOL0     C54186   4.680   3.488   5.214  0.3410  0.9371  0.2561
  411MOL0     H54187   4.453   3.008   5.090 -0.1234 -0.1156 -0.3312
  411MOL0     H54188   4.267   2.930   4.991  1.4535  2.2668 -0.7396
  411MOL0     H54189   4.123   2.899   4.862 -2.0771 -2.3260 -1.7063
  411MOL0     H54190   4.022   3.049   4.836 -2.7733 -0.2888 -0.9836
  411MOL0     H54191   3.907   2.762   4.917 -2.5937 -0.5109  0.2370
  411MOL0     H54192   3.931   2.811   4.751  0.7167  1.2707 -0.2947
  411MOL0     H54193   3.790   3.021   4.818 -0.4882  0.7646  1.8195
  411MOL0     H54194   3.745   2.942   4.955 -0.8087  3.3921 -0.1187
  411MOL0     H54195   3.702   2.831   4.672 -4.0417  0.8258 -0.4623
  411MOL0     H54196   3.669   2.734   4.813 -0.7314 -0.1630  0.5760
  411MOL0     H54197   3.540   3.000   4.748  1.6545  1.7254  3.6206
  411MOL0     H54198   3.486   2.904   4.881 -1.6386  3.2501 -0.9103
  411MOL0     H54199   3.449   2.706   4.758  4.6013  1.8295  2.4030
  411MOL0     H54200   3.463   2.791   4.608  2.1322 -2.1280  0.1539
  411MOL0     H54201   3.290   2.948   4.677 -3.2445  0.2025 -0.1070
  411MOL0     H54202   3.236   2.779   4.640 -3.7649  1.9520  0.9313
  411MOL0     H54203   3.225   2.925   4.896  0.7942  0.7409 -2.2747
  411MOL0     H54204   3.299   2.767   4.904  2.0825  1.9081  0.5290
  411MOL0     H54205   2.973   2.938   4.824 -0.6663  0.6361  3.7156
  411MOL0     H54206   2.688   2.742   4.770 -0.0655 -2.3417  0.0613
  411MOL0     H54207   2.703   2.884   4.876  0.5870 -0.6688 -0.6656
  411MOL0     H54208   2.649   2.600   4.976 -3.1555 -0.7888  0.3019
  411MOL0     H54209   2.541   2.744   4.976 -0.9530 -1.3094  1.9124
  411MOL0     H54210   2.789   2.735   5.142 -0.4331  0.1776 -1.1153
  411MOL0     H54211   2.665   2.861   5.118  1.8212  0.5235 -0.9191
  411MOL0     H54212   2.614   2.736   5.317 -0.3041  1.1623 -1.9987
  411MOL0     H54213   2.644   2.576   5.253  3.6324  1.4757  1.9980
  411MOL0     H54214   2.457   2.727   5.450  0.0170  2.4323  0.6635
  411MOL0     H54215   2.242   2.744   5.588 -0.4516  3.0819  0.3205
  411MOL0     H54216   1.760   2.675   5.590  0.0204  0.2288  1.4899
  411MOL0     H54217   1.566   2.733   5.709 -0.1597  1.6708  1.1123
  411MOL0     H54218   1.336   2.888   5.809 -0.9572  2.9379 -0.2911
  411MOL0     H54219   1.348   2.753   5.681  0.9899  1.6100 -3.9654
  411MOL0     H54220   1.104   2.774   5.736 -1.9608 -1.0512 -3.4261
  411MOL0     H54221   1.129   2.832   5.582  0.1285  0.4097 -1.7978
  411MOL0     H54222   1.087   3.051   5.637  0.8689 -0.1553  0.2312
  411MOL0     H54223   1.125   3.025   5.804  1.2530  0.8814 -2.0667
  411MOL0     H54224   0.903   2.873   5.656  1.0079 -3.2930  0.9442
  411MOL0     H54225   0.912   2.879   5.829  2.0189 -1.6848 -0.2914
  411MOL0     H54226   0.853   3.134   5.670  0.6189 -1.1069 -0.4642
  411MOL0     H54227   0.850   3.103   5.850  3.3224 -1.5655  0.9997
  411MOL0     H54228   0.667   2.939   5.799  1.8344 -1.1171  0.6707
  411MOL0     H54229   0.675   2.964   5.624 -0.7559  1.4136 -0.7410
  411MOL0     H54230   0.599   3.206   5.650  1.4707 -1.5421 -0.6201
  411MOL0     H54231   0.475   3.091   5.692 -0.8200 -1.4684  2.1260
  411MOL0     H54232   0.655   3.225   5.898  1.8622  0.5515 -1.1366
  411MOL0     H54233   0.549   3.091   5.934  2.7106  0.7315  0.8594
  411MOL0     H54234   1.495   3.028   5.399 -2.4169  0.1070  1.5129
  411MOL0     H54235   1.702   2.990   5.307 -1.1339  0.7687  0.1964
  411MOL0     H54236   2.015   2.702   5.230 -0.4355 -1.4473 -0.3706
  411MOL0     H54237   2.218   2.686   5.087  1.8143 -1.6547  0.0055
  411MOL0     H54238   4.010   3.185   5.209 -1.0396 -2.1291 -0.1153
  411MOL0     H54239   4.218   3.281   5.331 -2.6442  0.6579  0.0704
  411MOL0     H54240   4.646   3.266   5.465  2.9056 -1.6766 -0.8627
  411MOL0     H54241   4.828   3.396   5.556 -2.5742  1.1874  1.1763
  411MOL0     H54242   5.128   3.590   5.549 -0.4453 -0.6976 -1.4224
  411MOL0     H54243   5.027   3.461   5.581  3.7147 -0.9126 -1.8030
  411MOL0     H54244   4.978   3.761   5.619 -0.4447  1.5883  3.1970
  411MOL0     H54245   4.850   3.631   5.642  0.6252 -0.9048 -1.3937
  411MOL0     H54246   4.989   3.536   5.824 -0.3652  0.7559  1.9094
  411MOL0     H54247   4.925   3.692   5.862  1.3284 -1.6898  0.7390
  411MOL0     H54248   5.215   3.609   5.803 -0.8498 -1.0407 -3.9863
  411MOL0     H54249   5.157   3.764   5.751  1.5874 -2.2816 -1.8125
  411MOL0     H54250   5.191   3.824   6.165  1.9294  0.2548 -0.8782
  411MOL0     H54251   4.842   3.626   5.183  2.0200 -1.8645  0.2528
  411MOL0     H54252   4.633   3.520   5.121 -0.3900  0.1302  0.3436
  412MOL0     O54253   6.360   0.807   5.337  0.6120 -0.4016 -0.2921
  412MOL0     C54254   6.289   0.821   5.437 -0.1129  1.2465  0.0526
  412MOL0     O54255   6.328   0.786   5.567  0.2052 -0.1618 -0.3813
  412MOL0     C54256   6.448   0.723   5.592  0.8181  0.9041 -0.1282
  412MOL0     C54257   6.566   0.777   5.547  0.4878  0.4767 -0.1111
  412MOL0     C54258   6.692   0.710   5.568 -0.4908 -0.0166  0.3323
  412MOL0     C54259   6.692   0.590   5.640 -0.5644  0.8983 -0.2997
  412MOL0     O54260   6.806   0.511   5.655 -0.3519  0.2860  0.8674
  412MOL0     C54261   6.921   0.565   5.723  0.2641 -0.2823  0.2578
  412MOL0     C54262   7.032   0.466   5.702 -0.1163 -0.6533 -0.1113
  412MOL0     C54263   7.172   0.508   5.768 -0.1506 -0.3626  0.8547
  412MOL0     C54264   7.268   0.394   5.763 -0.6577 -0.4621 -0.4627
  412MOL0     C54265   7.413   0.427   5.736  0.6437 -0.4904  0.2882
  412MOL0     C54266   7.428   0.460   5.585  0.0129  0.3699  1.3520
  412MOL0     C54267   7.566   0.483   5.539  0.3304  0.1522 -0.2612
  412MOL0     C54268   7.591   0.532   5.398  0.9670 -0.4654  0.2397
  412MOL0     N54269   7.515   0.651   5.373  0.5099 -0.7841 -0.9154
  412MOL0     C54270   7.548   0.771   5.437  0.7727  0.1417  0.2542
  412MOL0     C54271   7.469   0.858   5.371  0.4832  0.3431  0.2544
  412MOL0     C54272   7.467   1.003   5.399 -0.0889 -0.2652 -0.0587
  412MOL0     C54273   7.329   1.051   5.453 -0.1709  1.2843 -0.6161
  412MOL0     C54274   7.359   1.177   5.526  0.1847 -0.0563 -0.3805
  412MOL0     C54275   7.227   1.244   5.565  0.2618  0.8360 -0.4027
  412MOL0     O54276   7.255   1.385   5.587  0.2103  0.2311 -0.2795
  412MOL0     C54277   7.164   1.474   5.618  0.1827  0.1310  0.1572
  412MOL0     C54278   7.024   1.439   5.623  0.7239  0.5082 -0.0511
  412MOL0     C54279   6.934   1.533   5.662  0.7121 -0.2006  0.0810
  412MOL0     C54280   6.966   1.662   5.690  0.7737 -0.6425  0.7741
  412MOL0     C54281   6.861   1.768   5.716  0.2447  0.7116  0.6246
  412MOL0     O54282   6.727   1.744   5.679 -0.1648  0.3099  0.3333
  412MOL0     C54283   6.652   1.860   5.660  1.2020  0.3477  0.0756
  412MOL0     C54284   6.622   1.901   5.530 -0.5742 -0.2671 -0.4257
  412MOL0     C54285   6.542   2.012   5.514 -0.4066  0.3405 -0.0983
  412MOL0     C54286   6.483   2.085   5.615  0.2530 -0.8005 -0.8101
  412MOL0     O54287   6.395   2.181   5.586 -0.0715 -0.3464 -0.6749
  412MOL0     C54288   6.302   2.219   5.694  0.2180  0.0537  0.0419
  412MOL0     C54289   6.187   2.301   5.633  1.1365 -0.3789 -0.1169
  412MOL0     C54290   6.240   2.440   5.608 -0.6457 -0.6798 -0.0226
  412MOL0     C54291   6.154   2.551   5.546 -0.0042 -0.3254 -0.8213
  412MOL0     C54292   6.237   2.678   5.530  0.3812 -0.7981 -0.1158
  412MOL0     C54293   6.154   2.791   5.479  0.7043 -0.5464  0.4526
  412MOL0     C54294   6.127   2.769   5.327  0.2971  0.0220  0.0635
  412MOL0     C54295   5.985   2.824   5.289 -0.3349 -0.3657 -0.9115
  412MOL0    Cl54296   5.846   2.747   5.386 -0.1067 -0.3306 -0.0894
  412MOL0     C54297   6.516   2.038   5.748 -0.2126 -0.7454 -0.1620
  412MOL0     C54298   6.594   1.924   5.763 -0.3925 -0.4097 -0.7848
  412MOL0     O54299   6.900   1.877   5.760  0.1258 -0.1256  0.5970
  412MOL0     C54300   7.097   1.696   5.675 -0.3453 -0.4215  0.0294
  412MOL0     C54301   7.195   1.604   5.635  0.4923 -0.8345 -0.6996
  412MOL0     N54302   7.391   0.789   5.276 -0.4474 -1.2911  0.4243
  412MOL0     N54303   7.421   0.662   5.282  0.2869  0.2474 -0.5838
  412MOL0     C54304   6.578   0.538   5.696  0.4275  0.3025 -0.3324
  412MOL0     C54305   6.455   0.598   5.669 -0.4282 -0.5049 -0.3755
  412MOL0     C54306   6.149   0.861   5.406 -0.4575 -0.0151  0.2857
  412MOL0     C54307   6.118   0.906   5.277  1.3049 -0.6284  0.6728
  412MOL0     C54308   5.986   0.950   5.246 -0.0405  0.2120 -0.2090
  412MOL0     C54309   5.885   0.948   5.343  0.5281 -0.2721 -0.2254
  412MOL0     O54310   5.768   0.997   5.289 -0.2404  0.0354  0.6066
  412MOL0     C54311   5.661   0.904   5.283 -0.3157 -0.3066  0.4356
  412MOL0     C54312   5.613   0.919   5.140  0.1458 -0.2130 -0.7750
  412MOL0     C54313   5.464   0.890   5.138  0.4040 -0.6051 -0.2528
  412MOL0     C54314   5.369   0.993   5.221 -0.5992 -0.4778  0.2708
  412MOL0     C54315   5.234   0.997   5.164  0.0258  0.0197  0.2830
  412MOL0     C54316   5.127   1.007   5.113 -0.1583  0.4478 -0.7933
  412MOL0     C54317   5.917   0.889   5.468 -1.0026  0.2322 -0.0653
  412MOL0     C54318   6.046   0.849   5.499  0.2496  0.0805  0.7296
  412MOL0     H54319   6.555   0.873   5.498 -1.2552 -1.8126 -4.8616
  412MOL0     H54320   6.786   0.747   5.528 -0.8751  2.3485  1.4557
  412MOL0     H54321   6.900   0.570   5.831 -1.4880  2.8085 -0.1088
  412MOL0     H54322   6.939   0.667   5.689  1.2609 -0.8347 -0.9537
  412MOL0     H54323   7.051   0.449   5.596  1.2342  3.4499 -0.6831
  412MOL0     H54324   6.999   0.376   5.755 -3.0386  1.7056  2.4528
  412MOL0     H54325   7.135   0.551   5.862  1.8369  4.0121 -0.1542
  412MOL0     H54326   7.209   0.598   5.720 -0.5556 -0.5327  0.2011
  412MOL0     H54327   7.259   0.349   5.862 -0.5192  0.3326 -0.0817
  412MOL0     H54328   7.233   0.315   5.696 -1.2014 -3.0897  2.6666
  412MOL0     H54329   7.483   0.349   5.768  3.1063  1.6831  0.5728
  412MOL0     H54330   7.442   0.512   5.798 -1.8110  0.0900  0.7431
  412MOL0     H54331   7.363   0.547   5.568  0.1998  0.7677  2.5964
  412MOL0     H54332   7.382   0.385   5.520 -0.7643 -0.1590  2.4850
  412MOL0     H54333   7.598   0.550   5.619  1.1531 -0.2760 -0.2193
  412MOL0     H54334   7.617   0.386   5.547  1.4075  0.5275 -2.0370
  412MOL0     H54335   7.571   0.454   5.324 -2.2495 -1.8209  2.3266
  412MOL0     H54336   7.699   0.553   5.399  0.7633  0.6388  0.6871
  412MOL0     H54337   7.627   0.798   5.506 -0.8090  0.6335  1.9296
  412MOL0     H54338   7.496   1.059   5.309  0.4691  0.7365  0.7157
  412MOL0     H54339   7.551   1.024   5.466  0.5532 -1.1855 -0.5458
  412MOL0     H54340   7.283   0.969   5.509 -1.9416  0.4384 -3.1772
  412MOL0     H54341   7.253   1.075   5.379 -0.6945 -1.6634 -1.1214
  412MOL0     H54342   7.414   1.149   5.617  2.8010 -1.4149 -2.2306
  412MOL0     H54343   7.424   1.245   5.470 -1.9703  4.1367  1.7580
  412MOL0     H54344   7.197   1.191   5.657  1.2805  1.4811  0.3248
  412MOL0     H54345   7.159   1.233   5.480  0.4328  1.6536 -0.6477
  412MOL0     H54346   6.978   1.346   5.593 -1.0320  1.3631 -0.1391
  412MOL0     H54347   6.829   1.503   5.663 -0.0784  2.2779 -0.4538
  412MOL0     H54348   6.661   1.844   5.447  0.9483 -0.1244  0.1542
  412MOL0     H54349   6.503   2.023   5.414 -3.9254  1.0359  1.2129
  412MOL0     H54350   6.356   2.269   5.776 -2.7255  0.0956  2.1069
  412MOL0     H54351   6.260   2.132   5.746  0.0623  1.6911  2.8933
  412MOL0     H54352   6.104   2.312   5.704  1.5154  1.1459  0.1330
  412MOL0     H54353   6.156   2.258   5.538  3.5002  0.0742 -1.1534
  412MOL0     H54354   6.321   2.435   5.534  0.7518  4.5709  0.7836
  412MOL0     H54355   6.283   2.486   5.697 -0.2201  1.0616 -1.0891
  412MOL0     H54356   6.107   2.510   5.456 -2.7030 -0.0031  0.3655
  412MOL0     H54357   6.073   2.569   5.617  2.2671  0.5908  1.7086
  412MOL0     H54358   6.318   2.656   5.460  0.5956 -1.5447  0.3600
  412MOL0     H54359   6.278   2.710   5.626  1.6439 -0.9874 -0.5720
  412MOL0     H54360   6.209   2.883   5.498 -0.2388 -0.1417  1.3039
  412MOL0     H54361   6.062   2.801   5.536  0.3234  1.6438 -0.4515
  412MOL0     H54362   6.195   2.819   5.257  1.4042  1.0408  1.8113
  412MOL0     H54363   6.122   2.662   5.305 -0.7985  0.2789 -1.0750
  412MOL0     H54364   5.974   2.791   5.186 -0.5520 -1.4503 -0.5577
  412MOL0     H54365   5.987   2.934   5.286  1.6828 -0.3769 -1.7573
  412MOL0     H54366   6.489   2.087   5.841 -0.0606  0.0133 -0.5161
  412MOL0     H54367   6.628   1.889   5.860 -0.6266 -1.9278 -1.2319
  412MOL0     H54368   7.131   1.798   5.684  0.8339 -0.9343  1.9455
  412MOL0     H54369   7.296   1.640   5.615  0.6415 -0.5959  0.3853
  412MOL0     H54370   6.579   0.435   5.731  2.4655 -1.4204 -4.7135
  412MOL0     H54371   6.363   0.547   5.694  0.1564 -0.2360  2.8020
  412MOL0     H54372   6.191   0.907   5.197  2.6622 -1.3467  1.8656
  412MOL0     H54373   5.951   0.988   5.151  0.8334  1.6045  0.0123
  412MOL0     H54374   5.585   0.922   5.360  0.8017 -0.2749  1.5753
  412MOL0     H54375   5.692   0.801   5.300 -3.6778 -1.5254  0.0133
  412MOL0     H54376   5.629   1.024   5.115  1.4907 -0.1267  0.3291
  412MOL0     H54377   5.662   0.848   5.072  1.1308 -1.9210  1.6014
  412MOL0     H54378   5.448   0.785   5.165  0.3026 -1.1086 -2.1602
  412MOL0     H54379   5.432   0.894   5.034  1.0209 -1.4970 -0.4898
  412MOL0     H54380   5.374   0.965   5.327 -0.3538 -2.2163 -0.1773
  412MOL0     H54381   5.405   1.092   5.192 -2.0164 -0.7903 -3.0019
  412MOL0     H54382   5.028   1.015   5.073 -1.2176  1.1958  1.7836
  412MOL0     H54383   5.844   0.877   5.548 -3.2309 -1.6437 -2.2068
  412MOL0     H54384   6.049   0.794   5.593  0.8880 -0.9806  0.1148
  413MOL0     O54385   9.067   2.202   3.136 -0.5143  0.2924 -0.6535
  413MOL0     C54386   9.138   2.134   3.061  0.3623 -0.6237 -0.3413
  413MOL0     O54387   9.092   2.032   2.986  0.2236 -0.3932 -0.4144
  413MOL0     C54388   8.957   1.996   2.993 -0.1331  0.3902 -0.6241
  413MOL0     C54389   8.849   2.091   2.983 -0.6807 -0.4749  0.1919
  413MOL0     C54390   8.720   2.047   2.958  0.6452  0.4254 -0.1329
  413MOL0     C54391   8.685   1.913   2.955 -0.0155 -0.3382 -1.3870
  413MOL0     O54392   8.562   1.870   2.942  0.2460 -0.0471  0.0303
  413MOL0     C54393   8.447   1.961   2.950 -0.0883  0.2646 -0.3509
  413MOL0     C54394   8.311   1.900   2.961  0.0097 -0.0355  0.5985
  413MOL0     C54395   8.207   2.000   3.011 -0.0798 -0.1340 -0.1425
  413MOL0     C54396   8.199   2.145   2.955 -0.5025  0.3438 -0.6728
  413MOL0     C54397   8.102   2.229   3.050 -0.0790  0.8151 -0.2412
  413MOL0     C54398   8.084   2.372   2.994  0.4905 -0.4000 -0.4635
  413MOL0     C54399   7.989   2.454   3.093 -0.0568  0.6329  0.4255
  413MOL0     C54400   8.058   2.486   3.224 -1.6686 -1.0092  0.1566
  413MOL0     N54401   7.974   2.567   3.312 -0.0646  0.0103  1.2136
  413MOL0     C54402   7.908   2.674   3.272  0.5532  0.7756  0.2235
  413MOL0     C54403   7.812   2.689   3.376 -0.7399  0.2732  0.4607
  413MOL0     C54404   7.713   2.801   3.384 -0.0349 -0.4654 -0.6922
  413MOL0     C54405   7.786   2.932   3.377 -0.7592 -0.2055 -0.7297
  413MOL0     C54406   7.822   2.963   3.525 -0.9582  0.2673 -0.9418
  413MOL0     C54407   7.721   3.049   3.599  0.9452  0.0626  0.6685
  413MOL0     O54408   7.708   3.175   3.542 -0.3500 -0.1830  0.8648
  413MOL0     C54409   7.579   3.208   3.501 -0.2659 -0.7380  0.2910
  413MOL0     C54410   7.540   3.344   3.501  0.0069  0.4646  0.1450
  413MOL0     C54411   7.431   3.392   3.427  0.6378  0.0774 -0.7644
  413MOL0     C54412   7.335   3.312   3.376 -0.2626  0.2980  0.9556
  413MOL0     C54413   7.195   3.347   3.336 -0.4747 -0.6937  0.2063
  413MOL0     O54414   7.109   3.238   3.328 -0.1698 -0.3236  0.0824
  413MOL0     C54415   6.977   3.264   3.287 -0.0346  0.8090 -1.1229
  413MOL0     C54416   6.868   3.267   3.381  0.0463  0.2465  0.2294
  413MOL0     C54417   6.742   3.286   3.334  0.3116 -0.1271  0.4897
  413MOL0     C54418   6.718   3.290   3.200 -0.7588  0.4177  0.4172
  413MOL0     O54419   6.588   3.301   3.153  0.5872  0.6603 -0.0220
  413MOL0     C54420   6.471   3.285   3.229  1.3052  0.1937  0.5091
  413MOL0     C54421   6.424   3.139   3.270  0.1715  0.1002  0.2188
  413MOL0     C54422   6.333   3.145   3.390 -0.0200 -0.1994 -0.4945
  413MOL0     C54423   6.219   3.043   3.389  0.6103 -0.2059 -0.3764
  413MOL0     C54424   6.100   3.085   3.470  0.0885 -0.4335  0.3190
  413MOL0     C54425   5.996   2.971   3.451 -0.3268  0.2980  0.0489
  413MOL0     C54426   5.866   3.005   3.523 -0.4561 -0.1530  0.1521
  413MOL0     C54427   5.759   2.894   3.527 -0.3753  0.8043 -0.6482
  413MOL0    Cl54428   5.754   2.806   3.371  0.6583  0.4839 -0.2104
  413MOL0     C54429   6.820   3.282   3.104  0.8195  1.0264 -0.2042
  413MOL0     C54430   6.952   3.264   3.145  0.2662 -0.3923  0.1242
  413MOL0     O54431   7.159   3.468   3.329 -0.2310  0.2542  0.2093
  413MOL0     C54432   7.367   3.171   3.374  0.4452  0.2844  0.7278
  413MOL0     C54433   7.486   3.125   3.435 -0.0381  0.6083 -0.2152
  413MOL0     N54434   7.825   2.586   3.470  0.2284 -0.3045  0.1914
  413MOL0     N54435   7.920   2.518   3.428  0.6400  0.7202 -0.1464
  413MOL0     C54436   8.792   1.821   2.971 -0.4765 -0.9834 -0.3679
  413MOL0     C54437   8.931   1.861   2.982 -0.2818  0.4466 -0.5547
  413MOL0     C54438   9.286   2.171   3.047  0.6105 -0.1610  0.4628
  413MOL0     C54439   9.345   2.245   3.150  0.1879 -0.9163  1.3938
  413MOL0     C54440   9.481   2.287   3.133  0.6697  0.4640 -0.1606
  413MOL0     C54441   9.556   2.266   3.017 -0.1816 -0.3789  0.6949
  413MOL0     O54442   9.689   2.289   3.006 -0.5656 -0.5923 -0.8370
  413MOL0     C54443   9.767   2.336   3.118  1.2518 -0.4490 -0.0407
  413MOL0     C54444   9.871   2.420   3.055 -0.6226 -0.4081 -0.8179
  413MOL0     C54445   9.986   2.421   3.155  0.1216 -0.5468 -0.2142
  413MOL0     C54446  10.119   2.478   3.083 -0.1381  0.0615  0.3686
  413MOL0     C54447  10.237   2.412   3.149  1.1365 -0.1493 -0.8286
  413MOL0     C54448  10.336   2.361   3.205  0.8096 -0.8899  0.2241
  413MOL0     C54449   9.488   2.192   2.922 -0.6043 -0.3935 -0.0565
  413MOL0     C54450   9.354   2.152   2.934 -0.8762 -0.0467  0.3995
  413MOL0     H54451   8.859   2.199   2.991 -0.3126 -0.3360 -1.6708
  413MOL0     H54452   8.649   2.128   2.944  0.9625  0.2946 -3.3252
  413MOL0     H54453   8.451   2.015   2.855  1.4949  1.4431  0.3353
  413MOL0     H54454   8.455   2.025   3.039  0.2132  0.2386 -0.3581
  413MOL0     H54455   8.317   1.805   3.015  1.2812 -1.8942 -2.5838
  413MOL0     H54456   8.277   1.875   2.861  1.1709 -0.4988  0.3027
  413MOL0     H54457   8.219   2.010   3.120 -0.6770 -1.1164  0.0358
  413MOL0     H54458   8.110   1.951   2.999  0.5338 -1.3658 -0.3551
  413MOL0     H54459   8.296   2.194   2.951 -0.5840  0.6252  0.6193
  413MOL0     H54460   8.148   2.135   2.858  0.0105  1.2156 -1.0399
  413MOL0     H54461   8.145   2.236   3.150 -6.0129  2.7290  2.6618
  413MOL0     H54462   8.013   2.170   3.074  0.9653  0.1663  2.3761
  413MOL0     H54463   8.030   2.375   2.899  1.6535  0.2549 -1.1286
  413MOL0     H54464   8.175   2.430   2.980 -0.1815  1.6061  2.5801
  413MOL0     H54465   7.955   2.541   3.037  3.0481  0.4290 -2.0554
  413MOL0     H54466   7.903   2.390   3.116  0.4124 -0.0977  0.1704
  413MOL0     H54467   8.145   2.544   3.194 -1.7083 -1.8911 -1.8313
  413MOL0     H54468   8.089   2.396   3.279  1.5741 -1.0622 -1.5176
  413MOL0     H54469   7.916   2.730   3.179 -0.1934 -0.5195 -0.6619
  413MOL0     H54470   7.649   2.787   3.472 -0.0551 -1.7588 -0.8858
  413MOL0     H54471   7.647   2.802   3.297  1.3714  0.9799 -1.7927
  413MOL0     H54472   7.719   3.010   3.338 -0.0685 -0.2010 -1.9688
  413MOL0     H54473   7.872   2.930   3.309 -0.6923  2.3754 -0.8117
  413MOL0     H54474   7.855   2.877   3.584  1.2484  1.4114 -0.3986
  413MOL0     H54475   7.917   3.017   3.523 -0.7067  0.2579  3.0528
  413MOL0     H54476   7.744   3.056   3.706  0.7470  0.1567  0.7064
  413MOL0     H54477   7.623   3.001   3.602  0.5560  0.5129 -2.2151
  413MOL0     H54478   7.621   3.404   3.542  1.3100 -0.4208 -1.0281
  413MOL0     H54479   7.403   3.496   3.429  0.2059 -0.0472  0.2417
  413MOL0     H54480   6.877   3.257   3.489 -4.3106  0.9897  0.8438
  413MOL0     H54481   6.663   3.303   3.407  0.0280  0.8154 -0.0104
  413MOL0     H54482   6.392   3.332   3.170  0.4977  0.0698  1.4617
  413MOL0     H54483   6.471   3.353   3.314  2.2264  1.5477 -0.5319
  413MOL0     H54484   6.507   3.073   3.293  1.4232  0.5879 -2.4630
  413MOL0     H54485   6.364   3.102   3.185 -0.1564  2.4404 -0.6603
  413MOL0     H54486   6.284   3.242   3.391  1.0565  0.4229 -2.5428
  413MOL0     H54487   6.386   3.143   3.486 -4.0767  1.7732  2.0285
  413MOL0     H54488   6.181   3.030   3.288  1.3865 -0.6100 -0.6205
  413MOL0     H54489   6.256   2.948   3.429 -1.9326 -0.0166  3.0017
  413MOL0     H54490   6.057   3.180   3.435 -1.4756 -0.9981  0.5954
  413MOL0     H54491   6.137   3.101   3.572  0.3147 -1.7386  0.4505
  413MOL0     H54492   6.044   2.884   3.497 -2.6606  0.1065  2.3982
  413MOL0     H54493   5.965   2.952   3.348 -0.9232  0.4779  0.1918
  413MOL0     H54494   5.890   3.023   3.628  1.7270 -2.0986  0.0758
  413MOL0     H54495   5.822   3.096   3.481  0.4434 -0.3253 -1.2201
  413MOL0     H54496   5.657   2.931   3.541 -1.5950 -2.9210  1.9693
  413MOL0     H54497   5.777   2.820   3.606 -2.3073  0.9716  0.0081
  413MOL0     H54498   6.790   3.281   3.000 -1.2783  2.2914  0.3430
  413MOL0     H54499   7.031   3.234   3.077  1.1362 -5.8660  3.0225
  413MOL0     H54500   7.311   3.088   3.332 -0.0723 -1.5670  4.6579
  413MOL0     H54501   7.508   3.018   3.438 -2.2713  0.1055  0.0408
  413MOL0     H54502   8.759   1.717   2.969 -0.9075 -0.8733  0.4721
  413MOL0     H54503   9.013   1.789   2.983 -1.6941 -1.2523  0.8753
  413MOL0     H54504   9.284   2.277   3.234  0.5707  1.5540  0.8095
  413MOL0     H54505   9.533   2.327   3.219  2.0363 -2.5116  0.5229
  413MOL0     H54506   9.815   2.248   3.162  2.6738  0.7631  0.9078
  413MOL0     H54507   9.708   2.376   3.201  2.9567  0.2164  0.8900
  413MOL0     H54508   9.905   2.375   2.962  0.6455 -1.6145  0.1913
  413MOL0     H54509   9.833   2.520   3.029 -2.5508 -0.7486  0.4334
  413MOL0     H54510  10.009   2.325   3.203  0.0798 -0.3081  0.2896
  413MOL0     H54511   9.954   2.490   3.233  3.1051  1.1205 -0.2993
  413MOL0     H54512  10.124   2.458   2.976  3.1771 -2.3418  0.8304
  413MOL0     H54513  10.130   2.585   3.103 -2.6090  0.5425 -0.5007
  413MOL0     H54514  10.434   2.321   3.222  0.7968 -0.3102  1.7475
  413MOL0     H54515   9.549   2.165   2.835  2.1583 -2.9909  2.4456
  413MOL0     H54516   9.304   2.104   2.851  0.0138 -1.7826  0.7995
  414MOL0     O54517   7.769   1.162   0.732  0.2645 -0.2081  0.4025
  414MOL0     C54518   7.713   1.155   0.629 -0.1660 -0.1793  0.6077
  414MOL0     O54519   7.583   1.177   0.608  0.2598  0.1700 -0.1200
  414MOL0     C54520   7.506   1.264   0.683  0.1361 -0.3700 -0.0451
  414MOL0     C54521   7.566   1.373   0.752  0.6096  0.1644  0.3659
  414MOL0     C54522   7.471   1.455   0.826 -0.2433 -0.1304  0.0902
  414MOL0     C54523   7.335   1.423   0.840 -0.0737  0.7223  0.8593
  414MOL0     O54524   7.239   1.489   0.918 -0.1233 -0.0036  0.1841
  414MOL0     C54525   7.126   1.533   0.839 -0.2716 -0.4559 -0.0562
  414MOL0     C54526   6.993   1.453   0.850 -0.4690  0.2838  0.1128
  414MOL0     C54527   6.947   1.425   0.981 -0.3148 -0.0580 -0.0541
  414MOL0     C54528   6.903   1.548   1.068 -0.3683  0.0168  0.5808
  414MOL0     C54529   6.861   1.500   1.201 -0.4003  0.2150 -0.2325
  414MOL0     C54530   6.730   1.426   1.188  0.7645 -1.2717  1.0585
  414MOL0     C54531   6.683   1.400   1.327  0.6235 -0.1005  0.0850
  414MOL0     C54532   6.551   1.323   1.334  0.7191 -0.2609 -0.7831
  414MOL0     N54533   6.565   1.218   1.434  0.0944 -0.9355  0.1831
  414MOL0     C54534   6.515   1.228   1.561 -0.3268 -0.3294  0.3508
  414MOL0     C54535   6.524   1.110   1.618  0.0031 -0.7306  0.5626
  414MOL0     C54536   6.474   1.083   1.762  0.3797 -0.3890  1.2838
  414MOL0     C54537   6.322   1.108   1.772 -0.2039 -0.2830 -0.1133
  414MOL0     C54538   6.237   1.022   1.672  0.7079 -0.1479  0.6473
  414MOL0     C54539   6.082   1.047   1.677 -0.5777  0.2266  0.2595
  414MOL0     O54540   6.027   0.975   1.788  0.1681 -0.7655 -0.6495
  414MOL0     C54541   5.889   0.987   1.800 -0.4895 -0.0404  0.3068
  414MOL0     C54542   5.847   1.003   1.935  0.3834  0.5621  0.1483
  414MOL0     C54543   5.716   1.007   1.969  0.4443  0.4733 -0.2961
  414MOL0     C54544   5.619   1.000   1.861 -0.1522  0.4904 -0.6344
  414MOL0     C54545   5.470   1.004   1.886  0.1026  0.5899 -0.2525
  414MOL0     O54546   5.388   1.043   1.786 -0.1905 -0.4609 -0.0657
  414MOL0     C54547   5.254   1.077   1.819  0.7757  0.4610 -0.3171
  414MOL0     C54548   5.219   1.171   1.917  0.4099 -0.2746 -0.0180
  414MOL0     C54549   5.084   1.206   1.943  0.6935  0.7531 -0.9249
  414MOL0     C54550   4.983   1.130   1.888 -0.0364 -0.1896  0.5424
  414MOL0     O54551   4.847   1.132   1.922 -0.3833  0.0972 -0.1878
  414MOL0     C54552   4.812   1.153   2.059 -0.1991 -0.0898 -0.3439
  414MOL0     C54553   4.664   1.195   2.051  1.0885 -0.6222 -0.7282
  414MOL0     C54554   4.645   1.325   1.967  0.7290  0.1633  0.1593
  414MOL0     C54555   4.513   1.349   1.899  0.0566 -0.8375 -0.0167
  414MOL0     C54556   4.397   1.396   1.995 -0.5551 -0.1753  0.1245
  414MOL0     C54557   4.344   1.301   2.095  0.5111  0.2897  0.3982
  414MOL0     C54558   4.206   1.358   2.173  0.0924  0.3813 -0.0810
  414MOL0     C54559   4.082   1.340   2.095 -0.0865 -1.5493  0.0407
  414MOL0    Cl54560   3.951   1.355   2.213  0.7370 -0.1948 -0.1750
  414MOL0     C54561   5.014   1.039   1.786 -0.4033 -0.3915  0.2538
  414MOL0     C54562   5.144   1.013   1.750 -0.8470 -0.7480 -0.0459
  414MOL0     O54563   5.434   0.978   2.000 -0.2310  0.1076  0.0352
  414MOL0     C54564   5.666   0.997   1.729 -0.0246  0.8227  0.4405
  414MOL0     C54565   5.798   0.991   1.691  0.2497 -0.6642 -0.7307
  414MOL0     N54566   6.588   1.030   1.526  0.0867 -0.6641 -0.5497
  414MOL0     N54567   6.605   1.097   1.418  0.1410 -0.1545  0.2233
  414MOL0     C54568   7.297   1.302   0.774  1.0083  0.2166  0.3978
  414MOL0     C54569   7.377   1.228   0.692  0.7756 -0.2076 -0.1616
  414MOL0     C54570   7.799   1.126   0.517 -0.5122  0.4547 -0.1017
  414MOL0     C54571   7.919   1.047   0.533 -0.0826  0.2030 -0.0977
  414MOL0     C54572   8.010   1.027   0.424 -0.1558  1.0058 -0.5398
  414MOL0     C54573   7.980   1.088   0.298  0.2810  0.2147  0.0334
  414MOL0     O54574   8.050   1.080   0.181 -0.4863 -0.3311  0.1947
  414MOL0     C54575   8.174   0.997   0.185  0.6213 -0.1820 -0.7782
  414MOL0     C54576   8.234   0.983   0.046  1.1097  0.1216  0.5835
  414MOL0     C54577   8.151   0.916  -0.063 -0.3408 -0.3319  0.5491
  414MOL0     C54578   8.118   0.768  -0.030 -0.0195 -0.3575 -0.6577
  414MOL0     C54579   8.237   0.684  -0.047 -0.3882 -0.3149 -0.4331
  414MOL0     C54580   8.337   0.613  -0.072  0.2193 -0.1257  0.2670
  414MOL0     C54581   7.857   1.128   0.281 -0.0793 -0.0125 -0.3116
  414MOL0     C54582   7.769   1.158   0.384  0.1089 -0.3970  0.3137
  414MOL0     H54583   7.672   1.395   0.751  0.3721  1.4446  0.9518
  414MOL0     H54584   7.497   1.545   0.880 -0.1172 -0.0822 -0.0506
  414MOL0     H54585   7.155   1.544   0.734  3.0053  0.0777  0.8086
  414MOL0     H54586   7.105   1.634   0.876 -0.3997 -0.7533  0.7053
  414MOL0     H54587   7.006   1.363   0.789  2.3392  0.3625  0.4585
  414MOL0     H54588   6.917   1.521   0.811 -2.4224  0.3744  3.6886
  414MOL0     H54589   7.022   1.356   1.021  0.1541  0.3031 -0.3002
  414MOL0     H54590   6.866   1.354   0.962 -0.0719  0.2109 -2.4184
  414MOL0     H54591   6.992   1.613   1.073  0.3477 -0.8650 -0.3937
  414MOL0     H54592   6.825   1.604   1.015 -1.1679 -0.9604  0.7020
  414MOL0     H54593   6.859   1.584   1.270  0.0270  1.6356 -1.8937
  414MOL0     H54594   6.929   1.424   1.241  1.5736  1.2823 -1.4164
  414MOL0     H54595   6.742   1.332   1.133 -0.2026  1.0640 -3.6962
  414MOL0     H54596   6.661   1.488   1.131  1.7490 -0.0115  1.1923
  414MOL0     H54597   6.760   1.338   1.374 -1.1130 -0.0304  3.3664
  414MOL0     H54598   6.677   1.490   1.390 -0.7817  0.3741 -0.6772
  414MOL0     H54599   6.524   1.289   1.233  1.7107  0.0405 -1.1625
  414MOL0     H54600   6.479   1.399   1.367 -0.8306 -3.0028  2.8484
  414MOL0     H54601   6.464   1.311   1.610  2.5519  1.5475  0.4348
  414MOL0     H54602   6.525   1.156   1.824  2.2695 -0.5660  0.0272
  414MOL0     H54603   6.508   0.987   1.801  0.8861 -0.9695 -0.4537
  414MOL0     H54604   6.304   1.215   1.761  0.2048 -0.1076  0.8194
  414MOL0     H54605   6.285   1.084   1.872  0.9799 -0.9928  0.1756
  414MOL0     H54606   6.272   1.046   1.571  2.0608 -2.0792  0.6058
  414MOL0     H54607   6.248   0.915   1.686  0.1834 -0.4698 -1.1243
  414MOL0     H54608   6.041   1.010   1.582 -0.0408  0.3338 -0.0161
  414MOL0     H54609   6.064   1.154   1.687 -1.1576  0.0341  1.4660
  414MOL0     H54610   5.923   1.023   2.009  0.6100  4.8302 -0.9690
  414MOL0     H54611   5.682   1.026   2.071 -2.1811  0.6198 -1.1326
  414MOL0     H54612   5.293   1.225   1.975 -0.3341  0.3931  0.3270
  414MOL0     H54613   5.066   1.274   2.026  0.3166 -1.1142  0.5818
  414MOL0     H54614   4.873   1.236   2.096  3.1116 -1.9608 -1.1915
  414MOL0     H54615   4.843   1.069   2.121  0.4820  1.0225  0.8962
  414MOL0     H54616   4.614   1.219   2.145 -0.5638  1.5962 -2.0499
  414MOL0     H54617   4.613   1.114   1.997  0.5277 -1.6699  1.2864
  414MOL0     H54618   4.716   1.330   1.884 -0.7811  1.2635 -1.1169
  414MOL0     H54619   4.663   1.407   2.038  0.5273 -0.9225  1.5141
  414MOL0     H54620   4.536   1.441   1.844  4.5244  0.5941  3.5995
  414MOL0     H54621   4.485   1.266   1.834 -0.1928 -0.0148 -0.9800
  414MOL0     H54622   4.322   1.421   1.920  0.0852 -1.4076 -0.9693
  414MOL0     H54623   4.426   1.482   2.056 -0.2178 -2.0107  2.7168
  414MOL0     H54624   4.419   1.291   2.174  2.7776  0.8695 -1.5647
  414MOL0     H54625   4.321   1.205   2.047  2.0595 -0.5530  1.2664
  414MOL0     H54626   4.185   1.295   2.260 -1.0241  2.1435  0.9825
  414MOL0     H54627   4.220   1.459   2.210  0.8848  0.0443  0.5612
  414MOL0     H54628   4.079   1.245   2.042  3.9630 -2.0512  0.4278
  414MOL0     H54629   4.069   1.428   2.031 -1.4538 -1.4953  0.3763
  414MOL0     H54630   4.943   0.969   1.743  1.2667 -2.6551  0.9752
  414MOL0     H54631   5.164   0.934   1.679 -1.5046  0.7586 -1.9960
  414MOL0     H54632   5.599   0.990   1.644 -1.2124  2.6885  1.1411
  414MOL0     H54633   5.831   0.976   1.589  2.8131 -3.2445  0.3634
  414MOL0     H54634   7.197   1.262   0.791  0.8035 -0.6850 -2.4776
  414MOL0     H54635   7.344   1.138   0.641  0.1130  0.1718 -0.4214
  414MOL0     H54636   7.965   1.036   0.631 -0.6045  2.9045  0.5321
  414MOL0     H54637   8.102   0.974   0.444 -1.6390 -0.5399  3.1385
  414MOL0     H54638   8.151   0.896   0.220  3.3170 -0.9985 -1.1706
  414MOL0     H54639   8.245   1.032   0.260 -1.4990  0.8270  0.8787
  414MOL0     H54640   8.245   1.085   0.006  0.8616  0.7663  2.0966
  414MOL0     H54641   8.340   0.956   0.049  1.0412 -0.4743 -1.1297
  414MOL0     H54642   8.208   0.932  -0.155  0.1143 -0.0365  0.8775
  414MOL0     H54643   8.057   0.972  -0.067 -2.1649 -3.2491 -0.3154
  414MOL0     H54644   8.084   0.759   0.074  1.9087  4.2727  0.6233
  414MOL0     H54645   8.042   0.733  -0.100  2.0806 -2.5732 -1.9880
  414MOL0     H54646   8.421   0.546  -0.081  0.2306  0.1040 -1.9154
  414MOL0     H54647   7.834   1.154   0.178  3.6606  2.8678 -0.6572
  414MOL0     H54648   7.680   1.217   0.365  0.2086 -0.3135  0.1079
  415MOL0     O54649   1.010   6.746   2.956 -0.4206 -0.8107  0.4622
  415MOL0     C54650   0.933   6.658   2.998  0.3018 -0.4698 -0.1904
  415MOL0     O54651   0.822   6.682   3.080  0.1087  0.4141 -0.9312
  415MOL0     C54652   0.790   6.811   3.109 -0.3566  0.4392  0.6455
  415MOL0     C54653   0.859   6.878   3.207 -0.1566  0.5401 -0.1341
  415MOL0     C54654   0.826   7.004   3.245  0.3857 -0.1406  1.0992
  415MOL0     C54655   0.716   7.066   3.187 -0.8325 -1.1184  1.3296
  415MOL0     O54656   0.683   7.192   3.218  0.5520 -0.8912 -0.4645
  415MOL0     C54657   0.622   7.210   3.347  0.1570  0.1133 -0.0807
  415MOL0     C54658   0.651   7.346   3.414 -0.1285 -0.3603 -0.1681
  415MOL0     C54659   0.800   7.383   3.434  0.1119 -0.4890 -0.5389
  415MOL0     C54660   0.808   7.533   3.472  0.9515 -0.1169  0.2751
  415MOL0     C54661   0.949   7.591   3.483  0.5469 -0.2320 -0.5215
  415MOL0     C54662   0.957   7.737   3.534 -0.0347 -0.4114 -0.2769
  415MOL0     C54663   0.891   7.769   3.669 -0.3390  1.0399 -0.0057
  415MOL0     C54664   0.936   7.686   3.786  0.1056  0.3867 -0.3049
  415MOL0     N54665   0.852   7.723   3.905  0.7097 -0.0249  0.1459
  415MOL0     C54666   0.865   7.842   3.972 -0.7939 -0.2527  0.1100
  415MOL0     C54667   0.754   7.854   4.044 -0.4533  0.5057  0.4198
  415MOL0     C54668   0.721   7.975   4.128 -0.8975  0.0686  0.3257
  415MOL0     C54669   0.809   7.982   4.251  0.1641  0.0500  0.0955
  415MOL0     C54670   0.802   8.113   4.326 -0.7319  0.3003  0.3976
  415MOL0     C54671   0.921   8.122   4.424 -0.1038  0.4804  0.7297
  415MOL0     O54672   1.036   8.127   4.343 -0.5181 -0.5490 -0.2175
  415MOL0     C54673   1.151   8.188   4.395  0.0229  0.2372 -0.1154
  415MOL0     C54674   1.266   8.190   4.323 -0.0103  0.3778 -0.6007
  415MOL0     C54675   1.391   8.225   4.374 -0.1519 -1.0520  0.1186
  415MOL0     C54676   1.398   8.265   4.508  0.2861 -0.2958  0.7560
  415MOL0     C54677   1.529   8.318   4.575  0.0721 -0.5827 -0.8417
  415MOL0     O54678   1.642   8.340   4.493 -0.4905 -1.1966  0.2038
  415MOL0     C54679   1.765   8.368   4.558  0.4904  0.2690  0.5012
  415MOL0     C54680   1.804   8.493   4.590 -0.1868  0.5775 -0.4550
  415MOL0     C54681   1.934   8.512   4.636 -0.4305  0.8372  1.2629
  415MOL0     C54682   2.026   8.409   4.652  0.5800 -0.4081 -0.6377
  415MOL0     O54683   2.146   8.443   4.703  0.4322 -0.0964  0.1562
  415MOL0     C54684   2.258   8.414   4.617  0.0742  0.1170 -0.0960
  415MOL0     C54685   2.359   8.525   4.612 -0.0022  0.7922 -0.8582
  415MOL0     C54686   2.489   8.481   4.548 -0.3527 -0.6532  0.4078
  415MOL0     C54687   2.590   8.597   4.542 -0.4102  0.3817  0.0693
  415MOL0     C54688   2.718   8.546   4.467  0.4604  0.6988 -0.3309
  415MOL0     C54689   2.700   8.509   4.327  0.5314 -0.0630  0.4377
  415MOL0     C54690   2.832   8.482   4.247  0.0093  0.4957 -0.6516
  415MOL0     C54691   2.892   8.611   4.191  0.1693  0.5166  0.6306
  415MOL0    Cl54692   3.084   8.620   4.198  0.9660  0.3157 -0.1057
  415MOL0     C54693   1.988   8.292   4.601  0.0770 -0.4475 -0.5688
  415MOL0     C54694   1.853   8.264   4.568 -0.6101  0.2855  0.1506
  415MOL0     O54695   1.522   8.345   4.696  0.1897 -0.1625 -0.4249
  415MOL0     C54696   1.277   8.282   4.579  0.3624 -0.2174  1.2461
  415MOL0     C54697   1.158   8.232   4.526 -0.7854 -0.1946 -0.2634
  415MOL0     N54698   0.664   7.748   4.025  0.1242  0.5318  0.1800
  415MOL0     N54699   0.729   7.662   3.944 -1.0531 -0.0832  0.6532
  415MOL0     C54700   0.643   7.008   3.086 -0.9413 -0.1979 -0.7724
  415MOL0     C54701   0.682   6.874   3.043  0.0402 -0.4883  0.5339
  415MOL0     C54702   0.957   6.521   2.976  0.1032  1.1659 -0.1265
  415MOL0     C54703   0.886   6.417   3.049  0.7408  0.4857  0.8450
  415MOL0     C54704   0.927   6.282   3.040  0.3353 -0.8245 -0.3909
  415MOL0     C54705   1.029   6.247   2.945  0.5899 -0.2539  1.0554
  415MOL0     O54706   1.064   6.123   2.909  0.4012  0.2297 -0.1706
  415MOL0     C54707   1.024   6.013   2.991  0.5818 -0.2198 -0.6991
  415MOL0     C54708   1.041   5.879   2.934 -0.4417  0.9637  0.6657
  415MOL0     C54709   0.968   5.867   2.795 -0.1895  0.0946 -0.1636
  415MOL0     C54710   0.999   5.730   2.733  0.2765 -0.4501 -0.3729
  415MOL0     C54711   0.962   5.608   2.805 -0.0757 -0.5369  0.2934
  415MOL0     C54712   0.942   5.512   2.860 -0.3317  0.6618  0.1720
  415MOL0     C54713   1.097   6.343   2.869  0.3966 -0.8262  0.2728
  415MOL0     C54714   1.062   6.480   2.890  0.2593  0.4939  0.0151
  415MOL0     H54715   0.933   6.824   3.265  1.4402  2.3761 -0.3803
  415MOL0     H54716   0.882   7.043   3.330 -3.6644  2.0201  3.1003
  415MOL0     H54717   0.653   7.130   3.416 -0.4221  0.6393  0.8052
  415MOL0     H54718   0.515   7.199   3.330 -0.5194  1.1686  2.9663
  415MOL0     H54719   0.605   7.357   3.512  1.2178  1.0112  0.3440
  415MOL0     H54720   0.608   7.421   3.347 -0.4965 -1.7642 -1.5801
  415MOL0     H54721   0.855   7.374   3.341  1.3557  1.6284 -0.0662
  415MOL0     H54722   0.855   7.324   3.507 -0.2617  1.4658  1.4509
  415MOL0     H54723   0.749   7.591   3.401  0.4034 -0.2457  0.6169
  415MOL0     H54724   0.759   7.545   3.570 -0.6614  1.1290 -0.6384
  415MOL0     H54725   1.007   7.587   3.391  1.3195 -2.2300  0.0141
  415MOL0     H54726   0.998   7.524   3.554 -3.0134 -1.5964  0.8738
  415MOL0     H54727   0.915   7.810   3.464  0.4832 -0.7166 -0.9150
  415MOL0     H54728   1.062   7.766   3.543  0.2973 -0.5149 -2.9563
  415MOL0     H54729   0.917   7.875   3.677 -0.1124  0.8756  1.8202
  415MOL0     H54730   0.785   7.744   3.660 -0.5301  1.2285  1.5554
  415MOL0     H54731   1.038   7.713   3.813  1.2186 -1.6417 -2.0967
  415MOL0     H54732   0.946   7.578   3.778  3.3122  0.5778  0.0104
  415MOL0     H54733   0.950   7.909   3.971  0.6482 -1.9816  1.7718
  415MOL0     H54734   0.617   7.965   4.162 -0.7707 -1.4329  0.3568
  415MOL0     H54735   0.744   8.063   4.068  2.9817 -0.1195  1.2686
  415MOL0     H54736   0.910   7.967   4.211  1.8168 -0.1313  3.9030
  415MOL0     H54737   0.807   7.903   4.327 -0.3148 -0.2447 -0.2214
  415MOL0     H54738   0.816   8.199   4.260  4.9215 -0.5385  0.0103
  415MOL0     H54739   0.707   8.120   4.379  0.8591  0.0215  3.5285
  415MOL0     H54740   0.930   8.034   4.488  0.5133  1.1382  1.5626
  415MOL0     H54741   0.911   8.216   4.478 -3.7672 -0.0094  1.1553
  415MOL0     H54742   1.275   8.150   4.222 -1.5990 -3.0973  0.5011
  415MOL0     H54743   1.482   8.216   4.315  0.6908  0.7572  1.0472
  415MOL0     H54744   1.736   8.577   4.581  1.4493  1.7702 -2.6887
  415MOL0     H54745   1.952   8.611   4.678  0.2314  2.0123 -1.5934
  415MOL0     H54746   2.224   8.389   4.516  0.1794 -1.0885  0.1505
  415MOL0     H54747   2.300   8.325   4.666  0.7259  0.8890  0.7934
  415MOL0     H54748   2.398   8.552   4.710 -0.2983  2.4829 -1.1848
  415MOL0     H54749   2.320   8.613   4.560 -1.1716  2.1007  2.0382
  415MOL0     H54750   2.466   8.441   4.449 -1.4542 -1.3587  0.9288
  415MOL0     H54751   2.535   8.403   4.610  0.7736  0.2398  0.7211
  415MOL0     H54752   2.547   8.670   4.473 -2.0279  1.8302  2.4769
  415MOL0     H54753   2.610   8.649   4.636  3.3235 -0.8655  0.1317
  415MOL0     H54754   2.761   8.458   4.514 -0.3738  0.3824 -0.1441
  415MOL0     H54755   2.785   8.632   4.474  2.1961 -0.5623 -0.7131
  415MOL0     H54756   2.633   8.578   4.275  0.5916 -0.3829 -0.0710
  415MOL0     H54757   2.642   8.416   4.320  0.6316 -0.3657  2.8835
  415MOL0     H54758   2.914   8.440   4.306 -0.5627 -0.0491 -0.2372
  415MOL0     H54759   2.804   8.423   4.160 -2.5155  1.6635 -0.7216
  415MOL0     H54760   2.848   8.696   4.246 -0.0641 -0.1326  1.4810
  415MOL0     H54761   2.858   8.615   4.087  1.5642  0.9773  0.1773
  415MOL0     H54762   2.058   8.210   4.596 -0.5478 -0.9054 -2.2220
  415MOL0     H54763   1.820   8.164   4.542 -1.7857  0.3936  1.1608
  415MOL0     H54764   1.273   8.324   4.679 -1.1654  0.8886  0.7641
  415MOL0     H54765   1.071   8.236   4.591  0.0079  2.2603  0.7906
  415MOL0     H54766   0.551   7.049   3.044 -0.3286 -0.6021 -2.5832
  415MOL0     H54767   0.628   6.814   2.971  2.0756 -0.2066 -1.3540
  415MOL0     H54768   0.802   6.447   3.112  0.4911 -2.1107  1.8561
  415MOL0     H54769   0.888   6.201   3.101  5.4989 -2.8738  0.8042
  415MOL0     H54770   0.917   6.016   3.013  0.2745  3.2971 -1.9685
  415MOL0     H54771   1.072   6.028   3.088 -1.1231 -0.9483  0.2977
  415MOL0     H54772   1.148   5.863   2.915 -0.8002 -0.4511 -0.3345
  415MOL0     H54773   1.020   5.797   3.003  0.7684  0.2525  0.2190
  415MOL0     H54774   1.004   5.954   2.739  0.8887 -0.0658  0.2460
  415MOL0     H54775   0.863   5.885   2.819  0.2770  1.7788  0.6886
  415MOL0     H54776   0.950   5.741   2.636  1.8107  3.2240 -0.8630
  415MOL0     H54777   1.106   5.724   2.713  0.0269 -2.7138 -1.4287
  415MOL0     H54778   0.918   5.414   2.898 -2.5381  1.7365  1.7504
  415MOL0     H54779   1.173   6.323   2.794  1.6797  1.8072  0.7678
  415MOL0     H54780   1.121   6.556   2.839 -0.1221 -0.1273 -1.3807
  416MOL0     O54781   7.562   0.276   2.592 -0.0458  0.3323 -1.1333
  416MOL0     C54782   7.549   0.181   2.515 -0.0286  0.8187  0.4629
  416MOL0     O54783   7.648   0.131   2.431 -0.0019  0.5574 -0.3989
  416MOL0     C54784   7.771   0.189   2.436  0.0044 -0.5493 -0.4471
  416MOL0     C54785   7.782   0.307   2.372  0.1661  0.0992  0.3009
  416MOL0     C54786   7.909   0.357   2.349  0.1821  0.7044 -0.1650
  416MOL0     C54787   8.026   0.293   2.397  0.5887  0.2239 -0.5542
  416MOL0     O54788   8.153   0.343   2.387  0.7441  0.4391 -0.3074
  416MOL0     C54789   8.200   0.354   2.250  0.0056 -0.2631  0.2479
  416MOL0     C54790   8.322   0.441   2.235  0.0016 -0.4857  0.6749
  416MOL0     C54791   8.432   0.427   2.342 -0.4232  0.2101 -0.6167
  416MOL0     C54792   8.512   0.296   2.321 -0.5241  0.0454 -0.5910
  416MOL0     C54793   8.625   0.292   2.422 -0.0342 -0.2265 -0.8586
  416MOL0     C54794   8.753   0.222   2.373 -0.6912  0.2781  0.2585
  416MOL0     C54795   8.800   0.266   2.236 -0.9685 -0.0879 -0.4634
  416MOL0     C54796   8.862   0.410   2.231  0.6948 -0.2073 -0.0470
  416MOL0     N54797   8.770   0.516   2.209 -0.1669 -0.7739 -0.3190
  416MOL0     C54798   8.753   0.628   2.284  0.2126  0.5270 -0.6304
  416MOL0     C54799   8.667   0.708   2.216 -0.0267 -0.8159 -0.0857
  416MOL0     C54800   8.611   0.833   2.268 -0.0540  1.1055  0.8284
  416MOL0     C54801   8.461   0.867   2.227 -1.3059  0.7215  0.4380
  416MOL0     C54802   8.381   0.964   2.311 -0.2413  0.4733 -0.2366
  416MOL0     C54803   8.227   0.990   2.270  0.2379  0.7254  0.1156
  416MOL0     O54804   8.164   0.854   2.276  0.0078 -0.5780 -0.5315
  416MOL0     C54805   8.040   0.847   2.331 -0.2525  0.6493 -0.2265
  416MOL0     C54806   8.006   0.717   2.384 -0.6856 -0.6724 -0.2270
  416MOL0     C54807   7.879   0.696   2.445 -0.8786 -0.1826  0.3429
  416MOL0     C54808   7.785   0.797   2.456  0.3723  0.1234 -0.4928
  416MOL0     C54809   7.644   0.778   2.518 -0.4490  0.2256 -0.2310
  416MOL0     O54810   7.640   0.694   2.622  0.0914 -0.5860  0.4434
  416MOL0     C54811   7.511   0.659   2.673 -0.1796  0.2625 -0.6821
  416MOL0     C54812   7.518   0.539   2.753  0.0793 -0.4659  0.7052
  416MOL0     C54813   7.401   0.497   2.821 -0.5577 -0.3760  0.5740
  416MOL0     C54814   7.288   0.579   2.816 -0.1254 -0.1254  0.5296
  416MOL0     O54815   7.178   0.527   2.884  0.0950 -0.1353  0.3266
  416MOL0     C54816   7.046   0.525   2.822  0.1788 -0.2872 -0.1636
  416MOL0     C54817   7.029   0.406   2.734  0.2463  0.4161  0.4206
  416MOL0     C54818   6.913   0.411   2.624 -0.9094  0.5427 -1.2980
  416MOL0     C54819   6.783   0.393   2.676 -0.3541  0.0063  0.4023
  416MOL0     C54820   6.675   0.383   2.563 -0.3559  0.7185 -0.2890
  416MOL0     C54821   6.625   0.519   2.513 -0.0099  0.7466 -0.0500
  416MOL0     C54822   6.513   0.506   2.403  0.2100  0.5621  0.4649
  416MOL0     C54823   6.446   0.641   2.396  0.4215 -0.4382  0.3720
  416MOL0    Cl54824   6.532   0.761   2.294 -0.8054 -0.4367 -0.3125
  416MOL0     C54825   7.285   0.702   2.748  0.4064 -0.8362  0.9722
  416MOL0     C54826   7.394   0.742   2.668  0.6590 -0.0948 -0.1507
  416MOL0     O54827   7.547   0.823   2.459 -0.3397  0.3365  0.1285
  416MOL0     C54828   7.809   0.923   2.394  0.0090  0.1653 -0.3576
  416MOL0     C54829   7.937   0.943   2.337 -0.4936  0.9409 -0.2532
  416MOL0     N54830   8.636   0.646   2.094 -0.3437  0.5361  0.6867
  416MOL0     N54831   8.696   0.536   2.088 -0.6083 -0.0965  0.0266
  416MOL0     C54832   8.009   0.179   2.483 -0.2716 -0.4442  0.1191
  416MOL0     C54833   7.878   0.126   2.495 -0.4876 -0.4636  0.7184
  416MOL0     C54834   7.415   0.119   2.520 -0.6146  0.6605  0.4250
  416MOL0     C54835   7.402  -0.021   2.478 -0.3447  0.7119 -0.7871
  416MOL0     C54836   7.280  -0.083   2.483 -0.6400  0.3745  0.2412
  416MOL0     C54837   7.166  -0.022   2.535 -0.3672 -0.8749 -0.2722
  416MOL0     O54838   7.040  -0.080   2.549  0.7106  0.2709 -0.4250
  416MOL0     C54839   7.031  -0.226   2.523  0.6820  0.0553 -0.1343
  416MOL0     C54840   6.921  -0.278   2.611  0.0242  0.1499 -0.3374
  416MOL0     C54841   6.927  -0.419   2.665 -1.0065  0.1711  0.1214
  416MOL0     C54842   6.778  -0.460   2.685  0.1688  0.6436  0.0114
  416MOL0     C54843   6.772  -0.581   2.764  1.2267  0.7138 -0.0083
  416MOL0     C54844   6.776  -0.690   2.809 -0.3058 -0.5709 -0.0194
  416MOL0     C54845   7.177   0.112   2.581 -0.9906 -0.2905 -0.2725
  416MOL0     C54846   7.296   0.182   2.573 -1.0327  0.2066 -0.3783
  416MOL0     H54847   7.694   0.348   2.324  2.5661 -0.2492 -5.0544
  416MOL0     H54848   7.929   0.445   2.289  0.8555  1.2363  0.8032
  416MOL0     H54849   8.130   0.401   2.180  1.4670  1.7236  0.0457
  416MOL0     H54850   8.238   0.259   2.209  2.5523  1.0584 -0.6859
  416MOL0     H54851   8.285   0.543   2.248 -1.8132 -1.1700  1.1709
  416MOL0     H54852   8.357   0.437   2.131  1.4957  0.9441  1.0817
  416MOL0     H54853   8.382   0.439   2.438 -1.3999  1.1849 -1.2264
  416MOL0     H54854   8.493   0.518   2.335  0.6945 -0.4609  0.0605
  416MOL0     H54855   8.444   0.211   2.336 -0.3591  0.2831  1.9554
  416MOL0     H54856   8.535   0.299   2.214  0.4731  0.4639 -0.3713
  416MOL0     H54857   8.582   0.244   2.511  1.2296  0.2641  0.0537
  416MOL0     H54858   8.654   0.391   2.459 -1.4318 -0.2322  0.3764
  416MOL0     H54859   8.742   0.115   2.390 -2.7450  0.2073 -1.1145
  416MOL0     H54860   8.830   0.253   2.444 -1.0199  0.1784  0.6595
  416MOL0     H54861   8.870   0.190   2.201 -0.8282 -0.8267  1.3218
  416MOL0     H54862   8.723   0.269   2.158 -0.6326  1.0617 -0.7739
  416MOL0     H54863   8.945   0.410   2.159  1.8484 -2.1322  1.1632
  416MOL0     H54864   8.903   0.428   2.331  1.2499  0.9815 -0.4786
  416MOL0     H54865   8.807   0.653   2.375  0.3223  1.3955 -0.9182
  416MOL0     H54866   8.681   0.910   2.234 -0.7667  1.5965  0.4370
  416MOL0     H54867   8.603   0.846   2.376  1.1647  2.6805  0.7679
  416MOL0     H54868   8.413   0.770   2.247 -0.2821 -0.1246 -1.0176
  416MOL0     H54869   8.457   0.878   2.118  0.6111  0.4153  0.3053
  416MOL0     H54870   8.381   0.916   2.409  1.2849 -0.1138 -0.4993
  416MOL0     H54871   8.434   1.060   2.314  0.1905  0.2225  0.2947
  416MOL0     H54872   8.215   1.024   2.167  1.4524  1.9165  0.3540
  416MOL0     H54873   8.181   1.059   2.341 -2.6203  0.3079 -1.1908
  416MOL0     H54874   8.082   0.641   2.378  1.5319  1.2969  0.9860
  416MOL0     H54875   7.866   0.598   2.490 -3.4180 -0.0007  0.1590
  416MOL0     H54876   7.614   0.488   2.758  1.5005  1.9085 -0.5339
  416MOL0     H54877   7.403   0.391   2.846  1.0386  0.2829  3.6329
  416MOL0     H54878   7.031   0.614   2.760  0.8721  1.8325  2.5310
  416MOL0     H54879   6.962   0.531   2.892  2.0577  0.0642  2.1573
  416MOL0     H54880   7.007   0.322   2.801  0.0327 -0.6883 -0.9860
  416MOL0     H54881   7.123   0.375   2.685 -0.4440 -2.3724  0.6628
  416MOL0     H54882   6.929   0.333   2.550  0.2348  2.2649 -2.9747
  416MOL0     H54883   6.930   0.511   2.582  1.1673  1.2422  0.9725
  416MOL0     H54884   6.774   0.299   2.732  0.4873  0.8673  2.0713
  416MOL0     H54885   6.761   0.465   2.755 -0.9391 -0.0082  0.2521
  416MOL0     H54886   6.590   0.331   2.607  0.3015 -0.9018 -0.8831
  416MOL0     H54887   6.714   0.328   2.477  1.9318  2.0141 -0.1624
  416MOL0     H54888   6.712   0.568   2.468 -1.1895  2.7760 -0.2663
  416MOL0     H54889   6.597   0.582   2.597  0.1736  0.3053  0.3445
  416MOL0     H54890   6.564   0.494   2.307 -1.4181  4.0414 -1.0000
  416MOL0     H54891   6.448   0.421   2.428 -1.5359  2.2256  1.9407
  416MOL0     H54892   6.415   0.681   2.493 -1.0719 -0.7717  0.0478
  416MOL0     H54893   6.355   0.621   2.338  0.4134  0.7150 -0.0492
  416MOL0     H54894   7.193   0.758   2.744  0.4313 -0.6845  2.1416
  416MOL0     H54895   7.389   0.832   2.608 -0.6486  2.5443  3.6125
  416MOL0     H54896   7.721   0.986   2.385 -0.6980 -0.9215 -1.5162
  416MOL0     H54897   7.963   1.044   2.305  1.0218  1.0285  1.1292
  416MOL0     H54898   8.099   0.134   2.524  0.6459  1.6004  0.4915
  416MOL0     H54899   7.865   0.025   2.533  2.2735 -2.5527 -3.2197
  416MOL0     H54900   7.487  -0.077   2.439 -1.7426 -1.1381 -1.3169
  416MOL0     H54901   7.282  -0.184   2.445  0.1630  1.4587 -2.8757
  416MOL0     H54902   7.124  -0.272   2.560  1.0028 -0.4993 -1.5530
  416MOL0     H54903   7.005  -0.240   2.418 -0.7979  1.1076  0.0720
  416MOL0     H54904   6.922  -0.215   2.700  0.1713  0.1768 -0.3580
  416MOL0     H54905   6.829  -0.268   2.552 -0.3994 -3.3191 -0.4680
  416MOL0     H54906   6.982  -0.428   2.759  1.1702  1.5215 -0.9399
  416MOL0     H54907   6.977  -0.483   2.592 -0.1120 -0.0750  0.9262
  416MOL0     H54908   6.722  -0.381   2.736  3.7094  1.9452  2.3399
  416MOL0     H54909   6.736  -0.470   2.585 -2.0667  1.4291  0.8065
  416MOL0     H54910   6.779  -0.781   2.866  0.8216 -0.4209  0.1867
  416MOL0     H54911   7.090   0.158   2.626  0.2915  2.8705 -0.7749
  416MOL0     H54912   7.305   0.285   2.607  2.7813  0.5284 -1.8276
  417MOL0     O54913   6.339   4.536   1.903  0.2487  0.1071  0.1320
  417MOL0     C54914   6.415   4.445   1.862  0.7391 -0.8131  0.2763
  417MOL0     O54915   6.378   4.338   1.792  0.3475  0.0539 -0.9657
  417MOL0     C54916   6.245   4.303   1.759  0.4430  0.3423 -0.3656
  417MOL0     C54917   6.144   4.393   1.741  0.4318  0.5373 -0.3024
  417MOL0     C54918   6.011   4.352   1.711 -0.3493 -0.3185 -0.5374
  417MOL0     C54919   5.978   4.219   1.696  0.5642  0.5237 -0.7040
  417MOL0     O54920   5.849   4.173   1.681 -0.8776 -0.1813  0.8692
  417MOL0     C54921   5.749   4.245   1.754  0.5316  0.8454  0.5339
  417MOL0     C54922   5.670   4.329   1.655  0.3260 -0.6787 -0.1598
  417MOL0     C54923   5.540   4.395   1.698  0.5725  0.2399  0.5686
  417MOL0     C54924   5.427   4.285   1.698  1.1303  0.1901  0.2492
  417MOL0     C54925   5.305   4.349   1.765 -0.5174 -0.5164  0.7004
  417MOL0     C54926   5.181   4.264   1.745 -0.1083 -0.3489 -0.5529
  417MOL0     C54927   5.050   4.324   1.787 -0.2722  0.2189 -0.2878
  417MOL0     C54928   5.032   4.327   1.940 -0.1016 -0.4706 -0.3277
  417MOL0     N54929   4.896   4.372   1.972 -1.0924  0.4663 -0.5082
  417MOL0     C54930   4.856   4.506   1.984  0.4609  0.3702  0.1859
  417MOL0     C54931   4.733   4.498   2.030  0.3053  0.5237  0.5650
  417MOL0     C54932   4.635   4.615   2.050  0.0979 -0.3368  0.4951
  417MOL0     C54933   4.653   4.705   1.923 -0.0753 -0.4812 -0.2086
  417MOL0     C54934   4.555   4.817   1.916  0.7705  0.3936 -0.3950
  417MOL0     C54935   4.407   4.781   1.866 -0.1301  0.0009  0.2463
  417MOL0     O54936   4.326   4.766   1.977  0.2362  0.0470  0.2633
  417MOL0     C54937   4.196   4.795   1.970  0.1926  0.1118 -0.4963
  417MOL0     C54938   4.114   4.701   2.038 -0.4199  0.6170  0.2657
  417MOL0     C54939   3.973   4.705   2.018  0.1746  0.0620  0.2916
  417MOL0     C54940   3.912   4.819   1.963  0.1985 -0.1097 -0.5302
  417MOL0     C54941   3.759   4.835   1.970 -0.4532 -1.2954  0.1514
  417MOL0     O54942   3.680   4.723   1.985 -0.0993 -1.2442  0.4196
  417MOL0     C54943   3.544   4.749   1.985 -0.5832 -0.7368 -1.4448
  417MOL0     C54944   3.465   4.687   1.893 -0.2247  0.3868 -0.3998
  417MOL0     C54945   3.329   4.706   1.901  0.9300 -0.4439 -0.0914
  417MOL0     C54946   3.271   4.796   1.995  1.2728  0.9054  0.1938
  417MOL0     O54947   3.133   4.821   2.001  0.7338  0.8848 -0.1731
  417MOL0     C54948   3.051   4.739   1.916  0.0490 -0.9002  0.6174
  417MOL0     C54949   2.901   4.775   1.922  0.1973  0.7541  0.5788
  417MOL0     C54950   2.825   4.660   1.842 -0.2350 -0.9530  0.9962
  417MOL0     C54951   2.681   4.711   1.827 -1.3768 -0.3765  0.0028
  417MOL0     C54952   2.617   4.716   1.967 -0.0128  0.1356  0.2884
  417MOL0     C54953   2.466   4.721   1.958 -0.2767 -0.3694 -0.0718
  417MOL0     C54954   2.399   4.607   1.879  0.2202 -0.6307  0.2419
  417MOL0     C54955   2.252   4.620   1.875  0.5137 -0.2043  0.6513
  417MOL0    Cl54956   2.185   4.748   1.769 -0.1988 -0.0508  0.2374
  417MOL0     C54957   3.350   4.844   2.093 -0.8167 -0.3426  0.4176
  417MOL0     C54958   3.487   4.813   2.092 -0.3639  0.1365 -0.7237
  417MOL0     O54959   3.722   4.952   1.965  0.2805 -0.2559  0.0101
  417MOL0     C54960   4.003   4.920   1.927  0.4815  1.1525  0.5385
  417MOL0     C54961   4.142   4.905   1.921 -1.3676  0.4930  0.0927
  417MOL0     N54962   4.683   4.368   2.034 -0.2339 -0.1904 -0.0467
  417MOL0     N54963   4.792   4.295   1.995  0.6511 -0.3849  0.3657
  417MOL0     C54964   6.083   4.128   1.703  0.3265 -0.1429 -0.0298
  417MOL0     C54965   6.209   4.169   1.731 -0.5304 -0.6086 -0.2311
  417MOL0     C54966   6.551   4.459   1.893  0.7446  0.8934 -0.4547
  417MOL0     C54967   6.652   4.396   1.815 -0.1746 -0.2610 -0.4513
  417MOL0     C54968   6.785   4.416   1.840 -0.1703 -0.5909 -0.5842
  417MOL0     C54969   6.825   4.492   1.947  0.7266  0.0718  0.1589
  417MOL0     O54970   6.964   4.516   1.971  0.5570  0.3794 -0.0931
  417MOL0     C54971   7.001   4.562   2.099  0.2691 -0.2868  0.1015
  417MOL0     C54972   7.152   4.573   2.113 -0.1069 -0.7455  0.1129
  417MOL0     C54973   7.217   4.646   1.991 -0.9259  0.2945 -0.8559
  417MOL0     C54974   7.364   4.660   2.011 -0.1989  0.1264  0.3762
  417MOL0     C54975   7.438   4.543   2.050  0.2619 -0.8107 -0.2613
  417MOL0     C54976   7.521   4.458   2.073  0.5831 -0.9249 -0.4229
  417MOL0     C54977   6.730   4.551   2.030  0.5988 -0.7164  0.6178
  417MOL0     C54978   6.593   4.546   1.994  0.0967  0.5018 -0.5255
  417MOL0     H54979   6.148   4.501   1.753 -1.5731  0.9540 -2.5049
  417MOL0     H54980   5.929   4.423   1.710 -1.0100 -0.9360  1.7740
  417MOL0     H54981   5.791   4.299   1.839  1.8048  0.8542 -0.0729
  417MOL0     H54982   5.680   4.174   1.801  1.1653 -0.3280 -0.2336
  417MOL0     H54983   5.659   4.270   1.564  2.4426  0.0951 -0.9868
  417MOL0     H54984   5.737   4.406   1.615 -0.8785 -0.2851 -1.5128
  417MOL0     H54985   5.510   4.475   1.630 -1.4660  1.1596  2.4145
  417MOL0     H54986   5.559   4.446   1.793  1.7609 -0.1609  0.5610
  417MOL0     H54987   5.406   4.274   1.592  2.0110 -1.9536  0.2375
  417MOL0     H54988   5.460   4.196   1.753 -0.2021  0.6333  1.8403
  417MOL0     H54989   5.295   4.441   1.708  3.1847 -0.4762 -0.1486
  417MOL0     H54990   5.326   4.391   1.864 -1.5872  2.6694 -0.3118
  417MOL0     H54991   5.206   4.176   1.804 -0.5479  0.6650  1.2331
  417MOL0     H54992   5.164   4.236   1.641  1.1204 -1.8735 -0.3746
  417MOL0     H54993   5.033   4.423   1.742 -0.2968 -0.7570 -2.5494
  417MOL0     H54994   4.967   4.261   1.754 -0.9034  0.1855  1.2702
  417MOL0     H54995   5.114   4.385   1.984  1.2698 -0.4645 -2.7229
  417MOL0     H54996   5.047   4.227   1.981 -2.5951 -0.7013  0.1740
  417MOL0     H54997   4.918   4.593   1.966  0.0343  0.6338 -0.0109
  417MOL0     H54998   4.656   4.663   2.146  0.2322  0.9371 -0.1585
  417MOL0     H54999   4.532   4.577   2.058 -0.8757  2.3607  2.2769
  417MOL0     H55000   4.653   4.646   1.831  0.3857 -0.4182 -0.2524
  417MOL0     H55001   4.752   4.750   1.937 -0.4645 -0.3904  2.8225
  417MOL0     H55002   4.552   4.866   2.013  0.6259 -0.0954 -0.1496
  417MOL0     H55003   4.604   4.888   1.848 -0.1294  0.6055 -0.8401
  417MOL0     H55004   4.414   4.690   1.805 -1.1058 -1.2179  1.8749
  417MOL0     H55005   4.373   4.862   1.801 -0.3800  1.1829  1.7990
  417MOL0     H55006   4.173   4.619   2.077 -0.2689 -0.6333 -2.3593
  417MOL0     H55007   3.920   4.618   2.056 -3.2751  1.7469 -0.2614
  417MOL0     H55008   3.500   4.618   1.817 -1.1354 -0.9895  0.3779
  417MOL0     H55009   3.268   4.659   1.824 -0.9646  0.3090  0.8934
  417MOL0     H55010   3.052   4.639   1.961  1.3672 -0.8282  0.7795
  417MOL0     H55011   3.076   4.748   1.810 -1.1496 -2.2749  0.1957
  417MOL0     H55012   2.883   4.879   1.897  0.3968  1.7378  4.0035
  417MOL0     H55013   2.864   4.760   2.024 -0.4267 -0.8195  0.1611
  417MOL0     H55014   2.821   4.562   1.889  0.4988 -2.2259 -1.3937
  417MOL0     H55015   2.868   4.653   1.741  1.3286 -1.8061  1.6839
  417MOL0     H55016   2.668   4.807   1.775 -0.3275 -0.1669  0.0945
  417MOL0     H55017   2.626   4.639   1.766 -1.4348  0.9980 -1.6722
  417MOL0     H55018   2.651   4.808   2.016  0.7846 -0.0777  0.1497
  417MOL0     H55019   2.650   4.629   2.025  0.4846  1.0924  1.4791
  417MOL0     H55020   2.449   4.817   1.909  0.1925 -1.0418 -1.6365
  417MOL0     H55021   2.433   4.722   2.062 -2.3568 -2.3548 -0.6281
  417MOL0     H55022   2.425   4.615   1.773 -0.4358  2.4356  0.2167
  417MOL0     H55023   2.435   4.510   1.913 -0.4870 -1.1959 -0.5601
  417MOL0     H55024   2.205   4.619   1.974  0.6098  0.2506  0.7070
  417MOL0     H55025   2.230   4.522   1.831  0.7690 -1.3572  2.9429
  417MOL0     H55026   3.304   4.908   2.168  2.0682  0.6419  1.5008
  417MOL0     H55027   3.541   4.837   2.182 -1.1656  1.7249 -0.6246
  417MOL0     H55028   3.969   5.018   1.892  5.0040  2.1871 -1.7461
  417MOL0     H55029   4.212   4.985   1.897  1.7395 -2.0492 -0.0732
  417MOL0     H55030   6.062   4.024   1.681 -4.0027  0.6834 -0.7620
  417MOL0     H55031   6.293   4.101   1.739  0.0543  0.0148 -0.8967
  417MOL0     H55032   6.612   4.328   1.740 -1.6456 -1.1126  1.0664
  417MOL0     H55033   6.861   4.362   1.784  1.0293  0.1399  0.2815
  417MOL0     H55034   6.951   4.504   2.178  1.3735  0.0700  1.0851
  417MOL0     H55035   6.963   4.664   2.113  2.2379  0.5342 -0.2810
  417MOL0     H55036   7.180   4.621   2.207 -0.8440 -1.2763  0.6120
  417MOL0     H55037   7.202   4.479   2.138  1.1341 -0.6534 -1.8432
  417MOL0     H55038   7.169   4.745   1.990  0.4201  1.2187  3.7761
  417MOL0     H55039   7.190   4.590   1.901 -0.5882  0.4005 -1.0245
  417MOL0     H55040   7.405   4.694   1.915 -0.0211 -2.7916 -0.6840
  417MOL0     H55041   7.390   4.738   2.083  1.2964  0.2809 -0.2917
  417MOL0     H55042   7.617   4.412   2.086  1.1443  0.2896 -0.1218
  417MOL0     H55043   6.763   4.610   2.115  1.5757 -1.2305  0.6102
  417MOL0     H55044   6.516   4.593   2.054 -1.3484 -0.9629 -1.1620
  418MOL0     O55045   7.766   3.266   2.223 -0.5980 -0.1317 -1.0477
  418MOL0     C55046   7.801   3.286   2.104 -0.2503 -0.2553  0.5372
  418MOL0     O55047   7.715   3.274   1.997  0.2438 -0.3997  0.2794
  418MOL0     C55048   7.586   3.258   2.025  0.1309 -0.8091 -0.6675
  418MOL0     C55049   7.516   3.155   1.968 -0.6217  0.1713  1.2953
  418MOL0     C55050   7.376   3.145   1.973  0.1570 -0.6842 -0.0559
  418MOL0     C55051   7.301   3.248   2.038  0.4819 -1.3304 -0.3377
  418MOL0     O55052   7.164   3.229   2.047  0.2158  0.1667  0.5747
  418MOL0     C55053   7.111   3.227   2.184 -0.6042 -0.6320  0.1105
  418MOL0     C55054   6.958   3.232   2.194 -0.0333 -0.2736  0.2002
  418MOL0     C55055   6.924   3.230   2.343  0.5886  0.0641 -0.2768
  418MOL0     C55056   6.795   3.304   2.378  0.0536  0.0034  0.3590
  418MOL0     C55057   6.671   3.217   2.357 -0.5420  0.5278 -0.3400
  418MOL0     C55058   6.548   3.294   2.415 -0.2735 -0.0795  0.0183
  418MOL0     C55059   6.444   3.177   2.441 -0.8016 -0.3352 -0.1468
  418MOL0     C55060   6.301   3.211   2.405 -0.5047 -0.0269  0.2017
  418MOL0     N55061   6.222   3.083   2.406  0.8739  0.4595  0.7275
  418MOL0     C55062   6.139   3.054   2.510  0.5149 -0.8698 -0.1638
  418MOL0     C55063   6.069   2.944   2.477 -0.4379 -0.1153 -0.2384
  418MOL0     C55064   5.958   2.902   2.559 -0.8049 -0.2122  0.6729
  418MOL0     C55065   5.828   2.911   2.483  0.2853 -0.4086  0.7175
  418MOL0     C55066   5.786   3.048   2.445  0.0021 -0.1232  0.1536
  418MOL0     C55067   5.660   3.037   2.359 -0.1870  0.7240 -0.8874
  418MOL0     O55068   5.546   2.999   2.427  0.0620 -0.2757  0.2019
  418MOL0     C55069   5.425   2.977   2.359 -0.9124 -0.1910  0.0913
  418MOL0     C55070   5.408   2.990   2.223 -0.5939  0.6874  0.0106
  418MOL0     C55071   5.280   2.986   2.160  0.3756  0.1930  0.8386
  418MOL0     C55072   5.163   2.953   2.239  0.0238 -0.1330 -0.0110
  418MOL0     C55073   5.025   2.958   2.181  0.3210 -0.0617  0.3613
  418MOL0     O55074   5.014   2.861   2.089  1.3262 -0.3070 -0.0202
  418MOL0     C55075   4.881   2.830   2.041  0.1759 -0.2875 -0.1255
  418MOL0     C55076   4.803   2.924   1.969  0.0763 -0.7679 -0.3081
  418MOL0     C55077   4.673   2.889   1.921  0.8511 -0.5371 -0.7773
  418MOL0     C55078   4.625   2.756   1.945  0.0429 -0.4576  0.5620
  418MOL0     O55079   4.497   2.731   1.909  0.1438  0.4723 -0.4788
  418MOL0     C55080   4.454   2.591   1.906  0.1349 -0.4195  0.3383
  418MOL0     C55081   4.337   2.582   1.806  0.1923 -0.0439 -0.2576
  418MOL0     C55082   4.246   2.468   1.838 -0.8108  0.0417 -0.1566
  418MOL0     C55083   4.120   2.464   1.749  0.7823 -0.8322  0.4309
  418MOL0     C55084   4.026   2.359   1.804  0.2905 -1.0225 -0.4332
  418MOL0     C55085   3.907   2.337   1.700  0.4483 -0.7474 -0.9144
  418MOL0     C55086   3.834   2.210   1.720 -0.3668 -0.7420 -0.8900
  418MOL0     C55087   3.910   2.089   1.662 -0.2348 -0.7763  0.0025
  418MOL0    Cl55088   3.925   2.114   1.482  0.3190  0.1841  0.1461
  418MOL0     C55089   4.708   2.659   1.998 -0.0927 -0.3321 -0.4770
  418MOL0     C55090   4.834   2.700   2.041  0.5400  0.2391  0.7267
  418MOL0     O55091   4.937   3.023   2.226  0.2935  0.2316 -0.2515
  418MOL0     C55092   5.180   2.934   2.373 -0.7778  1.0599 -0.8062
  418MOL0     C55093   5.302   2.956   2.430 -1.5295 -0.4635  0.2371
  418MOL0     N55094   6.115   2.896   2.356 -0.8058  0.0797 -0.8662
  418MOL0     N55095   6.207   2.977   2.319  0.2414 -0.7305 -0.0420
  418MOL0     C55096   7.366   3.353   2.102  0.1347  0.1439  0.3869
  418MOL0     C55097   7.507   3.352   2.096 -0.6985 -0.0860  0.8138
  418MOL0     C55098   7.947   3.301   2.073 -0.2876  0.1433 -0.2035
  418MOL0     C55099   7.983   3.315   1.942 -0.3681  0.2026  0.0471
  418MOL0     C55100   8.109   3.358   1.909 -0.0138 -0.6582 -0.5098
  418MOL0     C55101   8.213   3.368   2.006  1.2012 -0.4270  0.2365
  418MOL0     O55102   8.328   3.428   1.956  0.1969  0.1527 -0.2281
  418MOL0     C55103   8.449   3.432   2.036  0.0269  0.0878  0.1602
  418MOL0     C55104   8.556   3.509   1.968  0.4164  0.3886  0.5588
  418MOL0     C55105   8.632   3.423   1.873 -0.6887 -0.0405  0.0002
  418MOL0     C55106   8.727   3.500   1.789 -1.0228  0.1827 -1.0074
  418MOL0     C55107   8.827   3.585   1.863  0.1649  0.7105  0.2383
  418MOL0     C55108   8.899   3.655   1.939 -0.3479  0.0624 -0.0093
  418MOL0     C55109   8.179   3.340   2.141  0.4150  0.5799  0.3088
  418MOL0     C55110   8.048   3.313   2.172 -0.5239  1.0536 -0.0197
  418MOL0     H55111   7.566   3.079   1.909 -2.8594  0.3273 -0.9510
  418MOL0     H55112   7.325   3.064   1.920  0.1125  0.8519 -2.5549
  418MOL0     H55113   7.145   3.315   2.240  1.7727 -0.5771 -1.2556
  418MOL0     H55114   7.137   3.130   2.226 -0.3193 -0.8684 -0.5954
  418MOL0     H55115   6.932   3.139   2.143 -0.5597  1.2887 -2.6130
  418MOL0     H55116   6.905   3.308   2.136 -0.3648 -1.4156 -1.0524
  418MOL0     H55117   7.004   3.282   2.396  1.0139  1.9042 -2.5526
  418MOL0     H55118   6.922   3.127   2.380 -2.4602 -0.3194 -1.1729
  418MOL0     H55119   6.798   3.345   2.479  2.6177  2.2931 -0.5273
  418MOL0     H55120   6.792   3.394   2.316 -1.2302 -0.8479 -0.8779
  418MOL0     H55121   6.689   3.117   2.398 -1.0197 -0.0210 -1.4415
  418MOL0     H55122   6.647   3.203   2.251  1.3777 -0.2076 -0.7171
  418MOL0     H55123   6.500   3.357   2.341 -2.2611 -1.7545 -0.2071
  418MOL0     H55124   6.579   3.365   2.493 -2.3334  3.0688 -1.8305
  418MOL0     H55125   6.468   3.087   2.383 -1.4859 -0.4470 -0.2742
  418MOL0     H55126   6.451   3.163   2.549  1.2973  1.6520  0.0292
  418MOL0     H55127   6.300   3.257   2.306 -2.3889  3.4984  1.7098
  418MOL0     H55128   6.266   3.285   2.477  3.0893  0.3707  1.7958
  418MOL0     H55129   6.119   3.114   2.598 -1.2748 -0.6770 -0.6464
  418MOL0     H55130   5.938   2.972   2.641 -2.4992 -1.4051  1.3357
  418MOL0     H55131   5.975   2.797   2.586  0.7440 -1.0956 -3.0095
  418MOL0     H55132   5.745   2.876   2.546 -0.2279  2.4085  1.7574
  418MOL0     H55133   5.842   2.848   2.395 -0.7942  1.0247 -0.5229
  418MOL0     H55134   5.769   3.107   2.535  1.0392 -0.1252  0.3685
  418MOL0     H55135   5.866   3.093   2.386  0.4820  0.3840  1.1614
  418MOL0     H55136   5.690   2.973   2.275  3.3189  2.6235 -1.3064
  418MOL0     H55137   5.636   3.133   2.312 -0.3181  1.2151  0.1602
  418MOL0     H55138   5.484   3.020   2.153  0.7162 -0.1006  1.0421
  418MOL0     H55139   5.263   3.015   2.057  0.9145  1.7914  1.1739
  418MOL0     H55140   4.836   3.025   1.951 -1.4944 -0.0529  0.6552
  418MOL0     H55141   4.605   2.963   1.879  2.7108  2.0250  0.4738
  418MOL0     H55142   4.403   2.572   2.001 -0.2551  1.2832  0.5087
  418MOL0     H55143   4.534   2.529   1.865  3.3714  3.5906 -0.0912
  418MOL0     H55144   4.367   2.572   1.701  1.3000  0.1398  0.0263
  418MOL0     H55145   4.273   2.670   1.815 -1.4187 -1.3112  1.8112
  418MOL0     H55146   4.212   2.476   1.941  2.1775  1.5796  0.8246
  418MOL0     H55147   4.294   2.370   1.833 -1.2422 -0.1893  0.1951
  418MOL0     H55148   4.065   2.559   1.746  1.8273 -0.0130  3.6936
  418MOL0     H55149   4.153   2.438   1.648  0.2098 -0.2387  0.0832
  418MOL0     H55150   3.997   2.390   1.905  1.3959  0.2051 -0.4766
  418MOL0     H55151   4.084   2.267   1.818  2.8284  0.8651  2.6303
  418MOL0     H55152   3.948   2.337   1.599  1.4940 -2.0994 -0.5163
  418MOL0     H55153   3.836   2.419   1.712 -1.0906 -1.2068 -5.1384
  418MOL0     H55154   3.814   2.196   1.827  0.9760 -0.7460 -0.6233
  418MOL0     H55155   3.734   2.211   1.675 -1.3461  1.5919  1.0861
  418MOL0     H55156   3.857   1.997   1.687 -4.3927  0.8011 -2.1216
  418MOL0     H55157   4.012   2.086   1.702 -0.4673 -0.8487  0.6055
  418MOL0     H55158   4.696   2.551   1.992  1.2468 -0.4790 -0.8187
  418MOL0     H55159   4.912   2.635   2.080  1.4936  1.7797  1.4831
  418MOL0     H55160   5.100   2.905   2.441 -0.6050 -0.5831 -1.2610
  418MOL0     H55161   5.323   2.958   2.537 -0.1170 -0.5857 -0.0143
  418MOL0     H55162   7.313   3.417   2.172 -2.9027  2.0267 -3.2147
  418MOL0     H55163   7.557   3.433   2.149  2.7543  0.6880 -3.0949
  418MOL0     H55164   7.916   3.304   1.857 -1.4825  0.5350  0.8618
  418MOL0     H55165   8.122   3.373   1.802 -0.3496  0.8811 -0.3638
  418MOL0     H55166   8.479   3.334   2.073 -0.7520  0.0511  0.7223
  418MOL0     H55167   8.437   3.505   2.116 -0.9579  3.1714 -2.5823
  418MOL0     H55168   8.504   3.586   1.910 -2.0756  0.3882  2.5947
  418MOL0     H55169   8.621   3.550   2.045  1.0355  2.0168 -0.7775
  418MOL0     H55170   8.558   3.378   1.807 -0.0731 -2.2705  0.7629
  418MOL0     H55171   8.701   3.351   1.919 -0.3023  0.0713 -0.3945
  418MOL0     H55172   8.787   3.424   1.737  2.1365  0.2703  2.1455
  418MOL0     H55173   8.673   3.565   1.719  0.0464  1.2717 -0.8410
  418MOL0     H55174   8.958   3.709   2.010 -0.5886 -1.1194  1.1249
  418MOL0     H55175   8.248   3.339   2.226 -1.7941 -3.2452  2.2894
  418MOL0     H55176   8.018   3.291   2.274 -0.3223  0.4680 -0.0796
  419MOL0     O55177   3.946   4.093  10.019 -0.0724  0.7005  0.0279
  419MOL0     C55178   3.938   4.056  10.142 -0.0480  0.1904  0.5090
  419MOL0     O55179   3.827   4.067  10.226 -0.2428  0.0019 -0.1301
  419MOL0     C55180   3.705   4.108  10.176  0.0255 -0.1816  0.2267
  419MOL0     C55181   3.627   4.019  10.092  0.2634 -0.1098 -0.3414
  419MOL0     C55182   3.505   4.057  10.038 -0.3275 -0.0784 -0.2658
  419MOL0     C55183   3.451   4.181  10.068 -0.9160 -0.2861  0.5781
  419MOL0     O55184   3.331   4.203   9.999 -1.5114  0.3191 -0.0294
  419MOL0     C55185   3.298   4.342   9.991 -0.4669  0.1215  0.3979
  419MOL0     C55186   3.199   4.373  10.103  0.4189 -0.4716  0.6880
  419MOL0     C55187   3.077   4.294  10.096  0.3389  0.6754  0.0686
  419MOL0     C55188   2.998   4.327  10.220  1.0049  0.3881  0.3561
  419MOL0     C55189   2.901   4.211  10.248 -0.1915 -0.1108 -0.8145
  419MOL0     C55190   2.789   4.182  10.152 -0.6902 -0.2779  0.0533
  419MOL0     C55191   2.680   4.285  10.141  0.8608 -0.7804  0.4012
  419MOL0     C55192   2.551   4.242  10.061 -0.9474 -0.2955 -0.4583
  419MOL0     N55193   2.567   4.234   9.915  0.0482 -0.3561 -0.5866
  419MOL0     C55194   2.591   4.123   9.846  0.2508 -0.0894 -0.5134
  419MOL0     C55195   2.566   4.150   9.713 -0.5484  0.3778 -0.5017
  419MOL0     C55196   2.590   4.057   9.599 -0.3446 -0.5640  0.2116
  419MOL0     C55197   2.689   4.108   9.496  0.1155 -0.0128 -0.1527
  419MOL0     C55198   2.830   4.083   9.536 -0.5334 -0.2308 -0.4460
  419MOL0     C55199   2.928   4.104   9.420 -0.1739  0.4609 -0.3912
  419MOL0     O55200   2.942   4.247   9.392  0.2586 -0.4116 -0.1160
  419MOL0     C55201   3.068   4.269   9.335  0.2870 -0.8082  0.2754
  419MOL0     C55202   3.143   4.360   9.407 -0.4389 -0.1656 -0.9237
  419MOL0     C55203   3.273   4.392   9.373 -0.1814 -0.1623 -0.2420
  419MOL0     C55204   3.331   4.339   9.260 -0.4320 -0.3503 -0.7075
  419MOL0     C55205   3.464   4.376   9.228 -0.5219 -0.4051  0.7643
  419MOL0     O55206   3.527   4.463   9.310  1.0555 -0.7121 -0.1336
  419MOL0     C55207   3.654   4.508   9.285 -0.5605  0.1696 -0.6260
  419MOL0     C55208   3.734   4.542   9.390  0.0330 -0.4615  0.4933
  419MOL0     C55209   3.861   4.602   9.369  0.0048  0.7975 -0.1124
  419MOL0     C55210   3.916   4.613   9.238  0.0412 -0.6031  0.0558
  419MOL0     O55211   4.033   4.681   9.222 -0.2692 -0.4829  0.0277
  419MOL0     C55212   4.112   4.655   9.103 -0.4959 -1.0851  0.6612
  419MOL0     C55213   4.271   4.684   9.123  0.1211  0.3111  0.2831
  419MOL0     C55214   4.300   4.836   9.113  0.4633  0.2384 -0.3891
  419MOL0     C55215   4.445   4.856   9.168  0.4416  0.5267  0.5766
  419MOL0     C55216   4.515   4.976   9.112  0.1767 -1.0467  0.2126
  419MOL0     C55217   4.637   5.020   9.208  1.1313 -0.2631  0.4561
  419MOL0     C55218   4.771   4.993   9.151 -0.7173 -0.2827 -0.1461
  419MOL0     C55219   4.806   4.857   9.132 -0.2802  0.9677 -0.7922
  419MOL0    Cl55220   4.916   4.833   8.989 -0.0206  0.2302  0.0660
  419MOL0     C55221   3.836   4.579   9.135  0.1633 -0.8919 -0.1184
  419MOL0     C55222   3.704   4.532   9.153  0.2724 -0.7794 -0.6068
  419MOL0     O55223   3.514   4.327   9.132  0.0076 -0.5415 -0.4112
  419MOL0     C55224   3.249   4.258   9.178 -0.5961 -0.5144 -0.6343
  419MOL0     C55225   3.121   4.219   9.219  0.2328 -0.7827  0.0018
  419MOL0     N55226   2.536   4.285   9.703  0.1888  0.0874  0.2612
  419MOL0     N55227   2.537   4.335   9.823 -1.2000  0.5184 -0.3982
  419MOL0     C55228   3.510   4.262  10.168  0.1133 -0.3588  0.7257
  419MOL0     C55229   3.643   4.232  10.208  0.1210  0.5825 -0.1769
  419MOL0     C55230   4.055   4.002  10.202 -0.0019  0.0802 -0.1119
  419MOL0     C55231   4.052   3.947  10.332  0.3588 -0.4861 -0.4174
  419MOL0     C55232   4.170   3.921  10.398 -0.6894  0.4689  0.2334
  419MOL0     C55233   4.294   3.936  10.338  0.2314  0.4616  0.7585
  419MOL0     O55234   4.413   3.917  10.394  0.2861 -0.4773 -0.5189
  419MOL0     C55235   4.427   3.803  10.475 -0.2115 -0.5525 -0.3170
  419MOL0     C55236   4.581   3.788  10.488 -0.3944 -0.5743 -0.1979
  419MOL0     C55237   4.641   3.864  10.594 -0.4918 -0.3025 -0.3703
  419MOL0     C55238   4.784   3.811  10.630  0.0886 -0.4919 -0.9721
  419MOL0     C55239   4.785   3.753  10.765  0.3746 -0.6413  0.1558
  419MOL0     C55240   4.781   3.700  10.874 -0.0637  0.1725 -0.4597
  419MOL0     C55241   4.299   3.976  10.207 -0.0430  0.0849  1.0090
  419MOL0     C55242   4.176   4.008  10.137 -0.1903  0.1254  0.9780
  419MOL0     H55243   3.656   3.922  10.054  1.5433  0.9991 -2.4188
  419MOL0     H55244   3.444   3.989   9.979  1.3876 -2.7227  0.8028
  419MOL0     H55245   3.246   4.349   9.896  0.5389 -1.8327 -0.3512
  419MOL0     H55246   3.378   4.416  10.002  0.1944 -0.3898 -0.8067
  419MOL0     H55247   3.166   4.478  10.106  2.2124  0.1048  1.6018
  419MOL0     H55248   3.251   4.359  10.198 -2.3797 -1.7147  2.1694
  419MOL0     H55249   3.089   4.185  10.087 -2.8414  0.3141 -1.1934
  419MOL0     H55250   3.024   4.321  10.004 -0.2111  2.1616  0.7862
  419MOL0     H55251   3.068   4.328  10.304 -0.1683  2.4847  1.3658
  419MOL0     H55252   2.949   4.424  10.225 -0.0511 -0.2047  2.5737
  419MOL0     H55253   2.855   4.225  10.346 -1.3955 -3.0205 -0.8516
  419MOL0     H55254   2.951   4.114  10.248 -3.0111 -1.7093  0.6793
  419MOL0     H55255   2.732   4.095  10.185 -0.9530 -0.9925 -2.1827
  419MOL0     H55256   2.836   4.188  10.054 -0.9213  0.3382 -0.0304
  419MOL0     H55257   2.640   4.298  10.242 -0.1552 -0.6018 -0.0152
  419MOL0     H55258   2.725   4.380  10.113 -0.7929 -1.0526 -3.9045
  419MOL0     H55259   2.471   4.310  10.092  1.1140  1.1243  2.0568
  419MOL0     H55260   2.529   4.143  10.103  3.3328 -1.2294 -0.0219
  419MOL0     H55261   2.619   4.027   9.887 -0.9249  0.1984  1.0500
  419MOL0     H55262   2.495   4.030   9.551 -0.9448 -0.3228  1.2488
  419MOL0     H55263   2.632   3.963   9.637  2.0067 -0.8027 -2.6066
  419MOL0     H55264   2.667   4.211   9.465 -0.3586 -0.5509 -1.6919
  419MOL0     H55265   2.665   4.045   9.410  0.6073  3.1656 -2.8088
  419MOL0     H55266   2.854   4.155   9.615 -1.7665 -0.1617 -0.1134
  419MOL0     H55267   2.852   3.980   9.563  2.5356  0.4441  0.0115
  419MOL0     H55268   2.891   4.044   9.337  0.0820 -0.5227  0.1896
  419MOL0     H55269   3.024   4.058   9.443 -0.0906  1.2295  0.9086
  419MOL0     H55270   3.106   4.400   9.500 -1.2236 -1.5357 -0.6152
  419MOL0     H55271   3.323   4.462   9.439 -2.5354  1.0620  0.3291
  419MOL0     H55272   3.700   4.523   9.492 -3.7861  0.1183 -0.5046
  419MOL0     H55273   3.928   4.624   9.452 -1.8059 -1.0013  1.9705
  419MOL0     H55274   4.075   4.723   9.026 -0.5998 -2.3796 -0.4876
  419MOL0     H55275   4.105   4.557   9.054 -1.7923  0.9113 -3.6924
  419MOL0     H55276   4.331   4.644   9.041  0.1740 -0.6559  0.7725
  419MOL0     H55277   4.308   4.639   9.215 -1.6422 -0.9293  0.4551
  419MOL0     H55278   4.225   4.896   9.165  1.0610  2.9178 -2.4180
  419MOL0     H55279   4.305   4.862   9.007  0.4788  1.8357 -0.0202
  419MOL0     H55280   4.426   4.874   9.274 -3.0141 -0.0117  0.1607
  419MOL0     H55281   4.509   4.771   9.141  0.5265  0.6255  0.4664
  419MOL0     H55282   4.435   5.051   9.110  1.4492  0.4247  1.4085
  419MOL0     H55283   4.554   4.953   9.012 -2.4671  0.1272 -1.1892
  419MOL0     H55284   4.629   4.985   9.312 -2.3356 -0.9076  0.0973
  419MOL0     H55285   4.614   5.126   9.215  0.1056 -0.4848  0.6314
  419MOL0     H55286   4.774   5.044   9.054 -0.9639  0.8913  0.4385
  419MOL0     H55287   4.845   5.036   9.218  0.1189 -1.1912 -0.4635
  419MOL0     H55288   4.721   4.788   9.131  0.4126 -0.0345  1.4354
  419MOL0     H55289   4.852   4.827   9.227 -1.6849  0.2257 -0.3106
  419MOL0     H55290   3.865   4.585   9.031 -1.7557  1.0923 -0.6246
  419MOL0     H55291   3.647   4.526   9.060  0.3196  1.7026 -0.8651
  419MOL0     H55292   3.289   4.218   9.086  1.7041 -0.2572  0.1916
  419MOL0     H55293   3.066   4.146   9.161 -2.1707  0.6887  0.3015
  419MOL0     H55294   3.462   4.354  10.201 -0.5742  0.3028 -1.8509
  419MOL0     H55295   3.703   4.298  10.269  3.2227  0.7881 -3.1716
  419MOL0     H55296   3.954   3.931  10.375 -0.6924 -0.6939 -2.7068
  419MOL0     H55297   4.179   3.870  10.494 -1.4097  1.0747  0.6403
  419MOL0     H55298   4.393   3.717  10.417 -0.4058 -0.7626  0.1098
  419MOL0     H55299   4.370   3.808  10.567 -0.3973 -0.0303 -0.4540
  419MOL0     H55300   4.607   3.683  10.502  1.2942 -0.4940 -2.2325
  419MOL0     H55301   4.625   3.814  10.391 -1.3107 -1.1521 -0.7880
  419MOL0     H55302   4.573   3.862  10.680  2.3665  1.3741  2.1394
  419MOL0     H55303   4.654   3.971  10.574  2.8826 -0.9385 -2.1961
  419MOL0     H55304   4.822   3.742  10.555 -2.5988 -2.7627 -0.4200
  419MOL0     H55305   4.858   3.891  10.634 -1.5022  1.0699  2.5633
  419MOL0     H55306   4.777   3.650  10.969 -2.6576  1.4920  0.2241
  419MOL0     H55307   4.388   3.994  10.149 -1.8429  0.9691 -1.6627
  419MOL0     H55308   4.177   4.035  10.032  2.1716 -1.8877  0.4005
  420MOL0     O55309   0.062   6.152   9.731 -0.0863 -0.2484  0.0315
  420MOL0     C55310   0.072   6.166   9.606  0.3268 -0.5636 -0.7170
  420MOL0     O55311  -0.027   6.214   9.523 -0.3415 -0.2267 -0.3596
  420MOL0     C55312  -0.153   6.223   9.574 -0.3647  0.1757  0.0015
  420MOL0     C55313  -0.239   6.121   9.616 -0.9836 -1.4178  0.0953
  420MOL0     C55314  -0.368   6.139   9.670 -0.1958 -0.1901  0.9897
  420MOL0     C55315  -0.418   6.271   9.702  0.1573  0.5369 -0.3209
  420MOL0     O55316  -0.536   6.291   9.774  0.6095 -0.5147 -0.1562
  420MOL0     C55317  -0.632   6.185   9.779  0.0347 -0.5979  0.0842
  420MOL0     C55318  -0.773   6.244   9.805  0.6356  0.4690  0.3647
  420MOL0     C55319  -0.871   6.126   9.780 -0.9013  0.7448  1.5100
  420MOL0     C55320  -1.009   6.163   9.809  0.3138  0.4303 -0.5059
  420MOL0     C55321  -1.093   6.227   9.695 -0.6941 -0.2183 -0.0743
  420MOL0     C55322  -1.204   6.318   9.748  0.3473 -1.1416  0.3731
  420MOL0     C55323  -1.326   6.238   9.792  0.1527  0.2870  0.0024
  420MOL0     C55324  -1.444   6.313   9.840 -0.1525  0.0300  0.2059
  420MOL0     N55325  -1.548   6.210   9.879  0.1015 -0.5647 -0.0417
  420MOL0     C55326  -1.676   6.224   9.845  1.2124  0.2880  0.5850
  420MOL0     C55327  -1.729   6.107   9.881  0.6683 -0.7153  0.3071
  420MOL0     C55328  -1.873   6.063   9.850 -0.6902  0.1360 -0.4435
  420MOL0     C55329  -1.963   6.072   9.971  0.9046 -0.0703  0.1217
  420MOL0     C55330  -1.972   6.220  10.018 -0.3698 -0.3988 -1.1304
  420MOL0     C55331  -2.087   6.241  10.118 -0.2029  0.7745 -0.3738
  420MOL0     O55332  -2.089   6.142  10.222 -0.7516 -0.7416  0.4356
  420MOL0     C55333  -2.213   6.113  10.278  1.4268 -0.6018 -0.0881
  420MOL0     C55334  -2.219   5.996  10.349  0.0151  0.7394  0.1601
  420MOL0     C55335  -2.339   5.957  10.408  0.0370 -0.3396 -0.8533
  420MOL0     C55336  -2.451   6.036  10.397  0.1637 -0.1945 -0.2321
  420MOL0     C55337  -2.572   5.995  10.461 -0.2810  0.4428 -0.6471
  420MOL0     O55338  -2.691   6.038  10.413  0.0717  0.7179 -0.8658
  420MOL0     C55339  -2.808   6.014  10.478 -0.4150  1.1254  0.3550
  420MOL0     C55340  -2.870   6.115  10.546  0.6761 -0.2008 -0.7721
  420MOL0     C55341  -3.002   6.097  10.599 -0.2934  0.3945 -0.4033
  420MOL0     C55342  -3.059   5.971  10.595 -0.2084 -0.6239  0.5795
  420MOL0     O55343  -3.180   5.962  10.654  0.1098 -0.2821 -0.6155
  420MOL0     C55344  -3.252   5.843  10.669  0.2659 -0.6344  0.0063
  420MOL0     C55345  -3.395   5.894  10.693  0.3190  0.1339  0.5588
  420MOL0     C55346  -3.470   5.809  10.796  0.2269  0.5347  0.1574
  420MOL0     C55347  -3.609   5.867  10.833 -0.0267  0.4625 -0.5100
  420MOL0     C55348  -3.679   5.790  10.944 -0.2191 -0.3064 -0.4136
  420MOL0     C55349  -3.829   5.831  10.966  0.0647 -0.8540  0.0640
  420MOL0     C55350  -3.930   5.797  10.854 -0.9848  0.3685  0.9101
  420MOL0     C55351  -4.057   5.869  10.853 -0.4831 -0.8582  0.4190
  420MOL0    Cl55352  -4.149   5.795  10.987 -0.0577  0.0463 -0.5211
  420MOL0     C55353  -2.994   5.866  10.532 -0.3614  0.3168 -0.0733
  420MOL0     C55354  -2.871   5.898  10.472 -1.3047  0.2707 -0.3255
  420MOL0     O55355  -2.559   5.930  10.567 -0.0077  0.3285 -0.2315
  420MOL0     C55356  -2.448   6.155  10.330 -0.3320 -0.1971 -0.0784
  420MOL0     C55357  -2.329   6.186  10.260  0.1719  0.0784 -0.6024
  420MOL0     N55358  -1.638   6.030   9.950  0.8770  0.5859 -0.5114
  420MOL0     N55359  -1.523   6.102   9.951 -0.4562  0.8220 -1.3764
  420MOL0     C55360  -0.330   6.367   9.661  0.2790  0.3993  0.8552
  420MOL0     C55361  -0.199   6.348   9.596  0.2645  0.5082 -1.4834
  420MOL0     C55362   0.201   6.146   9.547  0.1026  0.8564 -0.8019
  420MOL0     C55363   0.201   6.102   9.418  0.2024 -0.0332  0.1135
  420MOL0     C55364   0.320   6.097   9.346  0.3214 -0.4730 -0.4638
  420MOL0     C55365   0.444   6.121   9.407 -0.8627 -0.3989  0.1793
  420MOL0     O55366   0.566   6.113   9.345 -0.4006 -0.1451 -0.2751
  420MOL0     C55367   0.593   5.976   9.307  0.7650  0.0390  0.3099
  420MOL0     C55368   0.729   5.926   9.340  0.3640 -0.5297  0.1683
  420MOL0     C55369   0.753   5.916   9.492 -0.2817  0.5024  0.3116
  420MOL0     C55370   0.891   5.857   9.524  0.0861  0.4833  0.6933
  420MOL0     C55371   1.003   5.938   9.469  0.4654 -0.4390 -0.0673
  420MOL0     C55372   1.105   6.007   9.440  0.3811 -0.7191 -0.0181
  420MOL0     C55373   0.444   6.153   9.541  0.5569  0.4559 -0.8661
  420MOL0     C55374   0.327   6.173   9.609 -0.3990 -0.7955 -0.5835
  420MOL0     H55375  -0.184   6.027   9.619  0.2177 -0.7454 -0.3555
  420MOL0     H55376  -0.420   6.051   9.706  0.7541 -0.4397  1.7824
  420MOL0     H55377  -0.602   6.115   9.858  0.7574 -0.8525 -0.4084
  420MOL0     H55378  -0.626   6.134   9.683  0.8806 -0.6312  0.1455
  420MOL0     H55379  -0.806   6.318   9.731 -2.0491 -1.4690 -0.5435
  420MOL0     H55380  -0.777   6.270   9.911 -1.4638  0.1866  0.3946
  420MOL0     H55381  -0.834   6.052   9.852  2.6112  0.8729  0.0089
  420MOL0     H55382  -0.857   6.078   9.683  3.5872  1.9193  1.3878
  420MOL0     H55383  -1.064   6.073   9.839 -0.8505  0.9334 -1.0427
  420MOL0     H55384  -1.018   6.233   9.893 -2.3140 -0.2274 -0.1285
  420MOL0     H55385  -1.146   6.156   9.631 -0.5582  0.1522 -0.6032
  420MOL0     H55386  -1.036   6.287   9.623 -3.6265 -0.7276 -3.0733
  420MOL0     H55387  -1.234   6.389   9.671  1.5036  1.6370  2.3151
  420MOL0     H55388  -1.166   6.387   9.824 -1.9961  1.9663 -1.0899
  420MOL0     H55389  -1.366   6.173   9.714 -0.3355  1.0976 -0.4340
  420MOL0     H55390  -1.286   6.187   9.880  0.7483 -1.6254 -1.3257
  420MOL0     H55391  -1.472   6.382   9.760  1.6954  0.9065  0.2483
  420MOL0     H55392  -1.399   6.360   9.928  1.8093  0.1602 -0.8023
  420MOL0     H55393  -1.723   6.301   9.785  0.2807  0.6322  1.7091
  420MOL0     H55394  -1.876   5.956   9.827  3.9194 -0.8354  2.3693
  420MOL0     H55395  -1.913   6.110   9.759 -0.7385  0.4320 -0.2685
  420MOL0     H55396  -1.927   6.005  10.049 -0.5759  0.1051  0.9763
  420MOL0     H55397  -2.059   6.029   9.945  1.7315 -1.0451 -1.4557
  420MOL0     H55398  -1.870   6.235  10.055 -0.7439 -0.6962  0.0572
  420MOL0     H55399  -1.986   6.288   9.933  0.3921  0.9974 -0.1870
  420MOL0     H55400  -2.176   6.240  10.053 -0.8334  1.3708  0.4653
  420MOL0     H55401  -2.088   6.346  10.148 -3.6108  0.3163  1.6196
  420MOL0     H55402  -2.133   5.930  10.341 -0.1248  0.7681 -2.7868
  420MOL0     H55403  -2.335   5.870  10.473 -1.3511 -0.1342 -0.4654
  420MOL0     H55404  -2.824   6.213  10.555 -0.2464  0.2780 -1.2108
  420MOL0     H55405  -3.050   6.182  10.647  0.3465  1.7205 -2.0427
  420MOL0     H55406  -3.227   5.790  10.761 -1.8797  3.2179  3.1558
  420MOL0     H55407  -3.245   5.786  10.576  0.8854  0.7938 -0.8542
  420MOL0     H55408  -3.460   5.887  10.606 -0.1544  0.2784  0.8941
  420MOL0     H55409  -3.395   5.999  10.725  2.3316 -0.5121  3.0352
  420MOL0     H55410  -3.414   5.813  10.890  0.6020 -2.4002  0.1476
  420MOL0     H55411  -3.480   5.705  10.764  1.5210  0.2680  0.5364
  420MOL0     H55412  -3.592   5.973  10.856 -1.1239  0.7360 -0.9033
  420MOL0     H55413  -3.675   5.870  10.746  1.8674  0.3784 -2.0242
  420MOL0     H55414  -3.623   5.813  11.035  0.1723  1.9013 -1.1383
  420MOL0     H55415  -3.672   5.682  10.929  2.9850 -0.1104 -1.1694
  420MOL0     H55416  -3.837   5.939  10.982 -1.0090 -0.5330 -2.2305
  420MOL0     H55417  -3.873   5.788  11.056 -1.3242  2.7455  1.2745
  420MOL0     H55418  -3.879   5.816  10.759  4.0521 -0.1711  3.1601
  420MOL0     H55419  -3.951   5.690  10.868 -0.5632  0.3087  1.1068
  420MOL0     H55420  -4.114   5.845  10.763  1.4803 -2.8092 -0.3764
  420MOL0     H55421  -4.046   5.974  10.884 -1.4527 -0.7278  0.3513
  420MOL0     H55422  -3.023   5.762  10.543 -0.4728  0.1504 -1.7243
  420MOL0     H55423  -2.824   5.822  10.411 -0.7789 -0.2202  0.6565
  420MOL0     H55424  -2.533   6.221  10.315 -1.2857 -1.8010 -2.3810
  420MOL0     H55425  -2.322   6.269  10.191 -1.2768  1.9215  1.3310
  420MOL0     H55426  -0.363   6.470   9.676 -1.1551  0.0924  0.0603
  420MOL0     H55427  -0.137   6.435   9.578  3.2031 -1.1314  0.0757
  420MOL0     H55428   0.113   6.078   9.359  1.4361 -3.2605 -0.6240
  420MOL0     H55429   0.310   6.067   9.242 -0.6978 -1.3842 -0.1137
  420MOL0     H55430   0.577   5.968   9.199  1.5211 -0.2085  0.2094
  420MOL0     H55431   0.512   5.912   9.344  0.3970 -0.8459 -1.8818
  420MOL0     H55432   0.755   5.828   9.298  0.4246 -1.0238  1.3394
  420MOL0     H55433   0.805   5.993   9.299 -1.2839  0.9719 -0.5523
  420MOL0     H55434   0.674   5.854   9.537  0.2334  1.0798  2.1129
  420MOL0     H55435   0.739   6.015   9.537 -0.3312  1.1240 -1.0413
  420MOL0     H55436   0.904   5.845   9.631  0.5276 -0.6863  0.5249
  420MOL0     H55437   0.906   5.765   9.466  1.8360  1.7315 -0.9507
  420MOL0     H55438   1.195   6.058   9.413  1.9251  0.3075  5.6295
  420MOL0     H55439   0.538   6.173   9.592  0.4185 -1.3983  0.2056
  420MOL0     H55440   0.318   6.206   9.712 -1.2909 -1.8962 -0.2802
  421MOL0     O55441   8.976  10.853   7.809  0.5271 -0.1541  0.4991
  421MOL0     C55442   9.038  10.809   7.905  0.2483  1.1940  0.9319
  421MOL0     O55443   8.996  10.807   8.038 -0.3148  0.0392 -1.3068
  421MOL0     C55444   8.863  10.837   8.087 -0.7628  0.6374  0.4208
  421MOL0     C55445   8.752  10.840   8.009  0.3778  1.0529 -0.3389
  421MOL0     C55446   8.626  10.851   8.059  0.3088  1.1453 -0.3306
  421MOL0     C55447   8.612  10.846   8.203 -0.0644 -0.4270  0.6644
  421MOL0     O55448   8.481  10.859   8.253  0.5952 -0.3780 -0.1174
  421MOL0     C55449   8.459  10.808   8.386 -0.3365  1.4333  0.0480
  421MOL0     C55450   8.314  10.818   8.424  1.0695 -0.0592  0.1005
  421MOL0     C55451   8.222  10.732   8.340 -0.5439 -0.6870  0.2497
  421MOL0     C55452   8.077  10.759   8.386 -0.0186 -0.6322 -0.4440
  421MOL0     C55453   8.071  10.704   8.542  0.7200 -0.8076  0.3347
  421MOL0     C55454   7.925  10.694   8.576  0.1648  0.0918  0.2829
  421MOL0     C55455   7.849  10.567   8.535  0.7547  0.2397 -0.0757
  421MOL0     C55456   7.715  10.554   8.595  0.0233 -0.4043 -0.7651
  421MOL0     N55457   7.656  10.427   8.542 -0.8603 -0.3160 -1.0274
  421MOL0     C55458   7.704  10.303   8.573  0.0809 -0.4557  1.0865
  421MOL0     C55459   7.636  10.215   8.497  0.1298 -0.1063 -0.1886
  421MOL0     C55460   7.647  10.060   8.499 -0.2841 -0.3688 -0.6701
  421MOL0     C55461   7.569   9.999   8.625 -0.4160  0.4773  0.2630
  421MOL0     C55462   7.424   9.998   8.618  0.4254  0.2507  0.1010
  421MOL0     C55463   7.370   9.897   8.733  0.8888 -0.0280  0.4116
  421MOL0     O55464   7.235   9.933   8.774  0.1645 -0.0996  1.0732
  421MOL0     C55465   7.125   9.880   8.701 -0.3218  0.3159  0.7053
  421MOL0     C55466   7.004   9.917   8.756 -0.0807 -0.3851 -0.6565
  421MOL0     C55467   6.874   9.874   8.715  0.5021 -0.4693 -0.4723
  421MOL0     C55468   6.868   9.800   8.593  0.0884 -0.7744 -0.9159
  421MOL0     C55469   6.743   9.774   8.533  0.9272 -0.2532  0.1677
  421MOL0     O55470   6.742   9.689   8.415 -0.8416 -0.8923  0.1638
  421MOL0     C55471   6.651   9.720   8.316  1.1277 -0.1423 -0.4890
  421MOL0     C55472   6.514   9.747   8.333  0.2024 -0.2523 -0.6439
  421MOL0     C55473   6.437   9.787   8.224 -0.4402  0.2010  0.4519
  421MOL0     C55474   6.478   9.780   8.091  0.3446 -0.5620  0.7578
  421MOL0     O55475   6.380   9.815   7.997  0.0593  0.5193  0.5480
  421MOL0     C55476   6.421   9.879   7.871 -0.3419  0.2965 -0.3916
  421MOL0     C55477   6.296   9.920   7.794 -0.5356  0.2517  0.2025
  421MOL0     C55478   6.217   9.795   7.750  0.2572 -0.0433  0.2062
  421MOL0     C55479   6.092   9.833   7.669  1.1147  0.3461  0.2174
  421MOL0     C55480   5.987   9.890   7.763 -0.0323 -0.2717  0.1933
  421MOL0     C55481   5.844   9.910   7.721 -0.2230 -0.2954 -0.2169
  421MOL0     C55482   5.768   9.775   7.719 -0.1004  1.3770 -0.1690
  421MOL0     C55483   5.625   9.795   7.673  0.3799  0.1058  0.7393
  421MOL0    Cl55484   5.542   9.635   7.676 -0.2004 -0.8765  0.0281
  421MOL0     C55485   6.613   9.743   8.073  0.0806 -0.2731  0.3592
  421MOL0     C55486   6.697   9.713   8.186 -0.1768 -0.2154 -0.3769
  421MOL0     O55487   6.641   9.816   8.583 -0.0982  0.6103 -0.4411
  421MOL0     C55488   6.987   9.764   8.527  1.0062  0.4478 -0.0384
  421MOL0     C55489   7.115   9.801   8.585  0.4095 -0.2560  0.0132
  421MOL0     N55490   7.546  10.291   8.420  0.3073 -0.1805  0.1949
  421MOL0     N55491   7.558  10.417   8.455  0.1224 -0.5964  0.7274
  421MOL0     C55492   8.720  10.853   8.287 -0.1129  0.0991  0.3513
  421MOL0     C55493   8.848  10.840   8.224  0.1700  0.1380 -0.7707
  421MOL0     C55494   9.178  10.750   7.877  0.6564 -0.6340 -0.2884
  421MOL0     C55495   9.223  10.730   7.747 -0.1457 -0.1587  0.2271
  421MOL0     C55496   9.357  10.698   7.727 -1.1525  0.1028  0.7619
  421MOL0     C55497   9.443  10.680   7.840  0.9354 -0.2880  0.2134
  421MOL0     O55498   9.577  10.655   7.842 -0.5310  0.3008 -0.0357
  421MOL0     C55499   9.637  10.624   7.716 -0.1810 -0.5342 -0.1714
  421MOL0     C55500   9.782  10.580   7.720  0.3071 -0.4863 -0.2891
  421MOL0     C55501   9.825  10.561   7.569 -0.0166 -0.7591 -0.5443
  421MOL0     C55502   9.961  10.621   7.525 -0.7579 -0.0732  0.7848
  421MOL0     C55503  10.076  10.539   7.582  0.4870 -0.2377  0.1802
  421MOL0     C55504  10.158  10.465   7.616  0.7293  0.5693 -0.7368
  421MOL0     C55505   9.390  10.683   7.966  0.5540 -0.7981 -0.3358
  421MOL0     C55506   9.263  10.720   7.989  0.2864  0.2765  0.5033
  421MOL0     H55507   8.757  10.819   7.902 -0.9533 -0.3916 -0.1463
  421MOL0     H55508   8.537  10.853   7.996 -2.0376  1.2315  2.7470
  421MOL0     H55509   8.514  10.868   8.460 -0.9335  0.1904  1.5641
  421MOL0     H55510   8.486  10.702   8.397  1.1483  1.6795 -0.9714
  421MOL0     H55511   8.279  10.922   8.417 -0.1095 -0.3671  1.0971
  421MOL0     H55512   8.297  10.790   8.528  0.6264  1.6795  0.5228
  421MOL0     H55513   8.240  10.625   8.352 -1.0414 -0.4826  3.9287
  421MOL0     H55514   8.224  10.762   8.235 -0.5243 -0.0379  0.4259
  421MOL0     H55515   8.064  10.868   8.381  1.5576 -0.4866 -2.1065
  421MOL0     H55516   8.000  10.709   8.326 -2.7715  3.3020 -0.6319
  421MOL0     H55517   8.100  10.788   8.605 -2.9595  0.5506  0.4575
  421MOL0     H55518   8.120  10.608   8.564 -0.4522 -1.3961  0.4388
  421MOL0     H55519   7.875  10.781   8.532 -0.7272 -1.4776 -2.0123
  421MOL0     H55520   7.898  10.708   8.681  0.0680 -0.5722  0.3518
  421MOL0     H55521   7.829  10.571   8.427 -2.2031 -0.4619  0.3526
  421MOL0     H55522   7.911  10.487   8.577  0.7653 -0.0917 -0.7085
  421MOL0     H55523   7.660  10.646   8.570  3.0203  1.8125  0.2049
  421MOL0     H55524   7.724  10.540   8.703  1.2281 -1.6938 -1.0039
  421MOL0     H55525   7.791  10.274   8.631  1.0421 -0.4693 -0.2998
  421MOL0     H55526   7.754  10.037   8.494  0.2646  2.0622 -1.4441
  421MOL0     H55527   7.597  10.017   8.412 -2.2066  1.2153 -0.4018
  421MOL0     H55528   7.595  10.047   8.720 -1.5510 -0.0542  0.8589
  421MOL0     H55529   7.604   9.896   8.636  0.2371  0.8107  1.4536
  421MOL0     H55530   7.391  10.101   8.633 -0.6424 -0.0612 -0.0547
  421MOL0     H55531   7.391   9.961   8.520  1.1861 -1.8317  0.5792
  421MOL0     H55532   7.439   9.901   8.818  0.2232 -1.8959  1.1078
  421MOL0     H55533   7.367   9.793   8.698  2.6306 -0.8508  2.4968
  421MOL0     H55534   7.013   9.983   8.843  1.0780  0.4872 -1.4036
  421MOL0     H55535   6.787   9.922   8.761  2.2591 -0.6850  3.4533
  421MOL0     H55536   6.477   9.749   8.435 -1.8114  1.1635 -1.3264
  421MOL0     H55537   6.338   9.815   8.260 -0.1599 -0.9282  2.2354
  421MOL0     H55538   6.486   9.820   7.806  2.2814  0.2118  2.0557
  421MOL0     H55539   6.483   9.967   7.895  0.2178 -0.5173  1.2936
  421MOL0     H55540   6.316   9.983   7.707  2.3083  0.7651  1.1518
  421MOL0     H55541   6.245   9.983   7.867  0.3980 -1.1738  2.1693
  421MOL0     H55542   6.188   9.733   7.835 -2.7393  3.3811  1.9621
  421MOL0     H55543   6.285   9.732   7.690  3.4021  2.5882  0.7352
  421MOL0     H55544   6.120   9.900   7.587  0.0628  1.0134  0.3765
  421MOL0     H55545   6.043   9.747   7.621 -2.3243  2.6582 -0.8324
  421MOL0     H55546   6.025   9.987   7.797  0.8372 -1.2623  2.2212
  421MOL0     H55547   5.975   9.827   7.851  0.5773 -0.5614  0.0699
  421MOL0     H55548   5.831   9.946   7.618  0.2955  1.2301  0.2164
  421MOL0     H55549   5.802   9.981   7.792 -1.3824  1.2753 -2.3438
  421MOL0     H55550   5.811   9.701   7.652  0.0215 -0.2527  1.6135
  421MOL0     H55551   5.756   9.733   7.820 -3.1739 -0.7374 -1.2705
  421MOL0     H55552   5.625   9.838   7.573  3.1445 -0.8742  0.2370
  421MOL0     H55553   5.565   9.859   7.738 -1.5258  0.9769 -1.7347
  421MOL0     H55554   6.661   9.730   7.977  1.5428  2.2228  0.6664
  421MOL0     H55555   6.798   9.675   8.176  0.6862  2.1199 -1.3862
  421MOL0     H55556   6.980   9.711   8.433  2.9781 -0.3742  0.2227
  421MOL0     H55557   7.212   9.784   8.538 -0.7882  1.3078 -3.3926
  421MOL0     H55558   8.721  10.860   8.396 -0.1891  0.0161  0.3575
  421MOL0     H55559   8.936  10.849   8.286 -1.6821  0.9375  1.9443
  421MOL0     H55560   9.156  10.748   7.664  1.7562  1.1765 -1.0980
  421MOL0     H55561   9.390  10.698   7.624 -3.2124  1.3216  0.0295
  421MOL0     H55562   9.632  10.721   7.666  0.8542  0.6946  1.9651
  421MOL0     H55563   9.571  10.570   7.647 -2.7868  1.7678  0.2838
  421MOL0     H55564   9.834  10.662   7.771  0.1898 -0.3540 -0.3819
  421MOL0     H55565   9.802  10.491   7.780  1.0590  0.0341  0.2527
  421MOL0     H55566   9.741  10.594   7.507 -0.1319 -2.7354 -1.5057
  421MOL0     H55567   9.826  10.453   7.552 -1.1852 -0.2040 -5.3444
  421MOL0     H55568   9.960  10.607   7.416 -2.9790 -0.5707  0.8247
  421MOL0     H55569   9.977  10.722   7.565  1.4606 -0.8122  1.9280
  421MOL0     H55570  10.227  10.393   7.655  1.2715  1.2472 -0.4257
  421MOL0     H55571   9.457  10.664   8.049 -0.5242  0.4605  0.8604
  421MOL0     H55572   9.244  10.736   8.094  2.1081  1.9215  0.6455
  422MOL0     O55573   6.331   0.219   8.324  0.2649 -0.5342  0.7232
  422MOL0     C55574   6.278   0.277   8.229  0.0330  0.5237  0.1462
  422MOL0     O55575   6.163   0.345   8.239 -0.8995  0.6268  0.1477
  422MOL0     C55576   6.107   0.332   8.365 -0.2459 -0.1975  0.1144
  422MOL0     C55577   6.149   0.416   8.463 -0.2943  0.4508 -0.3303
  422MOL0     C55578   6.097   0.422   8.591 -0.0678 -0.3918 -0.1723
  422MOL0     C55579   5.989   0.336   8.618  1.0395 -0.2087  0.0621
  422MOL0     O55580   5.920   0.332   8.740  0.3723 -0.8969 -0.3937
  422MOL0     C55581   5.950   0.422   8.849 -0.3845  0.0727  0.1180
  422MOL0     C55582   5.841   0.438   8.957 -0.2326 -0.5416 -0.4145
  422MOL0     C55583   5.704   0.491   8.911 -0.2987 -0.2473  0.2149
  422MOL0     C55584   5.701   0.647   8.914 -0.8490  0.2875  0.3256
  422MOL0     C55585   5.569   0.690   8.847  0.1440 -0.0968  0.8826
  422MOL0     C55586   5.443   0.625   8.905 -1.0711 -0.9560 -0.4485
  422MOL0     C55587   5.323   0.705   8.878 -0.0982  0.4071  0.0348
  422MOL0     C55588   5.304   0.764   8.732 -0.2011 -0.4621 -0.9461
  422MOL0     N55589   5.195   0.851   8.726  0.1526  0.1038 -0.6174
  422MOL0     C55590   5.214   0.984   8.750 -0.2451  0.4804  0.8973
  422MOL0     C55591   5.098   1.044   8.732  0.4938  0.0984 -0.7325
  422MOL0     C55592   5.057   1.191   8.732 -0.2997  0.2285 -0.0369
  422MOL0     C55593   4.960   1.225   8.846 -0.7099  0.2504 -0.0648
  422MOL0     C55594   4.882   1.358   8.805  0.1927  0.4392 -0.5674
  422MOL0     C55595   4.786   1.417   8.913 -0.0823  0.0357 -0.4494
  422MOL0     O55596   4.681   1.320   8.918  0.4454  0.6627 -0.6207
  422MOL0     C55597   4.559   1.349   8.972  0.6702 -0.9222  0.4640
  422MOL0     C55598   4.460   1.250   8.979  0.0555 -1.2337  0.1768
  422MOL0     C55599   4.330   1.270   9.029 -0.7476 -0.2426 -0.1110
  422MOL0     C55600   4.293   1.398   9.085  0.9046  0.0045 -0.2084
  422MOL0     C55601   4.151   1.422   9.121  0.7194  0.0495 -0.1980
  422MOL0     O55602   4.061   1.352   9.041  0.8300 -0.5914  0.1470
  422MOL0     C55603   3.924   1.349   9.070 -0.1786 -0.2441 -0.3551
  422MOL0     C55604   3.850   1.322   8.951  0.1522 -0.6591  0.4847
  422MOL0     C55605   3.706   1.313   8.952  0.3280  0.0904 -1.5120
  422MOL0     C55606   3.638   1.347   9.074 -0.5955  0.7371  0.0523
  422MOL0     O55607   3.504   1.339   9.092  0.3330 -0.0507  0.1492
  422MOL0     C55608   3.416   1.233   9.037 -0.7953  0.4486 -0.7234
  422MOL0     C55609   3.260   1.273   9.048  0.3911  0.1490  0.6567
  422MOL0     C55610   3.209   1.213   9.182 -0.2102 -0.3639 -1.0551
  422MOL0     C55611   3.069   1.262   9.192  0.1049 -0.6392  0.6272
  422MOL0     C55612   3.004   1.200   9.317  0.4921  0.3924 -0.1375
  422MOL0     C55613   2.874   1.260   9.339 -0.4244  0.4481  0.5924
  422MOL0     C55614   2.802   1.205   9.461  0.0403 -0.2197 -0.2665
  422MOL0     C55615   2.691   1.300   9.488 -0.2256 -0.1422 -0.1447
  422MOL0    Cl55616   2.606   1.261   9.630  0.2408  0.4069 -0.3736
  422MOL0     C55617   3.714   1.392   9.182  0.7620 -0.8076  0.3817
  422MOL0     C55618   3.856   1.388   9.186  0.2957 -0.7388  0.9320
  422MOL0     O55619   4.126   1.492   9.220  0.5194  0.2366 -0.2719
  422MOL0     C55620   4.392   1.492   9.089  0.8367 -0.3064 -0.6470
  422MOL0     C55621   4.521   1.475   9.033  1.0127 -0.5822 -0.7482
  422MOL0     N55622   5.012   0.949   8.680 -0.5853  0.4463  1.0247
  422MOL0     N55623   5.068   0.835   8.684  0.5739 -0.7667 -0.0625
  422MOL0     C55624   5.955   0.239   8.530  0.1606  0.3347  0.7233
  422MOL0     C55625   6.021   0.231   8.404 -0.0130 -0.5919 -0.4335
  422MOL0     C55626   6.334   0.247   8.092 -0.4027 -0.7864 -0.0060
  422MOL0     C55627   6.322   0.323   7.979 -0.5666 -1.1534  0.9326
  422MOL0     C55628   6.395   0.293   7.862 -0.2385  0.0714 -0.7720
  422MOL0     C55629   6.483   0.188   7.859 -0.1504  0.4298  0.4044
  422MOL0     O55630   6.572   0.156   7.751 -0.2375  0.3564  0.1464
  422MOL0     C55631   6.661   0.264   7.719 -0.0515  0.3874  0.5626
  422MOL0     C55632   6.802   0.192   7.706 -0.6000 -0.0571  0.2324
  422MOL0     C55633   6.842   0.133   7.849  0.0191  0.3092  0.5139
  422MOL0     C55634   6.844   0.235   7.964 -0.7319 -0.2904  0.1772
  422MOL0     C55635   6.942   0.345   7.957 -0.5659 -0.2856  1.0032
  422MOL0     C55636   7.031   0.429   7.948  0.0535  0.4694 -0.8202
  422MOL0     C55637   6.486   0.103   7.964 -0.5681  0.0400 -1.2545
  422MOL0     C55638   6.419   0.130   8.082 -0.0953  0.2586  0.0363
  422MOL0     H55639   6.223   0.491   8.436  2.3648 -1.6391  0.7462
  422MOL0     H55640   6.137   0.491   8.665  2.2399 -1.5242 -0.2569
  422MOL0     H55641   5.988   0.516   8.810  1.1673 -1.3133 -1.9611
  422MOL0     H55642   6.033   0.371   8.898  0.4822  2.1804  0.9173
  422MOL0     H55643   5.879   0.511   9.028 -3.8251  1.1361  0.0063
  422MOL0     H55644   5.832   0.338   9.000  2.2967 -0.9632 -0.6855
  422MOL0     H55645   5.619   0.456   8.970  2.0388 -0.5104  3.7058
  422MOL0     H55646   5.678   0.460   8.809 -1.6711 -0.2468  0.5439
  422MOL0     H55647   5.696   0.681   9.018  0.8126  1.7886 -0.0348
  422MOL0     H55648   5.792   0.681   8.864 -0.6591 -1.1955 -0.3752
  422MOL0     H55649   5.573   0.660   8.741  3.0986 -1.7977  1.3492
  422MOL0     H55650   5.567   0.799   8.843 -0.7720 -0.0754 -3.2073
  422MOL0     H55651   5.452   0.629   9.014 -2.1191  0.1372 -0.3787
  422MOL0     H55652   5.433   0.521   8.873  0.2634 -1.1899 -0.1674
  422MOL0     H55653   5.236   0.645   8.906 -3.7082  4.8360 -0.5154
  422MOL0     H55654   5.316   0.791   8.945 -1.1214  0.0560  0.3943
  422MOL0     H55655   5.278   0.691   8.655 -0.1936  0.8674 -2.2495
  422MOL0     H55656   5.393   0.824   8.711 -0.0796  0.7408  2.3488
  422MOL0     H55657   5.301   1.036   8.789  0.1435  0.3234  0.2453
  422MOL0     H55658   5.022   1.206   8.629  0.0769  0.3753 -0.1474
  422MOL0     H55659   5.147   1.252   8.721  1.7957 -2.7871 -1.0482
  422MOL0     H55660   5.008   1.231   8.944 -1.5006  0.3692  0.3200
  422MOL0     H55661   4.885   1.145   8.848 -1.2579  0.6736 -1.7899
  422MOL0     H55662   4.955   1.438   8.791  1.8219 -0.5821  1.5048
  422MOL0     H55663   4.839   1.326   8.710  1.4382 -4.8890  0.3486
  422MOL0     H55664   4.740   1.508   8.874  2.7872  0.9414 -1.9772
  422MOL0     H55665   4.836   1.420   9.011 -0.9928 -2.4807  0.1688
  422MOL0     H55666   4.488   1.149   8.949  1.0408 -1.0782  0.5454
  422MOL0     H55667   4.271   1.179   9.021  0.2020 -0.9427  0.6428
  422MOL0     H55668   3.903   1.291   8.862 -1.6248  0.9407 -1.2217
  422MOL0     H55669   3.655   1.278   8.862  1.8749  1.8212 -3.1707
  422MOL0     H55670   3.441   1.133   9.075 -0.7181  0.4818 -0.6847
  422MOL0     H55671   3.433   1.241   8.929 -3.4673  1.5367 -1.1321
  422MOL0     H55672   3.209   1.221   8.966  1.3402  0.3420 -0.0759
  422MOL0     H55673   3.235   1.379   9.039 -0.5407 -0.2225 -2.7744
  422MOL0     H55674   3.275   1.264   9.253 -1.7244  1.2513 -0.7396
  422MOL0     H55675   3.218   1.105   9.197  1.6013 -0.1698 -0.5421
  422MOL0     H55676   3.055   1.370   9.197 -5.7462 -1.1163  2.9222
  422MOL0     H55677   3.017   1.232   9.100  0.1219  0.8546  0.1139
  422MOL0     H55678   3.065   1.223   9.405 -0.4545 -1.4002  1.0531
  422MOL0     H55679   2.990   1.093   9.302  0.8595  0.5415 -1.6508
  422MOL0     H55680   2.801   1.239   9.261 -0.6742 -1.0100  1.1933
  422MOL0     H55681   2.886   1.369   9.341  0.7936  0.3253  0.4609
  422MOL0     H55682   2.775   1.099   9.458  1.1901 -1.0638  5.8187
  422MOL0     H55683   2.866   1.211   9.549 -0.8508  1.8969  0.3113
  422MOL0     H55684   2.624   1.311   9.402 -1.1213  0.7670  0.6545
  422MOL0     H55685   2.730   1.396   9.521  1.9378 -0.1360 -2.4363
  422MOL0     H55686   3.664   1.412   9.276  3.1632  0.6553  1.4534
  422MOL0     H55687   3.907   1.409   9.279 -1.8427  2.6582  1.5090
  422MOL0     H55688   4.374   1.591   9.130  1.5201 -1.0219  1.4877
  422MOL0     H55689   4.584   1.563   9.029 -1.8155  1.5797 -1.0220
  422MOL0     H55690   5.871   0.174   8.554  0.3614 -0.1138  0.2444
  422MOL0     H55691   6.001   0.162   8.322  0.3874  0.0577 -1.0932
  422MOL0     H55692   6.257   0.410   7.980 -2.6379 -2.6092  0.2741
  422MOL0     H55693   6.386   0.363   7.779  0.1185  1.6461  0.4722
  422MOL0     H55694   6.653   0.346   7.791 -1.6631  0.2666  0.5600
  422MOL0     H55695   6.625   0.301   7.623  1.8869  1.7477  0.2946
  422MOL0     H55696   6.810   0.114   7.629  0.1058 -3.6539  3.6404
  422MOL0     H55697   6.880   0.267   7.685 -1.7041  0.8888 -0.6257
  422MOL0     H55698   6.941   0.089   7.839  1.8225  3.6367  2.2591
  422MOL0     H55699   6.766   0.059   7.877 -0.5729  1.2480  1.4433
  422MOL0     H55700   6.749   0.288   7.974 -0.4676  0.8339 -2.4884
  422MOL0     H55701   6.858   0.185   8.061 -0.9443 -0.9772 -0.1383
  422MOL0     H55702   7.123   0.483   7.938  0.1830  0.2423 -0.8536
  422MOL0     H55703   6.547   0.015   7.945 -0.0735  0.1267 -0.1427
  422MOL0     H55704   6.419   0.069   8.172 -0.2199 -0.4566 -0.4382
  423MOL0     O55705   2.228  10.380   8.938  0.2731 -0.3151 -0.2254
  423MOL0     C55706   2.220  10.502   8.908 -0.6092 -0.1685 -0.6712
  423MOL0     O55707   2.109  10.591   8.901 -0.8817  0.5590  0.2294
  423MOL0     C55708   1.996  10.547   8.960 -0.1085 -0.0102 -0.8641
  423MOL0     C55709   1.948  10.618   9.068  0.8465  0.1080  0.5211
  423MOL0     C55710   1.824  10.584   9.122 -0.2582  0.1631  0.3469
  423MOL0     C55711   1.746  10.484   9.061  0.2776 -0.2207 -0.8389
  423MOL0     O55712   1.631  10.435   9.121  1.6315  0.0469 -0.1095
  423MOL0     C55713   1.569  10.519   9.220 -0.0056 -0.2298 -0.4893
  423MOL0     C55714   1.452  10.458   9.284 -0.4560 -0.9017  0.0374
  423MOL0     C55715   1.326  10.469   9.201  0.2400 -0.0978 -0.9035
  423MOL0     C55716   1.210  10.385   9.265 -0.5127  0.0688 -0.1003
  423MOL0     C55717   1.090  10.399   9.182 -0.7912 -0.0454  0.6133
  423MOL0     C55718   0.971  10.309   9.230  0.6375 -0.0244 -0.6813
  423MOL0     C55719   1.007  10.160   9.242 -0.2436  0.5532 -1.2784
  423MOL0     C55720   1.055  10.092   9.119 -0.5916 -0.1938  0.8089
  423MOL0     N55721   0.942  10.068   9.024  0.6900 -0.0515  0.2859
  423MOL0     C55722   0.898   9.937   8.996 -0.2261 -0.0716  0.8800
  423MOL0     C55723   0.819   9.961   8.886 -0.5135 -0.3998 -0.6719
  423MOL0     C55724   0.734   9.865   8.813 -0.4541  0.0473  0.9833
  423MOL0     C55725   0.590   9.870   8.859  0.5616 -0.3616  0.0728
  423MOL0     C55726   0.569   9.825   9.007  0.3395 -0.5773  0.0297
  423MOL0     C55727   0.439   9.762   9.027  0.4564 -0.2627  0.8106
  423MOL0     O55728   0.319   9.806   8.954  0.3597 -0.0869 -0.2253
  423MOL0     C55729   0.210   9.725   8.970 -0.1129 -1.0648 -0.4082
  423MOL0     C55730   0.111   9.746   8.873 -0.2576 -0.1971  0.0300
  423MOL0     C55731   0.001   9.670   8.880  0.9557 -0.3041 -0.1790
  423MOL0     C55732  -0.011   9.576   8.985  0.0724  0.0907 -0.9286
  423MOL0     C55733  -0.136   9.476   8.989 -0.3384  0.0357 -0.0817
  423MOL0     O55734  -0.258   9.522   8.939  0.6126  0.3038  0.3821
  423MOL0     C55735  -0.370   9.456   8.962  0.0953  0.1335 -0.2865
  423MOL0     C55736  -0.465   9.509   9.059 -0.0317 -0.2538  0.8423
  423MOL0     C55737  -0.593   9.458   9.085 -0.1806 -0.2215  0.7332
  423MOL0     C55738  -0.633   9.349   9.007 -0.1495 -0.3471 -0.5391
  423MOL0     O55739  -0.744   9.280   9.039  0.2202 -0.6014 -0.3070
  423MOL0     C55740  -0.852   9.338   9.118 -0.0944  0.1960  0.1818
  423MOL0     C55741  -0.914   9.233   9.220 -1.0534 -0.6104  0.1983
  423MOL0     C55742  -0.812   9.183   9.325 -1.3525  0.8203  0.2312
  423MOL0     C55743  -0.890   9.096   9.428  0.0204  0.0127  0.1126
  423MOL0     C55744  -0.794   9.069   9.553 -0.1202 -0.8585  0.1601
  423MOL0     C55745  -0.871   8.977   9.647 -1.1193  0.0297  1.0940
  423MOL0     C55746  -0.793   8.926   9.767  0.1288  0.9043  0.2124
  423MOL0     C55747  -0.723   9.034   9.851 -0.1722 -0.1654 -0.2809
  423MOL0    Cl55748  -0.835   9.163   9.899 -0.1180  0.0854 -0.2205
  423MOL0     C55749  -0.538   9.276   8.932 -0.1972  0.6973  1.7583
  423MOL0     C55750  -0.404   9.332   8.913 -0.5122 -0.0889 -0.4268
  423MOL0     O55751  -0.123   9.368   9.042  0.1568 -0.6593 -0.5413
  423MOL0     C55752   0.085   9.559   9.077 -0.2133 -0.3424  0.4030
  423MOL0     C55753   0.200   9.631   9.068  0.7125 -0.5908  0.5172
  423MOL0     N55754   0.811  10.097   8.859 -0.5771  0.8377  0.1702
  423MOL0     N55755   0.891  10.155   8.937 -0.0250  0.2654 -0.5917
  423MOL0     C55756   1.792  10.412   8.944 -0.0742  0.2606  0.7385
  423MOL0     C55757   1.917  10.450   8.897 -0.2634 -0.1603 -0.1833
  423MOL0     C55758   2.351  10.566   8.856 -0.2544  0.4576  0.5939
  423MOL0     C55759   2.465  10.480   8.826 -0.0749 -0.1226  0.2620
  423MOL0     C55760   2.583  10.542   8.774  0.3809  0.2576 -0.2424
  423MOL0     C55761   2.592  10.686   8.761  0.2563  0.5158  0.2544
  423MOL0     O55762   2.697  10.759   8.727 -0.6833 -0.0307  0.2201
  423MOL0     C55763   2.830  10.703   8.742 -0.4545  0.6181 -0.9595
  423MOL0     C55764   2.943  10.800   8.702  0.1283 -0.4979  0.2228
  423MOL0     C55765   2.952  10.810   8.549 -0.6399 -0.3480 -0.0376
  423MOL0     C55766   3.080  10.750   8.496 -0.6813  0.0046 -0.9321
  423MOL0     C55767   3.090  10.603   8.525 -0.2653 -0.1103  0.0801
  423MOL0     C55768   3.108  10.485   8.531  1.1800  0.1585 -0.1550
  423MOL0     C55769   2.480  10.761   8.805 -0.3376  0.3943  0.0703
  423MOL0     C55770   2.360  10.704   8.848  0.5438 -0.9367  0.0996
  423MOL0     H55771   2.013  10.699   9.101 -0.6136  1.2722  0.6202
  423MOL0     H55772   1.781  10.644   9.202  0.1122 -0.3686  0.9563
  423MOL0     H55773   1.538  10.615   9.177  2.8800  1.5937  1.1990
  423MOL0     H55774   1.646  10.533   9.296  1.6867 -1.3672 -1.9104
  423MOL0     H55775   1.445  10.519   9.375  2.7485  2.0578 -1.4675
  423MOL0     H55776   1.475  10.356   9.315  1.0911 -0.1223  1.6289
  423MOL0     H55777   1.343  10.424   9.102  3.2909  0.7612 -0.8760
  423MOL0     H55778   1.295  10.573   9.190 -0.4754 -0.3309 -1.1814
  423MOL0     H55779   1.243  10.281   9.264  2.1694  0.8229 -0.3535
  423MOL0     H55780   1.184  10.429   9.362 -0.5721  0.7842 -0.4336
  423MOL0     H55781   1.124  10.394   9.078  1.2121 -0.7722  1.2570
  423MOL0     H55782   1.066  10.504   9.196  0.8505  0.1306  2.6311
  423MOL0     H55783   0.891  10.310   9.155  2.5919 -1.9811 -2.9596
  423MOL0     H55784   0.935  10.346   9.326 -1.0657 -1.7509 -0.5982
  423MOL0     H55785   1.087  10.145   9.315 -0.2864  3.0018 -0.6563
  423MOL0     H55786   0.919  10.108   9.281 -0.6972 -0.1412 -3.1252
  423MOL0     H55787   1.111  10.003   9.150  1.0600  1.5120  3.0129
  423MOL0     H55788   1.133  10.151   9.071  0.5322 -0.1922  2.5507
  423MOL0     H55789   0.929   9.847   9.047 -1.8885 -0.8930  0.5182
  423MOL0     H55790   0.758   9.760   8.834 -2.0430 -0.3166  1.0857
  423MOL0     H55791   0.747   9.881   8.706  1.1780 -0.5261  1.0658
  423MOL0     H55792   0.524   9.796   8.812  0.3306 -1.0755  1.4709
  423MOL0     H55793   0.544   9.965   8.828 -0.6935 -0.8555  0.3756
  423MOL0     H55794   0.638   9.747   9.039  0.5874 -0.6493 -0.6678
  423MOL0     H55795   0.585   9.913   9.071 -1.2834  0.4570 -0.9113
  423MOL0     H55796   0.427   9.770   9.136  3.3969 -0.8879  1.2655
  423MOL0     H55797   0.452   9.656   9.001 -1.2590 -0.4674  0.6877
  423MOL0     H55798   0.131   9.809   8.787 -1.0791 -0.5452 -0.4270
  423MOL0     H55799  -0.084   9.689   8.815  0.8697  1.9982  0.5387
  423MOL0     H55800  -0.434   9.597   9.115  2.0275 -1.0287  1.0122
  423MOL0     H55801  -0.647   9.503   9.168 -0.7392  2.7404 -1.1001
  423MOL0     H55802  -0.934   9.355   9.048 -0.1749 -2.5147 -0.4892
  423MOL0     H55803  -0.828   9.435   9.160 -2.2307  0.1499  1.6805
  423MOL0     H55804  -0.960   9.152   9.164 -1.0256 -0.1786 -0.4577
  423MOL0     H55805  -0.995   9.285   9.274 -2.0619 -2.4674  0.5450
  423MOL0     H55806  -0.754   9.261   9.375  1.2102  0.5741 -2.1504
  423MOL0     H55807  -0.737   9.115   9.283 -0.7753  1.1421  0.7326
  423MOL0     H55808  -0.985   9.142   9.458 -0.8582  0.5117 -3.0255
  423MOL0     H55809  -0.924   9.000   9.388  1.9298  0.4995 -3.0435
  423MOL0     H55810  -0.775   9.158   9.615  0.1482 -0.8756  0.1045
  423MOL0     H55811  -0.692   9.041   9.524 -0.1120 -1.3404  0.6347
  423MOL0     H55812  -0.895   8.885   9.593 -2.7331  1.4914 -0.8310
  423MOL0     H55813  -0.970   9.018   9.668 -2.6383 -1.3445 -2.6838
  423MOL0     H55814  -0.872   8.884   9.830 -0.0996  1.7154  0.4853
  423MOL0     H55815  -0.724   8.850   9.729 -0.0836  0.4631  0.6981
  423MOL0     H55816  -0.635   9.074   9.801  0.3648 -2.5966 -1.4257
  423MOL0     H55817  -0.684   8.993   9.945 -1.1341  1.1755  0.7441
  423MOL0     H55818  -0.581   9.184   8.894 -0.4564  1.6136 -0.3296
  423MOL0     H55819  -0.332   9.275   8.855  0.0155  0.3879 -0.2509
  423MOL0     H55820   0.092   9.484   9.155  1.0219 -0.8062 -0.1305
  423MOL0     H55821   0.276   9.617   9.143  2.1289 -1.0529 -0.9559
  423MOL0     H55822   1.735  10.330   8.903 -1.4400  0.8580  1.3622
  423MOL0     H55823   1.958  10.412   8.805  0.3278  3.2465 -1.4655
  423MOL0     H55824   2.451  10.373   8.818 -0.2113  0.0658 -3.7083
  423MOL0     H55825   2.676  10.490   8.751 -0.0522  0.5612 -2.9825
  423MOL0     H55826   2.830  10.612   8.681  1.1634 -1.0878  1.4071
  423MOL0     H55827   2.836  10.685   8.850  2.5751 -0.4830 -1.2181
  423MOL0     H55828   2.910  10.894   8.747  1.4271 -0.2316  0.6591
  423MOL0     H55829   3.035  10.768   8.752 -0.4283 -1.5598  0.6043
  423MOL0     H55830   2.951  10.917   8.525  0.3509 -0.1389  0.8055
  423MOL0     H55831   2.860  10.767   8.507 -1.0709 -0.9931  1.4860
  423MOL0     H55832   3.093  10.776   8.391 -1.5298  2.3270 -0.5106
  423MOL0     H55833   3.160  10.808   8.543  0.6753  0.3204 -3.4400
  423MOL0     H55834   3.095  10.379   8.537 -1.1931  0.1920 -2.6321
  423MOL0     H55835   2.484  10.869   8.804  0.6650  0.4519  2.5128
  423MOL0     H55836   2.285  10.778   8.872  0.1073 -2.4732  4.3459
  424MOL0     O55837   1.217   7.943   7.631 -0.0154 -0.3764 -0.0797
  424MOL0     C55838   1.261   7.911   7.740 -1.4377  0.2143  0.4744
  424MOL0     O55839   1.186   7.871   7.845 -0.1764 -0.1906  0.4150
  424MOL0     C55840   1.050   7.909   7.833 -0.9058  0.4599  0.1226
  424MOL0     C55841   0.998   8.040   7.844 -0.0527 -1.0987 -0.6174
  424MOL0     C55842   0.863   8.062   7.813 -0.2673 -0.0744  0.1608
  424MOL0     C55843   0.775   7.958   7.783 -0.1567 -0.4855 -0.0823
  424MOL0     O55844   0.647   7.994   7.755  0.2264  0.4397  0.3058
  424MOL0     C55845   0.560   7.902   7.681  0.2498 -0.7920  0.1534
  424MOL0     C55846   0.514   7.790   7.780 -0.1152  1.0662 -0.4864
  424MOL0     C55847   0.355   7.781   7.786  0.3944 -0.0133 -0.1435
  424MOL0     C55848   0.280   7.898   7.860 -0.5248  0.1503  0.4041
  424MOL0     C55849   0.130   7.905   7.825  0.4461 -0.2850  0.8163
  424MOL0     C55850   0.048   7.796   7.887  0.5634  0.4481  0.6480
  424MOL0     C55851   0.014   7.807   8.039  0.1776  0.6109  1.1587
  424MOL0     C55852  -0.121   7.874   8.061  0.1492 -0.4299  0.4500
  424MOL0     N55853  -0.225   7.784   8.022 -0.3217 -0.1619 -0.0956
  424MOL0     C55854  -0.348   7.827   7.972  0.2102 -0.0314 -0.8084
  424MOL0     C55855  -0.411   7.707   7.939  0.3146 -0.4755 -0.1469
  424MOL0     C55856  -0.547   7.713   7.886 -0.1516 -0.6294 -0.4223
  424MOL0     C55857  -0.607   7.564   7.890  0.5787 -0.0365  0.1742
  424MOL0     C55858  -0.750   7.553   7.921 -0.8101 -0.3920 -0.6319
  424MOL0     C55859  -0.801   7.405   7.919  0.0430 -0.5169 -0.4953
  424MOL0     O55860  -0.901   7.362   8.013 -0.0812 -0.2673  0.1746
  424MOL0     C55861  -1.030   7.370   7.995  0.4962  0.4677  0.1226
  424MOL0     C55862  -1.102   7.393   7.873 -1.0273  0.7890  1.1776
  424MOL0     C55863  -1.246   7.403   7.873  0.0888 -0.1788  0.0743
  424MOL0     C55864  -1.318   7.402   7.996 -0.6914 -0.0630  0.9821
  424MOL0     C55865  -1.462   7.433   7.992 -0.4047  0.1957 -0.1343
  424MOL0     O55866  -1.526   7.430   7.872 -0.7008  0.1003 -0.1505
  424MOL0     C55867  -1.659   7.447   7.871  0.9396 -0.3549 -0.1001
  424MOL0     C55868  -1.746   7.359   7.942 -0.1503 -0.8078 -0.2835
  424MOL0     C55869  -1.884   7.360   7.907  0.8054 -0.8615  0.3342
  424MOL0     C55870  -1.937   7.446   7.810 -0.1340 -1.3531  0.5333
  424MOL0     O55871  -2.073   7.434   7.780 -0.4164  0.1108 -0.2805
  424MOL0     C55872  -2.142   7.313   7.809  0.0519  0.1153  0.5054
  424MOL0     C55873  -2.276   7.320   7.731 -0.8240  0.4840  1.0461
  424MOL0     C55874  -2.378   7.213   7.754  0.4262 -1.0954 -0.0119
  424MOL0     C55875  -2.475   7.260   7.869 -0.1062 -0.3785 -0.0404
  424MOL0     C55876  -2.594   7.162   7.896 -0.0005 -0.3495  1.4397
  424MOL0     C55877  -2.688   7.120   7.785 -0.5589 -0.1827  0.3669
  424MOL0     C55878  -2.741   7.240   7.717 -0.1247 -1.2369 -0.0198
  424MOL0     C55879  -2.817   7.195   7.594 -0.0452 -0.4211  0.2683
  424MOL0    Cl55880  -2.962   7.097   7.646  0.0553 -0.0357 -0.2648
  424MOL0     C55881  -1.849   7.536   7.745  0.0849  0.2908 -0.2168
  424MOL0     C55882  -1.710   7.527   7.763  0.3816  1.1404 -0.8478
  424MOL0     O55883  -1.516   7.456   8.100  0.5417  0.5436  0.2832
  424MOL0     C55884  -1.241   7.390   8.112 -0.1648 -0.0852  0.7305
  424MOL0     C55885  -1.102   7.360   8.111 -0.3389  0.5253 -0.5025
  424MOL0     N55886  -0.329   7.608   7.986  0.3100  0.2440  0.1351
  424MOL0     N55887  -0.223   7.651   8.038 -0.7195 -0.6211  0.2040
  424MOL0     C55888   0.824   7.828   7.801 -0.3125 -0.4533 -0.1995
  424MOL0     C55889   0.964   7.803   7.818 -0.1990 -0.5471  0.3946
  424MOL0     C55890   1.414   7.906   7.747  0.5367 -0.0315  0.8881
  424MOL0     C55891   1.494   7.976   7.655  0.6065  0.6212 -0.8896
  424MOL0     C55892   1.631   7.963   7.655 -0.2302 -0.4794 -0.3360
  424MOL0     C55893   1.694   7.891   7.756  0.1825  1.1085  0.2569
  424MOL0     O55894   1.834   7.890   7.768 -0.1719  0.5239 -0.3106
  424MOL0     C55895   1.887   7.821   7.878 -0.0610 -0.0889 -0.8301
  424MOL0     C55896   2.034   7.833   7.874 -0.4787 -0.5077  0.0866
  424MOL0     C55897   2.105   7.739   7.770  0.3897 -1.1640 -0.5806
  424MOL0     C55898   2.242   7.786   7.753 -0.4386 -0.6078 -0.3211
  424MOL0     C55899   2.312   7.772   7.879  0.2489 -0.1685  0.0097
  424MOL0     C55900   2.365   7.754   7.989 -0.1410  0.2622  1.6282
  424MOL0     C55901   1.607   7.814   7.839 -0.5744 -0.2122  0.3144
  424MOL0     C55902   1.469   7.820   7.832 -0.0554 -0.8426 -0.4745
  424MOL0     H55903   1.057   8.129   7.864 -1.2821 -0.3939  0.0410
  424MOL0     H55904   0.813   8.158   7.803 -0.0222 -0.0675 -1.1648
  424MOL0     H55905   0.601   7.870   7.585 -0.0774 -0.7093 -0.0146
  424MOL0     H55906   0.473   7.963   7.657  1.3923  0.2543 -1.4877
  424MOL0     H55907   0.567   7.794   7.875 -0.9519 -1.1873  0.1415
  424MOL0     H55908   0.550   7.694   7.742 -0.8554  0.9508 -0.9207
  424MOL0     H55909   0.331   7.690   7.840 -0.3059  0.4784  0.3806
  424MOL0     H55910   0.323   7.778   7.681  0.6315  1.7549 -0.3037
  424MOL0     H55911   0.293   7.890   7.968  0.6540  3.3169  0.5939
  424MOL0     H55912   0.326   7.989   7.820 -1.9842  0.1918 -1.3394
  424MOL0     H55913   0.121   7.903   7.716 -1.0643  4.1773  0.6571
  424MOL0     H55914   0.087   8.002   7.851  1.8593  0.5263  0.2202
  424MOL0     H55915   0.096   7.699   7.870  1.3226  0.5477  2.0547
  424MOL0     H55916  -0.044   7.791   7.828 -0.6163 -1.9862  2.5427
  424MOL0     H55917   0.018   7.704   8.076 -0.0535 -0.6335 -1.9391
  424MOL0     H55918   0.086   7.876   8.083 -0.8549  1.2096  1.9504
  424MOL0     H55919  -0.132   7.971   8.011 -1.6462 -0.5472  0.5627
  424MOL0     H55920  -0.128   7.895   8.168  0.8086  3.2773 -0.0984
  424MOL0     H55921  -0.375   7.931   7.961  1.4276  0.6210  1.6294
  424MOL0     H55922  -0.535   7.752   7.784  0.5179  1.3675  0.3747
  424MOL0     H55923  -0.601   7.789   7.942  1.6910  0.5002 -0.0831
  424MOL0     H55924  -0.559   7.505   7.969  4.5496 -0.5532 -2.3540
  424MOL0     H55925  -0.587   7.517   7.793 -0.6445  2.4652 -1.3906
  424MOL0     H55926  -0.748   7.603   8.018  4.7811  3.2177 -2.1411
  424MOL0     H55927  -0.798   7.603   7.836 -0.4099  1.8050  0.3751
  424MOL0     H55928  -0.723   7.331   7.941  0.4865 -0.0510 -0.4729
  424MOL0     H55929  -0.836   7.392   7.816 -2.5932  2.0213 -0.0277
  424MOL0     H55930  -1.050   7.418   7.781  2.2935  3.5275  3.5378
  424MOL0     H55931  -1.297   7.414   7.777 -2.2826  0.0504  1.2877
  424MOL0     H55932  -1.698   7.305   8.024 -1.5979 -1.2446  0.2960
  424MOL0     H55933  -1.953   7.295   7.959  1.2425 -2.1786 -0.6689
  424MOL0     H55934  -2.161   7.317   7.917 -1.6748 -0.9325  0.2857
  424MOL0     H55935  -2.082   7.236   7.761  0.8431  2.4643 -2.6014
  424MOL0     H55936  -2.241   7.312   7.628 -3.8976  2.6492 -0.3138
  424MOL0     H55937  -2.313   7.420   7.757  2.2872  1.8255  0.7915
  424MOL0     H55938  -2.323   7.122   7.782  1.5255  0.4009  3.2530
  424MOL0     H55939  -2.443   7.195   7.669  0.1644  2.4780 -0.6966
  424MOL0     H55940  -2.422   7.258   7.964  3.8890  1.5181 -1.9649
  424MOL0     H55941  -2.506   7.364   7.857 -1.6508 -0.2967  3.4992
  424MOL0     H55942  -2.658   7.206   7.973 -2.2614 -1.9310  0.5555
  424MOL0     H55943  -2.558   7.066   7.935 -1.0908  0.2461  4.1015
  424MOL0     H55944  -2.768   7.054   7.820 -0.5742  0.7503  2.2131
  424MOL0     H55945  -2.633   7.054   7.717 -1.2702 -0.0235 -0.3921
  424MOL0     H55946  -2.805   7.302   7.782 -1.5086 -3.5444  0.9416
  424MOL0     H55947  -2.660   7.304   7.681  0.0063 -0.2991  1.8293
  424MOL0     H55948  -2.749   7.140   7.527 -1.2366 -2.4014  0.5876
  424MOL0     H55949  -2.852   7.282   7.537 -1.5132 -0.5964  0.8644
  424MOL0     H55950  -1.896   7.596   7.667 -1.1695  0.9151  0.9469
  424MOL0     H55951  -1.647   7.566   7.683  1.3338  1.2984 -0.0454
  424MOL0     H55952  -1.290   7.399   8.208 -3.2863  0.9249 -0.8124
  424MOL0     H55953  -1.056   7.342   8.207  0.0945 -1.6923 -1.0749
  424MOL0     H55954   0.761   7.742   7.784 -0.0416 -0.5377 -0.7894
  424MOL0     H55955   1.017   7.709   7.805  1.0072  0.0665  0.7713
  424MOL0     H55956   1.447   8.048   7.588  2.0679  4.1377  1.5338
  424MOL0     H55957   1.705   8.015   7.595  1.9179 -2.6347  0.2627
  424MOL0     H55958   1.863   7.715   7.865  2.2020 -0.6725 -0.6349
  424MOL0     H55959   1.862   7.850   7.981  2.4329  0.8062 -0.4009
  424MOL0     H55960   2.048   7.939   7.848  0.2688 -0.9473 -1.4259
  424MOL0     H55961   2.075   7.820   7.974 -0.5788 -2.5916 -0.0968
  424MOL0     H55962   2.054   7.747   7.674  0.1776 -0.6050 -0.4290
  424MOL0     H55963   2.101   7.636   7.806  1.9701 -0.8871  0.5113
  424MOL0     H55964   2.290   7.714   7.686  1.2411  0.6977 -0.5983
  424MOL0     H55965   2.245   7.891   7.720  1.3187 -0.1151  1.2482
  424MOL0     H55966   2.404   7.746   8.088  0.6795  3.5785  1.6861
  424MOL0     H55967   1.661   7.772   7.923 -1.0171 -1.5643 -0.0450
  424MOL0     H55968   1.409   7.753   7.892 -0.4178  0.1073  0.2378
  425MOL0     O55969   0.894   1.756   9.547 -0.2805  0.2576 -0.4551
  425MOL0     C55970   0.997   1.710   9.498  0.4069 -0.4056  0.3681
  425MOL0     O55971   1.002   1.590   9.449  0.4958  0.3507  0.6792
  425MOL0     C55972   0.895   1.504   9.427 -0.8070  0.4250 -0.1435
  425MOL0     C55973   0.802   1.533   9.324  0.0581 -0.9475 -0.9980
  425MOL0     C55974   0.706   1.439   9.303 -0.2461  0.4537 -0.5593
  425MOL0     C55975   0.700   1.316   9.377  0.7651 -0.4732 -0.2117
  425MOL0     O55976   0.591   1.234   9.357  0.1679  0.0374  0.0993
  425MOL0     C55977   0.544   1.220   9.229  0.0637 -0.0981  0.6063
  425MOL0     C55978   0.441   1.106   9.218  0.9210  0.7353  0.5212
  425MOL0     C55979   0.493   0.964   9.252 -0.6535 -0.0102  0.0394
  425MOL0     C55980   0.385   0.860   9.253  0.5134  0.5582  0.1003
  425MOL0     C55981   0.441   0.743   9.330  0.7970 -0.2423  0.3395
  425MOL0     C55982   0.443   0.759   9.483  1.1543  0.0101 -0.0267
  425MOL0     C55983   0.435   0.620   9.554 -0.9720 -0.4617 -0.2695
  425MOL0     C55984   0.431   0.629   9.708  0.4312 -0.6225 -0.0692
  425MOL0     N55985   0.421   0.493   9.757 -0.9286  0.2176  0.0987
  425MOL0     C55986   0.321   0.446   9.845 -0.1541  0.2232 -0.4564
  425MOL0     C55987   0.364   0.324   9.883  2.0065 -1.0401  0.3148
  425MOL0     C55988   0.297   0.241   9.987 -0.3533  0.3672  0.0473
  425MOL0     C55989   0.149   0.221   9.950  0.0965 -0.0425 -0.3453
  425MOL0     C55990   0.135   0.130   9.827  0.3087  0.1424  0.1899
  425MOL0     C55991  -0.011   0.096   9.808 -0.3151  1.1575  0.5681
  425MOL0     O55992  -0.040  -0.008   9.903  0.0849  0.2869 -0.4596
  425MOL0     C55993  -0.161  -0.070   9.909 -0.1717 -0.4506 -0.8495
  425MOL0     C55994  -0.179  -0.186   9.981 -0.7452  0.2466  0.3159
  425MOL0     C55995  -0.299  -0.243   9.978 -1.0847  0.5785 -0.2348
  425MOL0     C55996  -0.411  -0.207   9.907 -0.0337  0.1706 -0.4071
  425MOL0     C55997  -0.540  -0.258   9.929 -0.1329  0.4977  0.4616
  425MOL0     O55998  -0.552  -0.344  10.031  0.3057  0.5263 -0.5849
  425MOL0     C55999  -0.677  -0.401  10.054 -0.0010 -0.0976  0.2079
  425MOL0     C56000  -0.688  -0.538  10.078  0.0112  0.0764  0.5366
  425MOL0     C56001  -0.814  -0.598  10.100 -0.3538 -0.6442  0.0843
  425MOL0     C56002  -0.930  -0.518  10.104 -0.4256  0.0835  0.3625
  425MOL0     O56003  -1.049  -0.579  10.130  0.0978 -0.0534  0.3419
  425MOL0     C56004  -1.147  -0.514  10.219 -0.0851  0.3720  0.2362
  425MOL0     C56005  -1.271  -0.608  10.237  1.1052 -0.2862 -0.0902
  425MOL0     C56006  -1.380  -0.573  10.335  0.2986  0.1024  1.1906
  425MOL0     C56007  -1.474  -0.694  10.367 -0.5379  0.9416 -0.2095
  425MOL0     C56008  -1.583  -0.676  10.471 -0.3364 -0.3198 -0.1558
  425MOL0     C56009  -1.657  -0.816  10.467  0.5595 -0.4428 -0.0736
  425MOL0     C56010  -1.793  -0.798  10.544 -0.5136  0.4120  0.1510
  425MOL0     C56011  -1.853  -0.928  10.592  0.8506 -0.1552 -0.0518
  425MOL0    Cl56012  -2.021  -0.909  10.643  0.0044  0.0387  0.4816
  425MOL0     C56013  -0.915  -0.379  10.086  0.3193 -0.3710  0.0213
  425MOL0     C56014  -0.791  -0.322  10.071  0.9246  0.0605 -0.7060
  425MOL0     O56015  -0.625  -0.232   9.847  0.2607 -0.0836  0.1221
  425MOL0     C56016  -0.388  -0.083   9.836 -0.0925 -0.1973 -0.8000
  425MOL0     C56017  -0.267  -0.020   9.830 -0.3900 -0.3545 -0.8312
  425MOL0     N56018   0.483   0.304   9.827 -0.2293  0.0907  0.7895
  425MOL0     N56019   0.522   0.403   9.751 -0.6743 -0.2444  0.9601
  425MOL0     C56020   0.795   1.284   9.479  0.8354  0.0293  0.2282
  425MOL0     C56021   0.885   1.391   9.504  0.3688  1.5190 -0.2985
  425MOL0     C56022   1.138   1.782   9.507  1.4625 -0.5924 -0.0967
  425MOL0     C56023   1.151   1.920   9.543 -0.7742  0.6294  0.2330
  425MOL0     C56024   1.286   1.976   9.554 -0.6872  0.7524 -0.3145
  425MOL0     C56025   1.402   1.898   9.528  1.0830 -0.2686 -0.5836
  425MOL0     O56026   1.531   1.934   9.547  0.1810 -0.9275 -0.2144
  425MOL0     C56027   1.570   2.074   9.546  0.3923 -0.1408 -0.4246
  425MOL0     C56028   1.576   2.145   9.404  0.0927 -0.2929 -1.2525
  425MOL0     C56029   1.660   2.064   9.308  0.8611  0.5630  0.2688
  425MOL0     C56030   1.803   2.059   9.337 -0.1182 -0.2915 -0.0305
  425MOL0     C56031   1.873   2.187   9.349  0.6092  0.9950  0.2076
  425MOL0     C56032   1.923   2.295   9.342 -0.5230 -0.4096  0.6111
  425MOL0     C56033   1.387   1.759   9.507 -0.3792  0.5580  0.0133
  425MOL0     C56034   1.257   1.703   9.498 -0.9163  0.5336  0.1498
  425MOL0     H56035   0.809   1.630   9.277  2.3319  0.2122  1.4944
  425MOL0     H56036   0.626   1.477   9.241  0.2132  1.1454 -0.7407
  425MOL0     H56037   0.633   1.214   9.166 -1.3124  4.5117 -2.2627
  425MOL0     H56038   0.492   1.311   9.198 -0.4479 -0.7818 -0.6590
  425MOL0     H56039   0.404   1.108   9.115  2.2384 -2.6808 -0.1582
  425MOL0     H56040   0.359   1.151   9.274  1.3138  1.3253  0.6296
  425MOL0     H56041   0.523   0.979   9.356 -1.1034 -0.4990  0.2446
  425MOL0     H56042   0.574   0.927   9.189 -1.6063 -1.5262 -0.3600
  425MOL0     H56043   0.293   0.908   9.288  1.7177  3.4637 -0.4111
  425MOL0     H56044   0.359   0.842   9.148 -0.3961  3.9843 -0.3794
  425MOL0     H56045   0.544   0.714   9.314  0.8554 -0.4537  1.0386
  425MOL0     H56046   0.384   0.654   9.302  0.3449 -0.5440  2.0958
  425MOL0     H56047   0.350   0.807   9.513 -1.2149 -3.4197 -1.3495
  425MOL0     H56048   0.533   0.810   9.519 -0.4276  0.1064  4.2780
  425MOL0     H56049   0.349   0.563   9.520  1.3358 -2.9197 -2.3524
  425MOL0     H56050   0.520   0.561   9.520 -2.4100 -1.1690 -2.8555
  425MOL0     H56051   0.337   0.680   9.736  0.0569 -2.9083  3.4738
  425MOL0     H56052   0.513   0.692   9.743  0.0117  0.1856 -0.5139
  425MOL0     H56053   0.232   0.500   9.875 -0.5993  0.2165 -1.6907
  425MOL0     H56054   0.298   0.285  10.087 -1.4908 -2.3625  1.3702
  425MOL0     H56055   0.357   0.149   9.985 -2.6403 -1.2199 -0.5354
  425MOL0     H56056   0.113   0.322   9.926  0.5798  0.4382  0.8626
  425MOL0     H56057   0.083   0.185  10.030 -0.6575  1.4710 -0.2383
  425MOL0     H56058   0.175   0.181   9.739  0.0108 -2.1494 -1.3814
  425MOL0     H56059   0.181   0.032   9.845 -1.4694 -0.3690  2.3724
  425MOL0     H56060  -0.032   0.049   9.711 -0.3633  0.9655  0.6702
  425MOL0     H56061  -0.080   0.180   9.823 -1.3809  0.3856  0.1374
  425MOL0     H56062  -0.100  -0.210  10.050 -0.9970  0.1119  0.5572
  425MOL0     H56063  -0.295  -0.335  10.036  3.6699  0.1997 -0.7391
  425MOL0     H56064  -0.598  -0.597  10.077  1.3073  1.9565  0.8305
  425MOL0     H56065  -0.816  -0.703  10.126 -1.5610 -1.3801 -2.6476
  425MOL0     H56066  -1.172  -0.415  10.180 -0.0795  0.4982  0.5514
  425MOL0     H56067  -1.094  -0.489  10.311 -0.3155 -0.1065  0.5024
  425MOL0     H56068  -1.229  -0.702  10.275  3.9867  0.5092 -1.1051
  425MOL0     H56069  -1.317  -0.627  10.140 -2.3726  0.4996  1.2577
  425MOL0     H56070  -1.434  -0.488  10.292  2.4546  2.2288  2.3936
  425MOL0     H56071  -1.324  -0.541  10.424  4.0424  0.7945 -1.1701
  425MOL0     H56072  -1.519  -0.733  10.275  0.0654  0.6091 -0.3679
  425MOL0     H56073  -1.416  -0.776  10.408 -1.6012  0.6962  0.8643
  425MOL0     H56074  -1.648  -0.595  10.437  2.1429  1.8379 -0.1646
  425MOL0     H56075  -1.546  -0.661  10.573 -1.9436 -0.1428  0.4277
  425MOL0     H56076  -1.602  -0.898  10.515  0.1423  0.5529  2.2512
  425MOL0     H56077  -1.688  -0.839  10.365 -1.2758  1.6378 -0.0495
  425MOL0     H56078  -1.791  -0.725  10.626 -2.8524  0.5883  0.1310
  425MOL0     H56079  -1.865  -0.751  10.476 -1.5602  1.7819  2.1091
  425MOL0     H56080  -1.790  -0.962  10.674  1.9381  0.0165 -0.7931
  425MOL0     H56081  -1.851  -1.005  10.514  0.7358 -0.2037 -0.0054
  425MOL0     H56082  -1.001  -0.313  10.084 -0.0624 -0.8797 -0.9029
  425MOL0     H56083  -0.781  -0.214  10.069 -1.2164  0.3188  0.0617
  425MOL0     H56084  -0.472  -0.030   9.792 -1.9431 -3.9744 -2.2475
  425MOL0     H56085  -0.271   0.069   9.768 -1.1607 -0.5328 -1.0557
  425MOL0     H56086   0.788   1.187   9.528 -3.1047 -0.7704 -1.5228
  425MOL0     H56087   0.963   1.383   9.579 -1.0741  0.3694  1.1581
  425MOL0     H56088   1.061   1.977   9.558 -1.2692 -0.4831  1.7732
  425MOL0     H56089   1.283   2.082   9.580 -0.3977  0.8220 -0.5635
  425MOL0     H56090   1.669   2.081   9.592  2.7245 -2.4036 -4.5009
  425MOL0     H56091   1.506   2.131   9.615  0.4171 -1.5154  0.7929
  425MOL0     H56092   1.475   2.166   9.367 -1.3610 -3.5723  0.3730
  425MOL0     H56093   1.625   2.242   9.415 -0.6689  0.3632 -3.1591
  425MOL0     H56094   1.649   2.100   9.206  1.9189  0.8319  0.2326
  425MOL0     H56095   1.626   1.960   9.311 -0.7062  0.9588 -1.6181
  425MOL0     H56096   1.833   2.006   9.427  0.4618  2.7223  1.7021
  425MOL0     H56097   1.852   2.000   9.258  0.1289 -2.9959  2.0205
  425MOL0     H56098   1.964   2.392   9.327  0.6811 -0.4014  3.4004
  425MOL0     H56099   1.475   1.695   9.502  0.1516  1.3514 -1.3157
  425MOL0     H56100   1.257   1.603   9.456 -1.9820  1.4895 -2.3590
  426MOL0     O56101   0.580   6.283   4.918 -0.1793 -0.1040  0.7022
  426MOL0     C56102   0.593   6.318   5.029 -0.2438 -0.5028 -0.7107
  426MOL0     O56103   0.538   6.429   5.079 -0.0803  0.3271 -0.5832
  426MOL0     C56104   0.438   6.495   5.006  0.1281 -0.3699  0.1168
  426MOL0     C56105   0.298   6.463   5.020 -0.7658 -0.3229 -0.9235
  426MOL0     C56106   0.211   6.532   4.934  0.3182 -0.0289 -0.3578
  426MOL0     C56107   0.256   6.631   4.841 -0.0895  0.1476  0.9139
  426MOL0     O56108   0.169   6.701   4.757 -0.1841  0.1126  0.3579
  426MOL0     C56109   0.218   6.777   4.647  0.4057 -0.3063  0.8606
  426MOL0     C56110   0.102   6.801   4.551  0.1169 -0.6622  0.1626
  426MOL0     C56111   0.014   6.925   4.599 -0.1552  0.4592 -0.2284
  426MOL0     C56112  -0.112   6.962   4.528 -0.8645  0.5326  0.4202
  426MOL0     C56113  -0.184   7.078   4.594  0.2368 -0.3345 -0.9749
  426MOL0     C56114  -0.244   7.055   4.731 -0.5419 -0.5558  0.1021
  426MOL0     C56115  -0.320   7.177   4.777 -0.3950 -0.5976 -0.3906
  426MOL0     C56116  -0.454   7.166   4.703 -0.4150 -0.0035  0.2411
  426MOL0     N56117  -0.554   7.261   4.736 -0.1690  0.3582 -0.0788
  426MOL0     C56118  -0.614   7.354   4.649  0.2585 -0.0481 -0.1164
  426MOL0     C56119  -0.701   7.414   4.738  0.1595  0.2813  0.2758
  426MOL0     C56120  -0.811   7.499   4.679 -0.9581  0.3605  0.9514
  426MOL0     C56121  -0.949   7.466   4.722 -0.0618 -0.0779  0.4877
  426MOL0     C56122  -1.044   7.565   4.643  0.0685 -0.0778  0.6207
  426MOL0     C56123  -1.176   7.511   4.663  0.0188  0.7551  0.8733
  426MOL0     O56124  -1.284   7.587   4.600 -0.0146  0.0240 -0.4472
  426MOL0     C56125  -1.405   7.537   4.562  0.4746  0.7396 -0.2132
  426MOL0     C56126  -1.514   7.630   4.547 -0.7084  0.0842 -0.3605
  426MOL0     C56127  -1.650   7.584   4.526 -0.6102  0.3902 -0.1595
  426MOL0     C56128  -1.687   7.447   4.533 -0.1443 -0.0713  1.1028
  426MOL0     C56129  -1.827   7.401   4.516 -0.1019  0.6778 -1.0060
  426MOL0     O56130  -1.919   7.495   4.496  0.1059  0.4256 -0.0893
  426MOL0     C56131  -2.052   7.464   4.484 -0.6140 -0.0610  0.3551
  426MOL0     C56132  -2.125   7.391   4.574 -0.3518  0.3422 -0.1263
  426MOL0     C56133  -2.259   7.362   4.575  1.3930 -0.6042  0.5476
  426MOL0     C56134  -2.339   7.422   4.469  0.4571 -0.7630  0.0159
  426MOL0     O56135  -2.474   7.390   4.453 -0.2174 -0.3792  0.6706
  426MOL0     C56136  -2.562   7.476   4.385 -0.1103 -0.0384 -0.2019
  426MOL0     C56137  -2.596   7.592   4.482  0.1660 -1.2126  0.0350
  426MOL0     C56138  -2.711   7.565   4.588 -0.6797 -0.1287 -0.0846
  426MOL0     C56139  -2.727   7.700   4.664 -0.3195 -0.9048 -0.8927
  426MOL0     C56140  -2.841   7.694   4.778  0.2423 -0.1583 -0.8018
  426MOL0     C56141  -2.854   7.836   4.842  0.5799 -0.3609 -0.0456
  426MOL0     C56142  -2.988   7.870   4.913  1.3819 -0.5927  0.5719
  426MOL0     C56143  -3.006   7.791   5.038  0.8232  0.6619  0.9605
  426MOL0    Cl56144  -2.919   7.872   5.173  0.3217 -0.5263 -0.5104
  426MOL0     C56145  -2.261   7.492   4.372 -0.1744  0.1403 -0.4017
  426MOL0     C56146  -2.129   7.516   4.380  0.7966  0.2039  0.4552
  426MOL0     O56147  -1.853   7.277   4.517  0.0393 -1.0375  0.6866
  426MOL0     C56148  -1.577   7.360   4.546  0.2022  0.5174 -0.4867
  426MOL0     C56149  -1.444   7.399   4.566 -0.7580  0.4989  0.7774
  426MOL0     N56150  -0.687   7.375   4.866  0.6387  0.8431 -0.4817
  426MOL0     N56151  -0.585   7.295   4.867 -0.1182  0.2839  0.6036
  426MOL0     C56152   0.387   6.668   4.843 -0.6049 -0.7216  0.0925
  426MOL0     C56153   0.478   6.602   4.924  0.1119  0.6674 -0.2799
  426MOL0     C56154   0.680   6.242   5.120 -0.1368  0.5019 -0.2702
  426MOL0     C56155   0.705   6.271   5.257 -0.3534 -0.6304 -0.9751
  426MOL0     C56156   0.793   6.191   5.343  0.1540  0.3480  0.2669
  426MOL0     C56157   0.869   6.082   5.287  0.3361  0.1443 -0.2656
  426MOL0     O56158   0.940   5.993   5.357  0.1236  0.8496  0.0443
  426MOL0     C56159   0.883   5.939   5.481  0.1228  1.1321  0.3994
  426MOL0     C56160   0.930   6.013   5.608 -0.5577  0.5642 -0.0115
  426MOL0     C56161   1.070   5.974   5.653 -0.9462 -0.5240  0.0240
  426MOL0     C56162   1.102   6.042   5.783  0.1084 -0.0751  0.2545
  426MOL0     C56163   1.041   5.974   5.901  0.0877  0.0951  0.0982
  426MOL0     C56164   0.997   5.916   5.997  0.0175 -0.1084  0.7679
  426MOL0     C56165   0.848   6.055   5.145  0.4528  0.4781 -0.0405
  426MOL0     C56166   0.762   6.140   5.061 -0.3408  0.4351  0.0576
  426MOL0     H56167   0.261   6.386   5.088 -0.0207 -0.3768 -0.5684
  426MOL0     H56168   0.111   6.492   4.950  0.2396 -0.0431 -0.8916
  426MOL0     H56169   0.289   6.716   4.592  0.9884  1.2202 -0.1445
  426MOL0     H56170   0.266   6.872   4.672  2.6172 -1.5763  1.7441
  426MOL0     H56171   0.050   6.705   4.546 -0.0178 -0.5652 -0.3062
  426MOL0     H56172   0.138   6.802   4.448 -0.0492 -1.5031  0.0838
  426MOL0     H56173   0.081   7.012   4.596 -0.0418  0.3497 -1.1668
  426MOL0     H56174   0.001   6.898   4.705  2.7882 -1.3254 -0.2098
  426MOL0     H56175  -0.089   6.979   4.422  2.8899 -2.2760  0.5692
  426MOL0     H56176  -0.175   6.873   4.532  0.2210 -0.2239  3.6486
  426MOL0     H56177  -0.261   7.111   4.523  0.6707 -0.8921 -1.7208
  426MOL0     H56178  -0.117   7.164   4.605 -2.1113  1.4376  0.7385
  426MOL0     H56179  -0.164   7.045   4.805  0.9785 -0.4051 -1.4546
  426MOL0     H56180  -0.307   6.966   4.731 -0.1966 -0.8058  0.4165
  426MOL0     H56181  -0.339   7.169   4.884  3.2326 -1.7247  0.3289
  426MOL0     H56182  -0.275   7.275   4.757 -2.8306  0.3973 -1.2925
  426MOL0     H56183  -0.500   7.071   4.732  0.7950 -0.8293 -0.4698
  426MOL0     H56184  -0.444   7.167   4.594  1.8547 -1.8975  0.3432
  426MOL0     H56185  -0.612   7.373   4.542 -0.0972  2.7769  0.3133
  426MOL0     H56186  -0.800   7.495   4.570 -0.7137  3.1386  0.7970
  426MOL0     H56187  -0.796   7.603   4.711 -0.3032  0.6311 -0.1833
  426MOL0     H56188  -0.953   7.491   4.828  0.3823  1.2081  0.2065
  426MOL0     H56189  -0.984   7.364   4.703  1.2205 -0.9870  2.6385
  426MOL0     H56190  -1.037   7.670   4.673 -0.9146 -0.1079  0.9948
  426MOL0     H56191  -1.030   7.557   4.535  0.4106  1.0702  0.5687
  426MOL0     H56192  -1.196   7.500   4.770 -2.0403  0.7376  0.5209
  426MOL0     H56193  -1.176   7.414   4.612  1.6558  2.1629 -2.0461
  426MOL0     H56194  -1.485   7.735   4.540  0.9214 -0.3026  0.1420
  426MOL0     H56195  -1.722   7.664   4.516  0.1806  1.1512  0.0407
  426MOL0     H56196  -2.063   7.347   4.651  1.6188 -0.9934 -2.3328
  426MOL0     H56197  -2.297   7.309   4.662  1.9398 -0.4671  0.8771
  426MOL0     H56198  -2.658   7.424   4.370  0.4183 -2.1155  2.8324
  426MOL0     H56199  -2.540   7.518   4.286 -2.9422  2.8281  0.1947
  426MOL0     H56200  -2.619   7.678   4.418  0.4723 -0.1623  1.2898
  426MOL0     H56201  -2.508   7.625   4.539  0.2183 -3.5564  1.4513
  426MOL0     H56202  -2.678   7.484   4.653  1.3374  1.5794  1.1947
  426MOL0     H56203  -2.810   7.543   4.548 -1.4688  3.8224 -0.7237
  426MOL0     H56204  -2.634   7.734   4.708 -1.6928  1.2361  0.5362
  426MOL0     H56205  -2.749   7.781   4.594 -0.4535 -1.7014 -1.7960
  426MOL0     H56206  -2.818   7.616   4.852 -3.5717 -1.0819 -0.3844
  426MOL0     H56207  -2.937   7.657   4.741 -1.0022 -0.8338  2.7195
  426MOL0     H56208  -2.844   7.904   4.758  2.6234 -1.7973 -1.0461
  426MOL0     H56209  -2.779   7.858   4.919  0.8718  1.5303 -0.8146
  426MOL0     H56210  -2.996   7.979   4.913 -0.8939 -0.6730 -1.1367
  426MOL0     H56211  -3.069   7.847   4.843  1.0652  0.7829  0.4566
  426MOL0     H56212  -2.952   7.696   5.030 -2.4891 -1.4385  1.4336
  426MOL0     H56213  -3.108   7.765   5.068  0.7985  0.1285  0.4153
  426MOL0     H56214  -2.309   7.542   4.289 -0.1226  2.7332  1.0224
  426MOL0     H56215  -2.078   7.568   4.300  0.2096 -0.3825 -0.3237
  426MOL0     H56216  -1.603   7.254   4.541  0.6909  0.3552  0.1671
  426MOL0     H56217  -1.382   7.311   4.585 -0.6443  1.0968  3.5556
  426MOL0     H56218   0.439   6.749   4.793 -0.5355 -0.5374  0.4601
  426MOL0     H56219   0.581   6.625   4.951  0.1381 -1.3541  1.6084
  426MOL0     H56220   0.662   6.361   5.300  3.2842 -0.3310  2.7875
  426MOL0     H56221   0.807   6.221   5.447  1.8110  0.5641  0.0081
  426MOL0     H56222   0.913   5.834   5.486 -3.5690 -0.1409 -1.0338
  426MOL0     H56223   0.775   5.927   5.478  0.1385  0.5073  1.6873
  426MOL0     H56224   0.933   6.121   5.593  1.0200  0.7074  1.0822
  426MOL0     H56225   0.857   5.992   5.686  0.0747  0.6711  0.6215
  426MOL0     H56226   1.140   6.007   5.575 -1.5847  0.1015 -0.3003
  426MOL0     H56227   1.069   5.867   5.671  0.3798 -0.5195  0.2036
  426MOL0     H56228   1.211   6.045   5.794  0.0938  2.5540  0.4197
  426MOL0     H56229   1.068   6.146   5.783 -1.8874 -0.6718  0.6690
  426MOL0     H56230   0.964   5.860   6.083 -2.8389  1.3833  0.7493
  426MOL0     H56231   0.912   5.986   5.091 -1.4170 -1.2145 -0.2200
  426MOL0     H56232   0.756   6.127   4.954  1.3657  3.1880 -0.4552
  427MOL0     O56233  10.493   6.421   3.629  0.2300 -0.1444  0.4616
  427MOL0     C56234  10.546   6.489   3.542 -0.3230 -0.1291 -0.5755
  427MOL0     O56235  10.502   6.616   3.500  0.9740  0.7892  0.5752
  427MOL0     C56236  10.378   6.676   3.549 -0.8155 -0.1552  0.7526
  427MOL0     C56237  10.291   6.622   3.637  0.1156  0.2750 -0.0801
  427MOL0     C56238  10.182   6.700   3.686  0.2288  0.4261  0.3185
  427MOL0     C56239  10.154   6.819   3.622 -0.3370 -0.1559  0.1370
  427MOL0     O56240  10.047   6.900   3.660  0.2574 -0.1432  0.6475
  427MOL0     C56241   9.962   6.865   3.770 -0.3416 -1.1715 -0.0002
  427MOL0     C56242   9.898   6.989   3.832 -0.1231 -1.1730 -0.0118
  427MOL0     C56243   9.759   7.011   3.772  0.2199 -0.1006 -0.1674
  427MOL0     C56244   9.700   7.151   3.821 -0.1386  0.3211 -0.7535
  427MOL0     C56245   9.546   7.181   3.799 -0.2234  0.1434 -0.0571
  427MOL0     C56246   9.520   7.315   3.882 -0.1424  0.0995 -0.0486
  427MOL0     C56247   9.382   7.379   3.859 -0.9069  0.1236 -0.3438
  427MOL0     C56248   9.379   7.528   3.847 -0.1911 -0.2271 -0.0092
  427MOL0     N56249   9.237   7.566   3.823 -0.3063  1.1089  0.3713
  427MOL0     C56250   9.155   7.650   3.897  0.1707  0.5143  0.5340
  427MOL0     C56251   9.053   7.684   3.825  0.7884  0.2015  0.3070
  427MOL0     C56252   8.932   7.770   3.873  1.3061 -0.2788 -0.3203
  427MOL0     C56253   8.884   7.735   4.016 -0.4313  0.0896  0.0566
  427MOL0     C56254   8.802   7.851   4.081 -0.2923  0.1876  0.1130
  427MOL0     C56255   8.660   7.837   4.020 -0.2514 -0.8834  0.0829
  427MOL0     O56256   8.604   7.735   4.093 -0.0611 -0.5558 -0.9796
  427MOL0     C56257   8.471   7.710   4.081  0.3967  0.7332  0.0122
  427MOL0     C56258   8.421   7.599   4.148  0.3276  0.4394  0.2301
  427MOL0     C56259   8.288   7.571   4.142 -0.3455  0.8478 -0.5157
  427MOL0     C56260   8.191   7.661   4.086  0.4905 -0.1155  0.1087
  427MOL0     C56261   8.042   7.633   4.098  0.0434  0.7622  0.4091
  427MOL0     O56262   8.019   7.502   4.154 -0.2934 -0.8564 -0.1196
  427MOL0     C56263   7.891   7.459   4.145  0.0228  0.8584  0.3908
  427MOL0     C56264   7.830   7.415   4.249 -0.1272 -0.0603 -0.9327
  427MOL0     C56265   7.690   7.375   4.254  0.1099 -0.2089 -0.0124
  427MOL0     C56266   7.621   7.377   4.134 -0.0007  0.3198 -0.6224
  427MOL0     O56267   7.493   7.327   4.135 -0.4075  0.7162  0.4953
  427MOL0     C56268   7.434   7.298   4.005 -0.3075 -0.6278  0.0410
  427MOL0     C56269   7.295   7.235   4.027 -0.4995 -0.2043 -0.5860
  427MOL0     C56270   7.223   7.337   4.118  0.0559  0.3149  0.2013
  427MOL0     C56271   7.077   7.305   4.129  0.4365  0.1665  0.0316
  427MOL0     C56272   7.007   7.392   4.230 -0.1915  0.4650 -0.3549
  427MOL0     C56273   6.855   7.356   4.249 -0.3127 -0.6185  0.4491
  427MOL0     C56274   6.792   7.468   4.334  0.2578  0.1742  0.4423
  427MOL0     C56275   6.834   7.463   4.483 -0.0388 -0.2856 -1.1009
  427MOL0    Cl56276   6.935   7.604   4.522  0.1716  0.1179 -0.1735
  427MOL0     C56277   7.691   7.406   4.020  0.1588 -0.9103  0.5045
  427MOL0     C56278   7.819   7.458   4.025  0.5348  0.5660 -0.5875
  427MOL0     O56279   7.958   7.715   4.064  0.0608 -0.3083  0.3788
  427MOL0     C56280   8.245   7.771   4.016  0.0747  0.9911 -0.4179
  427MOL0     C56281   8.383   7.794   4.011  0.1065  0.7749 -0.2854
  427MOL0     N56282   9.072   7.625   3.702  0.3415  0.7983 -0.5308
  427MOL0     N56283   9.176   7.550   3.703  0.6236  0.0118 -0.3059
  427MOL0     C56284  10.242   6.870   3.530  0.1542  0.3545 -0.0224
  427MOL0     C56285  10.355   6.798   3.494  0.0623  0.3870  0.8470
  427MOL0     C56286  10.651   6.431   3.457 -0.6418 -0.3802  0.3273
  427MOL0     C56287  10.731   6.326   3.502  0.1923  0.8105  0.4754
  427MOL0     C56288  10.833   6.270   3.422 -1.0282 -0.3962  0.6084
  427MOL0     C56289  10.864   6.334   3.303 -0.0114 -0.0092  0.1748
  427MOL0     O56290  10.974   6.302   3.220  0.0638 -0.3194 -0.2721
  427MOL0     C56291  11.021   6.167   3.241  0.1627  0.0421  0.6872
  427MOL0     C56292  11.137   6.131   3.145  0.3729 -0.2729  0.4047
  427MOL0     C56293  11.196   5.994   3.162 -0.2249 -0.1739 -0.6085
  427MOL0     C56294  11.252   5.986   3.313  0.0481 -0.1434  0.1364
  427MOL0     C56295  11.331   5.871   3.337 -0.0407 -0.6019  0.1486
  427MOL0     C56296  11.375   5.764   3.384  0.4789 -0.4824  0.2186
  427MOL0     C56297  10.781   6.425   3.249  0.0502  1.0257 -0.4117
  427MOL0     C56298  10.669   6.475   3.324 -0.5284 -0.7426 -0.4979
  427MOL0     H56299  10.297   6.525   3.685 -2.0713  0.2021  0.1446
  427MOL0     H56300  10.130   6.653   3.769  0.6239  2.2454  1.6644
  427MOL0     H56301  10.027   6.818   3.844  0.1786 -0.2945  0.1154
  427MOL0     H56302   9.897   6.781   3.742  1.9161 -3.6926  1.7701
  427MOL0     H56303   9.959   7.077   3.810 -0.4350 -0.6257  1.2040
  427MOL0     H56304   9.891   6.986   3.941 -1.8145  2.2801  0.1149
  427MOL0     H56305   9.691   6.930   3.801  0.9810  0.5641  4.0579
  427MOL0     H56306   9.753   7.009   3.663 -1.6265  1.5037 -0.1584
  427MOL0     H56307   9.728   7.149   3.926 -1.0006 -0.9430 -0.5293
  427MOL0     H56308   9.763   7.233   3.785 -0.2186  1.9439  2.4368
  427MOL0     H56309   9.480   7.101   3.835  1.2466 -0.6788  0.9287
  427MOL0     H56310   9.533   7.188   3.690 -0.6024 -2.6562 -0.2773
  427MOL0     H56311   9.598   7.381   3.844 -1.6706  0.7881 -2.1927
  427MOL0     H56312   9.530   7.308   3.991  3.0366  0.3017 -0.2545
  427MOL0     H56313   9.346   7.338   3.764 -0.2083  4.7180 -2.8689
  427MOL0     H56314   9.315   7.349   3.941  0.2796  1.0741  1.0243
  427MOL0     H56315   9.436   7.568   3.763  2.1631  0.6871  1.8713
  427MOL0     H56316   9.416   7.571   3.941  1.9945 -0.1859 -0.8217
  427MOL0     H56317   9.174   7.688   3.997  1.2911  2.1292 -0.2457
  427MOL0     H56318   8.849   7.763   3.802  1.7882 -0.4120 -0.8777
  427MOL0     H56319   8.961   7.875   3.877 -2.6263  0.9325  0.4723
  427MOL0     H56320   8.965   7.719   4.088  0.1646  0.6921 -0.4678
  427MOL0     H56321   8.821   7.646   4.004 -0.2365  0.0819 -0.9690
  427MOL0     H56322   8.815   7.834   4.188 -0.5237  0.8808  0.2529
  427MOL0     H56323   8.854   7.945   4.061  1.7600 -1.2662 -1.8611
  427MOL0     H56324   8.662   7.811   3.913  1.1823  1.4941 -0.5476
  427MOL0     H56325   8.616   7.936   4.040  0.8193  0.2833 -2.7735
  427MOL0     H56326   8.478   7.550   4.226  0.2600  2.5479  1.6892
  427MOL0     H56327   8.257   7.475   4.181  0.9746  0.3046 -0.7457
  427MOL0     H56328   7.871   7.423   4.349 -0.9860 -0.5761 -0.5271
  427MOL0     H56329   7.650   7.332   4.346  1.5103 -4.0456 -1.0165
  427MOL0     H56330   7.494   7.223   3.953 -0.3520 -0.8384  0.2912
  427MOL0     H56331   7.418   7.388   3.944 -0.9476 -1.3138 -0.8337
  427MOL0     H56332   7.311   7.141   4.081  0.9261 -0.2477 -1.0256
  427MOL0     H56333   7.246   7.225   3.930  0.6703  2.6331 -1.5724
  427MOL0     H56334   7.246   7.441   4.091 -0.3404 -0.2892 -2.7469
  427MOL0     H56335   7.265   7.319   4.217 -0.7994 -0.7626  0.3791
  427MOL0     H56336   7.033   7.324   4.031 -2.2800 -0.9317  0.9401
  427MOL0     H56337   7.063   7.202   4.162  1.2446 -0.2192 -0.7762
  427MOL0     H56338   7.009   7.494   4.189  4.6064  1.0832  0.8033
  427MOL0     H56339   7.064   7.386   4.323  1.9154 -2.3982 -1.6804
  427MOL0     H56340   6.865   7.261   4.302 -0.0539 -1.9530 -1.8826
  427MOL0     H56341   6.788   7.339   4.164 -1.0429 -0.4587  0.9850
  427MOL0     H56342   6.809   7.565   4.286  0.3913 -0.4559 -0.8137
  427MOL0     H56343   6.686   7.443   4.329  0.6951 -1.5780 -1.1535
  427MOL0     H56344   6.875   7.367   4.516 -1.5299 -0.0586  1.7840
  427MOL0     H56345   6.749   7.472   4.552  0.7453 -1.7112  0.1260
  427MOL0     H56346   7.648   7.392   3.921  2.2925 -0.4691 -0.5563
  427MOL0     H56347   7.876   7.477   3.935 -0.9605  0.9402 -1.4979
  427MOL0     H56348   8.187   7.839   3.954  2.4248  1.5328 -2.1705
  427MOL0     H56349   8.419   7.887   3.967  0.6136  0.4378 -0.5897
  427MOL0     H56350  10.225   6.969   3.490 -1.9333  0.6809  1.5143
  427MOL0     H56351  10.431   6.832   3.424 -0.5089 -2.3732 -1.2971
  427MOL0     H56352  10.720   6.277   3.598  1.1005 -2.0199 -0.7355
  427MOL0     H56353  10.902   6.200   3.467  1.4039  2.3677  1.5122
  427MOL0     H56354  10.936   6.105   3.213  0.7881 -0.5983  0.1955
  427MOL0     H56355  11.041   6.160   3.349 -3.5466  2.9713  1.7826
  427MOL0     H56356  11.086   6.134   3.048  2.0808 -0.2546 -0.5268
  427MOL0     H56357  11.220   6.201   3.160  0.1582 -0.0793  0.7288
  427MOL0     H56358  11.281   5.973   3.097  0.4780 -0.5244  0.3867
  427MOL0     H56359  11.118   5.920   3.145 -0.2019 -0.3026 -0.1687
  427MOL0     H56360  11.299   6.078   3.351  0.1148 -1.0065  2.3263
  427MOL0     H56361  11.174   5.975   3.389  1.9483  1.5596  2.4975
  427MOL0     H56362  11.433   5.676   3.404  0.9681 -0.3668 -0.6652
  427MOL0     H56363  10.804   6.470   3.153  4.1121 -0.6862 -0.4370
  427MOL0     H56364  10.605   6.554   3.283  1.4221  0.6252 -1.0611
  428MOL0     O56365   6.502   9.109   2.448 -0.3117 -0.4687 -0.1448
  428MOL0     C56366   6.616   9.106   2.396 -0.6396  0.3153 -0.7981
  428MOL0     O56367   6.657   9.018   2.297  0.9405 -0.3132  0.0650
  428MOL0     C56368   6.581   8.916   2.238  0.0482 -0.4592 -0.5004
  428MOL0     C56369   6.452   8.940   2.195  0.7411 -0.3324  0.5343
  428MOL0     C56370   6.382   8.847   2.120  0.4285 -0.3448  0.0865
  428MOL0     C56371   6.436   8.725   2.085 -0.2753 -0.3205 -0.5361
  428MOL0     O56372   6.365   8.636   2.009  0.9947 -0.3926  0.2763
  428MOL0     C56373   6.388   8.498   2.010  0.4143 -0.1079 -1.0304
  428MOL0     C56374   6.296   8.432   1.909 -0.7187  0.3536  0.1505
  428MOL0     C56375   6.145   8.444   1.961 -1.1652 -0.3658  0.7033
  428MOL0     C56376   6.059   8.390   1.849 -0.7469  0.1356  0.0767
  428MOL0     C56377   5.917   8.387   1.881  0.3501  0.2208 -0.8410
  428MOL0     C56378   5.821   8.360   1.758 -0.1128 -0.2899 -0.6810
  428MOL0     C56379   5.850   8.238   1.671  1.0494  0.3991  0.6905
  428MOL0     C56380   5.828   8.111   1.757 -0.3377  0.4811 -0.1050
  428MOL0     N56381   5.853   7.988   1.681 -0.6604  0.4060  0.4600
  428MOL0     C56382   5.971   7.919   1.694  0.7459  1.1014  0.0624
  428MOL0     C56383   5.947   7.793   1.644  0.7163  0.4730 -0.2420
  428MOL0     C56384   6.058   7.697   1.607  0.0491  1.0128  0.4940
  428MOL0     C56385   6.132   7.665   1.732  0.8370  0.0599  0.0689
  428MOL0     C56386   6.222   7.538   1.727  0.5991 -0.3393  0.0020
  428MOL0     C56387   6.325   7.544   1.618  0.3001  0.0068 -0.0139
  428MOL0     O56388   6.391   7.667   1.633  0.1363  0.3427 -0.0149
  428MOL0     C56389   6.402   7.747   1.526 -0.5694  0.0396 -0.1655
  428MOL0     C56390   6.332   7.749   1.409 -0.1655  0.3590  0.1579
  428MOL0     C56391   6.358   7.832   1.303 -0.1300  0.0831 -0.4031
  428MOL0     C56392   6.467   7.921   1.312 -1.0115 -0.4441 -0.2981
  428MOL0     C56393   6.484   8.034   1.214 -0.7497  0.0824  0.2359
  428MOL0     O56394   6.420   8.015   1.089  0.1350 -0.2114  0.7521
  428MOL0     C56395   6.406   8.130   1.013  0.1174  0.3347  0.1675
  428MOL0     C56396   6.509   8.174   0.933  0.9301 -0.5373  0.1804
  428MOL0     C56397   6.480   8.280   0.839 -0.8205 -0.9741 -0.4996
  428MOL0     C56398   6.353   8.342   0.828 -0.2142  0.1360  0.4966
  428MOL0     O56399   6.331   8.440   0.732 -0.4894  0.3538  0.1938
  428MOL0     C56400   6.241   8.390   0.637  0.3407 -0.1172  0.3891
  428MOL0     C56401   6.192   8.507   0.541 -0.6326  0.3198  0.2000
  428MOL0     C56402   6.046   8.481   0.484 -0.7537  0.0401  0.3907
  428MOL0     C56403   6.003   8.576   0.370 -0.4796 -0.6042  0.7989
  428MOL0     C56404   5.874   8.539   0.290  0.8867  0.4080 -0.0019
  428MOL0     C56405   5.836   8.664   0.208  0.7650 -0.1728  0.0813
  428MOL0     C56406   5.697   8.650   0.150  1.0559  0.0916  0.0755
  428MOL0     C56407   5.633   8.780   0.141 -0.6334  0.1083 -0.7734
  428MOL0    Cl56408   5.470   8.756   0.059  0.1864 -0.2861  0.0296
  428MOL0     C56409   6.256   8.284   0.904  0.1979  0.1756  0.1314
  428MOL0     C56410   6.282   8.182   0.998 -0.6493  0.0771  0.6191
  428MOL0     O56411   6.531   8.138   1.251 -0.2062 -0.0443 -0.3655
  428MOL0     C56412   6.551   7.912   1.425  0.2776 -0.3748  0.9439
  428MOL0     C56413   6.516   7.837   1.530 -0.3226 -0.2061  0.1178
  428MOL0     N56414   5.812   7.796   1.595 -0.4021  0.9451 -0.1975
  428MOL0     N56415   5.757   7.907   1.630 -0.2960 -0.1943  0.1024
  428MOL0     C56416   6.559   8.691   2.132 -1.1844  0.1348 -0.2764
  428MOL0     C56417   6.631   8.782   2.212 -0.1314  0.3656  0.3673
  428MOL0     C56418   6.712   9.200   2.466  0.2685  0.0413 -0.3115
  428MOL0     C56419   6.666   9.273   2.576  0.9861 -0.2390 -0.1953
  428MOL0     C56420   6.753   9.349   2.649 -1.5243 -0.4359 -0.5552
  428MOL0     C56421   6.884   9.364   2.608  0.8550 -0.2283  0.3631
  428MOL0     O56422   6.974   9.422   2.702  0.4631  0.4347 -1.3475
  428MOL0     C56423   7.108   9.399   2.687 -0.0167  0.3590  0.3305
  428MOL0     C56424   7.160   9.418   2.826 -0.8465  0.2629 -0.8290
  428MOL0     C56425   7.302   9.364   2.826 -0.4380 -0.2494  0.2270
  428MOL0     C56426   7.376   9.377   2.954 -0.3323 -0.4150 -0.4898
  428MOL0     C56427   7.518   9.343   2.940  0.0650  0.6859  0.2568
  428MOL0     C56428   7.629   9.315   2.904 -0.3291  0.5007 -0.1534
  428MOL0     C56429   6.926   9.303   2.491 -0.7330  0.3302  0.1606
  428MOL0     C56430   6.843   9.214   2.427  0.4165  0.9675 -0.6959
  428MOL0     H56431   6.419   9.043   2.203  1.4510 -0.0695  0.2301
  428MOL0     H56432   6.285   8.871   2.079  0.1430  1.7059  1.8084
  428MOL0     H56433   6.377   8.457   2.111 -3.2719  2.5896 -0.1274
  428MOL0     H56434   6.488   8.481   1.970  0.7342 -1.5477  0.2530
  428MOL0     H56435   6.326   8.328   1.914  2.1031  1.1488  2.3481
  428MOL0     H56436   6.307   8.473   1.808  0.7718 -1.0404 -0.3023
  428MOL0     H56437   6.118   8.548   1.982 -1.0484 -0.3842  0.9488
  428MOL0     H56438   6.140   8.385   2.053  1.6942  0.6705  1.6474
  428MOL0     H56439   6.076   8.451   1.760 -1.9673 -0.3552 -0.5180
  428MOL0     H56440   6.091   8.286   1.839  1.1597  0.6154  0.8756
  428MOL0     H56441   5.884   8.480   1.929  2.9607 -0.8117  3.5251
  428MOL0     H56442   5.905   8.310   1.958 -0.8005 -0.4739 -1.6912
  428MOL0     H56443   5.832   8.446   1.690 -1.0190  1.3697  1.1695
  428MOL0     H56444   5.715   8.370   1.782 -0.7405  2.7680 -3.8311
  428MOL0     H56445   5.790   8.225   1.581  0.9852 -2.2962  1.0359
  428MOL0     H56446   5.955   8.233   1.641  0.9488  1.2391  0.1974
  428MOL0     H56447   5.721   8.115   1.783 -0.1589  1.9203  0.4727
  428MOL0     H56448   5.894   8.111   1.844  0.2802 -0.6172 -0.5536
  428MOL0     H56449   6.068   7.946   1.736  0.3477 -0.1014  1.8948
  428MOL0     H56450   6.116   7.743   1.526 -0.0334 -0.4772 -0.4403
  428MOL0     H56451   6.012   7.606   1.569  1.8974  0.1468  0.1967
  428MOL0     H56452   6.059   7.650   1.812  0.5257  0.5342 -0.1215
  428MOL0     H56453   6.197   7.750   1.759  3.1303 -1.8099  0.7914
  428MOL0     H56454   6.272   7.528   1.824 -0.4202  2.7216  0.9588
  428MOL0     H56455   6.161   7.447   1.717 -2.1146  0.9718  3.0286
  428MOL0     H56456   6.303   7.517   1.514 -0.7345  2.4020 -0.4658
  428MOL0     H56457   6.389   7.461   1.651 -1.1717 -0.8530  0.7892
  428MOL0     H56458   6.258   7.671   1.394 -1.2058  1.0730  1.3889
  428MOL0     H56459   6.292   7.835   1.217  1.8499 -0.7522 -2.0498
  428MOL0     H56460   6.612   8.139   0.937  0.6330 -1.3061  2.2420
  428MOL0     H56461   6.544   8.316   0.759  1.3210 -0.0405  1.5155
  428MOL0     H56462   6.152   8.343   0.679 -0.8355  0.9381 -0.8295
  428MOL0     H56463   6.291   8.318   0.571  1.6684 -0.0978  1.3492
  428MOL0     H56464   6.269   8.527   0.465 -0.2095  0.9752  0.7879
  428MOL0     H56465   6.206   8.608   0.580 -0.7356  0.6235 -0.5325
  428MOL0     H56466   5.975   8.485   0.567 -1.4935 -1.5408 -0.1220
  428MOL0     H56467   6.042   8.377   0.451  0.3883  0.1782 -0.2468
  428MOL0     H56468   5.978   8.673   0.413  0.3491  0.5212 -1.1158
  428MOL0     H56469   6.086   8.593   0.300 -1.9045 -0.7744 -1.0130
  428MOL0     H56470   5.799   8.510   0.364 -0.1998 -3.1752 -2.2463
  428MOL0     H56471   5.893   8.459   0.219 -0.9437 -0.0733 -0.0016
  428MOL0     H56472   5.905   8.683   0.125  1.0589 -0.4964  0.2478
  428MOL0     H56473   5.830   8.749   0.278 -2.8967 -1.8144  2.0284
  428MOL0     H56474   5.703   8.607   0.049  1.9347  0.0021  0.1545
  428MOL0     H56475   5.639   8.587   0.219 -0.0249 -0.8207 -1.5973
  428MOL0     H56476   5.701   8.851   0.093 -0.2164  0.9696  1.0049
  428MOL0     H56477   5.614   8.823   0.239  3.6996 -1.9359  1.2262
  428MOL0     H56478   6.153   8.310   0.885 -0.5057 -3.2291 -1.4781
  428MOL0     H56479   6.197   8.139   1.050  0.0370 -1.4951  0.5219
  428MOL0     H56480   6.638   7.977   1.425  0.9073 -1.1906  1.7157
  428MOL0     H56481   6.585   7.844   1.614  1.9843 -2.7610 -1.3849
  428MOL0     H56482   6.605   8.596   2.107  0.6977  1.0902 -0.6801
  428MOL0     H56483   6.730   8.759   2.251 -0.1088 -3.2956 -1.4764
  428MOL0     H56484   6.565   9.258   2.612  0.3008  0.1207 -1.8909
  428MOL0     H56485   6.733   9.389   2.747 -0.5013  1.4285 -1.0491
  428MOL0     H56486   7.161   9.467   2.620  1.6977  0.9249  2.1743
  428MOL0     H56487   7.122   9.297   2.650  0.8366  0.4218  0.4511
  428MOL0     H56488   7.154   9.525   2.850  0.0491 -0.4508  3.3700
  428MOL0     H56489   7.099   9.367   2.901  1.0337  0.9995  1.3363
  428MOL0     H56490   7.360   9.415   2.749  1.1861 -0.0518  1.5239
  428MOL0     H56491   7.306   9.259   2.794  0.6568 -0.2247  0.2622
  428MOL0     H56492   7.365   9.477   2.997  3.0476 -0.0635 -0.1396
  428MOL0     H56493   7.329   9.314   3.030  1.2180  1.0137  1.8007
  428MOL0     H56494   7.729   9.297   2.869 -1.1899  0.1879 -2.6766
  428MOL0     H56495   7.023   9.321   2.446  0.0989 -0.5059  1.5336
  428MOL0     H56496   6.869   9.154   2.341 -2.6997 -1.7678  0.0428
  429MOL0     O56497   7.501   2.228   3.731 -0.2567  0.1397 -0.0881
  429MOL0     C56498   7.593   2.150   3.725 -0.9068  0.2352 -0.5720
  429MOL0     O56499   7.585   2.028   3.673  0.1359  0.3967  0.0412
  429MOL0     C56500   7.477   1.977   3.604  0.4172  0.0004 -0.5606
  429MOL0     C56501   7.424   2.034   3.486  0.2873  0.1205  0.1515
  429MOL0     C56502   7.319   1.982   3.409 -0.5801  1.0300 -0.9256
  429MOL0     C56503   7.263   1.858   3.444 -0.0310  0.3638 -0.0697
  429MOL0     O56504   7.176   1.815   3.346 -0.6234 -0.5028 -0.0901
  429MOL0     C56505   7.067   1.740   3.402 -0.8082 -0.0084 -0.2795
  429MOL0     C56506   6.943   1.810   3.392 -0.2186  0.7024  0.6647
  429MOL0     C56507   6.827   1.721   3.442 -0.2597  0.0255 -0.0420
  429MOL0     C56508   6.686   1.791   3.440  0.4010 -0.0861 -0.3343
  429MOL0     C56509   6.570   1.710   3.518 -0.4103 -0.9234 -0.3161
  429MOL0     C56510   6.537   1.573   3.453  0.2864  0.0859  0.0653
  429MOL0     C56511   6.441   1.475   3.532  0.0844  0.0025  0.4897
  429MOL0     C56512   6.378   1.378   3.438  0.1634 -0.2409 -0.0524
  429MOL0     N56513   6.274   1.293   3.503  0.0672  0.0747 -0.6141
  429MOL0     C56514   6.143   1.278   3.460  0.2630 -1.0363 -0.5888
  429MOL0     C56515   6.093   1.191   3.551 -0.0197 -0.2673 -1.0513
  429MOL0     C56516   5.949   1.143   3.560 -0.1095  0.1484  0.4985
  429MOL0     C56517   5.844   1.258   3.556 -0.5475  0.5983 -0.0839
  429MOL0     C56518   5.862   1.371   3.651 -0.1081  0.3034  0.1117
  429MOL0     C56519   5.868   1.309   3.793  0.2483 -0.4379 -0.0105
  429MOL0     O56520   5.872   1.410   3.897 -0.3763  0.8583  0.2977
  429MOL0     C56521   5.978   1.496   3.902 -0.2564  0.5194  0.3379
  429MOL0     C56522   6.105   1.489   3.845  0.2473  0.4623  0.0810
  429MOL0     C56523   6.185   1.605   3.835 -0.3869  0.0258 -0.0119
  429MOL0     C56524   6.144   1.727   3.897 -0.2976 -0.0388 -0.7097
  429MOL0     C56525   6.239   1.851   3.883 -0.3251 -0.1932  0.9456
  429MOL0     O56526   6.218   1.964   3.959  0.2966  0.2605  0.2729
  429MOL0     C56527   6.312   2.067   3.947  0.6330  0.3524  0.7295
  429MOL0     C56528   6.454   2.057   3.942  0.7318 -0.2493  0.3631
  429MOL0     C56529   6.535   2.170   3.936  0.1905 -0.8541 -0.1749
  429MOL0     C56530   6.477   2.294   3.950  0.2960 -0.8994 -0.4823
  429MOL0     O56531   6.540   2.413   3.956  0.4303 -0.0349  0.2803
  429MOL0     C56532   6.635   2.441   3.848  0.1838 -0.1723  0.2770
  429MOL0     C56533   6.666   2.584   3.841 -0.7497  0.1834  0.6406
  429MOL0     C56534   6.539   2.669   3.851 -0.0522  0.2271 -0.2928
  429MOL0     C56535   6.558   2.810   3.799 -0.4395  0.4769  0.5925
  429MOL0     C56536   6.654   2.896   3.893  1.1464  0.3727 -0.2856
  429MOL0     C56537   6.681   3.023   3.817  0.2991  0.0027  0.5916
  429MOL0     C56538   6.565   3.114   3.778 -0.1309  0.4213  1.2945
  429MOL0     C56539   6.605   3.259   3.743 -0.2857 -0.2929  0.3533
  429MOL0    Cl56540   6.633   3.354   3.893  0.1586 -0.0673  0.2628
  429MOL0     C56541   6.339   2.312   3.956  0.1290 -0.0766  0.4772
  429MOL0     C56542   6.259   2.201   3.956  0.1229  0.0882  0.6713
  429MOL0     O56543   6.331   1.844   3.795  0.0450 -0.1998  0.1931
  429MOL0     C56544   6.018   1.729   3.960 -0.7939  0.7431  0.5572
  429MOL0     C56545   5.941   1.613   3.962  0.7094 -0.4342  0.2898
  429MOL0     N56546   6.197   1.154   3.636 -0.0838  0.3898 -1.0610
  429MOL0     N56547   6.300   1.219   3.609  1.1451  0.2586  0.3576
  429MOL0     C56548   7.306   1.791   3.568 -0.1373 -0.2201 -0.4373
  429MOL0     C56549   7.406   1.859   3.646  0.1636  0.0966  1.3944
  429MOL0     C56550   7.726   2.203   3.772  0.6869  0.4965 -0.0152
  429MOL0     C56551   7.754   2.332   3.748  0.0979 -0.1171 -0.1081
  429MOL0     C56552   7.872   2.390   3.790 -0.7249 -0.3429 -0.8699
  429MOL0     C56553   7.965   2.311   3.865  0.2628  0.3931  0.1650
  429MOL0     O56554   8.085   2.348   3.907 -0.3417 -0.2399 -0.3180
  429MOL0     C56555   8.133   2.486   3.886  0.0479  0.7766 -0.3746
  429MOL0     C56556   8.201   2.506   3.754 -0.6576 -0.2190 -0.1310
  429MOL0     C56557   8.179   2.638   3.690  0.5360 -0.0068  0.2953
  429MOL0     C56558   8.234   2.640   3.543  0.4801 -0.3356  0.0504
  429MOL0     C56559   8.200   2.766   3.475  0.0434 -0.5336  0.7789
  429MOL0     C56560   8.164   2.866   3.406  0.3054  0.3494 -0.4829
  429MOL0     C56561   7.935   2.177   3.880 -0.2631  0.1938  0.4732
  429MOL0     C56562   7.822   2.116   3.829 -0.0043  0.7443 -1.0861
  429MOL0     H56563   7.463   2.124   3.438  0.1027 -0.5865 -1.4013
  429MOL0     H56564   7.295   2.029   3.315 -1.6043 -1.8621 -2.2395
  429MOL0     H56565   7.073   1.716   3.509  0.7960  1.6449  0.0504
  429MOL0     H56566   7.065   1.646   3.347 -0.1897  0.3889 -0.9967
  429MOL0     H56567   6.924   1.826   3.286 -1.1265 -4.6535 -0.2837
  429MOL0     H56568   6.939   1.909   3.438 -0.2471  0.3265  1.5023
  429MOL0     H56569   6.848   1.696   3.547 -2.4171  0.8402  0.6306
  429MOL0     H56570   6.829   1.637   3.371  2.1285 -0.6715  0.7502
  429MOL0     H56571   6.704   1.888   3.485  0.6932 -0.7543  1.0421
  429MOL0     H56572   6.659   1.811   3.336  0.9556 -0.2135 -0.5018
  429MOL0     H56573   6.480   1.772   3.514  0.0880 -0.1134  0.8667
  429MOL0     H56574   6.594   1.691   3.623 -4.6273 -1.3047  0.7424
  429MOL0     H56575   6.626   1.518   3.422 -0.4977 -0.4902 -1.2852
  429MOL0     H56576   6.481   1.609   3.366  0.7876  0.2962 -0.1747
  429MOL0     H56577   6.493   1.435   3.619  0.2449  0.2648  0.5165
  429MOL0     H56578   6.358   1.536   3.569  1.5032  2.8131 -0.5982
  429MOL0     H56579   6.435   1.315   3.369 -1.6145 -0.4675 -1.3817
  429MOL0     H56580   6.325   1.441   3.367 -0.6358 -0.4086  0.3810
  429MOL0     H56581   6.099   1.335   3.378 -1.9219  0.8161  1.7300
  429MOL0     H56582   5.933   1.082   3.649 -1.7626 -1.6336 -0.9450
  429MOL0     H56583   5.934   1.076   3.476 -0.9908 -0.6981  1.3070
  429MOL0     H56584   5.750   1.203   3.574  0.4561 -1.1806 -0.0266
  429MOL0     H56585   5.835   1.293   3.453  2.8015 -0.3306 -0.8079
  429MOL0     H56586   5.954   1.421   3.621  1.2451 -2.5580 -0.8099
  429MOL0     H56587   5.781   1.445   3.642 -1.7979 -1.5039 -0.3875
  429MOL0     H56588   5.948   1.235   3.798 -1.7498 -2.8492 -0.9820
  429MOL0     H56589   5.770   1.261   3.809 -1.3027  2.1315 -1.1632
  429MOL0     H56590   6.126   1.394   3.797 -0.6046 -0.9697  2.3765
  429MOL0     H56591   6.284   1.617   3.791 -0.8301  2.3469 -0.5020
  429MOL0     H56592   6.497   1.958   3.953 -0.8547 -1.0716 -0.4728
  429MOL0     H56593   6.643   2.158   3.930  0.1564 -0.6335 -1.9452
  429MOL0     H56594   6.595   2.401   3.754 -0.7488  0.9907  0.1627
  429MOL0     H56595   6.719   2.378   3.879 -0.6526  0.5934  4.6791
  429MOL0     H56596   6.723   2.614   3.752 -0.6384  0.4929  0.8135
  429MOL0     H56597   6.733   2.614   3.922 -0.7319  1.0064  0.3399
  429MOL0     H56598   6.499   2.656   3.952  0.8103 -0.5298 -0.0275
  429MOL0     H56599   6.466   2.618   3.788  0.7179 -1.8956  0.4451
  429MOL0     H56600   6.607   2.805   3.700  0.4380  1.3318  0.9696
  429MOL0     H56601   6.458   2.853   3.794 -1.2857 -1.5102 -1.0217
  429MOL0     H56602   6.748   2.853   3.929  0.8078 -0.7635 -0.6980
  429MOL0     H56603   6.598   2.911   3.986  1.2482  2.6736 -0.5448
  429MOL0     H56604   6.743   3.001   3.730  0.6452  2.0453  0.2614
  429MOL0     H56605   6.731   3.083   3.894 -0.9506 -0.9444  2.2145
  429MOL0     H56606   6.516   3.072   3.690 -1.4310 -1.2857  2.7471
  429MOL0     H56607   6.487   3.112   3.855 -0.8170  1.3077  0.6423
  429MOL0     H56608   6.515   3.304   3.699 -2.0368 -1.2629  2.7151
  429MOL0     H56609   6.690   3.257   3.674  0.6917  0.3962  1.4850
  429MOL0     H56610   6.295   2.411   3.961  2.1115  0.9959 -1.3999
  429MOL0     H56611   6.153   2.211   3.932  0.2059 -2.3329 -1.1275
  429MOL0     H56612   5.992   1.814   4.023  0.9065  1.8642 -0.1473
  429MOL0     H56613   5.842   1.619   4.006 -0.9660  4.2311 -3.1995
  429MOL0     H56614   7.262   1.696   3.598  0.3144  0.2705  2.0224
  429MOL0     H56615   7.425   1.803   3.737 -1.1340 -3.0619 -0.1347
  429MOL0     H56616   7.687   2.396   3.691 -0.2989  2.8432  3.3314
  429MOL0     H56617   7.885   2.492   3.755 -1.0447  0.4023  1.0551
  429MOL0     H56618   8.208   2.506   3.963 -1.7414  0.0897  1.6365
  429MOL0     H56619   8.059   2.565   3.903 -0.8738 -0.4137  1.3935
  429MOL0     H56620   8.307   2.481   3.754 -0.7737 -0.7520 -0.5190
  429MOL0     H56621   8.155   2.426   3.694  0.3750 -1.2786  0.4405
  429MOL0     H56622   8.221   2.717   3.753 -0.3478  0.6594  0.0735
  429MOL0     H56623   8.073   2.664   3.688  0.1950 -1.2823 -2.0788
  429MOL0     H56624   8.344   2.646   3.545  0.4331  3.0506 -0.5191
  429MOL0     H56625   8.200   2.556   3.483  1.2280  1.8817 -3.8526
  429MOL0     H56626   8.128   2.944   3.342 -1.4823 -0.4505 -0.5264
  429MOL0     H56627   8.009   2.126   3.941 -1.0877  2.5755  3.7821
  429MOL0     H56628   7.799   2.010   3.832 -0.8741  0.9110 -1.5154
  430MOL0     O56629   5.461   1.288   7.545 -0.8019  0.2942 -0.6692
  430MOL0     C56630   5.489   1.404   7.583  0.4150 -0.0040 -0.4799
  430MOL0     O56631   5.430   1.514   7.538 -1.0043 -0.1696 -0.0755
  430MOL0     C56632   5.349   1.502   7.426  0.0528 -0.2278  0.1896
  430MOL0     C56633   5.216   1.465   7.441 -0.8343 -0.2132  0.3464
  430MOL0     C56634   5.126   1.455   7.341 -0.6798  0.2333 -0.6506
  430MOL0     C56635   5.171   1.472   7.213  1.4901  0.7216  0.8683
  430MOL0     O56636   5.074   1.450   7.111  0.2736 -0.2255  0.7677
  430MOL0     C56637   5.129   1.465   6.971  0.5555 -0.0414 -0.3497
  430MOL0     C56638   5.205   1.331   6.938  0.9136 -0.2177 -0.1895
  430MOL0     C56639   5.252   1.310   6.797 -0.3272 -0.4605 -0.1143
  430MOL0     C56640   5.382   1.397   6.783 -0.5369 -0.2875  0.1257
  430MOL0     C56641   5.461   1.368   6.661 -0.3825 -0.0463  0.8801
  430MOL0     C56642   5.461   1.491   6.564  0.0497  0.0371  0.3678
  430MOL0     C56643   5.496   1.453   6.414  0.4775 -0.5603 -0.4658
  430MOL0     C56644   5.639   1.396   6.389 -0.5261 -0.0978 -0.0877
  430MOL0     N56645   5.675   1.402   6.242 -0.6558 -0.7334  0.7962
  430MOL0     C56646   5.595   1.382   6.128  0.6760  0.2205  0.2786
  430MOL0     C56647   5.674   1.431   6.026  0.5328  0.0545 -0.6296
  430MOL0     C56648   5.631   1.424   5.880  0.4605  0.3059  0.2342
  430MOL0     C56649   5.555   1.550   5.840 -0.7899  0.4974  1.0776
  430MOL0     C56650   5.438   1.523   5.756 -0.0365 -0.5254  0.1207
  430MOL0     C56651   5.300   1.555   5.834  0.1132  0.3543  0.8588
  430MOL0     O56652   5.312   1.491   5.964 -0.2350  0.1524 -0.3195
  430MOL0     C56653   5.200   1.490   6.056  0.0717 -0.0734 -0.0600
  430MOL0     C56654   5.206   1.401   6.172  0.8092 -0.5919  0.9019
  430MOL0     C56655   5.093   1.396   6.251 -0.8239 -0.1296 -0.0072
  430MOL0     C56656   4.978   1.469   6.235 -0.2915  1.0242 -0.1188
  430MOL0     C56657   4.867   1.465   6.338 -0.4237  0.1286 -0.2078
  430MOL0     O56658   4.892   1.409   6.462  0.2446  0.0046 -0.1672
  430MOL0     C56659   4.791   1.392   6.544  0.1627  0.4960 -0.1094
  430MOL0     C56660   4.692   1.487   6.573 -0.7764  0.4372  0.2566
  430MOL0     C56661   4.607   1.470   6.684 -0.3410  0.7815  0.1146
  430MOL0     C56662   4.629   1.352   6.768  0.4104 -0.3692 -1.2819
  430MOL0     O56663   4.554   1.340   6.883  0.3338  0.1023  0.2119
  430MOL0     C56664   4.625   1.346   7.011 -0.1517  0.6046  0.2072
  430MOL0     C56665   4.684   1.482   7.042 -0.7574 -0.4033 -0.1119
  430MOL0     C56666   4.590   1.599   7.004  0.7020 -0.2062  0.5553
  430MOL0     C56667   4.450   1.592   7.079  0.4952 -0.5844  0.1002
  430MOL0     C56668   4.351   1.699   7.007  0.7112 -0.3270  0.2671
  430MOL0     C56669   4.235   1.745   7.087 -0.0419  0.0551 -0.4969
  430MOL0     C56670   4.147   1.635   7.155  0.8859  0.1072  0.1536
  430MOL0     C56671   4.054   1.563   7.066  0.2933 -0.4696  0.4351
  430MOL0    Cl56672   3.978   1.411   7.133 -0.4083  0.3700  0.5085
  430MOL0     C56673   4.719   1.255   6.732  0.1423 -0.3679 -1.2154
  430MOL0     C56674   4.796   1.267   6.615  0.4924 -0.6590 -0.0044
  430MOL0     O56675   4.758   1.503   6.297  0.6863  0.2251  0.2672
  430MOL0     C56676   4.974   1.555   6.123 -0.6213  0.4428 -0.9360
  430MOL0     C56677   5.090   1.569   6.037  0.2140 -0.3350 -1.0309
  430MOL0     N56678   5.796   1.475   6.080 -0.0211 -0.5720  0.6754
  430MOL0     N56679   5.790   1.455   6.206  0.2375  0.0635  0.9644
  430MOL0     C56680   5.299   1.529   7.194  0.2450  0.3147  0.9310
  430MOL0     C56681   5.384   1.545   7.301  0.3955  0.3024  0.0303
  430MOL0     C56682   5.593   1.416   7.685  0.4816  0.5278  0.0366
  430MOL0     C56683   5.665   1.536   7.706 -0.0493 -0.0464 -0.0509
  430MOL0     C56684   5.766   1.544   7.804 -0.0822 -0.8177  0.8065
  430MOL0     C56685   5.803   1.438   7.885  0.3680 -0.1875 -0.6905
  430MOL0     O56686   5.919   1.452   7.964  1.0017 -0.4348 -0.1065
  430MOL0     C56687   5.954   1.344   8.055 -0.1257 -0.7855  0.6114
  430MOL0     C56688   6.030   1.237   7.976  0.1604  0.6605 -0.3481
  430MOL0     C56689   6.044   1.104   8.062  0.0937  0.0278  0.1071
  430MOL0     C56690   5.920   1.017   8.045  0.5923 -0.1904  0.1877
  430MOL0     C56691   5.843   0.999   8.166  0.5354  0.0181 -0.6287
  430MOL0     C56692   5.767   0.982   8.262 -0.5734 -0.2936  0.1065
  430MOL0     C56693   5.726   1.317   7.871 -0.0302  0.1169 -0.9489
  430MOL0     C56694   5.621   1.302   7.773 -0.1785 -0.7367  0.8905
  430MOL0     H56695   5.190   1.415   7.535 -0.3626 -0.2716  0.4507
  430MOL0     H56696   5.024   1.424   7.360 -1.6259  2.6088 -1.4603
  430MOL0     H56697   5.184   1.558   6.958 -1.1448  0.9032 -1.1943
  430MOL0     H56698   5.047   1.462   6.899 -0.7099  0.8342  0.9956
  430MOL0     H56699   5.139   1.244   6.938  2.1166 -1.2266 -3.3676
  430MOL0     H56700   5.277   1.312   7.018 -2.0886 -4.3205  1.9079
  430MOL0     H56701   5.177   1.351   6.729  1.9204  1.9893 -1.2940
  430MOL0     H56702   5.275   1.205   6.776  3.1700 -0.0246  0.8736
  430MOL0     H56703   5.341   1.497   6.800 -0.7001 -0.5442  1.3571
  430MOL0     H56704   5.450   1.371   6.864  4.0369  2.7830 -2.2595
  430MOL0     H56705   5.421   1.287   6.599  3.9701 -1.1552 -0.8652
  430MOL0     H56706   5.563   1.344   6.692 -1.2328 -2.4465  2.1413
  430MOL0     H56707   5.528   1.568   6.606 -0.0231 -0.6975  1.8866
  430MOL0     H56708   5.360   1.529   6.576 -0.0641  0.4605 -1.5614
  430MOL0     H56709   5.429   1.380   6.368 -2.4691 -0.3848  3.0722
  430MOL0     H56710   5.486   1.538   6.345  2.9049 -0.8276 -1.2529
  430MOL0     H56711   5.645   1.296   6.432 -0.4581  0.4795  1.3021
  430MOL0     H56712   5.714   1.458   6.440 -0.6036  0.5213 -0.7101
  430MOL0     H56713   5.488   1.362   6.119 -0.1664  4.0196 -0.3734
  430MOL0     H56714   5.568   1.335   5.868 -0.0470  0.7246 -0.2498
  430MOL0     H56715   5.722   1.417   5.820  0.4864 -0.4350  0.3517
  430MOL0     H56716   5.616   1.617   5.778 -2.1067  0.6762 -0.0847
  430MOL0     H56717   5.535   1.619   5.922  1.4849  1.0804  1.2147
  430MOL0     H56718   5.424   1.583   5.665 -3.6600 -0.9599  0.2378
  430MOL0     H56719   5.434   1.420   5.720 -5.3197  0.0806 -2.0374
  430MOL0     H56720   5.215   1.505   5.786  1.8449 -1.7846 -0.1337
  430MOL0     H56721   5.290   1.663   5.844  1.8292  0.6485 -0.2976
  430MOL0     H56722   5.293   1.339   6.190 -0.7113 -2.5724  1.7950
  430MOL0     H56723   5.084   1.321   6.329 -0.9484  0.7615  0.8563
  430MOL0     H56724   4.673   1.581   6.524 -1.7739  0.9164  1.5118
  430MOL0     H56725   4.531   1.546   6.697 -1.5392  0.1912 -2.7647
  430MOL0     H56726   4.710   1.277   7.017  1.2126  2.0595 -1.1633
  430MOL0     H56727   4.555   1.319   7.090 -1.9159 -0.9407 -1.7761
  430MOL0     H56728   4.778   1.498   6.988 -0.4340  4.5527  1.4029
  430MOL0     H56729   4.718   1.479   7.146  2.0660 -0.2420 -0.9417
  430MOL0     H56730   4.570   1.605   6.897 -3.8939 -1.3956  1.1431
  430MOL0     H56731   4.639   1.695   7.025 -0.6483  0.3803  1.1466
  430MOL0     H56732   4.409   1.491   7.081 -0.0164 -0.3731  2.0840
  430MOL0     H56733   4.471   1.615   7.184  4.9159  0.3340 -0.7606
  430MOL0     H56734   4.317   1.649   6.916  1.6586 -0.5493  0.0271
  430MOL0     H56735   4.405   1.789   6.975 -2.8364  0.8737 -3.1270
  430MOL0     H56736   4.176   1.812   7.025 -1.8851 -0.1436  0.9367
  430MOL0     H56737   4.283   1.794   7.172  0.4152 -0.2349 -0.5860
  430MOL0     H56738   4.214   1.563   7.202 -2.3000 -1.2404  3.0835
  430MOL0     H56739   4.088   1.672   7.238 -0.4647  0.1470 -0.7889
  430MOL0     H56740   4.105   1.536   6.973 -1.2652  0.8214 -0.8541
  430MOL0     H56741   3.982   1.640   7.040  0.8802 -1.0063 -3.5294
  430MOL0     H56742   4.727   1.178   6.809  1.4821  2.3508  1.5734
  430MOL0     H56743   4.881   1.204   6.590  1.4365  1.0197 -1.2052
  430MOL0     H56744   4.883   1.609   6.097 -0.8861  2.5173  3.4977
  430MOL0     H56745   5.085   1.645   5.960  0.5126  1.7122  0.8537
  430MOL0     H56746   5.339   1.568   7.101 -1.3077  0.2527  0.2037
  430MOL0     H56747   5.481   1.593   7.291  1.4735 -1.6009  0.9352
  430MOL0     H56748   5.647   1.606   7.625 -0.6177 -1.4571 -1.1852
  430MOL0     H56749   5.818   1.639   7.809  2.0720 -1.7502 -1.7603
  430MOL0     H56750   5.867   1.313   8.113  0.2297 -0.8512  1.1192
  430MOL0     H56751   6.023   1.390   8.127  0.2464 -0.3626 -0.0023
  430MOL0     H56752   5.981   1.213   7.881 -1.1179  1.6748  0.0394
  430MOL0     H56753   6.136   1.254   7.957  0.5243 -2.1417 -1.3631
  430MOL0     H56754   6.066   1.117   8.168 -1.7866  2.1096  0.3076
  430MOL0     H56755   6.128   1.042   8.029 -1.8061 -2.5233 -0.2071
  430MOL0     H56756   5.847   1.068   7.981  2.4874  3.1342  0.4301
  430MOL0     H56757   5.955   0.921   8.006  2.1678  1.0597 -1.6711
  430MOL0     H56758   5.701   0.972   8.346  0.1300 -0.6027  0.6362
  430MOL0     H56759   5.746   1.237   7.941  2.3122 -0.0800 -1.7650
  430MOL0     H56760   5.565   1.212   7.752 -0.1820 -0.5042 -0.1385
  431MOL0     O56761   2.130   6.861   6.694 -0.2857 -0.0305 -0.1158
  431MOL0     C56762   2.122   6.885   6.816 -0.1801 -0.3721 -0.2230
  431MOL0     O56763   2.214   6.943   6.897  0.0295 -0.1840 -1.2302
  431MOL0     C56764   2.348   6.944   6.866 -0.7768 -0.3031 -0.6484
  431MOL0     C56765   2.416   6.983   6.982 -0.3352  0.1582  0.6788
  431MOL0     C56766   2.554   6.996   6.968 -0.0469 -1.7455 -0.2395
  431MOL0     C56767   2.621   6.965   6.856 -0.0445  0.3270 -0.4023
  431MOL0     O56768   2.760   6.967   6.862  0.0266  0.1955 -0.3856
  431MOL0     C56769   2.839   7.078   6.898  0.1324 -0.9135 -0.2601
  431MOL0     C56770   2.982   7.039   6.914 -0.5445 -0.5122  0.0623
  431MOL0     C56771   3.023   6.965   6.782 -0.4568 -0.4166 -0.3704
  431MOL0     C56772   3.169   6.951   6.770 -1.2079  0.2419  0.2854
  431MOL0     C56773   3.215   6.844   6.669 -0.0725 -0.7008 -0.2397
  431MOL0     C56774   3.188   6.879   6.519 -0.1711 -0.3023 -0.0436
  431MOL0     C56775   3.223   6.753   6.429 -0.6835  0.3757 -0.3209
  431MOL0     C56776   3.195   6.788   6.286 -1.1345 -0.1667 -0.1081
  431MOL0     N56777   3.200   6.666   6.198  0.2783  0.4160  0.3843
  431MOL0     C56778   3.102   6.578   6.172 -0.6229  0.3376 -0.4667
  431MOL0     C56779   3.156   6.483   6.091 -0.1245  0.1134 -0.1792
  431MOL0     C56780   3.098   6.374   6.013  0.4282  0.1149  0.7240
  431MOL0     C56781   2.991   6.311   6.094 -0.6342 -0.5051  0.1703
  431MOL0     C56782   2.955   6.188   6.017 -0.2565 -0.4752 -0.0508
  431MOL0     C56783   2.847   6.111   6.087  0.6871  0.2966 -0.1684
  431MOL0     O56784   2.817   5.999   5.999  0.1927  0.4174 -0.1586
  431MOL0     C56785   2.730   5.904   6.043 -0.5220 -0.3665 -0.0654
  431MOL0     C56786   2.641   5.918   6.153 -0.7469  0.5692  0.1019
  431MOL0     C56787   2.558   5.804   6.187  0.4727 -0.0591  0.7449
  431MOL0     C56788   2.549   5.692   6.102  0.2720 -0.4433  1.0379
  431MOL0     C56789   2.438   5.590   6.098 -0.0325 -0.9753  0.1731
  431MOL0     O56790   2.346   5.607   6.195  0.2877 -0.0678 -0.0499
  431MOL0     C56791   2.233   5.532   6.200  0.2642 -0.6333 -0.1659
  431MOL0     C56792   2.173   5.490   6.319 -0.2706  0.8791 -0.6954
  431MOL0     C56793   2.049   5.433   6.332  0.3977 -0.0927  0.6371
  431MOL0     C56794   1.969   5.428   6.220  0.1386 -0.6886  0.5944
  431MOL0     O56795   1.836   5.394   6.236 -0.0146  0.0046 -0.0989
  431MOL0     C56796   1.742   5.418   6.124 -0.4006 -0.3113  0.0969
  431MOL0     C56797   1.596   5.419   6.182  0.7445  0.3426  0.4053
  431MOL0     C56798   1.491   5.395   6.081  0.0418 -0.1333  0.6565
  431MOL0     C56799   1.483   5.510   5.977 -0.5025  0.1291 -0.3301
  431MOL0     C56800   1.372   5.482   5.871 -0.1792  0.1644  0.3152
  431MOL0     C56801   1.316   5.605   5.815  0.1899  1.1611 -0.5749
  431MOL0     C56802   1.416   5.685   5.734 -0.4576 -0.4582  0.2166
  431MOL0     C56803   1.501   5.607   5.639 -0.6362  0.8489 -0.0412
  431MOL0    Cl56804   1.560   5.732   5.526 -0.0517 -0.1107 -0.0873
  431MOL0     C56805   2.026   5.454   6.096  0.1350 -0.5195 -0.6877
  431MOL0     C56806   2.156   5.520   6.085  0.9521 -0.3079 -0.2370
  431MOL0     O56807   2.437   5.520   6.000  0.6918 -0.0758 -1.0581
  431MOL0     C56808   2.640   5.694   5.988  0.3215 -0.7242 -0.0033
  431MOL0     C56809   2.722   5.792   5.956 -0.0272 -1.2125 -0.3960
  431MOL0     N56810   3.292   6.511   6.065 -0.2111 -0.5322  0.1361
  431MOL0     N56811   3.319   6.614   6.143  0.0890 -0.3060 -0.0642
  431MOL0     C56812   2.559   6.931   6.736  0.5497 -0.8711 -0.8838
  431MOL0     C56813   2.415   6.925   6.739  0.2438  0.3162  0.2309
  431MOL0     C56814   1.986   6.884   6.871 -0.5832  0.9682 -0.4018
  431MOL0     C56815   1.900   6.788   6.812  0.0551  0.2420 -0.6547
  431MOL0     C56816   1.763   6.789   6.848  0.9179  0.1309  0.1161
  431MOL0     C56817   1.708   6.876   6.948  0.4910 -0.4111 -0.2641
  431MOL0     O56818   1.573   6.882   6.985 -0.1036  0.1617  0.0310
  431MOL0     C56819   1.481   6.807   6.906  0.5792 -0.1391 -0.5231
  431MOL0     C56820   1.338   6.849   6.967  0.8943 -0.5638 -1.2863
  431MOL0     C56821   1.217   6.770   6.915 -0.1834  0.0213 -0.1450
  431MOL0     C56822   1.087   6.805   6.990  0.9908 -0.3239  0.6503
  431MOL0     C56823   0.969   6.795   6.899 -0.5830  0.3526  0.4022
  431MOL0     C56824   0.878   6.791   6.811  0.1829 -0.2038  0.0613
  431MOL0     C56825   1.795   6.965   7.006 -0.0902 -0.1273 -0.9033
  431MOL0     C56826   1.927   6.973   6.967 -1.0150 -0.2802  0.6091
  431MOL0     H56827   2.358   6.987   7.073 -0.0238 -3.1215  1.1256
  431MOL0     H56828   2.597   7.008   7.067 -1.1544 -0.0402  0.0756
  431MOL0     H56829   2.797   7.130   6.985  1.1020  2.1543 -1.5045
  431MOL0     H56830   2.824   7.158   6.825 -1.6473  0.3327  1.3660
  431MOL0     H56831   2.979   6.960   6.990  2.6908 -2.6256 -1.7241
  431MOL0     H56832   3.043   7.127   6.937 -0.6494 -1.0567  2.8484
  431MOL0     H56833   2.995   7.034   6.701 -1.6058  2.3063  2.1240
  431MOL0     H56834   2.978   6.866   6.778 -0.0394 -0.5866 -1.1225
  431MOL0     H56835   3.203   7.051   6.740 -0.8708 -0.1646 -0.7120
  431MOL0     H56836   3.211   6.918   6.865  2.0050  1.5778 -0.5434
  431MOL0     H56837   3.169   6.748   6.694  1.5719 -1.3866  0.3189
  431MOL0     H56838   3.323   6.824   6.674  0.7265  2.3043 -2.3225
  431MOL0     H56839   3.253   6.964   6.499  2.2290 -2.4687 -2.1913
  431MOL0     H56840   3.084   6.904   6.495 -1.4005 -1.8250  3.1423
  431MOL0     H56841   3.327   6.726   6.446 -0.1444  1.6413 -1.4129
  431MOL0     H56842   3.165   6.665   6.460  0.3942 -0.3035 -0.1763
  431MOL0     H56843   3.267   6.864   6.253  0.7060 -0.3054  3.1646
  431MOL0     H56844   3.094   6.830   6.276 -1.0106  0.0054 -0.6680
  431MOL0     H56845   3.000   6.600   6.199 -0.8410 -0.5753 -0.5220
  431MOL0     H56846   3.180   6.306   5.989 -0.8104 -1.0303 -0.4308
  431MOL0     H56847   3.061   6.417   5.919 -1.2636  1.2691  1.8721
  431MOL0     H56848   2.895   6.363   6.083 -0.4226 -0.4619 -1.7217
  431MOL0     H56849   3.017   6.288   6.198 -0.7300 -0.1516  0.2744
  431MOL0     H56850   2.926   6.213   5.915 -1.2305 -0.2843  0.2683
  431MOL0     H56851   3.042   6.121   6.019  0.0518 -0.1006 -0.5704
  431MOL0     H56852   2.767   6.182   6.109  1.7245  2.2966 -2.3838
  431MOL0     H56853   2.876   6.068   6.184 -3.4004 -0.8734  0.7281
  431MOL0     H56854   2.639   6.005   6.218 -1.9037 -0.5304  1.5961
  431MOL0     H56855   2.495   5.800   6.275  1.4934  2.3738  1.6916
  431MOL0     H56856   2.242   5.495   6.403 -1.4058 -1.9715  0.5330
  431MOL0     H56857   2.019   5.403   6.431  3.4685  2.6562  2.5929
  431MOL0     H56858   1.757   5.335   6.056  1.7952  1.2453 -1.4467
  431MOL0     H56859   1.758   5.515   6.077 -2.3882  0.5885  1.1487
  431MOL0     H56860   1.575   5.513   6.233  0.4018 -0.0895  1.0840
  431MOL0     H56861   1.589   5.334   6.251  0.0366 -1.2231 -1.4902
  431MOL0     H56862   1.386   5.382   6.110 -0.7802 -2.2157 -2.6938
  431MOL0     H56863   1.524   5.311   6.020  0.5806  1.6098 -1.5723
  431MOL0     H56864   1.461   5.597   6.039 -2.4338 -1.9026  2.0465
  431MOL0     H56865   1.581   5.528   5.932 -0.1421  2.3732  1.2099
  431MOL0     H56866   1.291   5.424   5.915  0.9864 -1.1696  0.7867
  431MOL0     H56867   1.407   5.410   5.796  0.1915 -1.2888  1.8164
  431MOL0     H56868   1.290   5.666   5.903  0.9980  0.1931  0.3716
  431MOL0     H56869   1.221   5.592   5.762  0.1278  1.5924 -0.5696
  431MOL0     H56870   1.362   5.764   5.679  1.6313  2.3179  1.8835
  431MOL0     H56871   1.488   5.738   5.797  1.0799 -1.6235 -0.4992
  431MOL0     H56872   1.444   5.534   5.579 -1.9986  2.6708 -1.0760
  431MOL0     H56873   1.580   5.559   5.697 -2.1385 -0.1749  1.2656
  431MOL0     H56874   1.971   5.470   6.003 -1.5894  1.2161  0.5358
  431MOL0     H56875   2.192   5.561   5.991  3.9574 -1.3062  0.3721
  431MOL0     H56876   2.637   5.614   5.913  2.2172 -1.0012  0.1650
  431MOL0     H56877   2.777   5.797   5.862  3.3404  2.2861  1.4601
  431MOL0     H56878   2.622   6.913   6.649  1.8541  1.7233 -0.5886
  431MOL0     H56879   2.361   6.893   6.650 -1.1328 -0.1433  1.1960
  431MOL0     H56880   1.937   6.720   6.736  0.0788  1.6366 -1.9482
  431MOL0     H56881   1.698   6.716   6.800  1.2107  2.0809 -3.5322
  431MOL0     H56882   1.490   6.699   6.890  0.2584  0.3435 -6.3363
  431MOL0     H56883   1.489   6.842   6.802  2.5774 -0.5438 -0.5541
  431MOL0     H56884   1.351   6.830   7.074  0.2317 -2.4392 -1.5075
  431MOL0     H56885   1.324   6.956   6.950 -0.6017 -0.7199 -1.1456
  431MOL0     H56886   1.238   6.662   6.917  0.5234  0.1653  0.8649
  431MOL0     H56887   1.206   6.789   6.808  2.0139  2.3038 -0.0423
  431MOL0     H56888   1.070   6.738   7.075  0.4104 -0.1029  0.7153
  431MOL0     H56889   1.096   6.905   7.034  0.9007 -0.5941  1.2906
  431MOL0     H56890   0.797   6.776   6.743 -0.1014  1.5447 -0.0376
  431MOL0     H56891   1.774   7.028   7.092  0.1463 -0.5065 -0.5623
  431MOL0     H56892   1.985   7.055   7.008  0.1678 -0.1808 -1.1320
  432MOL0     O56893   1.083   6.777  10.015  0.1284 -0.4441  0.3934
  432MOL0     C56894   1.107   6.668  10.069 -0.1715  0.0015  0.0932
  432MOL0     O56895   1.204   6.647  10.161 -0.2089 -0.2372  0.0679
  432MOL0     C56896   1.294   6.741  10.202 -0.0737 -0.0043  0.0986
  432MOL0     C56897   1.424   6.696  10.222  0.8957 -0.4346 -0.1514
  432MOL0     C56898   1.521   6.788  10.264 -0.6976  0.2574  0.3754
  432MOL0     C56899   1.494   6.922  10.285 -0.3141  0.0701 -0.4695
  432MOL0     O56900   1.601   7.008  10.306  0.6094 -0.1371  0.1186
  432MOL0     C56901   1.682   6.985  10.419 -0.1641  0.7361  0.5643
  432MOL0     C56902   1.830   7.018  10.381 -0.8484 -1.5884 -0.6207
  432MOL0     C56903   1.932   6.992  10.492 -0.0423  0.6802 -1.2636
  432MOL0     C56904   1.951   6.836  10.511 -0.5083 -0.2193 -0.0035
  432MOL0     C56905   2.045   6.782  10.400  0.0626 -0.8761 -0.0477
  432MOL0     C56906   2.165   6.710  10.462 -0.2772 -1.1116 -0.1922
  432MOL0     C56907   2.154   6.604  10.573 -0.6693 -0.3559 -0.5659
  432MOL0     C56908   2.255   6.493  10.540 -0.1139 -0.4952  1.1347
  432MOL0     N56909   2.229   6.379  10.625  0.3044 -0.3075 -1.6170
  432MOL0     C56910   2.156   6.269  10.587 -1.3977 -0.5609  0.6099
  432MOL0     C56911   2.186   6.168  10.679 -1.1977  0.2842  0.4537
  432MOL0     C56912   2.150   6.013  10.668  0.1429 -0.3651  0.2536
  432MOL0     C56913   2.005   5.986  10.710 -0.1881 -0.1268 -0.5381
  432MOL0     C56914   1.945   6.070  10.825 -0.8984  0.9584  0.1462
  432MOL0     C56915   1.801   6.020  10.865 -1.0488 -0.4130 -0.4822
  432MOL0     O56916   1.704   6.061  10.770 -0.5816  0.3065  0.1075
  432MOL0     C56917   1.572   6.021  10.778  0.2402 -0.1756 -0.6784
  432MOL0     C56918   1.520   5.954  10.886 -0.5759 -0.5157 -0.4578
  432MOL0     C56919   1.389   5.918  10.894 -0.1582  0.2828 -0.4605
  432MOL0     C56920   1.302   5.954  10.783  0.4988 -0.6743  0.5447
  432MOL0     C56921   1.154   5.929  10.788  0.0349 -0.7076 -0.6315
  432MOL0     O56922   1.106   5.851  10.884 -0.9839 -0.5178 -0.3378
  432MOL0     C56923   0.975   5.821  10.893  0.0798 -0.1824  0.4325
  432MOL0     C56924   0.925   5.783  11.024 -0.2811  0.7178 -0.4704
  432MOL0     C56925   0.787   5.753  11.049  0.8042 -0.6934  0.5972
  432MOL0     C56926   0.697   5.757  10.943  1.0989 -0.6706  1.2017
  432MOL0     O56927   0.560   5.721  10.951 -0.0111 -0.1723  0.1298
  432MOL0     C56928   0.501   5.656  11.069 -1.0791 -0.4528 -0.2515
  432MOL0     C56929   0.360   5.605  11.038 -0.3094 -0.5413 -1.0748
  432MOL0     C56930   0.267   5.721  10.998  1.3937 -0.7872  0.2992
  432MOL0     C56931   0.123   5.667  11.007  0.0609 -0.5111  0.6025
  432MOL0     C56932   0.033   5.774  10.963  1.0862  0.2619 -0.1560
  432MOL0     C56933  -0.112   5.758  11.020  0.4549  0.3015  1.0181
  432MOL0     C56934  -0.209   5.687  10.927 -0.4985 -0.7170  0.0206
  432MOL0     C56935  -0.344   5.671  10.986  0.1557 -0.0615 -0.3997
  432MOL0    Cl56936  -0.465   5.648  10.858 -0.0961  0.4879 -0.0795
  432MOL0     C56937   0.745   5.770  10.811 -0.2880 -0.3577 -0.1963
  432MOL0     C56938   0.883   5.798  10.787  0.4650 -0.0555 -0.0220
  432MOL0     O56939   1.087   5.982  10.700 -0.0452 -0.1309  0.9613
  432MOL0     C56940   1.361   6.018  10.673 -0.1393 -0.2571 -0.2631
  432MOL0     C56941   1.499   6.050  10.670  0.9799 -0.7685  0.1461
  432MOL0     N56942   2.274   6.231  10.775 -0.0494 -0.0869  0.0658
  432MOL0     N56943   2.304   6.346  10.734 -0.1232  0.8594  0.4380
  432MOL0     C56944   1.359   6.967  10.261 -0.1881  0.9678  0.0222
  432MOL0     C56945   1.261   6.870  10.220  0.3092  0.5485  0.1070
  432MOL0     C56946   1.017   6.556  10.035  0.0129 -0.5195 -1.1332
  432MOL0     C56947   1.050   6.422  10.039 -0.6339  0.4298 -0.0157
  432MOL0     C56948   0.964   6.320  10.006  0.6279 -0.3831 -0.3316
  432MOL0     C56949   0.832   6.349   9.980 -0.3331 -0.2711  0.5539
  432MOL0     O56950   0.737   6.258   9.953  1.0368  0.4101  0.3176
  432MOL0     C56951   0.761   6.134   9.893  0.3072 -0.4394  0.5688
  432MOL0     C56952   0.698   6.028   9.979  1.2230 -0.5327  1.0137
  432MOL0     C56953   0.680   5.905   9.896  0.0733 -0.3705  0.7963
  432MOL0     C56954   0.532   5.844   9.925 -0.7903  0.0955 -0.7620
  432MOL0     C56955   0.413   5.922   9.884 -0.8363  0.3264  0.6938
  432MOL0     C56956   0.305   5.986   9.867 -0.6857  0.6303  0.3215
  432MOL0     C56957   0.789   6.484   9.977  0.3728  0.8434  0.3352
  432MOL0     C56958   0.878   6.590  10.000 -0.4237  0.3272  0.0685
  432MOL0     H56959   1.436   6.588  10.223 -1.3654 -0.7814  2.3196
  432MOL0     H56960   1.617   6.743  10.285 -1.4361 -2.9064 -2.1443
  432MOL0     H56961   1.674   6.885  10.463 -0.4371  0.8639  0.8077
  432MOL0     H56962   1.653   7.058  10.495  2.3588  3.5368 -0.9463
  432MOL0     H56963   1.843   7.125  10.361  0.7201 -1.3349  1.4238
  432MOL0     H56964   1.855   6.961  10.291 -1.5578  2.1736 -3.4654
  432MOL0     H56965   1.880   7.029  10.581 -0.6386 -1.3242 -0.7091
  432MOL0     H56966   2.028   7.039  10.469  0.8162 -0.6674 -0.6059
  432MOL0     H56967   1.995   6.817  10.609  0.2486 -0.1720 -0.3297
  432MOL0     H56968   1.857   6.781  10.520 -0.7993  0.4564  1.4278
  432MOL0     H56969   2.081   6.865  10.338 -2.8991  1.6179  1.2700
  432MOL0     H56970   1.992   6.711  10.336 -0.5603 -1.5252  1.1567
  432MOL0     H56971   2.222   6.791  10.507  1.5049 -1.1546 -2.2080
  432MOL0     H56972   2.237   6.675  10.387  1.2012  0.7937  0.2453
  432MOL0     H56973   2.185   6.635  10.673  0.2790 -0.0833 -0.9381
  432MOL0     H56974   2.052   6.567  10.591 -0.8412  0.5110  0.3277
  432MOL0     H56975   2.350   6.545  10.551 -1.7987  2.8269  1.3954
  432MOL0     H56976   2.237   6.470  10.434  5.5698 -0.8370 -0.0694
  432MOL0     H56977   2.110   6.251  10.490 -2.1326 -1.1635  1.0655
  432MOL0     H56978   2.218   5.961  10.736  0.9797  0.1777 -0.1540
  432MOL0     H56979   2.173   5.974  10.568  2.0440 -2.6418  1.4953
  432MOL0     H56980   1.977   5.880  10.722  1.6540 -0.7010 -0.9797
  432MOL0     H56981   1.943   6.021  10.627  1.3567  2.8792 -0.5396
  432MOL0     H56982   2.007   6.051  10.914 -1.6989 -0.9784  0.3345
  432MOL0     H56983   1.938   6.177  10.807  0.8334  1.4225  1.8140
  432MOL0     H56984   1.776   6.061  10.964  1.3789 -2.4861  1.1338
  432MOL0     H56985   1.794   5.915  10.895 -1.7282  0.2271  1.8670
  432MOL0     H56986   1.581   5.928  10.972 -2.5114  0.8751  1.4273
  432MOL0     H56987   1.360   5.882  10.992 -3.5047  2.1049 -0.6301
  432MOL0     H56988   0.981   5.805  11.114 -3.0037  2.5749  0.9200
  432MOL0     H56989   0.754   5.739  11.152  0.0215  1.9824  0.7859
  432MOL0     H56990   0.511   5.720  11.158  0.8296 -0.5449 -0.3543
  432MOL0     H56991   0.570   5.571  11.077 -1.6783 -1.1244 -1.7998
  432MOL0     H56992   0.327   5.542  11.122 -0.4681  0.7915 -0.1169
  432MOL0     H56993   0.356   5.541  10.949  1.1116  1.5246 -2.6906
  432MOL0     H56994   0.294   5.763  10.901  0.7253 -1.9955 -0.4385
  432MOL0     H56995   0.286   5.795  11.076 -1.1844 -2.6849  2.9699
  432MOL0     H56996   0.103   5.578  10.945 -1.9042 -0.5778  1.2576
  432MOL0     H56997   0.098   5.634  11.108 -1.4315 -2.4946 -0.3223
  432MOL0     H56998   0.025   5.783  10.854 -1.0559 -0.7540 -0.1303
  432MOL0     H56999   0.064   5.869  11.009  1.8034 -0.4298  0.8414
  432MOL0     H57000  -0.153   5.856  11.047 -1.6252 -0.0344 -0.6908
  432MOL0     H57001  -0.110   5.703  11.115 -1.7741  1.2203  1.6589
  432MOL0     H57002  -0.220   5.748  10.837  0.1919  0.2721  0.5884
  432MOL0     H57003  -0.183   5.585  10.896  1.1174 -0.0681 -0.8692
  432MOL0     H57004  -0.382   5.756  11.043 -1.6469 -1.1859  0.1673
  432MOL0     H57005  -0.331   5.586  11.054  1.1519 -1.1721 -1.9113
  432MOL0     H57006   0.680   5.761  10.725  0.8496 -0.1441 -1.1129
  432MOL0     H57007   0.921   5.812  10.686  0.1789  0.2112 -0.0947
  432MOL0     H57008   1.306   6.049  10.584  2.6357 -0.6593 -2.2719
  432MOL0     H57009   1.534   6.099  10.579 -0.4564 -2.4396 -1.3817
  432MOL0     H57010   1.308   7.063  10.269 -3.3129 -0.5938  0.1809
  432MOL0     H57011   1.157   6.894  10.200 -0.7263 -4.0226 -1.0421
  432MOL0     H57012   1.155   6.398  10.054 -0.1578  2.2077 -0.2528
  432MOL0     H57013   1.001   6.218  10.008 -1.2098 -1.0894 -0.5123
  432MOL0     H57014   0.867   6.112   9.882  0.3583  0.2579 -0.3532
  432MOL0     H57015   0.713   6.126   9.795 -1.6802 -2.9616  1.6299
  432MOL0     H57016   0.760   6.007  10.066  1.7614 -5.0609 -0.2311
  432MOL0     H57017   0.601   6.070  10.007  0.1024 -0.5440 -2.4106
  432MOL0     H57018   0.756   5.829   9.916  0.2036 -0.0832  1.4283
  432MOL0     H57019   0.681   5.923   9.788  0.0165 -1.8043  0.5435
  432MOL0     H57020   0.531   5.751   9.868  1.4136 -0.3082 -0.2413
  432MOL0     H57021   0.519   5.828  10.032  1.6493 -2.0017 -0.7053
  432MOL0     H57022   0.204   6.019   9.851 -0.5257  0.0883 -2.2683
  432MOL0     H57023   0.687   6.520   9.978  0.3356  0.8235  2.4524
  432MOL0     H57024   0.857   6.696  10.005  0.0843  0.4717 -0.6761
  433MOL0     O57025   1.600   5.405   4.377 -0.1673 -0.4636  1.2383
  433MOL0     C57026   1.666   5.512   4.382  1.0658  0.4947  0.5273
  433MOL0     O57027   1.614   5.635   4.363 -0.4211  0.2325  0.5521
  433MOL0     C57028   1.500   5.644   4.290 -0.8466 -0.2772 -0.8106
  433MOL0     C57029   1.387   5.689   4.356  0.2058  0.1833  0.2834
  433MOL0     C57030   1.273   5.696   4.282  0.4074  0.6781 -1.2934
  433MOL0     C57031   1.268   5.658   4.153 -0.3721  0.1913 -0.1440
  433MOL0     O57032   1.150   5.666   4.092 -0.1715  0.4983  0.0308
  433MOL0     C57033   1.124   5.591   3.982  0.2803 -0.5071  0.8203
  433MOL0     C57034   0.977   5.563   3.973  0.6173 -0.9968  0.6084
  433MOL0     C57035   0.913   5.677   3.888 -0.2302 -0.1793 -0.3755
  433MOL0     C57036   0.751   5.674   3.902  0.1002  0.4596 -0.3086
  433MOL0     C57037   0.675   5.576   3.819  0.5205 -0.2826 -0.4934
  433MOL0     C57038   0.529   5.623   3.827  0.2259 -0.1602 -0.6240
  433MOL0     C57039   0.434   5.517   3.760 -0.5076 -0.5251 -0.4487
  433MOL0     C57040   0.292   5.567   3.775 -0.0199 -0.3344  0.2506
  433MOL0     N57041   0.198   5.483   3.696 -1.4200 -1.0581  0.5200
  433MOL0     C57042   0.168   5.357   3.734 -0.1865 -0.0586  0.8187
  433MOL0     C57043   0.083   5.313   3.639 -0.6932 -0.1370  0.3064
  433MOL0     C57044   0.009   5.183   3.658  0.0864 -0.3853  0.3914
  433MOL0     C57045  -0.113   5.215   3.741  0.1685 -0.7705 -0.1172
  433MOL0     C57046  -0.228   5.281   3.653 -0.5029 -0.2565 -0.4647
  433MOL0     C57047  -0.359   5.289   3.733  0.1298  0.0000 -0.9882
  433MOL0     O57048  -0.348   5.320   3.876  0.2879 -0.3156  0.5728
  433MOL0     C57049  -0.449   5.278   3.958  0.3554 -0.6080  0.1303
  433MOL0     C57050  -0.430   5.288   4.098  0.4824 -0.5323  0.0157
  433MOL0     C57051  -0.537   5.268   4.203  0.4285  0.4058 -0.0359
  433MOL0     C57052  -0.663   5.237   4.149 -0.5336  0.0814  0.1541
  433MOL0     C57053  -0.773   5.211   4.237 -0.1255 -0.7364 -0.0027
  433MOL0     O57054  -0.891   5.184   4.183 -0.6273 -0.8577  0.9017
  433MOL0     C57055  -1.015   5.161   4.239 -0.4713 -0.7935 -0.4381
  433MOL0     C57056  -1.106   5.107   4.153 -0.5050  0.0280 -1.0898
  433MOL0     C57057  -1.242   5.094   4.190 -0.8450  0.2436 -0.1776
  433MOL0     C57058  -1.279   5.134   4.319 -0.0289 -0.3014 -0.6769
  433MOL0     O57059  -1.399   5.116   4.378 -0.2778 -0.2919  0.0138
  433MOL0     C57060  -1.506   5.121   4.282  0.5707  0.4703  0.1934
  433MOL0     C57061  -1.637   5.135   4.362 -0.8921  0.2434  0.3733
  433MOL0     C57062  -1.644   5.218   4.487  0.6079 -0.3872 -0.5848
  433MOL0     C57063  -1.591   5.360   4.467 -0.9841 -0.5024  0.0525
  433MOL0     C57064  -1.632   5.445   4.591 -0.2088  0.2866  0.6281
  433MOL0     C57065  -1.604   5.592   4.555  0.2513 -0.4895  1.1567
  433MOL0     C57066  -1.613   5.677   4.687  0.7639  0.6197  0.9212
  433MOL0     C57067  -1.612   5.826   4.659 -0.2292  0.4977  0.7577
  433MOL0    Cl57068  -1.779   5.874   4.618 -0.0298  0.3682  0.1086
  433MOL0     C57069  -1.185   5.193   4.408  1.2250 -0.5961 -0.1664
  433MOL0     C57070  -1.053   5.208   4.366  1.0436  0.9530  0.1816
  433MOL0     O57071  -0.758   5.235   4.356  0.1143  0.3630 -0.1136
  433MOL0     C57072  -0.686   5.223   4.009 -0.3179  0.3097 -0.5721
  433MOL0     C57073  -0.582   5.232   3.918 -1.0230 -0.1736 -0.2377
  433MOL0     N57074   0.070   5.410   3.547 -0.7208 -0.3212  0.3400
  433MOL0     N57075   0.141   5.514   3.579 -0.2462  1.0565  0.6968
  433MOL0     C57076   1.385   5.610   4.088 -0.3249 -0.6022  0.7027
  433MOL0     C57077   1.501   5.606   4.162  0.3199  0.2020  0.0373
  433MOL0     C57078   1.812   5.499   4.397 -0.5547 -0.2792 -0.2496
  433MOL0     C57079   1.872   5.380   4.360 -0.5495 -0.2529  0.2752
  433MOL0     C57080   2.013   5.362   4.381 -0.4740 -0.6977  0.1953
  433MOL0     C57081   2.088   5.457   4.451 -0.8607 -0.3433  0.1664
  433MOL0     O57082   2.222   5.431   4.472  0.7315  0.8882 -0.3673
  433MOL0     C57083   2.304   5.528   4.533 -0.7094  0.5044  1.3328
  433MOL0     C57084   2.447   5.473   4.531  0.2479  0.9750  0.9912
  433MOL0     C57085   2.551   5.577   4.572  0.1542  0.6183  0.4940
  433MOL0     C57086   2.691   5.536   4.542 -0.5016 -0.2834  0.5428
  433MOL0     C57087   2.743   5.607   4.424  1.1486  0.2698  0.4205
  433MOL0     C57088   2.787   5.677   4.339 -0.2084  0.3983  0.2947
  433MOL0     C57089   2.022   5.576   4.484  0.1131 -0.4803  0.6640
  433MOL0     C57090   1.891   5.603   4.457  0.9964  0.2772  0.3902
  433MOL0     H57091   1.389   5.727   4.458 -2.5472 -0.9877  0.8722
  433MOL0     H57092   1.186   5.740   4.331 -0.5216 -0.0460 -2.2521
  433MOL0     H57093   1.171   5.494   3.996  1.3182  0.2528  3.1661
  433MOL0     H57094   1.168   5.637   3.893  1.3229  0.8136  1.9771
  433MOL0     H57095   0.943   5.567   4.077 -1.6743 -0.1569 -0.1113
  433MOL0     H57096   0.964   5.461   3.937  4.9156 -2.2315  1.9333
  433MOL0     H57097   0.956   5.682   3.787 -0.4009  3.6206 -0.3911
  433MOL0     H57098   0.941   5.777   3.921  1.0198 -0.2204 -1.2441
  433MOL0     H57099   0.720   5.674   4.006  0.2675  3.4255 -0.1725
  433MOL0     H57100   0.720   5.772   3.864  0.5090  1.6204  2.1398
  433MOL0     H57101   0.690   5.474   3.855  0.7115  0.1007  0.5647
  433MOL0     H57102   0.708   5.595   3.717 -1.2077  3.6695 -0.5098
  433MOL0     H57103   0.507   5.718   3.779 -0.3011  0.8904  1.5857
  433MOL0     H57104   0.499   5.627   3.932  0.2822 -0.2654 -0.6033
  433MOL0     H57105   0.465   5.496   3.657  0.2650 -1.4215 -0.0479
  433MOL0     H57106   0.452   5.417   3.800  0.2407 -0.4835 -0.6709
  433MOL0     H57107   0.273   5.671   3.747  0.7971 -0.0479  0.7321
  433MOL0     H57108   0.255   5.565   3.878 -1.9286  2.5780 -0.2687
  433MOL0     H57109   0.187   5.302   3.826  0.3328  0.7516  1.2071
  433MOL0     H57110   0.075   5.114   3.713  0.8909 -0.8052 -1.0585
  433MOL0     H57111  -0.010   5.136   3.561  3.4800  0.9866 -1.1004
  433MOL0     H57112  -0.100   5.289   3.820 -0.2520  1.4678 -2.0535
  433MOL0     H57113  -0.152   5.123   3.785  0.1563 -0.5311  0.3862
  433MOL0     H57114  -0.196   5.379   3.619 -2.6981  0.5853 -0.2305
  433MOL0     H57115  -0.259   5.221   3.567  1.1123 -2.6046  0.4701
  433MOL0     H57116  -0.397   5.186   3.733  0.9780 -0.3660  1.3398
  433MOL0     H57117  -0.427   5.357   3.682 -0.1193  0.9570  0.5481
  433MOL0     H57118  -0.338   5.322   4.144  0.6144 -1.5699  0.5379
  433MOL0     H57119  -0.529   5.287   4.309  1.7483  0.8799 -0.1947
  433MOL0     H57120  -1.065   5.063   4.063  1.6658 -2.8846  1.1272
  433MOL0     H57121  -1.306   5.038   4.123  0.1681 -0.7615 -0.3324
  433MOL0     H57122  -1.513   5.034   4.216 -0.2700  0.8557 -0.2368
  433MOL0     H57123  -1.488   5.207   4.216  2.9022  0.3488  0.5888
  433MOL0     H57124  -1.654   5.030   4.387  0.7070 -0.4861 -1.3588
  433MOL0     H57125  -1.719   5.175   4.302 -3.2558 -0.0007  3.2519
  433MOL0     H57126  -1.596   5.163   4.568 -0.5018 -1.2263 -0.4759
  433MOL0     H57127  -1.749   5.227   4.517  0.9969  1.7351  0.3171
  433MOL0     H57128  -1.484   5.341   4.463 -1.1537 -1.4132 -0.3063
  433MOL0     H57129  -1.627   5.412   4.378 -1.8670 -0.3018  0.5108
  433MOL0     H57130  -1.581   5.427   4.686  1.7585  1.8236 -0.0669
  433MOL0     H57131  -1.737   5.429   4.617 -0.1761  1.5977  1.6789
  433MOL0     H57132  -1.677   5.643   4.492  1.6362  0.2835  0.1220
  433MOL0     H57133  -1.507   5.603   4.505 -0.8674  1.4294 -0.7613
  433MOL0     H57134  -1.700   5.649   4.747  2.8640 -1.6994  3.1556
  433MOL0     H57135  -1.528   5.640   4.745 -0.3397 -2.0370  0.9897
  433MOL0     H57136  -1.539   5.857   4.585 -0.7673  3.7508  1.4247
  433MOL0     H57137  -1.594   5.877   4.754 -3.4657  0.6439  1.4142
  433MOL0     H57138  -1.216   5.216   4.509 -0.5748  0.2370 -0.8642
  433MOL0     H57139  -0.981   5.258   4.430  0.5519 -0.7442  2.1985
  433MOL0     H57140  -0.776   5.178   3.968 -0.5010 -2.0448  2.1450
  433MOL0     H57141  -0.606   5.240   3.813 -3.0449 -0.7215  0.1417
  433MOL0     H57142   1.385   5.585   3.982 -1.2705  1.8026  0.0619
  433MOL0     H57143   1.596   5.561   4.134 -0.1992 -0.5236 -0.6239
  433MOL0     H57144   1.814   5.300   4.315  0.1243 -0.5465 -0.0957
  433MOL0     H57145   2.050   5.264   4.352  0.7353 -0.6999  1.6124
  433MOL0     H57146   2.262   5.546   4.633 -0.1616  1.4769  1.3973
  433MOL0     H57147   2.300   5.621   4.475 -0.6865 -0.1729  0.2218
  433MOL0     H57148   2.452   5.392   4.604 -0.9735  0.8575  0.9633
  433MOL0     H57149   2.463   5.438   4.429 -2.6813  0.9541  0.4667
  433MOL0     H57150   2.542   5.607   4.677 -3.2730  1.6569  0.0071
  433MOL0     H57151   2.529   5.666   4.512  1.6642 -0.5666 -1.9225
  433MOL0     H57152   2.752   5.564   4.629  0.6758  0.1446 -0.3777
  433MOL0     H57153   2.710   5.429   4.534 -2.0154 -0.5045 -0.4644
  433MOL0     H57154   2.824   5.737   4.258 -1.1245  0.2490 -0.2505
  433MOL0     H57155   2.079   5.660   4.521  1.3042 -2.0769  2.6214
  433MOL0     H57156   1.848   5.700   4.482 -1.4385 -0.4513 -0.7085
  434MOL0     O57157  11.209   7.596   5.458  0.5123  0.0961 -0.6089
  434MOL0     C57158  11.321   7.638   5.477  0.1509  0.3917 -0.3180
  434MOL0     O57159  11.356   7.763   5.520 -0.3093 -0.1846  0.6563
  434MOL0     C57160  11.256   7.851   5.530  0.5875  0.5812 -0.5721
  434MOL0     C57161  11.169   7.834   5.637  0.1717  0.0044 -0.4453
  434MOL0     C57162  11.068   7.926   5.651  0.9565 -0.5191  1.0643
  434MOL0     C57163  11.062   8.045   5.569 -0.1345 -0.0999  0.1218
  434MOL0     O57164  10.967   8.145   5.590  0.9416 -0.6051 -0.0895
  434MOL0     C57165  10.879   8.147   5.705 -0.6044  0.0253 -0.1008
  434MOL0     C57166  10.793   8.272   5.712 -0.2337  0.8636  0.1177
  434MOL0     C57167  10.688   8.278   5.805  0.3608 -0.6803 -1.3515
  434MOL0     C57168  10.594   8.407   5.801  0.1517 -0.5345  0.0560
  434MOL0     C57169  10.485   8.393   5.695 -1.3353 -0.0041 -0.6175
  434MOL0     C57170  10.390   8.517   5.696 -0.1187 -0.1370  0.1423
  434MOL0     C57171  10.286   8.510   5.587 -0.0517  0.2304 -0.0950
  434MOL0     C57172  10.194   8.628   5.582 -1.0399  0.6636  0.2429
  434MOL0     N57173  10.077   8.613   5.485  0.1506  0.0203 -0.0015
  434MOL0     C57174  10.091   8.649   5.356  0.9838 -0.2876  0.0373
  434MOL0     C57175   9.962   8.651   5.311  0.0289 -0.1838  0.2223
  434MOL0     C57176   9.931   8.718   5.184  0.5764 -0.0545  0.0486
  434MOL0     C57177   9.935   8.874   5.208 -0.2470  0.5916 -0.5506
  434MOL0     C57178   9.837   8.934   5.318  0.2051  0.5560 -0.3404
  434MOL0     C57179   9.691   8.919   5.269  0.0199 -0.4859  0.6765
  434MOL0     O57180   9.673   9.001   5.150 -0.7323 -0.2911  0.3168
  434MOL0     C57181   9.563   8.977   5.076 -0.2534 -0.2565  0.9888
  434MOL0     C57182   9.453   8.908   5.127 -0.4876 -0.9810 -0.8425
  434MOL0     C57183   9.329   8.903   5.066 -0.2410 -0.2845  0.5936
  434MOL0     C57184   9.322   8.967   4.941 -0.5368 -0.8995 -0.7007
  434MOL0     C57185   9.189   8.961   4.869 -0.7122 -0.1034  0.4154
  434MOL0     O57186   9.103   8.857   4.897  0.2691  0.0087  0.2551
  434MOL0     C57187   9.000   8.848   4.811  0.5413  0.2300  0.6205
  434MOL0     C57188   8.986   8.752   4.704  0.2478  0.5098 -0.4336
  434MOL0     C57189   8.881   8.749   4.619  0.1474  0.5677 -0.2700
  434MOL0     C57190   8.767   8.831   4.637 -0.0693  0.7709 -0.2463
  434MOL0     O57191   8.652   8.801   4.569  0.3026 -0.2056  0.1957
  434MOL0     C57192   8.582   8.685   4.602 -0.2769  0.6403 -1.2654
  434MOL0     C57193   8.549   8.685   4.755 -0.2326  0.7894 -0.0918
  434MOL0     C57194   8.452   8.802   4.787 -0.5091  0.1505 -0.4894
  434MOL0     C57195   8.437   8.844   4.936  0.4761  0.3403  0.4873
  434MOL0     C57196   8.333   8.753   5.003 -0.3406 -0.3571  0.1696
  434MOL0     C57197   8.241   8.827   5.106 -0.0654 -0.3941  0.3389
  434MOL0     C57198   8.132   8.748   5.176 -0.3830 -0.4520 -1.2273
  434MOL0     C57199   8.189   8.705   5.311  0.3361  0.2825 -0.6697
  434MOL0    Cl57200   8.214   8.849   5.440 -0.1460 -0.2904  0.4981
  434MOL0     C57201   8.773   8.921   4.750  0.9087  0.7452  0.7123
  434MOL0     C57202   8.889   8.928   4.828  0.7653  0.6133  0.3521
  434MOL0     O57203   9.163   9.054   4.803 -0.2596 -0.2319  0.2496
  434MOL0     C57204   9.433   9.022   4.880  0.3486 -0.6483 -0.6706
  434MOL0     C57205   9.552   9.041   4.953  0.1282 -0.9760  0.7345
  434MOL0     N57206   9.873   8.616   5.412 -1.0464  0.0655  0.1768
  434MOL0     N57207   9.943   8.597   5.519 -0.2865 -0.6553 -0.0727
  434MOL0     C57208  11.153   8.051   5.464  0.4075  0.1233 -0.0667
  434MOL0     C57209  11.245   7.953   5.442 -0.0284 -1.0332  0.4567
  434MOL0     C57210  11.442   7.550   5.443  0.4522  0.0765 -0.5611
  434MOL0     C57211  11.423   7.426   5.366  0.8348  0.2579  0.0822
  434MOL0     C57212  11.531   7.355   5.318 -0.5503  0.2705  0.0056
  434MOL0     C57213  11.669   7.407   5.337  0.5259  0.1746 -0.2943
  434MOL0     O57214  11.767   7.344   5.273 -0.1895 -0.2481  0.1269
  434MOL0     C57215  11.877   7.422   5.235 -0.0820 -0.5127  0.1362
  434MOL0     C57216  11.986   7.346   5.172 -0.1007  0.0737  0.1817
  434MOL0     C57217  12.032   7.235   5.264  0.1020  0.1668  0.0542
  434MOL0     C57218  12.098   7.113   5.188 -0.3100  0.3290 -0.4962
  434MOL0     C57219  12.218   7.150   5.112  0.7176 -0.4586  0.1537
  434MOL0     C57220  12.314   7.190   5.053 -0.5745  0.2493 -0.3904
  434MOL0     C57221  11.687   7.516   5.422  0.6197 -0.4430  0.7061
  434MOL0     C57222  11.577   7.589   5.473 -0.3526  0.1740  0.1115
  434MOL0     H57223  11.172   7.740   5.691 -0.2412  0.2360 -0.0033
  434MOL0     H57224  10.987   7.908   5.720  0.0543 -0.7329 -0.0148
  434MOL0     H57225  10.933   8.131   5.799 -0.6710 -1.7799 -0.3368
  434MOL0     H57226  10.809   8.063   5.691  0.5771 -0.9111 -0.6079
  434MOL0     H57227  10.738   8.278   5.617 -1.4239  2.1864  0.8572
  434MOL0     H57228  10.856   8.360   5.720 -2.3353  2.6123 -1.2987
  434MOL0     H57229  10.739   8.287   5.901 -2.8570  1.6123  0.3286
  434MOL0     H57230  10.616   8.195   5.804  1.7892 -1.9732 -0.5544
  434MOL0     H57231  10.543   8.418   5.897  1.1588  1.8389  0.3873
  434MOL0     H57232  10.655   8.493   5.772  2.0092 -2.4085 -1.9218
  434MOL0     H57233  10.423   8.305   5.713 -0.4095 -0.0406  3.2922
  434MOL0     H57234  10.546   8.389   5.604  1.9736  3.2546  1.1540
  434MOL0     H57235  10.455   8.600   5.666 -2.2587  1.1473 -1.2442
  434MOL0     H57236  10.345   8.527   5.795  2.3289  0.6006  1.2615
  434MOL0     H57237  10.338   8.482   5.495  3.4344  1.8741  1.2120
  434MOL0     H57238  10.218   8.429   5.619 -2.5687  1.2053 -2.5782
  434MOL0     H57239  10.253   8.719   5.567 -1.0597  0.7601  0.7254
  434MOL0     H57240  10.160   8.645   5.685 -0.0151  1.1493  0.5142
  434MOL0     H57241  10.168   8.689   5.290  0.6589  2.8023  1.3309
  434MOL0     H57242   9.836   8.679   5.146  1.0442 -0.0686 -1.1578
  434MOL0     H57243  10.000   8.707   5.100  0.0394  2.4403 -0.7931
  434MOL0     H57244   9.905   8.924   5.115 -3.2981 -2.0465 -1.1642
  434MOL0     H57245  10.037   8.899   5.241 -0.4046  0.9754 -0.3457
  434MOL0     H57246   9.860   8.886   5.413  3.8894 -0.6730 -1.6780
  434MOL0     H57247   9.866   9.040   5.326 -1.8421  1.3117 -2.0535
  434MOL0     H57248   9.616   8.947   5.344 -2.6023 -1.9435 -1.2582
  434MOL0     H57249   9.672   8.815   5.244 -1.9728  0.1151 -0.4873
  434MOL0     H57250   9.442   8.862   5.225 -2.8318  3.4582  1.2889
  434MOL0     H57251   9.245   8.853   5.113  0.8262 -2.4143  0.3574
  434MOL0     H57252   9.057   8.674   4.679 -2.0365 -0.8731 -3.1566
  434MOL0     H57253   8.879   8.679   4.536 -0.1729  0.9636 -0.6052
  434MOL0     H57254   8.635   8.591   4.584 -2.0068 -0.6393  0.0551
  434MOL0     H57255   8.488   8.684   4.546  0.3165 -4.4305 -2.6860
  434MOL0     H57256   8.638   8.695   4.817 -2.2855  0.6875  3.1616
  434MOL0     H57257   8.498   8.589   4.773  2.2954 -1.0793 -2.1092
  434MOL0     H57258   8.355   8.785   4.738 -1.0038  2.6978 -0.5092
  434MOL0     H57259   8.496   8.884   4.731  2.5339 -1.6933 -1.0329
  434MOL0     H57260   8.529   8.862   4.993 -0.2149 -0.5494  1.9596
  434MOL0     H57261   8.400   8.946   4.923  2.0074  0.9026  0.3753
  434MOL0     H57262   8.379   8.662   5.042 -0.3454 -1.5370 -2.3516
  434MOL0     H57263   8.267   8.716   4.924  0.0886  0.0563 -0.3893
  434MOL0     H57264   8.191   8.912   5.059  0.6272  0.1708  0.5933
  434MOL0     H57265   8.312   8.866   5.180  2.1450  1.2672 -2.4188
  434MOL0     H57266   8.045   8.805   5.210  0.6653 -0.3215  1.4346
  434MOL0     H57267   8.093   8.673   5.108 -1.8976  1.3000 -2.3894
  434MOL0     H57268   8.283   8.653   5.290  0.9034  1.7218 -1.8846
  434MOL0     H57269   8.114   8.637   5.350  1.2751  0.7839  2.2653
  434MOL0     H57270   8.680   8.974   4.768  0.1823  0.1781 -1.0997
  434MOL0     H57271   8.907   8.992   4.914  3.0650  1.4060 -0.6233
  434MOL0     H57272   9.416   9.074   4.786  0.3390 -1.9837 -1.4358
  434MOL0     H57273   9.633   9.107   4.924 -1.3119  0.8229  0.5960
  434MOL0     H57274  11.131   8.132   5.396  0.0016 -0.8055 -1.0844
  434MOL0     H57275  11.314   7.962   5.359  1.7413  2.3897  2.0840
  434MOL0     H57276  11.328   7.384   5.336  0.3038  0.4048  1.4837
  434MOL0     H57277  11.521   7.266   5.258  3.9109 -0.6090  0.2645
  434MOL0     H57278  11.919   7.483   5.316  0.2682  0.6020 -0.8658
  434MOL0     H57279  11.841   7.497   5.165 -1.3242 -0.2863  0.9899
  434MOL0     H57280  11.934   7.304   5.086 -1.0141 -0.8427  1.1482
  434MOL0     H57281  12.067   7.411   5.137 -0.4112  0.1955 -0.3121
  434MOL0     H57282  11.948   7.184   5.312  0.5710  1.7709  2.7309
  434MOL0     H57283  12.096   7.282   5.339  0.0994  1.2285 -0.5866
  434MOL0     H57284  12.137   7.044   5.263  2.0086 -0.3673 -2.2196
  434MOL0     H57285  12.013   7.080   5.127  0.6284  0.4194 -1.9043
  434MOL0     H57286  12.397   7.228   4.996 -0.0244 -2.5791 -1.6511
  434MOL0     H57287  11.780   7.571   5.438 -0.1357  1.5267 -1.1437
  434MOL0     H57288  11.599   7.677   5.532 -1.0203  0.3133  0.1642
  435MOL0     O57289   6.568   5.696   0.083 -0.4849  0.3952 -0.0240
  435MOL0     C57290   6.677   5.674   0.039  0.0202  0.1296  0.5320
  435MOL0     O57291   6.707   5.617  -0.088 -0.3923  0.4476 -0.2279
  435MOL0     C57292   6.619   5.552  -0.157  0.4699  0.1703 -0.2079
  435MOL0     C57293   6.498   5.618  -0.193  0.4450  0.3288 -0.2456
  435MOL0     C57294   6.399   5.554  -0.264  0.0156 -0.6008  0.3369
  435MOL0     C57295   6.415   5.426  -0.309 -0.6960  0.6517  0.0637
  435MOL0     O57296   6.312   5.370  -0.378  0.0774 -0.3706  0.7579
  435MOL0     C57297   6.312   5.232  -0.415  0.6502  0.3137  0.0230
  435MOL0     C57298   6.190   5.171  -0.497 -0.4810 -0.1217 -0.3398
  435MOL0     C57299   6.164   5.249  -0.628 -0.2963  0.0989  1.0863
  435MOL0     C57300   6.038   5.195  -0.692  0.3488  0.2858  0.3485
  435MOL0     C57301   5.927   5.278  -0.751  0.4412 -0.5480 -0.0164
  435MOL0     C57302   5.849   5.192  -0.849  0.2059  0.2263  0.8043
  435MOL0     C57303   5.733   5.269  -0.905  0.5769 -0.9365 -0.3295
  435MOL0     C57304   5.656   5.188  -1.003  0.3928  0.9199  0.3356
  435MOL0     N57305   5.526   5.245  -1.031  0.6559 -0.7314 -0.1479
  435MOL0     C57306   5.507   5.348  -1.126 -0.1163  0.0401  0.4511
  435MOL0     C57307   5.373   5.362  -1.130  0.8935 -0.4188 -0.3548
  435MOL0     C57308   5.328   5.480  -1.221  0.4163 -0.7772  0.1562
  435MOL0     C57309   5.363   5.465  -1.365  0.3182 -0.0142 -0.6950
  435MOL0     C57310   5.358   5.596  -1.442  0.0820 -0.1522  0.3201
  435MOL0     C57311   5.216   5.648  -1.475 -0.9655 -0.3192  0.5854
  435MOL0     O57312   5.223   5.725  -1.597  0.0250 -0.8642 -0.5475
  435MOL0     C57313   5.120   5.693  -1.679  0.0778  0.5673 -0.0431
  435MOL0     C57314   4.983   5.689  -1.641  0.2812  0.0056  0.4384
  435MOL0     C57315   4.891   5.649  -1.736 -1.0591 -0.1556  0.0647
  435MOL0     C57316   4.931   5.635  -1.866 -0.0443  0.8511  0.0462
  435MOL0     C57317   4.838   5.599  -1.971 -0.6511  0.6118 -0.7041
  435MOL0     O57318   4.888   5.575  -2.098  0.4497  0.1076 -0.0340
  435MOL0     C57319   4.788   5.555  -2.190 -0.2404  0.3788  0.7821
  435MOL0     C57320   4.702   5.663  -2.216 -1.0032  0.6935  0.6895
  435MOL0     C57321   4.601   5.642  -2.312 -0.8911 -0.4052  0.1635
  435MOL0     C57322   4.586   5.519  -2.381  0.3544 -0.9741  0.4504
  435MOL0     O57323   4.485   5.496  -2.474 -0.2929  0.8322  0.1815
  435MOL0     C57324   4.426   5.604  -2.546  0.1929  0.8286 -0.2894
  435MOL0     C57325   4.314   5.554  -2.629 -0.4140 -0.0013  0.3183
  435MOL0     C57326   4.354   5.483  -2.762 -0.6802  0.6885 -0.2461
  435MOL0     C57327   4.445   5.569  -2.845 -0.0208  0.0844 -0.0622
  435MOL0     C57328   4.448   5.536  -2.991  0.0834 -0.1089 -0.3250
  435MOL0     C57329   4.557   5.618  -3.059 -0.1802  0.3433 -0.0229
  435MOL0     C57330   4.627   5.541  -3.172  0.8720 -0.8973  0.0572
  435MOL0     C57331   4.735   5.617  -3.250  0.0567  0.4401  0.3418
  435MOL0    Cl57332   4.724   5.569  -3.428 -0.6534 -0.2702 -0.1960
  435MOL0     C57333   4.674   5.419  -2.353 -0.4835 -0.6365 -0.0771
  435MOL0     C57334   4.768   5.432  -2.250 -0.0278  0.2726  0.7614
  435MOL0     O57335   4.719   5.597  -1.937 -0.2136 -0.1927  0.7643
  435MOL0     C57336   5.063   5.664  -1.904  0.5974  0.9401 -0.0412
  435MOL0     C57337   5.158   5.675  -1.806 -0.4412  0.1645 -0.7169
  435MOL0     N57338   5.306   5.285  -1.033  0.1112  0.1640 -0.1676
  435MOL0     N57339   5.403   5.218  -0.977 -0.0464 -0.1005  0.2094
  435MOL0     C57340   6.533   5.353  -0.274 -0.2007 -0.7521  0.7902
  435MOL0     C57341   6.634   5.418  -0.200 -0.2569 -0.2151 -0.6078
  435MOL0     C57342   6.798   5.724   0.106  0.1409  0.0151 -0.2578
  435MOL0     C57343   6.927   5.684   0.069  0.7639  0.0822 -1.1846
  435MOL0     C57344   7.040   5.745   0.125  0.6889 -0.1491  0.4798
  435MOL0     C57345   7.024   5.856   0.210 -0.0466  0.5324 -0.2118
  435MOL0     O57346   7.138   5.927   0.246  0.1962  0.4861 -0.1761
  435MOL0     C57347   7.220   5.854   0.339 -0.4899  0.8100 -0.0527
  435MOL0     C57348   7.302   5.957   0.414 -0.3126 -1.3401 -0.8566
  435MOL0     C57349   7.387   5.901   0.531  0.1184  0.9581 -0.4511
  435MOL0     C57350   7.517   5.834   0.482 -0.3484  0.0419  0.2407
  435MOL0     C57351   7.610   5.935   0.422  0.2753  0.5310  0.8274
  435MOL0     C57352   7.688   5.999   0.361 -0.8088 -0.3349 -0.0345
  435MOL0     C57353   6.901   5.895   0.245 -0.4802  1.1253  0.4716
  435MOL0     C57354   6.792   5.828   0.200 -0.3286 -0.3284 -0.1333
  435MOL0     H57355   6.475   5.714  -0.148  1.7139  0.6818 -0.3266
  435MOL0     H57356   6.302   5.602  -0.275  0.0078 -0.7335 -0.2155
  435MOL0     H57357   6.312   5.177  -0.320  0.0003  0.4474  0.1113
  435MOL0     H57358   6.406   5.216  -0.468  0.3971 -2.2662  0.1976
  435MOL0     H57359   6.100   5.187  -0.437 -1.9704  2.9632 -3.0800
  435MOL0     H57360   6.206   5.066  -0.521 -0.4204  0.1059 -1.3488
  435MOL0     H57361   6.254   5.235  -0.689 -1.3526  0.6504 -0.6352
  435MOL0     H57362   6.167   5.356  -0.604  3.1640  0.0106  1.6658
  435MOL0     H57363   6.080   5.135  -0.773  1.9892  1.9477 -0.0824
  435MOL0     H57364   5.975   5.138  -0.623  1.2495 -1.0386  0.1082
  435MOL0     H57365   5.964   5.370  -0.797 -1.0369  0.6884  1.1672
  435MOL0     H57366   5.862   5.306  -0.668  0.1960 -1.5339  0.1401
  435MOL0     H57367   5.800   5.113  -0.793  2.5089 -0.0659  2.5249
  435MOL0     H57368   5.919   5.146  -0.920  0.3996  0.1899  1.0180
  435MOL0     H57369   5.669   5.291  -0.819 -0.8062 -2.8521 -0.8253
  435MOL0     H57370   5.775   5.359  -0.952 -0.4911  1.9910  3.7765
  435MOL0     H57371   5.652   5.082  -0.975 -0.2628  0.0508 -2.6796
  435MOL0     H57372   5.708   5.194  -1.099  0.1641 -0.6922  0.0685
  435MOL0     H57373   5.587   5.391  -1.185  0.0299  1.3539  1.5698
  435MOL0     H57374   5.382   5.567  -1.182  4.3925 -1.7836 -2.4492
  435MOL0     H57375   5.219   5.485  -1.223  0.3505 -1.7844  0.7470
  435MOL0     H57376   5.300   5.385  -1.405 -1.1118  0.3875  0.6980
  435MOL0     H57377   5.466   5.429  -1.372  0.1760 -0.8534  0.9896
  435MOL0     H57378   5.400   5.680  -1.386 -1.9691  0.8629  0.4529
  435MOL0     H57379   5.416   5.590  -1.535  3.7285 -0.2681  2.4116
  435MOL0     H57380   5.174   5.707  -1.393 -2.2283 -0.3207 -0.0407
  435MOL0     H57381   5.156   5.557  -1.484 -0.3038 -0.6874 -0.2194
  435MOL0     H57382   4.940   5.708  -1.543 -1.6645 -0.6266 -0.2545
  435MOL0     H57383   4.785   5.646  -1.715 -0.7848  3.3715  2.9435
  435MOL0     H57384   4.720   5.761  -2.173  0.0937  0.0757  1.7077
  435MOL0     H57385   4.537   5.726  -2.333 -0.1018 -0.1172 -1.2429
  435MOL0     H57386   4.497   5.668  -2.599  0.1827  1.2500  0.1972
  435MOL0     H57387   4.384   5.669  -2.468 -0.6203  1.1360 -0.9686
  435MOL0     H57388   4.256   5.642  -2.660  1.0518  1.2256  0.9313
  435MOL0     H57389   4.254   5.484  -2.571  0.0578  0.1598  1.0028
  435MOL0     H57390   4.258   5.457  -2.808  0.6654 -5.4397 -0.4668
  435MOL0     H57391   4.417   5.398  -2.735  1.3886  1.3838 -2.5065
  435MOL0     H57392   4.415   5.674  -2.853  1.8682  0.7984  1.5684
  435MOL0     H57393   4.543   5.583  -2.799 -0.3836 -1.9334  1.4345
  435MOL0     H57394   4.354   5.546  -3.045 -0.4586  0.5392  0.7027
  435MOL0     H57395   4.476   5.431  -2.990 -1.7326 -0.6195 -0.2703
  435MOL0     H57396   4.639   5.645  -2.992  0.5685 -1.0547 -0.3597
  435MOL0     H57397   4.505   5.710  -3.088 -0.1352  0.8945  1.5577
  435MOL0     H57398   4.665   5.449  -3.127 -1.3093 -1.0998  1.6436
  435MOL0     H57399   4.548   5.513  -3.243 -0.8463  0.1507  1.4493
  435MOL0     H57400   4.837   5.593  -3.220 -0.4320 -1.4402  0.6382
  435MOL0     H57401   4.725   5.726  -3.246 -0.2814  0.5150 -1.5630
  435MOL0     H57402   4.667   5.329  -2.414 -1.1975 -0.4565 -0.2694
  435MOL0     H57403   4.842   5.359  -2.218 -0.5270 -0.8250 -0.4976
  435MOL0     H57404   5.108   5.648  -2.002 -0.9831  1.3794 -0.8781
  435MOL0     H57405   5.264   5.670  -1.829 -0.5112 -1.7719 -0.7899
  435MOL0     H57406   6.549   5.253  -0.313 -0.0213 -1.5052  2.6903
  435MOL0     H57407   6.721   5.361  -0.170 -0.4861  0.8118  2.3307
  435MOL0     H57408   6.933   5.607  -0.007 -2.8864 -0.1013 -1.4891
  435MOL0     H57409   7.142   5.726   0.094  1.5187  2.4464  1.4281
  435MOL0     H57410   7.286   5.786   0.285 -2.0481 -1.5857  0.9278
  435MOL0     H57411   7.158   5.790   0.403  3.2508  1.7152  5.1310
  435MOL0     H57412   7.362   6.011   0.341  0.2320  0.0071  0.5445
  435MOL0     H57413   7.224   6.027   0.446 -0.7402  0.1593 -4.6540
  435MOL0     H57414   7.314   5.833   0.577  0.8358  1.9253  2.3251
  435MOL0     H57415   7.432   5.958   0.612 -0.2405  1.9105 -0.9124
  435MOL0     H57416   7.564   5.775   0.561  2.9597  2.3049  0.1616
  435MOL0     H57417   7.513   5.760   0.401  0.9171  0.0248  0.1750
  435MOL0     H57418   7.765   6.064   0.325 -0.2267  1.2893  3.6923
  435MOL0     H57419   6.885   5.983   0.308 -2.3501  2.1381 -1.3037
  435MOL0     H57420   6.698   5.868   0.239  0.2641 -1.8668  3.2916
  436MOL0     O57421   7.718   2.121   0.660  0.7867  0.7062 -0.0444
  436MOL0     C57422   7.730   1.997   0.688  0.2236 -0.6890  0.6050
  436MOL0     O57423   7.626   1.903   0.686  0.0555 -0.3914 -0.9954
  436MOL0     C57424   7.501   1.957   0.708  0.7857  0.7368  0.1843
  436MOL0     C57425   7.443   2.051   0.619 -0.7764 -1.0986 -0.0318
  436MOL0     C57426   7.326   2.119   0.656 -0.4470 -0.9815 -0.4868
  436MOL0     C57427   7.261   2.094   0.778 -0.2418  0.3527 -0.0053
  436MOL0     O57428   7.143   2.161   0.797 -0.7420  0.0882  0.2273
  436MOL0     C57429   7.043   2.092   0.859 -0.2495  0.4674  0.7107
  436MOL0     C57430   6.928   2.180   0.837  1.0057 -0.5651 -0.1142
  436MOL0     C57431   6.804   2.112   0.893 -0.5480 -0.1953 -0.5858
  436MOL0     C57432   6.667   2.175   0.857  1.0118  0.6470 -0.8175
  436MOL0     C57433   6.546   2.080   0.916 -0.1601  0.6060 -0.1398
  436MOL0     C57434   6.395   2.129   0.879 -0.6150 -0.5840 -0.4584
  436MOL0     C57435   6.285   2.024   0.935 -0.7485 -0.4941  1.4709
  436MOL0     C57436   6.307   1.973   1.073  0.0205  0.7065 -1.4198
  436MOL0     N57437   6.180   1.927   1.122  0.1339  1.0009 -0.2403
  436MOL0     C57438   6.077   2.010   1.151  0.6429 -0.1134 -0.4000
  436MOL0     C57439   5.971   1.924   1.182 -0.4900  0.6661  0.6614
  436MOL0     C57440   5.853   1.964   1.249 -0.0872 -0.5755 -0.0439
  436MOL0     C57441   5.725   1.943   1.157  0.0181  0.3709  0.0570
  436MOL0     C57442   5.740   2.018   1.027 -0.3524  0.0553 -1.0331
  436MOL0     C57443   5.629   1.970   0.936 -0.0100 -1.3243  0.3133
  436MOL0     O57444   5.637   1.841   0.886  0.1127 -0.3849 -0.4546
  436MOL0     C57445   5.753   1.819   0.806 -0.6250 -0.1886  0.2299
  436MOL0     C57446   5.863   1.745   0.850  1.0746  0.3504 -0.1222
  436MOL0     C57447   5.971   1.722   0.766  0.6546  0.0627 -0.3662
  436MOL0     C57448   5.983   1.778   0.641  0.3215  0.2840  0.3714
  436MOL0     C57449   6.116   1.776   0.576 -0.4365  0.0698 -0.3566
  436MOL0     O57450   6.128   1.832   0.455  0.2017  0.1557  0.1178
  436MOL0     C57451   6.250   1.829   0.389  0.7291 -0.2205  0.6785
  436MOL0     C57452   6.278   1.740   0.279 -0.4828  0.5842 -0.8484
  436MOL0     C57453   6.403   1.743   0.225 -0.4196  0.1035 -0.8241
  436MOL0     C57454   6.508   1.819   0.278  0.5934  0.1787  1.0596
  436MOL0     O57455   6.631   1.812   0.215 -0.9920 -0.4469  0.2308
  436MOL0     C57456   6.700   1.684   0.205 -0.2956 -0.8615 -0.1240
  436MOL0     C57457   6.844   1.701   0.260  0.6489 -0.0147 -0.4579
  436MOL0     C57458   6.939   1.787   0.172 -1.0195 -0.1249  0.6159
  436MOL0     C57459   7.011   1.708   0.060  0.1443  0.2433  0.5969
  436MOL0     C57460   7.155   1.745   0.014 -0.3624 -0.7058  1.0587
  436MOL0     C57461   7.214   1.635  -0.088  0.0222 -0.3873 -1.6932
  436MOL0     C57462   7.340   1.686  -0.163 -0.2205 -0.1743 -0.4874
  436MOL0     C57463   7.387   1.586  -0.277 -0.6636  0.5466  0.7820
  436MOL0    Cl57464   7.511   1.668  -0.388  0.6050 -0.2632  0.1733
  436MOL0     C57465   6.482   1.911   0.378 -0.0782 -0.0437 -0.8960
  436MOL0     C57466   6.351   1.915   0.429 -0.0713  0.3736 -0.2860
  436MOL0     O57467   6.212   1.720   0.633  0.9386  0.1835  0.7736
  436MOL0     C57468   5.869   1.849   0.587 -0.7556 -0.3993  1.0437
  436MOL0     C57469   5.754   1.864   0.673 -0.3064  0.2281  0.5629
  436MOL0     N57470   6.009   1.791   1.160  0.4075  0.1998  0.5777
  436MOL0     N57471   6.126   1.796   1.115  0.1672  0.3506  0.4781
  436MOL0     C57472   7.310   1.997   0.869 -0.0858 -0.0928  0.4709
  436MOL0     C57473   7.429   1.933   0.831 -0.6103  0.4487  0.6017
  436MOL0     C57474   7.867   1.934   0.697  0.5926  0.2808  0.3198
  436MOL0     C57475   7.888   1.795   0.700 -0.5782  0.7901 -0.2216
  436MOL0     C57476   8.016   1.740   0.700  0.8464  0.6519 -0.0189
  436MOL0     C57477   8.128   1.820   0.709  0.3571 -0.5650 -0.7089
  436MOL0     O57478   8.259   1.775   0.708  0.2605 -0.0034  0.5942
  436MOL0     C57479   8.289   1.637   0.673 -0.0641 -1.2015  0.5362
  436MOL0     C57480   8.423   1.595   0.730 -0.0555  0.6305 -0.4478
  436MOL0     C57481   8.441   1.589   0.887 -0.1670 -0.0411 -0.3574
  436MOL0     C57482   8.343   1.492   0.968 -0.8510 -0.6345 -0.1888
  436MOL0     C57483   8.231   1.573   1.026  0.4031 -0.4633 -0.4875
  436MOL0     C57484   8.133   1.628   1.067  0.1053 -0.8375 -1.1470
  436MOL0     C57485   8.102   1.961   0.706 -1.0797 -0.5201  0.4425
  436MOL0     C57486   7.975   2.012   0.688 -0.0467 -0.2373 -0.0417
  436MOL0     H57487   7.480   2.078   0.521 -2.1479  0.0477 -0.2824
  436MOL0     H57488   7.282   2.197   0.595 -0.3065 -0.3390  0.2254
  436MOL0     H57489   7.066   2.089   0.966  3.2423 -1.0997  0.0752
  436MOL0     H57490   7.029   1.991   0.820 -1.3594  1.1293 -0.6559
  436MOL0     H57491   6.912   2.197   0.730  1.9213 -6.1294 -1.4640
  436MOL0     H57492   6.934   2.278   0.886 -1.5849  0.8007 -2.2442
  436MOL0     H57493   6.817   2.113   1.002  3.1881  2.2938 -0.8913
  436MOL0     H57494   6.794   2.006   0.865 -1.5219  0.2278 -1.9270
  436MOL0     H57495   6.659   2.278   0.890 -0.7077  0.1665  0.3941
  436MOL0     H57496   6.661   2.175   0.747 -0.6648 -1.9351 -0.8175
  436MOL0     H57497   6.555   2.072   1.025  0.4158 -0.7755 -0.2750
  436MOL0     H57498   6.545   1.982   0.868 -1.5999 -0.2964  1.6071
  436MOL0     H57499   6.383   2.135   0.770  1.9097  0.9933 -0.7350
  436MOL0     H57500   6.368   2.225   0.922  1.6296 -0.4860  0.8644
  436MOL0     H57501   6.195   2.087   0.930 -0.4363  0.0613  2.5294
  436MOL0     H57502   6.265   1.938   0.870  0.4347  1.1405 -1.2739
  436MOL0     H57503   6.354   2.053   1.131 -1.6260 -0.3912  1.5867
  436MOL0     H57504   6.379   1.891   1.081  2.1895  2.6447  0.6985
  436MOL0     H57505   6.087   2.118   1.151 -1.8736  0.2158  1.9236
  436MOL0     H57506   5.843   2.070   1.274  0.6068 -0.6749  0.7035
  436MOL0     H57507   5.844   1.905   1.341 -0.0343 -0.3471  0.1085
  436MOL0     H57508   5.634   1.965   1.215 -1.1176 -0.9202 -1.1564
  436MOL0     H57509   5.719   1.834   1.147 -2.3830  0.3065  1.2819
  436MOL0     H57510   5.737   2.127   1.036  0.3567  0.0504 -0.7050
  436MOL0     H57511   5.840   1.995   0.991  0.5609 -2.1098  2.4242
  436MOL0     H57512   5.628   2.033   0.847  1.6601 -0.2968  0.9836
  436MOL0     H57513   5.528   1.988   0.975  1.1161  1.1513  2.3564
  436MOL0     H57514   5.861   1.722   0.956 -0.7543  0.3450 -0.1417
  436MOL0     H57515   6.059   1.669   0.800  1.1253  0.3338 -1.1470
  436MOL0     H57516   6.210   1.663   0.245  0.3283 -0.8534  0.6517
  436MOL0     H57517   6.417   1.681   0.137 -0.6110  0.1510 -0.8888
  436MOL0     H57518   6.699   1.665   0.097 -0.9026  0.6046 -0.4046
  436MOL0     H57519   6.655   1.606   0.268 -0.0868 -0.8899 -0.0108
  436MOL0     H57520   6.889   1.605   0.288  1.4133  0.7786  1.1680
  436MOL0     H57521   6.836   1.747   0.358 -0.5294  0.7581 -0.8963
  436MOL0     H57522   7.018   1.820   0.240  0.6122  1.3001 -1.8270
  436MOL0     H57523   6.881   1.873   0.138  1.2592  0.2001 -3.0371
  436MOL0     H57524   7.009   1.604   0.095  2.3213 -0.7613 -1.9625
  436MOL0     H57525   6.941   1.692  -0.023 -2.5073 -1.3964  2.9489
  436MOL0     H57526   7.219   1.755   0.102  0.2064  1.3481  0.4528
  436MOL0     H57527   7.153   1.845  -0.030 -1.9933 -1.6709 -1.2816
  436MOL0     H57528   7.133   1.619  -0.159 -0.0760  1.2464 -1.9797
  436MOL0     H57529   7.243   1.551  -0.024  3.9228  1.8466 -0.1564
  436MOL0     H57530   7.317   1.781  -0.211  1.6968  2.3770  3.1482
  436MOL0     H57531   7.414   1.719  -0.090 -2.1372  4.2429 -0.2128
  436MOL0     H57532   7.304   1.548  -0.338  1.4356 -0.6197 -1.5068
  436MOL0     H57533   7.426   1.497  -0.226  0.1427 -0.2743 -1.1878
  436MOL0     H57534   6.548   1.990   0.413  2.5753 -1.1057 -3.1853
  436MOL0     H57535   6.321   1.978   0.512 -1.6843 -0.7093  0.0087
  436MOL0     H57536   5.881   1.897   0.491  3.1025  1.7678  2.3780
  436MOL0     H57537   5.668   1.918   0.636  1.0166  2.0247 -0.0216
  436MOL0     H57538   7.264   1.974   0.965 -0.4331 -0.8435  0.1318
  436MOL0     H57539   7.467   1.859   0.900 -1.5508  1.3475  2.1243
  436MOL0     H57540   7.804   1.727   0.695  1.1683 -1.3866 -1.2398
  436MOL0     H57541   8.031   1.633   0.690 -0.0640  0.0578  3.5979
  436MOL0     H57542   8.285   1.644   0.564  3.8001 -1.0643  0.2739
  436MOL0     H57543   8.212   1.570   0.713 -1.4078 -0.3170 -0.4826
  436MOL0     H57544   8.440   1.495   0.687  0.6777  1.6565 -2.6591
  436MOL0     H57545   8.506   1.656   0.695 -0.7531  0.9491 -1.5845
  436MOL0     H57546   8.444   1.685   0.941  0.6284 -1.8373  3.0490
  436MOL0     H57547   8.535   1.538   0.906 -0.0297  0.7859  1.4009
  436MOL0     H57548   8.303   1.431   0.886 -0.1540  0.6100 -1.5057
  436MOL0     H57549   8.394   1.420   1.032  2.8479  0.0465 -2.1023
  436MOL0     H57550   8.048   1.686   1.099  0.8081 -0.3800 -0.0470
  436MOL0     H57551   8.190   2.023   0.688 -0.9846 -0.4438  1.1705
  436MOL0     H57552   7.971   2.119   0.669 -0.6118  0.7758  4.5326
  437MOL0     O57553   3.972  11.138   9.799  0.0770 -0.1817 -0.3278
  437MOL0     C57554   3.975  11.039   9.723  0.3569 -0.1179  0.1994
  437MOL0     O57555   3.941  10.910   9.753  0.0813  0.4586  0.1794
  437MOL0     C57556   3.924  10.873   9.889  0.0791 -0.5382 -0.0641
  437MOL0     C57557   3.807  10.817   9.919  0.8010  1.2197  0.0569
  437MOL0     C57558   3.779  10.764  10.039  1.0493 -0.3250  0.0569
  437MOL0     C57559   3.870  10.778  10.152  0.6394  0.8581  0.1074
  437MOL0     O57560   3.841  10.736  10.278 -0.2835  0.1435  0.2619
  437MOL0     C57561   3.708  10.756  10.317  1.3640  0.9190  0.2528
  437MOL0     C57562   3.708  10.764  10.471 -0.2454 -0.0412  0.4594
  437MOL0     C57563   3.559  10.744  10.501  0.2810 -0.3697 -0.5270
  437MOL0     C57564   3.539  10.755  10.656 -0.8272 -0.4467 -1.3996
  437MOL0     C57565   3.389  10.767  10.705 -0.0092 -0.4512 -0.0661
  437MOL0     C57566   3.289  10.685  10.628 -0.6182  0.1740 -0.8851
  437MOL0     C57567   3.149  10.714  10.698 -0.7329  0.1034 -0.3799
  437MOL0     C57568   3.040  10.669  10.611 -0.8604 -0.5399 -0.3698
  437MOL0     N57569   2.916  10.648  10.684  0.0164  0.9676  0.5664
  437MOL0     C57570   2.798  10.711  10.666  0.8440 -0.0424  0.2233
  437MOL0     C57571   2.719  10.633  10.741 -0.6435  0.3222  0.2279
  437MOL0     C57572   2.578  10.677  10.766 -0.0344  0.6780 -0.3984
  437MOL0     C57573   2.479  10.561  10.735 -0.0746 -0.5730  0.3535
  437MOL0     C57574   2.332  10.599  10.758  0.3280  0.1389 -0.4368
  437MOL0     C57575   2.225  10.493  10.722 -0.2241 -1.2865  0.4923
  437MOL0     O57576   2.215  10.388  10.822  0.0999  0.0300  0.1941
  437MOL0     C57577   2.096  10.343  10.872 -0.1938  0.5713 -0.4807
  437MOL0     C57578   2.088  10.285  11.000 -0.0474 -2.2501 -0.5098
  437MOL0     C57579   1.961  10.241  11.050  0.1444 -0.1573 -1.2020
  437MOL0     C57580   1.846  10.248  10.977  0.1186 -0.0620 -0.5061
  437MOL0     C57581   1.719  10.197  11.045 -0.0815 -0.1836 -0.1596
  437MOL0     O57582   1.614  10.170  10.963  0.3676 -0.2239 -0.4896
  437MOL0     C57583   1.488  10.138  11.016 -0.2316 -0.1296 -0.1766
  437MOL0     C57584   1.433  10.185  11.142  0.6487  0.2384  0.8127
  437MOL0     C57585   1.298  10.161  11.172 -1.4137 -0.3856  0.2154
  437MOL0     C57586   1.219  10.081  11.084  0.2588 -0.6011 -0.4049
  437MOL0     O57587   1.088  10.060  11.124 -0.0364  1.0381 -0.1577
  437MOL0     C57588   1.003   9.968  11.053 -0.7110 -0.1333 -0.8864
  437MOL0     C57589   0.862   9.999  11.095 -0.2800 -0.6230  0.3957
  437MOL0     C57590   0.770   9.922  10.996 -0.4300 -0.2171 -0.4143
  437MOL0     C57591   0.627   9.968  11.022  0.3647  0.2232 -0.2047
  437MOL0     C57592   0.523   9.871  10.956 -0.0632 -0.5030  0.8509
  437MOL0     C57593   0.377   9.942  10.943 -0.3214 -0.0704 -0.3268
  437MOL0     C57594   0.278   9.865  11.025 -0.0522  0.1803  1.7813
  437MOL0     C57595   0.143   9.846  10.943 -0.4613  0.5433 -0.2460
  437MOL0    Cl57596   0.049   9.996  10.950  0.0443  0.0672  0.3999
  437MOL0     C57597   1.283  10.020  10.964 -0.1468 -0.6722 -0.3842
  437MOL0     C57598   1.409  10.058  10.940  0.1349  1.3710  0.3485
  437MOL0     O57599   1.723  10.181  11.171  0.4610 -0.2120  0.0530
  437MOL0     C57600   1.850  10.308  10.853 -0.1146 -0.8017  0.9346
  437MOL0     C57601   1.975  10.356  10.804  0.3802 -0.9388  0.6060
  437MOL0     N57602   2.772  10.522  10.795  0.9021 -0.0923 -1.1795
  437MOL0     N57603   2.893  10.532  10.757 -0.0951 -0.4666 -0.5779
  437MOL0     C57604   3.990  10.839  10.119  0.2530 -0.7909  0.7510
  437MOL0     C57605   4.020  10.889   9.989 -0.5567  0.5030  0.0012
  437MOL0     C57606   4.007  11.072   9.579  1.1667  1.0681 -0.3545
  437MOL0     C57607   3.996  11.199   9.542  0.2366 -0.2533  0.2252
  437MOL0     C57608   4.024  11.238   9.411  0.2647  0.1106 -0.5291
  437MOL0     C57609   4.072  11.143   9.315 -0.1254 -0.0983  0.8673
  437MOL0     O57610   4.086  11.190   9.186  0.1474  0.8047  0.0580
  437MOL0     C57611   4.124  11.101   9.082  0.1039 -0.4538  0.3179
  437MOL0     C57612   4.072  11.138   8.942  0.0129  0.5583 -0.3800
  437MOL0     C57613   4.095  11.271   8.889 -0.1279 -0.3158 -0.8431
  437MOL0     C57614   4.011  11.311   8.776  0.4485  0.9217  0.1184
  437MOL0     C57615   4.048  11.235   8.656  0.0919  0.2284 -0.6354
  437MOL0     C57616   4.067  11.179   8.548 -0.2660 -0.0211  0.3074
  437MOL0     C57617   4.086  11.008   9.359 -0.2813  0.0023 -0.0058
  437MOL0     C57618   4.058  10.975   9.491 -0.4378 -0.1681  0.5556
  437MOL0     H57619   3.728  10.810   9.845  1.8074 -0.9179 -0.9048
  437MOL0     H57620   3.688  10.713  10.070 -0.1011 -0.0521 -2.5909
  437MOL0     H57621   3.647  10.669  10.289  1.0881  0.4105  2.2769
  437MOL0     H57622   3.671  10.853  10.281  1.7071  1.5669  1.5955
  437MOL0     H57623   3.748  10.861  10.503  1.7321 -0.0037 -1.8445
  437MOL0     H57624   3.766  10.686  10.519  1.7445  1.4930  0.6899
  437MOL0     H57625   3.528  10.646  10.465 -1.2012 -0.0255 -0.2552
  437MOL0     H57626   3.492  10.809  10.444  0.1095 -1.0178 -1.0778
  437MOL0     H57627   3.593  10.670  10.699 -1.4468  0.4177  1.2776
  437MOL0     H57628   3.590  10.838  10.705 -2.4530  0.9720 -2.0318
  437MOL0     H57629   3.364  10.870  10.676 -2.0533 -1.2306 -1.3141
  437MOL0     H57630   3.386  10.741  10.811  1.9842 -2.4420 -0.4302
  437MOL0     H57631   3.308  10.579  10.641  3.4268  0.9388  0.8884
  437MOL0     H57632   3.281  10.699  10.520 -3.1914  0.2305 -0.7512
  437MOL0     H57633   3.148  10.661  10.794 -3.7608  1.7673  0.6239
  437MOL0     H57634   3.130  10.819  10.723  1.4355  0.4867 -0.0781
  437MOL0     H57635   3.048  10.571  10.563  2.3057 -0.8340  0.5514
  437MOL0     H57636   3.023  10.739  10.529 -0.0363 -1.9950 -1.8425
  437MOL0     H57637   2.779  10.802  10.610 -1.9343  0.4615  1.7732
  437MOL0     H57638   2.559  10.763  10.701  0.1581 -0.6674 -2.2968
  437MOL0     H57639   2.580  10.727  10.863  2.8810  1.1122 -0.5997
  437MOL0     H57640   2.505  10.470  10.791  1.5908 -0.9040 -0.8884
  437MOL0     H57641   2.485  10.542  10.628  0.7158  3.0694 -0.3672
  437MOL0     H57642   2.325  10.616  10.866  0.7974  2.6313 -0.7352
  437MOL0     H57643   2.306  10.699  10.722  0.2196  0.2908  0.0537
  437MOL0     H57644   2.260  10.456  10.625  1.2808 -0.3195  0.6265
  437MOL0     H57645   2.133  10.551  10.711  0.5309 -0.4388 -2.0906
  437MOL0     H57646   2.184  10.261  11.045 -1.0218  0.8530  3.8999
  437MOL0     H57647   1.971  10.197  11.149  2.6884  2.6972 -0.0314
  437MOL0     H57648   1.487  10.253  11.207  0.1046  3.0919 -1.5282
  437MOL0     H57649   1.281  10.183  11.277  2.1695 -0.5818  0.9485
  437MOL0     H57650   1.040   9.866  11.072  0.9648  0.4406 -0.8829
  437MOL0     H57651   1.011   9.979  10.944 -1.9405 -2.1713 -1.2301
  437MOL0     H57652   0.843  10.105  11.075  1.8942  0.2301  2.3712
  437MOL0     H57653   0.844   9.984  11.202  2.5815 -1.5974  0.8248
  437MOL0     H57654   0.788   9.814  11.005 -0.7394 -0.1952  0.6949
  437MOL0     H57655   0.794   9.953  10.894 -0.1863 -2.1563 -0.9999
  437MOL0     H57656   0.600   9.975  11.128  1.3930  0.6638  0.0486
  437MOL0     H57657   0.611  10.069  10.984 -2.0305 -0.5907 -1.5814
  437MOL0     H57658   0.528   9.767  10.990 -0.0690 -2.1821 -3.5867
  437MOL0     H57659   0.547   9.849  10.851 -1.6703 -2.3759  0.8057
  437MOL0     H57660   0.351   9.947  10.837  1.0041  2.2366 -0.6173
  437MOL0     H57661   0.383  10.044  10.983  0.8571 -0.9687  1.9571
  437MOL0     H57662   0.330   9.772  11.050  1.3626  1.0643  2.3038
  437MOL0     H57663   0.258   9.909  11.124  0.7725 -0.3863  2.2109
  437MOL0     H57664   0.089   9.764  10.991  0.9250 -1.3967 -1.8288
  437MOL0     H57665   0.157   9.817  10.839  1.7687  0.4988  0.0128
  437MOL0     H57666   1.240   9.940  10.904  0.0108  0.5212 -2.1289
  437MOL0     H57667   1.452  10.032  10.844  2.7712  1.2947  1.4725
  437MOL0     H57668   1.759  10.319  10.796 -0.0472 -0.4208  0.8918
  437MOL0     H57669   1.970  10.396  10.704 -0.2066 -0.3345  0.8640
  437MOL0     H57670   4.075  10.834  10.186 -1.3980 -0.4623  2.9886
  437MOL0     H57671   4.124  10.922   9.980  1.0830 -3.9145  0.1487
  437MOL0     H57672   3.946  11.276   9.601  0.1401  0.3317 -0.5966
  437MOL0     H57673   3.998  11.341   9.391  0.9909  0.3388 -0.3347
  437MOL0     H57674   4.107  10.994   9.098  3.6452 -1.0719  0.6092
  437MOL0     H57675   4.233  11.106   9.081  0.1337 -0.8959 -1.4233
  437MOL0     H57676   4.116  11.072   8.867  0.9234  2.4624 -1.6239
  437MOL0     H57677   3.963  11.124   8.940  0.0490 -0.0204  0.8597
  437MOL0     H57678   4.199  11.265   8.856 -0.3906  2.0579 -2.2822
  437MOL0     H57679   4.086  11.342   8.972  0.7644 -2.7845  1.5214
  437MOL0     H57680   3.906  11.299   8.804  0.6278  0.8899  0.7794
  437MOL0     H57681   4.039  11.416   8.764 -1.0516  1.3380  0.0601
  437MOL0     H57682   4.112  11.125   8.467  0.6765 -0.8230  1.3212
  437MOL0     H57683   4.118  10.928   9.294 -0.0624  0.6116 -0.6640
  437MOL0     H57684   4.074  10.873   9.522 -0.6653  0.0236  1.3345
  438MOL0     O57685   2.377  10.706   2.837  0.1388  0.4075  0.0597
  438MOL0     C57686   2.432  10.813   2.817  0.2792  0.6942 -0.1058
  438MOL0     O57687   2.367  10.936   2.816 -0.4633  0.0617 -0.5153
  438MOL0     C57688   2.237  10.935   2.859  0.3021 -0.0126  0.0114
  438MOL0     C57689   2.195  10.999   2.970 -0.7900  0.6310 -0.2940
  438MOL0     C57690   2.058  11.017   2.987  0.3642  0.5913 -0.5161
  438MOL0     C57691   1.960  10.974   2.896 -0.4888  0.3263  0.1987
  438MOL0     O57692   1.820  10.989   2.905 -0.1817  0.4595  0.0990
  438MOL0     C57693   1.761  10.990   3.030 -0.0083 -0.6803  0.0890
  438MOL0     C57694   1.613  11.037   3.005  0.0979 -0.3712  0.2892
  438MOL0     C57695   1.550  11.058   3.142  0.0466 -0.2360 -0.0901
  438MOL0     C57696   1.398  11.068   3.148  0.0706 -0.6404 -0.0095
  438MOL0     C57697   1.344  11.192   3.084 -0.9593 -0.0877 -0.5768
  438MOL0     C57698   1.196  11.199   3.116  0.8609 -0.3594 -0.2428
  438MOL0     C57699   1.121  11.329   3.066 -0.8349  0.4311  0.1570
  438MOL0     C57700   1.102  11.444   3.179  0.2411  0.9139 -0.3188
  438MOL0     N57701   1.029  11.568   3.136 -0.2813  0.3124 -0.1023
  438MOL0     C57702   0.918  11.558   3.058  0.4634 -0.3350 -0.5577
  438MOL0     C57703   0.884  11.688   3.043  1.1154  0.5711 -0.2698
  438MOL0     C57704   0.764  11.737   2.976  0.2510  0.5029 -0.1869
  438MOL0     C57705   0.662  11.774   3.080  0.1384 -0.9270  0.1235
  438MOL0     C57706   0.522  11.739   3.040  0.2948 -0.2897 -0.0252
  438MOL0     C57707   0.496  11.588   3.047 -1.0097  0.1142 -0.0074
  438MOL0     O57708   0.512  11.548   3.186 -0.7493  1.1436  0.0049
  438MOL0     C57709   0.439  11.435   3.230 -0.8041 -0.0428 -0.9125
  438MOL0     C57710   0.419  11.314   3.161  0.5783  0.2639  0.4459
  438MOL0     C57711   0.324  11.219   3.209 -0.7285  0.3000 -0.9586
  438MOL0     C57712   0.263  11.240   3.329  0.2348 -0.5549 -0.2201
  438MOL0     C57713   0.153  11.150   3.369  1.0578 -0.5406 -0.3149
  438MOL0     O57714   0.103  11.173   3.496 -0.0047 -0.8298  0.6312
  438MOL0     C57715   0.004  11.085   3.548 -0.1728 -0.5463 -0.0057
  438MOL0     C57716  -0.119  11.068   3.495 -0.0541 -0.3539  0.8268
  438MOL0     C57717  -0.221  10.995   3.556 -0.0816 -0.2128 -0.5990
  438MOL0     C57718  -0.185  10.934   3.680 -0.7443  0.8094 -0.4425
  438MOL0     O57719  -0.276  10.858   3.742  0.5537  0.0762 -0.0561
  438MOL0     C57720  -0.254  10.721   3.740  0.5086 -0.4098 -0.8976
  438MOL0     C57721  -0.270  10.651   3.610  0.6264  0.3108 -0.0545
  438MOL0     C57722  -0.298  10.497   3.646 -0.1528  0.3821  0.5463
  438MOL0     C57723  -0.284  10.417   3.513 -0.0851 -0.8466  0.5179
  438MOL0     C57724  -0.356  10.276   3.526 -0.4017  0.2675 -0.3157
  438MOL0     C57725  -0.504  10.289   3.485 -0.3847  0.3630 -0.1395
  438MOL0     C57726  -0.589  10.165   3.499  0.9961  0.0500  0.3900
  438MOL0     C57727  -0.592  10.089   3.363 -0.3681 -0.0240 -0.3581
  438MOL0    Cl57728  -0.707   9.963   3.391  0.2796 -0.2095  0.2414
  438MOL0     C57729  -0.056  10.947   3.740 -0.5914  0.3883 -1.1772
  438MOL0     C57730   0.038  11.021   3.667  0.6854  0.5749  0.4179
  438MOL0     O57731   0.117  11.058   3.291  0.2093  0.3243 -0.2456
  438MOL0     C57732   0.301  11.345   3.407 -0.5411 -0.3060  0.0265
  438MOL0     C57733   0.385  11.446   3.363 -1.2083  0.5843 -0.2118
  438MOL0     N57734   0.972  11.778   3.106  0.2997  0.1609 -0.9526
  438MOL0     N57735   1.067  11.702   3.155 -0.9771 -0.3117 -0.7880
  438MOL0     C57736   2.014  10.909   2.777  0.2882 -0.3771  0.5665
  438MOL0     C57737   2.143  10.887   2.761  0.5007  0.3953  0.7275
  438MOL0     C57738   2.580  10.810   2.794  0.3385 -0.2383  0.6908
  438MOL0     C57739   2.640  10.929   2.746  0.6936  0.1687  0.1268
  438MOL0     C57740   2.785  10.919   2.700  0.2812  0.1680 -0.2995
  438MOL0     C57741   2.865  10.803   2.730 -0.7113 -0.9149  1.0118
  438MOL0     O57742   3.001  10.794   2.709  0.0771  0.1886 -0.3583
  438MOL0     C57743   3.079  10.901   2.655  0.2480  0.6640 -0.3518
  438MOL0     C57744   3.227  10.861   2.624  0.0943  0.0378  0.4007
  438MOL0     C57745   3.307  10.810   2.746 -0.6036 -0.4988 -0.2946
  438MOL0     C57746   3.449  10.767   2.697 -0.1808 -0.6753  0.1512
  438MOL0     C57747   3.537  10.705   2.797  0.0586 -0.3912 -0.6916
  438MOL0     C57748   3.603  10.637   2.874 -0.2805  0.3431  0.1900
  438MOL0     C57749   2.797  10.694   2.776 -0.6453  0.7027 -0.5375
  438MOL0     C57750   2.664  10.700   2.820  0.0429  0.3870  0.4156
  438MOL0     H57751   2.276  11.014   3.041  0.2495 -0.2911 -1.2424
  438MOL0     H57752   2.029  11.056   3.084  0.7700 -1.5256  0.5353
  438MOL0     H57753   1.817  11.062   3.091  0.1761  2.4127 -3.3503
  438MOL0     H57754   1.749  10.893   3.077 -1.2025 -0.6212 -0.0612
  438MOL0     H57755   1.554  10.965   2.946  1.2962 -1.0964 -0.0519
  438MOL0     H57756   1.605  11.133   2.954 -0.6195 -1.2253 -1.2751
  438MOL0     H57757   1.580  11.155   3.183 -2.5241  1.4889 -1.9713
  438MOL0     H57758   1.587  10.976   3.204  2.5084  1.2380  0.5169
  438MOL0     H57759   1.347  10.983   3.101 -0.7753  0.8038 -1.8049
  438MOL0     H57760   1.374  11.059   3.255  1.6441 -0.2656  0.3927
  438MOL0     H57761   1.379  11.183   2.980  3.5280  1.1610  0.5670
  438MOL0     H57762   1.391  11.280   3.130  1.1471 -2.4160  2.1615
  438MOL0     H57763   1.170  11.187   3.221 -2.6904  0.2829 -0.9257
  438MOL0     H57764   1.150  11.117   3.059  2.4074 -2.1348  0.9548
  438MOL0     H57765   1.175  11.365   2.978 -0.3675 -2.7842 -1.0083
  438MOL0     H57766   1.024  11.299   3.026 -1.0958 -1.6056  2.1405
  438MOL0     H57767   1.201  11.475   3.215 -0.2330 -0.8464  2.9561
  438MOL0     H57768   1.052  11.396   3.264  2.7929  0.4759  1.0281
  438MOL0     H57769   0.862  11.472   3.024 -1.3368  0.7200 -0.3876
  438MOL0     H57770   0.726  11.665   2.903 -0.0098  0.3550  0.0967
  438MOL0     H57771   0.793  11.825   2.917 -0.8739  2.4139  1.9661
  438MOL0     H57772   0.665  11.883   3.089  1.2791 -1.1237  4.4368
  438MOL0     H57773   0.702  11.741   3.176 -1.3443 -0.9634  0.7621
  438MOL0     H57774   0.448  11.799   3.095 -0.7394 -0.5958 -1.0367
  438MOL0     H57775   0.509  11.762   2.934  3.5959 -1.4106 -0.8019
  438MOL0     H57776   0.570  11.531   2.990  1.6932  2.4166  0.9075
  438MOL0     H57777   0.399  11.561   3.005  0.8467 -3.6339 -2.4487
  438MOL0     H57778   0.466  11.307   3.064  0.0486  0.7454  0.1476
  438MOL0     H57779   0.304  11.137   3.141 -0.7217 -1.2965  0.8789
  438MOL0     H57780  -0.139  11.118   3.401 -1.1463 -2.7018 -0.2873
  438MOL0     H57781  -0.316  10.997   3.503 -2.3050  0.5574  3.0842
  438MOL0     H57782  -0.330  10.677   3.805 -0.5075 -1.2838 -2.6354
  438MOL0     H57783  -0.160  10.690   3.787 -0.3322 -1.8824 -0.0890
  438MOL0     H57784  -0.175  10.643   3.557  0.4986  0.1045 -0.2557
  438MOL0     H57785  -0.347  10.696   3.546  0.8385  1.3951  0.4317
  438MOL0     H57786  -0.397  10.480   3.688 -0.4279  2.4297  0.8112
  438MOL0     H57787  -0.217  10.462   3.710  0.3799  0.5343 -0.0291
  438MOL0     H57788  -0.333  10.481   3.439  0.3594 -1.6251 -0.4703
  438MOL0     H57789  -0.177  10.404   3.494  1.1409  2.0066  4.2741
  438MOL0     H57790  -0.338  10.226   3.621  1.0202  1.7923  0.2701
  438MOL0     H57791  -0.311  10.205   3.456 -0.0820  0.5513 -0.4014
  438MOL0     H57792  -0.506  10.336   3.385  1.1653  1.7767  0.4425
  438MOL0     H57793  -0.554  10.359   3.552 -0.3213 -1.1428  1.5450
  438MOL0     H57794  -0.549  10.107   3.583  0.4550 -0.5098  0.2637
  438MOL0     H57795  -0.696  10.179   3.520  1.1927 -0.3585  1.7748
  438MOL0     H57796  -0.487  10.065   3.346 -0.1426  1.4827 -1.2909
  438MOL0     H57797  -0.635  10.153   3.285  0.2781  0.2351 -0.5008
  438MOL0     H57798  -0.026  10.903   3.835 -0.4950  3.2587  0.2223
  438MOL0     H57799   0.137  11.039   3.707  1.3460 -1.2589 -0.3066
  438MOL0     H57800   0.267  11.362   3.509 -0.0574  1.0528 -0.0171
  438MOL0     H57801   0.416  11.528   3.428  1.8086  0.3148 -1.1629
  438MOL0     H57802   1.938  10.878   2.705 -0.2678 -0.2044  1.0723
  438MOL0     H57803   2.177  10.843   2.668 -2.4139  0.1870 -0.3494
  438MOL0     H57804   2.588  11.020   2.718 -0.7656 -0.5039  0.5384
  438MOL0     H57805   2.830  11.008   2.659  1.1774 -0.5747 -0.9506
  438MOL0     H57806   3.084  10.991   2.717 -1.9650  1.1003 -0.7197
  438MOL0     H57807   3.026  10.929   2.563 -1.3104 -0.1718  0.2650
  438MOL0     H57808   3.233  10.794   2.538 -0.7357  1.1912 -0.6003
  438MOL0     H57809   3.276  10.954   2.591  0.0448  0.3743  1.2459
  438MOL0     H57810   3.267  10.722   2.795  2.9616 -1.6770  0.8402
  438MOL0     H57811   3.328  10.887   2.821  1.5985 -0.8923 -0.4269
  438MOL0     H57812   3.434  10.707   2.607  0.1886  0.4024 -0.6404
  438MOL0     H57813   3.503  10.855   2.662  0.4672 -1.3508 -0.5768
  438MOL0     H57814   3.649  10.571   2.944  0.5566 -1.7275 -2.1586
  438MOL0     H57815   2.852  10.600   2.780 -0.2929  0.8972 -0.8065
  438MOL0     H57816   2.626  10.607   2.862 -3.2604  2.0921  1.5636
  439MOL0     O57817   8.732   9.338   2.456 -0.0089  0.0413  0.4426
  439MOL0     C57818   8.780   9.424   2.528 -0.5063  0.7054 -0.1675
  439MOL0     O57819   8.715   9.527   2.580 -0.2847 -0.4320 -0.1435
  439MOL0     C57820   8.588   9.552   2.542  0.4347  0.0277 -0.6239
  439MOL0     C57821   8.483   9.480   2.599  0.3119 -0.4096 -0.7067
  439MOL0     C57822   8.351   9.506   2.568 -1.0907  0.6477  0.4786
  439MOL0     C57823   8.309   9.608   2.491 -0.3773  0.0973 -0.0073
  439MOL0     O57824   8.174   9.617   2.469  0.5299 -0.0170 -0.1534
  439MOL0     C57825   8.116   9.747   2.497 -0.0063 -0.2191  0.3127
  439MOL0     C57826   7.964   9.750   2.476 -0.3855  0.1549 -0.2902
  439MOL0     C57827   7.907   9.883   2.514 -0.5451  0.6464  0.5833
  439MOL0     C57828   7.867   9.889   2.663  0.8681 -0.0558  0.4934
  439MOL0     C57829   7.802  10.015   2.718  0.4096  0.2801 -0.2627
  439MOL0     C57830   7.897  10.127   2.725 -0.7240 -0.1853 -0.0763
  439MOL0     C57831   7.846  10.258   2.763 -0.8377 -0.0366 -0.0923
  439MOL0     C57832   7.948  10.373   2.745  0.1523  0.6754  0.1940
  439MOL0     N57833   7.887  10.497   2.780 -0.2735  0.2893 -0.1650
  439MOL0     C57834   7.868  10.548   2.907  0.8211 -0.7140 -0.0570
  439MOL0     C57835   7.841  10.679   2.877 -0.1971 -0.1235 -0.3433
  439MOL0     C57836   7.816  10.785   2.979  0.2856 -0.7144  0.1002
  439MOL0     C57837   7.671  10.802   2.991  0.3646  0.3802  0.1020
  439MOL0     C57838   7.617  10.704   3.087 -0.3098  1.1588 -0.2774
  439MOL0     C57839   7.472  10.692   3.069 -0.0688 -0.3741 -0.4170
  439MOL0     O57840   7.396  10.648   3.180  0.2245  0.6122  0.5765
  439MOL0     C57841   7.359  10.518   3.175  0.4536 -0.4476 -0.3144
  439MOL0     C57842   7.428  10.405   3.148 -0.5740 -0.2696  1.0889
  439MOL0     C57843   7.374  10.281   3.169  0.0968  0.2608  0.1281
  439MOL0     C57844   7.236  10.268   3.186  1.0509 -0.4002 -0.3612
  439MOL0     C57845   7.176  10.132   3.199 -0.4796 -0.1143  0.2517
  439MOL0     O57846   7.259  10.044   3.254  0.6907  0.6052  0.1945
  439MOL0     C57847   7.221   9.909   3.253 -1.1189  0.4466 -0.0272
  439MOL0     C57848   7.176   9.852   3.373 -0.4376  0.1218 -0.4038
  439MOL0     C57849   7.128   9.722   3.365 -0.3944  0.0107 -0.1479
  439MOL0     C57850   7.109   9.649   3.248  0.2376  1.1027 -0.0638
  439MOL0     O57851   7.064   9.521   3.240 -0.3759  0.5509  0.2571
  439MOL0     C57852   6.924   9.502   3.249  0.4326 -0.3739  0.4334
  439MOL0     C57853   6.877   9.401   3.342 -0.2824 -0.9103 -0.9048
  439MOL0     C57854   6.913   9.422   3.488 -0.0521  0.7166 -0.1995
  439MOL0     C57855   6.831   9.543   3.544 -0.2474 -0.4894 -0.2525
  439MOL0     C57856   6.823   9.537   3.708 -0.5344 -0.7480  0.2280
  439MOL0     C57857   6.745   9.423   3.774 -0.0008 -0.5397 -0.1743
  439MOL0     C57858   6.596   9.427   3.715 -0.1520  0.8557  0.3072
  439MOL0     C57859   6.505   9.542   3.744  0.2104 -0.0236  0.2140
  439MOL0    Cl57860   6.338   9.483   3.690 -0.2361  0.0913 -0.0545
  439MOL0     C57861   7.174   9.703   3.133  0.0005 -0.0832  0.0902
  439MOL0     C57862   7.215   9.834   3.136  0.3004  0.4437  0.2115
  439MOL0     O57863   7.061  10.104   3.166  0.4739  0.4486  0.3245
  439MOL0     C57864   7.155  10.383   3.201 -1.1148  0.0216 -0.0627
  439MOL0     C57865   7.224  10.506   3.202 -0.0227  0.4295 -0.3945
  439MOL0     N57866   7.846  10.698   2.745  0.1441  0.0704  0.1294
  439MOL0     N57867   7.878  10.593   2.682 -1.4204  0.8722  0.6300
  439MOL0     C57868   8.410   9.683   2.436  0.4336  0.4831  0.5776
  439MOL0     C57869   8.542   9.652   2.458 -0.4422 -1.1103  0.2244
  439MOL0     C57870   8.927   9.414   2.546  0.4556 -0.6615  0.2910
  439MOL0     C57871   9.014   9.361   2.451  0.5288  0.1846  0.5094
  439MOL0     C57872   9.157   9.366   2.469  0.2521  0.2470 -0.5505
  439MOL0     C57873   9.204   9.410   2.598  0.1975  0.7499  1.0699
  439MOL0     O57874   9.334   9.403   2.637 -0.0493 -0.2742 -0.6730
  439MOL0     C57875   9.448   9.373   2.546  0.3477  0.1770 -0.8422
  439MOL0     C57876   9.579   9.358   2.637  0.1995  0.1771 -0.0932
  439MOL0     C57877   9.597   9.490   2.705 -0.6520 -0.8391  0.4916
  439MOL0     C57878   9.745   9.536   2.702 -0.3491 -0.4701  0.2041
  439MOL0     C57879   9.831   9.438   2.763 -0.2013  0.2827 -0.9656
  439MOL0     C57880   9.906   9.358   2.816 -0.5907  0.3572 -0.4594
  439MOL0     C57881   9.119   9.462   2.695 -0.3458  0.5529 -0.1423
  439MOL0     C57882   8.982   9.466   2.672  0.2208  0.0758  0.7541
  439MOL0     H57883   8.502   9.412   2.681 -0.1095  0.6214  0.2781
  439MOL0     H57884   8.272   9.447   2.613 -0.2237  0.9446  2.4819
  439MOL0     H57885   8.164   9.824   2.435 -0.3522 -0.8804 -0.8108
  439MOL0     H57886   8.141   9.770   2.601 -2.3746 -1.7475  1.2893
  439MOL0     H57887   7.922   9.671   2.540  3.1329 -0.8291  1.0636
  439MOL0     H57888   7.948   9.723   2.372  3.1699  1.3029 -1.2966
  439MOL0     H57889   7.820   9.897   2.449  0.4971  0.5664 -0.8582
  439MOL0     H57890   7.965   9.971   2.483 -2.8192  2.4663  1.1988
  439MOL0     H57891   7.789   9.813   2.665  0.5514  0.2687  0.8546
  439MOL0     H57892   7.957   9.871   2.723  0.4252  0.7379  1.4299
  439MOL0     H57893   7.764   9.992   2.818  1.0913 -2.4182 -0.5562
  439MOL0     H57894   7.715  10.037   2.656 -1.3276 -2.4295  1.0339
  439MOL0     H57895   7.954  10.123   2.631  1.3876  1.0882  1.0686
  439MOL0     H57896   7.978  10.106   2.796  0.5137  0.4260 -1.2550
  439MOL0     H57897   7.755  10.280   2.706 -3.1253 -1.9840  2.5554
  439MOL0     H57898   7.807  10.256   2.865  0.9124 -3.0408  0.6212
  439MOL0     H57899   7.983  10.383   2.642  3.1085 -1.1097  0.9138
  439MOL0     H57900   8.038  10.359   2.805  0.8936  3.1587 -0.2262
  439MOL0     H57901   7.886  10.502   3.003  2.4735 -2.0554 -0.9707
  439MOL0     H57902   7.859  10.880   2.945  0.8450 -0.4126  1.5674
  439MOL0     H57903   7.861  10.750   3.072 -1.0552  0.1670  1.1216
  439MOL0     H57904   7.625  10.789   2.893 -0.1914  3.4415 -0.1466
  439MOL0     H57905   7.650  10.904   3.025  0.0532 -0.0194  1.1389
  439MOL0     H57906   7.661  10.605   3.071 -2.7959 -0.0476 -0.2371
  439MOL0     H57907   7.643  10.738   3.188 -2.1390 -1.1897  1.0988
  439MOL0     H57908   7.454  10.647   2.971 -0.7276 -0.1537 -0.4014
  439MOL0     H57909   7.447  10.797   3.054 -1.0360 -0.6823 -1.0937
  439MOL0     H57910   7.529  10.418   3.110 -0.8985  2.5778  0.9268
  439MOL0     H57911   7.430  10.189   3.157  0.6579  0.6190 -0.0423
  439MOL0     H57912   7.187   9.898   3.471 -1.0220  1.3528 -0.9003
  439MOL0     H57913   7.095   9.676   3.457 -0.4655  1.0453  0.3617
  439MOL0     H57914   6.879   9.482   3.151  1.7101 -0.1318 -0.2316
  439MOL0     H57915   6.876   9.592   3.289 -0.6734 -1.4387  1.5887
  439MOL0     H57916   6.896   9.299   3.307  0.9789 -1.1794  0.5051
  439MOL0     H57917   6.768   9.395   3.330 -0.1162 -1.9906 -2.1275
  439MOL0     H57918   7.019   9.446   3.498 -0.0069  0.2813  0.3775
  439MOL0     H57919   6.901   9.328   3.542  0.9934  1.9414  2.3238
  439MOL0     H57920   6.881   9.636   3.515  0.2511  0.0380  2.0803
  439MOL0     H57921   6.727   9.540   3.510 -0.0271 -2.8911 -0.8516
  439MOL0     H57922   6.788   9.637   3.737 -0.1251 -0.2357 -0.9413
  439MOL0     H57923   6.925   9.533   3.748 -0.8873 -1.8272  1.0625
  439MOL0     H57924   6.738   9.437   3.883 -4.6087  2.1878 -0.5489
  439MOL0     H57925   6.798   9.331   3.750  3.6764  1.4044 -0.2433
  439MOL0     H57926   6.608   9.393   3.612  4.1141 -0.3825  1.0218
  439MOL0     H57927   6.545   9.347   3.768 -0.4925 -2.0939 -3.9918
  439MOL0     H57928   6.539   9.633   3.693 -0.5821 -0.5355 -1.3176
  439MOL0     H57929   6.501   9.561   3.851 -1.2393 -1.0964  0.3869
  439MOL0     H57930   7.174   9.651   3.038 -0.5226 -2.4888  1.3282
  439MOL0     H57931   7.242   9.873   3.038  0.1672 -3.3624 -1.5187
  439MOL0     H57932   7.049  10.368   3.218 -0.8478 -3.4173 -0.6531
  439MOL0     H57933   7.175  10.602   3.219  3.8112  2.5096  0.0071
  439MOL0     H57934   8.382   9.770   2.377 -4.4324 -0.8890  0.4387
  439MOL0     H57935   8.618   9.718   2.417 -0.9488  0.3480  1.5421
  439MOL0     H57936   8.978   9.313   2.360 -0.6378 -2.3139  2.1754
  439MOL0     H57937   9.212   9.308   2.396 -3.4367 -3.4120 -0.8054
  439MOL0     H57938   9.471   9.447   2.469  2.9805  0.4662  0.0945
  439MOL0     H57939   9.416   9.281   2.497 -2.4598 -0.3022  1.6117
  439MOL0     H57940   9.572   9.280   2.713  0.6113 -0.2507 -0.4823
  439MOL0     H57941   9.661   9.329   2.570 -0.9210 -2.9937 -0.2436
  439MOL0     H57942   9.582   9.478   2.812  1.1919 -0.9349  0.7714
  439MOL0     H57943   9.534   9.571   2.669  3.5833  1.7152 -2.0456
  439MOL0     H57944   9.771   9.551   2.597  0.2716 -0.5671  0.3401
  439MOL0     H57945   9.755   9.634   2.749  0.0413 -0.0151 -0.7947
  439MOL0     H57946   9.966   9.277   2.852  1.1490  0.3741 -3.0846
  439MOL0     H57947   9.172   9.490   2.786 -0.6345 -0.5562  0.3858
  439MOL0     H57948   8.922   9.497   2.757  0.4967  0.5366  0.7820
  440MOL0     O57949   1.895   8.260   7.219 -0.1810 -0.7638 -0.6978
  440MOL0     C57950   1.871   8.168   7.138  0.0041  0.0680  0.0167
  440MOL0     O57951   1.952   8.109   7.054  0.2601 -0.4356 -0.0867
  440MOL0     C57952   2.073   8.153   7.021  0.2293 -0.2052  0.9312
  440MOL0     C57953   2.132   8.270   7.060 -1.1070  0.0550 -0.4740
  440MOL0     C57954   2.261   8.305   7.012  0.0012  0.2194 -0.4021
  440MOL0     C57955   2.335   8.232   6.934  0.1333  0.3776  0.5537
  440MOL0     O57956   2.459   8.283   6.924 -0.5900  1.1779  0.0980
  440MOL0     C57957   2.557   8.181   6.917  0.1798  0.6991 -0.0205
  440MOL0     C57958   2.692   8.250   6.923 -0.7943  0.3301  0.1942
  440MOL0     C57959   2.734   8.312   6.790 -0.2963  0.6795 -0.4240
  440MOL0     C57960   2.865   8.402   6.797  0.0236 -0.2408  0.1439
  440MOL0     C57961   2.991   8.317   6.826  0.5258  0.3584  0.7424
  440MOL0     C57962   3.005   8.194   6.732  1.0563 -0.3393  0.1742
  440MOL0     C57963   3.130   8.111   6.761  0.6735 -0.3853  0.7908
  440MOL0     C57964   3.154   8.012   6.647 -1.3760  0.0661 -0.8679
  440MOL0     N57965   3.298   7.974   6.647  0.2207  0.6429  0.3099
  440MOL0     C57966   3.369   7.888   6.723 -0.2203 -0.5910 -0.8980
  440MOL0     C57967   3.496   7.887   6.670  0.2894 -0.6141  0.3230
  440MOL0     C57968   3.603   7.799   6.723 -0.4343  0.9304  0.8055
  440MOL0     C57969   3.615   7.678   6.629 -0.1605  0.4295  0.4647
  440MOL0     C57970   3.701   7.564   6.701  0.1588  0.1893  0.3629
  440MOL0     C57971   3.734   7.455   6.598  0.6071  0.8406  0.5029
  440MOL0     O57972   3.658   7.339   6.626  0.6703 -0.9532  0.0864
  440MOL0     C57973   3.673   7.234   6.542 -0.4068  0.2708 -0.3235
  440MOL0     C57974   3.580   7.127   6.562  0.4206  0.4708 -0.4632
  440MOL0     C57975   3.582   7.004   6.488 -0.1005 -1.0802 -0.5256
  440MOL0     C57976   3.692   6.984   6.406 -0.1732  0.3726  0.6926
  440MOL0     C57977   3.724   6.850   6.356  1.0314 -0.4777  0.5595
  440MOL0     O57978   3.826   6.842   6.261 -0.3613 -0.0831  0.4119
  440MOL0     C57979   3.842   6.720   6.192 -0.0826 -0.5088 -0.0815
  440MOL0     C57980   3.739   6.659   6.109  0.0738 -0.2544 -1.4213
  440MOL0     C57981   3.762   6.536   6.050  0.4763 -0.0720 -0.4744
  440MOL0     C57982   3.888   6.477   6.069 -0.2050  0.0497 -0.4896
  440MOL0     O57983   3.913   6.356   6.007 -0.1601 -0.2425 -0.2288
  440MOL0     C57984   3.829   6.248   6.036  0.5209 -0.1823 -0.0883
  440MOL0     C57985   3.793   6.194   5.901  0.3306 -0.4465  0.4025
  440MOL0     C57986   3.653   6.134   5.914 -1.0491 -0.4939  0.2058
  440MOL0     C57987   3.609   6.077   5.789  0.2990 -0.5147  0.9114
  440MOL0     C57988   3.456   6.042   5.805 -0.1752  0.0819  0.0978
  440MOL0     C57989   3.354   6.148   5.739  0.1296 -0.4844  0.4373
  440MOL0     C57990   3.218   6.074   5.740 -0.8363  0.0683 -0.5819
  440MOL0     C57991   3.100   6.163   5.693 -0.7208  0.4181  0.8427
  440MOL0    Cl57992   2.959   6.058   5.705  0.1125 -0.3684  0.4478
  440MOL0     C57993   3.991   6.549   6.124  0.2931  0.4154 -0.4666
  440MOL0     C57994   3.969   6.666   6.191  0.4099 -0.4548 -0.0948
  440MOL0     O57995   3.651   6.758   6.390 -0.2746  0.2935 -0.0563
  440MOL0     C57996   3.780   7.091   6.383 -0.2536 -0.1547  0.0118
  440MOL0     C57997   3.765   7.223   6.437  1.0688 -0.1026  0.2722
  440MOL0     N57998   3.504   7.983   6.572 -0.3585  0.6953 -0.8580
  440MOL0     N57999   3.386   8.035   6.553  0.0183  0.4007 -0.5865
  440MOL0     C58000   2.267   8.104   6.895 -1.4613  0.0999  0.4532
  440MOL0     C58001   2.139   8.069   6.930  0.5055 -1.0140  0.8262
  440MOL0     C58002   1.728   8.118   7.136 -0.2925  0.2332 -0.4257
  440MOL0     C58003   1.676   8.044   7.027 -0.6213 -0.0691  0.5592
  440MOL0     C58004   1.550   7.989   7.022  0.4158 -0.6706 -0.2207
  440MOL0     C58005   1.463   8.009   7.137  0.7316  0.2538 -0.3805
  440MOL0     O58006   1.341   7.944   7.142 -0.1967  0.5532  1.2741
  440MOL0     C58007   1.226   8.022   7.113  0.1924  0.8244  0.4058
  440MOL0     C58008   1.166   8.030   6.973  0.2342  0.5410  0.1792
  440MOL0     C58009   1.098   7.915   6.904 -0.6632  1.3137 -0.6163
  440MOL0     C58010   1.149   7.769   6.949  0.3179 -0.6195 -0.5461
  440MOL0     C58011   1.080   7.658   6.902  1.6051 -1.6273 -0.3156
  440MOL0     C58012   1.001   7.563   6.891  0.4747  0.3690 -0.5920
  440MOL0     C58013   1.507   8.083   7.243  0.3420 -1.6515 -0.4180
  440MOL0     C58014   1.636   8.144   7.249 -0.2433  0.1359  1.3726
  440MOL0     H58015   2.090   8.339   7.133 -1.9990 -0.4206 -0.5294
  440MOL0     H58016   2.313   8.388   7.058  4.2581 -0.4535 -3.3684
  440MOL0     H58017   2.548   8.129   6.821 -0.6575 -0.4182  0.6375
  440MOL0     H58018   2.550   8.117   7.005  4.4449  1.2788  0.9506
  440MOL0     H58019   2.769   8.177   6.952 -2.0990 -1.2135 -0.0726
  440MOL0     H58020   2.693   8.323   7.004  0.7592  0.9433 -0.3448
  440MOL0     H58021   2.657   8.384   6.761 -1.9801 -0.6221  0.5919
  440MOL0     H58022   2.754   8.244   6.706  1.9399  0.3036  0.3439
  440MOL0     H58023   2.876   8.470   6.712 -0.3396 -0.6237 -0.2159
  440MOL0     H58024   2.859   8.464   6.886 -0.9775 -0.1660  0.0370
  440MOL0     H58025   2.977   8.296   6.932 -2.8102  1.8234  0.7071
  440MOL0     H58026   3.081   8.378   6.815  1.4467 -1.1832 -0.7734
  440MOL0     H58027   3.007   8.221   6.626  1.1851  0.4214  0.3633
  440MOL0     H58028   2.917   8.130   6.744  2.7728 -3.6360 -2.8445
  440MOL0     H58029   3.220   8.174   6.763 -0.2665  1.0068  3.7571
  440MOL0     H58030   3.121   8.053   6.853  1.9909 -1.5354  0.2323
  440MOL0     H58031   3.124   8.055   6.551 -3.7167  0.7589  0.1043
  440MOL0     H58032   3.093   7.922   6.662 -0.2297 -0.3544  1.7609
  440MOL0     H58033   3.340   7.837   6.814  2.6086 -1.0641 -0.1515
  440MOL0     H58034   3.575   7.759   6.821 -1.4713 -4.7839 -1.4212
  440MOL0     H58035   3.700   7.849   6.732 -0.6497  1.3469  0.8129
  440MOL0     H58036   3.661   7.700   6.533 -0.3457  3.7100  1.0360
  440MOL0     H58037   3.519   7.628   6.610 -1.1985  2.0220  1.3260
  440MOL0     H58038   3.787   7.619   6.739 -0.8119  0.7649  1.8429
  440MOL0     H58039   3.651   7.519   6.788 -1.8374  1.2264 -0.2031
  440MOL0     H58040   3.840   7.431   6.610  0.1781 -0.8967  1.0241
  440MOL0     H58041   3.716   7.478   6.493 -0.5523 -1.6185  0.0874
  440MOL0     H58042   3.500   7.143   6.634 -1.6440 -0.4381 -2.4145
  440MOL0     H58043   3.511   6.926   6.510 -0.0686 -1.0564 -0.3382
  440MOL0     H58044   3.649   6.719   6.098  1.7059  2.7469  0.2041
  440MOL0     H58045   3.686   6.493   5.985  0.4676 -3.6523  1.6135
  440MOL0     H58046   3.739   6.275   6.093 -0.0421 -2.3154  0.1365
  440MOL0     H58047   3.886   6.170   6.088 -0.0838 -0.6235 -0.0646
  440MOL0     H58048   3.874   6.126   5.871  1.8537  1.8742 -1.1368
  440MOL0     H58049   3.778   6.280   5.835 -0.8593  1.4270  2.9658
  440MOL0     H58050   3.571   6.202   5.941 -3.2092 -2.6718 -0.4325
  440MOL0     H58051   3.656   6.055   5.991  0.3772 -0.0537  0.6338
  440MOL0     H58052   3.620   6.161   5.719  0.9240 -0.5082  1.0176
  440MOL0     H58053   3.658   5.987   5.752 -2.5065 -3.1014  2.9941
  440MOL0     H58054   3.423   6.019   5.907 -0.2737  2.6000  0.7091
  440MOL0     H58055   3.440   5.953   5.745  1.6829  1.1198 -2.0572
  440MOL0     H58056   3.384   6.189   5.643 -2.8171  1.5854  0.2543
  440MOL0     H58057   3.352   6.231   5.810  1.3397  0.4595 -0.5976
  440MOL0     H58058   3.222   5.988   5.672  2.2850  0.3126 -0.8793
  440MOL0     H58059   3.195   6.033   5.839 -2.2579  0.1993 -0.8355
  440MOL0     H58060   3.126   6.196   5.593  1.7975  2.1739  1.9791
  440MOL0     H58061   3.095   6.244   5.766  2.1709 -0.0040  1.6145
  440MOL0     H58062   4.090   6.505   6.131  0.4905  0.9179 -0.1047
  440MOL0     H58063   4.040   6.726   6.247 -2.9391  2.6445  1.2223
  440MOL0     H58064   3.852   7.074   6.303  0.9818 -0.7928  1.2023
  440MOL0     H58065   3.838   7.298   6.409 -0.4248  2.0015  1.7042
  440MOL0     H58066   2.327   8.037   6.833 -1.7793 -1.6515  1.9485
  440MOL0     H58067   2.096   7.975   6.895 -0.7639  0.2584 -1.2620
  440MOL0     H58068   1.736   8.017   6.940 -0.3696  1.3909  0.2544
  440MOL0     H58069   1.538   7.935   6.928  0.9504  0.8906 -1.2417
  440MOL0     H58070   1.240   8.122   7.154  0.2378  1.3704 -0.8896
  440MOL0     H58071   1.156   7.989   7.190 -0.4665  1.3188  0.0318
  440MOL0     H58072   1.095   8.113   6.984 -1.6990 -1.2450  1.9954
  440MOL0     H58073   1.254   8.058   6.914  0.9651 -1.1081  0.4308
  440MOL0     H58074   1.102   7.928   6.796 -3.4031  1.8281 -0.7249
  440MOL0     H58075   0.993   7.910   6.933 -0.9330  0.6778 -1.6670
  440MOL0     H58076   1.254   7.754   6.920 -0.1407 -0.1500 -2.6421
  440MOL0     H58077   1.146   7.765   7.058 -0.4030  0.4567 -0.5072
  440MOL0     H58078   0.946   7.478   6.858  0.4566  0.2366 -0.2245
  440MOL0     H58079   1.433   8.096   7.322 -0.7647 -2.7446 -1.2421
  440MOL0     H58080   1.658   8.206   7.335  0.0577 -0.4054  1.6942
  441MOL0     O58081   2.735   5.559   5.591 -0.1268  0.2547 -0.2034
  441MOL0     C58082   2.736   5.632   5.496  0.2233 -0.6614  0.4379
  441MOL0     O58083   2.623   5.685   5.436  1.5016  0.6422  0.5405
  441MOL0     C58084   2.498   5.658   5.487 -0.3548 -0.4062 -0.3706
  441MOL0     C58085   2.377   5.652   5.414  0.2381 -0.5087 -0.2310
  441MOL0     C58086   2.250   5.626   5.475 -0.4078  0.2625 -0.0474
  441MOL0     C58087   2.231   5.614   5.608  0.7567  0.1858 -0.4297
  441MOL0     O58088   2.118   5.568   5.678 -0.0741  0.1489  0.3821
  441MOL0     C58089   2.005   5.517   5.620  0.1403  0.0287  1.1622
  441MOL0     C58090   1.917   5.445   5.721  0.5144  0.1270 -0.0011
  441MOL0     C58091   1.822   5.340   5.667 -1.0394  0.0688 -0.7009
  441MOL0     C58092   1.781   5.251   5.779 -0.8021  0.3474  1.0358
  441MOL0     C58093   1.687   5.139   5.734 -0.2529 -0.0340 -0.5262
  441MOL0     C58094   1.543   5.181   5.722 -0.1376 -0.2438 -0.6079
  441MOL0     C58095   1.477   5.070   5.643 -0.9268 -0.0808  0.3530
  441MOL0     C58096   1.331   5.057   5.694 -0.6820  1.1073 -0.5410
  441MOL0     N58097   1.271   5.185   5.687  0.2881  0.9624  0.2778
  441MOL0     C58098   1.271   5.270   5.574  0.3739 -0.7752 -0.1788
  441MOL0     C58099   1.174   5.366   5.597 -0.0093  0.2619 -0.0635
  441MOL0     C58100   1.125   5.460   5.491 -0.1431 -0.4136  0.0328
  441MOL0     C58101   1.033   5.380   5.390  0.3020  0.1886 -0.0876
  441MOL0     C58102   0.909   5.321   5.455 -0.1828 -0.4988  1.0697
  441MOL0     C58103   0.809   5.282   5.346 -0.1778 -0.0385 -0.4818
  441MOL0     O58104   0.689   5.250   5.417  0.0030 -0.7649 -0.6746
  441MOL0     C58105   0.568   5.230   5.350 -0.1811 -0.0433  0.2362
  441MOL0     C58106   0.451   5.264   5.414  0.1258  0.7821  0.2466
  441MOL0     C58107   0.327   5.238   5.371 -0.8269  0.3513 -0.1799
  441MOL0     C58108   0.307   5.165   5.252 -0.7716  1.1824  0.4294
  441MOL0     C58109   0.175   5.120   5.208 -0.0866  0.3279 -0.6878
  441MOL0     O58110   0.081   5.131   5.303 -0.0443 -0.8965  0.5797
  441MOL0     C58111  -0.053   5.147   5.258  0.5734  0.0229 -0.7036
  441MOL0     C58112  -0.104   5.144   5.129  0.3731  0.0831  0.0755
  441MOL0     C58113  -0.234   5.169   5.097 -0.1706 -0.6658 -0.1731
  441MOL0     C58114  -0.330   5.190   5.193 -0.1094  0.3246  0.0302
  441MOL0     O58115  -0.461   5.224   5.165 -0.0626  1.0305  0.2090
  441MOL0     C58116  -0.551   5.154   5.252 -1.4702 -0.1864  0.7662
  441MOL0     C58117  -0.672   5.250   5.275  0.0448  0.7097 -0.3452
  441MOL0     C58118  -0.757   5.261   5.151 -0.0659 -0.2307  0.7543
  441MOL0     C58119  -0.877   5.355   5.188 -0.6328 -0.3063  0.0028
  441MOL0     C58120  -0.966   5.380   5.067  0.5181  0.3751 -1.0973
  441MOL0     C58121  -1.060   5.490   5.103 -0.2287  0.1663 -0.2937
  441MOL0     C58122  -1.159   5.526   4.991 -0.1956  0.8147 -0.8643
  441MOL0     C58123  -1.211   5.673   5.005 -0.1138 -0.1318 -0.3277
  441MOL0    Cl58124  -1.329   5.715   4.885  0.0599 -0.1954  0.4040
  441MOL0     C58125  -0.279   5.191   5.328  0.0562 -0.5972  0.5052
  441MOL0     C58126  -0.147   5.160   5.363 -1.1132  0.0120 -0.0570
  441MOL0     O58127   0.173   5.034   5.121  0.6585 -0.3842 -0.3894
  441MOL0     C58128   0.422   5.139   5.173  0.9327 -0.0409  0.6772
  441MOL0     C58129   0.549   5.175   5.223 -0.0681 -0.0574  0.1881
  441MOL0     N58130   1.113   5.339   5.721  0.6702  0.2751 -0.2644
  441MOL0     N58131   1.161   5.234   5.766  0.9259 -0.2787  0.4104
  441MOL0     C58132   2.342   5.628   5.684  0.3594 -0.2354 -0.4416
  441MOL0     C58133   2.474   5.641   5.626  0.9955 -0.6453  0.3254
  441MOL0     C58134   2.871   5.674   5.451  0.1704 -0.0564  0.7130
  441MOL0     C58135   2.983   5.671   5.534 -1.3410 -0.0106 -0.7932
  441MOL0     C58136   3.107   5.714   5.494  0.9243  0.4217 -0.4561
  441MOL0     C58137   3.125   5.760   5.367  0.3771  1.0536  0.8699
  441MOL0     O58138   3.252   5.794   5.336  0.5385  0.0301 -0.0166
  441MOL0     C58139   3.272   5.881   5.231 -0.2138  0.5356  0.5438
  441MOL0     C58140   3.409   5.939   5.252  0.2886 -0.8126  0.0346
  441MOL0     C58141   3.406   6.045   5.367  0.8364 -0.2644  0.1341
  441MOL0     C58142   3.544   6.097   5.393  0.6607  0.6180  0.1967
  441MOL0     C58143   3.631   6.114   5.277 -0.2537 -0.2644  0.6299
  441MOL0     C58144   3.701   6.158   5.186 -0.3789 -1.2743  0.4727
  441MOL0     C58145   3.018   5.758   5.269 -0.9694  1.3091 -0.1667
  441MOL0     C58146   2.895   5.704   5.316  0.2168 -0.3925  0.1599
  441MOL0     H58147   2.392   5.660   5.307 -2.1903  1.1930 -0.5329
  441MOL0     H58148   2.159   5.605   5.419 -0.1163  1.3824 -0.9673
  441MOL0     H58149   2.033   5.445   5.543  0.5179  1.3455  0.0314
  441MOL0     H58150   1.949   5.596   5.568  3.6859  2.3814  0.5736
  441MOL0     H58151   1.863   5.513   5.787 -0.5722  2.5875 -3.1586
  441MOL0     H58152   1.986   5.387   5.784  2.9316 -0.6412 -3.0969
  441MOL0     H58153   1.878   5.273   5.601 -0.8111 -0.2789 -0.1571
  441MOL0     H58154   1.748   5.390   5.604 -2.1618 -0.3337  0.2617
  441MOL0     H58155   1.871   5.212   5.827 -1.9218 -3.3306  0.4530
  441MOL0     H58156   1.732   5.311   5.856 -0.3210 -0.1215  1.7159
  441MOL0     H58157   1.694   5.063   5.812 -0.4614 -1.1334 -1.5588
  441MOL0     H58158   1.721   5.089   5.643 -3.4310 -3.0994 -0.2595
  441MOL0     H58159   1.549   5.278   5.671  0.4095  0.0283 -0.0409
  441MOL0     H58160   1.497   5.200   5.820  0.0256 -0.0148 -0.5750
  441MOL0     H58161   1.497   5.082   5.536  0.7218 -1.8241  0.3899
  441MOL0     H58162   1.532   4.978   5.668 -0.0799  0.6421  1.2303
  441MOL0     H58163   1.337   5.015   5.795 -0.9228 -1.5849 -1.5785
  441MOL0     H58164   1.270   4.988   5.634  1.7715 -1.7302 -0.0061
  441MOL0     H58165   1.324   5.242   5.484 -0.4612 -0.8936 -0.6392
  441MOL0     H58166   1.210   5.490   5.429 -2.3157 -2.1234 -4.1567
  441MOL0     H58167   1.076   5.554   5.517  0.6886  0.9636 -2.9493
  441MOL0     H58168   1.094   5.297   5.354 -1.1986 -0.8340 -0.3408
  441MOL0     H58169   1.015   5.444   5.303  0.4294 -2.3731 -2.1107
  441MOL0     H58170   0.929   5.236   5.521  2.6027 -1.9802 -1.4312
  441MOL0     H58171   0.863   5.400   5.515 -0.1861 -0.6015  1.2020
  441MOL0     H58172   0.854   5.197   5.294  2.2660  1.3855 -0.8284
  441MOL0     H58173   0.789   5.365   5.277 -0.7327  2.1770  2.1439
  441MOL0     H58174   0.471   5.314   5.508 -0.4049  0.5230  0.4968
  441MOL0     H58175   0.238   5.245   5.433 -2.0977 -3.5141 -1.2497
  441MOL0     H58176  -0.033   5.138   5.046 -1.1306 -0.4498 -1.2222
  441MOL0     H58177  -0.245   5.173   4.989  0.7481  2.0261 -0.2504
  441MOL0     H58178  -0.509   5.111   5.344 -0.5661 -0.3358  0.2897
  441MOL0     H58179  -0.586   5.070   5.192 -0.2126 -0.1022 -0.1169
  441MOL0     H58180  -0.638   5.345   5.317  1.1106  1.1175 -2.0407
  441MOL0     H58181  -0.729   5.194   5.350  0.4212 -1.8915 -1.8866
  441MOL0     H58182  -0.794   5.165   5.113 -0.6589  0.7137 -1.1643
  441MOL0     H58183  -0.699   5.311   5.073  1.8047 -2.8267  0.3528
  441MOL0     H58184  -0.933   5.303   5.267  1.4919 -2.4853  0.2284
  441MOL0     H58185  -0.831   5.449   5.221 -1.8036 -0.0062  0.8406
  441MOL0     H58186  -1.015   5.287   5.038 -0.8218  0.5178  0.5136
  441MOL0     H58187  -0.900   5.406   4.985 -0.0797 -0.8931 -2.0199
  441MOL0     H58188  -1.007   5.578   5.141 -1.0824  0.2024  0.8632
  441MOL0     H58189  -1.117   5.457   5.190  3.6133 -0.8716  2.0925
  441MOL0     H58190  -1.109   5.514   4.895 -1.4305 -0.3497 -1.3812
  441MOL0     H58191  -1.251   5.467   4.992  0.5883 -0.4710 -1.6263
  441MOL0     H58192  -1.126   5.741   4.991  1.3946 -1.9338 -0.2658
  441MOL0     H58193  -1.249   5.697   5.104  0.0720 -1.3426  0.0511
  441MOL0     H58194  -0.344   5.225   5.408  0.6219  3.0018 -0.3874
  441MOL0     H58195  -0.111   5.157   5.465 -1.7841  1.4134  0.2544
  441MOL0     H58196   0.400   5.094   5.077 -0.3719 -0.9420  1.3558
  441MOL0     H58197   0.632   5.139   5.163 -2.7492 -5.2857 -0.9893
  441MOL0     H58198   2.326   5.633   5.791  0.0947  0.9249 -0.5256
  441MOL0     H58199   2.549   5.682   5.693 -1.4838  1.9605  1.7118
  441MOL0     H58200   2.987   5.629   5.634  1.8187  1.2996 -0.2327
  441MOL0     H58201   3.191   5.691   5.559  0.9349 -1.9812 -1.2037
  441MOL0     H58202   3.197   5.961   5.227  0.9230  1.5991 -0.3256
  441MOL0     H58203   3.266   5.816   5.143  1.2302  0.1349  0.7100
  441MOL0     H58204   3.482   5.858   5.259  0.1827 -1.0714 -1.5257
  441MOL0     H58205   3.437   5.997   5.163 -1.5648  1.2061  0.6730
  441MOL0     H58206   3.376   5.989   5.456 -1.5428  0.2220 -0.2950
  441MOL0     H58207   3.339   6.129   5.344 -1.8372 -2.7458 -1.9103
  441MOL0     H58208   3.547   6.178   5.466 -1.5579  0.3012  0.6957
  441MOL0     H58209   3.586   6.015   5.452 -1.3818 -0.6675 -0.0441
  441MOL0     H58210   3.757   6.198   5.103  2.1232 -1.7497  1.8344
  441MOL0     H58211   3.038   5.793   5.168 -3.8120 -2.6884 -2.4104
  441MOL0     H58212   2.818   5.676   5.245  2.5884  0.9679 -3.1925
  442MOL0     O58213   9.525   1.170   8.158  0.5737 -0.2698  0.0944
  442MOL0     C58214   9.564   1.074   8.092 -1.2844 -0.9615 -0.1454
  442MOL0     O58215   9.491   0.997   8.012 -0.5648 -0.7115 -0.2525
  442MOL0     C58216   9.390   1.069   7.944 -0.8065  0.4816 -0.0091
  442MOL0     C58217   9.414   1.123   7.815 -1.2431 -0.8139  0.2537
  442MOL0     C58218   9.310   1.190   7.752 -0.3456 -1.0736 -0.1075
  442MOL0     C58219   9.188   1.220   7.810  0.6725  0.4446 -0.4545
  442MOL0     O58220   9.102   1.292   7.730 -0.1431  0.0385  0.1542
  442MOL0     C58221   9.003   1.367   7.800  0.6359 -0.3793 -0.3666
  442MOL0     C58222   8.896   1.424   7.712  0.3912 -0.8902 -0.3816
  442MOL0     C58223   8.964   1.524   7.615  0.0174  0.3122 -0.0381
  442MOL0     C58224   8.862   1.600   7.528 -0.6359  0.4375  0.5524
  442MOL0     C58225   8.805   1.527   7.413 -0.5500 -0.2991  0.4610
  442MOL0     C58226   8.717   1.610   7.316 -0.7134  0.0691  0.1219
  442MOL0     C58227   8.805   1.707   7.228  0.7624  0.2462 -0.4256
  442MOL0     C58228   8.721   1.764   7.109  0.1715  0.1367 -0.1628
  442MOL0     N58229   8.808   1.846   7.020  0.0671  0.7783 -0.6606
  442MOL0     C58230   8.900   1.942   7.063  0.7057  0.6853 -0.4571
  442MOL0     C58231   8.955   1.979   6.951 -0.4630  0.1764  0.5191
  442MOL0     C58232   9.056   2.089   6.928 -0.8209 -0.1181 -0.6546
  442MOL0     C58233   9.027   2.219   6.996  0.5414  0.1487 -0.3554
  442MOL0     C58234   9.149   2.312   6.972 -0.3759  0.7795  0.7833
  442MOL0     C58235   9.160   2.431   7.068 -0.3622  0.8599 -0.2021
  442MOL0     O58236   9.259   2.518   7.007 -0.1056  0.2517 -0.5243
  442MOL0     C58237   9.386   2.510   7.042 -0.4380  0.1807 -0.7810
  442MOL0     C58238   9.477   2.603   6.982  0.1112 -0.5103 -0.0078
  442MOL0     C58239   9.608   2.595   6.995 -0.2545  0.5354  0.5394
  442MOL0     C58240   9.674   2.491   7.071  0.8574 -0.7746  0.3264
  442MOL0     C58241   9.815   2.495   7.098  0.1650  0.4942  0.4164
  442MOL0     O58242   9.866   2.412   7.198 -0.1639 -0.0364 -0.8252
  442MOL0     C58243  10.000   2.417   7.237 -0.6418 -0.5508 -0.0140
  442MOL0     C58244  10.071   2.537   7.270 -0.4041 -0.0372 -0.7863
  442MOL0     C58245  10.210   2.531   7.294 -0.4431 -0.1179 -0.3923
  442MOL0     C58246  10.286   2.410   7.290  0.8274 -0.0142 -0.0251
  442MOL0     O58247  10.420   2.395   7.319 -0.8354 -0.4504 -0.5238
  442MOL0     C58248  10.497   2.502   7.358 -0.0190  0.0472 -0.4090
  442MOL0     C58249  10.644   2.467   7.348  0.1978 -0.2093 -0.7823
  442MOL0     C58250  10.683   2.444   7.203 -0.6441 -1.3421 -0.9707
  442MOL0     C58251  10.830   2.403   7.185 -0.0076  0.1280 -0.9050
  442MOL0     C58252  10.893   2.372   7.041 -0.0163 -0.8404  0.0945
  442MOL0     C58253  11.028   2.304   7.050 -0.4897 -0.3198  0.1829
  442MOL0     C58254  11.071   2.248   6.913  0.6953 -0.6041 -1.0704
  442MOL0     C58255  11.194   2.170   6.930 -0.0570  0.8109  1.6002
  442MOL0    Cl58256  11.280   2.162   6.774 -0.0208 -0.2793  0.0896
  442MOL0     C58257  10.214   2.294   7.260 -0.1183 -0.5835  0.3492
  442MOL0     C58258  10.082   2.307   7.223  0.7713  0.6140  0.4664
  442MOL0     O58259   9.880   2.573   7.032  0.0758 -0.7498 -0.1293
  442MOL0     C58260   9.583   2.404   7.141  0.1485 -0.8487 -0.1744
  442MOL0     C58261   9.444   2.416   7.127  0.2124 -0.7915 -0.8410
  442MOL0     N58262   8.914   1.904   6.842  0.6924 -0.5516  0.1038
  442MOL0     N58263   8.815   1.832   6.885  0.2007  0.5410  0.4407
  442MOL0     C58264   9.166   1.177   7.937 -0.1456  1.1276  0.7514
  442MOL0     C58265   9.266   1.096   7.997 -1.0579 -0.8257 -0.1787
  442MOL0     C58266   9.692   1.020   8.147 -0.0067  0.6052  0.2655
  442MOL0     C58267   9.723   0.891   8.110  0.2791  0.1203 -0.0994
  442MOL0     C58268   9.841   0.838   8.151 -1.3689 -0.5622  0.3044
  442MOL0     C58269   9.944   0.910   8.218 -0.4838 -0.1011 -0.3256
  442MOL0     O58270  10.062   0.845   8.235 -0.8743 -0.2583  0.4545
  442MOL0     C58271  10.182   0.917   8.265 -0.1571 -0.0415  0.0922
  442MOL0     C58272  10.300   0.825   8.249 -0.9374 -0.3970 -0.6851
  442MOL0     C58273  10.441   0.897   8.273 -0.0926 -0.8287 -0.3598
  442MOL0     C58274  10.549   0.783   8.271 -0.7235 -0.6773 -0.5158
  442MOL0     C58275  10.681   0.838   8.294 -0.7896  0.5354 -0.3965
  442MOL0     C58276  10.798   0.877   8.299  0.0819 -1.2087 -0.1677
  442MOL0     C58277   9.907   1.043   8.249 -0.6951  0.1260  0.5653
  442MOL0     C58278   9.779   1.091   8.228 -0.7679 -1.3763 -0.1036
  442MOL0     H58279   9.506   1.103   7.761 -1.6008  0.1433 -0.7507
  442MOL0     H58280   9.344   1.237   7.660 -1.9569 -0.3548 -0.3569
  442MOL0     H58281   9.041   1.451   7.859 -1.6358  0.1155  0.5313
  442MOL0     H58282   8.945   1.307   7.871 -1.3455  1.4468 -0.3291
  442MOL0     H58283   8.828   1.479   7.777  1.0745 -1.4111  0.8111
  442MOL0     H58284   8.840   1.343   7.663 -0.0798 -1.4484  1.0243
  442MOL0     H58285   9.033   1.469   7.550 -0.2819  1.2547 -1.1630
  442MOL0     H58286   9.018   1.603   7.668 -1.8657  0.1615  2.2705
  442MOL0     H58287   8.774   1.630   7.586 -0.6769  1.0335  0.1980
  442MOL0     H58288   8.906   1.692   7.486 -2.1324  1.5835  1.3920
  442MOL0     H58289   8.743   1.445   7.449 -1.0179 -0.4299 -0.6028
  442MOL0     H58290   8.893   1.486   7.363 -0.1219  0.0337  0.9333
  442MOL0     H58291   8.650   1.666   7.382 -2.0244  0.7774 -1.7029
  442MOL0     H58292   8.653   1.539   7.263  0.5501 -2.4886  1.8482
  442MOL0     H58293   8.836   1.789   7.293  0.0157  0.9089 -0.8857
  442MOL0     H58294   8.891   1.649   7.193  0.0142 -1.3937  0.3612
  442MOL0     H58295   8.634   1.826   7.135 -1.4200 -2.1336  0.1549
  442MOL0     H58296   8.670   1.686   7.053 -0.4749 -0.7312  1.5611
  442MOL0     H58297   8.895   1.998   7.156  0.1630  1.4344 -0.9252
  442MOL0     H58298   9.058   2.119   6.823 -4.4896  0.2114 -0.7678
  442MOL0     H58299   9.152   2.051   6.965 -0.2691  0.2073 -1.7075
  442MOL0     H58300   9.022   2.223   7.105 -0.3447  2.0710 -0.4345
  442MOL0     H58301   8.931   2.264   6.970  0.5263  0.2013 -0.2068
  442MOL0     H58302   9.243   2.257   6.977 -1.5917 -1.4557  0.6219
  442MOL0     H58303   9.147   2.339   6.866 -1.1153  1.8518  1.0451
  442MOL0     H58304   9.191   2.389   7.164  1.1386 -1.0579 -1.4508
  442MOL0     H58305   9.067   2.486   7.089  0.0396  2.7426 -2.8748
  442MOL0     H58306   9.429   2.684   6.927  0.3555  0.2967  0.9310
  442MOL0     H58307   9.661   2.669   6.935 -0.1186 -1.3327 -1.7767
  442MOL0     H58308  10.022   2.630   7.296  0.9435  0.2991  0.7002
  442MOL0     H58309  10.247   2.627   7.330  1.1111 -0.9887  0.4536
  442MOL0     H58310  10.475   2.528   7.462  3.1659  0.2546  0.3237
  442MOL0     H58311  10.471   2.590   7.298 -1.1595 -1.3007 -1.9900
  442MOL0     H58312  10.672   2.385   7.415 -0.2790  0.3206  0.0878
  442MOL0     H58313  10.716   2.543   7.379 -0.3049  0.1945 -0.5966
  442MOL0     H58314  10.675   2.536   7.143 -2.1547 -2.0180 -1.8799
  442MOL0     H58315  10.612   2.371   7.164 -4.1596  1.1849  0.2027
  442MOL0     H58316  10.879   2.495   7.222 -0.4203  0.1486 -0.3927
  442MOL0     H58317  10.837   2.314   7.248 -2.3300  1.9214  2.2132
  442MOL0     H58318  10.913   2.474   7.004  0.3492 -0.8209  0.3401
  442MOL0     H58319  10.816   2.322   6.982 -1.0203  1.8286 -1.0339
  442MOL0     H58320  11.014   2.221   7.120  0.0778  0.4609  1.2431
  442MOL0     H58321  11.103   2.365   7.101 -0.8663 -0.2079  0.6048
  442MOL0     H58322  10.998   2.175   6.878 -2.0281 -1.0225  4.4390
  442MOL0     H58323  11.076   2.339   6.852  1.0874 -0.3505 -0.6690
  442MOL0     H58324  11.177   2.067   6.964  1.2436 -0.8161 -2.0721
  442MOL0     H58325  11.261   2.212   7.005  2.2625  5.0488 -2.3217
  442MOL0     H58326  10.252   2.194   7.241 -0.3016 -1.4389  3.8330
  442MOL0     H58327  10.037   2.221   7.174 -2.7711  2.0768  0.8617
  442MOL0     H58328   9.624   2.341   7.220  1.4714 -0.6569 -0.6825
  442MOL0     H58329   9.392   2.339   7.184  0.1164 -1.6001 -1.9812
  442MOL0     H58330   9.072   1.195   7.989 -1.2435  0.8358 -1.0672
  442MOL0     H58331   9.250   1.039   8.088  1.0546 -0.5857  0.3979
  442MOL0     H58332   9.663   0.821   8.053 -1.3231  0.2597  1.3561
  442MOL0     H58333   9.866   0.737   8.122  2.5129 -0.2584  2.0097
  442MOL0     H58334  10.188   0.953   8.368  3.6708  0.6300 -0.2466
  442MOL0     H58335  10.183   1.003   8.197  0.0635 -2.0882 -2.6914
  442MOL0     H58336  10.295   0.749   8.328 -1.3089  1.1011  0.8019
  442MOL0     H58337  10.304   0.776   8.152  1.5403 -0.4158 -0.6510
  442MOL0     H58338  10.443   0.950   8.368  0.8485  2.1116 -1.9098
  442MOL0     H58339  10.458   0.967   8.191 -0.3152  0.1555  0.4226
  442MOL0     H58340  10.527   0.718   8.356 -0.2704 -0.0355  0.1024
  442MOL0     H58341  10.561   0.725   8.179 -4.4522 -2.4717 -0.0644
  442MOL0     H58342  10.900   0.904   8.318 -0.5132  2.0798 -1.0068
  442MOL0     H58343   9.983   1.110   8.287  0.6736 -1.1052  0.0924
  442MOL0     H58344   9.756   1.190   8.267 -1.1031 -1.7255  0.6038
  443MOL0     O58345   2.424   5.011   6.379  0.3795  0.8852  0.2263
  443MOL0     C58346   2.429   5.135   6.364 -0.6202  1.1764  0.0976
  443MOL0     O58347   2.325   5.222   6.404 -0.3766 -0.4079  0.2712
  443MOL0     C58348   2.224   5.163   6.469 -0.4453 -0.0296  0.8631
  443MOL0     C58349   2.108   5.135   6.389  0.6571  0.6395  0.4820
  443MOL0     C58350   1.998   5.068   6.452 -0.2057  0.0816 -0.0574
  443MOL0     C58351   2.000   5.032   6.586  0.1830  0.0351  0.1313
  443MOL0     O58352   1.891   4.991   6.652  0.2017  0.0161 -0.3286
  443MOL0     C58353   1.830   4.862   6.613  0.0511 -0.1418 -0.1361
  443MOL0     C58354   1.687   4.842   6.666 -0.9200 -0.0763 -0.3615
  443MOL0     C58355   1.593   4.962   6.642 -0.2410 -0.4786  0.5406
  443MOL0     C58356   1.442   4.945   6.677  0.6934  0.3808 -0.0504
  443MOL0     C58357   1.377   4.812   6.619 -0.1114 -0.0204  0.0814
  443MOL0     C58358   1.395   4.786   6.470 -0.8144 -0.6186 -0.5759
  443MOL0     C58359   1.355   4.647   6.430  0.1693  0.3965 -0.4921
  443MOL0     C58360   1.383   4.629   6.277  1.0625 -0.4586 -0.3357
  443MOL0     N58361   1.368   4.492   6.235 -0.1834 -0.6177  0.8957
  443MOL0     C58362   1.468   4.429   6.166  0.1285  0.6662 -0.9281
  443MOL0     C58363   1.404   4.315   6.133 -0.6266  0.2454 -0.4472
  443MOL0     C58364   1.461   4.193   6.064 -0.5120  0.3308 -0.1949
  443MOL0     C58365   1.609   4.177   6.080 -0.5607  0.0491 -1.1318
  443MOL0     C58366   1.659   4.035   6.030  0.2353 -0.3965  0.0881
  443MOL0     C58367   1.803   4.005   6.072 -0.2584  0.6818  0.4374
  443MOL0     O58368   1.875   4.127   6.077  0.5372 -0.6788 -0.5132
  443MOL0     C58369   2.013   4.128   6.072  0.2213 -0.5542 -0.8706
  443MOL0     C58370   2.091   4.022   6.112  0.8330 -0.0450  0.3381
  443MOL0     C58371   2.232   4.024   6.123  0.2369 -0.4366 -0.8251
  443MOL0     C58372   2.294   4.147   6.083  1.1239  0.8412 -0.3719
  443MOL0     C58373   2.443   4.148   6.077 -0.6712  0.2428  0.4489
  443MOL0     O58374   2.501   4.245   5.993 -0.5426 -0.2441 -0.1560
  443MOL0     C58375   2.643   4.237   5.983  0.4007 -1.1787  0.2829
  443MOL0     C58376   2.729   4.319   6.058 -0.4399 -0.5642  1.2312
  443MOL0     C58377   2.870   4.327   6.040  0.5653 -0.3606  0.8684
  443MOL0     C58378   2.919   4.239   5.937 -0.4188  0.2809  0.1227
  443MOL0     O58379   3.052   4.248   5.907 -0.2386 -0.2261 -0.3808
  443MOL0     C58380   3.108   4.154   5.807 -0.6050  0.7275 -0.3856
  443MOL0     C58381   3.255   4.185   5.798 -0.9815 -1.2071 -0.1382
  443MOL0     C58382   3.293   4.273   5.682  0.3897 -0.4918 -0.3496
  443MOL0     C58383   3.440   4.307   5.675  0.1042 -1.0069 -0.2742
  443MOL0     C58384   3.460   4.406   5.558 -0.4443  0.3931  0.8615
  443MOL0     C58385   3.606   4.425   5.512 -0.3757 -0.1456  0.0225
  443MOL0     C58386   3.650   4.308   5.424  0.3424  0.1782  1.7700
  443MOL0     C58387   3.797   4.320   5.376  0.5931  0.6376 -0.5169
  443MOL0    Cl58388   3.836   4.192   5.263 -0.4064  0.1809 -0.0564
  443MOL0     C58389   2.831   4.150   5.870 -0.6042 -0.6561  0.0773
  443MOL0     C58390   2.699   4.135   5.900  0.1521 -0.5571  0.0091
  443MOL0     O58391   2.498   4.066   6.149 -0.1849 -0.5839 -0.6306
  443MOL0     C58392   2.216   4.256   6.044  0.7783  0.5431  0.4792
  443MOL0     C58393   2.074   4.243   6.031 -0.9820 -0.1991 -1.1664
  443MOL0     N58394   1.280   4.306   6.173 -0.5767 -0.6756  0.0694
  443MOL0     N58395   1.257   4.418   6.234  0.1827 -0.2294  0.8419
  443MOL0     C58396   2.103   5.081   6.660 -0.5717  0.4945 -0.7587
  443MOL0     C58397   2.221   5.139   6.604  0.3680 -0.3360 -0.0318
  443MOL0     C58398   2.553   5.197   6.318  0.2704  0.0535 -0.5140
  443MOL0     C58399   2.668   5.122   6.294 -0.4439  0.3067 -0.5106
  443MOL0     C58400   2.791   5.183   6.262  0.1106  0.5385  0.4977
  443MOL0     C58401   2.794   5.318   6.230 -0.2287  0.5208  0.5623
  443MOL0     O58402   2.914   5.380   6.209 -0.3166 -0.3091 -0.3209
  443MOL0     C58403   2.922   5.435   6.080  0.0749 -0.1252  0.3474
  443MOL0     C58404   3.035   5.540   6.075  0.8949  0.3188  0.3281
  443MOL0     C58405   3.033   5.589   5.929  0.1808  0.8584 -0.2749
  443MOL0     C58406   3.110   5.722   5.891 -0.5873  0.5761 -0.2746
  443MOL0     C58407   3.251   5.682   5.931  0.0460 -0.0947 -0.7110
  443MOL0     C58408   3.360   5.642   5.966 -0.8647  0.2776  0.7849
  443MOL0     C58409   2.679   5.392   6.252  0.7877 -0.3862  0.5586
  443MOL0     C58410   2.562   5.338   6.295  0.3312 -0.2151 -0.3882
  443MOL0     H58411   2.105   5.158   6.284 -1.2878 -3.1669 -0.5030
  443MOL0     H58412   1.908   5.062   6.390  1.4732  2.2454 -2.9917
  443MOL0     H58413   1.883   4.771   6.641 -0.7490  0.1580  2.6392
  443MOL0     H58414   1.809   4.875   6.506 -2.6470  3.1761  0.6274
  443MOL0     H58415   1.696   4.818   6.772  1.7957  1.6022 -0.1412
  443MOL0     H58416   1.644   4.750   6.624  4.8255 -4.1112  1.3514
  443MOL0     H58417   1.605   4.994   6.538  0.0629 -0.3410  0.6149
  443MOL0     H58418   1.639   5.047   6.693  0.3144  0.3378 -1.2308
  443MOL0     H58419   1.434   4.964   6.785  1.4403  0.6602 -0.0384
  443MOL0     H58420   1.384   5.025   6.633 -1.8714 -0.6396  1.2801
  443MOL0     H58421   1.271   4.810   6.646 -0.3160  1.8655 -0.3899
  443MOL0     H58422   1.407   4.722   6.673 -1.5667 -0.8732 -0.4812
  443MOL0     H58423   1.496   4.808   6.433 -1.1897  0.6437 -0.9299
  443MOL0     H58424   1.328   4.853   6.414  1.3238  1.0664 -1.2620
  443MOL0     H58425   1.411   4.575   6.491 -0.2335 -0.6807 -1.3538
  443MOL0     H58426   1.250   4.630   6.451  0.6492  1.3841  3.3277
  443MOL0     H58427   1.487   4.656   6.260  1.4097 -0.6490  1.2692
  443MOL0     H58428   1.309   4.695   6.230 -0.5966 -1.1262  1.1717
  443MOL0     H58429   1.570   4.465   6.156  0.1567  0.1173 -3.1004
  443MOL0     H58430   1.444   4.178   5.957  3.3933  3.2834 -1.4786
  443MOL0     H58431   1.406   4.107   6.103  3.0665 -1.3040  1.7355
  443MOL0     H58432   1.647   4.190   6.182  0.4639 -0.0617 -1.4824
  443MOL0     H58433   1.665   4.250   6.022  2.4659 -1.8648 -0.8782
  443MOL0     H58434   1.590   3.960   6.069  0.7425 -2.1946 -2.2403
  443MOL0     H58435   1.648   4.020   5.922 -2.1485 -0.4220  0.2887
  443MOL0     H58436   1.843   3.936   5.997  0.9457  1.9691 -0.1633
  443MOL0     H58437   1.804   3.967   6.174  0.1429  0.0402  0.2043
  443MOL0     H58438   2.037   3.942   6.160 -1.5548  1.2964  0.0270
  443MOL0     H58439   2.276   3.934   6.166  0.7185 -0.2697 -0.9741
  443MOL0     H58440   2.687   4.383   6.135 -2.3554  0.0114 -0.2086
  443MOL0     H58441   2.942   4.384   6.097 -0.3838  0.5062  1.2272
  443MOL0     H58442   3.052   4.173   5.715 -0.3577 -1.4584 -1.0497
  443MOL0     H58443   3.084   4.050   5.835 -0.3432  0.6048 -0.6134
  443MOL0     H58444   3.309   4.091   5.785 -1.6388 -1.1692 -5.5123
  443MOL0     H58445   3.284   4.230   5.893  1.1113 -2.9672  0.1388
  443MOL0     H58446   3.240   4.368   5.698  1.9160  0.1110  1.5551
  443MOL0     H58447   3.263   4.225   5.588  0.5107  0.9227 -1.1368
  443MOL0     H58448   3.475   4.352   5.768  4.2578  0.1986 -2.2120
  443MOL0     H58449   3.498   4.214   5.676  0.4641 -0.7834  0.8513
  443MOL0     H58450   3.422   4.505   5.585  2.8432  1.7356  1.0268
  443MOL0     H58451   3.405   4.379   5.467  2.2505  1.6637 -1.2697
  443MOL0     H58452   3.673   4.433   5.598  0.4039  1.8972 -0.7327
  443MOL0     H58453   3.611   4.520   5.459 -2.4439  0.0200  0.0475
  443MOL0     H58454   3.642   4.214   5.479 -0.7991 -0.4321  0.6384
  443MOL0     H58455   3.583   4.322   5.338  0.1990  0.1053  1.8680
  443MOL0     H58456   3.865   4.310   5.461 -0.4730 -1.2292  0.1723
  443MOL0     H58457   3.807   4.418   5.327  2.5473  1.2638  1.0257
  443MOL0     H58458   2.861   4.079   5.794  2.1498 -0.4239  0.8656
  443MOL0     H58459   2.628   4.067   5.855 -1.6664  0.8551  0.6243
  443MOL0     H58460   2.260   4.350   6.013  0.3225  1.3171  2.0970
  443MOL0     H58461   2.018   4.332   6.005 -0.2830  1.0200  1.2012
  443MOL0     H58462   2.092   5.064   6.767  1.3287 -1.4589 -0.8120
  443MOL0     H58463   2.303   5.163   6.671 -0.2754  1.0229  0.2978
  443MOL0     H58464   2.664   5.014   6.305 -0.7952  0.3216 -0.4787
  443MOL0     H58465   2.875   5.115   6.270 -0.2720  0.1988  2.1993
  443MOL0     H58466   2.832   5.496   6.066  0.1717  0.1781  1.0629
  443MOL0     H58467   2.918   5.356   6.004  1.4544 -1.4199  1.5607
  443MOL0     H58468   2.997   5.615   6.145  3.9892  0.9598  1.4962
  443MOL0     H58469   3.123   5.488   6.115 -0.3821 -3.5757 -1.4198
  443MOL0     H58470   2.930   5.599   5.895 -0.3326 -1.1832  0.5158
  443MOL0     H58471   3.079   5.506   5.873 -2.7246 -0.7808 -0.4230
  443MOL0     H58472   3.107   5.738   5.783  0.4337 -1.6544 -0.6925
  443MOL0     H58473   3.074   5.808   5.948 -1.0339  0.8968 -1.0289
  443MOL0     H58474   3.448   5.588   5.993 -0.7480  0.8131  1.5212
  443MOL0     H58475   2.681   5.501   6.248 -2.2174  0.0242  4.2444
  443MOL0     H58476   2.480   5.409   6.302 -0.3185 -1.0169  0.3645
  444MOL0     O58477   7.276  10.846   3.871 -0.3841 -0.6998  0.3647
  444MOL0     C58478   7.312  10.952   3.920  0.2632  0.1559 -0.4273
  444MOL0     O58479   7.236  11.039   3.984  0.1239 -0.5647 -0.6112
  444MOL0     C58480   7.105  11.017   4.029 -0.0167 -0.3564  0.4367
  444MOL0     C58481   7.046  10.888   4.038  0.5880 -0.4836 -0.2954
  444MOL0     C58482   6.909  10.882   4.085 -0.0612 -0.4362 -0.6197
  444MOL0     C58483   6.831  10.997   4.122 -0.2937  1.0117  0.2224
  444MOL0     O58484   6.700  10.983   4.156 -0.5316  0.7609 -0.2311
  444MOL0     C58485   6.606  11.073   4.092 -0.7884 -0.6223 -0.2843
  444MOL0     C58486   6.490  10.997   4.010 -0.2261  0.4447  0.2653
  444MOL0     C58487   6.419  10.889   4.093 -0.0328  0.6367  0.2018
  444MOL0     C58488   6.295  10.838   4.015 -0.6915  0.0668 -0.4965
  444MOL0     C58489   6.219  10.730   4.097 -0.2501  0.1694 -0.3114
  444MOL0     C58490   6.144  10.641   3.995  0.0588  0.2385  0.3777
  444MOL0     C58491   6.073  10.522   4.046  0.1399  0.3616  0.4026
  444MOL0     C58492   5.995  10.542   4.181 -0.1898  0.1428 -0.4110
  444MOL0     N58493   5.933  10.417   4.237  0.1102  0.0173 -0.6361
  444MOL0     C58494   5.977  10.353   4.353 -0.1396 -0.0197  0.1735
  444MOL0     C58495   5.874  10.275   4.401  0.3974 -0.3773 -0.7171
  444MOL0     C58496   5.869  10.202   4.536 -0.1334 -0.2091  0.4396
  444MOL0     C58497   5.751  10.252   4.620 -0.0864 -0.8354 -0.7227
  444MOL0     C58498   5.762  10.195   4.765 -0.3511 -0.1227 -0.1000
  444MOL0     C58499   5.623  10.219   4.830 -0.3864 -0.3354 -0.4002
  444MOL0     O58500   5.593  10.104   4.911  0.6995 -0.6606 -0.5579
  444MOL0     C58501   5.465  10.059   4.928  0.0607  1.0778 -0.6928
  444MOL0     C58502   5.352  10.133   4.894 -0.2854 -0.6412  0.3994
  444MOL0     C58503   5.224  10.085   4.911  0.3611 -0.5583 -0.1103
  444MOL0     C58504   5.212   9.950   4.964 -0.3334  0.3962  0.2449
  444MOL0     C58505   5.092   9.868   4.954  0.0640 -0.7023  0.7164
  444MOL0     O58506   5.111   9.739   4.966 -0.5165 -0.1592  0.7851
  444MOL0     C58507   5.001   9.660   4.958 -0.1008 -0.0776 -0.3726
  444MOL0     C58508   4.992   9.576   5.068  0.5891  1.1621 -0.0696
  444MOL0     C58509   4.886   9.480   5.089  0.0808  0.0137  0.1339
  444MOL0     C58510   4.795   9.468   4.984 -0.7354  1.0072  0.7860
  444MOL0     O58511   4.707   9.360   5.001 -0.3073  1.0069  0.2062
  444MOL0     C58512   4.568   9.372   4.962  0.0791 -0.2737 -0.2341
  444MOL0     C58513   4.533   9.226   4.943  0.4309 -0.4764  0.5797
  444MOL0     C58514   4.415   9.215   4.846 -0.1664  0.0794 -0.2051
  444MOL0     C58515   4.418   9.075   4.782 -0.7801 -1.2419  0.2268
  444MOL0     C58516   4.298   9.057   4.686 -0.1358  0.7768  0.9410
  444MOL0     C58517   4.280   8.903   4.656  0.3144  0.0739 -0.2645
  444MOL0     C58518   4.131   8.862   4.624  0.1435 -0.2457 -0.7775
  444MOL0     C58519   4.122   8.709   4.609  1.0833 -0.3671 -0.5046
  444MOL0    Cl58520   4.206   8.646   4.460  0.3755 -0.1627  0.0992
  444MOL0     C58521   4.805   9.548   4.871 -0.1019  0.6653  0.1048
  444MOL0     C58522   4.899   9.655   4.860 -0.5369 -0.7090 -0.6561
  444MOL0     O58523   4.983   9.931   4.945 -0.1523 -0.8901  0.5252
  444MOL0     C58524   5.328   9.885   5.002  0.4400  0.7172 -0.4047
  444MOL0     C58525   5.458   9.931   4.989  0.5511  0.3083 -0.3538
  444MOL0     N58526   5.776  10.293   4.302 -0.5016  0.8187  0.2988
  444MOL0     N58527   5.813  10.377   4.210  0.6532  0.6753  0.4632
  444MOL0     C58528   6.897  11.117   4.111 -0.4403 -0.8210  0.0186
  444MOL0     C58529   7.025  11.131   4.066  1.0335  0.5236 -0.2069
  444MOL0     C58530   7.461  10.990   3.919  0.5466  0.5028  0.6754
  444MOL0     C58531   7.550  10.887   3.920 -0.1554  0.0405 -0.4477
  444MOL0     C58532   7.688  10.915   3.910  0.5361 -0.7309 -0.6191
  444MOL0     C58533   7.744  11.037   3.927  0.5231 -0.9714 -0.3890
  444MOL0     O58534   7.881  11.051   3.907  1.2534  1.1277  0.9891
  444MOL0     C58535   7.930  11.178   3.937 -0.3976 -0.6658 -0.0639
  444MOL0     C58536   8.089  11.194   3.950  0.6328 -0.6123 -0.3572
  444MOL0     C58537   8.164  11.219   3.823  0.2115  0.3302  0.5263
  444MOL0     C58538   8.323  11.208   3.853  0.5831  0.5601  0.2950
  444MOL0     C58539   8.394  11.294   3.763 -1.0117 -0.7813 -0.4364
  444MOL0     C58540   8.441  11.375   3.694  0.2324 -0.2285 -0.5399
  444MOL0     C58541   7.643  11.147   3.937 -0.7711  0.7178 -0.8213
  444MOL0     C58542   7.506  11.121   3.926 -0.0902  0.1594  0.8464
  444MOL0     H58543   7.108  10.798   4.035 -0.0233 -1.2878  3.9001
  444MOL0     H58544   6.864  10.789   4.120 -1.4276  1.0622  1.9752
  444MOL0     H58545   6.661  11.151   4.038  0.6948 -1.3247  0.1384
  444MOL0     H58546   6.552  11.129   4.169  0.9195  1.9586 -0.8412
  444MOL0     H58547   6.529  10.936   3.927  0.5192 -0.4872  1.2597
  444MOL0     H58548   6.415  11.073   3.989 -1.2168 -0.1105  1.6418
  444MOL0     H58549   6.385  10.927   4.190 -1.8731 -0.7743  0.1573
  444MOL0     H58550   6.487  10.809   4.123  1.2414  0.8451 -1.9370
  444MOL0     H58551   6.241  10.929   3.989  0.6011  0.1189 -3.4833
  444MOL0     H58552   6.329  10.790   3.922  3.1175  0.2136  0.6375
  444MOL0     H58553   6.149  10.778   4.166  1.1521  2.6507 -0.4855
  444MOL0     H58554   6.291  10.683   4.164  1.0362 -0.7205 -2.2292
  444MOL0     H58555   6.211  10.619   3.911 -0.5105 -2.0439  0.4593
  444MOL0     H58556   6.061  10.705   3.964  0.5749  1.2819  1.0998
  444MOL0     H58557   5.994  10.484   3.981 -2.0665  0.9647  2.5456
  444MOL0     H58558   6.144  10.442   4.067 -1.3706 -1.1435  0.0004
  444MOL0     H58559   5.927  10.627   4.166  0.9993  0.9236 -1.6974
  444MOL0     H58560   6.068  10.578   4.254 -1.1769  0.7960  0.2796
  444MOL0     H58561   6.071  10.355   4.407 -2.3279  0.2232  4.4219
  444MOL0     H58562   5.966  10.228   4.580 -1.1340  1.7331  1.6003
  444MOL0     H58563   5.854  10.094   4.522 -0.4205 -0.3725  1.8793
  444MOL0     H58564   5.658  10.221   4.571  0.8837 -2.0886 -1.8471
  444MOL0     H58565   5.754  10.361   4.620  0.3614 -0.6916  3.2879
  444MOL0     H58566   5.779  10.087   4.759 -2.9330 -0.6200  0.3973
  444MOL0     H58567   5.840  10.244   4.824  0.5454 -1.4508 -0.1432
  444MOL0     H58568   5.541  10.232   4.758  2.0087 -2.6985 -3.9279
  444MOL0     H58569   5.627  10.305   4.897  0.0873 -0.4562 -0.2728
  444MOL0     H58570   5.360  10.237   4.863 -1.5526 -0.5307  0.3968
  444MOL0     H58571   5.138  10.146   4.886  0.0276 -0.5594  1.0039
  444MOL0     H58572   5.076   9.573   5.137  1.4002 -1.9310 -1.0267
  444MOL0     H58573   4.891   9.403   5.165  4.3652 -0.3227 -0.2273
  444MOL0     H58574   4.549   9.434   4.873  0.3742  1.9699  1.1845
  444MOL0     H58575   4.521   9.420   5.048  0.4855 -1.3435  0.6042
  444MOL0     H58576   4.512   9.175   5.038 -0.0098 -0.2867  0.5852
  444MOL0     H58577   4.621   9.175   4.903 -0.8383 -1.7378 -0.7283
  444MOL0     H58578   4.422   9.290   4.766  1.0859 -0.0766 -0.2569
  444MOL0     H58579   4.316   9.221   4.892 -0.6283  0.4385 -1.2078
  444MOL0     H58580   4.505   9.035   4.730 -1.3155 -4.0111  1.3147
  444MOL0     H58581   4.403   9.010   4.868  0.9109 -0.8206  0.8744
  444MOL0     H58582   4.317   9.112   4.593 -0.3006 -1.3860 -0.4368
  444MOL0     H58583   4.206   9.095   4.731 -1.6932 -0.9731 -0.6025
  444MOL0     H58584   4.304   8.854   4.750 -0.6653  0.9555  0.4622
  444MOL0     H58585   4.343   8.878   4.569 -1.6162 -0.0816 -1.6871
  444MOL0     H58586   4.065   8.880   4.710  1.6278 -1.3843  0.6529
  444MOL0     H58587   4.101   8.910   4.530  0.6191  0.3511 -0.6318
  444MOL0     H58588   4.015   8.690   4.595  1.0595  1.0508 -2.5706
  444MOL0     H58589   4.161   8.672   4.705 -0.0864  4.0733  1.9665
  444MOL0     H58590   4.753   9.525   4.779 -0.5759 -0.4334  0.6278
  444MOL0     H58591   4.915   9.732   4.785 -0.0716  0.9097  1.0279
  444MOL0     H58592   5.325   9.782   5.038 -1.8345  0.2256 -1.8216
  444MOL0     H58593   5.545   9.875   5.024  0.9990 -0.6394 -2.7703
  444MOL0     H58594   6.833  11.202   4.130 -0.6285 -0.8007 -0.6619
  444MOL0     H58595   7.062  11.231   4.050  1.4287  0.5645  0.9106
  444MOL0     H58596   7.527  10.781   3.912  2.4167 -0.5912 -0.3565
  444MOL0     H58597   7.751  10.830   3.885 -2.2073 -3.8849  2.2171
  444MOL0     H58598   7.882  11.204   4.031  1.7359 -1.8366  1.4545
  444MOL0     H58599   7.892  11.252   3.866  2.2888  1.2480  0.3181
  444MOL0     H58600   8.128  11.273   4.016  1.3872  0.5469 -2.1227
  444MOL0     H58601   8.134  11.107   3.997  2.1099  0.1531 -0.3023
  444MOL0     H58602   8.134  11.318   3.787  1.6712  0.4972 -0.3362
  444MOL0     H58603   8.129  11.155   3.741 -1.5849  1.6498  0.2036
  444MOL0     H58604   8.332  11.242   3.956  0.1391  0.6060  0.3195
  444MOL0     H58605   8.356  11.104   3.848 -0.6149  0.1727  0.0502
  444MOL0     H58606   8.475  11.461   3.640 -5.6082  1.9086 -1.6218
  444MOL0     H58607   7.670  11.252   3.932 -1.2609  0.7884 -2.6112
  444MOL0     H58608   7.442  11.208   3.938 -2.0020 -0.7717 -1.8373
  445MOL0     O58609   8.244   7.145   6.188 -0.2362 -0.7499  0.2615
  445MOL0     C58610   8.210   7.157   6.301 -0.5774 -0.5332  0.0745
  445MOL0     O58611   8.084   7.183   6.336  0.1259  0.6768  0.7727
  445MOL0     C58612   7.990   7.175   6.233 -0.2003  0.1485 -0.2636
  445MOL0     C58613   7.963   7.054   6.173  0.0232  0.3024 -0.3953
  445MOL0     C58614   7.868   7.047   6.067  0.6018  0.4149  0.3281
  445MOL0     C58615   7.807   7.163   6.012 -0.6793  0.9257  1.0261
  445MOL0     O58616   7.718   7.143   5.910  0.3333 -0.2288  0.4304
  445MOL0     C58617   7.662   7.261   5.850  0.0847 -0.7815  0.2584
  445MOL0     C58618   7.573   7.231   5.736  0.0906 -0.0487  0.8417
  445MOL0     C58619   7.506   7.363   5.682 -1.0615  0.6929  1.1800
  445MOL0     C58620   7.410   7.326   5.562  0.3440 -0.7732 -0.7389
  445MOL0     C58621   7.382   7.451   5.482 -0.3054  0.0410 -0.2245
  445MOL0     C58622   7.298   7.561   5.559  0.8606  1.0773  0.7960
  445MOL0     C58623   7.267   7.684   5.469 -0.0125  0.1116  0.4260
  445MOL0     C58624   7.152   7.667   5.365  0.1183  0.0031 -0.1197
  445MOL0     N58625   7.026   7.611   5.419 -0.2593  0.1522  0.4191
  445MOL0     C58626   6.921   7.689   5.464 -0.1170  0.9469  0.2840
  445MOL0     C58627   6.828   7.604   5.516  0.6741 -0.9652 -0.0783
  445MOL0     C58628   6.693   7.633   5.561 -0.1023  0.3486  0.2298
  445MOL0     C58629   6.703   7.705   5.699  0.0899  0.7475  1.0149
  445MOL0     C58630   6.776   7.628   5.812  0.4621 -0.4986  0.2551
  445MOL0     C58631   6.794   7.707   5.938  0.9604 -0.1974 -0.9922
  445MOL0     O58632   6.907   7.795   5.914  0.9187 -0.0908  0.0028
  445MOL0     C58633   7.034   7.750   5.960  0.4936 -1.1294  0.8039
  445MOL0     C58634   7.137   7.847   5.917 -0.0730  0.2714 -0.3337
  445MOL0     C58635   7.278   7.813   5.945  0.7302  0.4205  0.7102
  445MOL0     C58636   7.315   7.693   6.010  0.1395 -0.4585 -0.9369
  445MOL0     C58637   7.464   7.667   6.037 -0.0235  0.4422  0.1197
  445MOL0     O58638   7.558   7.764   6.012 -0.5794  0.1308 -0.0463
  445MOL0     C58639   7.685   7.723   6.028 -0.0405 -0.8011 -0.0618
  445MOL0     C58640   7.731   7.630   5.932  0.4016 -0.0092  0.6486
  445MOL0     C58641   7.874   7.608   5.937  0.8758 -0.0400  0.1392
  445MOL0     C58642   7.960   7.641   6.043  0.3921  0.5702  0.6787
  445MOL0     O58643   8.104   7.611   6.051  1.1504 -0.2097 -0.1096
  445MOL0     C58644   8.138   7.497   5.979 -1.0168 -0.2786 -0.0213
  445MOL0     C58645   8.197   7.554   5.846 -0.4628 -0.3350  0.4134
  445MOL0     C58646   8.260   7.442   5.764 -0.7488  0.2406  0.3669
  445MOL0     C58647   8.254   7.475   5.616 -0.2972 -0.2774  0.1448
  445MOL0     C58648   8.339   7.380   5.524  0.0208 -0.3094 -0.6011
  445MOL0     C58649   8.490   7.411   5.542  0.0366 -0.1692  0.3796
  445MOL0     C58650   8.573   7.354   5.423  0.4836 -0.3817 -1.0857
  445MOL0     C58651   8.538   7.407   5.277  0.4648 -0.9583  0.7132
  445MOL0    Cl58652   8.556   7.579   5.247 -0.2548 -0.0420  0.4072
  445MOL0     C58653   7.902   7.715   6.143 -0.0477 -0.7841 -0.5642
  445MOL0     C58654   7.773   7.767   6.133  0.4286  0.2900  0.1010
  445MOL0     O58655   7.488   7.554   6.074 -0.8957  0.0840  0.6664
  445MOL0     C58656   7.213   7.600   6.048  0.7784 -0.8579  0.0515
  445MOL0     C58657   7.078   7.634   6.022  0.1144 -0.2804 -0.3858
  445MOL0     N58658   6.871   7.471   5.503  0.0947 -0.9354 -0.9071
  445MOL0     N58659   6.994   7.480   5.464 -0.3081  0.8077 -0.1911
  445MOL0     C58660   7.838   7.281   6.079 -0.0634 -0.5508 -0.3442
  445MOL0     C58661   7.921   7.291   6.191  0.5538 -0.1285 -0.4681
  445MOL0     C58662   8.312   7.139   6.413  0.7800 -0.0942 -0.3280
  445MOL0     C58663   8.451   7.129   6.395 -0.2406 -0.2059  0.5237
  445MOL0     C58664   8.536   7.122   6.504  0.2742  0.4763  0.5308
  445MOL0     C58665   8.490   7.078   6.631  0.2023  0.4832 -1.1196
  445MOL0     O58666   8.563   7.030   6.733  0.2387 -0.2999  0.1126
  445MOL0     C58667   8.711   7.048   6.727  0.3703 -0.1354  0.1336
  445MOL0     C58668   8.764   7.043   6.868  0.2490 -0.1900 -1.1671
  445MOL0     C58669   8.719   7.170   6.943  0.2631  0.0987  0.0292
  445MOL0     C58670   8.576   7.181   6.991  0.0457  0.6061  0.4865
  445MOL0     C58671   8.538   7.315   7.043  0.4479  0.4918  0.4512
  445MOL0     C58672   8.481   7.490   7.107  1.1958 -0.1666  0.3876
  445MOL0     C58673   8.352   7.069   6.647 -0.2649  0.1933 -0.9494
  445MOL0     C58674   8.266   7.099   6.545  0.2079 -0.2872 -0.1639
  445MOL0     H58675   8.019   6.968   6.206 -0.3002  0.2810  0.1194
  445MOL0     H58676   7.840   6.949   6.030 -1.1776  1.4941 -1.4018
  445MOL0     H58677   7.753   7.315   5.824 -0.1670  0.2009  1.3708
  445MOL0     H58678   7.597   7.312   5.922  1.0307  0.0220  0.5516
  445MOL0     H58679   7.494   7.163   5.765 -0.0724  0.6056  1.9766
  445MOL0     H58680   7.628   7.183   5.654  0.2788 -1.3550  1.7193
  445MOL0     H58681   7.580   7.425   5.630  0.1021 -1.0264  0.7095
  445MOL0     H58682   7.453   7.421   5.758 -0.5375 -0.4719  2.4550
  445MOL0     H58683   7.445   7.247   5.495 -2.4660 -1.6576 -1.3035
  445MOL0     H58684   7.315   7.293   5.604 -0.3319  0.7927 -0.9817
  445MOL0     H58685   7.328   7.423   5.392  0.7883  3.0031 -1.9582
  445MOL0     H58686   7.471   7.498   5.438 -0.1528 -2.2661 -2.6042
  445MOL0     H58687   7.352   7.593   5.649  0.1397  0.0424  1.6330
  445MOL0     H58688   7.203   7.513   5.587 -0.0372  1.5680 -1.2644
  445MOL0     H58689   7.229   7.763   5.535 -1.0806  1.3245 -1.5374
  445MOL0     H58690   7.360   7.718   5.423 -1.0318 -1.4289 -3.1135
  445MOL0     H58691   7.194   7.607   5.285  1.4988 -0.2198  0.7344
  445MOL0     H58692   7.129   7.764   5.321  0.2215  0.9321  1.7693
  445MOL0     H58693   6.918   7.797   5.451 -2.5401  0.8169 -0.7919
  445MOL0     H58694   6.631   7.543   5.569  0.9657 -0.4699 -0.4371
  445MOL0     H58695   6.644   7.697   5.487  0.2920  0.5903  0.1792
  445MOL0     H58696   6.598   7.721   5.726 -0.6956  3.2547 -2.6665
  445MOL0     H58697   6.747   7.803   5.676 -0.5705  0.7905 -0.1433
  445MOL0     H58698   6.719   7.537   5.834 -1.9497  0.6144 -0.9543
  445MOL0     H58699   6.874   7.588   5.783  1.3920  2.5477 -1.1980
  445MOL0     H58700   6.813   7.652   6.030 -2.1446 -0.4965 -0.4187
  445MOL0     H58701   6.703   7.768   5.948  1.2006 -0.1093  1.0082
  445MOL0     H58702   7.111   7.937   5.863 -0.8114 -0.0901 -0.6101
  445MOL0     H58703   7.344   7.894   5.916 -0.0970  0.8797  0.0469
  445MOL0     H58704   7.671   7.599   5.847  2.9157 -3.4899 -0.1161
  445MOL0     H58705   7.920   7.546   5.861 -0.2165  0.5575 -1.0453
  445MOL0     H58706   8.051   7.430   5.973 -3.3911  2.5521  0.2300
  445MOL0     H58707   8.222   7.445   6.027 -1.0601 -0.3921 -0.0677
  445MOL0     H58708   8.269   7.630   5.876  0.2618 -1.0250  0.4576
  445MOL0     H58709   8.117   7.599   5.787 -0.0138 -1.5106 -1.1543
  445MOL0     H58710   8.215   7.345   5.785  4.1290 -3.0347 -2.4281
  445MOL0     H58711   8.367   7.433   5.780 -0.7323 -1.1795 -0.3420
  445MOL0     H58712   8.149   7.469   5.586 -1.0029  0.2329  2.3125
  445MOL0     H58713   8.281   7.580   5.606 -1.5262 -0.0165 -0.6323
  445MOL0     H58714   8.307   7.411   5.424  0.4882  3.2552  0.2020
  445MOL0     H58715   8.321   7.273   5.534  0.1516 -0.2196  0.8261
  445MOL0     H58716   8.529   7.379   5.639  1.2569  1.6566  0.5426
  445MOL0     H58717   8.494   7.521   5.539  2.6092 -0.2171 -1.1589
  445MOL0     H58718   8.680   7.371   5.438  0.3234 -0.9027  0.8781
  445MOL0     H58719   8.558   7.246   5.425 -1.7598 -0.1130 -0.4618
  445MOL0     H58720   8.431   7.386   5.266 -0.3683  2.3282  1.5704
  445MOL0     H58721   8.584   7.342   5.202  3.1478  1.9652 -0.3843
  445MOL0     H58722   7.964   7.728   6.231  0.2762  2.3206 -1.1556
  445MOL0     H58723   7.726   7.829   6.208 -4.6309  1.5250 -3.6023
  445MOL0     H58724   7.237   7.506   6.098  0.9417 -1.5405 -1.2825
  445MOL0     H58725   6.998   7.568   6.055 -0.0690  0.2203  0.2084
  445MOL0     H58726   7.784   7.369   6.046  0.3996  0.3888  1.2453
  445MOL0     H58727   7.942   7.384   6.243  0.1438 -0.2398 -0.0885
  445MOL0     H58728   8.496   7.150   6.298 -1.6564  2.4989  0.3449
  445MOL0     H58729   8.640   7.139   6.477 -0.2346 -1.3157 -3.2895
  445MOL0     H58730   8.734   7.145   6.680  0.6289  0.2774  1.0977
  445MOL0     H58731   8.748   6.963   6.670 -2.3725  0.8566 -3.5556
  445MOL0     H58732   8.724   6.958   6.924  0.7317 -0.3912 -1.1213
  445MOL0     H58733   8.870   7.018   6.856 -0.5696 -4.8744 -0.5088
  445MOL0     H58734   8.735   7.255   6.875 -0.0742 -0.8145 -1.2453
  445MOL0     H58735   8.783   7.173   7.032  0.2601 -1.6071  0.1160
  445MOL0     H58736   8.498   7.153   6.920  0.1047  0.5143  0.4579
  445MOL0     H58737   8.569   7.112   7.077  0.7345 -0.1152 -0.0230
  445MOL0     H58738   8.434   7.575   7.152  1.0556  1.3198 -2.3485
  445MOL0     H58739   8.312   7.041   6.744  0.9543  1.4668 -0.0386
  445MOL0     H58740   8.159   7.087   6.559  0.5206 -2.7714  0.5158
  446MOL0     O58741   8.583  10.032   3.409 -0.0818  0.1521 -0.0156
  446MOL0     C58742   8.571  10.036   3.287 -0.2369  0.4708  1.3421
  446MOL0     O58743   8.459  10.004   3.215 -0.5026 -0.7466 -0.3107
  446MOL0     C58744   8.338  10.010   3.279  0.3039  0.6557 -0.2957
  446MOL0     C58745   8.254   9.901   3.260  0.2704  0.3414  0.4195
  446MOL0     C58746   8.131   9.899   3.318  0.5694  0.5702 -0.8435
  446MOL0     C58747   8.098  10.008   3.406  0.2345 -0.2211 -0.0107
  446MOL0     O58748   7.978  10.014   3.469 -0.6786  0.3717 -0.0652
  446MOL0     C58749   7.890   9.896   3.469  1.4780 -0.8428 -0.6721
  446MOL0     C58750   7.767   9.918   3.563 -0.6593 -0.4953 -0.0761
  446MOL0     C58751   7.818   9.965   3.712  0.5029  0.3258  0.8081
  446MOL0     C58752   7.697   9.981   3.811  0.5839  0.2502 -0.8076
  446MOL0     C58753   7.604   9.864   3.825 -0.6053  0.1558 -0.6377
  446MOL0     C58754   7.490   9.877   3.936  0.0051 -0.3506  0.5550
  446MOL0     C58755   7.397   9.751   3.940 -0.0573 -0.5186 -0.0917
  446MOL0     C58756   7.295   9.716   3.820 -0.0069 -0.0224 -0.3424
  446MOL0     N58757   7.186   9.815   3.813  0.2979  1.0295 -0.4919
  446MOL0     C58758   7.090   9.839   3.912 -0.1317  0.8262 -0.6183
  446MOL0     C58759   7.007   9.941   3.870 -0.4054  0.8473 -0.5541
  446MOL0     C58760   6.890   9.990   3.952  0.1305  0.5886 -0.2987
  446MOL0     C58761   6.760   9.908   3.914  0.2998  0.6266  0.3587
  446MOL0     C58762   6.706   9.951   3.777 -0.6439 -1.0282 -0.1779
  446MOL0     C58763   6.627  10.089   3.780 -0.2280  0.2691 -0.1106
  446MOL0     O58764   6.524  10.098   3.883 -0.0927 -0.4579  0.0530
  446MOL0     C58765   6.416  10.018   3.851  0.2465 -0.9953 -0.0019
  446MOL0     C58766   6.402   9.896   3.910 -0.8053  0.3797  0.4601
  446MOL0     C58767   6.306   9.806   3.872 -0.3562 -0.1658  0.9395
  446MOL0     C58768   6.196   9.858   3.791 -1.5766 -0.6822 -0.2658
  446MOL0     C58769   6.077   9.768   3.763  0.0460 -0.2017  0.5785
  446MOL0     O58770   6.064   9.649   3.829 -0.8414  0.2597  0.3925
  446MOL0     C58771   5.958   9.571   3.799 -0.5471 -0.2343 -0.2395
  446MOL0     C58772   5.976   9.470   3.700  0.1357 -0.3198  0.8937
  446MOL0     C58773   5.880   9.371   3.682  0.2186  0.2283  0.7984
  446MOL0     C58774   5.770   9.358   3.767 -0.4133 -0.3839 -0.2560
  446MOL0     O58775   5.679   9.259   3.749 -0.2655  0.7654 -0.0263
  446MOL0     C58776   5.741   9.131   3.755  0.8855 -0.8928  0.0382
  446MOL0     C58777   5.614   9.043   3.771 -0.5986  1.7689  0.2054
  446MOL0     C58778   5.648   8.896   3.811  0.6084 -0.1630  0.0980
  446MOL0     C58779   5.524   8.810   3.807 -0.1721 -0.4003  0.3481
  446MOL0     C58780   5.479   8.786   3.661  0.3316 -0.4118  0.2914
  446MOL0     C58781   5.430   8.645   3.633 -0.7426  0.0101 -0.2286
  446MOL0     C58782   5.313   8.598   3.718 -0.1583 -0.5400  0.0407
  446MOL0     C58783   5.238   8.475   3.663  0.0050  0.3446 -0.5420
  446MOL0    Cl58784   5.368   8.350   3.643  0.1418  0.2237  0.1170
  446MOL0     C58785   5.741   9.461   3.865 -0.1644  0.0738  0.0376
  446MOL0     C58786   5.833   9.569   3.875 -0.2759  0.2315  0.3657
  446MOL0     O58787   6.015   9.804   3.661  0.2561 -0.5461 -0.1491
  446MOL0     C58788   6.206   9.987   3.737  0.0984 -0.2396  0.3962
  446MOL0     C58789   6.307  10.068   3.769 -0.6619 -0.0064  0.3504
  446MOL0     N58790   7.049   9.970   3.741 -0.1483  0.4531  0.2559
  446MOL0     N58791   7.156   9.897   3.713  0.7920 -0.2735  0.1046
  446MOL0     C58792   8.175  10.125   3.418  0.7941 -0.0377 -1.0859
  446MOL0     C58793   8.301  10.124   3.360  0.5442  0.1248  0.3149
  446MOL0     C58794   8.695  10.058   3.199 -0.1484 -0.1019 -0.0322
  446MOL0     C58795   8.689  10.040   3.059  0.3419 -0.3700 -0.3627
  446MOL0     C58796   8.795  10.073   2.973  0.6409 -0.5723  0.4273
  446MOL0     C58797   8.912  10.120   3.032 -0.0494  0.1012 -0.4125
  446MOL0     O58798   9.025  10.147   2.955  0.3199 -0.2070  0.0884
  446MOL0     C58799   9.145  10.204   3.005 -0.0887  0.2840  0.4981
  446MOL0     C58800   9.132  10.349   3.036 -0.5681  0.0229 -0.0158
  446MOL0     C58801   9.261  10.422   3.069  0.4001 -0.2705  0.4818
  446MOL0     C58802   9.334  10.464   2.947  0.6277 -0.0330  0.3116
  446MOL0     C58803   9.449  10.550   2.980  0.0508 -1.0781  0.5545
  446MOL0     C58804   9.547  10.623   3.003 -0.2678  0.1525  0.4399
  446MOL0     C58805   8.925  10.121   3.177  0.0531  0.0058  0.1163
  446MOL0     C58806   8.812  10.097   3.265 -0.2970 -0.0787  0.0931
  446MOL0     H58807   8.281   9.827   3.185  2.1591  1.4498 -0.0393
  446MOL0     H58808   8.058   9.819   3.307  0.1100  1.0679 -1.5047
  446MOL0     H58809   7.938   9.805   3.507 -4.1853 -3.5688  1.0974
  446MOL0     H58810   7.848   9.871   3.371 -1.0060 -4.2187  1.0308
  446MOL0     H58811   7.703   9.830   3.571 -1.1615 -0.0346  1.2479
  446MOL0     H58812   7.706  10.000   3.524  0.5395 -0.3372 -1.7338
  446MOL0     H58813   7.862  10.063   3.690 -0.2735  0.4259 -0.3572
  446MOL0     H58814   7.885   9.890   3.754 -1.4295 -0.0955  3.4335
  446MOL0     H58815   7.719  10.005   3.916 -0.7180  0.4684 -0.5562
  446MOL0     H58816   7.628  10.060   3.779  0.3750 -0.2965 -1.7525
  446MOL0     H58817   7.665   9.775   3.840  0.2726  0.8882  0.2750
  446MOL0     H58818   7.552   9.857   3.729  1.8288  1.4403 -2.1539
  446MOL0     H58819   7.430   9.968   3.926 -2.4320 -1.8845  0.2198
  446MOL0     H58820   7.546   9.900   4.027  0.9071  3.6305 -0.8150
  446MOL0     H58821   7.468   9.668   3.951  1.2065  0.5224 -0.0541
  446MOL0     H58822   7.337   9.770   4.030 -0.5347  2.9185 -0.9808
  446MOL0     H58823   7.252   9.617   3.836  0.5616  0.0540  2.1295
  446MOL0     H58824   7.357   9.722   3.730 -3.2901  0.0385 -2.7509
  446MOL0     H58825   7.085   9.792   4.010  1.9501 -0.6765 -1.1705
  446MOL0     H58826   6.879  10.092   3.914  2.4628  0.3658 -1.7873
  446MOL0     H58827   6.912  10.003   4.058  1.1850  0.9686 -0.5481
  446MOL0     H58828   6.687   9.930   3.991 -0.5266  4.7666 -1.3248
  446MOL0     H58829   6.785   9.804   3.890  0.4154  1.4228 -3.9376
  446MOL0     H58830   6.781   9.959   3.698 -0.6150 -3.3378 -0.4527
  446MOL0     H58831   6.631   9.878   3.745 -1.1491 -0.3020 -0.6850
  446MOL0     H58832   6.573  10.127   3.692  0.5001  2.7683  0.4219
  446MOL0     H58833   6.695  10.170   3.808 -0.5639 -0.6045  3.6736
  446MOL0     H58834   6.489   9.856   3.961 -1.5077 -1.8295  0.0317
  446MOL0     H58835   6.304   9.705   3.912 -1.5901 -0.2230  0.7943
  446MOL0     H58836   6.061   9.460   3.633 -0.1135 -2.8297  0.8724
  446MOL0     H58837   5.896   9.303   3.598  0.2042  1.2373 -0.0461
  446MOL0     H58838   5.796   9.120   3.848 -1.2660 -3.0210  1.1864
  446MOL0     H58839   5.790   9.126   3.657  0.2632  2.6611 -0.5745
  446MOL0     H58840   5.575   9.043   3.669  1.1713  2.8701 -0.5126
  446MOL0     H58841   5.542   9.090   3.840 -1.1394  0.7960  0.3167
  446MOL0     H58842   5.689   8.903   3.912  1.3192  0.6086 -0.2334
  446MOL0     H58843   5.726   8.853   3.747  0.6265 -0.4637  0.3244
  446MOL0     H58844   5.539   8.713   3.855 -4.1991 -0.6760  1.4468
  446MOL0     H58845   5.444   8.867   3.855  0.3815 -0.4029  1.3014
  446MOL0     H58846   5.554   8.819   3.588 -3.2002 -0.1469 -3.6293
  446MOL0     H58847   5.397   8.855   3.640 -1.2584 -2.8891 -2.4330
  446MOL0     H58848   5.519   8.581   3.640 -0.5957  0.2211 -0.1453
  446MOL0     H58849   5.389   8.630   3.532 -3.4784  0.0695  0.7991
  446MOL0     H58850   5.341   8.571   3.820 -0.9841 -0.6696  0.2459
  446MOL0     H58851   5.239   8.679   3.719  0.9863  0.6790 -3.0859
  446MOL0     H58852   5.179   8.501   3.575 -1.3771 -0.0321  0.2488
  446MOL0     H58853   5.163   8.440   3.735 -1.1560  1.8061 -1.0047
  446MOL0     H58854   5.654   9.456   3.928  1.0422  1.7546  1.9319
  446MOL0     H58855   5.838   9.642   3.955 -1.3593 -1.3432  1.9410
  446MOL0     H58856   6.127  10.036   3.682  1.6846  1.9295 -0.0510
  446MOL0     H58857   6.309  10.169   3.728 -2.7699  0.3727  1.0620
  446MOL0     H58858   8.142  10.198   3.491 -0.6605 -1.0674 -0.6578
  446MOL0     H58859   8.365  10.211   3.372 -0.0528  0.5676  0.3504
  446MOL0     H58860   8.599   9.990   3.023  0.6875 -0.8236 -0.6015
  446MOL0     H58861   8.799  10.046   2.868 -1.9869 -3.4932  0.9567
  446MOL0     H58862   9.220  10.185   2.928 -0.7657 -0.1781 -0.0588
  446MOL0     H58863   9.191  10.145   3.085 -2.4628  1.5683  2.9871
  446MOL0     H58864   9.102  10.410   2.950 -1.6751  1.4075  1.2826
  446MOL0     H58865   9.069  10.367   3.124  0.2951  2.3321  0.2129
  446MOL0     H58866   9.329  10.368   3.136 -1.3604 -2.7557  0.4225
  446MOL0     H58867   9.233  10.517   3.114  0.5376  0.1549 -0.3123
  446MOL0     H58868   9.373  10.378   2.891  2.0875  1.7297 -1.5211
  446MOL0     H58869   9.262  10.524   2.891  0.6465 -1.0662 -0.8737
  446MOL0     H58870   9.635  10.684   3.008 -1.4906  2.0002  0.5178
  446MOL0     H58871   9.021  10.154   3.214 -0.2557  2.5573 -1.1864
  446MOL0     H58872   8.823  10.103   3.372  2.8522  2.4317 -0.1944
  447MOL0     O58873   5.722   1.680   7.248  0.0124  0.5254  0.0811
  447MOL0     C58874   5.754   1.745   7.347  0.4596  0.2674  0.1690
  447MOL0     O58875   5.677   1.838   7.411  0.1681  0.1342 -0.2219
  447MOL0     C58876   5.541   1.844   7.384  0.4314 -0.0975  0.6312
  447MOL0     C58877   5.448   1.807   7.482 -0.8080  0.1072 -0.5277
  447MOL0     C58878   5.311   1.833   7.458 -0.1591 -1.0164  0.4852
  447MOL0     C58879   5.271   1.892   7.337  0.4043  0.1811 -1.1036
  447MOL0     O58880   5.137   1.917   7.320  0.2358  0.5778  0.0884
  447MOL0     C58881   5.075   1.854   7.203 -0.3469 -0.0440  0.3168
  447MOL0     C58882   4.923   1.874   7.195  0.4671  0.2342  0.8747
  447MOL0     C58883   4.840   1.780   7.287 -0.5253 -0.3359  0.3525
  447MOL0     C58884   4.834   1.836   7.428  0.0400 -0.3736  0.2311
  447MOL0     C58885   4.759   1.746   7.524 -0.5345 -0.3836 -0.6041
  447MOL0     C58886   4.618   1.693   7.472 -0.3208  0.2926 -0.3109
  447MOL0     C58887   4.573   1.588   7.575  0.1610  0.9050 -0.0582
  447MOL0     C58888   4.437   1.529   7.528  0.2281 -0.6557 -0.1477
  447MOL0     N58889   4.333   1.630   7.540 -0.3988  0.1775  0.0877
  447MOL0     C58890   4.291   1.705   7.643  0.8629 -0.9457  0.3730
  447MOL0     C58891   4.193   1.784   7.593  0.6370 -1.3722  0.2784
  447MOL0     C58892   4.120   1.880   7.681 -0.1450 -0.0193 -0.3816
  447MOL0     C58893   4.017   1.793   7.766  0.5660  0.3691 -0.1621
  447MOL0     C58894   3.901   1.886   7.822 -0.1208  0.0261 -0.3252
  447MOL0     C58895   3.791   1.805   7.880 -0.1085  0.2355  0.7333
  447MOL0     O58896   3.728   1.709   7.794  0.3924  0.0335  0.0223
  447MOL0     C58897   3.613   1.643   7.824  0.0186 -0.3807  0.0165
  447MOL0     C58898   3.563   1.646   7.954  0.0293  0.2939 -0.0208
  447MOL0     C58899   3.450   1.567   7.979  0.1017 -1.0234 -0.2075
  447MOL0     C58900   3.389   1.490   7.884  0.0292  0.2505  0.5450
  447MOL0     C58901   3.255   1.420   7.900  0.5749  0.0389 -0.3200
  447MOL0     O58902   3.214   1.328   7.810 -0.3473 -1.0185  0.7110
  447MOL0     C58903   3.100   1.259   7.800 -0.4695 -0.0613 -0.1537
  447MOL0     C58904   3.025   1.216   7.909  0.6184  0.7084 -0.9875
  447MOL0     C58905   2.898   1.160   7.886  0.1010  0.9096 -0.4722
  447MOL0     C58906   2.846   1.153   7.758  0.4627 -0.2563 -0.7824
  447MOL0     O58907   2.719   1.101   7.755  0.6442  0.2125  0.8331
  447MOL0     C58908   2.669   1.057   7.632  0.1531  0.2716 -0.3499
  447MOL0     C58909   2.576   1.163   7.563 -0.3843 -0.4461  0.3747
  447MOL0     C58910   2.445   1.183   7.636 -0.3710  0.0882  1.3600
  447MOL0     C58911   2.363   1.302   7.575 -0.8707  0.0666 -1.3016
  447MOL0     C58912   2.223   1.287   7.626  0.4764 -0.4983 -0.3701
  447MOL0     C58913   2.126   1.403   7.596 -0.1970  0.0169  0.1553
  447MOL0     C58914   1.983   1.370   7.646 -0.3573  0.6166  0.6062
  447MOL0     C58915   1.910   1.497   7.691  0.0925  0.0564  0.3907
  447MOL0    Cl58916   1.738   1.475   7.721  0.0467  0.1134 -0.0544
  447MOL0     C58917   2.916   1.202   7.652 -0.6300  1.1846  0.3766
  447MOL0     C58918   3.039   1.252   7.671  0.2877 -0.2729 -0.1207
  447MOL0     O58919   3.186   1.457   7.997 -0.2110 -0.8070  0.1112
  447MOL0     C58920   3.441   1.492   7.757  0.0420 -0.1978  0.1354
  447MOL0     C58921   3.553   1.568   7.732 -0.5548  0.0170  0.2381
  447MOL0     N58922   4.175   1.761   7.465  1.0398  0.2685 -0.1055
  447MOL0     N58923   4.272   1.681   7.434 -0.2693  0.1863 -0.1475
  447MOL0     C58924   5.364   1.934   7.249 -0.6847  0.5406  0.3709
  447MOL0     C58925   5.497   1.906   7.269  0.3956  0.3049  0.0955
  447MOL0     C58926   5.891   1.740   7.400 -0.6390  0.6789  0.7892
  447MOL0     C58927   5.929   1.793   7.526 -0.5720  0.8803  0.3248
  447MOL0     C58928   6.057   1.791   7.568  0.1538  0.4591 -0.3403
  447MOL0     C58929   6.165   1.722   7.499  0.1390  0.0001 -0.2666
  447MOL0     O58930   6.296   1.716   7.552 -0.0051 -0.3712  0.4027
  447MOL0     C58931   6.395   1.649   7.474  0.0776  0.4401 -0.2949
  447MOL0     C58932   6.527   1.643   7.548  0.7362  0.2604  1.8069
  447MOL0     C58933   6.638   1.563   7.477 -0.0315 -0.0103 -0.9482
  447MOL0     C58934   6.774   1.575   7.551  0.4174 -0.2569 -0.0427
  447MOL0     C58935   6.871   1.503   7.472  0.1336  0.0757  0.5532
  447MOL0     C58936   6.965   1.457   7.409 -0.0847 -0.7088  0.0325
  447MOL0     C58937   6.123   1.650   7.389  0.5919 -0.1633 -0.3207
  447MOL0     C58938   5.996   1.670   7.338  0.2134 -0.7844 -0.7377
  447MOL0     H58939   5.492   1.787   7.579  2.6394  0.6480 -1.8488
  447MOL0     H58940   5.250   1.803   7.542  0.1992  0.1710  1.2011
  447MOL0     H58941   5.092   1.746   7.202  1.0871  0.1140  2.1124
  447MOL0     H58942   5.113   1.895   7.110 -2.4500 -0.5538 -0.8287
  447MOL0     H58943   4.893   1.849   7.093  1.2179 -1.9485  1.1391
  447MOL0     H58944   4.903   1.981   7.204  0.9969  0.5143 -0.8219
  447MOL0     H58945   4.880   1.679   7.279 -2.6913 -1.1233 -1.7865
  447MOL0     H58946   4.735   1.786   7.258  0.1481  5.1103 -2.3171
  447MOL0     H58947   4.940   1.840   7.455 -0.5126 -0.3530  2.6109
  447MOL0     H58948   4.802   1.940   7.428  1.0886 -0.0354  0.7704
  447MOL0     H58949   4.747   1.796   7.621 -0.2076 -2.0241  0.3140
  447MOL0     H58950   4.823   1.665   7.558  0.6521  0.8849  0.3106
  447MOL0     H58951   4.632   1.640   7.378  1.1302 -0.4126  0.2677
  447MOL0     H58952   4.550   1.777   7.460  2.0366  2.0335 -2.8469
  447MOL0     H58953   4.659   1.520   7.585  0.7795  1.8267  1.4004
  447MOL0     H58954   4.563   1.632   7.675  0.3857  1.3523 -0.2279
  447MOL0     H58955   4.405   1.442   7.585 -1.0088 -3.5332 -4.7175
  447MOL0     H58956   4.442   1.484   7.429  1.0618 -1.4351  0.2275
  447MOL0     H58957   4.320   1.693   7.747 -0.4984 -0.7615  0.7872
  447MOL0     H58958   4.063   1.956   7.627  0.1229  0.6884  0.3154
  447MOL0     H58959   4.183   1.942   7.746  0.4018  0.8420 -1.6835
  447MOL0     H58960   4.080   1.749   7.844  1.1844 -2.2451 -1.9776
  447MOL0     H58961   3.973   1.714   7.704  2.2998 -0.9714  0.2055
  447MOL0     H58962   3.947   1.947   7.900 -0.6830  0.9642 -0.7231
  447MOL0     H58963   3.870   1.961   7.749  3.2699  2.2636  0.3041
  447MOL0     H58964   3.707   1.861   7.921 -2.0517 -2.5110  0.8105
  447MOL0     H58965   3.837   1.761   7.969  0.5212  1.1591  0.8699
  447MOL0     H58966   3.600   1.702   8.039 -1.0045 -0.4103  0.9188
  447MOL0     H58967   3.409   1.565   8.079  2.1975  1.6594  0.8412
  447MOL0     H58968   3.069   1.210   8.007 -3.7936  0.9864  1.2822
  447MOL0     H58969   2.837   1.107   7.957 -1.5419 -0.0688 -2.5034
  447MOL0     H58970   2.612   0.969   7.663 -2.8591  2.4872  0.8519
  447MOL0     H58971   2.747   1.011   7.571  3.0606  1.4026  2.2520
  447MOL0     H58972   2.556   1.129   7.461  0.9404  2.6169 -1.0349
  447MOL0     H58973   2.621   1.262   7.571 -0.6533 -0.3738  1.0397
  447MOL0     H58974   2.465   1.200   7.742 -0.6734  1.3651  1.2346
  447MOL0     H58975   2.373   1.101   7.630 -1.2311  0.9192 -0.9890
  447MOL0     H58976   2.408   1.395   7.611  1.0538 -2.3852  3.4670
  447MOL0     H58977   2.372   1.287   7.467 -0.0786 -2.9594 -0.9236
  447MOL0     H58978   2.226   1.273   7.734  1.1376 -1.0875 -0.4544
  447MOL0     H58979   2.172   1.204   7.577  2.5345 -1.2760 -1.3511
  447MOL0     H58980   2.112   1.427   7.490  0.7193  3.3506  0.6747
  447MOL0     H58981   2.164   1.493   7.646  2.3949 -1.2949  0.7226
  447MOL0     H58982   1.923   1.320   7.569 -0.8794 -0.9746  1.9894
  447MOL0     H58983   1.989   1.289   7.720 -1.4002 -2.9712 -2.8885
  447MOL0     H58984   1.910   1.574   7.613  1.2860 -1.5282 -1.2526
  447MOL0     H58985   1.956   1.534   7.783  1.4964 -0.6395  0.0023
  447MOL0     H58986   2.880   1.206   7.550 -1.8935 -2.1822  0.5388
  447MOL0     H58987   3.099   1.283   7.586  0.0444  1.5024  0.3232
  447MOL0     H58988   3.393   1.448   7.670  1.8009  0.8308 -1.4340
  447MOL0     H58989   3.584   1.581   7.629  1.4791 -2.8307  0.3746
  447MOL0     H58990   5.331   1.978   7.155  3.6546  2.1489 -0.6258
  447MOL0     H58991   5.569   1.938   7.194  3.0576 -0.9836  1.9445
  447MOL0     H58992   5.862   1.854   7.586 -1.8117  0.3998 -0.5149
  447MOL0     H58993   6.084   1.837   7.663  2.0749 -2.1350  0.4669
  447MOL0     H58994   6.410   1.702   7.380  2.0743  0.9575  0.2766
  447MOL0     H58995   6.361   1.550   7.440 -0.5871  1.9940 -4.9160
  447MOL0     H58996   6.567   1.743   7.567 -0.2023  1.3610 -1.3642
  447MOL0     H58997   6.495   1.593   7.641  0.2485  0.6310  1.8423
  447MOL0     H58998   6.647   1.593   7.373 -0.6855  0.2044 -0.9435
  447MOL0     H58999   6.617   1.455   7.480  0.4123 -0.0924  1.2697
  447MOL0     H59000   6.811   1.678   7.561  0.2251 -0.3205  1.5989
  447MOL0     H59001   6.771   1.538   7.654 -0.0655 -2.3896 -0.7906
  447MOL0     H59002   7.050   1.408   7.366  0.0469 -1.6866  1.3287
  447MOL0     H59003   6.186   1.593   7.322  0.4837 -2.9350  1.7623
  447MOL0     H59004   5.995   1.637   7.235  2.1640 -3.0028 -0.1461
  448MOL0     O59005   5.716   1.577   9.546  1.3213  0.5340  0.7997
  448MOL0     C59006   5.749   1.473   9.482 -0.9310 -0.0020 -0.3222
  448MOL0     O59007   5.676   1.355   9.472  0.4677  0.0991  0.8242
  448MOL0     C59008   5.560   1.352   9.547  0.0951  0.7101  0.2679
  448MOL0     C59009   5.540   1.310   9.680  0.3179  0.5378 -0.2660
  448MOL0     C59010   5.411   1.293   9.736 -1.1910  0.4403 -0.6742
  448MOL0     C59011   5.299   1.323   9.660  0.4184 -0.3104 -0.6486
  448MOL0     O59012   5.179   1.322   9.734 -0.2435 -0.9244  0.0446
  448MOL0     C59013   5.062   1.378   9.675 -0.0470  0.1436 -0.1237
  448MOL0     C59014   4.949   1.363   9.783 -0.1468  0.7547  0.7978
  448MOL0     C59015   4.824   1.443   9.749  0.2899 -0.0206 -0.2890
  448MOL0     C59016   4.708   1.377   9.829 -0.6705  0.1205 -0.5961
  448MOL0     C59017   4.582   1.441   9.800  0.4330 -0.0938 -0.5031
  448MOL0     C59018   4.462   1.377   9.864  0.3638  0.3655  0.3416
  448MOL0     C59019   4.332   1.443   9.828  1.0686 -0.5112  0.0573
  448MOL0     C59020   4.204   1.380   9.905 -0.4881 -0.1243 -0.5158
  448MOL0     N59021   4.215   1.403  10.054  0.0817  0.0731 -0.5485
  448MOL0     C59022   4.247   1.299  10.148  0.7736 -0.2880 -0.3974
  448MOL0     C59023   4.167   1.336  10.259  0.2608 -0.8328  0.7222
  448MOL0     C59024   4.149   1.263  10.383  0.6078  1.3632 -0.7434
  448MOL0     C59025   4.214   1.339  10.505  0.6717  1.0750 -0.0454
  448MOL0     C59026   4.269   1.247  10.615  1.0044  0.6580 -0.1203
  448MOL0     C59027   4.152   1.153  10.677  0.8808 -0.8709  0.1718
  448MOL0     O59028   4.061   1.245  10.736 -0.6149  0.6116  0.4617
  448MOL0     C59029   3.926   1.217  10.725 -0.8565 -0.9891 -0.0798
  448MOL0     C59030   3.866   1.095  10.705 -0.2272  0.0371 -0.6623
  448MOL0     C59031   3.724   1.079  10.708 -0.0193 -0.8651 -0.1333
  448MOL0     C59032   3.641   1.184  10.742  0.3373  0.0967 -0.2913
  448MOL0     C59033   3.500   1.162  10.771  0.1447 -0.2058 -0.1103
  448MOL0     O59034   3.444   1.036  10.749 -0.1995  0.1386 -0.3448
  448MOL0     C59035   3.308   1.035  10.746  0.4687 -0.5454  0.8529
  448MOL0     C59036   3.248   0.987  10.628 -0.2855 -0.4415  0.4955
  448MOL0     C59037   3.111   0.987  10.619 -1.1453 -0.3535  0.2524
  448MOL0     C59038   3.027   1.035  10.722  0.0441  0.4791 -0.1706
  448MOL0     O59039   2.890   1.039  10.698  0.1838 -0.5115  0.1174
  448MOL0     C59040   2.798   1.088  10.807  0.1398  0.5901 -0.1325
  448MOL0     C59041   2.813   1.240  10.833  0.1591  1.5245 -0.1580
  448MOL0     C59042   2.685   1.320  10.801 -0.2827 -0.2561 -0.2782
  448MOL0     C59043   2.650   1.308  10.653  0.0285  1.3606  0.4186
  448MOL0     C59044   2.518   1.371  10.610  0.5816 -0.4447 -0.2018
  448MOL0     C59045   2.516   1.522  10.621  0.1655 -1.1001  0.2318
  448MOL0     C59046   2.396   1.576  10.553  0.1210 -0.6071  0.4692
  448MOL0     C59047   2.255   1.502  10.577 -0.0287  0.2177 -0.2404
  448MOL0    Cl59048   2.238   1.332  10.508 -0.2056 -0.2475 -0.3236
  448MOL0     C59049   3.094   1.075  10.843  0.4343  0.7202  0.7666
  448MOL0     C59050   3.231   1.082  10.848  0.0800  0.7476  0.3973
  448MOL0     O59051   3.437   1.266  10.788  0.2653 -0.1420  0.5084
  448MOL0     C59052   3.705   1.308  10.758 -0.1844  0.3617  0.3568
  448MOL0     C59053   3.837   1.323  10.759  0.3712  0.8366  0.1157
  448MOL0     N59054   4.100   1.456  10.233 -0.1823 -0.0957 -0.3301
  448MOL0     N59055   4.126   1.493  10.109 -0.0666  0.6164 -0.5696
  448MOL0     C59056   5.320   1.369   9.528 -0.4393 -0.7370 -0.5750
  448MOL0     C59057   5.446   1.381   9.477  0.6372 -0.4545 -0.5234
  448MOL0     C59058   5.897   1.459   9.445  0.0650  0.2975 -0.3981
  448MOL0     C59059   5.954   1.343   9.383  0.1042  0.5354  0.2871
  448MOL0     C59060   6.088   1.330   9.345  0.5133 -0.1300 -0.2604
  448MOL0     C59061   6.166   1.448   9.357  0.5842  0.3891  0.4219
  448MOL0     O59062   6.303   1.448   9.328  0.3124  0.2928 -0.0423
  448MOL0     C59063   6.363   1.336   9.260  0.7468 -0.2688 -0.5866
  448MOL0     C59064   6.506   1.363   9.265  0.1346 -0.6618  0.0041
  448MOL0     C59065   6.592   1.241   9.238  0.6631 -0.0467  0.1367
  448MOL0     C59066   6.742   1.259   9.264  0.0374 -0.4686 -1.0705
  448MOL0     C59067   6.770   1.282   9.405  0.8516  0.5211  1.1215
  448MOL0     C59068   6.782   1.321   9.521 -0.1588  0.0781  0.1828
  448MOL0     C59069   6.109   1.559   9.411 -1.1445  0.5778  0.4911
  448MOL0     C59070   5.972   1.570   9.449  0.0306  0.2494  0.3490
  448MOL0     H59071   5.629   1.290   9.738  0.6625 -0.7157 -1.1874
  448MOL0     H59072   5.382   1.255   9.833 -2.8321 -0.0751 -1.3412
  448MOL0     H59073   5.036   1.325   9.583  1.9159  0.9933 -1.2181
  448MOL0     H59074   5.069   1.484   9.647 -1.5277  0.1726 -0.4885
  448MOL0     H59075   4.982   1.387   9.885  0.2537  2.2895  0.3243
  448MOL0     H59076   4.930   1.255   9.791  1.9367  0.4245  2.2617
  448MOL0     H59077   4.808   1.459   9.642  0.4000  0.7077 -0.2044
  448MOL0     H59078   4.835   1.547   9.781  0.8584 -0.0255 -0.4504
  448MOL0     H59079   4.704   1.279   9.781 -0.5379  1.0060 -2.4734
  448MOL0     H59080   4.735   1.368   9.935 -0.8917  4.8143  0.0412
  448MOL0     H59081   4.572   1.430   9.691 -0.9242  2.4457 -0.7178
  448MOL0     H59082   4.590   1.547   9.824 -0.4858 -0.8314  3.8303
  448MOL0     H59083   4.491   1.379   9.969  1.2509  0.5961  0.1038
  448MOL0     H59084   4.465   1.272   9.832  0.6711  0.3840  0.2982
  448MOL0     H59085   4.341   1.552   9.835  0.8585 -0.4507 -0.6056
  448MOL0     H59086   4.309   1.423   9.723  2.5899 -1.0717 -0.1879
  448MOL0     H59087   4.191   1.275   9.878  0.9888 -0.9515  1.7236
  448MOL0     H59088   4.115   1.437   9.876 -1.4309 -1.2434  0.0767
  448MOL0     H59089   4.303   1.207  10.136 -0.0394 -0.6350 -1.6812
  448MOL0     H59090   4.196   1.165  10.378 -0.1139  0.8094  1.6776
  448MOL0     H59091   4.045   1.244  10.413  2.2967 -1.6804  4.4742
  448MOL0     H59092   4.139   1.394  10.563 -0.5630  0.3437 -0.8877
  448MOL0     H59093   4.281   1.420  10.476 -1.8833  4.3159  2.3407
  448MOL0     H59094   4.353   1.190  10.574 -0.0437 -3.0022  2.2888
  448MOL0     H59095   4.312   1.304  10.697  1.1252 -2.0239  1.8225
  448MOL0     H59096   4.197   1.085  10.748  0.6458  0.3748  1.5608
  448MOL0     H59097   4.105   1.102  10.591  0.6671 -0.9637  0.3427
  448MOL0     H59098   3.931   1.009  10.694  2.2550  1.7808 -0.4117
  448MOL0     H59099   3.683   0.979  10.701 -0.2580 -0.8151  0.5017
  448MOL0     H59100   3.306   0.956  10.541  2.1944  3.2813  0.6180
  448MOL0     H59101   3.072   0.954  10.524  3.7433 -0.2548 -2.0618
  448MOL0     H59102   2.809   1.031  10.899  0.0758  0.2196 -0.3558
  448MOL0     H59103   2.696   1.064  10.778 -0.8278  1.7115  2.0775
  448MOL0     H59104   2.903   1.278  10.783  1.6350 -1.8121 -0.3127
  448MOL0     H59105   2.826   1.233  10.941  0.3669  0.3432 -0.2379
  448MOL0     H59106   2.700   1.424  10.829  0.5360  0.0797 -1.8111
  448MOL0     H59107   2.602   1.278  10.857  1.1948 -2.7795  0.1884
  448MOL0     H59108   2.727   1.355  10.593 -0.2853 -0.0597 -1.1639
  448MOL0     H59109   2.640   1.203  10.622  0.9669  1.6846 -1.0746
  448MOL0     H59110   2.442   1.325  10.675  1.0362 -1.6915 -0.5261
  448MOL0     H59111   2.497   1.346  10.506  0.1072 -0.4929 -0.0957
  448MOL0     H59112   2.612   1.567  10.592  0.5300 -1.1392  1.3243
  448MOL0     H59113   2.504   1.548  10.726 -0.6669 -0.2275 -0.0620
  448MOL0     H59114   2.388   1.684  10.573 -1.5017 -0.6065 -0.0792
  448MOL0     H59115   2.407   1.561  10.445 -3.5878 -2.2270  0.1692
  448MOL0     H59116   2.171   1.548  10.525 -0.7309 -0.2826  0.4151
  448MOL0     H59117   2.227   1.500  10.683 -3.0272 -0.5307 -0.9577
  448MOL0     H59118   3.045   1.106  10.935 -2.0042  3.2379 -1.1768
  448MOL0     H59119   3.276   1.100  10.945 -1.1575 -2.7496  1.7949
  448MOL0     H59120   3.642   1.395  10.776  1.0914  1.0521  1.7756
  448MOL0     H59121   3.882   1.421  10.769  1.5239  0.7914 -3.2758
  448MOL0     H59122   5.239   1.400   9.461  0.9172  1.2639 -1.4075
  448MOL0     H59123   5.454   1.423   9.377  1.2493 -2.3709 -1.3188
  448MOL0     H59124   5.909   1.244   9.384  4.3515 -1.6370 -0.8853
  448MOL0     H59125   6.117   1.232   9.307 -4.4989 -1.8128 -0.4929
  448MOL0     H59126   6.334   1.334   9.154  0.4957 -1.6419 -0.5163
  448MOL0     H59127   6.337   1.239   9.303 -1.8885  0.6184 -0.0055
  448MOL0     H59128   6.542   1.446   9.205  2.5795 -0.4550  1.6040
  448MOL0     H59129   6.517   1.396   9.369 -2.7420  0.7660 -0.0493
  448MOL0     H59130   6.583   1.210   9.134 -0.8418  0.0136  0.2174
  448MOL0     H59131   6.552   1.163   9.304  1.6453 -0.4727  0.2476
  448MOL0     H59132   6.809   1.176   9.242 -0.1572 -0.6175 -1.1010
  448MOL0     H59133   6.771   1.350   9.210  1.7863  0.2575  0.9628
  448MOL0     H59134   6.774   1.352   9.623 -2.7751  0.5347 -0.0836
  448MOL0     H59135   6.180   1.641   9.406 -2.1443  1.4446  0.1085
  448MOL0     H59136   5.948   1.669   9.487 -0.3696  0.8786 -1.4513
  449MOL0     O59137   1.038   9.100   9.378 -0.1083 -0.2876 -0.2142
  449MOL0     C59138   1.050   8.999   9.309  0.1408 -0.4029 -0.4005
  449MOL0     O59139   0.931   8.930   9.268 -1.1139 -0.1034 -0.1940
  449MOL0     C59140   0.804   8.978   9.296  0.4545  1.9539 -0.4666
  449MOL0     C59141   0.710   8.902   9.222 -0.4036  0.4461 -1.0357
  449MOL0     C59142   0.571   8.931   9.223 -0.1724  0.8940  0.9600
  449MOL0     C59143   0.535   9.041   9.287  0.4112 -0.1118  0.3187
  449MOL0     O59144   0.395   9.066   9.282  0.6611  0.1233 -0.0963
  449MOL0     C59145   0.342   9.194   9.337 -0.0476 -0.6129  0.0251
  449MOL0     C59146   0.189   9.206   9.301  0.2440  1.1624 -0.1179
  449MOL0     C59147   0.094   9.104   9.367 -0.2003 -0.2752 -0.5138
  449MOL0     C59148  -0.054   9.160   9.380  0.5939 -0.2381  0.2843
  449MOL0     C59149  -0.157   9.042   9.389 -0.2026  0.2844  0.7267
  449MOL0     C59150  -0.308   9.092   9.395  0.1998 -0.9165  1.4002
  449MOL0     C59151  -0.348   9.218   9.307  0.0111  0.4890 -0.0562
  449MOL0     C59152  -0.335   9.353   9.371 -0.2036 -0.4434  0.2988
  449MOL0     N59153  -0.399   9.367   9.497 -0.3462  0.4101  0.1148
  449MOL0     C59154  -0.331   9.370   9.623 -0.2169 -0.0618 -0.2653
  449MOL0     C59155  -0.431   9.379   9.720 -0.3443 -0.2156 -0.2869
  449MOL0     C59156  -0.413   9.410   9.864  0.3095 -0.6970 -0.3713
  449MOL0     C59157  -0.329   9.297   9.935  0.0242  0.4579  0.6429
  449MOL0     C59158  -0.311   9.305  10.085  0.1115  0.0605  0.2515
  449MOL0     C59159  -0.219   9.196  10.145 -0.1435  0.0123 -0.4383
  449MOL0     O59160  -0.281   9.059  10.117 -1.1172 -0.5093 -0.6446
  449MOL0     C59161  -0.347   9.004  10.226 -0.1267 -0.4477 -0.4604
  449MOL0     C59162  -0.406   9.068  10.332  1.1786  0.0540 -0.1873
  449MOL0     C59163  -0.490   9.003  10.427 -0.3788  0.4479 -0.2831
  449MOL0     C59164  -0.521   8.868  10.413 -0.4327 -0.4556  0.0050
  449MOL0     C59165  -0.606   8.801  10.507  0.0172  0.8921  0.2010
  449MOL0     O59166  -0.640   8.671  10.482  0.2567 -0.1660  0.0919
  449MOL0     C59167  -0.721   8.597  10.569 -0.0315 -0.6466 -0.4493
  449MOL0     C59168  -0.815   8.504  10.530 -0.2758  0.7969 -0.2832
  449MOL0     C59169  -0.887   8.418  10.609  0.3812  0.2746 -0.5476
  449MOL0     C59170  -0.878   8.436  10.751 -0.0706  0.2861  0.1167
  449MOL0     O59171  -0.951   8.350  10.828  0.3942 -0.7157 -1.0506
  449MOL0     C59172  -0.957   8.384  10.972  0.9067 -0.0631  0.4520
  449MOL0     C59173  -1.020   8.257  11.052  0.3399 -0.5082  0.2244
  449MOL0     C59174  -1.162   8.217  11.018 -0.1722 -0.0874  0.4189
  449MOL0     C59175  -1.199   8.109  11.121  0.7247 -0.3078  0.8994
  449MOL0     C59176  -1.331   8.038  11.079 -0.5825  0.1328  0.2463
  449MOL0     C59177  -1.450   8.128  11.101  0.6964  0.1015  0.5284
  449MOL0     C59178  -1.572   8.028  11.098  0.3077 -0.4984  0.5084
  449MOL0     C59179  -1.707   8.110  11.111 -0.5881  0.1616  0.7394
  449MOL0    Cl59180  -1.844   7.993  11.125 -0.1117  0.3289  0.2622
  449MOL0     C59181  -0.783   8.524  10.803 -1.2959 -0.3006 -0.4876
  449MOL0     C59182  -0.698   8.601  10.713  0.4511  0.5957  0.1313
  449MOL0     O59183  -0.641   8.865  10.604  0.0791  0.0314 -0.3030
  449MOL0     C59184  -0.462   8.804  10.299 -0.4910 -0.8957  0.4629
  449MOL0     C59185  -0.377   8.869  10.215 -0.2347 -0.2483  0.4205
  449MOL0     N59186  -0.552   9.390   9.653 -1.1103 -0.4416 -0.4268
  449MOL0     N59187  -0.534   9.366   9.528 -0.5058 -0.3720  0.3707
  449MOL0     C59188   0.621   9.117   9.363 -0.2085 -0.7472 -0.3809
  449MOL0     C59189   0.762   9.083   9.367  1.0941 -0.3403  0.5135
  449MOL0     C59190   1.190   8.958   9.267  0.4769  0.5271 -0.5096
  449MOL0     C59191   1.209   8.885   9.154  0.1628  0.0413 -0.1530
  449MOL0     C59192   1.335   8.867   9.113  0.0256  0.4870 -0.4230
  449MOL0     C59193   1.445   8.915   9.188  0.2917  0.7342  0.1518
  449MOL0     O59194   1.570   8.895   9.132 -0.0908  0.0468  0.4659
  449MOL0     C59195   1.604   9.016   9.057 -0.3810  0.3266 -0.1483
  449MOL0     C59196   1.734   8.991   8.998 -0.4357 -0.6127  0.2951
  449MOL0     C59197   1.772   9.125   8.926  0.1914 -0.2583  0.9323
  449MOL0     C59198   1.918   9.136   8.864 -0.1379  0.8718  0.6198
  449MOL0     C59199   1.927   9.056   8.738  0.6138 -1.2606 -0.7006
  449MOL0     C59200   1.930   9.009   8.623  0.3235  0.4334  0.4367
  449MOL0     C59201   1.433   8.971   9.316 -0.5227  0.1578  0.6546
  449MOL0     C59202   1.301   9.000   9.353 -0.6892 -0.2086  0.0468
  449MOL0     H59203   0.757   8.823   9.164  0.4318  0.6357 -0.6424
  449MOL0     H59204   0.501   8.869   9.167  2.3998 -2.7117  1.3322
  449MOL0     H59205   0.381   9.278   9.279 -3.4436 -0.1013 -1.7752
  449MOL0     H59206   0.365   9.197   9.444  0.1378 -0.6225 -0.0154
  449MOL0     H59207   0.167   9.209   9.194 -1.0710 -0.8718  0.0442
  449MOL0     H59208   0.159   9.304   9.340  0.8750  1.3046  0.0336
  449MOL0     H59209   0.118   9.084   9.471 -0.8314 -0.8387 -0.4720
  449MOL0     H59210   0.101   9.009   9.312 -0.1851 -0.5019 -0.1221
  449MOL0     H59211  -0.065   9.232   9.462  0.2789  1.2522 -1.0057
  449MOL0     H59212  -0.073   9.203   9.281  0.2729 -0.4699  0.2448
  449MOL0     H59213  -0.150   8.986   9.483 -0.2179  0.1051  0.6190
  449MOL0     H59214  -0.140   8.982   9.300  1.7123  3.7599 -1.4937
  449MOL0     H59215  -0.332   9.109   9.500 -0.8786  0.0396  1.0118
  449MOL0     H59216  -0.359   8.998   9.373  0.2741 -0.7311  0.3796
  449MOL0     H59217  -0.292   9.214   9.213 -0.7859  2.2050 -0.6502
  449MOL0     H59218  -0.454   9.212   9.278 -0.3531  0.3782  1.2391
  449MOL0     H59219  -0.390   9.427   9.313  1.1556  0.1673 -0.2334
  449MOL0     H59220  -0.232   9.387   9.382 -0.5262  0.0186  2.2451
  449MOL0     H59221  -0.226   9.371   9.653 -0.2814  0.1185 -0.0342
  449MOL0     H59222  -0.507   9.418   9.920 -0.2050 -4.3566 -0.4503
  449MOL0     H59223  -0.357   9.503   9.872 -0.4632 -0.2701  0.3179
  449MOL0     H59224  -0.229   9.294   9.891 -0.2315 -4.2835 -0.0587
  449MOL0     H59225  -0.373   9.199   9.916  1.7210 -0.6617  2.1378
  449MOL0     H59226  -0.270   9.403  10.113  0.7921 -0.6157  1.7235
  449MOL0     H59227  -0.408   9.297  10.134 -0.3516  0.5902 -0.5517
  449MOL0     H59228  -0.201   9.208  10.252 -0.2521  2.1144 -0.6198
  449MOL0     H59229  -0.118   9.193  10.104  1.2102  1.3454  2.5225
  449MOL0     H59230  -0.384   9.173  10.345 -0.1248  0.3617 -0.3185
  449MOL0     H59231  -0.510   9.065  10.514  2.5397  1.5511 -0.2744
  449MOL0     H59232  -0.843   8.483  10.427 -0.9158  1.5123 -0.2609
  449MOL0     H59233  -0.942   8.339  10.560  2.9373 -1.2369 -1.2125
  449MOL0     H59234  -1.028   8.468  10.975  1.1008  0.3109 -2.4397
  449MOL0     H59235  -0.861   8.402  11.021  1.9091  0.0093 -1.4484
  449MOL0     H59236  -1.005   8.277  11.158  1.1288 -0.0551  0.0326
  449MOL0     H59237  -0.950   8.176  11.033  0.8330 -0.0328 -0.0321
  449MOL0     H59238  -1.167   8.180  10.915  1.5586  2.8537 -0.8579
  449MOL0     H59239  -1.230   8.303  11.016 -0.9793 -0.7216 -0.3050
  449MOL0     H59240  -1.130   8.025  11.112 -1.8718 -2.4342 -1.2748
  449MOL0     H59241  -1.208   8.156  11.219 -2.0732  1.3668 -0.0409
  449MOL0     H59242  -1.346   7.957  11.151 -3.1148 -0.8144 -1.2053
  449MOL0     H59243  -1.326   7.998  10.977  0.3420  1.4652 -0.2563
  449MOL0     H59244  -1.460   8.200  11.020  2.9846 -1.1676 -0.9801
  449MOL0     H59245  -1.444   8.177  11.199 -1.0435  1.5662 -0.0447
  449MOL0     H59246  -1.574   7.974  11.002  0.0453  0.8385 -0.2551
  449MOL0     H59247  -1.565   7.952  11.177 -0.4066  0.3132  1.3695
  449MOL0     H59248  -1.729   8.172  11.024 -3.3989  0.4755  1.5607
  449MOL0     H59249  -1.703   8.165  11.205 -0.6232  2.9232 -0.7786
  449MOL0     H59250  -0.769   8.535  10.910 -2.5594  0.1491 -0.3580
  449MOL0     H59251  -0.615   8.658  10.754  1.3811 -0.8469  0.3410
  449MOL0     H59252  -0.475   8.698  10.281 -3.7489 -0.5769  0.2639
  449MOL0     H59253  -0.333   8.826  10.125 -0.4918 -0.6827  0.5008
  449MOL0     H59254   0.583   9.207   9.410  0.5981 -0.3167 -0.5287
  449MOL0     H59255   0.823   9.152   9.424  2.3373 -1.3312  0.4435
  449MOL0     H59256   1.122   8.857   9.096 -0.7705 -0.9183  1.6299
  449MOL0     H59257   1.356   8.821   9.017  0.1580  0.5457 -0.4226
  449MOL0     H59258   1.616   9.095   9.132 -1.8969  0.8436 -0.4147
  449MOL0     H59259   1.527   9.061   8.993  0.2112 -0.4260 -1.4133
  449MOL0     H59260   1.811   8.957   9.068 -1.4651  0.3836  1.9817
  449MOL0     H59261   1.720   8.913   8.922 -3.4554  2.7213 -2.9639
  449MOL0     H59262   1.773   9.204   9.002  2.3705 -1.7106  2.5462
  449MOL0     H59263   1.704   9.161   8.849  0.0879  4.6949  2.9553
  449MOL0     H59264   1.937   9.242   8.844 -2.8413  1.2398 -0.3714
  449MOL0     H59265   1.989   9.097   8.938  0.7814  2.5698  0.6654
  449MOL0     H59266   1.932   8.964   8.526 -0.1731  1.7470 -0.2134
  449MOL0     H59267   1.521   9.005   9.370 -0.4217 -0.3966  0.8402
  449MOL0     H59268   1.280   9.054   9.445 -1.7258  0.1927 -0.4183
  450MOL0     O59269   1.960   1.769   7.497 -0.5699  0.6129 -0.2243
  450MOL0     C59270   1.940   1.862   7.414  0.3371 -0.8403 -0.9072
  450MOL0     O59271   1.828   1.938   7.407 -0.4541  0.7488 -0.3863
  450MOL0     C59272   1.713   1.916   7.483  0.0041  0.8145  0.7840
  450MOL0     C59273   1.658   2.031   7.533 -0.2046 -0.4140 -0.0407
  450MOL0     C59274   1.556   2.015   7.625 -0.3476 -0.2859  0.3363
  450MOL0     C59275   1.503   1.890   7.660  0.3339  0.7956 -0.2981
  450MOL0     O59276   1.396   1.882   7.747 -0.5430 -0.1883  0.3096
  450MOL0     C59277   1.284   1.941   7.698  0.1305 -0.2768 -0.9533
  450MOL0     C59278   1.160   1.905   7.783 -0.7190 -0.3575  0.4921
  450MOL0     C59279   1.037   1.989   7.746 -0.5936 -1.0360 -0.1810
  450MOL0     C59280   0.905   1.946   7.808  0.2595 -0.5661 -1.0479
  450MOL0     C59281   0.790   2.043   7.818 -0.0424 -0.4280 -0.0984
  450MOL0     C59282   0.729   2.093   7.686 -0.7604 -0.2872  0.2595
  450MOL0     C59283   0.608   2.166   7.715  0.4735 -0.6096  0.0415
  450MOL0     C59284   0.525   2.185   7.586 -0.5499  0.6271  0.4253
  450MOL0     N59285   0.379   2.164   7.604  0.3099  0.1851 -0.8334
  450MOL0     C59286   0.318   2.043   7.604  0.3373 -0.3366 -0.1245
  450MOL0     C59287   0.189   2.071   7.618  0.4956  0.0086  0.0802
  450MOL0     C59288   0.082   1.972   7.601  0.6232  0.2936 -0.4843
  450MOL0     C59289   0.024   1.967   7.465 -0.6864 -0.8004  0.4696
  450MOL0     C59290  -0.038   2.102   7.415 -0.4539 -0.8971 -0.1314
  450MOL0     C59291  -0.196   2.113   7.418 -0.6652 -0.2994 -0.0254
  450MOL0     O59292  -0.258   1.996   7.367 -0.4752 -0.4162  0.6175
  450MOL0     C59293  -0.393   1.979   7.373  0.5485 -0.1414 -0.3955
  450MOL0     C59294  -0.492   2.079   7.377  0.1705 -0.2067  0.4688
  450MOL0     C59295  -0.627   2.045   7.376 -0.0509  0.1242  0.4415
  450MOL0     C59296  -0.668   1.913   7.374  0.7069  0.2454 -0.5878
  450MOL0     C59297  -0.811   1.873   7.380 -0.0499  0.3778  0.8897
  450MOL0     O59298  -0.893   1.961   7.432 -0.1134  0.0090  0.0849
  450MOL0     C59299  -1.014   1.926   7.481 -0.1141  0.0862 -0.2166
  450MOL0     C59300  -1.120   1.866   7.415 -0.1183  0.8240 -0.8011
  450MOL0     C59301  -1.251   1.863   7.470 -1.2776  0.6449 -1.2633
  450MOL0     C59302  -1.278   1.911   7.601  0.0771  0.4651 -0.3797
  450MOL0     O59303  -1.401   1.909   7.662  0.3709  0.3473 -0.3069
  450MOL0     C59304  -1.516   1.958   7.594 -0.0564 -0.4659 -0.4341
  450MOL0     C59305  -1.627   1.972   7.694  0.5111  0.4349 -0.0596
  450MOL0     C59306  -1.677   1.842   7.758  0.4025 -0.0384  0.1842
  450MOL0     C59307  -1.705   1.727   7.654 -0.4128 -0.4658  0.4962
  450MOL0     C59308  -1.786   1.610   7.717 -0.3753 -0.3714 -0.1291
  450MOL0     C59309  -1.891   1.543   7.626  0.2196 -0.0180  0.6262
  450MOL0     C59310  -1.810   1.467   7.518  0.5808 -0.1847 -0.5789
  450MOL0     C59311  -1.904   1.397   7.415  0.0176 -1.0353  0.3213
  450MOL0    Cl59312  -2.005   1.524   7.339 -0.3041  0.4918 -0.0342
  450MOL0     C59313  -1.169   1.964   7.671  0.1423 -0.1658  0.2152
  450MOL0     C59314  -1.046   1.963   7.614 -0.2230  0.0663  0.4324
  450MOL0     O59315  -0.840   1.765   7.337  0.5655  0.0530  0.0799
  450MOL0     C59316  -0.573   1.816   7.356 -0.4422  0.2554  0.1024
  450MOL0     C59317  -0.435   1.851   7.363  0.0047  1.0242 -0.5635
  450MOL0     N59318   0.168   2.204   7.632 -0.2009  0.4814  0.2222
  450MOL0     N59319   0.286   2.262   7.628 -0.2726 -0.0914 -0.2922
  450MOL0     C59320   1.560   1.775   7.616 -0.4532  0.7961 -0.3127
  450MOL0     C59321   1.664   1.790   7.524 -0.1741 -0.5719  0.3504
  450MOL0     C59322   2.044   1.902   7.322 -0.4517  0.2456  0.5273
  450MOL0     C59323   2.170   1.836   7.335  0.2794  0.2258 -0.8704
  450MOL0     C59324   2.284   1.863   7.252 -1.1054 -0.4083 -0.1964
  450MOL0     C59325   2.274   1.969   7.159 -0.6762  0.1038 -0.6137
  450MOL0     O59326   2.373   2.013   7.080 -0.1044 -0.2182  0.6013
  450MOL0     C59327   2.497   1.943   7.064  0.4011  0.2974  0.3495
  450MOL0     C59328   2.595   1.970   7.182 -0.5011  0.0038 -0.5217
  450MOL0     C59329   2.625   2.126   7.189  0.5036 -0.1844 -0.0170
  450MOL0     C59330   2.682   2.153   7.335 -0.8804 -0.5003 -0.0538
  450MOL0     C59331   2.824   2.125   7.346 -0.3838  0.0015 -0.5334
  450MOL0     C59332   2.940   2.098   7.361  1.2962  0.5603  0.9275
  450MOL0     C59333   2.147   2.039   7.141 -0.0740 -0.0941 -0.3480
  450MOL0     C59334   2.039   2.002   7.219 -0.6428  0.4782  0.0716
  450MOL0     H59335   1.697   2.127   7.502  1.0635 -0.6581  0.7401
  450MOL0     H59336   1.504   2.101   7.664  1.0377  0.6432  0.2068
  450MOL0     H59337   1.257   1.899   7.601  0.4633 -0.7834 -0.8266
  450MOL0     H59338   1.298   2.049   7.687 -0.3937  0.2374  2.3212
  450MOL0     H59339   1.187   1.915   7.888  0.7949  1.3163  0.0049
  450MOL0     H59340   1.134   1.801   7.761 -0.8634 -0.2925  0.3529
  450MOL0     H59341   1.019   1.983   7.638  2.5713 -2.8083 -0.7368
  450MOL0     H59342   1.067   2.092   7.762  2.0657 -1.2602 -2.9672
  450MOL0     H59343   0.869   1.856   7.757 -0.4687 -1.1469  0.4364
  450MOL0     H59344   0.928   1.915   7.910 -3.5831  3.7998  1.5898
  450MOL0     H59345   0.828   2.132   7.868 -0.2548 -0.8575  0.8511
  450MOL0     H59346   0.723   2.001   7.893  0.3086 -0.1572  0.3731
  450MOL0     H59347   0.691   2.009   7.627  1.7501 -0.8576 -0.6992
  450MOL0     H59348   0.805   2.150   7.632  0.0976 -2.0664 -0.5149
  450MOL0     H59349   0.550   2.108   7.787 -0.8134  4.2501  3.4323
  450MOL0     H59350   0.622   2.264   7.760 -2.6871  0.1312 -0.3809
  450MOL0     H59351   0.554   2.130   7.496 -1.1954  2.1483 -0.7645
  450MOL0     H59352   0.531   2.291   7.562 -2.0808  0.8714  0.9814
  450MOL0     H59353   0.359   1.943   7.600  1.1958 -0.1895  2.7399
  450MOL0     H59354   0.018   1.998   7.686  2.9338  1.7966  0.9163
  450MOL0     H59355   0.135   1.880   7.626 -3.3246 -1.5286  2.2131
  450MOL0     H59356  -0.048   1.884   7.459  1.9306 -3.1438 -0.3154
  450MOL0     H59357   0.110   1.953   7.399 -0.4151  1.9046  0.1469
  450MOL0     H59358  -0.000   2.190   7.468 -1.5013 -0.9822  0.7838
  450MOL0     H59359  -0.008   2.128   7.313 -2.9550  0.3645 -0.6297
  450MOL0     H59360  -0.221   2.198   7.355  2.2596 -1.0580 -2.4469
  450MOL0     H59361  -0.222   2.136   7.522 -0.6829  0.6004 -0.2222
  450MOL0     H59362  -0.464   2.182   7.398  0.8147 -0.5098  1.0923
  450MOL0     H59363  -0.705   2.119   7.390 -1.0404  0.4735 -4.7886
  450MOL0     H59364  -1.103   1.843   7.310  1.4400  3.3068 -1.1628
  450MOL0     H59365  -1.324   1.815   7.406 -1.9888 -0.7559  0.4994
  450MOL0     H59366  -1.546   1.900   7.507 -0.6203  0.0087 -0.5680
  450MOL0     H59367  -1.490   2.062   7.571 -1.7579  1.3047  4.3962
  450MOL0     H59368  -1.711   2.020   7.643  0.0579  3.1850  2.9599
  450MOL0     H59369  -1.602   2.043   7.773 -0.6625  1.4464 -0.5434
  450MOL0     H59370  -1.767   1.850   7.819  1.2617  0.0964  1.4875
  450MOL0     H59371  -1.597   1.808   7.825  3.0742  0.3415 -2.5839
  450MOL0     H59372  -1.757   1.772   7.569 -1.0888 -2.1329 -0.0199
  450MOL0     H59373  -1.606   1.703   7.614 -0.6436  1.2777 -1.3059
  450MOL0     H59374  -1.840   1.650   7.803  2.4404  0.3699  1.4231
  450MOL0     H59375  -1.719   1.533   7.755  2.1032  1.3442 -0.8104
  450MOL0     H59376  -1.947   1.625   7.581 -0.4349 -1.0281 -0.4496
  450MOL0     H59377  -1.953   1.482   7.693  1.0488  0.9722  2.3498
  450MOL0     H59378  -1.743   1.537   7.467 -0.4296  1.5072  0.3398
  450MOL0     H59379  -1.759   1.384   7.569  1.2992  0.6933  0.1665
  450MOL0     H59380  -1.969   1.328   7.469 -0.8496 -0.4220  0.0725
  450MOL0     H59381  -1.836   1.346   7.346 -0.3695 -2.2768  0.8177
  450MOL0     H59382  -1.180   2.003   7.772 -0.1597  0.0909  0.0858
  450MOL0     H59383  -0.962   2.002   7.672  0.8918 -4.3460  2.1586
  450MOL0     H59384  -0.599   1.711   7.357  1.2472 -0.1938  1.2631
  450MOL0     H59385  -0.371   1.763   7.364  0.3999  1.2790 -1.7779
  450MOL0     H59386   1.527   1.674   7.639  2.0762  0.6059  3.3680
  450MOL0     H59387   1.715   1.699   7.492  1.3254  0.4159 -0.1790
  450MOL0     H59388   2.175   1.760   7.413  0.2654  1.9953  0.9377
  450MOL0     H59389   2.372   1.802   7.273 -1.7543 -0.5022  2.7655
  450MOL0     H59390   2.534   1.982   6.969 -1.2607  0.9733 -0.0600
  450MOL0     H59391   2.470   1.837   7.058 -0.7389  0.4030  2.6588
  450MOL0     H59392   2.539   1.934   7.269  0.0564  0.6366  0.1071
  450MOL0     H59393   2.691   1.919   7.170 -0.3605  0.0211  0.4707
  450MOL0     H59394   2.530   2.178   7.177 -0.0509 -1.1771 -0.0545
  450MOL0     H59395   2.691   2.149   7.106  1.0002 -2.2311 -0.2427
  450MOL0     H59396   2.695   2.260   7.356  3.2387  0.0718 -3.8800
  450MOL0     H59397   2.617   2.111   7.412 -0.8388 -0.7232 -0.1393
  450MOL0     H59398   3.047   2.087   7.352  1.4220  1.2706  1.4527
  450MOL0     H59399   2.130   2.108   7.059 -1.2336 -2.7128 -2.4751
  450MOL0     H59400   1.940   2.044   7.201 -0.6291  0.3488 -0.2960
  451MOL0     O59401   6.581   0.495   4.256  0.1252  0.5948  0.3027
  451MOL0     C59402   6.558   0.616   4.233  0.1183  0.2570 -0.7326
  451MOL0     O59403   6.430   0.674   4.228 -0.4642  0.1213 -0.2775
  451MOL0     C59404   6.327   0.608   4.285  0.2742  0.6599  0.0561
  451MOL0     C59405   6.321   0.591   4.424  0.1542 -0.4481 -0.3891
  451MOL0     C59406   6.217   0.538   4.486 -0.6801 -0.3778  0.5893
  451MOL0     C59407   6.102   0.494   4.420 -0.4940 -0.1692  0.2339
  451MOL0     O59408   6.015   0.419   4.498 -0.5950 -0.3174 -0.0862
  451MOL0     C59409   5.880   0.425   4.448  0.8905 -0.0681 -0.4740
  451MOL0     C59410   5.794   0.356   4.549 -0.8764 -0.1010  0.5564
  451MOL0     C59411   5.648   0.341   4.497 -0.1231 -0.4324  0.4133
  451MOL0     C59412   5.543   0.331   4.611 -0.0139 -0.2966  0.2409
  451MOL0     C59413   5.395   0.341   4.560  0.1324 -0.3835 -0.1170
  451MOL0     C59414   5.312   0.214   4.595  0.0604 -0.0409 -0.7534
  451MOL0     C59415   5.157   0.253   4.585 -0.5916  0.0191 -0.0877
  451MOL0     C59416   5.089   0.332   4.700  0.2924 -0.3453 -0.0183
  451MOL0     N59417   4.942   0.335   4.679  0.3952 -0.0824  0.3716
  451MOL0     C59418   4.850   0.229   4.674  0.0745  0.1526 -0.2428
  451MOL0     C59419   4.733   0.301   4.652  0.4561 -0.4945  0.3173
  451MOL0     C59420   4.594   0.251   4.622  0.4219  1.6919 -0.6125
  451MOL0     C59421   4.495   0.253   4.744 -0.7356 -0.1552  0.6056
  451MOL0     C59422   4.357   0.202   4.701 -0.8899  0.5424 -0.2850
  451MOL0     C59423   4.246   0.202   4.807 -0.7872 -0.0620 -0.2864
  451MOL0     O59424   4.133   0.147   4.743  0.3660 -0.4592 -0.9036
  451MOL0     C59425   4.033   0.110   4.837  0.5907 -0.8742 -0.1788
  451MOL0     C59426   4.016   0.185   4.953  0.3170 -0.0659  0.4631
  451MOL0     C59427   3.908   0.158   5.043 -0.2673  0.3045 -0.2483
  451MOL0     C59428   3.816   0.055   5.013  0.1716  0.4028 -0.0363
  451MOL0     C59429   3.713   0.020   5.111  0.3642  0.1013 -0.1778
  451MOL0     O59430   3.685  -0.111   5.117  0.0964  0.5625  0.2964
  451MOL0     C59431   3.611  -0.170   5.223 -0.7399 -0.7794 -0.9492
  451MOL0     C59432   3.567  -0.112   5.342 -0.2100 -0.0985 -0.0148
  451MOL0     C59433   3.483  -0.176   5.435  0.2062  0.1703  0.3822
  451MOL0     C59434   3.443  -0.309   5.420  0.0005  0.5143 -0.3105
  451MOL0     O59435   3.377  -0.368   5.519 -0.6674  0.5766 -0.1976
  451MOL0     C59436   3.421  -0.494   5.564 -0.6044 -0.4771 -0.1511
  451MOL0     C59437   3.571  -0.502   5.605 -0.1791 -0.1497 -0.3822
  451MOL0     C59438   3.585  -0.630   5.690  0.3005 -0.3577  0.7921
  451MOL0     C59439   3.732  -0.658   5.731  1.0204 -0.2630 -0.1148
  451MOL0     C59440   3.743  -0.787   5.836  0.3217 -1.6262  0.5314
  451MOL0     C59441   3.875  -0.856   5.828  0.2006 -0.6448 -1.1575
  451MOL0     C59442   3.870  -1.000   5.883 -1.0356  0.0328  0.0348
  451MOL0     C59443   3.977  -1.087   5.824 -0.0316 -0.4558 -0.3617
  451MOL0    Cl59444   3.915  -1.248   5.819  0.0682 -0.6051  0.0517
  451MOL0     C59445   3.485  -0.377   5.304  0.6530  0.7789 -1.2763
  451MOL0     C59446   3.563  -0.302   5.209 -0.2753 -0.3746  1.4808
  451MOL0     O59447   3.663   0.109   5.186  0.4808  0.5390  0.4090
  451MOL0     C59448   3.832  -0.021   4.897 -0.2676 -0.3629  0.2620
  451MOL0     C59449   3.945   0.006   4.817 -0.0274 -0.5388  0.6058
  451MOL0     N59450   4.759   0.433   4.647 -0.0558 -0.0050 -0.2818
  451MOL0     N59451   4.882   0.454   4.652  0.2350  0.3204 -0.2962
  451MOL0     C59452   6.096   0.520   4.277  0.5523  0.2148 -0.3296
  451MOL0     C59453   6.207   0.578   4.218  1.4573  0.4855  0.5583
  451MOL0     C59454   6.681   0.703   4.197 -0.3938  0.1680 -0.5263
  451MOL0     C59455   6.662   0.828   4.146 -0.7465  0.3114 -0.2690
  451MOL0     C59456   6.768   0.910   4.108 -0.0096  0.1932 -0.8804
  451MOL0     C59457   6.900   0.858   4.114  0.2118 -0.4345 -0.1447
  451MOL0     O59458   7.005   0.946   4.093  0.4620 -0.0231  0.0780
  451MOL0     C59459   7.132   0.914   4.027 -0.1167  0.1019 -0.5878
  451MOL0     C59460   7.223   1.038   3.996 -0.1733 -0.4302 -0.1990
  451MOL0     C59461   7.361   0.975   3.939 -0.6076  0.0521 -0.2782
  451MOL0     C59462   7.354   0.931   3.795 -0.7154 -0.1371 -1.7695
  451MOL0     C59463   7.326   0.783   3.786  0.3654 -0.3625 -0.1480
  451MOL0     C59464   7.305   0.670   3.787  0.1421  0.4025  0.1047
  451MOL0     C59465   6.916   0.739   4.174 -0.8372  0.0115  0.3716
  451MOL0     C59466   6.812   0.653   4.204  0.6815  0.3483 -0.3203
  451MOL0     H59467   6.406   0.625   4.482 -0.5487 -2.8677  2.3222
  451MOL0     H59468   6.220   0.536   4.595 -1.1783  0.1460  0.6211
  451MOL0     H59469   5.863   0.363   4.359 -0.2478 -0.8264  0.2566
  451MOL0     H59470   5.839   0.523   4.422  0.8024 -0.0999 -0.4559
  451MOL0     H59471   5.798   0.418   4.639  1.4966  3.0086 -1.4650
  451MOL0     H59472   5.833   0.255   4.560 -1.3462 -0.5858 -1.7147
  451MOL0     H59473   5.644   0.259   4.424 -2.6555  0.2943 -0.3650
  451MOL0     H59474   5.625   0.436   4.447  0.2530  0.6180  2.1540
  451MOL0     H59475   5.554   0.237   4.666 -2.1559 -1.5596 -1.3306
  451MOL0     H59476   5.559   0.412   4.683  1.5276 -0.5019  0.1727
  451MOL0     H59477   5.378   0.361   4.454  0.3081 -4.4486 -1.0674
  451MOL0     H59478   5.339   0.418   4.614 -2.1331 -2.1230  0.1869
  451MOL0     H59479   5.329   0.178   4.697  0.4578  1.3903 -0.2906
  451MOL0     H59480   5.328   0.131   4.526 -1.1430 -1.7677  0.9071
  451MOL0     H59481   5.149   0.311   4.492 -0.8159  1.6033  0.8786
  451MOL0     H59482   5.107   0.157   4.572 -0.4667 -0.5583  2.9564
  451MOL0     H59483   5.121   0.437   4.705 -1.4928  0.2488 -0.0813
  451MOL0     H59484   5.102   0.292   4.801 -0.3394 -1.3130 -0.3066
  451MOL0     H59485   4.869   0.122   4.666  0.0780  0.1033  0.3718
  451MOL0     H59486   4.606   0.146   4.594 -3.0049  1.8296 -3.2068
  451MOL0     H59487   4.557   0.311   4.539 -1.8123 -0.0572 -0.9583
  451MOL0     H59488   4.491   0.357   4.778 -1.1189 -0.1571  0.5712
  451MOL0     H59489   4.541   0.201   4.829 -0.3852 -0.2223  0.3741
  451MOL0     H59490   4.326   0.260   4.614 -2.0355 -0.4072 -0.5329
  451MOL0     H59491   4.372   0.098   4.670 -1.5761  0.6034 -0.8394
  451MOL0     H59492   4.231   0.306   4.837 -1.1669  0.1713 -1.2362
  451MOL0     H59493   4.272   0.136   4.890 -2.6282 -0.8906 -0.2968
  451MOL0     H59494   4.076   0.270   4.982  0.1441 -0.2008  1.2491
  451MOL0     H59495   3.903   0.211   5.137 -0.9202 -0.7362  0.3133
  451MOL0     H59496   3.601  -0.010   5.362 -1.3078  0.8474 -2.6129
  451MOL0     H59497   3.454  -0.121   5.524  0.4607  1.1063 -0.0996
  451MOL0     H59498   3.400  -0.571   5.490  1.2809 -1.2700  0.1009
  451MOL0     H59499   3.356  -0.523   5.647 -0.3630 -1.3996 -0.2747
  451MOL0     H59500   3.603  -0.418   5.668 -0.2973  2.3551 -3.3843
  451MOL0     H59501   3.635  -0.498   5.517 -0.0884  2.9456 -0.3003
  451MOL0     H59502   3.548  -0.719   5.639  1.0327 -1.4700  2.1326
  451MOL0     H59503   3.530  -0.619   5.784 -1.0989  1.0236 -0.1278
  451MOL0     H59504   3.788  -0.672   5.638  2.7230  0.2699  0.7896
  451MOL0     H59505   3.779  -0.566   5.765 -0.3370  0.8428 -1.1461
  451MOL0     H59506   3.662  -0.856   5.814 -1.2753  0.4523 -0.4391
  451MOL0     H59507   3.736  -0.746   5.937 -2.4493 -2.2557  0.6532
  451MOL0     H59508   3.947  -0.799   5.887 -0.5431 -0.4364 -0.4348
  451MOL0     H59509   3.910  -0.863   5.724  1.5892  1.3650 -0.8888
  451MOL0     H59510   3.899  -1.002   5.988  1.0265 -3.7585 -0.4475
  451MOL0     H59511   3.768  -1.040   5.876 -0.9015 -0.9234  2.5021
  451MOL0     H59512   4.070  -1.095   5.882 -1.6621 -3.6414  2.1082
  451MOL0     H59513   4.012  -1.051   5.727 -1.5119 -1.5521 -1.3276
  451MOL0     H59514   3.462  -0.482   5.286 -1.9281  1.3633 -1.7944
  451MOL0     H59515   3.566  -0.345   5.109 -2.0495 -1.9951  2.0588
  451MOL0     H59516   3.767  -0.105   4.875 -1.7262  0.9410 -0.5580
  451MOL0     H59517   3.950  -0.047   4.722  2.0857 -0.4957  0.6565
  451MOL0     H59518   6.009   0.496   4.215 -1.0820  3.3488  0.5373
  451MOL0     H59519   6.197   0.590   4.111  5.4573 -2.4958 -0.3923
  451MOL0     H59520   6.569   0.883   4.137  0.2885  2.3117  0.6563
  451MOL0     H59521   6.747   0.999   4.049  2.0917 -0.0796 -2.1893
  451MOL0     H59522   7.111   0.854   3.937 -0.9351 -2.8892  1.4441
  451MOL0     H59523   7.189   0.856   4.100 -2.4450  0.2512  1.4614
  451MOL0     H59524   7.184   1.104   3.919 -1.7289  0.4319  1.2554
  451MOL0     H59525   7.234   1.094   4.089 -1.7743 -4.5529  2.8185
  451MOL0     H59526   7.393   0.894   4.005 -0.1701 -0.4921 -1.1338
  451MOL0     H59527   7.435   1.055   3.950 -2.4174  2.2757 -2.7049
  451MOL0     H59528   7.272   0.984   3.746  0.0569  1.1940 -1.6746
  451MOL0     H59529   7.445   0.948   3.737  1.8733 -2.9469  1.0740
  451MOL0     H59530   7.294   0.564   3.800  2.4960  0.1183  0.2543
  451MOL0     H59531   7.021   0.711   4.177 -0.4418  0.7417 -2.8905
  451MOL0     H59532   6.824   0.558   4.254  1.7526  0.1640 -0.8962
  452MOL0     O59533   1.563  10.506   4.940 -0.1720  0.7721 -0.2089
  452MOL0     C59534   1.633  10.425   4.867 -0.5357  0.0123 -0.0508
  452MOL0     O59535   1.587  10.303   4.807  0.4468 -0.7128 -0.5395
  452MOL0     C59536   1.461  10.278   4.836 -0.2697 -0.0662  0.0659
  452MOL0     C59537   1.358  10.356   4.789 -0.1137 -0.2606  0.7061
  452MOL0     C59538   1.224  10.324   4.820 -0.6935 -0.4577 -0.2726
  452MOL0     C59539   1.192  10.207   4.892 -0.8220 -0.5004  1.0125
  452MOL0     O59540   1.060  10.169   4.913  0.7558 -0.1285  0.1014
  452MOL0     C59541   0.960  10.271   4.894 -0.3184  0.0835 -0.7606
  452MOL0     C59542   0.831  10.209   4.943  0.4770  0.5179 -0.0813
  452MOL0     C59543   0.716  10.316   4.942  0.2986 -0.5912  0.1209
  452MOL0     C59544   0.588  10.241   4.971  0.2222 -0.2919 -0.3056
  452MOL0     C59545   0.463  10.325   4.966 -0.6162 -0.0902 -0.0869
  452MOL0     C59546   0.416  10.384   4.834 -0.6201 -0.5112 -0.0993
  452MOL0     C59547   0.283  10.452   4.864 -0.0240 -0.6784  1.5042
  452MOL0     C59548   0.244  10.528   4.724  0.6219  0.2345 -0.5605
  452MOL0     N59549   0.105  10.579   4.721 -0.1681 -0.3961  0.6105
  452MOL0     C59550   0.049  10.666   4.820 -0.6036  0.3038  0.1683
  452MOL0     C59551  -0.075  10.685   4.789 -0.6843  0.1884 -0.0323
  452MOL0     C59552  -0.178  10.747   4.875  0.0366 -1.1451 -0.0473
  452MOL0     C59553  -0.306  10.787   4.796  0.3220  0.0358 -0.2857
  452MOL0     C59554  -0.407  10.855   4.892  0.2688 -0.3493  0.1127
  452MOL0     C59555  -0.544  10.886   4.814 -0.6160  0.2011  0.4014
  452MOL0     O59556  -0.625  10.964   4.897  0.2933  0.3353  0.3092
  452MOL0     C59557  -0.756  10.987   4.864  0.8499 -0.4735  0.1578
  452MOL0     C59558  -0.819  10.944   4.739 -0.3979  0.0371 -0.9791
  452MOL0     C59559  -0.952  10.964   4.728  0.5944  0.1966 -0.0217
  452MOL0     C59560  -1.024  11.039   4.822 -0.2092 -0.6512 -0.2201
  452MOL0     C59561  -1.170  11.069   4.811  0.3816 -0.3430 -0.5331
  452MOL0     O59562  -1.232  10.996   4.706 -0.4386  0.4322 -0.6880
  452MOL0     C59563  -1.365  11.027   4.718 -0.1034  0.2954  0.2481
  452MOL0     C59564  -1.412  11.132   4.641 -0.3617  0.6230  0.6429
  452MOL0     C59565  -1.548  11.157   4.638  0.7252  0.8496 -1.4339
  452MOL0     C59566  -1.638  11.064   4.700 -0.3161 -0.0358 -0.1700
  452MOL0     O59567  -1.771  11.082   4.724 -0.8764 -0.3934  0.5506
  452MOL0     C59568  -1.831  11.193   4.656 -0.1168 -0.0945  0.4324
  452MOL0     C59569  -1.986  11.175   4.653 -0.2088 -0.7942 -0.0243
  452MOL0     C59570  -2.047  11.225   4.787 -0.7097 -1.2933  0.6427
  452MOL0     C59571  -2.043  11.374   4.824  1.1439 -0.0657  0.6399
  452MOL0     C59572  -2.113  11.407   4.953 -0.0951  0.0892 -0.0708
  452MOL0     C59573  -2.137  11.556   4.973 -0.0124  0.5280 -0.1799
  452MOL0     C59574  -2.238  11.589   5.089  0.8378  0.4262 -0.5466
  452MOL0     C59575  -2.276  11.743   5.096 -1.0647  0.0454 -0.3870
  452MOL0    Cl59576  -2.330  11.804   4.936 -0.4273 -0.3379 -0.4425
  452MOL0     C59577  -1.586  10.966   4.783 -0.4903  0.3823  0.1781
  452MOL0     C59578  -1.448  10.938   4.787  0.6689 -0.2255  0.4113
  452MOL0     O59579  -1.233  11.142   4.897  0.5460  0.4179 -0.6932
  452MOL0     C59580  -0.963  11.091   4.940 -0.3040  0.3577 -0.0750
  452MOL0     C59581  -0.824  11.060   4.961  0.0654 -0.2819 -0.6179
  452MOL0     N59582  -0.099  10.596   4.678 -0.5644 -0.7877 -0.5407
  452MOL0     N59583   0.006  10.540   4.639 -0.3296  0.2201 -0.2970
  452MOL0     C59584   1.299  10.124   4.935 -0.2545  0.7236  0.5457
  452MOL0     C59585   1.429  10.164   4.910  0.1562 -0.6245 -0.2360
  452MOL0     C59586   1.778  10.446   4.858 -0.6207 -0.0524  0.2339
  452MOL0     C59587   1.839  10.567   4.893 -0.3230 -0.1649 -0.8518
  452MOL0     C59588   1.972  10.586   4.888  0.8109 -0.0663 -0.4089
  452MOL0     C59589   2.052  10.491   4.826  0.1880  0.6225 -0.1883
  452MOL0     O59590   2.177  10.532   4.786 -0.9321  1.1946 -0.0224
  452MOL0     C59591   2.260  10.423   4.734  0.0708 -1.2799  0.3424
  452MOL0     C59592   2.405  10.468   4.720 -0.1392 -0.2519 -0.4997
  452MOL0     C59593   2.429  10.586   4.621  0.3101  0.6719  0.8770
  452MOL0     C59594   2.578  10.624   4.615 -0.0830 -0.4315 -0.0768
  452MOL0     C59595   2.614  10.692   4.485  0.0179  0.3382 -0.3908
  452MOL0     C59596   2.636  10.750   4.385  0.3426  0.6314  0.5785
  452MOL0     C59597   1.987  10.367   4.785  0.3780  0.2964 -0.2244
  452MOL0     C59598   1.854  10.347   4.805  0.7414  0.3169  0.1956
  452MOL0     H59599   1.381  10.450   4.740 -0.5387 -0.6216 -0.2050
  452MOL0     H59600   1.145  10.383   4.775 -1.2505 -0.2680  0.9143
  452MOL0     H59601   0.947  10.278   4.785 -0.5476  0.7170 -0.6948
  452MOL0     H59602   0.986  10.362   4.948  5.3749 -1.3736 -0.4458
  452MOL0     H59603   0.844  10.164   5.042 -0.6511  1.7797  0.6690
  452MOL0     H59604   0.805  10.131   4.871  0.4015  2.6324 -2.5188
  452MOL0     H59605   0.710  10.367   4.845 -0.7194 -2.7387 -1.0161
  452MOL0     H59606   0.735  10.389   5.021 -2.3584  2.8499 -2.1200
  452MOL0     H59607   0.567  10.155   4.907 -0.3042 -0.2478 -0.1987
  452MOL0     H59608   0.582  10.214   5.077 -1.6533  0.0111 -0.2928
  452MOL0     H59609   0.480  10.409   5.033  0.2201 -0.4134  0.1204
  452MOL0     H59610   0.386  10.262   5.013 -0.2566 -3.0899 -3.1122
  452MOL0     H59611   0.407  10.308   4.756  2.9932 -1.7393  0.4629
  452MOL0     H59612   0.491  10.462   4.814  0.2312 -0.8896  1.4332
  452MOL0     H59613   0.202  10.381   4.884 -3.3767  1.4136 -2.9950
  452MOL0     H59614   0.303  10.518   4.949  2.4868  1.3786 -0.5166
  452MOL0     H59615   0.232  10.446   4.654 -2.9201 -0.2146  0.3885
  452MOL0     H59616   0.322  10.600   4.695 -0.3500  1.9870  0.9234
  452MOL0     H59617   0.107  10.699   4.906 -0.0402 -1.5526  0.5299
  452MOL0     H59618  -0.136  10.841   4.911 -0.5905 -0.3959 -1.2159
  452MOL0     H59619  -0.202  10.684   4.962 -4.3968  0.2854  0.0124
  452MOL0     H59620  -0.355  10.695   4.763 -0.7417 -0.1842  1.6993
  452MOL0     H59621  -0.282  10.844   4.706 -1.3606 -0.2683 -0.9738
  452MOL0     H59622  -0.426  10.791   4.979 -2.1075  0.4675  0.2473
  452MOL0     H59623  -0.365  10.950   4.928  3.6231 -2.1029  1.2485
  452MOL0     H59624  -0.589  10.789   4.789  3.3414 -1.2090 -2.3313
  452MOL0     H59625  -0.525  10.937   4.719 -0.2450 -0.0910  0.3183
  452MOL0     H59626  -0.761  10.901   4.658 -0.4131  2.1459 -2.1766
  452MOL0     H59627  -0.991  10.935   4.631  1.1781  0.9433 -0.4885
  452MOL0     H59628  -1.349  11.203   4.588 -0.3353  1.9833  2.3985
  452MOL0     H59629  -1.593  11.235   4.579 -1.4203  0.9214  0.1633
  452MOL0     H59630  -1.794  11.199   4.553  0.4007  0.6247  0.6473
  452MOL0     H59631  -1.803  11.288   4.702  2.6028 -0.7487  0.2808
  452MOL0     H59632  -2.003  11.067   4.643 -1.5903 -0.5367 -0.7310
  452MOL0     H59633  -2.035  11.226   4.569  0.8900 -1.5562 -1.1774
  452MOL0     H59634  -2.008  11.170   4.874  0.8447 -1.5314 -0.1597
  452MOL0     H59635  -2.151  11.195   4.770 -0.1297 -2.2796 -1.5442
  452MOL0     H59636  -1.939  11.409   4.824  0.8532  0.8323 -0.3022
  452MOL0     H59637  -2.088  11.425   4.739  0.9572 -2.6241 -0.9301
  452MOL0     H59638  -2.058  11.370   5.040 -1.5180 -0.0251  0.8107
  452MOL0     H59639  -2.203  11.345   4.959  2.4731 -4.1243 -0.7735
  452MOL0     H59640  -2.175  11.596   4.878 -0.2056  0.9321  0.0667
  452MOL0     H59641  -2.045  11.616   4.978  1.3330 -1.4013 -0.5976
  452MOL0     H59642  -2.330  11.529   5.081  0.4978  0.6434  1.2160
  452MOL0     H59643  -2.198  11.555   5.185  1.8503  1.5479 -0.5446
  452MOL0     H59644  -2.184  11.794   5.125 -2.5832  1.8252  1.6386
  452MOL0     H59645  -2.351  11.755   5.174 -1.0362 -1.5298 -0.0818
  452MOL0     H59646  -1.659  10.904   4.835 -0.1693 -0.0237  0.1446
  452MOL0     H59647  -1.405  10.853   4.840  1.8791  0.4202  0.5040
  452MOL0     H59648  -1.016  11.145   5.018 -2.9987 -1.1262 -0.7729
  452MOL0     H59649  -0.772  11.089   5.052  1.0293 -0.7515 -1.0105
  452MOL0     H59650   1.274  10.034   4.990  0.5385 -1.1280 -1.9240
  452MOL0     H59651   1.508  10.102   4.952  1.6463  0.0886 -1.8596
  452MOL0     H59652   1.780  10.651   4.928 -3.0148 -1.8330 -1.1416
  452MOL0     H59653   2.015  10.679   4.924 -2.7671  1.4538  0.2840
  452MOL0     H59654   2.223  10.383   4.639  1.4671 -0.9337 -0.3623
  452MOL0     H59655   2.264  10.337   4.802 -0.6362 -2.1860 -0.7223
  452MOL0     H59656   2.432  10.510   4.817 -0.6421  0.9125 -0.8321
  452MOL0     H59657   2.476  10.391   4.688  3.7724  3.6074 -2.1389
  452MOL0     H59658   2.382  10.673   4.669 -3.6211 -0.7863 -0.0127
  452MOL0     H59659   2.384  10.570   4.523  0.4785 -3.4916  1.3162
  452MOL0     H59660   2.606  10.690   4.698 -0.5514  0.7557 -0.8262
  452MOL0     H59661   2.647  10.539   4.616  3.8411  2.4655 -0.0391
  452MOL0     H59662   2.681  10.793   4.298  0.6580 -3.4023 -1.5073
  452MOL0     H59663   2.033  10.282   4.737 -2.4907 -0.5911 -1.6161
  452MOL0     H59664   1.813  10.248   4.788 -1.9503  1.3097  0.4785
  453MOL0     O59665   9.809   7.531   6.923  0.3043 -0.1792  0.1338
  453MOL0     C59666   9.725   7.518   6.836  0.7770 -0.0431 -0.2149
  453MOL0     O59667   9.723   7.418   6.751  1.0317  0.5774  0.3504
  453MOL0     C59668   9.834   7.346   6.716 -0.0721 -0.4763 -0.6591
  453MOL0     C59669   9.806   7.221   6.664  0.6154  0.1458  0.2510
  453MOL0     C59670   9.901   7.132   6.614 -0.8008  0.4004 -0.3254
  453MOL0     C59671  10.035   7.177   6.614 -0.2834  0.3415 -0.3807
  453MOL0     O59672  10.133   7.094   6.566 -0.2333 -0.0424  1.1412
  453MOL0     C59673  10.211   7.035   6.669 -0.3006 -0.5537 -0.2708
  453MOL0     C59674  10.293   6.931   6.595 -0.2310 -0.0224  0.9876
  453MOL0     C59675  10.348   6.818   6.693  0.1269  0.3440  0.6180
  453MOL0     C59676  10.400   6.692   6.624 -0.1690  0.0100 -0.0715
  453MOL0     C59677  10.393   6.576   6.722  0.5465  0.9235  0.7238
  453MOL0     C59678  10.479   6.457   6.661 -0.9642 -0.1881  0.4461
  453MOL0     C59679  10.456   6.327   6.737 -0.2942  0.7388  0.1407
  453MOL0     C59680  10.537   6.215   6.688  0.8742  0.7009 -0.6503
  453MOL0     N59681  10.679   6.205   6.727  0.4086  0.4602 -0.2712
  453MOL0     C59682  10.731   6.225   6.856  0.3185 -0.6246  0.1663
  453MOL0     C59683  10.865   6.210   6.833 -0.1537  0.3288 -0.8099
  453MOL0     C59684  10.973   6.192   6.933 -0.1222  0.0875 -0.1148
  453MOL0     C59685  11.110   6.265   6.901  0.5516 -0.0389  0.4337
  453MOL0     C59686  11.191   6.200   6.785  0.2275 -0.1952 -0.2943
  453MOL0     C59687  11.215   6.297   6.660 -0.4611  0.2759 -0.5872
  453MOL0     O59688  11.322   6.383   6.704  0.1144 -0.3133  0.0770
  453MOL0     C59689  11.435   6.388   6.629  0.3672  0.2803  0.2198
  453MOL0     C59690  11.540   6.322   6.679  0.0884  0.1547 -1.1784
  453MOL0     C59691  11.656   6.319   6.606 -0.0364 -0.5910 -0.9814
  453MOL0     C59692  11.670   6.377   6.477 -0.4762 -0.3981  0.5183
  453MOL0     C59693  11.805   6.374   6.400 -0.8713 -0.6316  0.9300
  453MOL0     O59694  11.915   6.330   6.466 -0.5448  0.5939 -0.0330
  453MOL0     C59695  12.031   6.312   6.392  0.5166 -0.2875  0.4994
  453MOL0     C59696  12.037   6.214   6.295 -0.7265  0.1298 -0.4261
  453MOL0     C59697  12.141   6.221   6.203 -0.8692  0.5009  0.5601
  453MOL0     C59698  12.247   6.304   6.224 -0.8166 -0.6580  0.3605
  453MOL0     O59699  12.355   6.304   6.140 -0.8040 -0.5520  0.1142
  453MOL0     C59700  12.496   6.302   6.180 -0.1854  0.4966 -0.2381
  453MOL0     C59701  12.592   6.246   6.067  0.7222  0.5292 -0.6860
  453MOL0     C59702  12.732   6.270   6.131 -0.1470 -0.2227 -0.2849
  453MOL0     C59703  12.832   6.287   6.014  0.4100 -0.9710 -0.4730
  453MOL0     C59704  12.979   6.292   6.056  0.2830 -1.1966  0.2528
  453MOL0     C59705  13.013   6.437   6.112 -0.7004 -0.5918 -0.8004
  453MOL0     C59706  13.167   6.454   6.124 -1.3484  0.8144 -0.5379
  453MOL0     C59707  13.250   6.451   5.994 -0.5288  0.6348  0.1685
  453MOL0    Cl59708  13.431   6.451   6.051  0.7271 -0.2967  0.3239
  453MOL0     C59709  12.243   6.395   6.330  0.3634 -0.4480  0.2356
  453MOL0     C59710  12.133   6.406   6.411 -0.8269  0.4686 -0.1215
  453MOL0     O59711  11.807   6.399   6.282  0.2331  0.3180  0.1993
  453MOL0     C59712  11.562   6.440   6.420 -1.6647 -0.5216 -0.4324
  453MOL0     C59713  11.442   6.446   6.502  0.3406  0.8611 -0.5527
  453MOL0     N59714  10.882   6.179   6.700  0.2039 -0.0206 -0.9168
  453MOL0     N59715  10.779   6.182   6.641 -0.4359 -0.2465 -0.2659
  453MOL0     C59716  10.071   7.289   6.677 -0.3262 -0.6873  0.3085
  453MOL0     C59717   9.970   7.376   6.728 -0.2331  0.2539  1.2751
  453MOL0     C59718   9.599   7.606   6.848 -0.0502  0.2358 -0.8831
  453MOL0     C59719   9.606   7.738   6.890 -0.5213 -0.2038 -0.1038
  453MOL0     C59720   9.484   7.816   6.897  0.1028  0.3498  0.2960
  453MOL0     C59721   9.365   7.746   6.856  0.2528  0.0013  0.4800
  453MOL0     O59722   9.240   7.796   6.875 -0.0575  0.2131  0.3251
  453MOL0     C59723   9.213   7.913   6.960  0.1990 -0.2159  0.0276
  453MOL0     C59724   9.059   7.910   6.998 -0.5626  0.4384  0.2479
  453MOL0     C59725   8.967   7.959   6.886 -0.3356  0.4794 -0.0417
  453MOL0     C59726   8.830   8.000   6.942  0.4506  0.3007  0.5187
  453MOL0     C59727   8.782   7.895   7.034 -0.5002 -0.5001 -0.2129
  453MOL0     C59728   8.740   7.805   7.102  0.8066  0.0056 -0.2241
  453MOL0     C59729   9.357   7.618   6.805 -0.7751 -0.2900  0.3238
  453MOL0     C59730   9.479   7.551   6.809  0.0674  0.3145  0.2627
  453MOL0     H59731   9.703   7.187   6.668  0.1862  1.4372  0.6446
  453MOL0     H59732   9.870   7.044   6.559  0.2493  0.2495 -0.7038
  453MOL0     H59733  10.139   6.994   6.741 -0.3383  1.4494  0.9061
  453MOL0     H59734  10.272   7.114   6.714  0.7729  1.9164 -5.3237
  453MOL0     H59735  10.375   6.976   6.537 -1.4182 -0.4091 -1.0898
  453MOL0     H59736  10.229   6.878   6.524  1.2163  0.5515 -0.8432
  453MOL0     H59737  10.263   6.783   6.751  0.5979 -0.9497  0.5695
  453MOL0     H59738  10.427   6.853   6.760  0.0245  0.3022  0.7616
  453MOL0     H59739  10.335   6.669   6.539 -2.2220  1.1569  1.1035
  453MOL0     H59740  10.500   6.712   6.585 -0.6836 -0.7306 -1.8455
  453MOL0     H59741  10.289   6.543   6.734  1.0104  0.3890  3.9858
  453MOL0     H59742  10.429   6.601   6.822 -0.1674  0.5364  1.0892
  453MOL0     H59743  10.587   6.466   6.657 -0.8723 -1.5388 -1.5555
  453MOL0     H59744  10.447   6.446   6.557  2.1427  1.2888 -0.7790
  453MOL0     H59745  10.484   6.338   6.842  3.0638  3.3490 -0.8564
  453MOL0     H59746  10.352   6.294   6.735  0.1254 -0.6544  0.2340
  453MOL0     H59747  10.539   6.219   6.579  1.3769  3.5901 -0.6147
  453MOL0     H59748  10.484   6.122   6.710  3.9049 -1.9110 -3.3280
  453MOL0     H59749  10.674   6.257   6.942 -1.3230 -1.5499 -0.5091
  453MOL0     H59750  10.984   6.084   6.948 -3.9310 -0.2169  1.6584
  453MOL0     H59751  10.932   6.223   7.030  0.1457 -1.0624  0.3800
  453MOL0     H59752  11.165   6.262   6.995  0.2044  4.0495  0.9647
  453MOL0     H59753  11.091   6.371   6.883 -0.9588 -0.4901 -0.8727
  453MOL0     H59754  11.293   6.178   6.816  0.3314  2.3463  1.4338
  453MOL0     H59755  11.142   6.102   6.778 -0.3913 -0.4131  4.1912
  453MOL0     H59756  11.133   6.366   6.635  0.8532  3.2828  2.6641
  453MOL0     H59757  11.247   6.240   6.572  2.2270  1.1839 -0.2928
  453MOL0     H59758  11.530   6.284   6.780  0.0033  2.3062 -0.3241
  453MOL0     H59759  11.733   6.258   6.651 -0.0982  0.0263 -0.0061
  453MOL0     H59760  11.967   6.134   6.274 -0.1798 -0.0544 -1.6570
  453MOL0     H59761  12.137   6.174   6.105 -1.4856  2.3246 -0.3323
  453MOL0     H59762  12.501   6.235   6.267 -1.8313 -2.4954 -2.2704
  453MOL0     H59763  12.536   6.401   6.204  0.0353  0.6654 -1.2679
  453MOL0     H59764  12.584   6.302   5.974 -3.1868  0.7149 -0.4308
  453MOL0     H59765  12.566   6.142   6.044  1.1416  0.3840 -0.5187
  453MOL0     H59766  12.774   6.190   6.193  1.0730  0.0990 -0.6602
  453MOL0     H59767  12.729   6.363   6.190  3.0115  0.6386 -1.2900
  453MOL0     H59768  12.818   6.196   5.956 -1.0573 -0.0803 -1.5738
  453MOL0     H59769  12.808   6.376   5.956  1.9699  1.0391  1.7369
  453MOL0     H59770  13.043   6.270   5.970  2.3533  0.2846  1.3354
  453MOL0     H59771  12.991   6.204   6.119 -2.3171 -1.3229  0.6904
  453MOL0     H59772  12.970   6.442   6.213 -0.1808  1.9016 -0.6562
  453MOL0     H59773  12.975   6.517   6.049 -0.6714  0.2267  0.1977
  453MOL0     H59774  13.180   6.549   6.176  3.8569 -0.7582  1.7879
  453MOL0     H59775  13.196   6.374   6.192  1.0502  0.0485 -2.3230
  453MOL0     H59776  13.225   6.526   5.919  1.8188  2.4729  1.1117
  453MOL0     H59777  13.240   6.355   5.943  0.1867  0.6147  0.0628
  453MOL0     H59778  12.328   6.461   6.346 -0.5592  0.6390  0.8646
  453MOL0     H59779  12.120   6.484   6.485 -1.2398  0.3313 -0.0427
  453MOL0     H59780  11.553   6.487   6.323  2.3336 -0.3629 -0.9241
  453MOL0     H59781  11.349   6.493   6.470  0.5801  1.2818 -0.6389
  453MOL0     H59782  10.172   7.322   6.694  0.1498 -0.8522 -1.8437
  453MOL0     H59783  10.014   7.458   6.783  3.2150  0.9869 -2.1077
  453MOL0     H59784   9.703   7.774   6.924 -0.8949  0.2809  0.4771
  453MOL0     H59785   9.489   7.920   6.928 -1.1012 -0.0498  1.9687
  453MOL0     H59786   9.231   8.003   6.902 -2.2002  1.4922  1.7028
  453MOL0     H59787   9.271   7.921   7.052  3.0317  1.2349 -1.7745
  453MOL0     H59788   9.025   7.809   7.026 -1.3395  0.0391 -1.9301
  453MOL0     H59789   9.049   7.980   7.081  0.0259  0.2023  0.5284
  453MOL0     H59790   8.951   7.883   6.809 -0.5575 -0.4309  0.8745
  453MOL0     H59791   9.002   8.048   6.834 -2.0847  1.9254  1.1157
  453MOL0     H59792   8.846   8.097   6.991 -2.9360  0.8911  0.7530
  453MOL0     H59793   8.762   8.010   6.857  3.4203  2.6876 -1.8028
  453MOL0     H59794   8.711   7.731   7.175  1.8986 -0.1703  0.0522
  453MOL0     H59795   9.271   7.566   6.764 -2.5617  2.1112  0.8350
  453MOL0     H59796   9.482   7.451   6.769  1.3275  0.4585 -0.0393
  454MOL0     O59797   1.101   4.175   8.966  1.2893 -0.2243 -0.2932
  454MOL0     C59798   1.039   4.186   8.858 -0.5684 -0.0757 -0.7443
  454MOL0     O59799   1.089   4.153   8.732 -0.3938 -0.1283  0.1377
  454MOL0     C59800   1.200   4.080   8.716  0.1936  0.7972 -0.4655
  454MOL0     C59801   1.208   3.954   8.775 -0.3803 -0.0819  0.6693
  454MOL0     C59802   1.326   3.882   8.774 -0.7491  0.1732 -0.2736
  454MOL0     C59803   1.433   3.939   8.708 -1.2536 -0.3847 -0.3989
  454MOL0     O59804   1.544   3.868   8.686 -0.7616 -0.1877 -1.0374
  454MOL0     C59805   1.543   3.747   8.609  0.7118 -0.3536  0.2569
  454MOL0     C59806   1.477   3.746   8.474  1.0529  0.6555 -0.4877
  454MOL0     C59807   1.525   3.851   8.369 -0.4221 -0.6248  0.3166
  454MOL0     C59808   1.669   3.822   8.328 -0.6770 -1.7552 -0.4827
  454MOL0     C59809   1.754   3.940   8.272  0.6639 -0.6808 -1.8048
  454MOL0     C59810   1.707   4.078   8.330 -0.0348  0.0344  0.1628
  454MOL0     C59811   1.803   4.199   8.295 -0.3620  0.0431 -0.4346
  454MOL0     C59812   1.775   4.332   8.358 -0.0704 -0.3536 -0.3618
  454MOL0     N59813   1.637   4.367   8.352  0.3843  0.1996 -0.6615
  454MOL0     C59814   1.575   4.433   8.248  0.2841  0.6961  0.1018
  454MOL0     C59815   1.441   4.420   8.273 -0.0992 -0.0340  0.0766
  454MOL0     C59816   1.326   4.466   8.181 -0.4175  0.3060  0.2163
  454MOL0     C59817   1.221   4.532   8.264 -0.1309  0.1666 -0.9789
  454MOL0     C59818   1.134   4.628   8.189  0.1246 -0.5509  0.0084
  454MOL0     C59819   1.061   4.553   8.067  0.0171 -0.2781 -0.3108
  454MOL0     O59820   0.923   4.522   8.100  0.2457  1.0024  0.4161
  454MOL0     C59821   0.829   4.622   8.110 -0.4079 -0.3527  0.2531
  454MOL0     C59822   0.860   4.761   8.106 -0.0646 -0.1349 -0.0199
  454MOL0     C59823   0.748   4.852   8.120 -0.1527 -0.2253  0.2138
  454MOL0     C59824   0.614   4.808   8.136 -0.0281  0.3639 -0.4152
  454MOL0     C59825   0.502   4.886   8.172  0.0956 -0.1481 -0.0706
  454MOL0     O59826   0.386   4.832   8.217  0.1460 -0.2433 -0.1312
  454MOL0     C59827   0.267   4.899   8.235 -0.0460 -0.7751 -0.8025
  454MOL0     C59828   0.250   5.002   8.332 -0.2248  0.0925  0.4247
  454MOL0     C59829   0.133   5.076   8.325  0.2088  0.4089 -0.6217
  454MOL0     C59830   0.030   5.048   8.234  0.1489 -0.3742  0.0715
  454MOL0     O59831  -0.083   5.116   8.224  0.1450 -0.1621 -0.4815
  454MOL0     C59832  -0.140   5.177   8.339  0.1251  0.1799 -0.2084
  454MOL0     C59833  -0.276   5.242   8.289 -0.4313 -0.3510  0.4258
  454MOL0     C59834  -0.349   5.344   8.388  1.0713 -1.1538  0.4481
  454MOL0     C59835  -0.481   5.394   8.317 -0.0897 -0.2599  0.4877
  454MOL0     C59836  -0.582   5.479   8.397 -0.3112  0.5857 -0.3775
  454MOL0     C59837  -0.722   5.478   8.345 -0.5413 -0.0614 -0.7371
  454MOL0     C59838  -0.805   5.549   8.445  1.3225  0.5115 -0.9581
  454MOL0     C59839  -0.936   5.605   8.390 -0.5394 -0.2660 -0.5953
  454MOL0    Cl59840  -1.022   5.677   8.526  0.5176  0.2717 -0.3450
  454MOL0     C59841   0.051   4.945   8.142  0.5127  0.6848  0.3225
  454MOL0     C59842   0.174   4.867   8.141  0.6449 -0.2506  0.6539
  454MOL0     O59843   0.519   5.005   8.154 -0.2004 -0.2795  0.3299
  454MOL0     C59844   0.589   4.670   8.161 -0.1992 -0.3699 -0.5417
  454MOL0     C59845   0.694   4.580   8.148  0.4315  0.0600  0.2777
  454MOL0     N59846   1.427   4.359   8.396 -0.5180 -0.0500 -0.6320
  454MOL0     N59847   1.545   4.324   8.446  0.8958  0.2601  0.8904
  454MOL0     C59848   1.429   4.066   8.649 -0.8725 -0.3195  0.9337
  454MOL0     C59849   1.308   4.137   8.652  0.2224  0.1487 -0.7819
  454MOL0     C59850   0.905   4.239   8.871  0.3882  0.0237  0.3002
  454MOL0     C59851   0.874   4.330   8.968 -1.2379 -0.2194  0.4581
  454MOL0     C59852   0.746   4.376   8.978 -0.6950 -0.2935 -0.0953
  454MOL0     C59853   0.641   4.340   8.886 -0.5173 -0.4435 -0.4361
  454MOL0     O59854   0.517   4.399   8.890  0.4313  0.1025 -0.1521
  454MOL0     C59855   0.401   4.324   8.877  0.1794 -0.2358 -0.5009
  454MOL0     C59856   0.296   4.408   8.934  0.4467 -0.0787  0.2132
  454MOL0     C59857   0.168   4.332   8.994  0.6175 -0.2026  0.7909
  454MOL0     C59858   0.042   4.418   9.011  1.3099 -0.2519  0.1622
  454MOL0     C59859   0.062   4.528   9.100 -0.1103 -0.1049 -0.7120
  454MOL0     C59860   0.090   4.625   9.165  1.0962  0.4132  0.5185
  454MOL0     C59861   0.679   4.255   8.780  0.0821 -0.1186 -0.5593
  454MOL0     C59862   0.809   4.203   8.774 -0.6913 -0.3902  0.1870
  454MOL0     H59863   1.118   3.921   8.826  0.3890 -0.0256  2.1012
  454MOL0     H59864   1.343   3.785   8.821  1.6648  0.7819  0.2655
  454MOL0     H59865   1.493   3.666   8.663 -2.3301 -0.2563 -2.1490
  454MOL0     H59866   1.644   3.705   8.597  0.1620 -1.6854  0.0521
  454MOL0     H59867   1.373   3.764   8.501  1.5514  0.9597  1.3548
  454MOL0     H59868   1.483   3.644   8.434 -0.0759 -0.3189  1.6920
  454MOL0     H59869   1.517   3.952   8.410 -3.0740 -0.3915 -0.6036
  454MOL0     H59870   1.460   3.853   8.281  0.5275 -1.8251 -0.4521
  454MOL0     H59871   1.717   3.798   8.424 -1.0464  1.3881  0.6087
  454MOL0     H59872   1.680   3.736   8.261 -0.2143  0.2501 -3.1227
  454MOL0     H59873   1.740   3.955   8.165  1.2648  0.0500 -1.7882
  454MOL0     H59874   1.858   3.936   8.306 -0.5417 -1.2876  2.3576
  454MOL0     H59875   1.684   4.070   8.436 -3.5947  1.1546 -0.3998
  454MOL0     H59876   1.619   4.103   8.269  0.8366 -0.7684 -1.4940
  454MOL0     H59877   1.907   4.168   8.304  0.0608  1.7779  1.5426
  454MOL0     H59878   1.784   4.223   8.190  0.3317  3.4297  0.1031
  454MOL0     H59879   1.834   4.419   8.328 -3.4019  1.8835 -0.9184
  454MOL0     H59880   1.796   4.311   8.464 -1.2633  1.8308  0.3763
  454MOL0     H59881   1.626   4.464   8.157 -0.9971  1.7123 -0.2957
  454MOL0     H59882   1.286   4.378   8.131 -1.2116 -0.8864  2.7914
  454MOL0     H59883   1.356   4.533   8.099 -0.4524  0.5964  0.4381
  454MOL0     H59884   1.264   4.603   8.336  2.1486 -1.1863 -0.9187
  454MOL0     H59885   1.159   4.459   8.317 -1.7757  0.9782 -1.7092
  454MOL0     H59886   1.063   4.665   8.263  1.5176 -1.0193  1.6201
  454MOL0     H59887   1.192   4.713   8.153 -0.4156  0.4407  1.3916
  454MOL0     H59888   1.110   4.459   8.038 -2.6139 -1.6345 -0.6984
  454MOL0     H59889   1.060   4.609   7.973 -0.3582 -0.9749 -0.7367
  454MOL0     H59890   0.961   4.795   8.086  0.3131  1.3809  3.5533
  454MOL0     H59891   0.767   4.957   8.102  1.0854 -0.1712  1.6810
  454MOL0     H59892   0.329   5.035   8.397  1.5480 -0.6768 -1.2446
  454MOL0     H59893   0.121   5.154   8.400 -3.5643 -3.5213  3.5332
  454MOL0     H59894  -0.081   5.262   8.374 -0.7001 -0.3647  2.8021
  454MOL0     H59895  -0.147   5.098   8.415  1.6142 -2.2625 -2.4398
  454MOL0     H59896  -0.346   5.163   8.259  0.7932 -1.1063 -0.5042
  454MOL0     H59897  -0.239   5.291   8.199 -1.3650 -0.9583 -0.3058
  454MOL0     H59898  -0.281   5.428   8.408  0.7572 -1.0835  1.2682
  454MOL0     H59899  -0.371   5.291   8.482 -0.6538  1.2463  1.4980
  454MOL0     H59900  -0.455   5.454   8.229 -2.5509  0.8134  0.4197
  454MOL0     H59901  -0.525   5.298   8.290  1.6728 -1.5511  1.9323
  454MOL0     H59902  -0.541   5.579   8.414  2.0536 -0.4651  0.6463
  454MOL0     H59903  -0.589   5.437   8.498 -2.7518  2.8420  0.5135
  454MOL0     H59904  -0.755   5.376   8.324 -1.3542  0.5282 -2.4789
  454MOL0     H59905  -0.716   5.543   8.258 -1.4329  0.1310 -0.6611
  454MOL0     H59906  -0.837   5.473   8.517 -0.9605  0.6928 -1.7079
  454MOL0     H59907  -0.751   5.626   8.501  0.9731  0.1563 -0.1059
  454MOL0     H59908  -0.997   5.528   8.342 -0.1652 -1.9283  1.4652
  454MOL0     H59909  -0.913   5.685   8.319  1.4430 -0.5553 -0.3307
  454MOL0     H59910  -0.023   4.921   8.067 -1.4361 -1.9463  2.9089
  454MOL0     H59911   0.195   4.794   8.063 -2.3948 -0.2777 -0.2748
  454MOL0     H59912   0.492   4.631   8.187  1.1908 -3.1485  0.9238
  454MOL0     H59913   0.668   4.475   8.157 -0.4971  0.3742  1.4617
  454MOL0     H59914   1.514   4.094   8.588 -1.5235  2.5218  1.1731
  454MOL0     H59915   1.291   4.237   8.615  1.7997  0.9471  0.5124
  454MOL0     H59916   0.948   4.376   9.033 -0.5669 -1.4268  0.5742
  454MOL0     H59917   0.732   4.453   9.053 -1.0688  0.3951 -0.8587
  454MOL0     H59918   0.409   4.231   8.932 -2.0875  0.6769  1.5542
  454MOL0     H59919   0.383   4.292   8.774  0.2539 -0.4628 -0.4438
  454MOL0     H59920   0.329   4.462   9.024  1.0187 -0.2961  0.1342
  454MOL0     H59921   0.263   4.475   8.854 -1.5629  0.8552  1.7318
  454MOL0     H59922   0.195   4.285   9.089  1.6002 -0.3426  0.4540
  454MOL0     H59923   0.133   4.253   8.927 -0.8047  0.3270  0.8635
  454MOL0     H59924   0.021   4.452   8.909 -0.7593  1.6884  1.1529
  454MOL0     H59925  -0.031   4.344   9.044  0.4077  0.0045 -1.1935
  454MOL0     H59926   0.124   4.704   9.230  0.1219  0.2262  1.2851
  454MOL0     H59927   0.601   4.225   8.710  0.2093  1.2187 -1.2914
  454MOL0     H59928   0.841   4.133   8.697 -2.3229 -0.2675 -0.6587
  455MOL0     O59929   0.301   2.919   6.862 -0.1297  0.2652 -0.4933
  455MOL0     C59930   0.364   2.875   6.954  0.0315 -0.4346  0.1959
  455MOL0     O59931   0.349   2.915   7.087 -0.0329 -0.1126  0.6276
  455MOL0     C59932   0.236   2.993   7.103  0.3643 -0.5513  0.4705
  455MOL0     C59933   0.257   3.135   7.099  0.7593 -0.0804 -0.1299
  455MOL0     C59934   0.154   3.225   7.134 -0.3632 -0.0358  0.5484
  455MOL0     C59935   0.022   3.179   7.160  0.5687  0.0223  0.5122
  455MOL0     O59936  -0.072   3.274   7.191  0.7014  0.6802  0.1582
  455MOL0     C59937  -0.203   3.258   7.133 -0.0794  0.6820  0.6344
  455MOL0     C59938  -0.300   3.350   7.203 -0.5686  0.4796  0.3142
  455MOL0     C59939  -0.437   3.302   7.153  0.4687  0.2919  0.0166
  455MOL0     C59940  -0.547   3.402   7.198  0.9435 -0.1527  0.0617
  455MOL0     C59941  -0.687   3.362   7.147 -0.6098 -0.2899 -0.8138
  455MOL0     C59942  -0.788   3.463   7.206 -0.0398  0.0012  1.1065
  455MOL0     C59943  -0.923   3.430   7.162  0.3557 -0.1817 -0.1487
  455MOL0     C59944  -0.983   3.294   7.211  0.1437 -0.5841  0.0608
  455MOL0     N59945  -1.127   3.307   7.219  0.2084 -0.3387 -0.3590
  455MOL0     C59946  -1.216   3.272   7.121  0.3238 -0.4757 -0.1415
  455MOL0     C59947  -1.337   3.322   7.161 -0.4228 -0.8131 -0.2983
  455MOL0     C59948  -1.457   3.313   7.068  0.2361  0.1086 -1.1716
  455MOL0     C59949  -1.588   3.396   7.122 -0.7299 -0.2449 -0.3305
  455MOL0     C59950  -1.705   3.407   7.023 -0.7610  0.4713 -1.1592
  455MOL0     C59951  -1.838   3.469   7.098  0.5581 -0.7884  0.3059
  455MOL0     O59952  -1.940   3.484   6.995  0.5856 -0.0366 -0.6484
  455MOL0     C59953  -2.064   3.524   7.045  0.1923  0.2713  0.3681
  455MOL0     C59954  -2.094   3.549   7.175  0.1859  0.3822  0.8097
  455MOL0     C59955  -2.224   3.581   7.215 -0.0613 -0.3266  0.5013
  455MOL0     C59956  -2.326   3.601   7.125 -0.5418  0.5994 -0.0368
  455MOL0     C59957  -2.464   3.636   7.168 -0.0241  0.2048  0.4192
  455MOL0     O59958  -2.549   3.654   7.068  0.5184 -0.1808 -0.2744
  455MOL0     C59959  -2.681   3.689   7.087 -0.9969 -0.2583 -0.0047
  455MOL0     C59960  -2.742   3.733   7.210 -0.7589  0.1578  0.5175
  455MOL0     C59961  -2.878   3.772   7.216 -0.1441  0.3133 -0.9339
  455MOL0     C59962  -2.957   3.779   7.100 -0.3171  0.4160 -0.7698
  455MOL0     O59963  -3.082   3.827   7.098 -0.2563 -0.7036  0.4710
  455MOL0     C59964  -3.152   3.821   7.218 -0.1264 -0.3341 -0.9386
  455MOL0     C59965  -3.299   3.855   7.195 -0.4172  0.6982  0.5408
  455MOL0     C59966  -3.365   3.904   7.326 -0.0504  0.3865  0.2573
  455MOL0     C59967  -3.512   3.950   7.301 -0.6770  0.1817 -0.1941
  455MOL0     C59968  -3.572   3.997   7.438 -0.1018  1.0631 -0.1590
  455MOL0     C59969  -3.708   4.055   7.394  0.4410  0.0384  0.3114
  455MOL0     C59970  -3.787   4.113   7.516  0.5158  0.6297 -0.2825
  455MOL0     C59971  -3.812   4.017   7.638 -0.1549  0.3831 -0.2022
  455MOL0    Cl59972  -3.927   3.892   7.579 -0.1617  0.2274 -0.1155
  455MOL0     C59973  -2.895   3.731   6.979 -0.1634  0.7783 -1.2039
  455MOL0     C59974  -2.763   3.688   6.972 -0.5873  1.0205  0.1027
  455MOL0     O59975  -2.486   3.643   7.289  0.2418  0.1915 -0.1037
  455MOL0     C59976  -2.298   3.576   6.990 -0.0810  0.0793 -0.8124
  455MOL0     C59977  -2.168   3.543   6.954 -0.7792  0.6930  0.1128
  455MOL0     N59978  -1.311   3.393   7.284 -0.2886  0.1903 -0.3103
  455MOL0     N59979  -1.186   3.380   7.320  0.8218 -1.4685 -0.3875
  455MOL0     C59980   0.005   3.038   7.155 -1.1868  0.0294  0.2318
  455MOL0     C59981   0.103   2.951   7.120 -0.2280  0.3163  0.0763
  455MOL0     C59982   0.461   2.771   6.929 -0.6598 -0.8993  0.0963
  455MOL0     C59983   0.430   2.639   6.972 -0.1067 -1.0204 -0.5639
  455MOL0     C59984   0.528   2.541   6.953 -0.0328  0.3997 -0.1244
  455MOL0     C59985   0.638   2.561   6.872 -0.2205  0.0649  0.6666
  455MOL0     O59986   0.724   2.454   6.849 -0.4188 -0.0309 -0.2439
  455MOL0     C59987   0.737   2.410   6.712 -0.5870  0.2455 -0.0712
  455MOL0     C59988   0.753   2.255   6.705  0.0740  0.2535 -0.2323
  455MOL0     C59989   0.793   2.198   6.567  0.2970 -0.6176 -0.5317
  455MOL0     C59990   0.828   2.054   6.563 -0.6591 -0.2283 -0.2648
  455MOL0     C59991   0.944   1.996   6.495 -0.1969 -0.2113  0.0613
  455MOL0     C59992   1.035   1.941   6.438  0.1799 -0.2865 -0.3721
  455MOL0     C59993   0.667   2.689   6.821 -0.0704 -0.5944  0.3055
  455MOL0     C59994   0.578   2.801   6.857 -0.2805  0.5542  0.1724
  455MOL0     H59995   0.358   3.159   7.069  1.6233  0.2704  2.7449
  455MOL0     H59996   0.161   3.333   7.131 -0.3454 -0.0099  1.4334
  455MOL0     H59997  -0.241   3.162   7.169  1.2796  0.2627  1.0129
  455MOL0     H59998  -0.197   3.276   7.025 -0.4774 -0.2454  0.4516
  455MOL0     H59999  -0.289   3.454   7.171  0.1554  0.0111 -1.0476
  455MOL0     H60000  -0.300   3.336   7.311  1.1966 -0.5620  0.2074
  455MOL0     H60001  -0.462   3.201   7.186 -1.7841  1.3641  1.9113
  455MOL0     H60002  -0.444   3.305   7.044  0.3929  1.0901  0.0358
  455MOL0     H60003  -0.547   3.402   7.307 -0.0042  2.0530  0.1043
  455MOL0     H60004  -0.529   3.507   7.175  1.7452  0.3767  2.7354
  455MOL0     H60005  -0.702   3.263   7.192  0.7061  0.5778  1.7854
  455MOL0     H60006  -0.687   3.366   7.038  0.4872 -0.8416 -0.8498
  455MOL0     H60007  -0.771   3.565   7.171 -0.9451 -0.1135  0.2979
  455MOL0     H60008  -0.786   3.456   7.315 -2.4126 -2.9602  1.0842
  455MOL0     H60009  -0.988   3.505   7.208 -0.2804  0.2040 -1.6129
  455MOL0     H60010  -0.930   3.440   7.053  2.1268 -1.1168 -0.3927
  455MOL0     H60011  -0.943   3.286   7.313  0.5369  0.3487 -0.0083
  455MOL0     H60012  -0.951   3.211   7.148 -2.1404 -0.5193 -1.2993
  455MOL0     H60013  -1.185   3.208   7.039 -3.4916 -1.4408 -1.0188
  455MOL0     H60014  -1.489   3.212   7.044 -0.6946 -0.5083  2.2028
  455MOL0     H60015  -1.419   3.366   6.980 -0.1293  3.0717  0.2924
  455MOL0     H60016  -1.544   3.495   7.135  1.1287 -0.6038 -2.9109
  455MOL0     H60017  -1.632   3.346   7.209  0.4040 -3.3941 -1.4236
  455MOL0     H60018  -1.680   3.461   6.931 -2.2866  0.4214 -1.6379
  455MOL0     H60019  -1.737   3.305   7.001 -0.5902 -0.5837  2.7652
  455MOL0     H60020  -1.819   3.572   7.132 -2.1772  1.0057 -2.9546
  455MOL0     H60021  -1.869   3.409   7.184  1.4755 -1.3222  0.2735
  455MOL0     H60022  -2.030   3.560   7.262  1.8663 -0.1224 -0.3250
  455MOL0     H60023  -2.238   3.596   7.321 -0.2643 -1.3260  0.6260
  455MOL0     H60024  -2.680   3.753   7.297 -0.4024 -0.8216  0.4917
  455MOL0     H60025  -2.917   3.813   7.309 -1.2069 -2.5419 -0.0073
  455MOL0     H60026  -3.111   3.898   7.283  2.5307 -2.4564  0.0645
  455MOL0     H60027  -3.140   3.722   7.262 -0.0903 -0.6443 -1.6238
  455MOL0     H60028  -3.353   3.767   7.159  3.0145 -0.8989 -1.1496
  455MOL0     H60029  -3.300   3.939   7.126  1.4447 -0.0309 -0.4527
  455MOL0     H60030  -3.301   3.974   7.380 -0.3226 -1.0360  2.5287
  455MOL0     H60031  -3.360   3.817   7.392 -1.2735 -0.9690 -1.3413
  455MOL0     H60032  -3.499   4.031   7.228  0.9249 -0.5244 -0.7556
  455MOL0     H60033  -3.565   3.867   7.254  3.0921 -1.8610 -1.2602
  455MOL0     H60034  -3.506   4.068   7.488  2.0465 -0.5003 -0.6571
  455MOL0     H60035  -3.590   3.907   7.498 -1.8869 -0.6233 -2.9761
  455MOL0     H60036  -3.775   3.979   7.352 -2.1058  1.7453  1.0167
  455MOL0     H60037  -3.683   4.126   7.314 -0.2334 -0.4624 -0.3634
  455MOL0     H60038  -3.747   4.205   7.559 -3.2206  1.4218  1.9476
  455MOL0     H60039  -3.883   4.154   7.480  0.8132  3.2313  1.5820
  455MOL0     H60040  -3.861   4.072   7.719 -1.1048 -0.2852 -0.2953
  455MOL0     H60041  -3.724   3.960   7.667 -1.3879 -0.9551  1.0531
  455MOL0     H60042  -2.943   3.734   6.882 -1.7045 -0.1094 -0.4967
  455MOL0     H60043  -2.720   3.665   6.875 -1.0963  0.5793 -0.0267
  455MOL0     H60044  -2.378   3.585   6.917 -0.5776  0.7066 -0.2043
  455MOL0     H60045  -2.145   3.519   6.850 -2.5916 -0.1346 -0.1367
  455MOL0     H60046  -0.095   2.996   7.158 -1.2875 -0.2502 -3.1702
  455MOL0     H60047   0.086   2.844   7.107  1.7532 -0.3710  2.3457
  455MOL0     H60048   0.348   2.618   7.040  1.1285 -0.7921  1.0360
  455MOL0     H60049   0.524   2.442   6.998  1.1523 -0.0733 -0.9871
  455MOL0     H60050   0.831   2.458   6.685 -0.5306  0.5465  0.6370
  455MOL0     H60051   0.654   2.452   6.653 -1.1616  1.1502  1.3321
  455MOL0     H60052   0.841   2.225   6.762  0.8891 -2.1932 -2.5247
  455MOL0     H60053   0.666   2.201   6.745  1.1294  0.6811  2.9271
  455MOL0     H60054   0.884   2.257   6.552  2.8593 -2.9492  3.9656
  455MOL0     H60055   0.712   2.218   6.496 -1.1025  0.1800  1.2294
  455MOL0     H60056   0.844   2.034   6.670 -0.5926  1.8939  0.1587
  455MOL0     H60057   0.738   1.996   6.541 -1.3864  1.0080 -0.6306
  455MOL0     H60058   1.123   1.891   6.403  2.1349  1.8720  1.1663
  455MOL0     H60059   0.743   2.702   6.745 -2.0974 -2.8449 -2.3170
  455MOL0     H60060   0.595   2.903   6.824  1.0455 -0.2741 -1.9311
  456MOL0     O60061   4.405   5.680   1.487 -1.4650  0.0102  0.2071
  456MOL0     C60062   4.480   5.616   1.413 -0.4496  0.2934 -0.0486
  456MOL0     O60063   4.432   5.525   1.319 -0.6973 -0.6585 -0.0845
  456MOL0     C60064   4.297   5.512   1.313  0.5332 -0.0117  0.2671
  456MOL0     C60065   4.251   5.485   1.181  0.3756  0.0662  0.6856
  456MOL0     C60066   4.124   5.441   1.156 -0.3862  0.2860 -0.0786
  456MOL0     C60067   4.056   5.389   1.264  0.4958 -0.1596  0.4184
  456MOL0     O60068   3.938   5.321   1.241  0.0246  0.0168  0.0273
  456MOL0     C60069   3.895   5.223   1.343  0.1087 -0.2787 -0.0869
  456MOL0     C60070   3.781   5.147   1.279 -0.4760  1.2193  0.4624
  456MOL0     C60071   3.695   5.051   1.368  0.2890 -0.3374  0.1217
  456MOL0     C60072   3.574   5.000   1.300 -0.3621 -0.9828 -0.7008
  456MOL0     C60073   3.472   5.107   1.255  0.0032  0.0657  0.9217
  456MOL0     C60074   3.423   5.187   1.374 -0.2168 -0.0920 -0.0289
  456MOL0     C60075   3.348   5.312   1.338 -0.1966 -1.3207 -0.1883
  456MOL0     C60076   3.241   5.291   1.237  0.0906  0.5648  0.3863
  456MOL0     N60077   3.172   5.419   1.216 -0.6347  0.1607 -0.2425
  456MOL0     C60078   3.079   5.484   1.303 -0.1072  0.3780 -0.2507
  456MOL0     C60079   3.056   5.605   1.249 -0.0859  0.0150  0.4027
  456MOL0     C60080   2.960   5.710   1.301 -0.2633 -0.8903 -0.0128
  456MOL0     C60081   2.819   5.644   1.315  0.3962 -0.0392 -0.6772
  456MOL0     C60082   2.732   5.732   1.402 -0.2949 -0.1017 -0.1561
  456MOL0     C60083   2.593   5.751   1.338  0.1311 -0.8614  0.3521
  456MOL0     O60084   2.527   5.845   1.425  0.0576 -0.8655 -0.4069
  456MOL0     C60085   2.413   5.899   1.368  0.5061 -0.1064 -0.3238
  456MOL0     C60086   2.343   5.851   1.251 -0.0593 -0.0937 -0.3339
  456MOL0     C60087   2.216   5.898   1.234  0.9528  0.3359  0.1073
  456MOL0     C60088   2.155   5.990   1.317  0.2227  1.1661 -0.4620
  456MOL0     C60089   2.024   6.046   1.289 -0.3521 -0.4846  0.0847
  456MOL0     O60090   1.987   6.157   1.349 -0.0632 -0.2058 -0.0581
  456MOL0     C60091   1.879   6.238   1.300 -0.6617 -0.5479  0.7778
  456MOL0     C60092   1.796   6.305   1.394 -0.0383 -0.0631  0.0795
  456MOL0     C60093   1.683   6.376   1.352 -0.1362 -0.3703  0.1400
  456MOL0     C60094   1.649   6.383   1.215 -1.0231  0.2587 -0.8536
  456MOL0     O60095   1.522   6.435   1.170 -0.1035  0.0102  0.3136
  456MOL0     C60096   1.432   6.345   1.099  0.5497 -0.1562  0.9422
  456MOL0     C60097   1.312   6.433   1.053 -0.3608  0.5099  0.2712
  456MOL0     C60098   1.183   6.355   0.999 -0.5921 -0.2267  0.9777
  456MOL0     C60099   1.077   6.459   0.943 -0.7438 -0.1703 -0.2097
  456MOL0     C60100   0.954   6.399   0.871 -0.9918 -0.5128 -0.2584
  456MOL0     C60101   0.862   6.519   0.838 -0.2308  0.5957  0.5624
  456MOL0     C60102   0.723   6.463   0.799 -0.7262  0.0173 -0.5165
  456MOL0     C60103   0.621   6.580   0.781  0.0315  0.5582 -0.5148
  456MOL0    Cl60104   0.669   6.678   0.640  0.0274  0.3654  0.0940
  456MOL0     C60105   1.734   6.318   1.128 -0.2593 -0.8245 -0.6233
  456MOL0     C60106   1.848   6.253   1.171 -1.5193 -0.3860 -0.5805
  456MOL0     O60107   1.971   5.995   1.189  0.3429 -0.1136 -0.2190
  456MOL0     C60108   2.231   6.048   1.421  0.5189 -0.8086  0.0231
  456MOL0     C60109   2.357   5.995   1.450  0.1888  0.0836 -0.4117
  456MOL0     N60110   3.127   5.612   1.130 -0.4857 -0.0318  0.3076
  456MOL0     N60111   3.212   5.510   1.124  0.3535 -0.4952 -0.0992
  456MOL0     C60112   4.112   5.400   1.391  0.7469  0.0288 -0.8782
  456MOL0     C60113   4.236   5.459   1.424  0.1528  0.6150 -0.2224
  456MOL0     C60114   4.624   5.626   1.434  0.1858 -0.1636 -0.9028
  456MOL0     C60115   4.683   5.723   1.521  0.6663  0.0690 -0.2247
  456MOL0     C60116   4.811   5.733   1.564  0.3112  1.4865 -0.8367
  456MOL0     C60117   4.902   5.631   1.519  0.6327  0.1994 -0.4181
  456MOL0     O60118   5.028   5.630   1.567 -0.8558  0.3394 -0.1022
  456MOL0     C60119   5.113   5.701   1.467 -0.3820  1.1392 -0.0018
  456MOL0     C60120   5.259   5.677   1.512  0.7831  0.5406 -0.6010
  456MOL0     C60121   5.328   5.815   1.535  0.1539 -0.3965  0.6299
  456MOL0     C60122   5.461   5.792   1.592 -1.3633  0.7695 -0.9824
  456MOL0     C60123   5.542   5.903   1.565 -1.0195  0.1022  0.6485
  456MOL0     C60124   5.618   5.994   1.540  0.1656  0.9803  0.4560
  456MOL0     C60125   4.854   5.529   1.430  0.4284 -0.2301  0.3256
  456MOL0     C60126   4.720   5.529   1.391  0.3840  0.3204  0.2247
  456MOL0     H60127   4.323   5.491   1.100 -2.0123  4.8373 -1.4807
  456MOL0     H60128   4.096   5.426   1.052  1.2802  0.6262 -0.6129
  456MOL0     H60129   3.865   5.278   1.433  4.2744  0.2246  1.1777
  456MOL0     H60130   3.971   5.153   1.378  0.0322  0.9873  2.8687
  456MOL0     H60131   3.834   5.075   1.216  0.8270  0.8640  1.9087
  456MOL0     H60132   3.730   5.213   1.209  2.1882  1.8340 -1.0157
  456MOL0     H60133   3.674   5.103   1.462  0.7046  1.6605 -0.8239
  456MOL0     H60134   3.761   4.968   1.395  2.6576  0.5976 -2.3454
  456MOL0     H60135   3.606   4.939   1.215 -0.7388 -2.4060  0.1515
  456MOL0     H60136   3.526   4.940   1.378 -1.8747  3.1706  1.9531
  456MOL0     H60137   3.389   5.053   1.208  0.5864  1.0973 -1.4537
  456MOL0     H60138   3.518   5.169   1.178 -0.7737  0.9524  1.1473
  456MOL0     H60139   3.511   5.221   1.429 -1.6120  1.3779  1.3965
  456MOL0     H60140   3.372   5.122   1.446  0.6137  1.0405  1.6409
  456MOL0     H60141   3.292   5.348   1.425  1.0416 -3.1612  1.4682
  456MOL0     H60142   3.411   5.389   1.293 -0.5042 -1.4675 -0.8735
  456MOL0     H60143   3.173   5.215   1.278 -2.1547  1.1351 -1.9619
  456MOL0     H60144   3.282   5.249   1.144  1.4642  0.3230  1.0809
  456MOL0     H60145   3.029   5.449   1.393  3.3460 -2.0786  0.9411
  456MOL0     H60146   2.961   5.790   1.226  1.8934 -2.0174 -1.3108
  456MOL0     H60147   2.978   5.748   1.402 -0.2214  0.9339 -0.6660
  456MOL0     H60148   2.822   5.545   1.361 -3.7086 -0.4959 -1.0866
  456MOL0     H60149   2.774   5.632   1.216 -2.2647 -1.6781  0.6233
  456MOL0     H60150   2.715   5.689   1.501  2.4403  0.8643  0.8464
  456MOL0     H60151   2.778   5.831   1.410  0.5485 -0.5023  0.1553
  456MOL0     H60152   2.526   5.666   1.325 -1.7675  0.8622 -1.8760
  456MOL0     H60153   2.595   5.783   1.234 -2.2666 -4.0410 -0.8442
  456MOL0     H60154   2.389   5.788   1.176 -3.3080 -1.9969 -0.9147
  456MOL0     H60155   2.156   5.868   1.148 -2.5691  1.0516  2.1269
  456MOL0     H60156   1.819   6.298   1.500  2.2806 -0.2165 -0.3767
  456MOL0     H60157   1.624   6.436   1.421 -0.9703 -0.5929 -0.3603
  456MOL0     H60158   1.406   6.259   1.161  1.5563 -0.2709  1.2221
  456MOL0     H60159   1.477   6.295   1.014 -0.9688 -0.7656  0.4712
  456MOL0     H60160   1.344   6.505   0.978  0.6328  0.5993  0.7559
  456MOL0     H60161   1.289   6.500   1.137 -3.1485  2.4164 -1.8342
  456MOL0     H60162   1.141   6.293   1.078  1.7120 -0.6824  1.9298
  456MOL0     H60163   1.216   6.286   0.922 -1.0148 -0.0417  0.6237
  456MOL0     H60164   1.056   6.523   1.029  1.5912  1.3922 -0.7076
  456MOL0     H60165   1.134   6.520   0.873 -1.3778  0.4735 -0.1693
  456MOL0     H60166   0.911   6.343   0.954  3.2989 -0.0032  2.6391
  456MOL0     H60167   0.973   6.329   0.789  2.1775 -2.0573  1.6003
  456MOL0     H60168   0.897   6.583   0.757 -1.3300  1.7190  0.9250
  456MOL0     H60169   0.853   6.573   0.933 -1.8467  0.5347  0.4870
  456MOL0     H60170   0.730   6.404   0.706  1.2941 -1.9634  0.7852
  456MOL0     H60171   0.692   6.397   0.881 -1.3458 -1.3696 -1.8080
  456MOL0     H60172   0.622   6.650   0.865  3.5722  0.4895 -0.3600
  456MOL0     H60173   0.521   6.536   0.774  0.8186 -1.2898 -0.7013
  456MOL0     H60174   1.716   6.320   1.020  1.0463 -0.2152 -0.8488
  456MOL0     H60175   1.920   6.220   1.097  1.5167  2.6008  0.7599
  456MOL0     H60176   2.196   6.139   1.470 -0.7271 -0.9581 -0.5750
  456MOL0     H60177   2.407   6.035   1.538 -3.7398  4.2309  0.2908
  456MOL0     H60178   4.066   5.361   1.481  2.6958 -0.5066 -0.0414
  456MOL0     H60179   4.285   5.484   1.518  1.6517  0.1166 -0.8404
  456MOL0     H60180   4.623   5.808   1.551 -3.4327 -2.7443  0.4386
  456MOL0     H60181   4.845   5.804   1.640 -0.5846 -0.1095  1.1397
  456MOL0     H60182   5.094   5.808   1.455  0.1303  1.1688 -0.5806
  456MOL0     H60183   5.098   5.654   1.369 -2.7233  2.9074 -0.5597
  456MOL0     H60184   5.271   5.609   1.597  0.5590  0.0029 -0.9944
  456MOL0     H60185   5.319   5.627   1.435  2.6862  1.0854  0.4733
  456MOL0     H60186   5.261   5.877   1.595 -1.2121  0.6108 -1.7858
  456MOL0     H60187   5.336   5.864   1.437 -1.4162 -2.2210 -0.4824
  456MOL0     H60188   5.465   5.779   1.701  3.2959  1.3306 -0.8796
  456MOL0     H60189   5.508   5.704   1.546  2.2861  2.8516 -1.6266
  456MOL0     H60190   5.682   6.079   1.528  2.7141 -1.1176 -2.4349
  456MOL0     H60191   4.925   5.457   1.390  0.7884  1.4051 -2.1764
  456MOL0     H60192   4.687   5.461   1.313  1.1871 -0.0424  0.1844
  457MOL0     O60193   0.229   3.194   9.221  0.6599  0.2330  0.0929
  457MOL0     C60194   0.175   3.099   9.163  0.0420  0.3297  0.2817
  457MOL0     O60195   0.044   3.063   9.169  0.0805 -0.2446  0.8233
  457MOL0     C60196  -0.042   3.126   9.254 -0.1713  0.6146 -0.5648
  457MOL0     C60197  -0.135   3.050   9.326 -0.6417  0.8593 -0.7857
  457MOL0     C60198  -0.226   3.112   9.412  0.5165  0.3978 -0.2491
  457MOL0     C60199  -0.243   3.251   9.430 -1.0667  0.1925  0.2361
  457MOL0     O60200  -0.339   3.300   9.507  0.4303 -0.3984  0.5409
  457MOL0     C60201  -0.292   3.324   9.638 -0.8598  0.4573 -0.8618
  457MOL0     C60202  -0.391   3.421   9.701  0.2057  0.5000 -0.0577
  457MOL0     C60203  -0.539   3.372   9.723 -0.7821 -0.0118 -0.1364
  457MOL0     C60204  -0.621   3.458   9.824  0.1680 -0.1345 -0.1662
  457MOL0     C60205  -0.771   3.426   9.843  0.9861  1.4293 -0.5044
  457MOL0     C60206  -0.847   3.506   9.950 -0.7002 -0.3026  0.1104
  457MOL0     C60207  -0.973   3.431   9.979  0.6215 -0.5977 -0.9457
  457MOL0     C60208  -1.061   3.500  10.094  0.0731 -0.1290 -0.0401
  457MOL0     N60209  -1.140   3.603  10.026  0.7385 -0.5884  0.3642
  457MOL0     C60210  -1.253   3.584   9.955  0.8452 -0.1246 -0.7569
  457MOL0     C60211  -1.273   3.703   9.890  0.3388  0.4608 -0.3395
  457MOL0     C60212  -1.372   3.738   9.779  0.4058  0.3442  0.3264
  457MOL0     C60213  -1.515   3.730   9.826 -0.4524 -0.0517  0.1685
  457MOL0     C60214  -1.549   3.831   9.933  0.0742  0.5673 -0.3672
  457MOL0     C60215  -1.686   3.805   9.990 -0.3099  0.1776 -0.6234
  457MOL0     O60216  -1.773   3.867   9.893  0.2424  0.0946  0.0398
  457MOL0     C60217  -1.909   3.863   9.913 -0.4608 -0.7810 -0.6926
  457MOL0     C60218  -2.000   3.916   9.814 -1.7374 -1.3846  0.3409
  457MOL0     C60219  -2.140   3.925   9.833  1.3056  0.5812 -0.3417
  457MOL0     C60220  -2.201   3.880   9.953 -1.0274  0.4537  0.1528
  457MOL0     C60221  -2.349   3.889   9.972 -0.5211  0.1012 -1.0331
  457MOL0     O60222  -2.389   3.866  10.105 -0.3017 -0.2443  0.0210
  457MOL0     C60223  -2.520   3.881  10.138 -0.0646 -0.0737  1.0583
  457MOL0     C60224  -2.557   3.839  10.268  0.0177 -0.8957  0.1518
  457MOL0     C60225  -2.687   3.865  10.318  0.1796 -0.5372  0.2027
  457MOL0     C60226  -2.780   3.931  10.240  0.5029  0.4893  0.2811
  457MOL0     O60227  -2.898   3.963  10.297 -0.3531 -0.2869 -0.0275
  457MOL0     C60228  -3.007   3.883  10.270  0.7995 -0.0271 -0.0961
  457MOL0     C60229  -3.130   3.956  10.236  0.0571 -0.1326  0.3626
  457MOL0     C60230  -3.117   4.016  10.089  0.5529 -0.1302  0.2102
  457MOL0     C60231  -3.254   4.073  10.053 -0.6599  0.1357 -0.7548
  457MOL0     C60232  -3.363   3.977  10.001 -0.4532 -0.3496 -0.4392
  457MOL0     C60233  -3.498   4.005  10.059 -0.3315 -0.6450  0.0480
  457MOL0     C60234  -3.600   3.901  10.013 -1.1288  1.1764  0.6749
  457MOL0     C60235  -3.666   3.924   9.885 -0.1274  0.4063 -0.0586
  457MOL0    Cl60236  -3.731   4.087   9.875  0.0679  0.0190  0.2843
  457MOL0     C60237  -2.755   3.959  10.109 -0.5331 -0.1562  0.5227
  457MOL0     C60238  -2.628   3.941  10.059  1.6473 -0.2157 -0.2353
  457MOL0     O60239  -2.423   3.880   9.875 -0.1065 -0.4208  0.0112
  457MOL0     C60240  -2.118   3.802  10.040  0.3206  0.0079 -0.2121
  457MOL0     C60241  -1.975   3.800  10.027 -0.2278  0.5080 -0.5460
  457MOL0     N60242  -1.185   3.792   9.941  0.0113 -0.8840 -0.3053
  457MOL0     N60243  -1.110   3.734  10.024  1.0588 -0.3303  0.0625
  457MOL0     C60244  -0.153   3.329   9.353 -0.4606 -0.1324 -0.2741
  457MOL0     C60245  -0.056   3.262   9.266  1.4060 -1.6235  1.1347
  457MOL0     C60246   0.261   3.015   9.076 -0.3839 -0.2377 -0.2625
  457MOL0     C60247   0.218   2.952   8.957  0.1243 -0.1595  0.3131
  457MOL0     C60248   0.303   2.899   8.864 -0.0177  0.0106  0.4203
  457MOL0     C60249   0.440   2.907   8.889 -0.6488 -0.2629  0.4629
  457MOL0     O60250   0.530   2.870   8.796  0.4190 -0.7623  0.1078
  457MOL0     C60251   0.670   2.873   8.807  0.2373 -0.3717 -0.4977
  457MOL0     C60252   0.728   2.737   8.844 -0.3309  0.3936 -0.5756
  457MOL0     C60253   0.714   2.691   8.989 -0.3440 -0.5210 -0.1346
  457MOL0     C60254   0.821   2.745   9.085 -0.4144 -0.4613  0.1979
  457MOL0     C60255   0.944   2.671   9.069  0.4011  0.4016  0.4865
  457MOL0     C60256   1.041   2.602   9.048  0.6223 -0.6458  0.1207
  457MOL0     C60257   0.492   2.966   9.008  0.6222  0.2570 -0.8340
  457MOL0     C60258   0.402   3.011   9.104  0.1221 -0.3760 -0.8670
  457MOL0     H60259  -0.147   2.944   9.305 -2.4988  1.2894 -2.2154
  457MOL0     H60260  -0.298   3.048   9.464  1.1141 -1.0463 -1.1235
  457MOL0     H60261  -0.189   3.359   9.646 -0.7037 -0.3423  1.7692
  457MOL0     H60262  -0.290   3.233   9.699 -3.8952  0.9831  0.1806
  457MOL0     H60263  -0.398   3.516   9.647 -0.6192  2.2785  2.9373
  457MOL0     H60264  -0.360   3.444   9.804 -2.7383  2.2022  0.5495
  457MOL0     H60265  -0.531   3.263   9.738  3.8010 -0.0037 -1.0215
  457MOL0     H60266  -0.595   3.376   9.629 -0.0248 -0.7099 -0.6388
  457MOL0     H60267  -0.577   3.452   9.925 -1.4988 -0.5932  0.5618
  457MOL0     H60268  -0.619   3.560   9.785  1.1414 -0.7981 -1.9892
  457MOL0     H60269  -0.777   3.318   9.857  0.4071  1.4932 -0.1947
  457MOL0     H60270  -0.830   3.426   9.751 -0.4142 -3.8580  0.0570
  457MOL0     H60271  -0.863   3.611   9.926  0.5378 -0.0795  0.1496
  457MOL0     H60272  -0.779   3.491  10.034 -0.0537  0.6306 -0.2323
  457MOL0     H60273  -1.031   3.417   9.887  3.7299 -1.0406 -3.0344
  457MOL0     H60274  -0.959   3.328  10.013  0.0486 -0.4969 -0.3900
  457MOL0     H60275  -0.995   3.530  10.176 -0.5578 -1.3995  0.9537
  457MOL0     H60276  -1.125   3.427  10.142  1.3085 -1.7605 -0.7649
  457MOL0     H60277  -1.320   3.499   9.943 -1.9258  1.7574  0.1950
  457MOL0     H60278  -1.362   3.671   9.694 -0.2511  2.8322 -1.8442
  457MOL0     H60279  -1.341   3.838   9.747  2.6262 -0.1397  0.7889
  457MOL0     H60280  -1.536   3.631   9.869 -1.1823  0.9945  2.3967
  457MOL0     H60281  -1.576   3.750   9.738 -1.1805 -1.0819  0.4164
  457MOL0     H60282  -1.475   3.841  10.013 -1.0829 -1.7255  1.0979
  457MOL0     H60283  -1.556   3.928   9.883 -2.9834  0.7586  0.2632
  457MOL0     H60284  -1.702   3.867  10.079 -0.4400  0.7069 -1.0059
  457MOL0     H60285  -1.716   3.702  10.009  1.0631 -0.1874 -0.3967
  457MOL0     H60286  -1.959   3.971   9.730  1.2128 -1.5843  1.4997
  457MOL0     H60287  -2.205   3.956   9.752  0.4832 -1.2697 -0.4256
  457MOL0     H60288  -2.476   3.802  10.329 -0.2023  1.1980  1.8408
  457MOL0     H60289  -2.717   3.827  10.415 -0.4963  2.1341  1.1323
  457MOL0     H60290  -3.042   3.823  10.355 -0.9391  1.5033  0.3332
  457MOL0     H60291  -2.980   3.816  10.188  0.9761 -1.0992  0.8102
  457MOL0     H60292  -3.149   4.035  10.310 -1.9514 -1.3352  1.2118
  457MOL0     H60293  -3.215   3.887  10.237 -1.0563  1.1993  0.7433
  457MOL0     H60294  -3.074   3.946  10.016  0.9512 -0.5921  0.8738
  457MOL0     H60295  -3.052   4.103  10.095 -0.9958  0.9875  2.0178
  457MOL0     H60296  -3.304   4.119  10.138  0.3680  1.9804 -1.1090
  457MOL0     H60297  -3.233   4.158   9.988 -0.0300 -0.3796 -1.2357
  457MOL0     H60298  -3.330   3.880  10.041 -1.1661  0.0849  1.2825
  457MOL0     H60299  -3.367   3.979   9.892  2.4025 -0.5181 -0.6391
  457MOL0     H60300  -3.521   4.108  10.029 -1.0767 -1.0584 -0.8628
  457MOL0     H60301  -3.497   4.002  10.168 -2.8781  1.1944  0.1943
  457MOL0     H60302  -3.548   3.806   9.994 -1.9210  1.0483 -1.1061
  457MOL0     H60303  -3.675   3.888  10.092  0.2907 -2.4634  1.6082
  457MOL0     H60304  -3.752   3.857   9.876 -0.3687  0.7583 -0.4145
  457MOL0     H60305  -3.595   3.914   9.802 -1.1027 -2.4078 -0.6581
  457MOL0     H60306  -2.839   4.006  10.059  1.1188  1.8094 -0.5736
  457MOL0     H60307  -2.630   3.991   9.962  2.3018  3.0958  1.3211
  457MOL0     H60308  -2.168   3.762  10.127  2.3299  1.1632  1.5742
  457MOL0     H60309  -1.911   3.744  10.094 -2.3012 -1.7812 -0.3411
  457MOL0     H60310  -0.173   3.435   9.340  0.5196  0.0914 -0.0558
  457MOL0     H60311  -0.000   3.323   9.195 -0.5416  1.0349  1.7320
  457MOL0     H60312   0.112   2.954   8.933 -0.3655 -1.1263  2.1624
  457MOL0     H60313   0.263   2.845   8.778 -1.4045  0.0186  1.0324
  457MOL0     H60314   0.712   2.947   8.876 -1.5536  0.0324  0.1982
  457MOL0     H60315   0.699   2.908   8.707 -1.5505  0.4197 -0.7723
  457MOL0     H60316   0.696   2.664   8.770 -2.1512 -0.2994  0.8187
  457MOL0     H60317   0.835   2.755   8.827 -0.0987 -0.2392  0.1262
  457MOL0     H60318   0.722   2.582   8.996  1.6017 -0.3703  0.4192
  457MOL0     H60319   0.613   2.724   9.014 -0.4111  0.5440 -1.6458
  457MOL0     H60320   0.849   2.848   9.063  0.6491  0.2215  4.0111
  457MOL0     H60321   0.792   2.759   9.189  0.5409  2.2807  0.1811
  457MOL0     H60322   1.132   2.553   9.022  0.6523 -0.8830  0.6677
  457MOL0     H60323   0.595   2.985   9.035  0.3867 -0.5653  0.7622
  457MOL0     H60324   0.451   3.051   9.192  0.2698 -2.1650 -0.0858
  458MOL0     O60325   6.366   0.999   2.690 -0.0612  0.9850 -0.4394
  458MOL0     C60326   6.379   1.116   2.719  0.6014 -0.0771 -0.4703
  458MOL0     O60327   6.274   1.199   2.752 -0.4507 -0.4061 -0.0075
  458MOL0     C60328   6.139   1.166   2.741  0.3548  0.0827 -0.4732
  458MOL0     C60329   6.077   1.052   2.686  1.0381  0.4453  0.6383
  458MOL0     C60330   5.938   1.035   2.666  0.2317 -0.9836 -0.3651
  458MOL0     C60331   5.858   1.140   2.720  0.6850  0.9812  0.0472
  458MOL0     O60332   5.718   1.142   2.706 -0.2644  0.0912 -0.8258
  458MOL0     C60333   5.653   1.019   2.694 -0.3667 -0.1692  0.4772
  458MOL0     C60334   5.504   1.043   2.745  0.1132 -0.2514 -0.2903
  458MOL0     C60335   5.444   1.179   2.722  0.3277 -0.7336  0.5119
  458MOL0     C60336   5.302   1.193   2.775  0.0450 -0.4441  0.2203
  458MOL0     C60337   5.251   1.336   2.752 -0.5668  0.3754 -0.1454
  458MOL0     C60338   5.124   1.346   2.840 -0.0204  0.2196  0.6112
  458MOL0     C60339   5.127   1.484   2.912 -0.5879 -0.6069 -0.2045
  458MOL0     C60340   4.988   1.537   2.959 -0.2065  0.2436 -0.2305
  458MOL0     N60341   4.943   1.481   3.089  0.8681  0.2343  0.7343
  458MOL0     C60342   4.908   1.567   3.186 -0.0759  0.4661  0.9816
  458MOL0     C60343   4.923   1.490   3.295 -0.0395 -0.6548 -0.0118
  458MOL0     C60344   4.877   1.521   3.433 -0.3767 -0.5349 -0.3169
  458MOL0     C60345   4.957   1.640   3.484  0.7629  0.4057  0.3210
  458MOL0     C60346   4.923   1.675   3.625 -0.3990  1.4674  0.3123
  458MOL0     C60347   4.904   1.827   3.656 -0.7291 -0.6373  0.4991
  458MOL0     O60348   4.783   1.882   3.599  0.6622  0.2487  0.0280
  458MOL0     C60349   4.663   1.849   3.654  0.3042  0.0429 -0.1778
  458MOL0     C60350   4.639   1.775   3.781 -0.1242  0.1037  0.0884
  458MOL0     C60351   4.507   1.750   3.821 -1.0923 -0.0911 -0.3759
  458MOL0     C60352   4.391   1.775   3.748  0.4065 -0.8158 -0.1449
  458MOL0     C60353   4.252   1.738   3.791 -0.3438  0.7016  0.4973
  458MOL0     O60354   4.237   1.709   3.924 -0.4959 -0.3613  0.9665
  458MOL0     C60355   4.111   1.696   3.970 -0.1089 -0.0582  0.1992
  458MOL0     C60356   4.029   1.584   3.937  0.2498 -1.4207 -0.5049
  458MOL0     C60357   3.904   1.556   3.991  0.3481 -0.2851 -0.1947
  458MOL0     C60358   3.850   1.651   4.075 -0.3099  0.4193  0.1938
  458MOL0     O60359   3.721   1.635   4.105  0.1428  0.3567 -0.4851
  458MOL0     C60360   3.680   1.650   4.248 -0.4707  0.2634 -0.0277
  458MOL0     C60361   3.539   1.704   4.267 -0.4200  0.2159 -0.4373
  458MOL0     C60362   3.542   1.851   4.321 -0.0738 -0.4823 -0.7576
  458MOL0     C60363   3.399   1.896   4.361 -0.2870  0.5618  0.6501
  458MOL0     C60364   3.334   1.815   4.465 -0.5996  0.8517 -1.0354
  458MOL0     C60365   3.214   1.902   4.512 -0.9708  0.0234  0.2181
  458MOL0     C60366   3.108   1.831   4.582  1.1074  0.1235 -0.3768
  458MOL0     C60367   3.145   1.756   4.714 -0.7839 -0.2821  0.5875
  458MOL0    Cl60368   2.991   1.695   4.773  0.1475  0.0057  0.1237
  458MOL0     C60369   3.918   1.769   4.095 -0.3723  0.0737  0.2162
  458MOL0     C60370   4.049   1.785   4.050  0.3190  0.0485 -0.5849
  458MOL0     O60371   4.173   1.734   3.696  0.2904 -0.4404 -0.1924
  458MOL0     C60372   4.414   1.850   3.632 -0.6455  0.4643  0.7029
  458MOL0     C60373   4.548   1.881   3.585  0.3878  0.0886  0.2602
  458MOL0     N60374   4.966   1.361   3.265 -0.2652 -0.5160 -0.8290
  458MOL0     N60375   4.984   1.363   3.144 -1.1111  0.6154  0.3098
  458MOL0     C60376   5.914   1.248   2.782 -0.7564  0.2145 -0.4462
  458MOL0     C60377   6.055   1.264   2.796  0.5586 -0.2282  0.4109
  458MOL0     C60378   6.516   1.178   2.715  0.3608 -0.2982 -0.5332
  458MOL0     C60379   6.622   1.097   2.674 -0.1256 -0.3747 -0.1597
  458MOL0     C60380   6.753   1.153   2.667  0.2650  0.7381  0.1173
  458MOL0     C60381   6.790   1.279   2.713  0.1516 -0.0194 -0.3589
  458MOL0     O60382   6.919   1.322   2.699 -0.4310  0.9671  0.2989
  458MOL0     C60383   6.948   1.459   2.729  0.0082  0.1022  0.2073
  458MOL0     C60384   7.079   1.497   2.671 -0.1578 -0.6191 -0.0532
  458MOL0     C60385   7.197   1.405   2.702 -0.7282  0.4294 -0.3348
  458MOL0     C60386   7.279   1.427   2.827  0.0632 -0.5709  0.0129
  458MOL0     C60387   7.347   1.560   2.824  0.1245  1.1317 -0.0023
  458MOL0     C60388   7.409   1.669   2.811  1.1220  0.0647 -0.4301
  458MOL0     C60389   6.683   1.348   2.769 -0.0664  0.8064  0.2384
  458MOL0     C60390   6.557   1.298   2.777  0.3645 -0.8750 -0.0930
  458MOL0     H60391   6.130   0.965   2.647 -1.9932 -0.9778 -0.6303
  458MOL0     H60392   5.899   0.948   2.614 -2.1777 -0.2686  0.0955
  458MOL0     H60393   5.705   0.932   2.736 -1.7032  0.1882  3.0871
  458MOL0     H60394   5.642   1.014   2.585  1.4457 -0.0767  0.2612
  458MOL0     H60395   5.497   1.027   2.853 -3.5965  1.2987 -0.1412
  458MOL0     H60396   5.435   0.978   2.689  0.9850  0.3751 -2.1754
  458MOL0     H60397   5.457   1.214   2.619  1.0400 -0.4904  0.6739
  458MOL0     H60398   5.509   1.254   2.769 -0.9474  0.2028  0.8419
  458MOL0     H60399   5.236   1.130   2.714  1.2289 -1.8569  0.3257
  458MOL0     H60400   5.301   1.172   2.882  0.6357  0.5905  0.4456
  458MOL0     H60401   5.232   1.356   2.646 -2.8419 -2.5818 -0.4513
  458MOL0     H60402   5.325   1.408   2.788  0.7406 -0.9980  0.0097
  458MOL0     H60403   5.111   1.265   2.913 -0.8482  0.9310  1.2709
  458MOL0     H60404   5.039   1.337   2.772  1.0543  1.5294 -0.9782
  458MOL0     H60405   5.173   1.466   3.009  0.0826 -2.5118 -0.8222
  458MOL0     H60406   5.166   1.562   2.845 -0.0031 -1.5556 -1.0115
  458MOL0     H60407   4.923   1.499   2.879  0.8658 -1.0263 -0.5425
  458MOL0     H60408   4.992   1.646   2.958 -0.2855  0.2881 -3.0151
  458MOL0     H60409   4.882   1.671   3.173 -1.0156  0.2635  1.2155
  458MOL0     H60410   4.892   1.435   3.499 -0.7970  0.7270  1.4937
  458MOL0     H60411   4.773   1.555   3.428  0.9242  4.0370 -0.6195
  458MOL0     H60412   4.939   1.715   3.406  0.3850 -1.2446 -1.2634
  458MOL0     H60413   5.065   1.629   3.472  0.8680  1.4289  0.2503
  458MOL0     H60414   4.839   1.612   3.656  0.7814 -1.6833 -2.3561
  458MOL0     H60415   5.003   1.648   3.695 -2.2315  0.2371  2.0230
  458MOL0     H60416   4.988   1.886   3.620 -1.4339  2.0435  2.8635
  458MOL0     H60417   4.899   1.848   3.763 -1.3507  1.6118  0.0830
  458MOL0     H60418   4.714   1.748   3.854  0.0967  1.0493  0.2160
  458MOL0     H60419   4.508   1.706   3.921 -0.7945  1.1103  0.1686
  458MOL0     H60420   4.062   1.513   3.862 -1.8834 -0.3674 -2.5868
  458MOL0     H60421   3.851   1.461   3.980  1.2637 -1.2662  2.9149
  458MOL0     H60422   3.755   1.688   4.317  0.8034 -2.7216  0.4103
  458MOL0     H60423   3.669   1.542   4.263  2.9154 -0.0542  0.8365
  458MOL0     H60424   3.487   1.632   4.331  3.8137 -3.1603 -0.3393
  458MOL0     H60425   3.495   1.699   4.166  1.0679 -2.3945 -1.0302
  458MOL0     H60426   3.587   1.913   4.243  3.5938  0.2836  1.7283
  458MOL0     H60427   3.612   1.855   4.405  0.0552 -0.4156 -0.8665
  458MOL0     H60428   3.409   1.998   4.398  1.6534  0.6315  0.0398
  458MOL0     H60429   3.334   1.889   4.273 -0.9642 -0.6320  1.2196
  458MOL0     H60430   3.390   1.785   4.554 -0.2689 -0.4424 -1.6570
  458MOL0     H60431   3.294   1.723   4.420  2.3300 -1.1213  0.1064
  458MOL0     H60432   3.176   1.944   4.419  0.8224 -2.0599 -1.5950
  458MOL0     H60433   3.239   1.991   4.571 -1.7200 -0.1740  0.8420
  458MOL0     H60434   3.034   1.904   4.614  2.5509  1.4425  0.0665
  458MOL0     H60435   3.057   1.772   4.504 -0.0952  0.7707 -0.0977
  458MOL0     H60436   3.198   1.812   4.792 -0.7707 -0.7450  0.9123
  458MOL0     H60437   3.216   1.681   4.680 -0.5928 -0.7826  2.0281
  458MOL0     H60438   3.870   1.850   4.148 -0.5624 -0.2709  0.5775
  458MOL0     H60439   4.097   1.881   4.063 -1.8829  1.0869  0.3412
  458MOL0     H60440   4.333   1.881   3.567  0.5099 -1.0010 -1.5865
  458MOL0     H60441   4.566   1.930   3.490 -1.0776 -0.5691 -0.3765
  458MOL0     H60442   5.860   1.332   2.825  3.0625  2.4678  0.4628
  458MOL0     H60443   6.099   1.332   2.868  1.6288 -2.7016  2.2165
  458MOL0     H60444   6.607   0.997   2.637 -1.3826 -0.1951 -0.1637
  458MOL0     H60445   6.829   1.101   2.609  0.3622  3.1290 -2.0925
  458MOL0     H60446   6.938   1.465   2.838 -1.5194 -0.5173  0.1290
  458MOL0     H60447   6.868   1.524   2.693 -0.0189  1.0766  1.8949
  458MOL0     H60448   7.056   1.490   2.564 -0.8216  3.5612 -0.3358
  458MOL0     H60449   7.102   1.602   2.687  0.7301 -0.4225 -2.2485
  458MOL0     H60450   7.260   1.426   2.615 -1.4731  2.1522 -0.5039
  458MOL0     H60451   7.158   1.303   2.700 -0.2592  0.2475 -0.2244
  458MOL0     H60452   7.204   1.424   2.906  0.2491  0.3854  0.2448
  458MOL0     H60453   7.363   1.360   2.843  0.3332 -0.1600  0.3372
  458MOL0     H60454   7.454   1.765   2.796  1.3690 -0.3764 -2.9545
  458MOL0     H60455   6.701   1.446   2.813  2.5365  0.5811 -0.1769
  458MOL0     H60456   6.480   1.369   2.807 -0.6883 -1.7875 -0.5715
  459MOL0     O60457   3.432   4.156   3.763 -0.0801 -0.3248  0.7824
  459MOL0     C60458   3.427   4.223   3.657 -0.2860 -0.1051 -0.6921
  459MOL0     O60459   3.316   4.242   3.579 -0.6376 -0.1046 -0.4855
  459MOL0     C60460   3.217   4.156   3.600  0.3615 -0.9717  0.3758
  459MOL0     C60461   3.163   4.065   3.501 -0.4710  0.8314 -0.2178
  459MOL0     C60462   3.048   3.986   3.529 -0.2767  0.5449  0.3118
  459MOL0     C60463   2.985   3.980   3.656 -0.5154 -0.7777 -0.3299
  459MOL0     O60464   2.874   3.912   3.703  0.0768  0.2340  0.4853
  459MOL0     C60465   2.799   3.826   3.617  0.1871 -0.4062  0.3095
  459MOL0     C60466   2.770   3.699   3.697  0.4793 -0.9753 -0.8193
  459MOL0     C60467   2.860   3.581   3.655  0.3962  0.7690 -0.0604
  459MOL0     C60468   3.000   3.603   3.701  0.1447 -0.0984 -0.4591
  459MOL0     C60469   3.086   3.475   3.695  0.3432  1.0799  0.5604
  459MOL0     C60470   3.220   3.473   3.763 -0.5637 -0.1080 -0.0064
  459MOL0     C60471   3.316   3.357   3.716 -0.0244 -1.0964 -0.7446
  459MOL0     C60472   3.257   3.225   3.757 -0.0966  1.1234  1.1707
  459MOL0     N60473   3.211   3.207   3.894  0.6668 -0.1195 -0.9743
  459MOL0     C60474   3.296   3.192   3.997 -0.6596  0.2203  0.6194
  459MOL0     C60475   3.215   3.178   4.102  0.0147  0.0282 -0.3001
  459MOL0     C60476   3.252   3.136   4.244  0.0893  0.1802  0.2267
  459MOL0     C60477   3.269   3.240   4.351  0.7391 -0.5801 -0.5833
  459MOL0     C60478   3.206   3.220   4.490 -1.2944 -0.6946  0.5256
  459MOL0     C60479   3.227   3.331   4.596 -0.1790  0.3346 -0.0359
  459MOL0     O60480   3.200   3.269   4.716 -0.1714 -0.1412 -0.7947
  459MOL0     C60481   3.073   3.245   4.763  0.5847 -0.4591 -0.8454
  459MOL0     C60482   3.070   3.198   4.899  0.1386  0.2697 -0.8450
  459MOL0     C60483   2.947   3.167   4.962  0.5367  1.2284  0.6867
  459MOL0     C60484   2.825   3.179   4.897 -1.1141  0.3052 -0.3332
  459MOL0     C60485   2.693   3.144   4.952 -1.4996  0.4888 -0.3249
  459MOL0     O60486   2.586   3.120   4.868  0.0173 -0.7014 -0.0459
  459MOL0     C60487   2.458   3.079   4.916  0.2140  0.0062 -0.6071
  459MOL0     C60488   2.386   3.142   5.018  0.2600  0.5614  0.1680
  459MOL0     C60489   2.261   3.101   5.054  0.0073  0.9477 -0.3163
  459MOL0     C60490   2.199   2.979   5.000  0.1623 -0.7392  0.7506
  459MOL0     O60491   2.074   2.943   5.036  0.5050  0.1098  0.3172
  459MOL0     C60492   1.978   3.043   5.006  0.2626  0.8789 -0.4509
  459MOL0     C60493   1.838   2.990   5.036  0.0339  0.4938 -0.3819
  459MOL0     C60494   1.737   3.100   5.059 -0.3618  0.4255  0.1505
  459MOL0     C60495   1.600   3.026   5.069 -0.0494  0.6825 -0.3722
  459MOL0     C60496   1.488   3.127   5.098 -0.5958 -0.8346 -0.9052
  459MOL0     C60497   1.357   3.062   5.073 -0.0262 -0.9220  0.1020
  459MOL0     C60498   1.239   3.157   5.098 -0.0547  0.4425  0.5117
  459MOL0     C60499   1.257   3.247   5.222 -0.0823  0.4211  0.2626
  459MOL0    Cl60500   1.272   3.156   5.375 -0.4379  0.4814 -0.3187
  459MOL0     C60501   2.281   2.907   4.915  0.0066 -0.2974 -0.0614
  459MOL0     C60502   2.406   2.961   4.874  0.3078 -0.0478 -0.2578
  459MOL0     O60503   2.689   3.126   5.075 -0.8389  0.3970  0.0847
  459MOL0     C60504   2.824   3.224   4.761 -0.0584  0.4717  1.1485
  459MOL0     C60505   2.946   3.258   4.703  0.8417  0.6211  0.4512
  459MOL0     N60506   3.087   3.198   4.058 -0.0722  0.3601 -0.3941
  459MOL0     N60507   3.079   3.211   3.935 -0.3965 -0.8228  0.3191
  459MOL0     C60508   3.027   4.079   3.745 -0.6968 -0.0652 -0.0537
  459MOL0     C60509   3.143   4.157   3.721 -0.5401  0.6465  0.8823
  459MOL0     C60510   3.552   4.288   3.627  0.5008  0.0949  0.5767
  459MOL0     C60511   3.642   4.318   3.732  0.1298  0.4270  0.2926
  459MOL0     C60512   3.774   4.358   3.698  0.5535  0.3635  0.0001
  459MOL0     C60513   3.814   4.362   3.562  0.8371 -0.2717 -0.2228
  459MOL0     O60514   3.930   4.402   3.505 -0.7760  0.1647  0.3562
  459MOL0     C60515   4.024   4.467   3.598 -0.4047 -1.0300  0.3118
  459MOL0     C60516   4.137   4.535   3.529 -0.2195  0.0935 -0.1202
  459MOL0     C60517   4.072   4.653   3.444 -0.0363 -0.0661 -0.5346
  459MOL0     C60518   4.122   4.664   3.303 -0.1163 -0.0161  0.1395
  459MOL0     C60519   4.265   4.703   3.314 -0.3006  0.0122  0.6525
  459MOL0     C60520   4.382   4.737   3.312 -0.0719  0.5127  1.4584
  459MOL0     C60521   3.713   4.349   3.469 -0.1989  0.8475  0.2819
  459MOL0     C60522   3.583   4.313   3.497  1.1860  0.2387  1.0384
  459MOL0     H60523   3.220   4.065   3.409 -0.5322  1.8011 -0.2668
  459MOL0     H60524   3.030   3.910   3.453 -0.3403  2.1380 -1.3328
  459MOL0     H60525   2.846   3.807   3.519 -0.5424 -1.3206  0.1221
  459MOL0     H60526   2.700   3.867   3.595 -0.1451 -1.6571 -0.6468
  459MOL0     H60527   2.667   3.666   3.681  0.9993 -2.6274 -0.9468
  459MOL0     H60528   2.782   3.732   3.801 -0.0145  1.7570 -1.5570
  459MOL0     H60529   2.868   3.562   3.548  0.2456  2.5014 -0.4078
  459MOL0     H60530   2.826   3.488   3.702  1.4041 -1.3148 -3.1884
  459MOL0     H60531   3.049   3.682   3.643  0.7346 -1.1013 -1.3469
  459MOL0     H60532   2.991   3.645   3.802  1.3016  2.2604 -1.2621
  459MOL0     H60533   3.104   3.446   3.591 -0.0051  1.5179  0.3745
  459MOL0     H60534   3.029   3.392   3.738  2.6035  0.0124  1.6936
  459MOL0     H60535   3.216   3.464   3.872  0.8791  0.4619  0.1144
  459MOL0     H60536   3.266   3.570   3.742  1.7899 -1.3647 -1.0091
  459MOL0     H60537   3.346   3.377   3.613 -1.3073 -0.3490 -1.0028
  459MOL0     H60538   3.415   3.371   3.761  0.6134 -0.6542 -2.2275
  459MOL0     H60539   3.330   3.148   3.732 -2.1394  0.0370 -2.1836
  459MOL0     H60540   3.166   3.206   3.699 -0.8950 -1.9003  3.1901
  459MOL0     H60541   3.404   3.189   3.998 -0.6741 -1.4822  0.0124
  459MOL0     H60542   3.346   3.080   4.239 -0.1641 -0.3505  1.1387
  459MOL0     H60543   3.166   3.075   4.273 -0.1756  0.2432 -0.4122
  459MOL0     H60544   3.219   3.334   4.323  1.6646 -0.8291 -3.4277
  459MOL0     H60545   3.377   3.258   4.359  0.8146  0.1564 -2.6353
  459MOL0     H60546   3.101   3.208   4.461 -0.3476 -4.3171 -2.1978
  459MOL0     H60547   3.249   3.128   4.531 -0.2886  0.4388  2.1277
  459MOL0     H60548   3.164   3.419   4.578 -1.9208 -1.3515 -3.1259
  459MOL0     H60549   3.331   3.364   4.604 -0.6392  1.5882  1.1466
  459MOL0     H60550   3.162   3.181   4.953  0.7761  1.2004 -1.6070
  459MOL0     H60551   2.950   3.140   5.067  1.0680  2.9012  1.1211
  459MOL0     H60552   2.427   3.229   5.068  1.0151  0.9020 -0.9935
  459MOL0     H60553   2.219   3.158   5.136 -1.8990 -1.1220  0.2393
  459MOL0     H60554   1.970   3.065   4.899  0.7033 -0.3844 -0.7616
  459MOL0     H60555   2.004   3.129   5.069  0.0563 -0.5469  1.6662
  459MOL0     H60556   1.851   2.934   5.130  0.3220  0.5889 -0.3620
  459MOL0     H60557   1.801   2.921   4.960 -2.2989 -0.4735  1.4850
  459MOL0     H60558   1.744   3.170   4.975  0.7958 -0.6033 -0.6463
  459MOL0     H60559   1.769   3.159   5.145  1.0727  3.7523 -2.4313
  459MOL0     H60560   1.586   2.983   4.969  3.4664 -1.4798 -0.1171
  459MOL0     H60561   1.592   2.942   5.139 -1.0862 -0.0783 -1.3678
  459MOL0     H60562   1.474   3.210   5.027 -2.4672 -2.1235 -2.1473
  459MOL0     H60563   1.504   3.177   5.194 -1.9269 -3.4708  0.7956
  459MOL0     H60564   1.356   2.967   5.128  1.8967 -1.6138 -0.9507
  459MOL0     H60565   1.352   3.038   4.967 -0.3799 -0.1367 -0.0674
  459MOL0     H60566   1.224   3.226   5.014 -1.9665 -1.5486 -0.9069
  459MOL0     H60567   1.146   3.101   5.116 -1.3369  3.0846  2.8857
  459MOL0     H60568   1.163   3.302   5.226 -1.6199 -1.9976 -0.8695
  459MOL0     H60569   1.335   3.324   5.219  0.0390  0.2768 -0.5044
  459MOL0     H60570   2.246   2.825   4.853 -2.0408  1.4161 -1.2848
  459MOL0     H60571   2.479   2.918   4.808  2.0359  1.7551  0.3925
  459MOL0     H60572   2.744   3.196   4.693  1.5591 -1.2194 -0.1240
  459MOL0     H60573   2.945   3.299   4.602 -3.4325  0.9267  0.4262
  459MOL0     H60574   2.975   4.072   3.840  1.2825 -1.7094  0.9773
  459MOL0     H60575   3.188   4.219   3.798  0.3776  0.4347  0.5265
  459MOL0     H60576   3.614   4.305   3.836 -1.1910  1.3984  0.0968
  459MOL0     H60577   3.845   4.383   3.777  0.8035  4.0313 -1.1725
  459MOL0     H60578   4.062   4.398   3.674  0.4204 -0.5806  0.3208
  459MOL0     H60579   3.977   4.554   3.646  0.8561  1.2065 -2.2537
  459MOL0     H60580   4.213   4.567   3.601 -0.8260  2.3379 -0.4123
  459MOL0     H60581   4.183   4.463   3.461 -1.1788 -0.6470 -0.0252
  459MOL0     H60582   4.099   4.748   3.491  1.1977 -0.9548  0.6161
  459MOL0     H60583   3.963   4.646   3.441  0.0019 -0.5591 -1.0888
  459MOL0     H60584   4.112   4.567   3.253  0.5080 -1.4058  2.5218
  459MOL0     H60585   4.078   4.748   3.248  1.5887  0.9552  0.2122
  459MOL0     H60586   4.486   4.760   3.307 -0.0277  0.1372  0.4422
  459MOL0     H60587   3.723   4.372   3.363  1.9063 -1.9471 -0.2378
  459MOL0     H60588   3.507   4.317   3.419  0.4120  0.5823  1.8030
  460MOL0     O60589   3.207   1.818   2.977  0.3257  0.0787 -0.5553
  460MOL0     C60590   3.224   1.736   2.892 -0.6688  0.8518  0.3856
  460MOL0     O60591   3.150   1.622   2.879 -0.7133  0.3334  0.0448
  460MOL0     C60592   3.043   1.611   2.968  0.5707  0.4688  0.2289
  460MOL0     C60593   2.914   1.667   2.947 -0.1902 -0.6280 -0.0853
  460MOL0     C60594   2.800   1.641   3.030 -0.0017  0.3031  0.1098
  460MOL0     C60595   2.815   1.555   3.144 -0.3912 -0.7295 -0.3659
  460MOL0     O60596   2.707   1.525   3.229  0.0397 -0.0551  0.4177
  460MOL0     C60597   2.579   1.497   3.167  0.0001 -0.3833 -0.1354
  460MOL0     C60598   2.490   1.472   3.280 -0.4840  0.3317 -0.2167
  460MOL0     C60599   2.352   1.422   3.224  0.4529  0.9006 -0.4448
  460MOL0     C60600   2.263   1.376   3.336  1.2352 -0.5840 -0.2970
  460MOL0     C60601   2.140   1.302   3.281  0.0453 -0.4695  0.6789
  460MOL0     C60602   2.043   1.250   3.380  0.7305 -0.1173 -0.1689
  460MOL0     C60603   1.963   1.364   3.448 -1.1744  0.1915  0.6726
  460MOL0     C60604   1.840   1.316   3.527  0.1825  0.9014  0.0887
  460MOL0     N60605   1.743   1.244   3.445 -0.3345 -0.8174 -0.0902
  460MOL0     C60606   1.624   1.303   3.404  0.2039  1.2225  0.6666
  460MOL0     C60607   1.561   1.203   3.340  0.3546 -0.9857 -0.3230
  460MOL0     C60608   1.413   1.213   3.294 -0.9556 -0.6073  0.0592
  460MOL0     C60609   1.321   1.204   3.417  0.4547  0.3245 -0.1076
  460MOL0     C60610   1.335   1.067   3.491 -0.3659 -0.2490 -0.4243
  460MOL0     C60611   1.302   1.069   3.642  0.1243  0.8398  0.1233
  460MOL0     O60612   1.329   0.951   3.715  0.1022  0.6304 -0.2018
  460MOL0     C60613   1.455   0.933   3.769 -0.4993 -0.0664 -0.0249
  460MOL0     C60614   1.468   0.837   3.872 -0.3237 -0.0686  0.5346
  460MOL0     C60615   1.588   0.823   3.942  0.8616  0.3554 -0.3700
  460MOL0     C60616   1.700   0.906   3.912 -0.5097 -0.2214 -0.6023
  460MOL0     C60617   1.817   0.888   3.997  0.5812 -0.4949  0.4738
  460MOL0     O60618   1.923   0.966   3.966 -0.9296 -0.1197  0.3186
  460MOL0     C60619   2.025   0.978   4.068 -0.2104 -0.9390  0.0233
  460MOL0     C60620   2.138   0.910   4.059 -0.1438  0.3817  0.3070
  460MOL0     C60621   2.241   0.915   4.145 -0.6056  1.2196 -0.0573
  460MOL0     C60622   2.224   0.977   4.273 -0.2853 -0.5341  0.8663
  460MOL0     O60623   2.323   0.955   4.361  0.1910  0.0994  0.0298
  460MOL0     C60624   2.383   1.072   4.413 -0.0155 -1.0817 -0.1572
  460MOL0     C60625   2.471   1.154   4.315 -0.4553  0.5373  0.2747
  460MOL0     C60626   2.591   1.084   4.253  0.2833  0.5194  1.0939
  460MOL0     C60627   2.676   1.017   4.360  0.3328 -0.6653  0.1803
  460MOL0     C60628   2.822   0.990   4.307  0.3528  0.1114  0.3253
  460MOL0     C60629   2.912   0.913   4.412  0.4967  0.0078 -0.3712
  460MOL0     C60630   2.868   0.767   4.460 -0.1257  0.8975  0.6064
  460MOL0     C60631   2.897   0.745   4.613 -0.9293 -0.0922  0.9147
  460MOL0    Cl60632   3.075   0.790   4.617  0.1591 -0.4599  0.4569
  460MOL0     C60633   2.110   1.055   4.289 -0.2384  0.2745  0.4431
  460MOL0     C60634   2.009   1.051   4.187  0.4134  0.6906  0.0165
  460MOL0     O60635   1.817   0.805   4.084 -0.1101 -0.5077  0.7716
  460MOL0     C60636   1.690   0.999   3.806  0.1897  0.3485 -1.0892
  460MOL0     C60637   1.570   1.012   3.740  0.1126 -0.4208 -0.2337
  460MOL0     N60638   1.635   1.086   3.362 -0.3763 -0.4080  0.2983
  460MOL0     N60639   1.749   1.114   3.415 -0.5250 -0.0850 -0.6984
  460MOL0     C60640   2.945   1.507   3.171  0.5038  0.5139  0.9235
  460MOL0     C60641   3.055   1.532   3.084  0.2620  0.0684 -0.2498
  460MOL0     C60642   3.329   1.757   2.793  0.5086 -0.4786 -0.0749
  460MOL0     C60643   3.388   1.884   2.782  0.7394  0.4066 -0.3933
  460MOL0     C60644   3.488   1.907   2.693 -0.0914  0.2032  0.1563
  460MOL0     C60645   3.519   1.812   2.599  0.4029 -0.0081 -0.3511
  460MOL0     O60646   3.613   1.835   2.495  1.0232 -0.3618 -0.1738
  460MOL0     C60647   3.656   1.964   2.446 -0.0160  0.8779 -0.0603
  460MOL0     C60648   3.780   2.018   2.521 -0.3651 -0.6852  0.0412
  460MOL0     C60649   3.907   1.952   2.469  1.0180  0.2061  0.0729
  460MOL0     C60650   4.038   2.016   2.497  0.6048 -0.4346  0.6076
  460MOL0     C60651   4.061   2.054   2.638  0.2124 -0.1306 -0.2641
  460MOL0     C60652   4.091   2.061   2.756 -0.6275 -0.3595  0.4526
  460MOL0     C60653   3.463   1.683   2.607 -0.5148 -0.0292  0.2047
  460MOL0     C60654   3.375   1.654   2.713 -0.3116 -0.3679 -0.0630
  460MOL0     H60655   2.917   1.739   2.865  0.9986  0.4789  0.8860
  460MOL0     H60656   2.704   1.693   3.022 -0.3160  0.3351  2.8237
  460MOL0     H60657   2.581   1.412   3.099  1.8607 -0.4565 -0.0274
  460MOL0     H60658   2.542   1.585   3.113  0.3028  0.4838  1.0266
  460MOL0     H60659   2.466   1.562   3.337 -2.5964  1.1421 -2.2397
  460MOL0     H60660   2.538   1.399   3.346 -1.4804  0.6679  0.9193
  460MOL0     H60661   2.365   1.342   3.150  1.4399  0.8191 -0.1949
  460MOL0     H60662   2.320   1.514   3.174  3.4021  2.5816  0.5160
  460MOL0     H60663   2.326   1.305   3.391 -0.7374 -0.1663  2.6938
  460MOL0     H60664   2.239   1.463   3.398 -2.2739 -0.3706 -1.7325
  460MOL0     H60665   2.179   1.219   3.221  3.7530  1.4137  0.2064
  460MOL0     H60666   2.106   1.388   3.222  0.9310  0.6713  1.7849
  460MOL0     H60667   2.091   1.192   3.459  3.1323  0.5397 -1.0535
  460MOL0     H60668   1.970   1.194   3.321 -2.1399  1.3212  1.7693
  460MOL0     H60669   2.033   1.405   3.521 -0.9267  1.7784 -0.3900
  460MOL0     H60670   1.928   1.427   3.366  1.0578 -0.5502 -0.9597
  460MOL0     H60671   1.788   1.400   3.574  0.2825  0.8319  0.3255
  460MOL0     H60672   1.866   1.249   3.609 -4.2249  0.6904  1.5756
  460MOL0     H60673   1.583   1.403   3.416 -1.8302  0.5293  0.0523
  460MOL0     H60674   1.391   1.133   3.222 -1.4794  1.3477 -2.0563
  460MOL0     H60675   1.397   1.303   3.235  1.3376 -0.1861 -0.0039
  460MOL0     H60676   1.218   1.206   3.379  0.6573  1.2893 -0.6312
  460MOL0     H60677   1.324   1.289   3.486  0.1079  0.6414 -0.4735
  460MOL0     H60678   1.280   0.989   3.438 -0.2794 -1.5018  1.2408
  460MOL0     H60679   1.438   1.032   3.481  0.3621  1.7921 -0.6964
  460MOL0     H60680   1.195   1.079   3.661  0.2776 -0.8736  2.2230
  460MOL0     H60681   1.360   1.150   3.688  1.8468  1.5433 -2.9780
  460MOL0     H60682   1.373   0.786   3.890 -0.0597 -0.5075  0.7201
  460MOL0     H60683   1.581   0.767   4.035  0.5226  2.2371  0.7946
  460MOL0     H60684   2.155   0.855   3.967 -2.8683  0.0349 -0.0656
  460MOL0     H60685   2.327   0.856   4.118 -1.8838  0.0039 -1.6996
  460MOL0     H60686   2.441   1.035   4.498 -1.1018  1.9434  2.0666
  460MOL0     H60687   2.311   1.140   4.459  1.8135  1.1500 -0.3539
  460MOL0     H60688   2.505   1.240   4.372 -3.3150  1.5523  0.5957
  460MOL0     H60689   2.402   1.195   4.240 -4.9173  0.2614  3.8207
  460MOL0     H60690   2.651   1.159   4.200  0.1619 -0.5171 -0.5683
  460MOL0     H60691   2.561   1.014   4.174  1.7193 -0.0777  1.0494
  460MOL0     H60692   2.686   1.081   4.449  0.7962 -2.0718  1.1752
  460MOL0     H60693   2.631   0.927   4.403 -2.4550 -0.2613 -1.6208
  460MOL0     H60694   2.862   1.085   4.273 -1.2244  1.2444  1.4504
  460MOL0     H60695   2.807   0.922   4.223  0.8808  2.7012 -2.0101
  460MOL0     H60696   2.912   0.971   4.505 -1.3347 -2.0861  1.0353
  460MOL0     H60697   3.015   0.915   4.376  0.9794  1.3770  0.9445
  460MOL0     H60698   2.764   0.744   4.437 -0.0759  0.7638  0.5122
  460MOL0     H60699   2.927   0.693   4.406 -0.7267 -0.6017  1.9450
  460MOL0     H60700   2.885   0.642   4.645 -1.3300  0.5824  3.0953
  460MOL0     H60701   2.839   0.823   4.664 -0.3826  1.5683 -0.8422
  460MOL0     H60702   2.078   1.108   4.378  1.1197  0.1834  1.0043
  460MOL0     H60703   1.919   1.112   4.192 -2.3384 -2.8810 -1.2549
  460MOL0     H60704   1.768   1.071   3.784  0.5110  0.3090 -0.1219
  460MOL0     H60705   1.557   1.086   3.662 -2.4997 -0.1485  0.3570
  460MOL0     H60706   2.949   1.444   3.259 -0.4751 -1.3609 -0.3181
  460MOL0     H60707   3.149   1.482   3.105  1.9224  2.4718 -1.5687
  460MOL0     H60708   3.350   1.966   2.841 -1.4907 -0.9410  0.1339
  460MOL0     H60709   3.525   2.008   2.684  0.5184 -0.0535 -0.3935
  460MOL0     H60710   3.577   2.035   2.471  1.1613  1.9967  0.5967
  460MOL0     H60711   3.676   1.963   2.339  0.8323 -3.0160 -0.0151
  460MOL0     H60712   3.792   2.126   2.509  4.4825 -1.1588 -1.8066
  460MOL0     H60713   3.764   1.997   2.627 -1.1756  0.2491  0.1191
  460MOL0     H60714   3.892   1.945   2.361 -2.7921  3.5189  0.1759
  460MOL0     H60715   3.902   1.857   2.524 -1.6491 -0.0344 -0.4605
  460MOL0     H60716   4.120   1.955   2.459  0.2876 -1.5137  1.5828
  460MOL0     H60717   4.032   2.112   2.445  1.5376  0.7814  2.6330
  460MOL0     H60718   4.121   2.079   2.857 -1.1536  0.5688  0.4558
  460MOL0     H60719   3.499   1.607   2.539  1.5844 -0.7101  1.9460
  460MOL0     H60720   3.342   1.550   2.706  0.6886 -0.6252 -1.4026
  461MOL0     O60721  10.554   8.154   3.464 -0.2355  0.2022 -0.3041
  461MOL0     C60722  10.585   8.078   3.560  0.2148 -0.2729  0.5925
  461MOL0     O60723  10.506   7.968   3.600  0.1062 -0.5493  0.3269
  461MOL0     C60724  10.374   7.950   3.553  0.2658 -0.6509  0.2259
  461MOL0     C60725  10.278   8.057   3.535 -0.4315  0.0248  0.4435
  461MOL0     C60726  10.144   8.034   3.503 -0.1796  1.2700  0.4608
  461MOL0     C60727  10.100   7.900   3.497 -0.1163 -0.3987 -0.2821
  461MOL0     O60728   9.970   7.862   3.459  0.1904 -0.2017 -0.9417
  461MOL0     C60729   9.874   7.962   3.423  0.8541  0.1053  0.0623
  461MOL0     C60730   9.764   7.878   3.368  0.3358  0.0032  0.1254
  461MOL0     C60731   9.636   7.949   3.349 -0.2762 -0.0346 -0.5104
  461MOL0     C60732   9.652   8.048   3.234  0.2997 -0.2731 -0.5151
  461MOL0     C60733   9.515   8.102   3.194  0.1836  1.1483 -0.1679
  461MOL0     C60734   9.463   8.212   3.293  0.2707 -0.2618  0.1739
  461MOL0     C60735   9.320   8.257   3.254  0.2628  0.1174 -0.6139
  461MOL0     C60736   9.278   8.388   3.317  0.2359 -0.1554  0.5346
  461MOL0     N60737   9.145   8.435   3.270  0.5776 -0.3758  0.1312
  461MOL0     C60738   9.137   8.513   3.155  0.3175 -0.6029  0.3261
  461MOL0     C60739   9.013   8.578   3.163 -0.1964  1.1870 -0.7375
  461MOL0     C60740   8.944   8.667   3.057 -0.9671 -0.7041 -0.1773
  461MOL0     C60741   8.923   8.589   2.927  0.9510 -0.3458  0.5888
  461MOL0     C60742   8.875   8.681   2.809  0.0415  0.5539 -0.3336
  461MOL0     C60743   8.722   8.710   2.810  0.7182 -0.1022  0.0904
  461MOL0     O60744   8.659   8.588   2.771  0.2091  0.5381  0.7015
  461MOL0     C60745   8.529   8.599   2.727 -0.8496 -0.7654 -0.4975
  461MOL0     C60746   8.469   8.488   2.662  0.0279  0.2874 -0.4444
  461MOL0     C60747   8.334   8.490   2.627  0.3983 -0.5179 -0.3248
  461MOL0     C60748   8.258   8.606   2.651 -0.7347 -0.4070 -0.2764
  461MOL0     C60749   8.122   8.614   2.586 -0.4481 -0.7360  0.3614
  461MOL0     O60750   8.060   8.731   2.614  0.4115 -0.0377  0.1856
  461MOL0     C60751   7.940   8.757   2.553 -0.0557 -0.0356  0.0677
  461MOL0     C60752   7.818   8.740   2.622 -0.3996  0.2569  0.3642
  461MOL0     C60753   7.692   8.777   2.566  0.0692  0.4205 -0.6963
  461MOL0     C60754   7.688   8.843   2.443 -0.5701 -0.4493 -0.1283
  461MOL0     O60755   7.556   8.873   2.398  0.2826  0.3392 -0.4467
  461MOL0     C60756   7.523   8.922   2.267 -0.3335  0.5221  0.3746
  461MOL0     C60757   7.481   8.801   2.175 -0.1774  0.2218  0.0255
  461MOL0     C60758   7.361   8.718   2.222 -0.5672  0.4663  0.9934
  461MOL0     C60759   7.234   8.773   2.181  0.6233  0.1428 -0.5774
  461MOL0     C60760   7.120   8.670   2.176 -0.1192 -0.4980  0.0323
  461MOL0     C60761   7.018   8.718   2.074  0.9050  0.5099 -0.3391
  461MOL0     C60762   6.911   8.604   2.044 -0.2467 -0.1917  0.0316
  461MOL0     C60763   6.935   8.530   1.915  0.1551  0.6827 -0.1330
  461MOL0    Cl60764   6.822   8.380   1.931  0.1208 -0.3028 -0.1652
  461MOL0     C60765   7.804   8.864   2.371  0.5393 -0.1162 -0.2748
  461MOL0     C60766   7.929   8.825   2.429  0.3299 -0.2137  0.2503
  461MOL0     O60767   8.073   8.519   2.524 -0.7282  0.4633 -0.3101
  461MOL0     C60768   8.318   8.719   2.706  0.5495 -0.3283  1.0545
  461MOL0     C60769   8.449   8.712   2.744  0.4282  0.4000  0.1626
  461MOL0     N60770   8.953   8.530   3.275  0.3238 -0.2032 -0.2226
  461MOL0     N60771   9.031   8.456   3.346 -0.0792  0.5897  0.8781
  461MOL0     C60772  10.195   7.792   3.514 -0.6631 -0.5839  0.1724
  461MOL0     C60773  10.326   7.819   3.551 -0.0327  0.0432 -0.6148
  461MOL0     C60774  10.719   8.108   3.633 -0.0219 -0.5571 -0.5011
  461MOL0     C60775  10.780   8.234   3.622 -1.0898  0.2299  0.2115
  461MOL0     C60776  10.902   8.252   3.685 -0.2170 -0.1791  0.4490
  461MOL0     C60777  10.968   8.145   3.756 -0.1925 -0.6941  0.1954
  461MOL0     O60778  11.098   8.155   3.797 -0.0078  0.3647 -0.0785
  461MOL0     C60779  11.167   8.279   3.810  0.5215 -0.1807 -0.0201
  461MOL0     C60780  11.239   8.320   3.680 -0.2579 -0.2745  0.8203
  461MOL0     C60781  11.346   8.214   3.648  0.0747  0.1655 -0.8070
  461MOL0     C60782  11.433   8.259   3.530  1.0130  0.2079 -1.0921
  461MOL0     C60783  11.533   8.160   3.496 -0.4376 -0.9983  0.6775
  461MOL0     C60784  11.606   8.070   3.465  0.0074 -0.0383  0.5170
  461MOL0     C60785  10.908   8.026   3.760 -0.4617  0.6871  0.6582
  461MOL0     C60786  10.784   8.001   3.698 -0.1179 -0.6654  0.1127
  461MOL0     H60787  10.317   8.158   3.530  1.6698 -0.7958 -1.5744
  461MOL0     H60788  10.075   8.117   3.488 -2.7516 -0.1444  3.4207
  461MOL0     H60789   9.911   8.034   3.350  2.6609 -1.5253 -0.7264
  461MOL0     H60790   9.845   8.015   3.514 -0.3140  0.4968 -0.5179
  461MOL0     H60791   9.743   7.794   3.436  2.3197 -0.5625  0.1177
  461MOL0     H60792   9.792   7.827   3.276  3.1402  0.7169  0.4990
  461MOL0     H60793   9.607   7.999   3.442 -0.1060  0.9047 -0.9467
  461MOL0     H60794   9.552   7.880   3.332 -1.2857  1.0626 -0.1238
  461MOL0     H60795   9.704   8.141   3.257  1.8142 -0.7732 -1.6960
  461MOL0     H60796   9.701   7.990   3.155  0.0904 -0.5573 -0.4369
  461MOL0     H60797   9.452   8.013   3.183 -1.5554  2.3204 -0.0800
  461MOL0     H60798   9.529   8.153   3.098 -0.1274  0.8617 -0.3646
  461MOL0     H60799   9.536   8.294   3.288 -0.0905  0.0028 -1.5985
  461MOL0     H60800   9.456   8.161   3.389 -0.9274 -2.6484 -1.0803
  461MOL0     H60801   9.323   8.267   3.145 -0.1475  1.6591 -0.5094
  461MOL0     H60802   9.245   8.180   3.277 -0.0916  0.7018  0.2463
  461MOL0     H60803   9.354   8.463   3.293  0.6507 -0.5947  0.4707
  461MOL0     H60804   9.280   8.377   3.426 -0.6870 -0.2110  0.5519
  461MOL0     H60805   9.209   8.515   3.073  0.1994  3.8131  0.0993
  461MOL0     H60806   9.001   8.758   3.040 -3.0722  0.8281  0.5536
  461MOL0     H60807   8.843   8.700   3.082 -1.6982 -1.3921 -2.0888
  461MOL0     H60808   8.857   8.506   2.951 -0.2136  0.5691  0.6258
  461MOL0     H60809   9.024   8.556   2.898  0.4985 -2.0809  0.9275
  461MOL0     H60810   8.940   8.769   2.805  1.7131 -0.6477 -3.4185
  461MOL0     H60811   8.892   8.621   2.719  0.7667  1.0304 -0.5262
  461MOL0     H60812   8.708   8.793   2.740  1.3831  2.4238  2.7002
  461MOL0     H60813   8.687   8.741   2.910  0.1250  0.1024 -0.1755
  461MOL0     H60814   8.535   8.402   2.649 -0.0639  0.3098 -1.0789
  461MOL0     H60815   8.301   8.400   2.576  3.5760 -1.4504 -0.9061
  461MOL0     H60816   7.821   8.692   2.720 -2.2751  0.3589  0.4987
  461MOL0     H60817   7.607   8.765   2.631  0.0671  2.4481 -0.2664
  461MOL0     H60818   7.603   8.978   2.217  2.8505 -3.8114  0.0522
  461MOL0     H60819   7.437   8.989   2.272 -0.2469  0.8815 -1.8552
  461MOL0     H60820   7.567   8.734   2.164 -0.0230 -0.0305  2.3370
  461MOL0     H60821   7.459   8.834   2.073 -3.1882 -0.8392  0.2395
  461MOL0     H60822   7.366   8.698   2.330  2.2224 -3.4394  0.3463
  461MOL0     H60823   7.380   8.622   2.173 -0.9648  0.4779  0.8091
  461MOL0     H60824   7.210   8.853   2.252  2.8654 -1.1059  1.7280
  461MOL0     H60825   7.233   8.824   2.084 -2.2773 -1.9500 -1.7865
  461MOL0     H60826   7.068   8.656   2.271  1.2631 -3.2142  0.4913
  461MOL0     H60827   7.155   8.569   2.153  1.4086 -0.4877  2.0950
  461MOL0     H60828   7.058   8.759   1.982  1.3340  0.6998 -0.0684
  461MOL0     H60829   6.961   8.799   2.120 -0.6349 -1.6219  1.7478
  461MOL0     H60830   6.916   8.532   2.126  2.4053 -0.5659 -0.3528
  461MOL0     H60831   6.811   8.648   2.036  0.1329  0.3621 -2.6986
  461MOL0     H60832   7.040   8.497   1.923 -0.5554 -1.2752  2.4651
  461MOL0     H60833   6.922   8.585   1.821 -2.0101 -2.9320 -2.1870
  461MOL0     H60834   7.812   8.904   2.270  1.1847  1.7156  0.4508
  461MOL0     H60835   8.028   8.838   2.386  0.3589 -2.2935 -0.4157
  461MOL0     H60836   8.269   8.814   2.727  1.3352  0.0641  1.1740
  461MOL0     H60837   8.481   8.794   2.808 -0.3957  0.9453 -0.1096
  461MOL0     H60838  10.162   7.689   3.507 -0.1739 -0.6507 -2.8301
  461MOL0     H60839  10.404   7.746   3.566  2.2179  2.0283 -1.8732
  461MOL0     H60840  10.742   8.310   3.553 -0.8022  0.4526  0.2956
  461MOL0     H60841  10.947   8.350   3.669 -0.5789  0.0209  0.6571
  461MOL0     H60842  11.239   8.266   3.891 -2.1624  0.4031  2.6391
  461MOL0     H60843  11.103   8.359   3.848  0.5728 -0.2586  0.2315
  461MOL0     H60844  11.157   8.311   3.608 -0.5052 -0.7341  1.1541
  461MOL0     H60845  11.283   8.420   3.684 -1.0801  0.3088 -2.1210
  461MOL0     H60846  11.298   8.118   3.629 -2.3171  0.8174  1.4988
  461MOL0     H60847  11.405   8.217   3.740  0.3735  5.2834 -0.8525
  461MOL0     H60848  11.364   8.282   3.448 -2.3595 -0.4475  1.3195
  461MOL0     H60849  11.491   8.350   3.549  1.2973 -0.0773 -0.5715
  461MOL0     H60850  11.681   7.998   3.438 -1.2622 -0.8997 -0.7942
  461MOL0     H60851  10.953   7.942   3.811 -2.1162 -0.1142  0.8596
  461MOL0     H60852  10.739   7.902   3.700 -1.8475  0.0746  0.3218
  462MOL0     O60853   8.322   4.545   1.072  0.1846 -0.5185  0.4731
  462MOL0     C60854   8.325   4.426   1.044  0.1547 -0.9777  0.6744
  462MOL0     O60855   8.215   4.339   1.057 -1.1929  0.3846 -0.0166
  462MOL0     C60856   8.089   4.394   1.077 -0.0726  0.2586  0.0902
  462MOL0     C60857   7.994   4.371   0.971  0.5840  0.0490  0.3339
  462MOL0     C60858   7.866   4.425   0.977  0.4381 -0.4138  0.3430
  462MOL0     C60859   7.823   4.494   1.089 -1.0607  0.1513  0.1399
  462MOL0     O60860   7.710   4.567   1.098 -0.1539 -0.4443 -0.3246
  462MOL0     C60861   7.648   4.607   0.976  0.4181 -0.8105 -0.7696
  462MOL0     C60862   7.525   4.520   0.937 -0.9030 -0.2682 -1.0925
  462MOL0     C60863   7.404   4.563   1.020  0.1819 -0.4685 -0.6003
  462MOL0     C60864   7.292   4.465   0.996 -0.7852 -0.4487 -0.0045
  462MOL0     C60865   7.172   4.471   1.097 -0.8288  0.7424  0.1064
  462MOL0     C60866   7.056   4.386   1.033  0.3836 -0.1919  0.1294
  462MOL0     C60867   6.926   4.410   1.120  0.7519 -0.0848  0.1197
  462MOL0     C60868   6.881   4.292   1.206  0.1014 -0.2446  0.0823
  462MOL0     N60869   6.822   4.182   1.126  0.7115  0.6937  0.8160
  462MOL0     C60870   6.701   4.197   1.062 -1.4466  0.1344 -0.3643
  462MOL0     C60871   6.684   4.076   1.005  0.8876  0.2240 -0.3338
  462MOL0     C60872   6.572   4.048   0.910  0.2993 -1.1835 -0.2639
  462MOL0     C60873   6.620   4.097   0.773  0.3288 -0.1096  0.0779
  462MOL0     C60874   6.527   4.065   0.654 -0.3310  0.7284  0.5429
  462MOL0     C60875   6.383   4.122   0.667 -0.0219 -0.6004 -0.2094
  462MOL0     O60876   6.300   4.040   0.751  0.8584  0.4667 -0.4665
  462MOL0     C60877   6.162   4.053   0.751  0.3306  0.6128 -0.0909
  462MOL0     C60878   6.083   4.137   0.678 -0.2553  0.3434 -0.3070
  462MOL0     C60879   5.946   4.143   0.694  0.6633  0.1264  0.1751
  462MOL0     C60880   5.876   4.055   0.785 -0.5947  0.7238 -0.0174
  462MOL0     C60881   5.731   4.054   0.799 -0.3640  0.4740 -0.2772
  462MOL0     O60882   5.650   4.100   0.706  0.1345  0.1912 -0.5478
  462MOL0     C60883   5.512   4.067   0.717  0.2505 -1.4546 -0.2873
  462MOL0     C60884   5.467   3.942   0.681 -0.0965 -0.0076  0.5039
  462MOL0     C60885   5.327   3.913   0.679 -0.1541  0.0350 -0.1729
  462MOL0     C60886   5.239   4.011   0.742  0.1988 -0.0902  0.2228
  462MOL0     O60887   5.099   3.991   0.756 -0.0569 -0.7680  0.3350
  462MOL0     C60888   5.057   3.873   0.801 -0.1100  1.1205 -0.1841
  462MOL0     C60889   4.960   3.915   0.918  0.4304 -0.3150 -0.2102
  462MOL0     C60890   4.813   3.947   0.884  0.1715 -0.1902  0.1872
  462MOL0     C60891   4.739   3.990   1.010  0.6320 -0.0846 -0.8942
  462MOL0     C60892   4.645   4.107   1.002 -0.6582  0.1725  0.1902
  462MOL0     C60893   4.536   4.083   0.899  1.5846 -0.1207 -0.8064
  462MOL0     C60894   4.432   4.193   0.928 -1.2851  0.1877  0.5066
  462MOL0     C60895   4.302   4.150   0.864  0.2559  0.5972  0.0030
  462MOL0    Cl60896   4.170   4.275   0.877  0.5204  0.1668 -0.1591
  462MOL0     C60897   5.291   4.129   0.787 -0.2639 -0.3057  1.1908
  462MOL0     C60898   5.424   4.161   0.767  0.4891  0.0809 -0.1654
  462MOL0     O60899   5.692   3.991   0.894  0.4103  0.0228 -0.4444
  462MOL0     C60900   5.961   3.985   0.881 -0.2835  0.2065 -0.7924
  462MOL0     C60901   6.100   3.986   0.857 -0.0361  0.1347  0.3666
  462MOL0     N60902   6.792   3.991   1.043  1.2440  0.6894 -0.4098
  462MOL0     N60903   6.873   4.053   1.116  0.5997  0.0798 -0.3356
  462MOL0     C60904   7.903   4.496   1.198 -1.2545  0.3892 -0.0045
  462MOL0     C60905   8.044   4.455   1.189 -0.1156 -0.3415 -0.4922
  462MOL0     C60906   8.447   4.375   0.991 -0.4236  0.1314  0.9814
  462MOL0     C60907   8.453   4.237   0.962  0.3173  0.6324  0.0775
  462MOL0     C60908   8.566   4.179   0.910 -0.2557 -0.0532  0.2986
  462MOL0     C60909   8.676   4.261   0.890  0.4371  0.1624  0.2678
  462MOL0     O60910   8.794   4.207   0.842  0.7538 -0.0593  0.1070
  462MOL0     C60911   8.909   4.283   0.809 -0.3570  0.6886  0.5808
  462MOL0     C60912   9.003   4.191   0.740 -0.7965  0.4315  1.4638
  462MOL0     C60913   8.936   4.126   0.611  0.3097 -0.3806  0.6233
  462MOL0     C60914   9.027   4.022   0.537  0.6106 -0.1723 -0.3888
  462MOL0     C60915   9.143   4.077   0.465  0.3154  0.8655  0.2600
  462MOL0     C60916   9.226   4.120   0.398 -0.2146 -0.8450 -0.6089
  462MOL0     C60917   8.670   4.402   0.917 -0.2018  0.0215 -0.1145
  462MOL0     C60918   8.555   4.452   0.954  0.7871 -0.0844  0.5952
  462MOL0     H60919   8.034   4.329   0.880  2.9134  0.1635  1.2410
  462MOL0     H60920   7.804   4.421   0.888  1.9178  0.6789 -0.7676
  462MOL0     H60921   7.713   4.594   0.889 -2.5481 -1.1961 -3.1071
  462MOL0     H60922   7.624   4.713   0.984 -2.0037 -1.1756 -1.9786
  462MOL0     H60923   7.540   4.414   0.957 -2.0459 -0.4351 -1.0588
  462MOL0     H60924   7.505   4.532   0.830 -2.4913 -3.8440 -1.3295
  462MOL0     H60925   7.365   4.659   0.985  0.8491 -0.0462 -0.2098
  462MOL0     H60926   7.431   4.593   1.122 -0.7028  3.4326 -1.3467
  462MOL0     H60927   7.247   4.483   0.898 -1.3492  0.1973  0.3590
  462MOL0     H60928   7.331   4.363   0.987  0.2677  0.0582 -1.5809
  462MOL0     H60929   7.142   4.575   1.117  1.2348  1.5414 -0.6384
  462MOL0     H60930   7.198   4.431   1.196  2.7586 -3.7419 -2.2824
  462MOL0     H60931   7.081   4.281   1.044  2.2690  0.3756  1.9221
  462MOL0     H60932   7.036   4.413   0.929 -0.2966 -0.1442  0.2722
  462MOL0     H60933   6.953   4.484   1.196  0.6676 -2.4082  2.5512
  462MOL0     H60934   6.848   4.447   1.052  2.5268 -0.1045 -2.0275
  462MOL0     H60935   6.822   4.350   1.278  1.8362  3.6086 -1.3367
  462MOL0     H60936   6.966   4.251   1.260  0.4668 -1.0654 -1.0714
  462MOL0     H60937   6.653   4.295   1.057  4.1405  3.2241 -1.3714
  462MOL0     H60938   6.481   4.096   0.947 -0.9077 -3.5341  0.0497
  462MOL0     H60939   6.541   3.944   0.897 -4.1626 -0.3031  1.3645
  462MOL0     H60940   6.712   4.043   0.751  0.9084  0.9899 -0.2831
  462MOL0     H60941   6.645   4.203   0.778  0.2546  0.0613 -2.0724
  462MOL0     H60942   6.566   4.086   0.555 -2.1866  1.5372 -0.0695
  462MOL0     H60943   6.514   3.957   0.650  2.4911  0.3710 -1.6150
  462MOL0     H60944   6.354   4.119   0.562 -0.5283  3.0441 -0.2893
  462MOL0     H60945   6.380   4.227   0.696 -1.4745 -0.7895  0.3830
  462MOL0     H60946   6.127   4.190   0.594 -0.2665 -2.4349 -2.1878
  462MOL0     H60947   5.904   4.221   0.632  1.8331 -0.5241 -1.5201
  462MOL0     H60948   5.544   3.878   0.639 -0.3499  0.5895 -0.9105
  462MOL0     H60949   5.290   3.820   0.636  0.0231 -1.7877  3.2967
  462MOL0     H60950   5.135   3.819   0.855 -4.2380 -0.6733  4.7109
  462MOL0     H60951   5.009   3.807   0.728  1.4714  1.2896 -1.4267
  462MOL0     H60952   5.004   3.997   0.974 -0.3848  0.3625 -0.5386
  462MOL0     H60953   4.949   3.828   0.984 -2.1457 -0.5556 -0.8580
  462MOL0     H60954   4.766   3.860   0.836  1.7517 -0.1062 -1.5828
  462MOL0     H60955   4.833   4.029   0.815 -0.8904  1.4388  1.7274
  462MOL0     H60956   4.679   3.902   1.038  2.5073 -1.2356 -0.2465
  462MOL0     H60957   4.808   4.008   1.093 -0.7634 -1.1725  0.5652
  462MOL0     H60958   4.709   4.192   0.976  0.7045 -0.4251  1.4507
  462MOL0     H60959   4.601   4.115   1.102  0.3381  0.5499  0.6141
  462MOL0     H60960   4.491   3.986   0.923 -1.8414  0.8731 -2.5986
  462MOL0     H60961   4.568   4.083   0.794 -0.3459 -0.8113 -1.4241
  462MOL0     H60962   4.422   4.203   1.037  0.4161 -0.4705  0.7605
  462MOL0     H60963   4.470   4.291   0.900  2.6726 -0.4907  2.7564
  462MOL0     H60964   4.265   4.064   0.920 -1.9182  2.2042  1.2484
  462MOL0     H60965   4.307   4.124   0.758 -0.4806 -2.1177  0.5542
  462MOL0     H60966   5.227   4.209   0.823 -0.9567 -0.7236  0.9066
  462MOL0     H60967   5.474   4.255   0.788 -0.2112  0.1232  1.3940
  462MOL0     H60968   5.904   3.928   0.953 -2.2539  1.3309 -1.3720
  462MOL0     H60969   6.163   3.926   0.921 -2.0471 -1.7400  0.7248
  462MOL0     H60970   7.867   4.520   1.298  1.5503 -0.9051  1.4371
  462MOL0     H60971   8.114   4.462   1.271 -0.8381 -2.8618  0.4313
  462MOL0     H60972   8.364   4.176   0.980  0.6945  0.1903  0.4663
  462MOL0     H60973   8.580   4.072   0.899  1.0674  0.0130  1.0804
  462MOL0     H60974   8.958   4.326   0.896  1.8956 -0.0850 -0.2284
  462MOL0     H60975   8.880   4.364   0.741 -0.6536 -1.0299 -1.4427
  462MOL0     H60976   9.096   4.243   0.716  0.0396 -0.3954  2.7936
  462MOL0     H60977   9.035   4.113   0.810  1.2142 -2.9063 -2.6715
  462MOL0     H60978   8.907   4.209   0.546 -0.0603 -0.0763  1.1693
  462MOL0     H60979   8.847   4.076   0.649 -0.1480  0.7359  1.0784
  462MOL0     H60980   9.058   3.952   0.616 -1.0848 -0.3315  0.1658
  462MOL0     H60981   8.973   3.955   0.469  1.6451  1.3592 -2.8385
  462MOL0     H60982   9.302   4.144   0.327 -0.4015 -2.7255 -1.4973
  462MOL0     H60983   8.750   4.473   0.895 -2.2817  2.0420 -1.5929
  462MOL0     H60984   8.555   4.559   0.972 -0.5597  0.5197 -2.3927
  463MOL0     O60985   9.368   6.373   2.738 -0.2628  0.0309 -0.0481
  463MOL0     C60986   9.408   6.471   2.670 -0.2962  0.2180 -0.0340
  463MOL0     O60987   9.328   6.580   2.631 -0.8197 -0.0589 -0.6477
  463MOL0     C60988   9.201   6.574   2.630  0.4302  0.3030 -0.5532
  463MOL0     C60989   9.128   6.485   2.555 -0.1095  0.4893 -0.1232
  463MOL0     C60990   8.991   6.486   2.554 -0.6323 -0.5976  1.1794
  463MOL0     C60991   8.917   6.569   2.645  0.8396 -0.6558  0.9509
  463MOL0     O60992   8.781   6.578   2.636 -0.0740 -0.2256  0.4895
  463MOL0     C60993   8.705   6.612   2.751 -0.3835 -0.3408 -0.6718
  463MOL0     C60994   8.557   6.615   2.704 -0.0442  0.3695  0.2786
  463MOL0     C60995   8.450   6.671   2.804  1.0900  1.6924  0.1471
  463MOL0     C60996   8.315   6.632   2.742  0.7748 -0.3848 -0.0961
  463MOL0     C60997   8.205   6.623   2.845  0.2409  0.2036  0.2335
  463MOL0     C60998   8.238   6.567   2.994  0.5250  0.4735  1.5300
  463MOL0     C60999   8.272   6.679   3.089 -0.6950  0.1388 -0.5737
  463MOL0     C61000   8.277   6.640   3.234 -0.0209 -0.0878 -0.1917
  463MOL0     N61001   8.276   6.758   3.325  1.0520  0.4334 -0.1227
  463MOL0     C61002   8.379   6.845   3.342 -1.0057 -0.3283 -0.6789
  463MOL0     C61003   8.357   6.916   3.458 -0.2396 -0.1357 -0.2857
  463MOL0     C61004   8.431   7.045   3.507  0.0658  0.3116 -0.2267
  463MOL0     C61005   8.578   7.030   3.551  0.3094 -0.1095  0.2042
  463MOL0     C61006   8.630   7.180   3.540 -0.8407 -0.6351  0.2708
  463MOL0     C61007   8.765   7.199   3.605 -0.3799  0.6583 -0.5784
  463MOL0     O61008   8.861   7.144   3.513 -0.3935 -0.4050 -0.7824
  463MOL0     C61009   8.939   7.052   3.567  0.6218  0.1082  0.1768
  463MOL0     C61010   9.054   7.098   3.637 -1.3084  0.7225 -0.1258
  463MOL0     C61011   9.142   7.006   3.688 -0.4116  0.9857 -0.3209
  463MOL0     C61012   9.129   6.873   3.673 -0.8642 -0.4082  0.3721
  463MOL0     C61013   9.244   6.779   3.702  0.1742  0.3381 -0.6273
  463MOL0     O61014   9.270   6.684   3.606  0.4658 -0.1752  0.0765
  463MOL0     C61015   9.396   6.629   3.587 -0.9546  0.3063 -0.6576
  463MOL0     C61016   9.405   6.513   3.511 -0.0538 -0.5189  0.5282
  463MOL0     C61017   9.528   6.461   3.467 -0.2681  0.8195  0.3675
  463MOL0     C61018   9.650   6.514   3.501  0.8534 -0.2086  0.0137
  463MOL0     O61019   9.756   6.436   3.460 -0.0697  0.2728  0.3052
  463MOL0     C61020   9.883   6.495   3.450 -0.1164 -0.2445 -0.2030
  463MOL0     C61021   9.979   6.377   3.413 -0.0082  0.1248 -0.1363
  463MOL0     C61022  10.121   6.427   3.401 -0.2000  0.1535 -0.1627
  463MOL0     C61023  10.229   6.326   3.438 -0.0241 -1.3095 -0.9430
  463MOL0     C61024  10.239   6.200   3.354  0.6953 -0.3332  0.2710
  463MOL0     C61025  10.377   6.132   3.370 -0.1392  0.1115 -0.1707
  463MOL0     C61026  10.362   5.993   3.298 -0.4321  0.3042 -0.3803
  463MOL0     C61027  10.487   5.910   3.307  0.3060  0.7374 -0.1240
  463MOL0    Cl61028  10.636   5.996   3.246  0.0340  0.3435 -0.1383
  463MOL0     C61029   9.649   6.642   3.575  0.8264  0.2296  0.3751
  463MOL0     C61030   9.523   6.689   3.624  0.6354 -0.0971  0.9312
  463MOL0     O61031   9.328   6.801   3.789  0.5433  0.1307 -0.3589
  463MOL0     C61032   9.017   6.822   3.599  0.7929  0.8068 -0.6518
  463MOL0     C61033   8.916   6.910   3.549  0.8877 -0.5370  0.3483
  463MOL0     N61034   8.235   6.869   3.509  0.6070  0.4638  0.5617
  463MOL0     N61035   8.192   6.778   3.429 -0.0302  0.6632 -0.0203
  463MOL0     C61036   8.984   6.663   2.719 -0.2714  0.3798 -0.2297
  463MOL0     C61037   9.132   6.657   2.715 -0.0009 -0.0285  0.6404
  463MOL0     C61038   9.546   6.472   2.622 -0.8632  0.2855 -0.3028
  463MOL0     C61039   9.586   6.569   2.525  0.0643 -0.4345 -0.1148
  463MOL0     C61040   9.725   6.582   2.497 -0.4862  0.5248 -0.0750
  463MOL0     C61041   9.825   6.499   2.553  0.2276 -0.7632 -0.3758
  463MOL0     O61042   9.956   6.529   2.516  0.0350 -0.2136 -0.3411
  463MOL0     C61043  10.065   6.453   2.581  0.6869  0.8063  0.8127
  463MOL0     C61044  10.195   6.517   2.535 -0.8418  0.5057  0.0622
  463MOL0     C61045  10.314   6.456   2.597 -0.2512  0.2539 -0.5301
  463MOL0     C61046  10.351   6.321   2.539  0.1415 -0.4145  0.3600
  463MOL0     C61047  10.385   6.312   2.397 -0.2712  0.1115 -0.4857
  463MOL0     C61048  10.423   6.300   2.280 -0.2413  0.7229  1.0912
  463MOL0     C61049   9.781   6.402   2.647  0.1815  0.7072 -0.2388
  463MOL0     C61050   9.645   6.387   2.675 -0.2170  1.0944  2.0640
  463MOL0     H61051   9.179   6.418   2.486 -0.7820  2.2416 -2.4410
  463MOL0     H61052   8.922   6.432   2.489  0.3579  0.2392 -0.6356
  463MOL0     H61053   8.736   6.711   2.787  1.7963 -0.9769 -0.6410
  463MOL0     H61054   8.718   6.544   2.836  2.5085  2.5833  1.5122
  463MOL0     H61055   8.548   6.508   2.681  0.4787  0.0102  1.6807
  463MOL0     H61056   8.553   6.683   2.618  2.8715  1.1066  0.6356
  463MOL0     H61057   8.447   6.780   2.815  3.5863  2.0288 -1.6099
  463MOL0     H61058   8.475   6.637   2.905 -2.8364  1.7222  1.2850
  463MOL0     H61059   8.297   6.705   2.663  2.9469  1.3254  0.8662
  463MOL0     H61060   8.315   6.534   2.694 -0.5126  0.0123 -0.9456
  463MOL0     H61061   8.127   6.564   2.796 -0.3518  1.1526  0.0021
  463MOL0     H61062   8.173   6.727   2.859  1.0782  0.3020  1.5452
  463MOL0     H61063   8.322   6.497   2.997  4.5139  4.5193 -1.9087
  463MOL0     H61064   8.147   6.518   3.031 -1.6218 -2.0766 -5.5196
  463MOL0     H61065   8.373   6.709   3.061 -0.9667 -0.4714 -2.3003
  463MOL0     H61066   8.206   6.765   3.073 -0.4177 -0.0938 -3.4810
  463MOL0     H61067   8.359   6.573   3.263  2.7689  2.7390 -0.9266
  463MOL0     H61068   8.185   6.585   3.256 -0.0811 -0.0058 -0.2390
  463MOL0     H61069   8.468   6.848   3.280  1.7687 -1.3186  2.8842
  463MOL0     H61070   8.377   7.079   3.596  1.5871 -2.0181  1.7572
  463MOL0     H61071   8.403   7.106   3.421 -2.5436 -4.5590 -3.3142
  463MOL0     H61072   8.639   6.966   3.486 -1.2873  0.6070 -2.1239
  463MOL0     H61073   8.589   6.999   3.655  1.6922  0.5488  0.2763
  463MOL0     H61074   8.641   7.210   3.436 -1.9702 -0.4665  0.1851
  463MOL0     H61075   8.559   7.249   3.587  0.2776  1.2444 -0.6831
  463MOL0     H61076   8.774   7.139   3.696  3.4941  0.2288 -1.1120
  463MOL0     H61077   8.787   7.305   3.623 -0.9300  0.8857 -1.1882
  463MOL0     H61078   9.070   7.203   3.660 -0.1261  0.2334  1.4136
  463MOL0     H61079   9.226   7.037   3.750 -0.1527 -1.6949  0.8199
  463MOL0     H61080   9.312   6.470   3.475 -2.2643  1.0035  3.8732
  463MOL0     H61081   9.535   6.370   3.410  1.4341  0.8223  0.5208
  463MOL0     H61082   9.921   6.537   3.543  0.7763 -0.4816 -0.4522
  463MOL0     H61083   9.871   6.572   3.373 -0.6259 -0.8970 -0.7971
  463MOL0     H61084   9.949   6.312   3.331  1.0082  0.5261 -0.8467
  463MOL0     H61085   9.974   6.312   3.501 -2.8669  1.4798  0.8297
  463MOL0     H61086  10.128   6.509   3.473  0.8655  1.2713 -1.4847
  463MOL0     H61087  10.144   6.466   3.301  1.9346  0.2461  0.3214
  463MOL0     H61088  10.318   6.387   3.419  0.1391 -1.0349  0.6294
  463MOL0     H61089  10.227   6.299   3.544 -2.0983  0.7699 -0.3538
  463MOL0     H61090  10.218   6.228   3.251 -0.8940  0.2907  0.7375
  463MOL0     H61091  10.165   6.129   3.393  0.4832 -3.3361 -4.6751
  463MOL0     H61092  10.403   6.110   3.474 -0.4240 -1.8424 -0.4706
  463MOL0     H61093  10.459   6.183   3.318 -1.0528  0.2683 -1.4905
  463MOL0     H61094  10.278   5.939   3.342  1.3233 -0.3631  2.3887
  463MOL0     H61095  10.344   6.014   3.192 -2.7813  3.2716  0.4758
  463MOL0     H61096  10.469   5.818   3.252  0.6745  1.1497 -0.9627
  463MOL0     H61097  10.501   5.875   3.410  0.9792 -0.1168 -0.4952
  463MOL0     H61098   9.740   6.698   3.593  1.2797 -0.5610  0.5884
  463MOL0     H61099   9.536   6.784   3.674  1.6619 -0.2506  0.9769
  463MOL0     H61100   9.005   6.718   3.571  3.5274  0.6333 -1.4577
  463MOL0     H61101   8.837   6.867   3.488 -0.2518  1.3824  0.3617
  463MOL0     H61102   8.939   6.740   2.781  0.1472  0.8968 -0.5508
  463MOL0     H61103   9.184   6.736   2.769 -1.0646  1.7230 -0.7940
  463MOL0     H61104   9.508   6.638   2.493  1.3701  1.8169  1.2536
  463MOL0     H61105   9.752   6.658   2.424 -1.7886  0.6757 -0.4359
  463MOL0     H61106  10.059   6.358   2.527 -1.5859  2.9375 -3.0760
  463MOL0     H61107  10.050   6.444   2.689 -1.3135  1.1372  0.5981
  463MOL0     H61108  10.209   6.517   2.427  1.2095 -1.7253  0.2563
  463MOL0     H61109  10.190   6.620   2.573  1.2444 -0.4758  3.3928
  463MOL0     H61110  10.306   6.444   2.706 -0.2080 -1.8807 -0.7272
  463MOL0     H61111  10.400   6.523   2.582 -1.4576  2.1581  0.6124
  463MOL0     H61112  10.450   6.299   2.579  0.3243 -1.5880 -0.6609
  463MOL0     H61113  10.284   6.241   2.573 -1.0306  0.1669 -0.5212
  463MOL0     H61114  10.463   6.294   2.181  0.0088 -2.4024  1.2930
  463MOL0     H61115   9.844   6.333   2.703 -0.9151  0.8306  1.2091
  463MOL0     H61116   9.642   6.300   2.741 -0.3723 -2.0291 -1.7263
  464MOL0     O61117   3.875   0.976   4.771 -0.1931 -0.3790  0.3478
  464MOL0     C61118   3.844   1.096   4.786 -0.3892  0.0992  1.4968
  464MOL0     O61119   3.714   1.140   4.808 -0.4954  0.6948 -0.5546
  464MOL0     C61120   3.621   1.045   4.843 -0.6437 -0.1872  0.2496
  464MOL0     C61121   3.492   1.054   4.780 -0.6489  0.3739 -0.5211
  464MOL0     C61122   3.384   0.983   4.849  0.0026 -0.8820 -0.4930
  464MOL0     C61123   3.396   0.902   4.959  0.3874  0.3734  0.2553
  464MOL0     O61124   3.297   0.818   5.018  0.5059 -0.0950  0.7880
  464MOL0     C61125   3.188   0.777   4.931  0.2896 -1.1364 -0.7088
  464MOL0     C61126   3.093   0.695   5.019  0.3514 -0.3829 -0.0400
  464MOL0     C61127   3.008   0.596   4.944 -0.3872 -0.6042  0.7491
  464MOL0     C61128   2.923   0.505   5.036 -0.0127  0.7088  0.0777
  464MOL0     C61129   2.817   0.420   4.958  1.6089 -0.2036 -0.5115
  464MOL0     C61130   2.716   0.362   5.047 -0.3864  0.7520 -0.2475
  464MOL0     C61131   2.634   0.258   4.968  0.0007  0.5964  0.4863
  464MOL0     C61132   2.524   0.178   5.047 -0.0053 -0.2804  0.0814
  464MOL0     N61133   2.423   0.270   5.107 -0.1795 -0.2092 -0.0600
  464MOL0     C61134   2.329   0.340   5.036  0.0313  0.1661  0.1583
  464MOL0     C61135   2.265   0.420   5.129  0.5906  0.8567 -1.2957
  464MOL0     C61136   2.161   0.527   5.099  0.0497 -0.3329  0.1974
  464MOL0     C61137   2.015   0.478   5.114  0.3566  0.8832  0.1039
  464MOL0     C61138   1.991   0.392   5.232 -0.2919  0.1786  0.1540
  464MOL0     C61139   1.845   0.329   5.247 -0.1452  0.2720  0.0069
  464MOL0     O61140   1.821   0.237   5.139 -0.0850  0.4130  0.0638
  464MOL0     C61141   1.699   0.179   5.125 -0.1219  0.3559  0.3862
  464MOL0     C61142   1.679   0.100   5.009 -0.9264 -0.0647 -0.9244
  464MOL0     C61143   1.558   0.032   4.995  0.5407 -0.8265  0.6197
  464MOL0     C61144   1.451   0.046   5.088  0.8036  0.6695  0.0513
  464MOL0     C61145   1.331  -0.034   5.081 -0.0143 -0.1305  1.1785
  464MOL0     O61146   1.230  -0.012   5.164  0.5230  0.0589 -0.1514
  464MOL0     C61147   1.109  -0.086   5.170 -1.0723 -0.0426 -0.0523
  464MOL0     C61148   1.093  -0.224   5.160  0.2295 -1.1334 -0.6366
  464MOL0     C61149   0.965  -0.275   5.149  0.1281  0.6631 -0.4634
  464MOL0     C61150   0.850  -0.196   5.144 -0.0648  0.4769  0.8229
  464MOL0     O61151   0.724  -0.253   5.133  0.0893 -1.1120  1.0019
  464MOL0     C61152   0.706  -0.374   5.207  0.1581  0.4594 -0.0839
  464MOL0     C61153   0.559  -0.379   5.241  0.3566 -0.3710 -1.1011
  464MOL0     C61154   0.518  -0.502   5.307  0.2548  0.0292  0.2829
  464MOL0     C61155   0.392  -0.483   5.378  0.2101  0.2944  0.2576
  464MOL0     C61156   0.354  -0.617   5.446 -0.4741 -0.0764 -0.6734
  464MOL0     C61157   0.224  -0.611   5.532  0.3606 -0.2998  0.1982
  464MOL0     C61158   0.098  -0.571   5.447 -0.0710  0.2486  0.2839
  464MOL0     C61159  -0.035  -0.582   5.531 -0.5100 -0.4349  0.2839
  464MOL0    Cl61160  -0.024  -0.496   5.678  0.1140 -0.0803 -0.4194
  464MOL0     C61161   0.867  -0.058   5.161 -1.5655 -0.7959  0.5034
  464MOL0     C61162   0.999  -0.007   5.176 -0.7027 -0.1425 -0.3758
  464MOL0     O61163   1.329  -0.117   4.994 -0.4523  0.9367  0.4447
  464MOL0     C61164   1.473   0.130   5.200 -0.6125 -0.8468 -0.1752
  464MOL0     C61165   1.596   0.198   5.212  0.7433  0.1055 -0.0423
  464MOL0     N61166   2.322   0.401   5.251  0.5423  0.1985 -0.1601
  464MOL0     N61167   2.410   0.322   5.237 -0.9578 -0.2124  0.4606
  464MOL0     C61168   3.529   0.885   5.003 -0.4876  0.3060 -0.3984
  464MOL0     C61169   3.645   0.955   4.950  0.6794  0.3279 -0.1225
  464MOL0     C61170   3.951   1.198   4.757  0.1478 -0.3471 -0.2131
  464MOL0     C61171   3.916   1.343   4.761  0.2562 -0.2924 -0.4841
  464MOL0     C61172   4.023   1.434   4.727 -0.1287  0.0418 -0.2201
  464MOL0     C61173   4.157   1.389   4.701  0.3323  1.0646  0.5171
  464MOL0     O61174   4.248   1.485   4.695  0.6525  0.6343 -0.3362
  464MOL0     C61175   4.381   1.461   4.701 -0.4265 -0.0475 -0.7448
  464MOL0     C61176   4.474   1.564   4.640  0.4998 -0.5599  0.3328
  464MOL0     C61177   4.476   1.697   4.728  0.3386 -0.1820  0.6076
  464MOL0     C61178   4.585   1.798   4.690  0.2958  0.1537  0.4325
  464MOL0     C61179   4.558   1.868   4.558 -0.3543 -0.6980  0.6888
  464MOL0     C61180   4.524   1.925   4.452 -0.2144 -0.2118 -1.2702
  464MOL0     C61181   4.194   1.251   4.712 -0.2873  0.3139 -0.9438
  464MOL0     C61182   4.088   1.164   4.739 -0.3133  0.1874 -0.0152
  464MOL0     H61183   3.474   1.117   4.693 -2.9829 -1.5935 -1.5778
  464MOL0     H61184   3.281   0.997   4.819 -0.4854  1.6344  1.8993
  464MOL0     H61185   3.244   0.717   4.858 -0.8063 -3.2127  0.0812
  464MOL0     H61186   3.135   0.855   4.875  1.8337  1.3805  1.1288
  464MOL0     H61187   3.023   0.756   5.076  0.7073 -0.9620  1.0491
  464MOL0     H61188   3.158   0.643   5.090  0.4595 -0.0872  0.0779
  464MOL0     H61189   3.071   0.530   4.883 -2.2433  0.7861 -2.9586
  464MOL0     H61190   2.942   0.656   4.880  0.9372 -0.3255 -0.4149
  464MOL0     H61191   2.990   0.434   5.085  0.9289  0.1359 -1.9171
  464MOL0     H61192   2.881   0.565   5.117 -1.0722 -1.1215  0.9673
  464MOL0     H61193   2.868   0.352   4.889  1.3500  0.6599 -1.5762
  464MOL0     H61194   2.762   0.486   4.891  0.4323  1.2461  1.7674
  464MOL0     H61195   2.646   0.441   5.075  0.3874  1.6713 -0.8600
  464MOL0     H61196   2.768   0.321   5.134  0.4224  2.2679  0.0278
  464MOL0     H61197   2.598   0.305   4.876 -2.6339 -0.2412  1.0110
  464MOL0     H61198   2.705   0.177   4.944  1.4690  1.9568  0.0925
  464MOL0     H61199   2.565   0.115   5.127 -0.8820 -1.3398 -0.2743
  464MOL0     H61200   2.474   0.111   4.976 -2.5033  0.3707  1.1190
  464MOL0     H61201   2.309   0.330   4.930 -2.2504 -1.9366  0.6785
  464MOL0     H61202   2.176   0.546   4.993 -3.3995  1.3823 -0.1176
  464MOL0     H61203   2.176   0.616   5.161  1.1564 -2.1239  2.6842
  464MOL0     H61204   2.012   0.412   5.027  2.4609  0.3639  0.3798
  464MOL0     H61205   1.943   0.560   5.106  0.3145  0.6879 -2.0824
  464MOL0     H61206   2.061   0.308   5.231  2.8185  2.6022  0.1967
  464MOL0     H61207   2.017   0.448   5.322  0.5263  0.9259 -0.5413
  464MOL0     H61208   1.765   0.404   5.244 -0.0081  0.6479  3.0232
  464MOL0     H61209   1.845   0.273   5.341  0.0273  0.1053 -0.0915
  464MOL0     H61210   1.743   0.087   4.922 -0.7563 -3.2345 -0.4370
  464MOL0     H61211   1.569  -0.047   4.921  1.7429 -0.2662  0.1735
  464MOL0     H61212   1.183  -0.281   5.140  0.1800 -1.0516 -1.1117
  464MOL0     H61213   0.952  -0.383   5.141  1.5483  0.5034 -0.8580
  464MOL0     H61214   0.764  -0.381   5.299 -0.4447 -1.5617  0.1788
  464MOL0     H61215   0.728  -0.460   5.144 -2.2132  0.4195 -0.9299
  464MOL0     H61216   0.501  -0.360   5.150  0.5288  0.0459 -1.1257
  464MOL0     H61217   0.533  -0.297   5.309 -4.3604 -1.7624 -0.8488
  464MOL0     H61218   0.592  -0.540   5.378  0.2155 -0.7538 -0.0826
  464MOL0     H61219   0.496  -0.578   5.232 -0.8913 -0.8611  1.4634
  464MOL0     H61220   0.402  -0.407   5.455  0.2746 -1.1894  1.7661
  464MOL0     H61221   0.318  -0.457   5.302 -0.4581  0.1627  0.8594
  464MOL0     H61222   0.434  -0.632   5.519  0.0795  1.2544 -0.9776
  464MOL0     H61223   0.339  -0.696   5.372 -3.0667 -0.6892  0.4230
  464MOL0     H61224   0.235  -0.535   5.610 -2.7459  1.1070 -0.5884
  464MOL0     H61225   0.212  -0.714   5.566 -2.1151 -0.7793 -1.8308
  464MOL0     H61226   0.093  -0.466   5.415 -2.5971  0.1158  0.0365
  464MOL0     H61227   0.096  -0.648   5.369 -1.2089 -0.1674  0.7126
  464MOL0     H61228  -0.060  -0.683   5.564  0.2877 -0.3038  1.3344
  464MOL0     H61229  -0.117  -0.551   5.465  1.1282  0.7630 -1.2914
  464MOL0     H61230   0.774  -0.006   5.177  0.7044  4.0053 -0.2033
  464MOL0     H61231   1.011   0.100   5.191 -0.6473 -0.1332 -0.4811
  464MOL0     H61232   1.389   0.134   5.268 -0.7642  0.3838 -0.4060
  464MOL0     H61233   1.591   0.259   5.302  0.2452  0.4550 -0.2991
  464MOL0     H61234   3.535   0.797   5.066 -2.4891 -1.3588 -2.3537
  464MOL0     H61235   3.740   0.938   4.999  0.3873  0.4912  0.5119
  464MOL0     H61236   3.822   1.382   4.797  0.2700 -0.2663 -0.4755
  464MOL0     H61237   4.005   1.541   4.723 -3.3028 -0.3858  0.1635
  464MOL0     H61238   4.412   1.369   4.650  1.1051  1.1441 -2.0749
  464MOL0     H61239   4.409   1.454   4.807  0.1872  0.2917 -0.8816
  464MOL0     H61240   4.575   1.522   4.631 -0.3499 -2.2756 -2.3151
  464MOL0     H61241   4.430   1.603   4.548  0.0218 -0.4356  0.6111
  464MOL0     H61242   4.480   1.652   4.828 -1.0057 -0.0516  0.7492
  464MOL0     H61243   4.382   1.753   4.715 -0.7888 -2.1854 -0.2791
  464MOL0     H61244   4.587   1.874   4.768 -1.4661  0.1215  0.5445
  464MOL0     H61245   4.683   1.748   4.690  0.6225  0.7830  0.3775
  464MOL0     H61246   4.504   1.976   4.360  2.1195  1.8679 -0.7361
  464MOL0     H61247   4.294   1.215   4.691  1.1254  3.4663 -0.2564
  464MOL0     H61248   4.117   1.059   4.742  3.1531  1.0190  0.5187
  465MOL0     O61249   0.286   1.159   5.864  0.1567 -0.4489 -0.0751
  465MOL0     C61250   0.281   1.282   5.863  0.1840  0.2066  0.1574
  465MOL0     O61251   0.384   1.367   5.871 -0.1991 -0.6924  0.1206
  465MOL0     C61252   0.521   1.331   5.890 -0.5875  0.1998 -0.0143
  465MOL0     C61253   0.574   1.220   5.823 -0.1240 -0.4237  0.3543
  465MOL0     C61254   0.715   1.213   5.821  1.3885  0.3702  0.1726
  465MOL0     C61255   0.804   1.304   5.874 -0.0565  0.1488  0.8234
  465MOL0     O61256   0.936   1.284   5.851  0.6236 -0.8256  0.0958
  465MOL0     C61257   1.021   1.395   5.825  0.1423 -0.1523  0.6128
  465MOL0     C61258   1.147   1.380   5.900  0.9116 -0.5472 -0.4398
  465MOL0     C61259   1.237   1.277   5.840  0.1224 -0.0271 -0.9600
  465MOL0     C61260   1.345   1.239   5.943  0.4910  0.0348  0.6136
  465MOL0     C61261   1.420   1.122   5.868  0.2188 -0.4691  0.7783
  465MOL0     C61262   1.528   1.052   5.951 -0.3487 -0.2725 -0.1118
  465MOL0     C61263   1.659   1.023   5.863  0.8424  0.1155  0.0310
  465MOL0     C61264   1.633   0.945   5.726  0.0021  0.3561  0.7663
  465MOL0     N61265   1.596   0.807   5.753 -0.7036  0.3495 -0.8492
  465MOL0     C61266   1.462   0.755   5.759 -0.0888  0.7131  0.2153
  465MOL0     C61267   1.470   0.643   5.838  0.5349  0.0165  0.3216
  465MOL0     C61268   1.363   0.556   5.873 -0.7671  0.0310  0.7929
  465MOL0     C61269   1.226   0.612   5.861 -0.2619  0.9014 -0.0177
  465MOL0     C61270   1.109   0.507   5.890  0.0616  0.1648 -0.2903
  465MOL0     C61271   1.113   0.372   5.816  0.2218  0.1862 -0.6440
  465MOL0     O61272   1.009   0.294   5.870 -0.3805  0.6959  0.1809
  465MOL0     C61273   0.882   0.334   5.840  0.3809  0.1662  0.8150
  465MOL0     C61274   0.829   0.407   5.721 -0.6230 -0.2418 -0.2133
  465MOL0     C61275   0.686   0.414   5.702 -0.4251 -0.4728  0.8782
  465MOL0     C61276   0.591   0.362   5.787  0.4694  0.5158  0.0175
  465MOL0     C61277   0.445   0.357   5.755  0.1538  0.6861 -0.4678
  465MOL0     O61278   0.362   0.292   5.843 -0.4803  0.2373  0.2338
  465MOL0     C61279   0.225   0.301   5.825  0.5088  0.1436 -0.5224
  465MOL0     C61280   0.166   0.427   5.818  0.1393 -0.2188  0.6196
  465MOL0     C61281   0.028   0.444   5.796  0.2669 -1.0145 -0.2046
  465MOL0     C61282  -0.052   0.334   5.793 -0.0740  0.4333 -0.3892
  465MOL0     O61283  -0.187   0.359   5.786  0.6127  0.1026  0.8138
  465MOL0     C61284  -0.286   0.266   5.834 -0.1707 -0.1383 -0.0713
  465MOL0     C61285  -0.415   0.346   5.836 -0.3470 -0.0984 -0.2012
  465MOL0     C61286  -0.543   0.254   5.824  0.2889 -0.5544  0.0871
  465MOL0     C61287  -0.667   0.327   5.873 -0.3651 -0.3890 -0.3145
  465MOL0     C61288  -0.804   0.242   5.859 -0.4929  0.0337  0.0743
  465MOL0     C61289  -0.919   0.321   5.919  0.2685 -1.0236  0.6246
  465MOL0     C61290  -0.949   0.433   5.817 -0.0724  0.3221 -0.5978
  465MOL0     C61291  -1.104   0.454   5.802  0.2315 -0.0887 -0.1543
  465MOL0    Cl61292  -1.144   0.579   5.685 -0.2192  0.3994  0.0004
  465MOL0     C61293   0.004   0.204   5.802 -0.1906  0.1085  0.9005
  465MOL0     C61294   0.144   0.189   5.814 -0.5966  0.6211 -0.1537
  465MOL0     O61295   0.413   0.419   5.659  0.2581 -0.0003  0.7751
  465MOL0     C61296   0.648   0.310   5.908  0.1546  0.6262  0.0648
  465MOL0     C61297   0.783   0.277   5.927  0.2994  0.4178 -0.0121
  465MOL0     N61298   1.606   0.629   5.875  0.2191  0.4400 -0.5903
  465MOL0     N61299   1.674   0.718   5.822  0.9885  0.4429 -0.4809
  465MOL0     C61300   0.745   1.414   5.939  0.0063  0.6196  0.5185
  465MOL0     C61301   0.604   1.426   5.944  0.1549  0.6107  0.3178
  465MOL0     C61302   0.151   1.350   5.843  0.4277  1.0985 -0.1318
  465MOL0     C61303   0.033   1.279   5.865 -0.1207 -0.3675  0.4018
  465MOL0     C61304  -0.091   1.332   5.845 -0.6746 -0.8170 -0.3158
  465MOL0     C61305  -0.103   1.454   5.779  0.9215  0.4588  0.2486
  465MOL0     O61306  -0.234   1.484   5.755  0.0054  0.2538  0.4134
  465MOL0     C61307  -0.273   1.608   5.716 -0.3291 -0.4004 -0.4317
  465MOL0     C61308  -0.417   1.607   5.662  0.1925  0.4329 -0.6490
  465MOL0     C61309  -0.480   1.737   5.690 -0.1393  0.2063 -0.1643
  465MOL0     C61310  -0.636   1.733   5.680  0.1928 -0.1263  0.0652
  465MOL0     C61311  -0.693   1.865   5.697 -0.2261  0.8613  0.9183
  465MOL0     C61312  -0.751   1.968   5.724  0.5441 -0.1070  0.3674
  465MOL0     C61313   0.016   1.521   5.748  0.0666 -0.6283  0.5537
  465MOL0     C61314   0.145   1.477   5.784 -0.6852  0.0652 -0.3756
  465MOL0     H61315   0.518   1.147   5.766  1.4569 -0.7257 -0.8844
  465MOL0     H61316   0.754   1.136   5.755 -0.6193 -1.0736  0.5853
  465MOL0     H61317   0.980   1.493   5.854 -0.4041 -0.9106  2.5570
  465MOL0     H61318   1.044   1.402   5.719  0.4780  0.3996  0.7167
  465MOL0     H61319   1.122   1.366   6.005  1.4656  0.3912 -0.1698
  465MOL0     H61320   1.191   1.480   5.892 -1.2272  0.7089  1.9829
  465MOL0     H61321   1.282   1.307   5.745 -0.9937 -0.5250 -1.6629
  465MOL0     H61322   1.170   1.193   5.824  0.6024 -0.2989 -1.5673
  465MOL0     H61323   1.410   1.325   5.963  0.7826 -0.1102  0.2993
  465MOL0     H61324   1.296   1.193   6.029 -1.2114 -1.1031 -0.9192
  465MOL0     H61325   1.465   1.159   5.776 -0.5714 -0.3444  0.4291
  465MOL0     H61326   1.346   1.047   5.839 -0.4102  0.0336  1.0396
  465MOL0     H61327   1.496   0.953   5.984 -1.2701  0.3079  0.7701
  465MOL0     H61328   1.552   1.106   6.043 -0.4070 -3.8072  2.1702
  465MOL0     H61329   1.715   1.109   5.826  0.7925 -0.9306 -2.7282
  465MOL0     H61330   1.732   0.975   5.929 -0.1324  2.4659  3.0618
  465MOL0     H61331   1.730   0.940   5.676  0.7483  2.5255  1.8737
  465MOL0     H61332   1.552   0.993   5.670 -0.5947  1.3994  2.4351
  465MOL0     H61333   1.382   0.808   5.710  0.1375  0.4963 -0.3977
  465MOL0     H61334   1.379   0.526   5.977 -1.3578  2.1908  1.5510
  465MOL0     H61335   1.380   0.467   5.810  0.0369  1.0994 -0.5523
  465MOL0     H61336   1.211   0.657   5.762 -0.0346  1.2833  0.1187
  465MOL0     H61337   1.222   0.688   5.940  1.0615  1.0035 -0.0252
  465MOL0     H61338   1.112   0.482   5.996  5.6567 -2.3577 -0.6579
  465MOL0     H61339   1.014   0.556   5.868 -0.0669  0.3108  0.5555
  465MOL0     H61340   1.204   0.321   5.847  2.9948  4.1112 -1.5298
  465MOL0     H61341   1.101   0.379   5.708  3.1045  0.0520 -1.0442
  465MOL0     H61342   0.893   0.461   5.651 -1.0564  1.9727  1.0097
  465MOL0     H61343   0.656   0.454   5.605 -0.8735 -1.0095  0.7908
  465MOL0     H61344   0.221   0.520   5.824  1.0082 -0.5886 -1.1500
  465MOL0     H61345  -0.007   0.545   5.776 -1.3764 -1.3403  0.8440
  465MOL0     H61346  -0.259   0.223   5.931  0.4030  0.4391  0.0361
  465MOL0     H61347  -0.295   0.183   5.764  1.4939 -1.2087  0.8960
  465MOL0     H61348  -0.415   0.422   5.757  1.8617  0.5349  0.3281
  465MOL0     H61349  -0.414   0.405   5.928 -4.1597  0.5658 -0.4230
  465MOL0     H61350  -0.528   0.163   5.882 -0.1396  0.2759  1.5472
  465MOL0     H61351  -0.547   0.209   5.724  1.7210  2.6945 -1.5616
  465MOL0     H61352  -0.662   0.366   5.975 -4.2647  3.6819 -1.3299
  465MOL0     H61353  -0.682   0.416   5.811 -1.2889 -1.4616 -1.7042
  465MOL0     H61354  -0.800   0.142   5.905  2.9087 -0.5608 -1.2493
  465MOL0     H61355  -0.813   0.221   5.752 -1.8169  3.0463 -0.5114
  465MOL0     H61356  -0.902   0.367   6.017 -3.2174  0.5653  0.6442
  465MOL0     H61357  -1.009   0.259   5.924 -1.7289  1.4093 -1.9717
  465MOL0     H61358  -0.908   0.527   5.856  2.4346 -0.9496  0.0718
  465MOL0     H61359  -0.903   0.411   5.721  2.0531 -1.4751  0.7310
  465MOL0     H61360  -1.153   0.470   5.898  1.3839  1.7108  0.1817
  465MOL0     H61361  -1.149   0.359   5.771 -0.2297 -0.3239  1.1827
  465MOL0     H61362  -0.058   0.115   5.793  0.2735 -0.2777  1.4397
  465MOL0     H61363   0.194   0.094   5.805 -1.9987 -0.0378 -7.5428
  465MOL0     H61364   0.583   0.268   5.984 -1.5425  2.7675 -0.0966
  465MOL0     H61365   0.808   0.227   6.020  1.0280 -0.2882 -0.5764
  465MOL0     H61366   0.814   1.489   5.978  2.6356  0.9823 -4.1374
  465MOL0     H61367   0.559   1.517   5.984 -1.0848  0.6045 -0.9892
  465MOL0     H61368   0.034   1.176   5.898  3.1343 -0.5881 -0.0064
  465MOL0     H61369  -0.180   1.282   5.881 -0.2720 -0.0914  1.7910
  465MOL0     H61370  -0.204   1.649   5.642 -1.4768 -2.1984 -2.6474
  465MOL0     H61371  -0.274   1.670   5.806 -0.1264 -0.9537 -0.0449
  465MOL0     H61372  -0.421   1.594   5.554  1.2727  1.1562 -0.7912
  465MOL0     H61373  -0.474   1.523   5.702  1.7469  0.2131  1.2477
  465MOL0     H61374  -0.437   1.801   5.613  0.1113  0.4607  0.1848
  465MOL0     H61375  -0.456   1.781   5.788  0.6396 -1.7638  0.5865
  465MOL0     H61376  -0.667   1.685   5.587  1.7431 -0.2848 -0.4007
  465MOL0     H61377  -0.682   1.680   5.764  1.0133 -0.7525  0.1344
  465MOL0     H61378  -0.824   2.045   5.740  0.1969 -0.5957  1.1839
  465MOL0     H61379   0.004   1.619   5.704 -0.8554  0.0279  2.1862
  465MOL0     H61380   0.232   1.538   5.763 -1.0184  0.2306 -1.3386
  466MOL0     O61381  10.710   7.263   2.810 -0.1082  0.0644  0.5843
  466MOL0     C61382  10.607   7.309   2.864  0.2081  0.6641  0.5512
  466MOL0     O61383  10.609   7.399   2.972  1.0110 -0.2421 -0.1267
  466MOL0     C61384  10.725   7.447   3.024  0.3508 -0.0088 -0.5116
  466MOL0     C61385  10.806   7.383   3.131 -0.3362  0.6570  0.1513
  466MOL0     C61386  10.927   7.440   3.171 -0.6195 -0.9532  0.0851
  466MOL0     C61387  10.965   7.562   3.117  0.8579  1.0668 -0.5912
  466MOL0     O61388  11.069   7.616   3.179  0.4919  0.0394 -0.7556
  466MOL0     C61389  11.145   7.689   3.085  0.4736  0.7962  1.0729
  466MOL0     C61390  11.270   7.733   3.141  0.1030 -0.2354  0.2115
  466MOL0     C61391  11.264   7.816   3.270  0.5647 -0.1971  0.0744
  466MOL0     C61392  11.208   7.755   3.394 -0.2922  0.6379  0.0306
  466MOL0     C61393  11.253   7.839   3.509 -0.0853  0.2871  0.6321
  466MOL0     C61394  11.226   7.767   3.633  0.2537 -0.0108 -0.8076
  466MOL0     C61395  11.286   7.851   3.748 -0.4851  1.0010 -0.1273
  466MOL0     C61396  11.292   7.750   3.869  0.5730 -0.0162  0.1088
  466MOL0     N61397  11.219   7.803   3.982 -0.2495  0.0863 -0.8062
  466MOL0     C61398  11.080   7.787   4.010  0.0141  0.1410  0.3210
  466MOL0     C61399  11.071   7.850   4.123  0.3749 -0.2013 -0.9388
  466MOL0     C61400  10.947   7.865   4.212  0.7370 -0.4767 -0.6201
  466MOL0     C61401  10.851   7.982   4.161 -0.3058  0.1546  0.2092
  466MOL0     C61402  10.911   8.125   4.144  1.0761 -0.1902  0.7937
  466MOL0     C61403  10.805   8.223   4.095 -0.1564 -0.2187 -0.1694
  466MOL0     O61404  10.705   8.162   3.998 -0.6591 -0.2916 -0.3559
  466MOL0     C61405  10.600   8.234   3.950 -1.1222 -0.1541 -0.1386
  466MOL0     C61406  10.505   8.166   3.882 -0.0278  0.4022  0.1985
  466MOL0     C61407  10.388   8.223   3.826 -0.3599 -0.1555 -0.2853
  466MOL0     C61408  10.372   8.365   3.842  0.8386 -0.0667 -0.2679
  466MOL0     C61409  10.258   8.437   3.776  0.8573 -1.0932  0.7560
  466MOL0     O61410  10.147   8.370   3.774 -0.6506 -0.0759  0.3953
  466MOL0     C61411  10.025   8.419   3.742  0.2027 -0.8647 -0.1033
  466MOL0     C61412   9.983   8.545   3.781 -0.1122  0.4847 -0.0175
  466MOL0     C61413   9.859   8.591   3.756  0.9255  0.0896 -0.3874
  466MOL0     C61414   9.769   8.509   3.679 -0.4084  0.6677  0.4576
  466MOL0     O61415   9.648   8.562   3.637  0.5126 -0.3812  0.3805
  466MOL0     C61416   9.562   8.619   3.747  0.1663 -0.7125  0.6894
  466MOL0     C61417   9.424   8.624   3.692  0.0492  0.2515  0.6057
  466MOL0     C61418   9.395   8.761   3.622  0.3011  0.1625 -0.4280
  466MOL0     C61419   9.248   8.771   3.575  0.2385  0.0841  0.4717
  466MOL0     C61420   9.138   8.734   3.679 -0.3891 -0.0611 -0.7690
  466MOL0     C61421   9.002   8.803   3.663  0.5043  0.4665  1.1183
  466MOL0     C61422   8.931   8.748   3.546 -0.2433 -0.6910  0.1057
  466MOL0     C61423   8.808   8.839   3.507  0.7159  0.5702 -0.1598
  466MOL0    Cl61424   8.695   8.744   3.392  0.2015 -0.3654  0.4077
  466MOL0     C61425   9.813   8.383   3.635  0.0570 -0.4539 -0.5375
  466MOL0     C61426   9.942   8.331   3.672  0.1727  0.6945 -0.4808
  466MOL0     O61427  10.270   8.557   3.751 -0.0491 -0.3938 -0.3683
  466MOL0     C61428  10.476   8.439   3.910 -0.5536 -0.5537  0.0706
  466MOL0     C61429  10.587   8.374   3.963  0.5102  0.4243  0.0224
  466MOL0     N61430  11.191   7.917   4.158 -0.2627 -0.1779 -0.7002
  466MOL0     N61431  11.283   7.870   4.081  0.4952 -0.5847 -0.6337
  466MOL0     C61432  10.893   7.619   3.006  0.9849  0.2799 -0.5257
  466MOL0     C61433  10.771   7.561   2.959  0.9051 -0.8381 -0.7696
  466MOL0     C61434  10.480   7.253   2.821  0.6714 -0.2884 -0.2492
  466MOL0     C61435  10.471   7.167   2.718 -0.3853  0.6179  0.4616
  466MOL0     C61436  10.347   7.113   2.669  0.0888  0.7100 -0.7898
  466MOL0     C61437  10.225   7.149   2.723  0.0772  0.2066 -0.3276
  466MOL0     O61438  10.122   7.083   2.664 -0.4507  0.4392  0.0076
  466MOL0     C61439   9.994   7.118   2.714  0.7342 -0.4141 -0.4934
  466MOL0     C61440   9.902   7.021   2.639  0.4115  0.5273  0.1124
  466MOL0     C61441   9.916   6.872   2.674  0.1665 -0.1896 -1.0569
  466MOL0     C61442   9.832   6.834   2.807  0.2880  0.5679 -0.4996
  466MOL0     C61443   9.684   6.847   2.788 -1.8513  0.3348  0.2248
  466MOL0     C61444   9.563   6.835   2.773 -0.2116  0.0037  0.5743
  466MOL0     C61445  10.228   7.248   2.826  0.3329 -0.0171 -0.0423
  466MOL0     C61446  10.352   7.290   2.889 -0.0079  0.2735  0.5924
  466MOL0     H61447  10.786   7.284   3.173  1.5009  0.7517  1.3802
  466MOL0     H61448  10.997   7.405   3.246 -0.0505  0.6997  0.3554
  466MOL0     H61449  11.088   7.777   3.055 -1.4244 -0.7502 -0.1347
  466MOL0     H61450  11.170   7.624   3.000  1.9677 -1.3501  3.0302
  466MOL0     H61451  11.323   7.785   3.060 -2.2131  0.1830 -1.1434
  466MOL0     H61452  11.330   7.642   3.150  1.2066  0.5543  1.1652
  466MOL0     H61453  11.197   7.900   3.251 -1.5491 -2.0429 -1.1547
  466MOL0     H61454  11.367   7.852   3.280  2.0111 -3.6230 -0.9812
  466MOL0     H61455  11.099   7.764   3.389 -0.3699 -0.5885 -1.0044
  466MOL0     H61456  11.230   7.650   3.418  1.7212  1.5550  2.6960
  466MOL0     H61457  11.192   7.930   3.513 -3.7223 -1.9776  1.8150
  466MOL0     H61458  11.359   7.860   3.497 -0.4054  0.7157 -2.4608
  466MOL0     H61459  11.279   7.672   3.624 -0.0432 -0.0900 -1.8459
  466MOL0     H61460  11.119   7.749   3.644  0.2933  1.3936  4.2709
  466MOL0     H61461  11.382   7.902   3.732  0.3642  0.4426  2.7088
  466MOL0     H61462  11.210   7.922   3.781  0.2915  2.1558 -0.7423
  466MOL0     H61463  11.399   7.738   3.892  0.6051 -1.8903 -0.7991
  466MOL0     H61464  11.266   7.648   3.837  2.5619  0.2057 -2.4934
  466MOL0     H61465  10.996   7.746   3.956  0.7274  2.5291 -2.9396
  466MOL0     H61466  10.980   7.879   4.315 -0.3178 -0.5015 -0.2693
  466MOL0     H61467  10.895   7.769   4.214 -2.7867  1.2730  0.5083
  466MOL0     H61468  10.756   7.973   4.214 -0.5598 -2.0039 -0.5239
  466MOL0     H61469  10.842   7.959   4.054  3.0588  3.0876 -0.9212
  466MOL0     H61470  10.950   8.153   4.242 -2.6108 -0.0085  2.3620
  466MOL0     H61471  10.978   8.122   4.057 -2.1107  0.0478 -1.8963
  466MOL0     H61472  10.874   8.298   4.054  0.8866 -0.9300  0.2227
  466MOL0     H61473  10.744   8.255   4.180 -1.2960 -2.5800 -0.0286
  466MOL0     H61474  10.513   8.058   3.879 -0.4812  0.3720 -0.0543
  466MOL0     H61475  10.321   8.157   3.772  1.7545 -0.6627 -2.4550
  466MOL0     H61476  10.052   8.611   3.832  1.7368 -1.1081 -0.3034
  466MOL0     H61477   9.834   8.693   3.784  1.6720 -0.4948  2.8297
  466MOL0     H61478   9.605   8.711   3.787 -2.7901  0.8233  0.6336
  466MOL0     H61479   9.565   8.556   3.836 -1.7164  3.5702  4.1025
  466MOL0     H61480   9.356   8.613   3.777 -1.0283  1.6160 -0.0223
  466MOL0     H61481   9.394   8.544   3.624  1.3336  0.0544  0.2482
  466MOL0     H61482   9.471   8.775   3.545  0.9071  1.1318  0.3133
  466MOL0     H61483   9.404   8.835   3.703 -0.0624 -3.5940  3.3643
  466MOL0     H61484   9.233   8.876   3.547  1.0483  0.6427  2.0401
  466MOL0     H61485   9.238   8.701   3.491  0.3509  0.1387  0.4126
  466MOL0     H61486   9.179   8.769   3.775  3.1964  1.3428 -2.6374
  466MOL0     H61487   9.119   8.627   3.691 -2.1922  0.1812 -1.2879
  466MOL0     H61488   9.018   8.911   3.656 -0.5240  0.6342  1.1091
  466MOL0     H61489   8.945   8.788   3.756 -0.0084 -2.3738  0.4341
  466MOL0     H61490   9.000   8.746   3.460  0.8704  0.7795  0.9246
  466MOL0     H61491   8.894   8.646   3.560  5.2394 -2.6644  3.4520
  466MOL0     H61492   8.853   8.927   3.459  1.9937 -0.1195 -0.2629
  466MOL0     H61493   8.754   8.869   3.597  3.1630 -0.9236  1.9472
  466MOL0     H61494   9.745   8.316   3.582 -0.8914  1.1566 -1.4211
  466MOL0     H61495   9.975   8.230   3.650 -0.6045  0.9656 -3.3606
  466MOL0     H61496  10.464   8.546   3.908 -0.1861 -0.5150 -0.0856
  466MOL0     H61497  10.662   8.433   4.015 -0.2880  1.4055  0.0799
  466MOL0     H61498  10.934   7.708   2.961 -1.0994  2.2623  1.2428
  466MOL0     H61499  10.712   7.606   2.880 -0.5322  0.7361  1.0808
  466MOL0     H61500  10.557   7.125   2.668  0.9143  2.5019  1.0064
  466MOL0     H61501  10.337   7.046   2.584 -0.4538  1.3738 -1.2626
  466MOL0     H61502   9.966   7.222   2.692 -1.6643 -1.0685 -0.7633
  466MOL0     H61503   9.992   7.098   2.821 -1.6180  0.8422 -0.2253
  466MOL0     H61504   9.801   7.058   2.656  0.3619 -0.5466  2.6628
  466MOL0     H61505   9.934   7.018   2.535  2.6386 -2.6570  0.7236
  466MOL0     H61506  10.021   6.859   2.704 -0.6326  0.3528  2.4634
  466MOL0     H61507   9.891   6.815   2.584  1.1935  1.9981 -2.8356
  466MOL0     H61508   9.859   6.729   2.823  0.4217  0.8719  1.5743
  466MOL0     H61509   9.863   6.888   2.897 -0.6762 -1.2343  0.9834
  466MOL0     H61510   9.459   6.818   2.757  0.2623 -3.0110  0.0456
  466MOL0     H61511  10.137   7.283   2.874  1.1132  0.1930  1.3216
  466MOL0     H61512  10.340   7.360   2.972 -1.2585  0.8091 -0.0183
  467MOL0     O61513   5.629   3.436   1.104  0.0972 -0.5401  0.1668
  467MOL0     C61514   5.662   3.543   1.055  0.2247  0.5667 -0.2105
  467MOL0     O61515   5.607   3.665   1.083  0.0455 -0.0164  0.0799
  467MOL0     C61516   5.492   3.651   1.150  0.1471  0.0362  0.5412
  467MOL0     C61517   5.378   3.723   1.100 -0.2819 -0.6409  0.1626
  467MOL0     C61518   5.259   3.719   1.174  0.4641  0.3072 -1.1797
  467MOL0     C61519   5.240   3.657   1.299 -1.0957  0.0362 -0.0880
  467MOL0     O61520   5.119   3.648   1.353 -0.2674  0.2259 -0.2169
  467MOL0     C61521   5.094   3.576   1.479 -0.1081 -0.3180  0.2983
  467MOL0     C61522   4.964   3.616   1.544 -0.0173 -0.5099  0.2849
  467MOL0     C61523   4.866   3.687   1.445 -0.1045 -0.6014  0.9077
  467MOL0     C61524   4.730   3.713   1.505  0.0655 -0.1208 -0.1670
  467MOL0     C61525   4.640   3.780   1.411 -0.3687  0.0016 -0.2765
  467MOL0     C61526   4.546   3.680   1.355 -0.0597  0.7341  0.1004
  467MOL0     C61527   4.473   3.726   1.229  0.2935 -0.2877  0.4803
  467MOL0     C61528   4.386   3.856   1.244 -0.6902 -0.5792 -0.6091
  467MOL0     N61529   4.260   3.841   1.317 -0.5207 -0.1253 -0.3947
  467MOL0     C61530   4.243   3.849   1.453  0.6579 -0.6731  0.7583
  467MOL0     C61531   4.109   3.836   1.468 -0.5114 -0.9125  0.8749
  467MOL0     C61532   4.028   3.828   1.591  0.0574  0.2955  0.6200
  467MOL0     C61533   3.967   3.959   1.619 -0.3601 -0.1838 -0.3350
  467MOL0     C61534   3.857   4.018   1.521 -0.1019  0.7382  0.5792
  467MOL0     C61535   3.734   3.925   1.507 -0.2022 -1.3441 -0.6597
  467MOL0     O61536   3.686   3.890   1.635  0.2650  0.4078  0.1758
  467MOL0     C61537   3.553   3.863   1.647  0.5572 -0.1451  0.2151
  467MOL0     C61538   3.461   3.847   1.540  0.4646  0.2025  0.0677
  467MOL0     C61539   3.320   3.830   1.573 -0.8313  0.1452  0.7038
  467MOL0     C61540   3.280   3.813   1.702 -0.7418  0.0681 -0.0015
  467MOL0     C61541   3.135   3.810   1.718 -0.9649 -0.7832  0.7049
  467MOL0     O61542   3.057   3.890   1.627  1.2856 -0.1485 -0.2322
  467MOL0     C61543   2.927   3.919   1.642 -0.1490 -0.9887 -0.5592
  467MOL0     C61544   2.864   3.929   1.775  0.2338 -0.3979 -0.4072
  467MOL0     C61545   2.724   3.940   1.786 -1.1283  0.2640 -0.1032
  467MOL0     C61546   2.635   3.935   1.678 -0.3093 -0.0964 -0.6543
  467MOL0     O61547   2.505   3.957   1.695 -0.4724 -0.6395 -0.1845
  467MOL0     C61548   2.449   4.024   1.805 -0.3834  0.2072 -0.9333
  467MOL0     C61549   2.299   4.047   1.777  0.0235 -0.4016 -0.3289
  467MOL0     C61550   2.209   3.915   1.764 -0.3565  0.3396 -0.8810
  467MOL0     C61551   2.057   3.943   1.777 -0.1464  0.1834 -0.0456
  467MOL0     C61552   1.990   3.819   1.727  0.4274 -0.6919  1.1576
  467MOL0     C61553   1.845   3.816   1.769 -0.8993 -0.5139  0.4761
  467MOL0     C61554   1.773   3.702   1.704  0.1189  0.4225  0.0440
  467MOL0     C61555   1.641   3.690   1.770  0.3671  0.4471 -0.6528
  467MOL0    Cl61556   1.574   3.534   1.730  0.0523 -0.0344  0.2545
  467MOL0     C61557   2.693   3.909   1.550  0.5532 -1.1725 -0.2891
  467MOL0     C61558   2.831   3.904   1.531 -0.7290 -0.1480  0.3255
  467MOL0     O61559   3.091   3.752   1.819  0.2619  0.0855  1.0278
  467MOL0     C61560   3.368   3.802   1.808  0.0579 -0.9485  0.0495
  467MOL0     C61561   3.500   3.826   1.775 -0.2711 -0.4253  0.5254
  467MOL0     N61562   4.053   3.827   1.339 -0.1061 -0.1597 -0.0534
  467MOL0     N61563   4.142   3.840   1.249 -0.8237 -0.7672 -0.2618
  467MOL0     C61564   5.358   3.590   1.351  0.0531 -0.0277 -0.1302
  467MOL0     C61565   5.484   3.598   1.283  0.2937 -0.8541  0.8894
  467MOL0     C61566   5.783   3.539   0.962 -0.6771 -0.2806  0.0950
  467MOL0     C61567   5.822   3.660   0.895  0.0503  0.0504  0.3484
  467MOL0     C61568   5.922   3.660   0.789  0.8027 -0.0409 -0.4909
  467MOL0     C61569   5.995   3.547   0.767  0.1108 -0.2958 -0.8940
  467MOL0     O61570   6.092   3.542   0.668 -0.9247 -0.3721 -0.0576
  467MOL0     C61571   6.171   3.657   0.648  0.0793 -0.3332  0.3357
  467MOL0     C61572   6.277   3.702   0.742  0.3675  0.4352  0.0151
  467MOL0     C61573   6.375   3.589   0.763 -0.1466 -0.5565 -0.0618
  467MOL0     C61574   6.482   3.642   0.859  0.3634 -0.5035 -0.1015
  467MOL0     C61575   6.602   3.550   0.857  0.7013  0.3136 -0.1781
  467MOL0     C61576   6.695   3.475   0.846  0.3588 -0.0354 -0.1813
  467MOL0     C61577   5.961   3.432   0.835  0.6717  0.4076 -0.2762
  467MOL0     C61578   5.860   3.422   0.933  0.5596  0.4995 -0.3620
  467MOL0     H61579   5.387   3.775   1.005 -0.3167  1.0489  1.0539
  467MOL0     H61580   5.167   3.754   1.129 -0.6641 -0.7266  0.2043
  467MOL0     H61581   5.173   3.589   1.553 -0.2291 -2.3578  0.8283
  467MOL0     H61582   5.076   3.470   1.462 -1.9975 -0.1481  0.9059
  467MOL0     H61583   4.988   3.696   1.616 -1.5943 -0.9330  1.3523
  467MOL0     H61584   4.932   3.526   1.597 -1.2895  0.6220  1.5501
  467MOL0     H61585   4.850   3.612   1.367  1.5139 -0.5769  0.5388
  467MOL0     H61586   4.906   3.778   1.401  1.6150 -0.8526  1.8775
  467MOL0     H61587   4.686   3.615   1.524 -1.3172  0.4875 -0.0804
  467MOL0     H61588   4.744   3.772   1.596 -1.6462 -0.0998  0.1165
  467MOL0     H61589   4.707   3.828   1.339  1.6690  3.0887  3.3110
  467MOL0     H61590   4.590   3.863   1.461 -1.9308 -0.7309 -0.5461
  467MOL0     H61591   4.471   3.652   1.430 -3.3369 -0.5722 -3.3609
  467MOL0     H61592   4.596   3.585   1.330  1.3323  1.9022 -1.8241
  467MOL0     H61593   4.546   3.745   1.149  0.8176  2.0137  1.4332
  467MOL0     H61594   4.416   3.639   1.195  1.9845 -1.4637  0.4995
  467MOL0     H61595   4.356   3.888   1.144 -1.4207  0.4504 -0.0740
  467MOL0     H61596   4.445   3.935   1.290 -1.0506 -0.0428 -1.0609
  467MOL0     H61597   4.319   3.861   1.529  1.3032  0.3420 -0.0281
  467MOL0     H61598   4.083   3.791   1.679 -2.1708 -1.6577  1.2844
  467MOL0     H61599   3.944   3.759   1.577 -1.6669  2.7740 -2.8458
  467MOL0     H61600   4.044   4.036   1.623  1.5901 -2.0415  2.6360
  467MOL0     H61601   3.919   3.959   1.718  0.0301  1.1249 -0.1331
  467MOL0     H61602   3.816   4.103   1.576 -0.4421 -0.3655  2.0860
  467MOL0     H61603   3.896   4.048   1.423  0.5963 -2.1873 -0.1306
  467MOL0     H61604   3.747   3.832   1.451  0.7941 -3.1173  2.2791
  467MOL0     H61605   3.661   3.977   1.445 -0.6178 -2.1321 -0.8522
  467MOL0     H61606   3.488   3.853   1.435  2.4733 -0.9782  0.4721
  467MOL0     H61607   3.245   3.823   1.495  2.2113 -1.3185 -2.3520
  467MOL0     H61608   2.930   3.924   1.862 -1.0406 -1.6656  0.5352
  467MOL0     H61609   2.680   3.959   1.884  1.8268  0.0951  1.3480
  467MOL0     H61610   2.496   4.122   1.821 -0.9759  0.1322  1.7175
  467MOL0     H61611   2.470   3.970   1.898  3.0131  0.9527 -1.1295
  467MOL0     H61612   2.279   4.111   1.690 -3.2133 -0.0850  0.5005
  467MOL0     H61613   2.247   4.095   1.861  0.3153  0.1096 -0.4397
  467MOL0     H61614   2.226   3.836   1.838 -0.2767 -0.0731 -1.3404
  467MOL0     H61615   2.241   3.867   1.671  0.1937  1.1247 -1.1075
  467MOL0     H61616   2.031   3.982   1.876  2.1988  0.7833  0.4103
  467MOL0     H61617   2.053   4.028   1.708  1.7573 -0.9888 -1.6998
  467MOL0     H61618   2.032   3.729   1.774  1.4490 -0.6581  0.3361
  467MOL0     H61619   1.994   3.821   1.618  0.0687  0.2426  1.1532
  467MOL0     H61620   1.802   3.916   1.756  1.5721  0.7736  1.4583
  467MOL0     H61621   1.851   3.789   1.875  0.4048 -2.0298  0.0536
  467MOL0     H61622   1.762   3.713   1.596  0.9569  0.4202 -0.0461
  467MOL0     H61623   1.824   3.608   1.722  0.0749  0.5037  0.6060
  467MOL0     H61624   1.579   3.769   1.727 -0.4766  0.2805  0.2239
  467MOL0     H61625   1.643   3.706   1.878  0.0003 -0.2617 -0.5297
  467MOL0     H61626   2.637   3.892   1.458  1.8930 -2.3753 -0.9120
  467MOL0     H61627   2.874   3.888   1.433  1.2476 -1.1290  1.3131
  467MOL0     H61628   3.329   3.802   1.910  1.5657  2.5440  0.7688
  467MOL0     H61629   3.576   3.821   1.853 -0.4718 -2.3432  0.6366
  467MOL0     H61630   5.366   3.528   1.440  1.2324  0.4250  0.1135
  467MOL0     H61631   5.571   3.558   1.334  1.6881  3.7180  2.5975
  467MOL0     H61632   5.777   3.758   0.911  2.4266  1.1748  0.7200
  467MOL0     H61633   5.938   3.747   0.726 -0.4852 -1.5088 -2.9704
  467MOL0     H61634   6.113   3.748   0.629  0.9541 -0.0538 -1.2216
  467MOL0     H61635   6.219   3.649   0.550  0.8857  2.8977  0.3428
  467MOL0     H61636   6.325   3.788   0.696 -2.1569  0.5621 -2.6548
  467MOL0     H61637   6.235   3.735   0.837 -0.9250  0.3078 -0.4834
  467MOL0     H61638   6.423   3.559   0.669 -0.7169  0.1322 -0.5797
  467MOL0     H61639   6.321   3.505   0.806 -1.5709  0.2631 -0.1791
  467MOL0     H61640   6.521   3.744   0.859  0.8001 -0.5663  2.9006
  467MOL0     H61641   6.434   3.631   0.957  1.9363  1.5941  0.9901
  467MOL0     H61642   6.774   3.405   0.830  0.7044  0.4210 -0.4858
  467MOL0     H61643   6.015   3.345   0.800 -0.1609  0.1624 -1.0046
  467MOL0     H61644   5.837   3.326   0.978  2.3949 -1.0279 -2.4337
  468MOL0     O61645   9.687   5.946   3.111  0.8989  0.0041 -0.5442
  468MOL0     C61646   9.753   5.883   3.197 -0.1095  0.5495  0.4695
  468MOL0     O61647   9.744   5.884   3.331  0.3373  0.2089 -0.9922
  468MOL0     C61648   9.618   5.915   3.378 -0.5578 -0.0339  0.7867
  468MOL0     C61649   9.574   6.052   3.375 -0.4037  0.8153 -0.4765
  468MOL0     C61650   9.458   6.080   3.446  0.4762  0.3433  0.3861
  468MOL0     C61651   9.375   5.985   3.509 -0.3295  0.4666 -0.2502
  468MOL0     O61652   9.251   6.014   3.561 -1.0160  0.1844 -0.2067
  468MOL0     C61653   9.204   6.157   3.566 -0.9344 -0.0825  0.0623
  468MOL0     C61654   9.063   6.158   3.631  0.6389 -0.0939 -0.1781
  468MOL0     C61655   9.001   6.298   3.607  0.2048 -0.3245  0.0196
  468MOL0     C61656   8.852   6.288   3.642 -0.7591 -0.8849 -1.1368
  468MOL0     C61657   8.773   6.409   3.588  0.6270  0.5029 -0.0595
  468MOL0     C61658   8.624   6.405   3.649  0.2115  0.1954 -0.1533
  468MOL0     C61659   8.542   6.524   3.595  0.1352  0.3050  0.3088
  468MOL0     C61660   8.395   6.522   3.628 -0.4734  0.0686  0.3395
  468MOL0     N61661   8.323   6.416   3.551  0.1118  0.2174  0.0780
  468MOL0     C61662   8.186   6.430   3.534 -0.6465 -0.0408  0.4096
  468MOL0     C61663   8.142   6.329   3.455  0.8131  0.3041  0.5248
  468MOL0     C61664   7.999   6.311   3.404 -0.5362  0.2713  0.1888
  468MOL0     C61665   7.890   6.350   3.501  0.3937  1.2500  0.0256
  468MOL0     C61666   7.756   6.313   3.449 -0.4567 -0.2887  0.0237
  468MOL0     C61667   7.633   6.364   3.530 -0.4349 -0.6720  0.2137
  468MOL0     O61668   7.600   6.289   3.643 -0.1139 -0.0023  0.3760
  468MOL0     C61669   7.475   6.303   3.701  0.5866 -0.6067  0.3663
  468MOL0     C61670   7.412   6.184   3.748 -0.5121  0.0104  1.1458
  468MOL0     C61671   7.287   6.198   3.809  0.4189 -0.5323  0.3100
  468MOL0     C61672   7.229   6.322   3.839  0.0191 -0.1333  0.5884
  468MOL0     C61673   7.105   6.338   3.922  0.0409  0.1212  0.2325
  468MOL0     O61674   7.040   6.221   3.957  0.2460 -0.5373 -0.1520
  468MOL0     C61675   6.944   6.228   4.058 -0.8219 -0.4671 -0.2642
  468MOL0     C61676   6.966   6.161   4.177 -0.3201 -0.1833 -0.8360
  468MOL0     C61677   6.862   6.163   4.277  0.3972 -0.0931 -0.2821
  468MOL0     C61678   6.750   6.237   4.266  0.5356  1.0071  0.1602
  468MOL0     O61679   6.656   6.257   4.366 -0.3867  0.5313  1.2707
  468MOL0     C61680   6.645   6.181   4.483 -0.3845 -0.8827  0.3097
  468MOL0     C61681   6.552   6.059   4.483  0.1149 -0.5333  0.3754
  468MOL0     C61682   6.538   5.992   4.616  0.1992 -0.5636 -1.0102
  468MOL0     C61683   6.433   5.881   4.624  0.7455 -0.3105  0.3390
  468MOL0     C61684   6.418   5.821   4.763  0.2429  0.0707 -0.0018
  468MOL0     C61685   6.306   5.717   4.760  0.3112 -0.0618 -0.4504
  468MOL0     C61686   6.280   5.660   4.902 -0.4787 -0.3547 -0.6768
  468MOL0     C61687   6.189   5.532   4.916 -1.3363  0.3375  0.2454
  468MOL0    Cl61688   6.023   5.589   4.881 -0.6192  0.5172 -0.2259
  468MOL0     C61689   6.735   6.306   4.146  0.9374 -0.7176 -0.4868
  468MOL0     C61690   6.830   6.308   4.041  0.3640  0.0882 -0.7614
  468MOL0     O61691   7.065   6.451   3.944 -0.9746 -0.4486  0.0710
  468MOL0     C61692   7.278   6.433   3.768  0.1663  0.5095  0.4372
  468MOL0     C61693   7.396   6.419   3.703  0.3981 -0.5672  0.1146
  468MOL0     N61694   8.251   6.252   3.429  0.1476 -0.2068  0.1205
  468MOL0     N61695   8.359   6.299   3.489 -0.3058 -0.1285  0.2945
  468MOL0     C61696   9.417   5.851   3.505  0.2272  0.0982 -1.2800
  468MOL0     C61697   9.541   5.819   3.445  0.5942  0.3490 -0.1176
  468MOL0     C61698   9.868   5.813   3.143 -0.2166 -0.0408 -0.0726
  468MOL0     C61699   9.938   5.722   3.221 -0.4539  0.0295  0.5694
  468MOL0     C61700  10.064   5.665   3.182 -0.0333  0.0182  0.0645
  468MOL0     C61701  10.121   5.712   3.062 -0.2298 -0.0202 -0.1907
  468MOL0     O61702  10.232   5.650   3.025 -0.9252 -0.4542 -0.1071
  468MOL0     C61703  10.329   5.723   2.949  0.0782  0.7402  0.8520
  468MOL0     C61704  10.452   5.634   2.936  0.1514 -0.0756  0.9157
  468MOL0     C61705  10.547   5.675   2.820 -0.1230  0.2237  0.8928
  468MOL0     C61706  10.678   5.578   2.815 -0.5843 -0.5918 -0.8590
  468MOL0     C61707  10.789   5.615   2.725  0.2165  0.0069 -1.3331
  468MOL0     C61708  10.872   5.659   2.650 -0.1050 -0.3716 -0.1395
  468MOL0     C61709  10.043   5.787   2.985  0.2628  0.8010 -0.2013
  468MOL0     C61710   9.927   5.842   3.017  0.2714 -0.4692 -0.4744
  468MOL0     H61711   9.632   6.129   3.326  1.4835 -1.4510 -2.0365
  468MOL0     H61712   9.444   6.188   3.444  4.1149  0.9259  0.2078
  468MOL0     H61713   9.200   6.219   3.476 -1.2026  2.0773  1.4926
  468MOL0     H61714   9.263   6.213   3.638 -1.7805 -0.3726  1.0085
  468MOL0     H61715   9.071   6.138   3.738  2.9968  2.7514  0.3074
  468MOL0     H61716   8.998   6.080   3.590 -1.4697  1.9823 -1.0275
  468MOL0     H61717   9.005   6.329   3.503 -0.5846  1.7889  0.5652
  468MOL0     H61718   9.058   6.364   3.672 -0.2432 -1.3236  1.4859
  468MOL0     H61719   8.807   6.196   3.603 -1.0300 -0.3197 -2.1890
  468MOL0     H61720   8.835   6.296   3.750  0.0957  2.2816 -1.1553
  468MOL0     H61721   8.759   6.409   3.479 -2.1532  1.3712  0.2186
  468MOL0     H61722   8.826   6.502   3.609 -0.3930  0.9171  0.7493
  468MOL0     H61723   8.614   6.400   3.758 -1.9032 -2.6691 -0.3579
  468MOL0     H61724   8.588   6.308   3.615 -0.1313  0.4321 -0.4764
  468MOL0     H61725   8.578   6.618   3.637  1.2355  0.0303  0.0298
  468MOL0     H61726   8.548   6.534   3.486  0.1985 -2.3932 -0.0217
  468MOL0     H61727   8.351   6.618   3.603  1.2924  0.4020 -1.7774
  468MOL0     H61728   8.384   6.501   3.735 -0.6306 -0.9580  0.1378
  468MOL0     H61729   8.117   6.501   3.578 -1.8508  0.0949 -1.5602
  468MOL0     H61730   7.982   6.210   3.365  0.9199  0.1143 -0.1018
  468MOL0     H61731   7.995   6.389   3.328  1.8748  0.0354 -0.2726
  468MOL0     H61732   7.884   6.458   3.513 -0.0971  1.2183  0.0936
  468MOL0     H61733   7.905   6.302   3.598  1.8767  0.2728 -0.6504
  468MOL0     H61734   7.754   6.351   3.346 -3.5370 -2.6796 -0.9642
  468MOL0     H61735   7.759   6.204   3.438  0.3498 -0.3775  1.0577
  468MOL0     H61736   7.547   6.358   3.462  0.4296 -4.5191 -0.7485
  468MOL0     H61737   7.638   6.469   3.559  1.9689  0.1414 -2.6907
  468MOL0     H61738   7.458   6.086   3.744 -0.1940  0.1793  0.5900
  468MOL0     H61739   7.247   6.107   3.852  3.4230 -1.9578  0.2879
  468MOL0     H61740   7.058   6.106   4.195 -1.2744 -2.1619 -1.6940
  468MOL0     H61741   6.875   6.094   4.361  0.4461 -1.3476 -1.2915
  468MOL0     H61742   6.601   6.259   4.546  0.2798 -0.2819  0.0451
  468MOL0     H61743   6.746   6.161   4.521 -0.1935  1.8779  1.4930
  468MOL0     H61744   6.596   5.991   4.409 -0.0754 -0.0516 -0.1885
  468MOL0     H61745   6.452   6.084   4.448 -0.6345 -1.4086  1.8438
  468MOL0     H61746   6.522   6.070   4.691  1.2626  1.1600 -2.4850
  468MOL0     H61747   6.636   5.953   4.643  0.3992  0.3206 -0.4070
  468MOL0     H61748   6.335   5.905   4.581 -0.0047 -1.8958  1.0772
  468MOL0     H61749   6.471   5.806   4.555  1.7535 -1.9142  2.5154
  468MOL0     H61750   6.394   5.898   4.837 -0.9999 -0.6287  0.3503
  468MOL0     H61751   6.513   5.771   4.788 -0.6100 -1.8171 -0.3159
  468MOL0     H61752   6.334   5.632   4.697 -0.6028 -1.7678  1.3364
  468MOL0     H61753   6.211   5.762   4.730  0.6870  1.0105 -0.0948
  468MOL0     H61754   6.376   5.621   4.935 -1.1123 -1.4201 -0.0217
  468MOL0     H61755   6.246   5.738   4.972  1.4077 -0.0836 -0.0232
  468MOL0     H61756   6.201   5.502   5.020  2.0839  2.1914  0.5261
  468MOL0     H61757   6.215   5.457   4.841  1.3573  1.2784  0.1601
  468MOL0     H61758   6.644   6.365   4.137  2.0288  0.7447 -3.1211
  468MOL0     H61759   6.813   6.370   3.954 -0.2651  0.2717 -0.5207
  468MOL0     H61760   7.231   6.530   3.782  2.9586  1.4416  6.0051
  468MOL0     H61761   7.445   6.501   3.652  0.4402  0.4592  1.7138
  468MOL0     H61762   9.344   5.780   3.542 -0.5701  0.7053 -1.6712
  468MOL0     H61763   9.572   5.715   3.454 -0.5121 -0.1271 -1.4679
  468MOL0     H61764   9.900   5.677   3.313 -0.1515 -2.7407 -0.5488
  468MOL0     H61765  10.100   5.584   3.245  1.9138  0.4761 -0.4032
  468MOL0     H61766  10.368   5.815   2.994  2.5525  0.3445 -0.3543
  468MOL0     H61767  10.295   5.736   2.846 -0.3823  0.3060  0.9451
  468MOL0     H61768  10.502   5.635   3.034  2.6941  0.9901 -0.3049
  468MOL0     H61769  10.423   5.532   2.910 -1.0515  0.0653  1.6486
  468MOL0     H61770  10.588   5.772   2.848 -0.3826  0.1230  1.6482
  468MOL0     H61771  10.494   5.677   2.724 -1.2400  1.1045  1.5153
  468MOL0     H61772  10.719   5.580   2.916 -0.4914  2.6819 -0.8563
  468MOL0     H61773  10.654   5.474   2.791 -0.1112 -0.4338 -2.1266
  468MOL0     H61774  10.949   5.693   2.584 -1.0724 -0.9087 -1.6021
  468MOL0     H61775  10.084   5.801   2.885 -1.5696 -0.0106 -1.1159
  468MOL0     H61776   9.892   5.912   2.942  2.3445  0.5405 -0.5729
  469MOL0     O61777   1.815  11.114   8.827  0.0316  0.6022  0.7230
  469MOL0     C61778   1.827  10.990   8.817  0.2926  0.0135  0.7242
  469MOL0     O61779   1.742  10.890   8.870 -0.2440  0.6493  0.7179
  469MOL0     C61780   1.625  10.929   8.929  0.2224 -0.1289  0.7037
  469MOL0     C61781   1.543  10.826   8.965  0.0206 -0.6235 -0.4181
  469MOL0     C61782   1.416  10.842   9.027  0.7035 -0.1874 -0.4121
  469MOL0     C61783   1.362  10.969   9.055 -0.8879 -0.7022 -0.3949
  469MOL0     O61784   1.238  10.979   9.109  0.2036 -0.0294  0.5178
  469MOL0     C61785   1.197  11.096   9.185 -0.6850 -0.7984  0.1815
  469MOL0     C61786   1.072  11.053   9.241  0.4427  0.2595  0.0765
  469MOL0     C61787   0.954  11.046   9.135 -0.1052  0.2521  0.7754
  469MOL0     C61788   0.899  10.903   9.129  0.7060 -0.0537  0.2866
  469MOL0     C61789   0.780  10.893   9.031 -0.2193 -0.9383 -0.2374
  469MOL0     C61790   0.642  10.949   9.100  0.4187  0.6915  0.7393
  469MOL0     C61791   0.518  10.888   9.037 -0.4435  0.0328 -0.0712
  469MOL0     C61792   0.398  10.897   9.136 -0.7909 -0.9157 -0.3626
  469MOL0     N61793   0.267  10.880   9.070 -0.0896 -0.5752 -0.8845
  469MOL0     C61794   0.196  10.969   8.988 -0.5355  0.7815 -0.3675
  469MOL0     C61795   0.073  10.923   8.976 -0.8765  0.6002  0.8098
  469MOL0     C61796  -0.018  10.986   8.872  0.1781  0.5696  0.5680
  469MOL0     C61797  -0.148  11.054   8.925  0.0984  0.3469  0.4008
  469MOL0     C61798  -0.236  10.954   8.998 -0.5160  1.2411  0.1185
  469MOL0     C61799  -0.361  11.022   9.050 -0.4380 -0.7796 -0.2337
  469MOL0     O61800  -0.407  11.115   8.945 -0.5007 -0.7581 -0.0810
  469MOL0     C61801  -0.488  11.220   8.973 -0.1493 -0.5366  0.7557
  469MOL0     C61802  -0.499  11.321   8.876 -0.2467 -0.0069  0.2535
  469MOL0     C61803  -0.588  11.424   8.877  0.2994  0.9532  0.0007
  469MOL0     C61804  -0.677  11.441   8.984  0.3606 -0.2582 -0.5568
  469MOL0     C61805  -0.783  11.549   8.994  0.5475 -0.1611 -0.7483
  469MOL0     O61806  -0.884  11.541   9.096  0.1649  0.3839  0.2133
  469MOL0     C61807  -0.973  11.638   9.118 -0.3954 -1.0034 -0.2265
  469MOL0     C61808  -1.084  11.593   9.189  0.6362  0.3371  0.2342
  469MOL0     C61809  -1.197  11.672   9.217 -1.1026  0.7022 -1.1749
  469MOL0     C61810  -1.200  11.801   9.169  0.2502  0.4001 -0.2921
  469MOL0     O61811  -1.304  11.891   9.181  0.1764 -0.5991 -0.2750
  469MOL0     C61812  -1.397  11.874   9.288  0.5632 -0.1535 -0.0802
  469MOL0     C61813  -1.505  11.973   9.253  0.2358 -0.3510  1.1492
  469MOL0     C61814  -1.563  11.964   9.109  0.5162  0.8975  1.1232
  469MOL0     C61815  -1.708  12.028   9.106  1.0435  0.1233  0.3438
  469MOL0     C61816  -1.784  11.995   8.974 -0.0708  0.2868  0.2780
  469MOL0     C61817  -1.863  12.122   8.929 -0.3148 -1.3734  0.0206
  469MOL0     C61818  -1.959  12.098   8.808  0.3334 -0.5462 -0.5270
  469MOL0     C61819  -2.027  12.228   8.751  0.2485  0.2922 -0.5747
  469MOL0    Cl61820  -2.096  12.324   8.885 -0.1871  0.2399 -0.3450
  469MOL0     C61821  -1.085  11.854   9.096  0.2253 -0.2495  0.8906
  469MOL0     C61822  -0.965  11.779   9.083  0.8570  0.0613  0.8831
  469MOL0     O61823  -0.777  11.638   8.908  0.3526  0.6188 -0.7481
  469MOL0     C61824  -0.661  11.350   9.092 -0.4981  0.0188  0.6539
  469MOL0     C61825  -0.566  11.241   9.086 -0.1765  0.1724 -1.4166
  469MOL0     N61826   0.069  10.800   9.038 -0.5990  0.6749  0.1606
  469MOL0     N61827   0.180  10.784   9.101  0.0498  0.2509  0.3633
  469MOL0     C61828   1.441  11.083   9.023 -0.3591  0.1208 -0.4711
  469MOL0     C61829   1.567  11.060   8.962  1.0126  0.4001  0.5938
  469MOL0     C61830   1.938  10.935   8.737 -0.2488  0.3794  0.1625
  469MOL0     C61831   2.048  11.017   8.704  0.5271 -0.0248  0.0545
  469MOL0     C61832   2.152  10.963   8.627 -0.5226 -0.2248 -0.2008
  469MOL0     C61833   2.157  10.826   8.600  0.5568  0.4475 -0.3941
  469MOL0     O61834   2.256  10.762   8.536 -0.5408  0.2524  0.2070
  469MOL0     C61835   2.367  10.838   8.500  0.5189  0.2027  1.1374
  469MOL0     C61836   2.364  10.893   8.359  0.6890 -0.6864  0.0632
  469MOL0     C61837   2.351  10.789   8.249  0.1922  0.8757  0.3980
  469MOL0     C61838   2.330  10.852   8.116  0.0082 -0.4106  0.3061
  469MOL0     C61839   2.456  10.927   8.077  0.7510  0.8929  0.1037
  469MOL0     C61840   2.561  10.978   8.049 -0.7669  0.4693  0.0943
  469MOL0     C61841   2.057  10.745   8.647 -0.9613  0.3208  0.1265
  469MOL0     C61842   1.949  10.798   8.712 -0.4376  0.7818 -0.0761
  469MOL0     H61843   1.572  10.724   8.943  0.0330 -0.0665 -3.4004
  469MOL0     H61844   1.343  10.767   9.057  1.1455 -1.1160 -1.5918
  469MOL0     H61845   1.172  11.180   9.120 -0.5143 -0.5531  0.4305
  469MOL0     H61846   1.267  11.138   9.258  0.5744 -2.5420  0.0526
  469MOL0     H61847   1.058  11.132   9.315 -2.9821 -0.1468  0.0409
  469MOL0     H61848   1.083  10.960   9.298  0.2193  1.0268  1.3926
  469MOL0     H61849   0.988  11.077   9.036  0.4894  2.9315  1.7390
  469MOL0     H61850   0.869  11.109   9.162  0.0892  1.0671 -0.4652
  469MOL0     H61851   0.981  10.846   9.085 -0.7675 -0.8279 -1.6277
  469MOL0     H61852   0.870  10.858   9.225  2.1417 -1.0485  0.2686
  469MOL0     H61853   0.779  10.786   9.008 -0.1668 -0.8696 -0.5605
  469MOL0     H61854   0.803  10.953   8.942  2.1750  1.2194  1.6481
  469MOL0     H61855   0.639  11.059   9.100 -0.5121  0.6845  1.3251
  469MOL0     H61856   0.652  10.921   9.205 -1.2633 -0.2732  0.6860
  469MOL0     H61857   0.503  10.940   8.943  4.0323  2.5175  0.2840
  469MOL0     H61858   0.534  10.784   9.010  1.3832  0.5239 -1.0194
  469MOL0     H61859   0.403  10.994   9.187 -1.9091 -1.9421  1.8090
  469MOL0     H61860   0.406  10.818   9.210  1.3131  0.4377  0.9492
  469MOL0     H61861   0.251  11.049   8.940  2.7944 -0.8306  0.4837
  469MOL0     H61862  -0.066  10.904   8.817 -4.0981 -0.2339  4.8341
  469MOL0     H61863   0.034  11.050   8.801 -3.4846  2.9706 -0.2464
  469MOL0     H61864  -0.186  11.088   8.828 -0.2518 -0.1681  0.3541
  469MOL0     H61865  -0.124  11.133   8.996  2.5970  0.3319 -0.3467
  469MOL0     H61866  -0.269  10.872   8.933  0.2914  1.1419 -0.1875
  469MOL0     H61867  -0.180  10.919   9.085 -2.2601  1.3005  1.3041
  469MOL0     H61868  -0.335  11.070   9.146 -0.2038 -1.6747  0.1554
  469MOL0     H61869  -0.444  10.955   9.074 -0.5087 -0.8597 -0.6907
  469MOL0     H61870  -0.452  11.311   8.779 -1.7155  2.3688 -0.8084
  469MOL0     H61871  -0.587  11.501   8.801  1.4095 -0.4034 -1.4418
  469MOL0     H61872  -1.095  11.489   9.218 -3.8403  0.1328 -1.3733
  469MOL0     H61873  -1.287  11.626   9.257 -0.7863  0.5929 -0.5743
  469MOL0     H61874  -1.354  11.901   9.385  1.7330 -2.5253  0.1521
  469MOL0     H61875  -1.446  11.776   9.290 -1.3447  0.7776  0.2158
  469MOL0     H61876  -1.475  12.077   9.267 -1.4527  0.0098  2.3114
  469MOL0     H61877  -1.595  11.959   9.312 -0.5658  0.1477  0.0845
  469MOL0     H61878  -1.563  11.865   9.062  2.3906  0.9241  1.0096
  469MOL0     H61879  -1.495  12.000   9.031  1.1250 -0.7839  0.8346
  469MOL0     H61880  -1.777  12.001   9.186 -2.0960  2.7465 -1.2446
  469MOL0     H61881  -1.683  12.134   9.120 -1.3881  0.9147 -0.8945
  469MOL0     H61882  -1.851  11.909   8.976  0.5775 -0.3384 -1.8368
  469MOL0     H61883  -1.710  11.967   8.898 -0.5204 -1.4462  0.4289
  469MOL0     H61884  -1.790  12.200   8.909  1.7722 -2.3552  3.0539
  469MOL0     H61885  -1.925  12.157   9.012  1.9911  1.6842  0.6430
  469MOL0     H61886  -1.911  12.042   8.727 -2.6387 -0.5508 -2.4093
  469MOL0     H61887  -2.039  12.032   8.841  1.2340 -1.4568 -0.1245
  469MOL0     H61888  -2.102  12.204   8.675 -1.6172  0.5849  1.1162
  469MOL0     H61889  -1.952  12.281   8.691  0.2039  0.0609 -0.8373
  469MOL0     H61890  -1.096  11.953   9.052 -2.1061  0.7621  3.4496
  469MOL0     H61891  -0.880  11.816   9.029 -0.0618  1.3470  0.2741
  469MOL0     H61892  -0.719  11.358   9.184  0.3500  4.2946  1.0085
  469MOL0     H61893  -0.555  11.171   9.168  5.6905 -0.2189 -2.1421
  469MOL0     H61894   1.411  11.186   9.040 -0.7714 -0.3391  1.8855
  469MOL0     H61895   1.616  11.154   8.939 -0.5550  0.6252 -2.3271
  469MOL0     H61896   2.048  11.123   8.727 -0.5338  0.3485 -1.5095
  469MOL0     H61897   2.227  11.035   8.595 -2.0074  0.8501 -1.5194
  469MOL0     H61898   2.455  10.774   8.510 -0.2229 -1.3519 -1.3059
  469MOL0     H61899   2.388  10.920   8.569 -1.1947 -0.6471  2.7497
  469MOL0     H61900   2.273  10.951   8.345  1.0139 -0.2370 -0.2076
  469MOL0     H61901   2.447  10.959   8.333  1.1913 -1.3937 -0.1590
  469MOL0     H61902   2.263  10.728   8.274  2.4672 -1.8934  2.2981
  469MOL0     H61903   2.442  10.730   8.265 -2.0775 -2.9396  0.6384
  469MOL0     H61904   2.309  10.775   8.041 -1.4916 -3.6017  3.6573
  469MOL0     H61905   2.243  10.918   8.121 -0.6315 -1.0387 -1.6783
  469MOL0     H61906   2.658  11.019   8.033 -1.6324  2.9462  0.6923
  469MOL0     H61907   2.072  10.637   8.651 -3.7869 -0.1336  0.9378
  469MOL0     H61908   1.867  10.736   8.749  1.8629 -1.3058  1.9074
  470MOL0     O61909   8.414   5.513   7.754  0.1417 -0.3492  0.3143
  470MOL0     C61910   8.353   5.406   7.758  0.2289  0.0410  0.8444
  470MOL0     O61911   8.240   5.380   7.836  0.3482  0.3059 -0.3817
  470MOL0     C61912   8.227   5.434   7.966 -1.6845  0.1099  0.5973
  470MOL0     C61913   8.102   5.424   8.023 -0.5003 -0.0113 -0.0350
  470MOL0     C61914   8.068   5.487   8.144  0.2912  0.8398 -0.0534
  470MOL0     C61915   8.172   5.551   8.214 -0.9733  0.4579  0.0766
  470MOL0     O61916   8.137   5.611   8.326  0.0576 -1.1541  0.3378
  470MOL0     C61917   8.130   5.754   8.321 -1.0502  0.0218 -0.0640
  470MOL0     C61918   7.993   5.797   8.262  0.3609 -1.0857  0.7969
  470MOL0     C61919   7.949   5.940   8.304 -0.4900 -1.2426  0.1411
  470MOL0     C61920   7.846   6.005   8.209 -0.2939 -0.6641  0.0885
  470MOL0     C61921   7.718   5.928   8.205  0.7247 -0.1845  0.6401
  470MOL0     C61922   7.622   5.964   8.093 -1.0678 -0.6000 -0.6090
  470MOL0     C61923   7.499   5.868   8.101 -0.3176 -0.3176  0.7591
  470MOL0     C61924   7.440   5.847   7.962 -0.4449 -0.5074  0.5264
  470MOL0     N61925   7.331   5.937   7.949 -0.1127  0.3566  0.5862
  470MOL0     C61926   7.330   6.054   7.883  0.5726 -0.3431 -0.0307
  470MOL0     C61927   7.198   6.093   7.874  0.0753 -0.0794  0.2874
  470MOL0     C61928   7.137   6.211   7.796 -1.0582  0.0639  0.7803
  470MOL0     C61929   7.000   6.243   7.839  0.9998 -1.2152 -0.7758
  470MOL0     C61930   6.921   6.328   7.728  0.2496 -0.4268 -0.5742
  470MOL0     C61931   6.780   6.374   7.776  0.2096  0.4856  0.0153
  470MOL0     O61932   6.713   6.276   7.861 -0.0752  0.5188  0.1612
  470MOL0     C61933   6.574   6.288   7.875  1.1639  0.2179  0.1817
  470MOL0     C61934   6.516   6.180   7.943 -0.2143 -0.1782 -0.5643
  470MOL0     C61935   6.381   6.174   7.973  0.2445 -0.3357 -0.6339
  470MOL0     C61936   6.293   6.280   7.925  0.1145 -0.2471  0.5234
  470MOL0     C61937   6.147   6.278   7.958 -0.0148 -0.7054  0.9324
  470MOL0     O61938   6.087   6.392   7.963 -0.1299  0.2285 -0.0977
  470MOL0     C61939   5.953   6.398   7.987  0.5792  0.1450 -0.1029
  470MOL0     C61940   5.903   6.333   8.108  0.4763  0.2424 -0.0572
  470MOL0     C61941   5.774   6.350   8.153  0.2695 -0.2314 -0.0442
  470MOL0     C61942   5.685   6.418   8.072  0.2443 -0.0058 -0.2807
  470MOL0     O61943   5.556   6.432   8.108 -0.3620  0.1984 -0.8447
  470MOL0     C61944   5.477   6.314   8.105 -0.8325  0.0940 -0.1173
  470MOL0     C61945   5.332   6.349   8.101 -1.2808  0.8213 -1.1790
  470MOL0     C61946   5.261   6.228   8.051 -0.1976 -0.5099 -0.7180
  470MOL0     C61947   5.106   6.256   8.052  0.2203 -0.3732 -1.3033
  470MOL0     C61948   5.041   6.115   8.053 -0.3229 -0.1108 -0.0421
  470MOL0     C61949   4.892   6.149   8.032 -0.8675 -0.2087 -0.8007
  470MOL0     C61950   4.810   6.025   8.020  0.3371  0.2103  0.9734
  470MOL0     C61951   4.838   5.960   7.885  0.1478 -0.0714 -0.3697
  470MOL0    Cl61952   4.814   6.091   7.760 -0.2075  0.0327  0.2473
  470MOL0     C61953   5.721   6.470   7.945 -0.2888  0.6463 -0.5585
  470MOL0     C61954   5.855   6.463   7.910  0.0830  0.0385 -0.1709
  470MOL0     O61955   6.093   6.161   7.967  0.4296  0.1301  0.1544
  470MOL0     C61956   6.351   6.380   7.847  0.2921 -0.3690  0.1664
  470MOL0     C61957   6.489   6.387   7.827 -0.7144 -0.4251  0.4958
  470MOL0     N61958   7.127   5.989   7.945 -0.5387  0.1258 -0.2936
  470MOL0     N61959   7.209   5.903   7.992 -1.0857  0.0545 -0.5101
  470MOL0     C61960   8.296   5.550   8.161 -0.4822  0.4608  0.0952
  470MOL0     C61961   8.329   5.486   8.047 -0.2608 -0.1755  0.0185
  470MOL0     C61962   8.390   5.294   7.662 -0.4060  0.1383 -0.8129
  470MOL0     C61963   8.496   5.311   7.570  0.3313 -0.1210 -0.6252
  470MOL0     C61964   8.547   5.206   7.491  0.0124  0.1798  0.2734
  470MOL0     C61965   8.494   5.076   7.500  0.0078 -0.6746 -0.8670
  470MOL0     O61966   8.547   4.978   7.415  0.0074 -0.6756  0.5912
  470MOL0     C61967   8.501   4.843   7.417 -0.5925 -0.1232 -0.2493
  470MOL0     C61968   8.565   4.775   7.537 -0.6447 -0.4028 -0.5623
  470MOL0     C61969   8.550   4.626   7.542  0.0363 -0.1795 -0.0498
  470MOL0     C61970   8.588   4.575   7.677  0.3358  0.4286  0.5723
  470MOL0     C61971   8.734   4.566   7.701 -0.3554 -0.2961  0.2670
  470MOL0     C61972   8.851   4.540   7.719 -0.0279 -0.8053  0.6848
  470MOL0     C61973   8.382   5.056   7.582  0.1149 -0.1282  0.1759
  470MOL0     C61974   8.326   5.166   7.659 -0.6343 -0.1447 -0.2515
  470MOL0     H61975   8.026   5.363   7.974 -0.7095  0.1213  0.1183
  470MOL0     H61976   7.968   5.480   8.185  0.2723  1.1405 -0.0471
  470MOL0     H61977   8.221   5.794   8.275  1.7059 -3.6489  1.6288
  470MOL0     H61978   8.135   5.796   8.422 -0.7801  1.9330 -0.8328
  470MOL0     H61979   7.919   5.724   8.297 -0.7175  0.4045  1.7328
  470MOL0     H61980   8.027   5.791   8.158  4.2933 -3.5713  2.0039
  470MOL0     H61981   8.033   6.010   8.305 -0.7670 -0.8885  1.5765
  470MOL0     H61982   7.917   5.933   8.408 -0.3154 -2.3953  0.1276
  470MOL0     H61983   7.825   6.101   8.258 -1.0836 -1.0012  0.4408
  470MOL0     H61984   7.887   6.014   8.108  1.8158  0.7869  0.9969
  470MOL0     H61985   7.664   5.937   8.299 -2.6918  0.0986 -1.2007
  470MOL0     H61986   7.740   5.823   8.184  2.7777  0.2775  0.2380
  470MOL0     H61987   7.676   5.948   7.999 -0.7018  2.8126 -1.1015
  470MOL0     H61988   7.582   6.066   8.093 -1.9735 -0.9499 -0.5934
  470MOL0     H61989   7.544   5.774   8.133  0.1099  0.4361  2.4995
  470MOL0     H61990   7.417   5.900   8.165 -1.1946  0.0304 -0.4978
  470MOL0     H61991   7.418   5.740   7.961  1.5746 -0.9641 -0.1997
  470MOL0     H61992   7.505   5.856   7.874 -1.5415 -0.2594 -0.2833
  470MOL0     H61993   7.408   6.120   7.845  0.8541 -0.8403 -0.3267
  470MOL0     H61994   7.139   6.188   7.689 -0.3343  1.6155  0.4343
  470MOL0     H61995   7.197   6.301   7.811  3.9122 -2.6193 -0.6583
  470MOL0     H61996   7.010   6.286   7.940  2.4466 -2.5793 -0.2950
  470MOL0     H61997   6.946   6.152   7.866 -0.5146 -0.8641 -2.4489
  470MOL0     H61998   6.971   6.421   7.700 -1.8567  0.2787 -2.2173
  470MOL0     H61999   6.904   6.269   7.637 -2.6558  0.9962 -1.0739
  470MOL0     H62000   6.723   6.386   7.683 -1.2783 -0.1970  0.8097
  470MOL0     H62001   6.775   6.470   7.829 -1.9981  0.1950  0.4475
  470MOL0     H62002   6.578   6.095   7.970  1.1503  1.2314  0.9522
  470MOL0     H62003   6.347   6.086   8.026  3.5662 -0.2907  1.9337
  470MOL0     H62004   5.972   6.285   8.178  2.1254  0.8125 -1.2344
  470MOL0     H62005   5.735   6.315   8.248  0.4745  0.0049  0.1301
  470MOL0     H62006   5.502   6.251   8.191 -0.0999  2.0592  1.1794
  470MOL0     H62007   5.500   6.253   8.017 -1.8974 -0.9346  0.2953
  470MOL0     H62008   5.313   6.438   8.040 -5.9183  0.8215 -0.0554
  470MOL0     H62009   5.300   6.383   8.200  0.0704  0.3345 -0.5435
  470MOL0     H62010   5.279   6.141   8.115 -1.0145  0.2845  0.6312
  470MOL0     H62011   5.294   6.209   7.948 -2.3697  0.4447 -1.6391
  470MOL0     H62012   5.079   6.315   8.139 -0.9882 -3.1654  0.3363
  470MOL0     H62013   5.077   6.320   7.968 -1.1032 -0.4331 -0.9069
  470MOL0     H62014   5.058   6.061   8.147  3.1940 -1.1989 -1.1709
  470MOL0     H62015   5.072   6.058   7.965 -4.8500 -0.7620 -1.4893
  470MOL0     H62016   4.866   6.232   7.965 -0.3270  0.5799 -0.0537
  470MOL0     H62017   4.854   6.193   8.125 -2.2185  3.1005 -2.7042
  470MOL0     H62018   4.832   5.964   8.108  2.9128  0.4387  0.5696
  470MOL0     H62019   4.703   6.046   8.020  0.0610 -1.0784  1.2513
  470MOL0     H62020   4.760   5.885   7.866  0.9184 -0.7110 -1.0641
  470MOL0     H62021   4.932   5.905   7.872 -0.5031 -1.3075 -0.0238
  470MOL0     H62022   5.651   6.523   7.882  0.6201  2.3167 -0.2530
  470MOL0     H62023   5.896   6.524   7.829 -0.5541  0.6688 -0.0267
  470MOL0     H62024   6.291   6.461   7.808  0.9336 -0.1140 -0.3110
  470MOL0     H62025   6.544   6.461   7.769 -0.6120 -0.6069  0.3624
  470MOL0     H62026   8.371   5.611   8.210 -0.7960  1.5241 -0.7130
  470MOL0     H62027   8.430   5.504   8.011 -0.7536  1.6220 -0.5876
  470MOL0     H62028   8.534   5.413   7.568  0.0749 -0.0273 -0.8168
  470MOL0     H62029   8.628   5.238   7.426 -2.1364  1.5442 -1.8913
  470MOL0     H62030   8.523   4.796   7.321 -0.0619  1.2653 -0.8334
  470MOL0     H62031   8.394   4.831   7.441 -0.4678  2.0569  1.7640
  470MOL0     H62032   8.672   4.800   7.539 -0.6004 -0.3905  2.9503
  470MOL0     H62033   8.535   4.820   7.632 -2.7694 -4.2213  0.7631
  470MOL0     H62034   8.619   4.576   7.475  2.5787 -0.5146  2.6133
  470MOL0     H62035   8.448   4.590   7.523 -1.1707  1.2246  2.9914
  470MOL0     H62036   8.528   4.612   7.761  1.5394 -2.9047  3.1192
  470MOL0     H62037   8.560   4.469   7.680  1.6979  0.0389  0.2427
  470MOL0     H62038   8.953   4.524   7.748  1.2883 -1.9019 -3.7294
  470MOL0     H62039   8.318   4.968   7.582  0.1656 -0.1643 -0.5959
  470MOL0     H62040   8.234   5.158   7.717 -1.5599 -0.5278 -1.7079
  471MOL0     O62041  10.577   2.815   7.379  0.5231  0.4553  0.4217
  471MOL0     C62042  10.568   2.867   7.268 -0.6431  0.2920  0.3346
  471MOL0     O62043  10.462   2.936   7.208  0.4787  0.4145 -1.2197
  471MOL0     C62044  10.337   2.920   7.259 -0.1476  0.3137  0.9636
  471MOL0     C62045  10.234   2.903   7.169  0.2611 -0.9722  0.1118
  471MOL0     C62046  10.097   2.883   7.202 -0.3412  0.7540  1.0443
  471MOL0     C62047  10.067   2.889   7.334  0.3472 -0.1818 -0.3174
  471MOL0     O62048   9.935   2.864   7.374 -0.3215  0.5910  0.5207
  471MOL0     C62049   9.825   2.930   7.318  0.6180 -0.8568  0.1326
  471MOL0     C62050   9.752   2.847   7.205 -0.1918  0.4786 -0.3534
  471MOL0     C62051   9.654   2.926   7.118 -0.1218 -0.2523 -0.0900
  471MOL0     C62052   9.533   2.964   7.194  0.3358  0.1117  1.1455
  471MOL0     C62053   9.418   3.030   7.104 -0.1067  0.2570  0.3898
  471MOL0     C62054   9.299   3.075   7.181  0.2071 -0.0872 -0.3538
  471MOL0     C62055   9.211   3.146   7.070  1.0105 -0.3079  0.2870
  471MOL0     C62056   9.064   3.191   7.108 -0.0743 -0.5952 -0.1606
  471MOL0     N62057   8.985   3.080   7.167 -0.9200  0.6124  1.2896
  471MOL0     C62058   8.912   2.988   7.093 -0.2470 -0.1837 -0.1386
  471MOL0     C62059   8.875   2.899   7.186 -1.1402  0.4091  0.4463
  471MOL0     C62060   8.785   2.790   7.181 -0.4756  0.4996  0.2031
  471MOL0     C62061   8.658   2.782   7.262  0.2072  0.2651 -0.8447
  471MOL0     C62062   8.555   2.900   7.228 -0.1433  0.5469  0.4450
  471MOL0     C62063   8.477   2.924   7.351  0.4597 -0.0256 -0.8104
  471MOL0     O62064   8.418   2.806   7.398  0.1691 -0.4915  0.4764
  471MOL0     C62065   8.282   2.776   7.376 -0.0044 -0.4816  1.2482
  471MOL0     C62066   8.222   2.692   7.463  0.7350 -0.0557  0.9618
  471MOL0     C62067   8.085   2.668   7.454 -0.2690  0.8581  0.3011
  471MOL0     C62068   8.003   2.715   7.350  1.1376  0.2101  0.3425
  471MOL0     C62069   7.866   2.673   7.339  0.8515 -0.1197  0.4164
  471MOL0     O62070   7.791   2.745   7.247 -0.8253  0.6900 -0.7907
  471MOL0     C62071   7.651   2.726   7.242  0.1530 -0.4115  0.3042
  471MOL0     C62072   7.581   2.599   7.259 -0.9043  0.2276  0.4437
  471MOL0     C62073   7.442   2.591   7.251  0.1562  0.3845  0.7379
  471MOL0     C62074   7.363   2.712   7.219 -1.0671  0.7170  0.4904
  471MOL0     O62075   7.230   2.719   7.230  0.8966  0.0675 -0.2477
  471MOL0     C62076   7.153   2.598   7.220 -0.8619  0.3266 -0.0568
  471MOL0     C62077   7.004   2.633   7.191  0.0604 -0.6905 -0.5789
  471MOL0     C62078   6.915   2.531   7.111 -0.3550 -0.3232 -0.1395
  471MOL0     C62079   6.881   2.401   7.191 -0.4350 -0.1347 -0.2914
  471MOL0     C62080   6.745   2.345   7.143 -0.4088 -0.1761 -0.0209
  471MOL0     C62081   6.787   2.239   7.037  0.4606 -0.3893  0.1813
  471MOL0     C62082   6.661   2.235   6.945 -0.5075  0.2629 -0.0438
  471MOL0     C62083   6.694   2.143   6.823  0.2357 -0.7756 -0.2499
  471MOL0    Cl62084   6.750   1.977   6.864 -0.2025  0.3792 -0.2259
  471MOL0     C62085   7.433   2.833   7.198 -0.8474 -0.9014 -0.3521
  471MOL0     C62086   7.573   2.841   7.207 -0.5989 -0.4150 -0.6266
  471MOL0     O62087   7.817   2.584   7.411  0.7808  0.7082  0.4609
  471MOL0     C62088   8.072   2.783   7.244 -0.9955  0.5430  0.4964
  471MOL0     C62089   8.204   2.819   7.264  0.2871  0.5307 -0.6195
  471MOL0     N62090   8.909   2.934   7.311 -0.0560 -0.1866 -0.9477
  471MOL0     N62091   8.983   3.043   7.297 -0.0715 -0.9959 -0.1757
  471MOL0     C62092  10.162   2.920   7.431  0.0323 -0.0514 -0.1095
  471MOL0     C62093  10.294   2.940   7.395 -0.3470 -0.7067  0.3215
  471MOL0     C62094  10.688   2.868   7.178 -0.6682  1.1284  0.5258
  471MOL0     C62095  10.724   2.971   7.081  0.3139 -0.1928 -0.0287
  471MOL0     C62096  10.842   2.967   7.010 -0.7006  0.2025  0.3650
  471MOL0     C62097  10.938   2.873   7.026  0.9293  0.4328 -0.0618
  471MOL0     O62098  11.050   2.870   6.951  0.4516 -0.5976  0.3647
  471MOL0     C62099  11.119   2.746   6.923  1.0109  0.1207 -0.4924
  471MOL0     C62100  11.200   2.762   6.795 -0.5295  0.2277 -0.9702
  471MOL0     C62101  11.255   2.627   6.756  0.5774 -0.2857  0.0199
  471MOL0     C62102  11.356   2.640   6.641 -0.0849 -0.5141 -0.6650
  471MOL0     C62103  11.454   2.532   6.624 -0.3169 -0.2680 -0.3057
  471MOL0     C62104  11.543   2.461   6.590  0.0855  0.0565  0.5514
  471MOL0     C62105  10.913   2.769   7.126  0.0432 -0.1045 -0.2745
  471MOL0     C62106  10.788   2.774   7.196 -0.7221  0.1282 -0.0835
  471MOL0     H62107  10.267   2.912   7.066  2.7497  0.7989  0.9684
  471MOL0     H62108  10.015   2.858   7.135  0.1590 -3.2053  1.6723
  471MOL0     H62109   9.848   3.032   7.285 -1.4983 -0.4880 -0.3475
  471MOL0     H62110   9.752   2.947   7.398 -1.0139 -2.5728 -0.9242
  471MOL0     H62111   9.694   2.768   7.253  1.0870 -0.6288 -0.6010
  471MOL0     H62112   9.828   2.808   7.137  1.8364  1.4980  1.2178
  471MOL0     H62113   9.626   2.878   7.024  1.0038  2.3059 -1.8410
  471MOL0     H62114   9.704   3.009   7.068 -1.4611  1.0378  0.6405
  471MOL0     H62115   9.492   2.874   7.242 -0.6019  1.4661  3.0101
  471MOL0     H62116   9.550   3.030   7.279  0.6389  1.7417 -0.1275
  471MOL0     H62117   9.375   2.947   7.047 -0.5217  0.4451  0.4307
  471MOL0     H62118   9.469   3.107   7.046 -0.0025 -1.3226 -1.7438
  471MOL0     H62119   9.317   3.137   7.269  3.4342 -1.4647  0.1181
  471MOL0     H62120   9.247   2.986   7.214 -2.4941  0.6679 -2.2550
  471MOL0     H62121   9.263   3.232   7.027  1.2340 -0.9511 -0.7507
  471MOL0     H62122   9.205   3.082   6.981  0.3933 -0.0294  0.1227
  471MOL0     H62123   9.015   3.249   7.029 -1.1786  4.7637  3.8353
  471MOL0     H62124   9.073   3.266   7.187 -1.7668  0.3774 -0.8316
  471MOL0     H62125   8.879   3.003   6.991  0.1722  1.5936 -0.0357
  471MOL0     H62126   8.843   2.700   7.205 -1.9960 -1.3978 -2.6391
  471MOL0     H62127   8.755   2.771   7.077  0.0962  1.7481 -0.2121
  471MOL0     H62128   8.685   2.783   7.368 -1.2726  2.5250 -0.4293
  471MOL0     H62129   8.618   2.682   7.242 -0.2445  0.1436  0.5666
  471MOL0     H62130   8.606   2.990   7.192 -1.1861  1.2135  0.5978
  471MOL0     H62131   8.491   2.872   7.143 -2.1738  0.2390  1.9990
  471MOL0     H62132   8.400   2.996   7.322 -0.9884 -0.7798  0.9187
  471MOL0     H62133   8.545   2.964   7.427  2.8979 -2.7980 -1.3603
  471MOL0     H62134   8.275   2.660   7.552 -0.4041  0.3397  1.7986
  471MOL0     H62135   8.053   2.597   7.529 -1.1078 -1.3663 -2.0241
  471MOL0     H62136   7.632   2.506   7.280 -0.1364  0.4731 -0.2469
  471MOL0     H62137   7.404   2.491   7.269  3.1919 -0.7658  1.4358
  471MOL0     H62138   7.166   2.533   7.307  2.3653 -1.7948 -1.8891
  471MOL0     H62139   7.194   2.547   7.132  4.5695  0.8874  1.8024
  471MOL0     H62140   7.007   2.713   7.116 -1.4146 -0.0274  0.0191
  471MOL0     H62141   6.958   2.671   7.283 -2.4522  1.6648 -2.6257
  471MOL0     H62142   6.964   2.500   7.018  0.2720  0.2156 -0.0005
  471MOL0     H62143   6.826   2.585   7.077  0.7705  0.5677 -1.9018
  471MOL0     H62144   6.960   2.327   7.177  0.1596  0.8174 -2.2515
  471MOL0     H62145   6.872   2.436   7.295  1.2967  2.2204 -0.8456
  471MOL0     H62146   6.681   2.422   7.100 -1.2448 -1.2233 -0.6959
  471MOL0     H62147   6.683   2.299   7.221  2.7929 -3.2958  0.9342
  471MOL0     H62148   6.803   2.146   7.091 -0.3890 -0.6251  0.0518
  471MOL0     H62149   6.876   2.272   6.982 -0.6131  1.4980 -0.5447
  471MOL0     H62150   6.572   2.196   6.994  0.0907  1.6265  2.2646
  471MOL0     H62151   6.638   2.336   6.908 -2.4610  0.1973  0.9235
  471MOL0     H62152   6.766   2.183   6.751  0.2608 -1.8995 -0.8598
  471MOL0     H62153   6.607   2.138   6.759  0.3848 -1.1432 -0.4252
  471MOL0     H62154   7.379   2.925   7.180 -0.3708 -0.9515 -2.1782
  471MOL0     H62155   7.640   2.919   7.173  2.0075 -2.8175 -1.3829
  471MOL0     H62156   8.017   2.810   7.154  2.4628 -3.2692 -3.2242
  471MOL0     H62157   8.253   2.891   7.200  1.6349 -0.1464 -0.3828
  471MOL0     H62158  10.138   2.938   7.535  1.3346  0.9540  0.0393
  471MOL0     H62159  10.360   2.993   7.463 -1.5616  0.7187  0.4480
  471MOL0     H62160  10.650   3.047   7.054  0.9373  1.4292  2.4509
  471MOL0     H62161  10.852   3.035   6.926  1.8543 -0.0395  0.4003
  471MOL0     H62162  11.042   2.669   6.919  2.5393 -1.6724  1.9502
  471MOL0     H62163  11.190   2.731   7.004 -1.4642 -0.7841  1.6376
  471MOL0     H62164  11.146   2.797   6.706  1.6570 -2.1398 -3.4403
  471MOL0     H62165  11.278   2.834   6.817  1.0555 -0.8905 -2.6588
  471MOL0     H62166  11.179   2.556   6.724 -0.3074  1.0559 -0.9726
  471MOL0     H62167  11.310   2.579   6.838  1.9976  1.6384  0.2632
  471MOL0     H62168  11.306   2.644   6.543 -1.0319  1.2702 -0.1446
  471MOL0     H62169  11.405   2.738   6.649 -1.6546  0.1238  2.9363
  471MOL0     H62170  11.628   2.399   6.568  0.8867  0.2208  2.9261
  471MOL0     H62171  10.995   2.700   7.145  0.6297 -0.2577 -2.9667
  471MOL0     H62172  10.790   2.710   7.283 -0.6281  2.1948  1.5217
  472MOL0     O62173   9.985   6.832   9.857  0.5586  0.1614 -0.3754
  472MOL0     C62174  10.067   6.750   9.893  0.1039  1.6490 -0.1913
  472MOL0     O62175  10.040   6.629   9.962  0.7912 -0.5069 -0.4712
  472MOL0     C62176   9.931   6.628  10.042  0.4006  0.2709 -1.8208
  472MOL0     C62177   9.955   6.658  10.181  0.0663  0.5856  0.5929
  472MOL0     C62178   9.841   6.672  10.271 -1.0764  0.1595  0.1222
  472MOL0     C62179   9.717   6.648  10.213  0.8103 -0.4257 -0.5849
  472MOL0     O62180   9.611   6.645  10.303  0.1904 -0.5864 -0.3059
  472MOL0     C62181   9.471   6.660  10.260  0.4921 -0.1709  0.5407
  472MOL0     C62182   9.392   6.527  10.231  0.2645  0.2016 -0.3836
  472MOL0     C62183   9.372   6.446  10.358 -0.8220  0.6133 -0.2640
  472MOL0     C62184   9.271   6.515  10.454 -0.8781  0.1382 -0.5707
  472MOL0     C62185   9.172   6.416  10.515  0.2607 -0.2194 -0.8534
  472MOL0     C62186   9.236   6.313  10.601  0.5258  0.1499  0.0063
  472MOL0     C62187   9.133   6.211  10.653 -0.4520  0.2412 -0.2761
  472MOL0     C62188   9.192   6.100  10.735  0.4548  0.5522 -0.6313
  472MOL0     N62189   9.308   6.033  10.682 -0.3084 -0.2876  0.5886
  472MOL0     C62190   9.436   6.087  10.694  0.2078  0.1695 -0.2337
  472MOL0     C62191   9.520   6.001  10.630  0.6443  0.9861  0.3944
  472MOL0     C62192   9.668   6.003  10.617  0.1417 -0.0697 -0.8391
  472MOL0     C62193   9.715   6.118  10.525  0.4275  0.1185  0.4885
  472MOL0     C62194   9.684   6.090  10.375 -0.2086 -0.0518 -0.0800
  472MOL0     C62195   9.701   6.225  10.302 -0.0713  0.2525  0.7813
  472MOL0     O62196   9.817   6.296  10.331  0.3183  0.2171  0.7451
  472MOL0     C62197   9.947   6.252  10.287  0.1003 -0.2630  0.3819
  472MOL0     C62198  10.062   6.321  10.331  0.5096 -0.0829 -0.4172
  472MOL0     C62199  10.191   6.284  10.304  0.0419 -0.2741 -0.3159
  472MOL0     C62200  10.215   6.159  10.231  0.1022 -0.3088 -0.5188
  472MOL0     C62201  10.353   6.117  10.210 -0.0998 -0.2881  0.3027
  472MOL0     O62202  10.446   6.207  10.245  0.6659 -0.0542  0.1205
  472MOL0     C62203  10.582   6.193  10.223 -0.1085  0.3320  0.5460
  472MOL0     C62204  10.655   6.302  10.181  0.6054 -0.5861 -0.2946
  472MOL0     C62205  10.789   6.295  10.145  0.0240 -0.4967 -0.5358
  472MOL0     C62206  10.848   6.174  10.149  0.5885  0.1757  0.9785
  472MOL0     O62207  10.972   6.149  10.116 -0.2713  0.1795  0.6723
  472MOL0     C62208  11.050   6.251  10.044 -1.2335 -0.3157 -0.2055
  472MOL0     C62209  11.187   6.183  10.026  0.9879 -0.0446  0.4970
  472MOL0     C62210  11.256   6.166  10.160 -0.4080  0.3713  0.1325
  472MOL0     C62211  11.400   6.116  10.134  0.8694  0.8057  0.6428
  472MOL0     C62212  11.473   6.106  10.260 -0.2576 -0.2563 -0.1194
  472MOL0     C62213  11.619   6.053  10.242 -0.4590  0.6592 -0.0998
  472MOL0     C62214  11.675   5.992  10.367 -0.5542  0.3297 -0.6072
  472MOL0     C62215  11.808   5.939  10.341 -0.5595  0.2647 -0.1386
  472MOL0    Cl62216  11.893   5.921  10.512  0.0361 -0.2089  0.3431
  472MOL0     C62217  10.778   6.063  10.203  0.1706 -0.4592  0.2079
  472MOL0     C62218  10.648   6.070  10.238  0.6844 -0.0395  0.8399
  472MOL0     O62219  10.378   6.012  10.151  0.0996 -0.1778  0.8238
  472MOL0     C62220  10.102   6.091  10.179  0.3038 -0.2836 -0.0677
  472MOL0     C62221   9.971   6.144  10.200  0.3923  0.9712 -0.6439
  472MOL0     N62222   9.437   5.900  10.580 -0.1790  0.5058  0.2660
  472MOL0     N62223   9.314   5.916  10.607 -0.0036 -0.6871  0.9977
  472MOL0     C62224   9.689   6.619  10.083 -0.5320 -0.9205  0.3766
  472MOL0     C62225   9.800   6.614   9.996  0.3715 -0.4714  0.6353
  472MOL0     C62226  10.204   6.774   9.841  0.3290  0.0134  0.5416
  472MOL0     C62227  10.310   6.682   9.855  0.6496  0.8399 -0.3895
  472MOL0     C62228  10.432   6.696   9.792  0.0437  0.0813 -0.1165
  472MOL0     C62229  10.461   6.816   9.727  0.4470 -0.8672  1.0709
  472MOL0     O62230  10.584   6.825   9.670  0.5381  0.1318 -0.7523
  472MOL0     C62231  10.620   6.955   9.623  0.0561  0.0548 -0.8045
  472MOL0     C62232  10.765   6.981   9.603 -0.4713  0.5636 -0.6118
  472MOL0     C62233  10.844   6.944   9.729  0.5952  0.1232  0.1167
  472MOL0     C62234  10.990   6.972   9.695  0.6776  0.0156  0.4172
  472MOL0     C62235  11.040   6.860   9.611  0.0039 -0.8007  0.8078
  472MOL0     C62236  11.105   6.781   9.546  0.4604  0.4585 -0.6271
  472MOL0     C62237  10.360   6.919   9.713 -0.5278  0.2783 -0.4707
  472MOL0     C62238  10.236   6.897   9.775  0.3121  0.9388 -0.0078
  472MOL0     H62239  10.050   6.691  10.222  0.3171 -0.0989  0.5623
  472MOL0     H62240   9.856   6.692  10.376  2.2308  2.1201 -0.5805
  472MOL0     H62241   9.460   6.726  10.174  3.7274  0.5223  0.5275
  472MOL0     H62242   9.426   6.716  10.343 -3.6208 -1.1849 -0.8198
  472MOL0     H62243   9.439   6.464  10.154 -4.5058 -0.6904 -3.0223
  472MOL0     H62244   9.296   6.550  10.182  1.0642  1.3838 -1.4567
  472MOL0     H62245   9.464   6.437  10.416 -0.8368 -0.4860 -0.3815
  472MOL0     H62246   9.336   6.347  10.329  1.1871 -0.4541  0.6820
  472MOL0     H62247   9.328   6.558  10.538  2.0328 -1.7752 -1.4345
  472MOL0     H62248   9.215   6.592  10.400 -3.2931 -2.0945 -1.4418
  472MOL0     H62249   9.106   6.368  10.442  0.1859 -0.5876 -0.5490
  472MOL0     H62250   9.112   6.480  10.580  0.8116  1.1042 -1.6215
  472MOL0     H62251   9.286   6.360  10.686  1.0482  0.0553 -0.2469
  472MOL0     H62252   9.304   6.254  10.539 -0.8438 -2.9431  1.2415
  472MOL0     H62253   9.064   6.269  10.715 -0.8115 -0.1969 -0.2607
  472MOL0     H62254   9.076   6.168  10.570 -0.3876  0.1338 -0.2647
  472MOL0     H62255   9.112   6.028  10.752 -0.1661  1.3512 -0.1005
  472MOL0     H62256   9.215   6.133  10.837  0.7856 -3.0874  0.6539
  472MOL0     H62257   9.452   6.180  10.748  1.0595 -0.9926  1.6292
  472MOL0     H62258   9.707   5.907  10.584 -1.9176 -1.1022 -0.4655
  472MOL0     H62259   9.706   6.022  10.718  3.3584 -3.0824 -1.2892
  472MOL0     H62260   9.824   6.126  10.533  0.6540 -2.2693  0.5799
  472MOL0     H62261   9.665   6.210  10.556  0.6992 -0.2409  2.0939
  472MOL0     H62262   9.761   6.023  10.337  1.0455  0.5533  1.3048
  472MOL0     H62263   9.587   6.040  10.369 -0.3838  0.2678  0.0720
  472MOL0     H62264   9.613   6.290  10.309  1.0501  2.4929 -2.9827
  472MOL0     H62265   9.708   6.204  10.195  2.6005  0.5060  0.8578
  472MOL0     H62266  10.051   6.413  10.388  3.0759 -0.0819  0.2326
  472MOL0     H62267  10.277   6.340  10.339 -0.9156  0.6044  0.7038
  472MOL0     H62268  10.611   6.400  10.169 -1.1325 -1.3513 -0.4687
  472MOL0     H62269  10.856   6.379  10.129  0.2041 -0.1348  1.7274
  472MOL0     H62270  11.073   6.343  10.099  0.9090 -1.1003  0.2914
  472MOL0     H62271  11.004   6.274   9.947  0.4977 -2.0888 -1.5245
  472MOL0     H62272  11.239   6.256   9.964 -0.6405  2.9215  2.3971
  472MOL0     H62273  11.171   6.090   9.970 -3.6432  1.0118 -0.3930
  472MOL0     H62274  11.203   6.092  10.222  0.1182 -0.5047 -0.4545
  472MOL0     H62275  11.261   6.263  10.209 -1.7389  1.7127 -2.2191
  472MOL0     H62276  11.399   6.015  10.093  0.9298  1.5957 -1.3936
  472MOL0     H62277  11.449   6.185  10.065  1.4162 -1.7544 -1.6698
  472MOL0     H62278  11.421   6.034  10.325  0.7422 -1.8556 -1.0177
  472MOL0     H62279  11.483   6.207  10.301  1.8155 -0.2563 -0.4935
  472MOL0     H62280  11.679   6.142  10.219  2.5162 -1.0632  0.4679
  472MOL0     H62281  11.627   5.997  10.149  1.2561  2.1021 -0.8719
  472MOL0     H62282  11.681   6.071  10.443  0.4427  0.5481 -0.8973
  472MOL0     H62283  11.617   5.909  10.408 -1.0388 -0.0559 -2.0223
  472MOL0     H62284  11.853   6.020  10.283 -1.1604  0.8822  0.2435
  472MOL0     H62285  11.800   5.844  10.288  1.1867 -0.5836  1.0332
  472MOL0     H62286  10.838   5.976  10.224 -0.3570 -0.1574  3.3356
  472MOL0     H62287  10.589   5.986  10.272 -1.1648 -0.0229 -1.9836
  472MOL0     H62288  10.132   5.999  10.127  5.9009  0.7988  0.5960
  472MOL0     H62289   9.888   6.092  10.154  2.0335 -1.2109 -1.3291
  472MOL0     H62290   9.584   6.620  10.055 -1.4083  4.3902  2.6249
  472MOL0     H62291   9.786   6.606   9.889 -1.1303 -0.5861  0.8152
  472MOL0     H62292  10.286   6.596   9.917  1.3669 -0.9334 -2.4595
  472MOL0     H62293  10.509   6.620   9.790 -0.3551 -0.3234 -1.3431
  472MOL0     H62294  10.580   7.042   9.677  1.5135  0.0768  0.3125
  472MOL0     H62295  10.569   6.953   9.527  0.9121  0.8409 -1.2960
  472MOL0     H62296  10.793   6.928   9.512  0.2170 -1.1683  0.5685
  472MOL0     H62297  10.769   7.090   9.589  1.9823  0.3525 -2.1122
  472MOL0     H62298  10.820   6.840   9.748 -1.6507  0.4990 -0.3745
  472MOL0     H62299  10.807   7.008   9.810 -0.4273  3.4481 -2.6993
  472MOL0     H62300  10.998   7.068   9.643 -1.3550 -0.1971 -0.3786
  472MOL0     H62301  11.048   6.969   9.787 -1.7389  0.8814  2.0428
  472MOL0     H62302  11.172   6.708   9.506  0.2695 -0.4770  0.7072
  472MOL0     H62303  10.367   7.015   9.663  1.6234  2.0764  2.8842
  472MOL0     H62304  10.157   6.971   9.778  0.0607  0.6253  2.3093
  473MOL0     O62305   5.868   3.358   4.587  0.1712  0.7162  0.7303
  473MOL0     C62306   5.799   3.256   4.572 -0.2886 -0.0937  0.1671
  473MOL0     O62307   5.855   3.128   4.556 -0.1238  0.1712  0.3982
  473MOL0     C62308   5.988   3.105   4.559  0.1172 -0.4416 -0.8950
  473MOL0     C62309   6.048   3.066   4.443  0.0916  0.2788 -0.5310
  473MOL0     C62310   6.189   3.060   4.427  0.2140  0.2460 -0.8386
  473MOL0     C62311   6.275   3.106   4.528 -0.0021  1.0975 -0.2024
  473MOL0     O62312   6.411   3.115   4.515  0.5390  0.0942 -0.5354
  473MOL0     C62313   6.469   3.125   4.380 -0.3226 -0.5256 -0.2542
  473MOL0     C62314   6.617   3.089   4.392  0.5018  0.3889 -0.7438
  473MOL0     C62315   6.647   2.947   4.424  0.0744 -0.5497  1.0407
  473MOL0     C62316   6.597   2.858   4.319  0.0560  0.4951  0.5745
  473MOL0     C62317   6.705   2.754   4.294  0.0854  0.9723 -0.1363
  473MOL0     C62318   6.834   2.805   4.230  0.1293 -0.0886 -0.1284
  473MOL0     C62319   6.952   2.706   4.235 -0.5897  0.3705 -0.2752
  473MOL0     C62320   7.062   2.731   4.133  0.5735 -1.0383 -0.1247
  473MOL0     N62321   7.057   2.642   4.024 -0.1888 -0.4678  0.2571
  473MOL0     C62322   7.097   2.515   4.021 -0.2348  1.0630  0.5062
  473MOL0     C62323   7.068   2.471   3.901  0.1787  0.8186  0.6536
  473MOL0     C62324   7.095   2.334   3.839  0.7774  0.6829  0.6017
  473MOL0     C62325   7.027   2.311   3.702  0.1746 -0.1424 -0.0458
  473MOL0     C62326   7.073   2.192   3.622  0.5756  0.0629  0.3882
  473MOL0     C62327   7.069   2.058   3.697  0.6322  0.0011  0.5049
  473MOL0     O62328   6.940   2.046   3.747 -0.7062 -0.1431 -0.3029
  473MOL0     C62329   6.906   1.925   3.802 -0.1469  0.0286 -0.6334
  473MOL0     C62330   6.767   1.896   3.817 -0.3018 -0.3954  0.0647
  473MOL0     C62331   6.727   1.777   3.886 -0.6965  0.2228  0.7293
  473MOL0     C62332   6.819   1.674   3.917 -0.2273 -1.0540  0.0029
  473MOL0     C62333   6.774   1.539   3.952  0.0625 -0.1637  0.0650
  473MOL0     O62334   6.634   1.514   3.945 -0.5512  0.5128 -0.1172
  473MOL0     C62335   6.585   1.398   4.006  0.3693 -0.3717  0.0532
  473MOL0     C62336   6.476   1.339   3.942  0.7575  0.1442  0.5518
  473MOL0     C62337   6.408   1.232   4.003  0.1957  0.1813 -0.2804
  473MOL0     C62338   6.444   1.189   4.133 -1.0015  0.0146  0.4149
  473MOL0     O62339   6.399   1.073   4.189  0.5531  0.7387  0.2204
  473MOL0     C62340   6.284   1.005   4.128 -0.8311  0.9473  0.0829
  473MOL0     C62341   6.149   1.070   4.145 -0.6131 -0.1828 -0.4382
  473MOL0     C62342   6.050   1.016   4.044  0.9058 -0.3506 -1.3123
  473MOL0     C62343   5.914   1.060   4.103 -0.1499  0.2641  0.0673
  473MOL0     C62344   5.796   1.019   4.012  0.1407  0.4009  0.2732
  473MOL0     C62345   5.775   0.864   4.017 -0.9515  0.5407  0.1094
  473MOL0     C62346   5.644   0.827   3.951  0.9759  0.1856  0.7507
  473MOL0     C62347   5.639   0.855   3.795  0.5888  0.3780  0.8492
  473MOL0    Cl62348   5.789   0.812   3.715 -0.4420  0.1463 -0.1171
  473MOL0     C62349   6.559   1.246   4.191  0.0782 -0.3918 -0.8956
  473MOL0     C62350   6.629   1.355   4.130  0.6812  0.8559 -0.1111
  473MOL0     O62351   6.860   1.456   3.990 -0.0862  0.3055 -1.0669
  473MOL0     C62352   6.954   1.709   3.903 -0.4860  0.1878  0.5510
  473MOL0     C62353   6.997   1.830   3.858  0.4388  0.5724  0.4762
  473MOL0     N62354   7.009   2.577   3.833  0.0074  0.2769 -0.3202
  473MOL0     N62355   7.001   2.682   3.905 -0.3743  0.0147 -0.0876
  473MOL0     C62356   6.209   3.143   4.652  0.3540 -0.7703  0.8117
  473MOL0     C62357   6.071   3.127   4.670  0.4074 -0.0079 -0.8643
  473MOL0     C62358   5.644   3.274   4.571 -1.0310 -0.4893  0.8839
  473MOL0     C62359   5.589   3.396   4.588  0.3921 -0.2661  0.2065
  473MOL0     C62360   5.450   3.418   4.581  0.1418  0.7045  0.7691
  473MOL0     C62361   5.360   3.312   4.548 -0.0648  0.6902  0.4192
  473MOL0     O62362   5.229   3.330   4.522  0.3109 -0.0517  0.4268
  473MOL0     C62363   5.167   3.455   4.557 -0.7280 -0.9276 -0.2468
  473MOL0     C62364   5.014   3.465   4.531  0.1429  0.5361  0.0228
  473MOL0     C62365   4.987   3.422   4.389  0.1208 -0.9591 -0.1536
  473MOL0     C62366   4.847   3.369   4.360 -0.0745  0.8587  0.2482
  473MOL0     C62367   4.742   3.462   4.403 -0.8282  0.0051 -0.3249
  473MOL0     C62368   4.651   3.536   4.438  0.2880 -0.1004 -0.5362
  473MOL0     C62369   5.418   3.188   4.531 -0.1252  0.3967 -0.0117
  473MOL0     C62370   5.557   3.168   4.540 -1.4059 -0.5871  0.3659
  473MOL0     H62371   5.975   3.033   4.371 -0.3244  0.5219 -0.2216
  473MOL0     H62372   6.217   3.036   4.324  3.1367 -1.0153  0.1516
  473MOL0     H62373   6.456   3.229   4.349 -1.3259 -0.6263 -0.2020
  473MOL0     H62374   6.422   3.054   4.311 -0.0937 -0.7743 -0.1574
  473MOL0     H62375   6.647   3.139   4.484 -3.8742  0.7552  0.7451
  473MOL0     H62376   6.667   3.120   4.301  1.9156 -1.6483 -0.7279
  473MOL0     H62377   6.596   2.925   4.518  1.2395  1.6800  2.2948
  473MOL0     H62378   6.754   2.938   4.441  0.5369  1.5254 -0.3546
  473MOL0     H62379   6.497   2.817   4.335  1.0111 -1.3630  2.1553
  473MOL0     H62380   6.585   2.900   4.218  0.0498 -3.9841 -1.5380
  473MOL0     H62381   6.650   2.684   4.231 -1.1666 -1.1103  3.0227
  473MOL0     H62382   6.725   2.701   4.387  3.8460  1.1414 -0.6663
  473MOL0     H62383   6.874   2.896   4.274  1.2506 -0.7177  0.2007
  473MOL0     H62384   6.806   2.834   4.128  2.9700  2.1364 -0.4244
  473MOL0     H62385   7.001   2.718   4.332  0.4668  2.1089 -0.9736
  473MOL0     H62386   6.914   2.605   4.219 -1.3797  0.4844  0.8040
  473MOL0     H62387   7.157   2.718   4.186  1.6096  1.9508 -1.0616
  473MOL0     H62388   7.067   2.830   4.087  1.4177 -0.8522  0.3509
  473MOL0     H62389   7.153   2.464   4.098  1.4429  0.6245 -0.9369
  473MOL0     H62390   7.052   2.256   3.902 -1.1954 -1.3958 -3.0015
  473MOL0     H62391   7.204   2.322   3.832  0.4423 -2.1661 -2.2716
  473MOL0     H62392   7.060   2.397   3.644 -0.4277  0.1968  0.1101
  473MOL0     H62393   6.922   2.327   3.726  0.3059  3.0682 -1.1765
  473MOL0     H62394   7.006   2.183   3.536 -0.9756 -0.1949  1.5806
  473MOL0     H62395   7.176   2.200   3.586  0.4635  0.3904  0.1322
  473MOL0     H62396   7.139   2.067   3.780  2.7199 -1.3088 -1.0143
  473MOL0     H62397   7.093   1.982   3.622 -1.4211  0.3648 -0.5839
  473MOL0     H62398   6.695   1.969   3.781 -0.7477 -0.2873  1.1404
  473MOL0     H62399   6.624   1.745   3.901 -0.9198 -0.1483 -1.2988
  473MOL0     H62400   6.458   1.383   3.844  0.3450  0.2145  0.6577
  473MOL0     H62401   6.317   1.197   3.954  0.5833  1.3603 -1.9273
  473MOL0     H62402   6.290   0.901   4.162  1.9837  0.8509 -0.4661
  473MOL0     H62403   6.302   0.979   4.023 -3.6313 -2.1435  0.1687
  473MOL0     H62404   6.157   1.177   4.124  1.2102 -0.1609  0.2084
  473MOL0     H62405   6.116   1.051   4.248  2.5794 -0.7166  0.6151
  473MOL0     H62406   6.053   0.907   4.041  1.0185 -0.3900 -0.2480
  473MOL0     H62407   6.063   1.066   3.948  1.1996  1.0657 -0.5645
  473MOL0     H62408   5.898   1.025   4.205 -1.2828  1.9727  0.5128
  473MOL0     H62409   5.909   1.169   4.110  0.2741  0.6185 -3.1588
  473MOL0     H62410   5.804   1.059   3.911  1.0818 -1.0222 -0.2315
  473MOL0     H62411   5.715   1.075   4.061 -0.4001 -0.5131  0.4413
  473MOL0     H62412   5.764   0.823   4.118 -1.7894  0.9634  0.1946
  473MOL0     H62413   5.860   0.810   3.973 -1.1874 -1.9017  2.3703
  473MOL0     H62414   5.623   0.721   3.969  1.1702  0.0956  0.4534
  473MOL0     H62415   5.559   0.876   4.000  2.0618  1.8242  1.0568
  473MOL0     H62416   5.618   0.962   3.788  0.7258  0.4360  1.2762
  473MOL0     H62417   5.549   0.810   3.751  1.7155 -1.5412  0.3561
  473MOL0     H62418   6.589   1.213   4.290 -1.6609  0.4668 -0.0358
  473MOL0     H62419   6.713   1.400   4.182  0.3155  0.9194  0.4345
  473MOL0     H62420   7.032   1.646   3.945 -0.5241  0.6298  1.3070
  473MOL0     H62421   7.103   1.849   3.848  0.5234 -0.9979 -2.7755
  473MOL0     H62422   6.274   3.179   4.731  1.5830 -0.1672 -0.4267
  473MOL0     H62423   6.024   3.159   4.763 -4.0691  1.2191 -3.2488
  473MOL0     H62424   5.648   3.487   4.600 -1.7452  0.8584  4.1704
  473MOL0     H62425   5.416   3.511   4.624 -0.7160 -0.4735  2.7701
  473MOL0     H62426   5.212   3.540   4.506  1.8433 -1.4125  1.0239
  473MOL0     H62427   5.187   3.478   4.662  1.3931  2.6216 -1.2578
  473MOL0     H62428   4.967   3.393   4.598  1.4503  0.6061  1.0570
  473MOL0     H62429   4.975   3.567   4.542 -3.1051 -0.6453  0.5009
  473MOL0     H62430   5.066   3.360   4.348  1.2071  0.9233 -1.0436
  473MOL0     H62431   5.000   3.516   4.334  2.3477 -1.0825  0.0996
  473MOL0     H62432   4.832   3.357   4.252  1.3054 -0.6423  0.1718
  473MOL0     H62433   4.842   3.264   4.391 -1.6706 -0.0386 -2.6742
  473MOL0     H62434   4.568   3.595   4.470  1.1665  0.3012  1.0626
  473MOL0     H62435   5.357   3.111   4.484  0.3419  0.5514 -0.8940
  473MOL0     H62436   5.599   3.071   4.513  0.3149  0.9438 -3.0909
  474MOL0     O62437  10.787   9.594   3.975 -0.3775  0.5874 -0.7032
  474MOL0     C62438  10.844   9.672   3.905  0.4574  0.6745  0.3019
  474MOL0     O62439  10.777   9.762   3.818  0.2778  0.0910  0.1735
  474MOL0     C62440  10.641   9.799   3.832 -1.3184  0.0462 -0.7252
  474MOL0     C62441  10.580   9.865   3.726  0.0731  0.2092 -0.1470
  474MOL0     C62442  10.446   9.904   3.722  0.0841 -0.2188 -0.1344
  474MOL0     C62443  10.363   9.876   3.827  0.1662 -0.9194 -0.3244
  474MOL0     O62444  10.230   9.911   3.816 -0.2460  0.0204  0.3559
  474MOL0     C62445  10.161   9.882   3.935 -0.9767 -0.3213 -0.2959
  474MOL0     C62446  10.024   9.945   3.924  1.0939 -0.0887 -0.2683
  474MOL0     C62447   9.933   9.881   3.820  0.0723  0.4121 -0.4337
  474MOL0     C62448   9.780   9.921   3.829  0.5850  0.4208  0.0383
  474MOL0     C62449   9.713   9.857   3.707  0.0958 -0.3584 -0.9781
  474MOL0     C62450   9.559   9.852   3.723  0.0336 -0.5708  0.0142
  474MOL0     C62451   9.502   9.770   3.612  0.4613  1.5478 -0.6407
  474MOL0     C62452   9.358   9.775   3.585 -0.4191  0.0962  0.7482
  474MOL0     N62453   9.323   9.911   3.539  0.8110  0.4205  0.2220
  474MOL0     C62454   9.261   9.998   3.622  0.7155  0.3385  0.0857
  474MOL0     C62455   9.224  10.101   3.548 -1.2740 -0.5664  0.3306
  474MOL0     C62456   9.158  10.218   3.599  0.2179  0.7432 -0.1297
  474MOL0     C62457   9.005  10.212   3.572  0.5688  0.2709 -0.6157
  474MOL0     C62458   8.926  10.299   3.667 -0.1999  0.0110  0.0873
  474MOL0     C62459   8.782  10.284   3.642  0.6949 -1.1983  0.0930
  474MOL0     O62460   8.714  10.368   3.732  0.0954 -1.0254 -0.2736
  474MOL0     C62461   8.577  10.371   3.743 -0.8064 -0.2752 -0.3777
  474MOL0     C62462   8.527  10.398   3.867 -0.5226 -0.5093 -0.6797
  474MOL0     C62463   8.387  10.403   3.889 -0.5729 -0.2154  0.2948
  474MOL0     C62464   8.297  10.398   3.780 -1.0680 -0.3177 -0.2225
  474MOL0     C62465   8.155  10.434   3.803 -0.2279 -0.8993  0.0696
  474MOL0     O62466   8.112  10.450   3.932 -0.0856  0.7659 -0.5350
  474MOL0     C62467   7.985  10.463   3.967 -0.3735  0.1618  0.6644
  474MOL0     C62468   7.880  10.385   3.911 -0.6420  0.2944  0.9430
  474MOL0     C62469   7.748  10.396   3.949  0.1424  0.0360  0.5637
  474MOL0     C62470   7.711  10.486   4.052 -0.8159  0.8569  0.0251
  474MOL0     O62471   7.581  10.494   4.084  0.4166  0.1193 -0.0605
  474MOL0     C62472   7.519  10.595   4.151 -0.6938 -0.3214  0.3172
  474MOL0     C62473   7.357  10.573   4.128  0.2223  0.2223  0.0120
  474MOL0     C62474   7.313  10.427   4.165  0.0209  0.9709  0.5516
  474MOL0     C62475   7.160  10.418   4.183 -0.5479 -0.7403  0.7092
  474MOL0     C62476   7.083  10.430   4.049 -0.1961  0.2647  0.1334
  474MOL0     C62477   6.945  10.402   4.082 -0.0118 -0.0929 -0.2445
  474MOL0     C62478   6.860  10.411   3.949  0.5217 -0.3121  0.2019
  474MOL0     C62479   6.717  10.382   3.976 -0.6714  0.6244  0.2880
  474MOL0    Cl62480   6.643  10.515   4.074  0.2346 -0.3286  0.2392
  474MOL0     C62481   7.810  10.571   4.105  0.3129  0.3154 -0.5504
  474MOL0     C62482   7.943  10.554   4.070  0.0233 -0.1857  0.5389
  474MOL0     O62483   8.084  10.426   3.705  0.4166  0.5403 -0.1507
  474MOL0     C62484   8.352  10.364   3.652 -0.1586  0.1454  0.2080
  474MOL0     C62485   8.498  10.351   3.631 -0.1464  0.2038 -0.1984
  474MOL0     N62486   9.272  10.078   3.412 -1.4090 -0.1980  0.0594
  474MOL0     N62487   9.336   9.965   3.413  0.0583  0.0947 -0.6397
  474MOL0     C62488  10.422   9.809   3.937  0.4551  0.2668 -0.6971
  474MOL0     C62489  10.558   9.767   3.947 -0.3514  0.3720  0.4277
  474MOL0     C62490  10.993   9.679   3.908  0.3231  0.0307 -0.1932
  474MOL0     C62491  11.063   9.752   3.810  0.0206  0.0384 -0.2189
  474MOL0     C62492  11.203   9.763   3.812 -0.0421 -0.3605 -0.0401
  474MOL0     C62493  11.273   9.703   3.917  0.2730  0.4157  0.1558
  474MOL0     O62494  11.403   9.694   3.936 -0.3988 -0.3721  0.3408
  474MOL0     C62495  11.477   9.816   3.901  0.5476  0.3679 -0.3658
  474MOL0     C62496  11.534   9.858   4.038 -0.6254 -0.3170  0.0913
  474MOL0     C62497  11.479   9.993   4.065 -0.6275 -0.5303 -0.0190
  474MOL0     C62498  11.529  10.041   4.202  0.2905 -0.2604  0.4138
  474MOL0     C62499  11.441  10.154   4.238  0.0057  0.1871 -0.1740
  474MOL0     C62500  11.376  10.254   4.261 -0.1909 -0.2004  0.3471
  474MOL0     C62501  11.205   9.639   4.025 -0.0294  0.5118 -0.5723
  474MOL0     C62502  11.063   9.624   4.015 -0.1041 -0.0462  0.6974
  474MOL0     H62503  10.640   9.864   3.636  0.7204 -0.1710  0.2848
  474MOL0     H62504  10.408   9.960   3.637  2.8450 -0.3675 -1.5876
  474MOL0     H62505  10.200   9.922   4.029  1.4046 -3.6639  0.3470
  474MOL0     H62506  10.151   9.773   3.939 -1.4930 -0.2893 -0.7187
  474MOL0     H62507  10.031  10.052   3.903  1.9807 -0.0522  0.1608
  474MOL0     H62508   9.986   9.924   4.024  2.0371  1.1852  0.3778
  474MOL0     H62509   9.942   9.773   3.833  2.0535  0.6414  0.4455
  474MOL0     H62510   9.968   9.902   3.718 -1.2766 -0.0250 -1.0074
  474MOL0     H62511   9.734   9.887   3.922  0.6506  3.7929  1.4592
  474MOL0     H62512   9.774  10.030   3.830  1.1400  0.4654 -0.6682
  474MOL0     H62513   9.744   9.754   3.688 -2.1590 -1.0303 -1.3122
  474MOL0     H62514   9.732   9.918   3.618  1.7034  2.6767  1.2489
  474MOL0     H62515   9.526   9.956   3.711 -1.2893 -0.9559  0.1576
  474MOL0     H62516   9.534   9.813   3.822  0.5164  1.8193  1.1589
  474MOL0     H62517   9.555   9.799   3.521 -0.0004  1.2446 -1.0137
  474MOL0     H62518   9.520   9.668   3.648 -1.4908  1.6056  0.6813
  474MOL0     H62519   9.302   9.733   3.669  0.2698 -2.3257  0.1006
  474MOL0     H62520   9.325   9.711   3.502 -1.8909  0.4763  1.0191
  474MOL0     H62521   9.237   9.978   3.726  0.6786 -1.8941 -0.3105
  474MOL0     H62522   9.199  10.315   3.571 -1.6574  1.8607  0.8228
  474MOL0     H62523   9.167  10.205   3.707  0.2854  2.3085  0.0759
  474MOL0     H62524   8.966  10.111   3.587  3.6558 -0.7361  1.6440
  474MOL0     H62525   8.988  10.244   3.469 -0.5387  1.4602 -0.1004
  474MOL0     H62526   8.946  10.282   3.773 -0.9535 -0.9549  0.0943
  474MOL0     H62527   8.952  10.403   3.644  0.5257 -0.6587 -2.4765
  474MOL0     H62528   8.754  10.182   3.670  1.7017 -1.5063  0.0144
  474MOL0     H62529   8.761  10.304   3.537  3.1925 -0.9396 -0.4005
  474MOL0     H62530   8.592  10.413   3.953  1.7577  0.5580 -2.4695
  474MOL0     H62531   8.366  10.423   3.994  0.5180 -0.3183  0.5474
  474MOL0     H62532   7.909  10.316   3.832  2.0943  0.6348  1.5560
  474MOL0     H62533   7.659  10.349   3.909 -0.0669  0.5901  0.3698
  474MOL0     H62534   7.563  10.687   4.111  2.1701 -2.2010 -1.2588
  474MOL0     H62535   7.542  10.584   4.257 -2.5747 -1.4803  0.6459
  474MOL0     H62536   7.334  10.598   4.024 -2.9983  2.1433  1.0232
  474MOL0     H62537   7.297  10.639   4.192  0.9545 -0.6036  1.6196
  474MOL0     H62538   7.375  10.407   4.253  0.6406  1.0285  0.1368
  474MOL0     H62539   7.350  10.360   4.087  0.7798  0.7808  1.0589
  474MOL0     H62540   7.138  10.319   4.224 -1.8842 -0.5395  0.5219
  474MOL0     H62541   7.117  10.497   4.245 -0.6126  0.2645 -0.5916
  474MOL0     H62542   7.119  10.351   3.983 -1.6757  1.3296 -2.0751
  474MOL0     H62543   7.091  10.532   4.012  0.7246  0.2524  0.2698
  474MOL0     H62544   6.921  10.490   4.142  2.4960  1.2842 -1.1004
  474MOL0     H62545   6.932  10.310   4.140 -0.2180  0.1222  0.0543
  474MOL0     H62546   6.878  10.512   3.910  2.8666 -1.4409 -1.9497
  474MOL0     H62547   6.901  10.328   3.891 -0.3110 -1.8188  1.7133
  474MOL0     H62548   6.710  10.282   4.019 -1.2404  0.4469 -0.1999
  474MOL0     H62549   6.660  10.378   3.883 -0.2928 -1.8437  0.1153
  474MOL0     H62550   7.773  10.637   4.182 -1.5075  0.2184 -1.2742
  474MOL0     H62551   8.024  10.617   4.106 -0.9419  1.6654 -0.3866
  474MOL0     H62552   8.289  10.381   3.565  1.1826  0.4461 -0.7343
  474MOL0     H62553   8.534  10.347   3.529  0.3732  0.5139 -0.0292
  474MOL0     H62554  10.364   9.779   4.024  1.1590  2.7677  0.7257
  474MOL0     H62555  10.608   9.720   4.030  0.6555 -1.4297 -1.1277
  474MOL0     H62556  11.011   9.800   3.727 -1.6079 -0.1798  0.6285
  474MOL0     H62557  11.266   9.805   3.735 -0.3456 -3.0180 -1.8959
  474MOL0     H62558  11.434   9.901   3.847  2.6693  3.0483  1.8189
  474MOL0     H62559  11.562   9.782   3.840 -0.4207 -1.6932 -0.6353
  474MOL0     H62560  11.509   9.783   4.113 -2.2882 -1.1364 -1.2113
  474MOL0     H62561  11.643   9.865   4.034 -0.6644  2.2839  1.4126
  474MOL0     H62562  11.370   9.986   4.074 -0.9645  2.2060 -1.1926
  474MOL0     H62563  11.498  10.066   3.986 -0.1146 -1.3405 -0.6572
  474MOL0     H62564  11.532   9.959   4.274 -0.0940 -2.1589 -1.6031
  474MOL0     H62565  11.630  10.079   4.183  0.6634 -0.8104  1.2675
  474MOL0     H62566  11.314  10.340   4.274 -1.0827 -0.6772 -0.6122
  474MOL0     H62567  11.250   9.577   4.102  0.2199 -2.0211 -2.6146
  474MOL0     H62568  11.019   9.555   4.086  1.1969 -2.3087 -0.5663
  475MOL0     O62569  10.534   8.166   4.301  0.4446 -0.0110  0.1199
  475MOL0     C62570  10.499   8.273   4.352 -1.0649  0.1507  0.2839
  475MOL0     O62571  10.563   8.332   4.458 -0.5564  0.2564  0.8085
  475MOL0     C62572  10.685   8.269   4.498 -0.1865  0.2180 -0.6518
  475MOL0     C62573  10.805   8.322   4.456  1.5623 -0.3088  0.1586
  475MOL0     C62574  10.924   8.269   4.498  0.3032  0.1939 -0.9461
  475MOL0     C62575  10.935   8.171   4.605  0.2186 -0.1721  1.1060
  475MOL0     O62576  11.068   8.123   4.631  0.2006 -0.4140 -0.0939
  475MOL0     C62577  11.068   7.990   4.582  0.1283 -0.7016  0.1488
  475MOL0     C62578  11.210   7.926   4.608 -0.2058  0.0324 -0.3781
  475MOL0     C62579  11.238   7.807   4.515  0.0745 -0.4011  1.1051
  475MOL0     C62580  11.367   7.735   4.559 -0.4849 -0.3053 -0.2214
  475MOL0     C62581  11.402   7.620   4.473 -0.5593  0.9727  1.0118
  475MOL0     C62582  11.329   7.487   4.503 -0.4621  0.7140 -0.0028
  475MOL0     C62583  11.384   7.355   4.438  0.6534 -0.4521 -0.1523
  475MOL0     C62584  11.525   7.320   4.491  0.1822 -0.4039  0.0511
  475MOL0     N62585  11.565   7.201   4.415  1.1587  0.8725 -0.8670
  475MOL0     C62586  11.560   7.195   4.282 -0.5654  0.3199 -1.5418
  475MOL0     C62587  11.608   7.070   4.250 -0.2370  0.1601  0.4863
  475MOL0     C62588  11.613   7.005   4.109  0.2418 -0.5928  0.4270
  475MOL0     C62589  11.523   7.068   4.000 -0.1018 -0.1264 -0.5111
  475MOL0     C62590  11.373   7.040   4.026  0.0952  0.1307 -0.7109
  475MOL0     C62591  11.285   7.125   3.934 -1.2140  0.0125 -0.3281
  475MOL0     O62592  11.287   7.267   3.970  0.1307  0.4599  0.1298
  475MOL0     C62593  11.206   7.298   4.077  0.3918 -0.5309 -0.3907
  475MOL0     C62594  11.216   7.430   4.116  0.0843  0.3325  0.4375
  475MOL0     C62595  11.135   7.483   4.219 -0.4503 -0.6198 -0.6119
  475MOL0     C62596  11.053   7.399   4.295 -0.2921  0.7236  0.9283
  475MOL0     C62597  10.981   7.464   4.403 -0.6770  0.3586  0.2812
  475MOL0     O62598  10.942   7.595   4.406 -0.3015 -1.4817  0.8152
  475MOL0     C62599  10.889   7.650   4.528  0.3921  0.1029  0.4050
  475MOL0     C62600  10.945   7.630   4.653  0.5772  1.3358 -1.1846
  475MOL0     C62601  10.879   7.694   4.764 -0.3733  0.0760  0.4627
  475MOL0     C62602  10.761   7.769   4.747  0.0124 -1.2231 -0.1686
  475MOL0     O62603  10.682   7.827   4.850 -0.4095  0.2414  0.5728
  475MOL0     C62604  10.674   7.743   4.966  0.4652 -0.7693 -1.2204
  475MOL0     C62605  10.565   7.794   5.071  0.7783 -0.2738 -0.0906
  475MOL0     C62606  10.435   7.785   5.002 -0.3141  0.1494 -0.1609
  475MOL0     C62607  10.320   7.840   5.091 -0.0727 -0.5673 -0.8755
  475MOL0     C62608  10.187   7.783   5.034  0.5721  1.1371 -0.4475
  475MOL0     C62609  10.138   7.848   4.899  0.2640 -0.1711  0.0376
  475MOL0     C62610  10.005   7.796   4.853 -0.1337  0.3887  0.7930
  475MOL0     C62611   9.896   7.839   4.951 -0.5096 -0.4829 -1.0012
  475MOL0    Cl62612   9.735   7.792   4.884  0.3095  0.3785  0.0436
  475MOL0     C62613  10.718   7.779   4.617 -0.0417 -0.3504 -0.0262
  475MOL0     C62614  10.778   7.726   4.504  0.5808 -0.0567  0.1851
  475MOL0     O62615  10.959   7.386   4.490  0.7273  0.2221  0.2093
  475MOL0     C62616  11.049   7.259   4.261 -0.7734 -0.0413 -0.7137
  475MOL0     C62617  11.129   7.214   4.153  0.1002  0.7074 -0.3644
  475MOL0     N62618  11.629   7.005   4.368  0.1137 -0.1124  0.2532
  475MOL0     N62619  11.594   7.079   4.468  1.5860  0.6603 -0.6934
  475MOL0     C62620  10.813   8.117   4.645  0.0728 -0.3876 -0.7722
  475MOL0     C62621  10.696   8.170   4.593  0.4377 -0.6769 -0.0427
  475MOL0     C62622  10.380   8.326   4.294 -0.9780  0.0151 -0.1541
  475MOL0     C62623  10.321   8.255   4.188  0.1832 -0.1435 -0.8079
  475MOL0     C62624  10.200   8.304   4.136 -0.3198  0.2465 -0.8240
  475MOL0     C62625  10.139   8.423   4.176 -0.3555 -0.2769 -0.3016
  475MOL0     O62626  10.019   8.456   4.116  0.6644 -0.4286  0.5101
  475MOL0     C62627   9.919   8.536   4.185 -0.4096 -0.7036 -0.4173
  475MOL0     C62628   9.901   8.676   4.122  0.7620 -1.0612 -0.3213
  475MOL0     C62629   9.860   8.780   4.230  0.0805  0.3451 -0.3026
  475MOL0     C62630   9.722   8.743   4.298 -0.0606  0.0055 -0.3349
  475MOL0     C62631   9.606   8.732   4.207 -0.8466 -0.2522  0.1703
  475MOL0     C62632   9.510   8.739   4.128 -0.3174 -0.4725 -1.1797
  475MOL0     C62633  10.202   8.496   4.280 -0.2978  0.7122  0.4048
  475MOL0     C62634  10.319   8.440   4.345  0.0466 -0.8284  0.4120
  475MOL0     H62635  10.803   8.409   4.390  0.7322 -0.2065  0.3122
  475MOL0     H62636  10.999   8.320   4.439 -1.0858  1.6012 -1.5824
  475MOL0     H62637  11.049   7.986   4.475  0.4064 -1.3630  0.1132
  475MOL0     H62638  10.991   7.923   4.622 -3.0144  1.4405 -1.9052
  475MOL0     H62639  11.198   7.882   4.708 -0.6461 -0.5071 -0.6604
  475MOL0     H62640  11.290   8.000   4.620 -1.5343  1.2101  2.1210
  475MOL0     H62641  11.250   7.842   4.413  0.9744 -2.1756  0.5488
  475MOL0     H62642  11.152   7.739   4.528 -3.8902  4.1616  1.5790
  475MOL0     H62643  11.451   7.806   4.557 -1.0716  0.7690  3.6184
  475MOL0     H62644  11.362   7.706   4.665 -2.4280  3.4040  0.8892
  475MOL0     H62645  11.507   7.594   4.491 -1.1008 -0.0763  2.8488
  475MOL0     H62646  11.400   7.632   4.364  2.1195 -2.8585  0.3092
  475MOL0     H62647  11.222   7.498   4.484 -0.6048  0.0805  0.4173
  475MOL0     H62648  11.338   7.462   4.609  0.8835 -1.3189 -0.5477
  475MOL0     H62649  11.322   7.268   4.460  1.9500 -1.3045  0.2603
  475MOL0     H62650  11.376   7.367   4.330 -0.2723  1.5566  0.1042
  475MOL0     H62651  11.510   7.302   4.598 -0.7152 -0.3288 -0.0533
  475MOL0     H62652  11.607   7.389   4.467 -1.0942  0.5473 -1.8556
  475MOL0     H62653  11.526   7.276   4.219  0.3759  2.8186  0.9624
  475MOL0     H62654  11.601   6.896   4.114  0.6553 -0.6464  0.3364
  475MOL0     H62655  11.718   7.017   4.081  0.4865 -0.5985  1.2984
  475MOL0     H62656  11.550   7.028   3.902  0.8368 -1.1736  0.1459
  475MOL0     H62657  11.541   7.176   4.001 -1.3939  0.1063 -0.0754
  475MOL0     H62658  11.347   6.938   3.997  0.2328  0.0433 -0.5303
  475MOL0     H62659  11.350   7.048   4.133 -0.7822  2.1495 -1.0092
  475MOL0     H62660  11.183   7.087   3.948 -1.6029  2.1525  4.4733
  475MOL0     H62661  11.331   7.107   3.836  0.1460  0.6299  0.1766
  475MOL0     H62662  11.276   7.499   4.057 -0.5736  4.6064  4.3073
  475MOL0     H62663  11.124   7.591   4.225 -2.1350 -0.7413 -1.2019
  475MOL0     H62664  11.035   7.573   4.673 -1.1879 -1.3669 -0.4494
  475MOL0     H62665  10.919   7.688   4.865 -0.9483  0.2257  0.7000
  475MOL0     H62666  10.771   7.748   5.017 -1.6035 -0.4754  3.2190
  475MOL0     H62667  10.655   7.638   4.942  1.5210 -0.9635 -1.2432
  475MOL0     H62668  10.577   7.902   5.083 -0.1536 -0.1018 -0.5820
  475MOL0     H62669  10.555   7.737   5.164 -6.0050 -0.0336 -0.2000
  475MOL0     H62670  10.421   7.678   4.982  3.7917 -0.3240 -1.3522
  475MOL0     H62671  10.438   7.834   4.905 -0.2565  3.2052  1.2699
  475MOL0     H62672  10.333   7.817   5.197  0.0743 -1.8766 -1.1583
  475MOL0     H62673  10.313   7.948   5.081 -1.5261 -0.6821 -1.2506
  475MOL0     H62674  10.123   7.791   5.123  1.9066  0.1945  0.6349
  475MOL0     H62675  10.211   7.681   5.001 -1.1347  1.1205 -1.7764
  475MOL0     H62676  10.203   7.835   4.811  0.5308  2.9915 -0.3749
  475MOL0     H62677  10.121   7.956   4.905 -0.2766 -0.1910 -0.8496
  475MOL0     H62678   9.976   7.833   4.754 -0.9538 -0.2398  0.7901
  475MOL0     H62679  10.013   7.687   4.861  2.2298  0.4068 -0.6112
  475MOL0     H62680   9.901   7.947   4.966 -0.7670 -0.6099  0.0792
  475MOL0     H62681   9.917   7.789   5.046 -0.2968 -2.1140 -1.8582
  475MOL0     H62682  10.626   7.830   4.592 -0.2912 -1.0125 -0.4854
  475MOL0     H62683  10.738   7.756   4.407 -3.4757 -2.9541  0.7038
  475MOL0     H62684  11.001   7.186   4.325  2.0943 -1.1247  0.3881
  475MOL0     H62685  11.130   7.106   4.142 -0.9324  0.8116 -1.8228
  475MOL0     H62686  10.804   8.034   4.714  3.2033 -1.3799 -1.4129
  475MOL0     H62687  10.604   8.128   4.633 -0.3879 -0.4252 -1.5962
  475MOL0     H62688  10.365   8.167   4.142  0.1330 -1.2708  1.1754
  475MOL0     H62689  10.150   8.235   4.069 -2.3619 -0.7811  1.5722
  475MOL0     H62690   9.954   8.536   4.289 -1.4436  0.1675 -0.0466
  475MOL0     H62691   9.826   8.479   4.193  0.5391 -2.0865  3.7201
  475MOL0     H62692   9.996   8.710   4.082 -0.5857  0.9636 -1.9988
  475MOL0     H62693   9.832   8.683   4.038 -2.9216  1.1298  2.5330
  475MOL0     H62694   9.857   8.877   4.179  0.2267  0.7705  0.4886
  475MOL0     H62695   9.940   8.774   4.304  0.9238  1.8377 -1.0507
  475MOL0     H62696   9.731   8.653   4.359  0.0779  2.1735  3.1127
  475MOL0     H62697   9.710   8.817   4.377 -2.1853 -1.9295  1.2927
  475MOL0     H62698   9.420   8.721   4.073 -1.7806 -1.4309  1.4057
  475MOL0     H62699  10.161   8.589   4.318  1.1859  0.9500  1.5389
  475MOL0     H62700  10.367   8.496   4.424  1.0600 -0.9636 -0.0869
  476MOL0     O62701   0.709   2.843   4.636  0.1461  0.8637  0.2110
  476MOL0     C62702   0.773   2.733   4.619  0.0985 -0.4309  0.0776
  476MOL0     O62703   0.722   2.612   4.567  0.4851  0.1104  0.2119
  476MOL0     C62704   0.579   2.585   4.569 -0.3680 -0.6504 -0.2207
  476MOL0     C62705   0.491   2.646   4.657  0.7715  0.3032 -0.0338
  476MOL0     C62706   0.350   2.611   4.648 -0.3619  0.4200  0.1276
  476MOL0     C62707   0.301   2.509   4.564  0.1134  0.6289 -0.5143
  476MOL0     O62708   0.172   2.469   4.569  0.2006  0.0542 -0.3164
  476MOL0     C62709   0.092   2.434   4.448  0.2106  0.0234 -0.9627
  476MOL0     C62710  -0.054   2.417   4.477 -0.1223 -0.4485 -0.4291
  476MOL0     C62711  -0.162   2.448   4.365  0.5550  0.1166 -0.0928
  476MOL0     C62712  -0.166   2.379   4.226  0.4557  0.3055  0.3610
  476MOL0     C62713  -0.296   2.417   4.149  0.4905  0.2126  0.3642
  476MOL0     C62714  -0.275   2.376   4.004  0.8918 -0.7896 -0.0996
  476MOL0     C62715  -0.401   2.403   3.927  0.3892 -0.3199 -0.7315
  476MOL0     C62716  -0.392   2.351   3.783 -0.2013  0.2298 -0.3907
  476MOL0     N62717  -0.309   2.428   3.696 -0.4608  0.1752  0.6822
  476MOL0     C62718  -0.339   2.547   3.640  0.4514  0.4264  0.2699
  476MOL0     C62719  -0.243   2.580   3.554 -0.5450  1.1964  0.5644
  476MOL0     C62720  -0.248   2.685   3.442  0.8625  0.0086 -0.1555
  476MOL0     C62721  -0.188   2.822   3.494  1.0616  0.0032  0.5945
  476MOL0     C62722  -0.184   2.955   3.412 -0.6489 -0.5151 -0.1578
  476MOL0     C62723  -0.319   3.019   3.381  0.0056 -0.1282  0.4557
  476MOL0     O62724  -0.391   2.937   3.284  0.0447 -0.2577 -0.1060
  476MOL0     C62725  -0.505   2.991   3.219 -0.7289 -0.3568  0.2067
  476MOL0     C62726  -0.557   2.933   3.107  0.5416 -0.0793 -0.1555
  476MOL0     C62727  -0.668   2.982   3.043 -0.7234  0.2272  0.0001
  476MOL0     C62728  -0.741   3.086   3.099 -0.3284 -0.4822 -0.2365
  476MOL0     C62729  -0.861   3.136   3.044  0.5663 -0.7283 -0.0909
  476MOL0     O62730  -0.917   3.250   3.103 -0.1177 -0.4152  0.3477
  476MOL0     C62731  -1.050   3.277   3.082  0.3382 -0.2779 -0.0505
  476MOL0     C62732  -1.084   3.408   3.040 -0.3425 -0.4553  0.6422
  476MOL0     C62733  -1.206   3.448   3.008  0.0540 -0.2799 -0.1385
  476MOL0     C62734  -1.314   3.352   3.023 -0.6682 -0.2197 -0.0163
  476MOL0     O62735  -1.452   3.377   2.992 -0.7050 -0.3597 -0.1320
  476MOL0     C62736  -1.491   3.506   2.955  0.3049 -0.3467 -0.3018
  476MOL0     C62737  -1.466   3.522   2.807  0.5998 -0.5704  0.0361
  476MOL0     C62738  -1.535   3.417   2.719 -0.5208 -0.1283  1.0594
  476MOL0     C62739  -1.554   3.477   2.572  0.4146 -0.1668 -0.1646
  476MOL0     C62740  -1.649   3.393   2.489  1.0804  0.2225  0.9759
  476MOL0     C62741  -1.794   3.416   2.528 -0.4480 -0.1233  0.5031
  476MOL0     C62742  -1.898   3.356   2.434 -0.0479 -0.5271  0.1000
  476MOL0     C62743  -2.037   3.427   2.441 -0.3337 -0.5626 -0.4078
  476MOL0    Cl62744  -2.124   3.360   2.574  0.1098 -0.4157 -0.5249
  476MOL0     C62745  -1.276   3.224   3.052  0.3063 -0.1639 -0.2609
  476MOL0     C62746  -1.152   3.183   3.079 -0.2521 -0.5791 -0.9532
  476MOL0     O62747  -0.909   3.079   2.943  0.0699 -0.4896  0.3355
  476MOL0     C62748  -0.691   3.159   3.205  0.3262 -0.1603  0.1933
  476MOL0     C62749  -0.573   3.108   3.272 -0.1381  0.0958  0.0307
  476MOL0     N62750  -0.148   2.476   3.557 -0.0976 -0.6397 -0.1090
  476MOL0     N62751  -0.201   2.389   3.636 -0.6111 -0.3151  0.7673
  476MOL0     C62752   0.400   2.453   4.475  0.8880  0.1171 -1.0396
  476MOL0     C62753   0.534   2.493   4.482 -0.9272 -0.1562 -0.7991
  476MOL0     C62754   0.919   2.730   4.647 -0.2385 -0.1465  0.7035
  476MOL0     C62755   0.985   2.838   4.723 -0.3927  0.5555  1.0470
  476MOL0     C62756   1.120   2.842   4.750  0.0232  0.4577 -0.2252
  476MOL0     C62757   1.206   2.734   4.705  0.9928 -0.3916  0.6448
  476MOL0     O62758   1.337   2.733   4.739 -0.6804  0.2829  1.3398
  476MOL0     C62759   1.426   2.621   4.690 -0.5868 -0.1125 -0.3414
  476MOL0     C62760   1.446   2.519   4.806 -0.4592 -0.7170  0.1837
  476MOL0     C62761   1.491   2.587   4.939 -0.0048  0.0102  0.0888
  476MOL0     C62762   1.606   2.688   4.932  0.4103  0.6127  1.2536
  476MOL0     C62763   1.728   2.631   4.879  0.4240 -0.2617 -0.3033
  476MOL0     C62764   1.830   2.596   4.829 -0.5044  0.5039 -0.7302
  476MOL0     C62765   1.134   2.638   4.623 -0.6635 -0.7693 -0.2214
  476MOL0     C62766   0.999   2.635   4.588 -0.3421 -0.6325 -0.8160
  476MOL0     H62767   0.512   2.723   4.731 -1.1281  1.8833 -1.0577
  476MOL0     H62768   0.272   2.641   4.717  2.1248  3.8598  1.7532
  476MOL0     H62769   0.122   2.334   4.416 -2.9547 -1.5528  0.5357
  476MOL0     H62770   0.102   2.503   4.363 -0.8885 -3.1622 -3.9197
  476MOL0     H62771  -0.079   2.483   4.561  0.0856 -1.1332  0.1748
  476MOL0     H62772  -0.064   2.313   4.509  2.6766  0.1510  3.0470
  476MOL0     H62773  -0.147   2.555   4.345  0.0764 -0.0170 -1.2465
  476MOL0     H62774  -0.265   2.438   4.398 -0.7479  1.2638 -3.3701
  476MOL0     H62775  -0.078   2.406   4.167  0.6750 -1.0727  0.0175
  476MOL0     H62776  -0.159   2.270   4.232  0.4724  0.1745 -1.4244
  476MOL0     H62777  -0.311   2.524   4.164 -2.7824 -0.3624  2.0862
  476MOL0     H62778  -0.385   2.368   4.190  1.2017  0.6801  2.6486
  476MOL0     H62779  -0.259   2.268   3.995  3.1212 -0.7010  1.6805
  476MOL0     H62780  -0.195   2.433   3.955  0.9092 -1.4490 -0.8490
  476MOL0     H62781  -0.479   2.351   3.984  0.4799 -0.1163 -0.4131
  476MOL0     H62782  -0.427   2.510   3.928 -1.0654 -0.5705  2.4333
  476MOL0     H62783  -0.487   2.345   3.729 -0.4207  3.2619 -0.5201
  476MOL0     H62784  -0.357   2.248   3.778  0.8087  0.5689 -0.4677
  476MOL0     H62785  -0.437   2.591   3.653  0.6716  0.7632  0.8538
  476MOL0     H62786  -0.353   2.698   3.414  0.4697  2.5152  2.0318
  476MOL0     H62787  -0.192   2.650   3.355 -1.1812 -2.2504 -0.6586
  476MOL0     H62788  -0.082   2.799   3.510  1.3697  0.9851  0.0266
  476MOL0     H62789  -0.245   2.852   3.582 -0.8015  0.2468 -0.6291
  476MOL0     H62790  -0.114   3.022   3.464  0.3425 -2.3722  0.9890
  476MOL0     H62791  -0.153   2.932   3.310 -1.8457  1.0414 -0.9260
  476MOL0     H62792  -0.289   3.118   3.346 -0.4419 -0.2538 -0.2999
  476MOL0     H62793  -0.360   3.036   3.481 -1.3877  1.0598 -0.2892
  476MOL0     H62794  -0.509   2.845   3.065  0.3529 -0.5651  0.6063
  476MOL0     H62795  -0.709   2.935   2.954  3.0205  3.1599 -3.6524
  476MOL0     H62796  -1.003   3.475   3.018 -0.7687 -0.9904 -3.3084
  476MOL0     H62797  -1.221   3.551   2.978 -0.6023  0.1315  1.4728
  476MOL0     H62798  -1.440   3.587   3.008  1.5561  0.6824 -2.9186
  476MOL0     H62799  -1.597   3.510   2.980  0.4824 -3.8412  1.6330
  476MOL0     H62800  -1.361   3.511   2.777  0.5374 -1.9199  0.2260
  476MOL0     H62801  -1.504   3.623   2.790 -1.8613 -1.5635 -0.7424
  476MOL0     H62802  -1.633   3.397   2.764 -1.1075  1.0742  0.3810
  476MOL0     H62803  -1.488   3.319   2.707  2.7429  1.5875 -1.9628
  476MOL0     H62804  -1.595   3.577   2.581 -1.7945 -1.0600  0.3407
  476MOL0     H62805  -1.456   3.487   2.524  0.5331  0.0453  0.1226
  476MOL0     H62806  -1.625   3.288   2.505 -2.4692 -0.7594  0.6409
  476MOL0     H62807  -1.628   3.430   2.387 -0.2406  0.9659  0.9556
  476MOL0     H62808  -1.807   3.525   2.533  0.0846 -0.0510  0.4028
  476MOL0     H62809  -1.831   3.387   2.627 -1.8709  0.0460  0.0457
  476MOL0     H62810  -1.873   3.375   2.329 -1.9378  0.8579 -0.1523
  476MOL0     H62811  -1.912   3.248   2.443 -0.4099 -0.3951  1.2998
  476MOL0     H62812  -2.078   3.404   2.342 -0.4071  0.4713 -0.6293
  476MOL0     H62813  -2.033   3.536   2.457 -1.8026 -0.4305 -0.8292
  476MOL0     H62814  -1.349   3.144   3.059 -0.6250  0.7840  1.3718
  476MOL0     H62815  -1.154   3.082   3.120  5.4767 -0.5538  0.2601
  476MOL0     H62816  -0.740   3.247   3.247 -1.0103 -0.0663 -1.4543
  476MOL0     H62817  -0.542   3.163   3.360 -2.6459 -2.3846  2.6435
  476MOL0     H62818   0.372   2.375   4.404 -0.5919 -0.4841  0.1370
  476MOL0     H62819   0.590   2.454   4.397  2.2651 -0.5131  1.3067
  476MOL0     H62820   0.925   2.919   4.763  0.2941  1.8075 -0.3553
  476MOL0     H62821   1.151   2.928   4.807 -1.0108  1.2084 -0.7633
  476MOL0     H62822   1.524   2.662   4.664 -0.9142  1.0851  0.2361
  476MOL0     H62823   1.379   2.591   4.595  1.1871  0.7350 -1.5455
  476MOL0     H62824   1.351   2.471   4.831  0.0545 -0.8953  1.9076
  476MOL0     H62825   1.520   2.443   4.779 -0.8762 -0.8374 -0.6560
  476MOL0     H62826   1.507   2.500   5.005  1.1511 -2.1768 -2.8460
  476MOL0     H62827   1.401   2.629   4.985 -1.7585 -2.1980 -1.0851
  476MOL0     H62828   1.575   2.771   4.868 -0.1196 -2.3208 -2.7257
  476MOL0     H62829   1.630   2.732   5.029 -0.7993  2.8520  0.6188
  476MOL0     H62830   1.917   2.573   4.772 -1.1025  0.9448 -1.8494
  476MOL0     H62831   1.188   2.560   4.570  2.5294  0.4725  0.9206
  476MOL0     H62832   0.968   2.557   4.519  0.3816 -2.0698  0.4376
  477MOL0     O62833   5.325   7.450   6.001  0.2616 -0.5081 -0.2474
  477MOL0     C62834   5.372   7.571   6.003  0.7539  0.0402 -0.5178
  477MOL0     O62835   5.305   7.685   5.963 -0.4649 -0.0298  0.0183
  477MOL0     C62836   5.168   7.667   5.945  0.5353 -0.0194 -0.4460
  477MOL0     C62837   5.086   7.684   6.054  0.6653  0.4439  0.1278
  477MOL0     C62838   4.949   7.687   6.037  0.1397  0.9793  0.0617
  477MOL0     C62839   4.893   7.676   5.913  0.2722  0.1865 -0.3125
  477MOL0     O62840   4.763   7.668   5.897 -0.4253 -0.1291 -0.7361
  477MOL0     C62841   4.699   7.716   5.776  0.3062 -0.0761 -0.3687
  477MOL0     C62842   4.552   7.684   5.786  0.5430  0.1684  0.8054
  477MOL0     C62843   4.488   7.722   5.647 -0.4872  0.2281 -0.3095
  477MOL0     C62844   4.454   7.870   5.627 -0.1670  0.0974  0.3359
  477MOL0     C62845   4.421   7.901   5.480 -0.1324  0.0385 -0.9174
  477MOL0     C62846   4.368   8.048   5.485 -0.4412 -0.4049  0.3260
  477MOL0     C62847   4.344   8.122   5.348  0.7365 -0.2122 -0.3485
  477MOL0     C62848   4.442   8.089   5.236  0.3931 -0.0476 -0.6936
  477MOL0     N62849   4.398   8.156   5.110 -0.8158  0.5123 -0.5931
  477MOL0     C62850   4.467   8.255   5.049  0.3705  0.1365  0.5993
  477MOL0     C62851   4.405   8.262   4.931 -0.5843  0.6315  0.8297
  477MOL0     C62852   4.462   8.349   4.819 -0.3740  0.2753  0.3095
  477MOL0     C62853   4.386   8.474   4.803  1.0633 -0.6954  0.4584
  477MOL0     C62854   4.460   8.567   4.704 -0.5296  0.7419 -0.1070
  477MOL0     C62855   4.590   8.619   4.751  0.0810 -0.2950 -0.8264
  477MOL0     O62856   4.579   8.765   4.779 -0.3245  0.1151 -0.0572
  477MOL0     C62857   4.685   8.818   4.847  0.2888 -0.0516 -0.1939
  477MOL0     C62858   4.768   8.919   4.786 -0.0846 -0.5933 -0.1723
  477MOL0     C62859   4.862   8.971   4.879  0.2587  0.5366  0.6176
  477MOL0     C62860   4.882   8.933   5.013  0.3861  0.7265  0.3321
  477MOL0     C62861   4.972   9.000   5.101 -0.0810 -0.6977  0.4384
  477MOL0     O62862   5.099   9.015   5.045  0.1570 -0.2835 -1.2551
  477MOL0     C62863   5.188   9.099   5.103 -0.6793  0.1243  0.5188
  477MOL0     C62864   5.322   9.067   5.097  0.2867  0.5764  0.1840
  477MOL0     C62865   5.419   9.157   5.151 -0.5615 -0.7238 -0.4531
  477MOL0     C62866   5.385   9.282   5.210 -0.4278  0.5320  0.6708
  477MOL0     O62867   5.477   9.360   5.281 -0.0310  0.1172  0.1151
  477MOL0     C62868   5.445   9.399   5.419 -0.8214 -0.0695 -0.3344
  477MOL0     C62869   5.465   9.555   5.433  0.4294  0.4697 -0.8790
  477MOL0     C62870   5.610   9.602   5.426  0.7163 -0.9946  0.2654
  477MOL0     C62871   5.639   9.746   5.508  0.0301 -0.1067 -0.1604
  477MOL0     C62872   5.753   9.832   5.455  0.0793  0.1391 -0.3457
  477MOL0     C62873   5.735   9.879   5.311 -0.3915  0.1469 -0.6955
  477MOL0     C62874   5.859   9.939   5.251  0.1039  0.1066 -0.3488
  477MOL0     C62875   5.840  10.003   5.115  0.5255 -1.7349 -0.3256
  477MOL0    Cl62876   5.985  10.081   5.044 -0.3566 -0.0476 -0.4329
  477MOL0     C62877   5.251   9.316   5.200 -0.6439 -0.8002  0.7933
  477MOL0     C62878   5.153   9.233   5.142 -0.1633 -0.2319 -0.1723
  477MOL0     O62879   4.938   9.034   5.213  0.6651  0.2549  0.6249
  477MOL0     C62880   4.799   8.828   5.059 -0.4113  0.1112  0.4086
  477MOL0     C62881   4.701   8.774   4.974  0.4913 -0.6103 -0.8874
  477MOL0     N62882   4.296   8.174   4.920 -0.0314 -0.9968  0.4765
  477MOL0     N62883   4.287   8.114   5.039 -0.7246 -0.5394  0.0328
  477MOL0     C62884   4.977   7.658   5.797 -0.3687  0.4215  0.1264
  477MOL0     C62885   5.112   7.660   5.816  0.5968  0.1492  0.4897
  477MOL0     C62886   5.514   7.591   6.039  0.1665  0.5118  0.1156
  477MOL0     C62887   5.573   7.713   6.087 -0.1128 -0.3165 -0.4109
  477MOL0     C62888   5.705   7.719   6.121 -0.5871 -0.2866 -0.6377
  477MOL0     C62889   5.791   7.613   6.114 -0.0619  0.0957 -0.5560
  477MOL0     O62890   5.915   7.618   6.181 -0.3221  0.5924  1.0899
  477MOL0     C62891   6.009   7.510   6.165 -0.4846  0.0835  0.1390
  477MOL0     C62892   6.134   7.540   6.248 -0.6288 -0.5430 -0.0353
  477MOL0     C62893   6.182   7.686   6.240 -0.4259 -0.4133  1.2065
  477MOL0     C62894   6.307   7.722   6.318 -0.0810 -0.4648 -0.1734
  477MOL0     C62895   6.280   7.789   6.447 -0.9186  0.3705 -0.0765
  477MOL0     C62896   6.254   7.858   6.542  0.3205  0.3572 -0.6400
  477MOL0     C62897   5.738   7.487   6.072 -0.9483  0.0057  0.1474
  477MOL0     C62898   5.603   7.477   6.046 -0.1768  0.3078  0.6838
  477MOL0     H62899   5.133   7.685   6.152  2.0765  0.9634 -0.5333
  477MOL0     H62900   4.885   7.712   6.121 -1.0091  0.0018 -0.4952
  477MOL0     H62901   4.735   7.657   5.690 -0.1468 -0.1783 -0.4889
  477MOL0     H62902   4.710   7.822   5.750 -1.6674  0.3467  0.3710
  477MOL0     H62903   4.493   7.734   5.863 -0.0495 -0.9549  1.0944
  477MOL0     H62904   4.543   7.576   5.798 -0.9100  0.0079 -1.2514
  477MOL0     H62905   4.396   7.664   5.632 -0.0990 -1.6307  3.4007
  477MOL0     H62906   4.559   7.697   5.568 -1.0178 -1.7338 -0.2177
  477MOL0     H62907   4.372   7.894   5.696 -2.1744 -0.1909 -1.8465
  477MOL0     H62908   4.542   7.928   5.659  0.9546 -1.1623 -0.3747
  477MOL0     H62909   4.342   7.828   5.463  0.5698 -1.5633  2.0015
  477MOL0     H62910   4.496   7.880   5.403 -0.8515  0.0174 -1.6158
  477MOL0     H62911   4.442   8.113   5.534  0.5580  0.7119 -2.4488
  477MOL0     H62912   4.271   8.037   5.533  0.4465 -2.0028  1.8534
  477MOL0     H62913   4.241   8.111   5.313  0.0221 -0.4222  1.6875
  477MOL0     H62914   4.347   8.229   5.374  1.6723 -0.8128  2.3539
  477MOL0     H62915   4.452   7.982   5.215 -2.9479 -0.4127 -0.9666
  477MOL0     H62916   4.543   8.119   5.264  1.7843 -3.3598 -1.5895
  477MOL0     H62917   4.556   8.309   5.081  0.2377  1.3462 -0.9456
  477MOL0     H62918   4.446   8.293   4.726  1.9450  1.5526 -0.9485
  477MOL0     H62919   4.570   8.364   4.821 -0.5717  1.8239  0.5289
  477MOL0     H62920   4.370   8.516   4.903  0.2884 -0.8018  0.3904
  477MOL0     H62921   4.283   8.453   4.772  0.8073  0.7298  0.2876
  477MOL0     H62922   4.494   8.503   4.622  0.5762  0.5418  0.4852
  477MOL0     H62923   4.399   8.655   4.680  0.5011  1.6862  0.6644
  477MOL0     H62924   4.663   8.611   4.670  2.7301 -2.1348  1.5646
  477MOL0     H62925   4.623   8.552   4.830  1.0233 -0.5027 -1.3857
  477MOL0     H62926   4.751   8.964   4.689  2.2838  1.2898  0.1877
  477MOL0     H62927   4.925   9.054   4.849  0.3356  1.4078  2.9655
  477MOL0     H62928   5.362   8.977   5.052 -0.2634  0.1354  0.5729
  477MOL0     H62929   5.523   9.133   5.169 -0.9959 -1.1964  1.6539
  477MOL0     H62930   5.512   9.341   5.483 -1.9144 -0.3159  0.6190
  477MOL0     H62931   5.339   9.384   5.442 -1.1742  1.4570 -0.8399
  477MOL0     H62932   5.433   9.595   5.530 -0.0833 -3.8387  0.9591
  477MOL0     H62933   5.411   9.608   5.354 -0.0759  1.6668  0.2287
  477MOL0     H62934   5.633   9.597   5.319 -0.0073 -1.6914  0.1332
  477MOL0     H62935   5.675   9.524   5.469 -0.1278 -2.2917 -0.7152
  477MOL0     H62936   5.549   9.809   5.500  0.3216  0.1110 -5.6120
  477MOL0     H62937   5.654   9.726   5.614  4.0964  0.8905 -0.3880
  477MOL0     H62938   5.840   9.771   5.480  1.1977  1.9514  0.3718
  477MOL0     H62939   5.761   9.920   5.520  0.1726  0.8864 -1.3435
  477MOL0     H62940   5.663   9.961   5.303  1.1171  1.5549 -0.5139
  477MOL0     H62941   5.705   9.793   5.250  1.0132 -0.9749  0.1425
  477MOL0     H62942   5.906  10.011   5.319 -0.8303  0.1186  0.2992
  477MOL0     H62943   5.945   9.874   5.233  0.5093  0.9925 -1.7311
  477MOL0     H62944   5.764  10.077   5.141  0.9824 -1.7939  1.3509
  477MOL0     H62945   5.791   9.940   5.040  0.2920  3.9436 -5.7167
  477MOL0     H62946   5.220   9.416   5.224 -0.4086 -0.2776 -0.9313
  477MOL0     H62947   5.050   9.268   5.138 -0.1272  0.2154  1.7751
  477MOL0     H62948   4.804   8.795   5.162 -1.4863 -1.0529  0.1139
  477MOL0     H62949   4.632   8.698   5.006  1.0440 -1.2485 -1.1845
  477MOL0     H62950   4.948   7.649   5.693  2.4701  0.5844 -0.7618
  477MOL0     H62951   5.176   7.637   5.732 -0.7904 -3.2172  0.1774
  477MOL0     H62952   5.509   7.801   6.088  0.7631  0.3337 -0.5986
  477MOL0     H62953   5.758   7.810   6.149 -1.4208  0.8340 -2.5229
  477MOL0     H62954   6.048   7.501   6.064 -0.9171  3.0360 -0.3865
  477MOL0     H62955   5.967   7.410   6.184  0.1618 -0.3069 -0.4769
  477MOL0     H62956   6.096   7.526   6.349  0.9634  1.8666  0.9623
  477MOL0     H62957   6.221   7.473   6.240  0.3037  0.6925 -0.4970
  477MOL0     H62958   6.097   7.750   6.264 -0.9526 -0.5135 -0.2695
  477MOL0     H62959   6.202   7.710   6.135 -3.2812 -0.1409  0.6456
  477MOL0     H62960   6.359   7.627   6.334 -0.7103 -1.0285 -1.3761
  477MOL0     H62961   6.378   7.792   6.274  1.4161 -1.3652  0.7107
  477MOL0     H62962   6.215   7.915   6.624 -0.6685  0.0630 -0.8811
  477MOL0     H62963   5.794   7.395   6.059 -1.2206 -0.6201  2.7141
  477MOL0     H62964   5.564   7.380   6.015  0.2478  0.1693  0.5675
  478MOL0     O62965   4.741   5.734   0.626  0.7821  0.0647  0.4439
  478MOL0     C62966   4.755   5.818   0.535  0.2731 -1.1665 -0.1237
  478MOL0     O62967   4.658   5.875   0.453  0.0740  0.4029  0.0663
  478MOL0     C62968   4.524   5.848   0.452 -0.0161 -0.2045  1.1709
  478MOL0     C62969   4.461   5.757   0.537  0.4446 -0.6279 -0.2088
  478MOL0     C62970   4.328   5.727   0.525 -0.1732 -0.2144  0.2223
  478MOL0     C62971   4.253   5.785   0.418 -0.0789 -0.5543  0.3184
  478MOL0     O62972   4.123   5.743   0.397 -0.2958 -0.5314  0.3685
  478MOL0     C62973   4.027   5.852   0.382 -0.0070  0.1267  0.5468
  478MOL0     C62974   3.887   5.795   0.369 -0.0189  0.4420  0.3404
  478MOL0     C62975   3.849   5.716   0.489 -0.6188 -0.6256 -0.7492
  478MOL0     C62976   3.696   5.680   0.477  0.3445 -1.0262 -0.2402
  478MOL0     C62977   3.639   5.618   0.593 -0.4873 -0.8637 -0.1480
  478MOL0     C62978   3.494   5.569   0.588 -1.3491  0.1625 -0.4466
  478MOL0     C62979   3.455   5.476   0.708  0.8174 -0.7652  0.9640
  478MOL0     C62980   3.443   5.536   0.848 -0.8380  0.2567 -0.0885
  478MOL0     N62981   3.369   5.655   0.844 -0.3796  0.5347 -0.5201
  478MOL0     C62982   3.224   5.657   0.835  0.0092  0.5410  0.2285
  478MOL0     C62983   3.194   5.784   0.821  0.3255 -0.2445 -0.7019
  478MOL0     C62984   3.061   5.855   0.838 -0.5934  0.0618 -0.2637
  478MOL0     C62985   2.959   5.791   0.754  1.1231 -0.0579  0.1373
  478MOL0     C62986   2.830   5.872   0.728  0.4321  0.0709 -0.4115
  478MOL0     C62987   2.761   5.922   0.857  0.3816  0.6554 -0.1325
  478MOL0     O62988   2.703   5.813   0.938  0.1343  0.7187  0.1369
  478MOL0     C62989   2.578   5.759   0.909  0.2937 -0.0323 -1.1162
  478MOL0     C62990   2.522   5.652   0.992 -0.6123  0.4718  0.4038
  478MOL0     C62991   2.395   5.598   0.961 -0.8108 -0.1690 -0.5617
  478MOL0     C62992   2.316   5.654   0.852 -0.9299  1.0077 -1.5476
  478MOL0     C62993   2.191   5.599   0.802  0.1651 -0.0121 -0.1134
  478MOL0     O62994   2.146   5.614   0.673  0.0666 -0.4967  0.2532
  478MOL0     C62995   2.029   5.558   0.628  0.4353 -0.1454 -0.1137
  478MOL0     C62996   1.911   5.538   0.699  0.2030  0.4267 -0.2917
  478MOL0     C62997   1.788   5.509   0.640  0.4198 -0.3172 -0.4836
  478MOL0     C62998   1.786   5.463   0.509 -0.0939 -0.0796  0.1369
  478MOL0     O62999   1.677   5.417   0.436  0.2919 -0.1886  0.3452
  478MOL0     C63000   1.546   5.412   0.499 -1.2143 -0.4025 -0.5043
  478MOL0     C63001   1.461   5.365   0.385  0.4521 -0.1815  0.0585
  478MOL0     C63002   1.316   5.369   0.419 -0.4789 -0.4646 -0.1310
  478MOL0     C63003   1.223   5.327   0.304  0.1352 -0.7641  0.3564
  478MOL0     C63004   1.072   5.345   0.311  0.4994  0.7061  0.7662
  478MOL0     C63005   1.007   5.279   0.430  0.6685 -0.1436  0.1354
  478MOL0     C63006   0.852   5.307   0.432 -0.1634  0.6794 -0.0054
  478MOL0     C63007   0.794   5.297   0.570  0.1534 -0.5459 -0.2131
  478MOL0    Cl63008   0.629   5.342   0.560 -0.1048 -0.1780  0.2689
  478MOL0     C63009   1.909   5.476   0.437 -0.2583 -0.0214  0.4924
  478MOL0     C63010   2.024   5.520   0.499  0.7883  0.4557  0.7957
  478MOL0     O63011   2.136   5.520   0.884 -0.5687  0.0900 -0.6142
  478MOL0     C63012   2.375   5.757   0.782  0.0051  0.2092 -0.7938
  478MOL0     C63013   2.496   5.805   0.802  0.8439 -0.2836 -0.7318
  478MOL0     N63014   3.309   5.856   0.815 -0.0972 -0.3098  0.2745
  478MOL0     N63015   3.413   5.780   0.837  0.1211 -0.3860  0.1272
  478MOL0     C63016   4.319   5.866   0.327  0.2259 -0.3180  1.1752
  478MOL0     C63017   4.451   5.894   0.342 -0.4527 -0.1542 -0.8519
  478MOL0     C63018   4.892   5.890   0.531 -0.8545  0.6283 -0.0730
  478MOL0     C63019   5.017   5.827   0.570 -0.0466 -0.5617  0.5684
  478MOL0     C63020   5.138   5.891   0.567 -0.8377  0.7050 -0.4495
  478MOL0     C63021   5.141   6.027   0.530  0.7149 -0.5067 -0.1071
  478MOL0     O63022   5.264   6.090   0.521 -0.4414 -0.5546 -0.0353
  478MOL0     C63023   5.375   6.058   0.609  0.0372 -0.1330  0.6054
  478MOL0     C63024   5.460   6.185   0.623  0.2856  0.3695  0.0265
  478MOL0     C63025   5.598   6.156   0.671 -0.1504 -0.2834 -0.3511
  478MOL0     C63026   5.704   6.274   0.666 -0.1663  0.6391 -0.0991
  478MOL0     C63027   5.735   6.327   0.527 -0.0660 -1.0362  0.3468
  478MOL0     C63028   5.757   6.391   0.428 -0.1225  0.3268  0.0187
  478MOL0     C63029   5.025   6.095   0.498 -0.3012 -0.3358  0.1759
  478MOL0     C63030   4.903   6.028   0.497  0.3430  0.0006  0.3461
  478MOL0     H63031   4.512   5.709   0.620 -0.0823  0.0662  0.5298
  478MOL0     H63032   4.282   5.653   0.589  0.8400 -0.8021  0.3046
  478MOL0     H63033   4.054   5.904   0.290 -2.7208  1.0782  0.1857
  478MOL0     H63034   4.025   5.918   0.469 -1.2660  1.8785 -0.7521
  478MOL0     H63035   3.860   5.753   0.271 -0.6473  1.0768  0.2384
  478MOL0     H63036   3.822   5.881   0.386  0.1336  0.2880  1.7840
  478MOL0     H63037   3.864   5.766   0.585  1.2283 -1.0075 -0.8110
  478MOL0     H63038   3.905   5.623   0.481 -0.3405 -0.3440 -2.3415
  478MOL0     H63039   3.630   5.765   0.458  1.2750 -0.1481  0.3323
  478MOL0     H63040   3.681   5.612   0.392  2.1592 -0.9109 -0.7044
  478MOL0     H63041   3.651   5.673   0.686 -1.5282  0.6973 -0.8924
  478MOL0     H63042   3.707   5.532   0.598 -0.0632 -0.6006 -1.0287
  478MOL0     H63043   3.483   5.507   0.499 -4.1062  0.3796 -0.3440
  478MOL0     H63044   3.426   5.653   0.570  0.8291  1.6219 -2.4978
  478MOL0     H63045   3.358   5.428   0.692  0.2281  0.8166 -0.5436
  478MOL0     H63046   3.522   5.390   0.705 -0.1456 -1.5367 -2.2275
  478MOL0     H63047   3.546   5.567   0.868 -1.4776  1.2171  2.0018
  478MOL0     H63048   3.400   5.463   0.917  0.0320  0.0413  0.2378
  478MOL0     H63049   3.146   5.585   0.857  0.9111 -0.9820 -1.3571
  478MOL0     H63050   3.071   5.957   0.799 -1.1912 -0.3971 -1.6936
  478MOL0     H63051   3.033   5.846   0.943 -1.0061  2.0442 -0.1653
  478MOL0     H63052   2.920   5.704   0.808 -1.0605 -0.3332 -1.7547
  478MOL0     H63053   2.981   5.757   0.653 -0.2211  4.2446 -1.8437
  478MOL0     H63054   2.861   5.950   0.658 -0.3593 -0.7546 -1.7283
  478MOL0     H63055   2.758   5.813   0.672 -1.8685  1.2530  1.1192
  478MOL0     H63056   2.695   6.006   0.833  0.8762  1.2287  0.4472
  478MOL0     H63057   2.844   5.961   0.917  0.5336 -2.5969  2.0247
  478MOL0     H63058   2.582   5.614   1.074 -0.2577  1.7827  0.7734
  478MOL0     H63059   2.353   5.515   1.017  3.4468 -1.8670  0.4971
  478MOL0     H63060   1.923   5.574   0.801 -1.1607 -1.6027  0.6564
  478MOL0     H63061   1.692   5.525   0.686 -0.3948 -1.6445 -1.6430
  478MOL0     H63062   1.504   5.507   0.531  0.2652  0.0744  0.1177
  478MOL0     H63063   1.548   5.342   0.584 -1.3313 -1.5108 -1.3826
  478MOL0     H63064   1.502   5.270   0.348  2.4606  0.0178  1.6673
  478MOL0     H63065   1.474   5.439   0.305 -0.7565  1.8606  1.6455
  478MOL0     H63066   1.293   5.470   0.453  0.7070  0.0483 -0.7914
  478MOL0     H63067   1.300   5.299   0.502 -1.1397 -1.5347 -1.1345
  478MOL0     H63068   1.249   5.379   0.211 -1.8327 -0.9509 -0.3447
  478MOL0     H63069   1.249   5.223   0.285 -1.5764 -1.7351  2.7244
  478MOL0     H63070   1.041   5.298   0.217  0.8791  0.0145  0.9818
  478MOL0     H63071   1.043   5.450   0.307  3.8631  1.7587  1.0827
  478MOL0     H63072   1.060   5.323   0.515  3.5413 -2.1826 -0.4668
  478MOL0     H63073   1.037   5.174   0.432  3.9645  0.6438 -1.7327
  478MOL0     H63074   0.822   5.405   0.393  1.0896  0.9133 -0.4376
  478MOL0     H63075   0.819   5.222   0.372  4.6782 -2.3297  1.0776
  478MOL0     H63076   0.846   5.366   0.637  1.2296  1.2892 -2.8110
  478MOL0     H63077   0.795   5.194   0.608  0.3397 -1.0514 -1.5410
  478MOL0     H63078   1.909   5.440   0.335 -1.4461 -0.0237  0.4822
  478MOL0     H63079   2.107   5.515   0.429  0.9532  1.0087  0.9539
  478MOL0     H63080   2.325   5.787   0.690  1.2648 -0.7435 -1.8176
  478MOL0     H63081   2.529   5.887   0.739  0.7616  1.9061  1.8997
  478MOL0     H63082   4.291   5.902   0.229 -2.8290 -0.1195  2.0444
  478MOL0     H63083   4.502   5.953   0.266  3.2442 -0.2308  1.3629
  478MOL0     H63084   5.015   5.721   0.595 -0.1974 -1.7569 -3.7421
  478MOL0     H63085   5.229   5.833   0.574 -1.5078 -0.1641  3.3776
  478MOL0     H63086   5.434   5.974   0.572 -1.3265 -0.0865 -1.9045
  478MOL0     H63087   5.336   6.028   0.706 -2.4183 -0.7334 -0.4928
  478MOL0     H63088   5.483   6.232   0.527  2.6310 -0.2284  0.2144
  478MOL0     H63089   5.407   6.255   0.688  1.7308  3.9334 -2.3378
  478MOL0     H63090   5.647   6.075   0.617  1.3913 -0.3131  1.0024
  478MOL0     H63091   5.589   6.118   0.774  0.1532 -2.6319 -1.1202
  478MOL0     H63092   5.677   6.346   0.743 -0.8931 -0.0295  0.2857
  478MOL0     H63093   5.797   6.227   0.701 -0.2752  1.9913  2.2433
  478MOL0     H63094   5.757   6.454   0.342  1.0065  2.0505  1.2281
  478MOL0     H63095   5.030   6.195   0.457 -2.5822 -1.5241 -3.4909
  478MOL0     H63096   4.811   6.085   0.485  0.2793  1.0536  4.4742
  479MOL0     O63097   5.597   6.587  10.586  0.4676 -0.0420  0.6255
  479MOL0     C63098   5.642   6.493  10.518  0.2511  0.2469 -0.1367
  479MOL0     O63099   5.564   6.414  10.443 -0.1497 -0.2038  0.4624
  479MOL0     C63100   5.426   6.419  10.456 -0.0263  0.0442  0.2416
  479MOL0     C63101   5.357   6.307  10.490  0.5943  0.3097 -1.1417
  479MOL0     C63102   5.214   6.313  10.489 -0.8718  0.6357  0.9192
  479MOL0     C63103   5.146   6.431  10.447  0.3490 -0.5617  0.4144
  479MOL0     O63104   5.018   6.411  10.436  0.7680 -0.0458  0.8610
  479MOL0     C63105   4.947   6.525  10.387  0.6229  0.3992 -0.1660
  479MOL0     C63106   4.795   6.491  10.391 -0.2027 -0.3332  0.1863
  479MOL0     C63107   4.712   6.575  10.304  0.2280 -0.2791  0.6342
  479MOL0     C63108   4.563   6.556  10.326 -0.4912  0.6767 -0.8717
  479MOL0     C63109   4.477   6.627  10.234  1.1820 -1.1412 -0.0005
  479MOL0     C63110   4.462   6.554  10.098  0.5876 -0.5361 -0.8260
  479MOL0     C63111   4.386   6.638   9.997  0.7814 -0.4808  0.0832
  479MOL0     C63112   4.236   6.628  10.016  0.2183 -0.1605  0.5130
  479MOL0     N63113   4.174   6.514   9.944 -0.7224 -0.1840 -0.2082
  479MOL0     C63114   4.168   6.390  10.003 -0.3044  0.4070  0.3610
  479MOL0     C63115   4.088   6.317   9.927  1.2031  0.0162  0.6477
  479MOL0     C63116   4.036   6.177   9.945 -0.0844  0.5736  0.5922
  479MOL0     C63117   3.901   6.130   9.885  0.0156  0.1789  0.1229
  479MOL0     C63118   3.787   6.178   9.978 -0.1214  0.0937 -0.1894
  479MOL0     C63119   3.652   6.145   9.926 -0.3202 -0.0479  0.9025
  479MOL0     O63120   3.609   6.235   9.828  0.2046 -0.1474 -0.4195
  479MOL0     C63121   3.508   6.192   9.750  0.3198 -0.0946 -0.2721
  479MOL0     C63122   3.525   6.094   9.657  0.1190  0.3505 -0.6237
  479MOL0     C63123   3.412   6.050   9.584 -0.0680 -1.0923  0.4900
  479MOL0     C63124   3.291   6.110   9.596  0.4552 -0.8623 -0.3149
  479MOL0     C63125   3.173   6.082   9.500  0.6945 -0.1762 -0.4942
  479MOL0     O63126   3.197   6.005   9.392 -0.3260 -0.1179  0.5803
  479MOL0     C63127   3.089   5.984   9.305 -1.1558  0.0250 -0.2008
  479MOL0     C63128   3.045   5.856   9.284  0.1685 -0.1067 -0.3110
  479MOL0     C63129   2.930   5.832   9.205 -1.2261 -0.6796 -0.1354
  479MOL0     C63130   2.857   5.936   9.145 -0.6237 -0.3662  0.0134
  479MOL0     O63131   2.751   5.896   9.069  0.2603 -0.8236 -0.3180
  479MOL0     C63132   2.655   6.003   9.012 -0.4773  0.3276  0.3293
  479MOL0     C63133   2.563   5.940   8.909  0.1823  0.7891 -0.0843
  479MOL0     C63134   2.490   5.815   8.961  0.5574  0.1569 -0.5097
  479MOL0     C63135   2.389   5.848   9.068  0.8987  0.0424 -0.7183
  479MOL0     C63136   2.266   5.748   9.107  0.4102  0.4208 -0.2717
  479MOL0     C63137   2.125   5.820   9.124  0.6797  0.6095 -0.4048
  479MOL0     C63138   2.070   5.907   9.004  0.7588  0.1788  1.1813
  479MOL0     C63139   2.019   5.836   8.877 -0.2402 -0.1150  0.2952
  479MOL0    Cl63140   2.174   5.808   8.776 -0.3556 -0.0268 -0.1101
  479MOL0     C63141   2.896   6.070   9.169  0.2781 -0.5912 -0.3623
  479MOL0     C63142   3.023   6.087   9.241  0.1038  0.3597 -0.3807
  479MOL0     O63143   3.069   6.127   9.533 -0.7560  0.1443  0.2132
  479MOL0     C63144   3.278   6.213   9.686  0.2131 -0.5634 -0.2444
  479MOL0     C63145   3.382   6.252   9.762 -1.1174 -0.1888 -0.8167
  479MOL0     N63146   4.029   6.403   9.832  0.1289  0.3025  0.5365
  479MOL0     N63147   4.085   6.519   9.841 -0.1594 -0.1060 -0.0951
  479MOL0     C63148   5.222   6.551  10.425  0.1102 -0.1236 -0.1063
  479MOL0     C63149   5.359   6.543  10.431 -0.1770 -0.1068  0.8067
  479MOL0     C63150   5.783   6.476  10.503 -1.0728  0.4053  0.4224
  479MOL0     C63151   5.843   6.390  10.399 -0.3423  0.2063 -0.4602
  479MOL0     C63152   5.983   6.389  10.383 -0.4338 -0.5030 -0.6751
  479MOL0     C63153   6.063   6.467  10.463 -0.2520 -0.3076 -0.0367
  479MOL0     O63154   6.199   6.462  10.429 -0.6329  0.2324  0.0047
  479MOL0     C63155   6.294   6.508  10.513 -0.7650 -0.5354 -0.7834
  479MOL0     C63156   6.434   6.462  10.471  0.2604 -0.3611  0.1075
  479MOL0     C63157   6.551   6.509  10.569  0.0624 -0.6240  0.3818
  479MOL0     C63158   6.575   6.664  10.581  0.1901  0.5265 -0.2194
  479MOL0     C63159   6.653   6.706  10.464  0.1496 -0.4926 -1.0104
  479MOL0     C63160   6.682   6.752  10.361  0.6691 -0.0917 -0.4403
  479MOL0     C63161   6.014   6.552  10.564  0.5583 -0.3550  0.3056
  479MOL0     C63162   5.871   6.553  10.584  0.6583 -0.0167  0.0985
  479MOL0     H63163   5.415   6.220  10.520  1.1464  1.0163 -0.1260
  479MOL0     H63164   5.158   6.223  10.511  0.0972 -0.0820  0.5279
  479MOL0     H63165   4.978   6.547  10.284  1.2646  0.6617  0.0770
  479MOL0     H63166   4.970   6.616  10.443  1.9868  0.5876 -0.9749
  479MOL0     H63167   4.754   6.516  10.489  0.1026  1.5405 -0.1297
  479MOL0     H63168   4.778   6.385  10.367  1.6429 -1.2443  2.5598
  479MOL0     H63169   4.743   6.549  10.202  0.5587 -1.9926  1.1343
  479MOL0     H63170   4.739   6.680  10.314  0.1164 -0.3403  1.6287
  479MOL0     H63171   4.563   6.448  10.308  0.1862  0.5063  0.0333
  479MOL0     H63172   4.545   6.591  10.428  0.3575  2.9153 -1.4228
  479MOL0     H63173   4.509   6.727  10.204 -2.4039 -0.1334 -1.0317
  479MOL0     H63174   4.385   6.639  10.292  2.1444  0.8269  1.2023
  479MOL0     H63175   4.413   6.458  10.118  0.7510  0.0871  3.3853
  479MOL0     H63176   4.560   6.526  10.057 -0.8720 -2.7236 -3.1307
  479MOL0     H63177   4.424   6.739  10.012  4.4920 -1.8913  1.5496
  479MOL0     H63178   4.417   6.607   9.896  2.5794  0.3342  0.3485
  479MOL0     H63179   4.183   6.716   9.978 -3.0139 -2.9900 -2.2445
  479MOL0     H63180   4.212   6.617  10.122  1.3264 -0.7300  0.7209
  479MOL0     H63181   4.225   6.362  10.091  2.7133  4.0283 -0.2082
  479MOL0     H63182   4.026   6.159  10.052 -3.1903 -1.1736  0.1357
  479MOL0     H63183   4.110   6.108   9.905 -0.1831  2.2680 -2.8932
  479MOL0     H63184   3.896   6.021   9.873 -0.7998  0.4316 -2.5264
  479MOL0     H63185   3.884   6.180   9.789 -2.1939  2.2487  1.4842
  479MOL0     H63186   3.785   6.116  10.069 -2.5506  0.6473  0.1838
  479MOL0     H63187   3.793   6.283  10.007  0.7423 -0.2451  0.9678
  479MOL0     H63188   3.587   6.126  10.011  0.0427 -3.7288  0.5101
  479MOL0     H63189   3.656   6.050   9.872 -0.4207 -0.3038  1.3483
  479MOL0     H63190   3.625   6.054   9.645 -0.2752 -0.4574 -1.3042
  479MOL0     H63191   3.438   5.976   9.509 -0.2428 -2.1606  1.4476
  479MOL0     H63192   3.085   5.775   9.344  0.3078  0.7224  0.7341
  479MOL0     H63193   2.887   5.733   9.195 -2.0345 -0.6339  2.1683
  479MOL0     H63194   2.702   6.092   8.969  0.5697  0.3366  1.4309
  479MOL0     H63195   2.593   6.048   9.091 -0.8989  1.9651 -0.8827
  479MOL0     H63196   2.628   5.914   8.824 -3.7608  1.8549 -3.8107
  479MOL0     H63197   2.493   6.014   8.870  0.4164  2.1156  1.8642
  479MOL0     H63198   2.553   5.728   8.983 -0.4832 -0.4814 -0.0162
  479MOL0     H63199   2.443   5.784   8.868 -0.3096 -2.7946  0.7836
  479MOL0     H63200   2.445   5.856   9.162 -1.8315 -1.9423  1.2515
  479MOL0     H63201   2.343   5.945   9.049  0.2390 -0.4561 -1.7643
  479MOL0     H63202   2.273   5.710   9.210 -2.6341 -0.5972 -0.3347
  479MOL0     H63203   2.251   5.666   9.036  0.0180 -1.6380  2.0502
  479MOL0     H63204   2.127   5.863   9.225  1.9270  0.5405 -0.3929
  479MOL0     H63205   2.042   5.751   9.143 -0.6178  1.8640 -1.2906
  479MOL0     H63206   1.981   5.959   9.040  0.1391 -0.6280  0.8516
  479MOL0     H63207   2.146   5.981   8.977  1.8692 -1.5587 -0.7926
  479MOL0     H63208   1.961   5.910   8.822  0.5053  0.0261 -0.3365
  479MOL0     H63209   1.961   5.745   8.890  0.9390 -0.6098  2.6453
  479MOL0     H63210   2.841   6.154   9.128 -0.2146  0.1584  1.7081
  479MOL0     H63211   3.067   6.185   9.255 -1.0608  0.8214  0.2026
  479MOL0     H63212   3.188   6.273   9.695  0.5417 -0.3775  2.9123
  479MOL0     H63213   3.376   6.331   9.837  3.7571 -0.7655  0.5325
  479MOL0     H63214   5.169   6.640  10.392 -0.2880 -0.0036  0.8451
  479MOL0     H63215   5.422   6.625  10.399 -0.1411  0.0475  1.2643
  479MOL0     H63216   5.778   6.335  10.331 -1.6853 -1.1949  1.8152
  479MOL0     H63217   6.044   6.341  10.307 -0.0902  1.5509 -1.7651
  479MOL0     H63218   6.287   6.463  10.613  1.5697 -2.4490 -1.3860
  479MOL0     H63219   6.278   6.616  10.520  1.2620 -0.1666 -1.2736
  479MOL0     H63220   6.437   6.352  10.467  1.9312 -0.3053 -2.2432
  479MOL0     H63221   6.460   6.483  10.367 -2.7758 -1.1072 -0.9056
  479MOL0     H63222   6.646   6.462  10.541  0.6163  0.8678 -0.3406
  479MOL0     H63223   6.523   6.466  10.666  1.5303 -4.5697 -0.7304
  479MOL0     H63224   6.484   6.724  10.591  0.7441  2.1446 -3.5537
  479MOL0     H63225   6.639   6.683  10.668 -1.1136 -0.1846  0.9416
  479MOL0     H63226   6.707   6.808  10.273 -0.4319 -2.3464 -2.2770
  479MOL0     H63227   6.079   6.626  10.609  0.6998  1.0151 -2.0155
  479MOL0     H63228   5.827   6.620  10.657  0.9253  2.9697 -2.2885
  480MOL0     O63229   3.556   3.915   5.518 -0.9910  0.0767 -0.3810
  480MOL0     C63230   3.618   3.824   5.562  0.1541  0.0491 -0.1438
  480MOL0     O63231   3.576   3.739   5.666 -0.3339  0.0964 -0.4642
  480MOL0     C63232   3.452   3.755   5.717  0.5224 -0.3936 -0.0712
  480MOL0     C63233   3.425   3.788   5.849  0.3041 -0.2394 -0.0834
  480MOL0     C63234   3.288   3.784   5.889 -0.0835 -0.4727 -0.3314
  480MOL0     C63235   3.182   3.761   5.790 -0.4535 -0.4582  0.0123
  480MOL0     O63236   3.054   3.761   5.844 -0.1731  0.3661 -0.4053
  480MOL0     C63237   2.959   3.663   5.785 -0.0245  0.6064 -0.3213
  480MOL0     C63238   2.817   3.714   5.826 -0.5336  0.4048  0.4903
  480MOL0     C63239   2.800   3.726   5.975  0.2372 -0.0064 -0.5481
  480MOL0     C63240   2.653   3.754   6.013 -1.1171  0.0027  0.0737
  480MOL0     C63241   2.556   3.642   5.967 -0.8293 -0.8612  0.1592
  480MOL0     C63242   2.405   3.650   6.018  0.0563  0.3411 -0.2802
  480MOL0     C63243   2.344   3.505   6.020  0.3162  0.0374 -0.0631
  480MOL0     C63244   2.196   3.500   6.084 -0.7632  0.6602 -0.2441
  480MOL0     N63245   2.099   3.562   6.004 -0.0618 -0.6557 -0.3538
  480MOL0     C63246   2.012   3.511   5.909 -0.0637  0.7325  0.3315
  480MOL0     C63247   1.930   3.613   5.881  0.3837 -0.2817 -0.5457
  480MOL0     C63248   1.818   3.614   5.783  0.8760 -0.5716  0.5603
  480MOL0     C63249   1.676   3.577   5.837 -0.0255 -0.0452  0.9780
  480MOL0     C63250   1.642   3.638   5.977  0.3029  0.5024 -0.3642
  480MOL0     C63251   1.490   3.649   5.993 -0.2016  0.5042 -0.4682
  480MOL0     O63252   1.456   3.746   5.900  0.2093 -0.1241 -0.4340
  480MOL0     C63253   1.341   3.816   5.909 -0.6968  0.5796 -0.3535
  480MOL0     C63254   1.237   3.777   5.994  0.4201 -0.0225  0.0930
  480MOL0     C63255   1.115   3.852   5.991 -0.4999 -0.0201  0.2871
  480MOL0     C63256   1.098   3.972   5.914  0.0075 -0.0508 -0.6441
  480MOL0     C63257   0.982   4.065   5.936  0.5998 -0.0957 -0.5167
  480MOL0     O63258   0.983   4.177   5.859  0.7526 -0.4785  0.1417
  480MOL0     C63259   0.895   4.281   5.900  0.2512  1.1273  0.1972
  480MOL0     C63260   0.890   4.338   6.028 -1.3159 -0.1070 -0.1604
  480MOL0     C63261   0.788   4.413   6.073 -0.8209  0.4392 -0.3939
  480MOL0     C63262   0.691   4.454   5.991 -0.0809  0.6199  0.9731
  480MOL0     O63263   0.618   4.548   6.046  0.1269 -0.8174 -0.2103
  480MOL0     C63264   0.558   4.633   5.948  0.8833 -0.0054  0.1670
  480MOL0     C63265   0.452   4.714   6.020 -0.7153 -0.8567 -0.5813
  480MOL0     C63266   0.411   4.846   5.943  0.5464  0.6997 -0.5710
  480MOL0     C63267   0.278   4.875   6.023 -0.4167 -0.0616  0.7374
  480MOL0     C63268   0.203   4.993   5.978 -0.0636 -0.1742  0.7689
  480MOL0     C63269   0.288   5.118   5.983 -0.0526 -0.0651 -0.1237
  480MOL0     C63270   0.194   5.230   5.998 -1.0773 -0.0336  0.0408
  480MOL0     C63271   0.261   5.359   5.947 -0.3275  0.0050 -0.2755
  480MOL0    Cl63272   0.168   5.501   5.984  0.4340  0.1806  0.2900
  480MOL0     C63273   0.688   4.405   5.858  0.2917 -0.4556 -0.1813
  480MOL0     C63274   0.787   4.326   5.816 -0.9734 -0.0968 -0.3869
  480MOL0     O63275   0.895   4.035   6.021  0.3907  0.8850 -0.6340
  480MOL0     C63276   1.211   4.013   5.836  0.3549  0.3243  0.3484
  480MOL0     C63277   1.326   3.930   5.825 -1.0238 -0.3405  0.0209
  480MOL0     N63278   1.972   3.723   5.954 -0.4846 -0.4295  0.9533
  480MOL0     N63279   2.071   3.699   6.025 -0.0891  0.0003  0.0232
  480MOL0     C63280   3.221   3.721   5.668 -0.4176  0.4314 -0.6314
  480MOL0     C63281   3.351   3.715   5.629  0.3182 -0.1436  0.8880
  480MOL0     C63282   3.752   3.802   5.512 -0.1867  0.7194  0.1196
  480MOL0     C63283   3.821   3.685   5.535  0.6618 -0.5137 -0.3987
  480MOL0     C63284   3.950   3.678   5.486 -0.6370  1.1623  0.6339
  480MOL0     C63285   4.019   3.777   5.413  0.5107 -1.2775 -0.7787
  480MOL0     O63286   4.144   3.771   5.348 -0.3930  0.3142  0.3057
  480MOL0     C63287   4.229   3.651   5.378  0.1313  0.8012  0.2676
  480MOL0     C63288   4.297   3.658   5.510 -0.0396  0.0351  0.1933
  480MOL0     C63289   4.389   3.531   5.534 -0.0896  0.1317 -0.3943
  480MOL0     C63290   4.417   3.511   5.680  0.4875 -0.4980  0.3209
  480MOL0     C63291   4.507   3.404   5.714 -0.1187 -0.9674 -0.8780
  480MOL0     C63292   4.572   3.303   5.740  0.5025  0.0878 -0.4477
  480MOL0     C63293   3.952   3.900   5.410 -0.3977  0.8769  0.9894
  480MOL0     C63294   3.826   3.908   5.457  0.4017  0.4896  0.3255
  480MOL0     H63295   3.496   3.818   5.926 -0.8372 -1.7655  1.6601
  480MOL0     H63296   3.260   3.808   5.991  0.6906 -1.5095  0.1426
  480MOL0     H63297   2.971   3.559   5.818 -2.2659  0.6744  0.9410
  480MOL0     H63298   2.968   3.669   5.676  0.7476  1.6600 -0.2176
  480MOL0     H63299   2.747   3.635   5.797  1.1369 -0.7769 -0.5046
  480MOL0     H63300   2.795   3.807   5.774 -1.0321  1.4545  2.4858
  480MOL0     H63301   2.873   3.803   6.003  0.7979  0.2259 -2.5256
  480MOL0     H63302   2.821   3.635   6.032 -1.6960  0.4254  0.9333
  480MOL0     H63303   2.659   3.758   6.122  4.4949 -0.6900  0.0843
  480MOL0     H63304   2.632   3.856   5.980  1.5158  0.8876  0.8583
  480MOL0     H63305   2.592   3.550   6.014 -0.6433  1.0292  4.1031
  480MOL0     H63306   2.546   3.650   5.858 -1.1082 -0.7197  0.1961
  480MOL0     H63307   2.347   3.702   5.941  0.6190 -0.3291 -1.1802
  480MOL0     H63308   2.404   3.713   6.107 -3.0157 -0.1209  0.1019
  480MOL0     H63309   2.349   3.457   5.922  2.0903  2.2198 -1.0999
  480MOL0     H63310   2.414   3.445   6.079  1.5489 -0.0771 -1.5807
  480MOL0     H63311   2.212   3.550   6.180  4.7532  2.2782 -1.6621
  480MOL0     H63312   2.175   3.393   6.086  2.5389 -0.2395 -3.1051
  480MOL0     H63313   2.005   3.411   5.868  1.6226 -0.3306  2.4436
  480MOL0     H63314   1.842   3.549   5.698 -1.4805  1.7513 -2.0718
  480MOL0     H63315   1.816   3.715   5.744  0.6186 -0.4265  0.9395
  480MOL0     H63316   1.676   3.467   5.833  2.0048 -0.2135  3.2845
  480MOL0     H63317   1.602   3.614   5.766 -0.9095 -0.7608  1.5106
  480MOL0     H63318   1.684   3.584   6.062 -1.5274  2.5118  1.9604
  480MOL0     H63319   1.673   3.743   5.986  0.1853  0.4637  0.5289
  480MOL0     H63320   1.458   3.671   6.095 -1.6884 -0.7793 -0.6144
  480MOL0     H63321   1.443   3.552   5.972 -1.0371  0.8484 -0.2051
  480MOL0     H63322   1.252   3.691   6.059  0.5439  0.5118  0.7806
  480MOL0     H63323   1.022   3.819   6.036  1.0936 -3.5208  1.3397
  480MOL0     H63324   0.969   4.305   6.095 -1.7174 -0.9720 -0.0968
  480MOL0     H63325   0.791   4.453   6.174 -1.8455 -0.2259 -0.0864
  480MOL0     H63326   0.507   4.569   5.876  1.0852 -1.6308  1.3935
  480MOL0     H63327   0.626   4.699   5.895 -0.5153  0.8963 -0.5525
  480MOL0     H63328   0.487   4.740   6.120 -0.2795 -0.7255 -0.7603
  480MOL0     H63329   0.377   4.639   6.045  2.3327 -3.7184  0.8257
  480MOL0     H63330   0.385   4.826   5.839  2.6548 -2.6062 -0.6219
  480MOL0     H63331   0.486   4.926   5.950 -0.4771  1.6724 -0.3656
  480MOL0     H63332   0.217   4.784   6.021  0.1371 -0.4315 -1.2263
  480MOL0     H63333   0.310   4.881   6.128  1.7216 -0.5866  0.1602
  480MOL0     H63334   0.120   5.004   6.049 -1.1134 -3.5562  0.2065
  480MOL0     H63335   0.158   4.981   5.880  1.6830 -0.5595 -0.0302
  480MOL0     H63336   0.345   5.133   5.890 -0.4253  0.9599 -0.1917
  480MOL0     H63337   0.347   5.130   6.074 -1.2089  2.2715  0.3884
  480MOL0     H63338   0.100   5.218   5.943 -1.1963  0.5041  0.1266
  480MOL0     H63339   0.157   5.234   6.101 -0.9535 -4.8037  0.4932
  480MOL0     H63340   0.269   5.348   5.838  0.3144 -4.1359  0.0153
  480MOL0     H63341   0.356   5.377   5.998  0.6640 -1.6368 -1.4418
  480MOL0     H63342   0.602   4.420   5.795 -0.5381 -1.0623  0.7745
  480MOL0     H63343   0.773   4.290   5.714  2.5506  1.3352 -1.5243
  480MOL0     H63344   1.218   4.116   5.802 -0.1189  1.2041  2.7608
  480MOL0     H63345   1.398   3.949   5.746 -2.5622 -0.8735 -1.5752
  480MOL0     H63346   3.157   3.680   5.590 -0.0514  0.1640 -0.7920
  480MOL0     H63347   3.370   3.682   5.527  0.4237  2.7012 -0.1097
  480MOL0     H63348   3.783   3.604   5.597 -1.8804  1.5407  0.9576
  480MOL0     H63349   4.002   3.583   5.501 -0.7480  0.9297 -0.4060
  480MOL0     H63350   4.312   3.651   5.308  0.9228  1.4212  1.1868
  480MOL0     H63351   4.164   3.564   5.362 -0.0755  0.7170  1.4782
  480MOL0     H63352   4.345   3.755   5.524 -2.8328  1.2448  2.2127
  480MOL0     H63353   4.223   3.660   5.590  0.7625 -0.5264  0.9729
  480MOL0     H63354   4.487   3.542   5.487  0.3015  2.5742  0.7929
  480MOL0     H63355   4.343   3.445   5.484 -0.7516  1.1044 -1.5276
  480MOL0     H63356   4.450   3.607   5.722 -0.3052 -0.8039  1.7084
  480MOL0     H63357   4.324   3.492   5.734  0.1465  2.6538  1.0133
  480MOL0     H63358   4.625   3.211   5.756  0.5777  0.3135  0.6695
  480MOL0     H63359   3.990   3.984   5.353  0.9188  1.8372  3.1530
  480MOL0     H63360   3.770   3.998   5.435 -2.3099 -1.8951 -3.8713
  481MOL0     O63361   8.974   5.932   6.264 -0.2163  0.3229 -0.8279
  481MOL0     C63362   9.033   6.025   6.210 -0.4498 -0.4080 -0.0181
  481MOL0     O63363   9.048   6.035   6.076 -0.7794 -0.0405  0.8069
  481MOL0     C63364   8.992   5.925   6.010 -0.9784 -0.3734 -0.8792
  481MOL0     C63365   9.071   5.830   5.957 -0.2746 -0.3894 -0.6771
  481MOL0     C63366   9.014   5.723   5.887  0.1899 -0.0284 -0.5378
  481MOL0     C63367   8.876   5.719   5.860  0.4212 -0.3536  0.6009
  481MOL0     O63368   8.834   5.606   5.793  0.1483 -0.0802 -0.7249
  481MOL0     C63369   8.729   5.529   5.845  0.4445  1.0242 -0.4718
  481MOL0     C63370   8.774   5.380   5.843 -0.4229 -0.1960 -0.6539
  481MOL0     C63371   8.839   5.342   5.710  0.2868  0.1869 -0.2639
  481MOL0     C63372   8.722   5.325   5.607 -0.5895  0.0073 -0.2344
  481MOL0     C63373   8.745   5.248   5.481  0.0530  0.0570 -0.1677
  481MOL0     C63374   8.864   5.281   5.392  0.8182 -0.1060 -0.1325
  481MOL0     C63375   8.866   5.216   5.246  0.0005 -0.7502 -0.0586
  481MOL0     C63376   8.996   5.259   5.186 -0.7016 -0.0808  0.0106
  481MOL0     N63377   8.989   5.388   5.123  0.0500 -1.2431 -0.1632
  481MOL0     C63378   9.054   5.504   5.181 -1.0986  0.3797 -0.0957
  481MOL0     C63379   9.040   5.594   5.077  0.1323 -0.6109  0.4333
  481MOL0     C63380   9.089   5.737   5.087  0.4577 -0.2777  0.2855
  481MOL0     C63381   8.973   5.839   5.093 -0.6013  0.3382 -0.3210
  481MOL0     C63382   8.913   5.856   4.955 -0.5427  0.0398  0.6430
  481MOL0     C63383   8.777   5.937   4.965 -0.2782 -0.2006  0.0315
  481MOL0     O63384   8.669   5.839   4.990  0.1290  0.1670  0.5045
  481MOL0     C63385   8.543   5.876   4.970  0.2063  0.1454  0.3397
  481MOL0     C63386   8.444   5.778   4.985  0.0573 -0.6260 -0.9282
  481MOL0     C63387   8.311   5.814   4.972  0.3367  1.2316  0.5837
  481MOL0     C63388   8.268   5.942   4.934 -0.3415 -0.9000 -0.1709
  481MOL0     C63389   8.124   5.974   4.921  0.0299  0.2574  0.7139
  481MOL0     O63390   8.078   6.096   4.962 -0.0765 -0.0803 -0.4380
  481MOL0     C63391   7.945   6.106   4.991  0.0301  0.0932 -0.0092
  481MOL0     C63392   7.874   6.189   4.913  1.1015 -0.7046 -0.1934
  481MOL0     C63393   7.733   6.212   4.926  0.2241 -0.2210  0.6640
  481MOL0     C63394   7.671   6.136   5.023 -0.4965 -0.1657 -0.1880
  481MOL0     O63395   7.533   6.135   5.047  0.1952  0.7702  0.5020
  481MOL0     C63396   7.448   6.213   4.957  0.4279  0.1073  0.3942
  481MOL0     C63397   7.300   6.213   5.001 -0.0106 -0.8715 -0.0295
  481MOL0     C63398   7.223   6.093   4.942 -0.1474 -0.2557 -0.5355
  481MOL0     C63399   7.262   5.952   4.983 -0.5697 -0.2700  0.0006
  481MOL0     C63400   7.284   5.918   5.125  0.4458  0.4435  0.3122
  481MOL0     C63401   7.155   5.927   5.198 -0.4153 -0.0222 -0.3352
  481MOL0     C63402   7.182   5.880   5.342 -0.7788  0.8498  0.2412
  481MOL0     C63403   7.063   5.915   5.421 -0.3263 -0.1369  0.5293
  481MOL0    Cl63404   7.025   6.089   5.398 -0.6832  0.0121  0.3969
  481MOL0     C63405   7.740   6.060   5.118 -0.2118 -0.2298 -0.4668
  481MOL0     C63406   7.876   6.043   5.098 -0.5200  0.9148 -0.1200
  481MOL0     O63407   8.055   5.880   4.881 -0.6842 -1.6269 -0.4917
  481MOL0     C63408   8.370   6.043   4.932  0.5903  1.1022 -0.0613
  481MOL0     C63409   8.503   6.010   4.954  0.0368  0.4321 -0.4368
  481MOL0     N63410   8.963   5.534   4.977 -0.0241 -0.0718  0.2156
  481MOL0     N63411   8.929   5.419   5.008 -0.3739 -0.2903 -0.3600
  481MOL0     C63412   8.792   5.813   5.913 -0.2181 -0.6209 -0.0563
  481MOL0     C63413   8.852   5.924   5.987  0.0470 -0.4093  1.3272
  481MOL0     C63414   9.088   6.138   6.285 -0.7345 -0.0859  1.2480
  481MOL0     C63415   9.128   6.260   6.223 -0.5542  1.4848 -0.1471
  481MOL0     C63416   9.159   6.366   6.305 -0.0555  0.1015 -0.4750
  481MOL0     C63417   9.144   6.353   6.450  0.2605 -0.4688  0.8820
  481MOL0     O63418   9.165   6.463   6.533  0.5170 -0.5518  0.2007
  481MOL0     C63419   9.223   6.583   6.482 -0.0693 -0.4584  0.1914
  481MOL0     C63420   9.237   6.673   6.605 -0.0408  0.1033  0.8748
  481MOL0     C63421   9.109   6.687   6.691  0.4418  0.3694 -0.5660
  481MOL0     C63422   9.110   6.810   6.779  0.2868  0.0764 -0.0978
  481MOL0     C63423   9.180   6.776   6.904 -0.1028  0.1628  0.3119
  481MOL0     C63424   9.236   6.745   7.004  0.3455 -0.2124 -0.0783
  481MOL0     C63425   9.097   6.236   6.505 -0.2129 -0.3973  0.5779
  481MOL0     C63426   9.075   6.131   6.417 -0.4427  0.1973  0.5456
  481MOL0     H63427   9.175   5.830   5.988 -0.7231 -0.5925  0.9331
  481MOL0     H63428   9.072   5.639   5.851 -2.7142 -1.3460 -2.5667
  481MOL0     H63429   8.649   5.538   5.770 -2.8839  0.0487  2.7064
  481MOL0     H63430   8.697   5.560   5.945 -2.5574  1.6122 -1.4976
  481MOL0     H63431   8.688   5.323   5.880  0.0126 -0.1974  0.4175
  481MOL0     H63432   8.851   5.369   5.920 -0.0443 -0.4456 -1.0655
  481MOL0     H63433   8.896   5.250   5.723  0.0627  0.1452  0.4598
  481MOL0     H63434   8.921   5.409   5.685  1.8072  0.6264  4.7510
  481MOL0     H63435   8.639   5.275   5.658  0.4986 -0.7022  0.8798
  481MOL0     H63436   8.694   5.430   5.592  0.5904  0.3884  0.1363
  481MOL0     H63437   8.658   5.250   5.415  0.9436  2.9235 -1.3809
  481MOL0     H63438   8.748   5.144   5.516  0.4797 -0.3928 -1.5051
  481MOL0     H63439   8.957   5.262   5.447 -0.0474 -1.8955  0.7877
  481MOL0     H63440   8.849   5.389   5.388 -3.7740 -0.5278  0.6507
  481MOL0     H63441   8.863   5.107   5.244  1.9756 -0.8673 -3.1071
  481MOL0     H63442   8.781   5.259   5.192  0.9275  4.3634  1.8904
  481MOL0     H63443   9.027   5.189   5.109  0.7254  0.2382  0.2662
  481MOL0     H63444   9.071   5.252   5.266  0.9522 -0.7573 -1.5201
  481MOL0     H63445   9.103   5.515   5.277 -0.2142  1.0754 -0.6075
  481MOL0     H63446   9.163   5.770   5.013  3.3600  0.2208  3.1776
  481MOL0     H63447   9.138   5.735   5.185  0.0811  0.2341  0.4904
  481MOL0     H63448   9.012   5.936   5.126  1.0329 -0.4948  0.2997
  481MOL0     H63449   8.891   5.810   5.159  1.1630 -0.1870  1.7314
  481MOL0     H63450   8.989   5.902   4.892  2.8786 -2.0097  2.9564
  481MOL0     H63451   8.896   5.759   4.908 -1.8518  1.3889 -1.8601
  481MOL0     H63452   8.758   5.987   4.869  2.4813  0.2840 -0.3520
  481MOL0     H63453   8.782   6.011   5.045 -2.4413  0.5108 -0.4259
  481MOL0     H63454   8.470   5.673   4.998 -0.7172 -0.5594  1.6089
  481MOL0     H63455   8.238   5.734   4.980  2.5010 -1.4760 -3.3744
  481MOL0     H63456   7.919   6.246   4.832 -1.1729  0.5369 -0.7010
  481MOL0     H63457   7.671   6.269   4.858  1.0471 -2.5701 -2.2478
  481MOL0     H63458   7.449   6.185   4.851 -1.4353 -0.9952  0.6298
  481MOL0     H63459   7.482   6.317   4.969  0.2314  0.2807 -0.4574
  481MOL0     H63460   7.247   6.305   4.975 -3.5572 -3.3052 -2.3208
  481MOL0     H63461   7.291   6.213   5.110 -3.0696  1.7802 -0.1282
  481MOL0     H63462   7.229   6.096   4.833  1.0048  1.8602 -0.4592
  481MOL0     H63463   7.119   6.107   4.973  0.0202 -0.3960  0.1187
  481MOL0     H63464   7.183   5.888   4.943 -1.1852  0.2160  0.4219
  481MOL0     H63465   7.349   5.933   4.919 -1.5622  0.9392 -1.7909
  481MOL0     H63466   7.363   5.976   5.175 -0.6348  0.0348  2.6330
  481MOL0     H63467   7.314   5.814   5.113 -2.5305 -0.1670 -5.2387
  481MOL0     H63468   7.083   5.856   5.156  0.4593 -1.5244  0.6044
  481MOL0     H63469   7.130   6.031   5.175  3.0667  1.3975  1.4907
  481MOL0     H63470   7.198   5.772   5.353 -0.0334  1.0228  0.8694
  481MOL0     H63471   7.262   5.940   5.385 -0.9489 -0.1132  1.9864
  481MOL0     H63472   7.084   5.899   5.527  2.4031 -4.5620 -0.3992
  481MOL0     H63473   6.981   5.847   5.395  0.8577 -1.8007  0.9717
  481MOL0     H63474   7.685   6.029   5.207 -1.5777  3.0919  0.0032
  481MOL0     H63475   7.938   5.971   5.151  0.5935  0.3521 -2.0832
  481MOL0     H63476   8.343   6.147   4.920  0.4814  1.2924  1.5149
  481MOL0     H63477   8.571   6.094   4.959 -0.6828  0.9866  0.2444
  481MOL0     H63478   8.685   5.817   5.895 -0.0632  1.2637 -0.8678
  481MOL0     H63479   8.784   6.004   6.017 -1.8852 -1.4238 -0.0929
  481MOL0     H63480   9.121   6.269   6.115 -2.0281  1.6814 -0.0554
  481MOL0     H63481   9.196   6.460   6.265  1.9350  0.1701  1.3402
  481MOL0     H63482   9.158   6.630   6.408 -1.5549 -0.1857  1.6156
  481MOL0     H63483   9.318   6.566   6.431  0.8068  0.6080  1.4392
  481MOL0     H63484   9.331   6.643   6.653  0.6187  0.4131 -0.1740
  481MOL0     H63485   9.253   6.774   6.564  1.9190 -0.8126 -0.8311
  481MOL0     H63486   9.084   6.600   6.753  2.4911  0.0460 -0.1242
  481MOL0     H63487   9.033   6.705   6.615  0.7186  1.7441 -0.5443
  481MOL0     H63488   9.158   6.888   6.719  0.7365  0.1755  0.3884
  481MOL0     H63489   9.007   6.842   6.796  0.4608 -0.7761  3.0715
  481MOL0     H63490   9.294   6.720   7.090 -0.4256 -1.0639  0.2051
  481MOL0     H63491   9.078   6.222   6.611 -1.4930 -3.5850  0.0244
  481MOL0     H63492   9.040   6.042   6.468  0.1969 -0.6961 -0.5071
  482MOL0     O63493   9.653   7.230   8.919 -0.0744  0.7836 -0.2063
  482MOL0     C63494   9.741   7.281   8.985 -0.2113 -0.1541 -0.9059
  482MOL0     O63495   9.729   7.389   9.077 -0.0592  0.1668  0.7661
  482MOL0     C63496   9.610   7.453   9.067  0.3303 -1.1373  0.0249
  482MOL0     C63497   9.520   7.432   9.172  0.3977 -0.1003  0.5929
  482MOL0     C63498   9.413   7.512   9.177  0.6314  1.6860 -1.1299
  482MOL0     C63499   9.385   7.605   9.084  0.2537  0.4099  0.5131
  482MOL0     O63500   9.274   7.681   9.111 -0.8809 -0.5144  0.6658
  482MOL0     C63501   9.282   7.825   9.101 -0.5618  0.3678 -0.2843
  482MOL0     C63502   9.228   7.876   8.973  1.2485 -0.0035 -0.1966
  482MOL0     C63503   9.085   7.834   8.940 -0.1543  0.1382  0.1660
  482MOL0     C63504   8.988   7.872   9.046  1.0358  0.3904 -0.7001
  482MOL0     C63505   8.843   7.842   9.018 -0.3018  0.2834 -0.7019
  482MOL0     C63506   8.753   7.926   9.102 -0.1189 -0.1134 -0.7350
  482MOL0     C63507   8.608   7.872   9.108  0.3288 -0.7718  0.3983
  482MOL0     C63508   8.520   7.893   8.985 -0.2411 -0.5080  0.3035
  482MOL0     N63509   8.384   7.850   9.000 -0.0076 -0.4607  0.0420
  482MOL0     C63510   8.277   7.931   9.029 -0.0413 -0.2481  0.6108
  482MOL0     C63511   8.162   7.859   9.000 -0.4178 -0.4747  0.0115
  482MOL0     C63512   8.022   7.926   9.001  1.3197 -0.4398  0.3330
  482MOL0     C63513   7.907   7.826   9.032  0.1132 -0.0232  0.1940
  482MOL0     C63514   7.919   7.757   9.172  0.3760  0.7853  0.3424
  482MOL0     C63515   7.809   7.654   9.207  0.1411  0.0983  0.0775
  482MOL0     O63516   7.709   7.732   9.276  0.6951  0.5707 -0.1872
  482MOL0     C63517   7.573   7.722   9.241  0.1577  0.1444  0.5868
  482MOL0     C63518   7.502   7.838   9.266  0.2617  0.4212 -0.5863
  482MOL0     C63519   7.369   7.835   9.239  0.1072 -0.7725 -1.4320
  482MOL0     C63520   7.311   7.728   9.167 -0.7817 -1.3910 -0.2714
  482MOL0     C63521   7.165   7.733   9.134 -0.3356 -0.8943 -0.6948
  482MOL0     O63522   7.095   7.841   9.180 -0.4772  0.3685  0.1500
  482MOL0     C63523   6.960   7.828   9.171  0.2898  0.1876 -0.1625
  482MOL0     C63524   6.898   7.837   9.042 -0.3078 -0.5234  0.2003
  482MOL0     C63525   6.758   7.850   9.036  0.3333  0.0818  0.6652
  482MOL0     C63526   6.678   7.833   9.148  0.2221 -0.0603 -0.5804
  482MOL0     O63527   6.537   7.827   9.126 -0.2418 -0.3399 -0.1965
  482MOL0     C63528   6.473   7.904   9.228 -0.9968  0.6530  0.9882
  482MOL0     C63529   6.328   7.926   9.177 -0.3243 -0.2525 -0.3095
  482MOL0     C63530   6.244   8.001   9.271  0.5699  0.0610 -0.0029
  482MOL0     C63531   6.097   8.008   9.212 -0.3084 -0.1691 -0.2500
  482MOL0     C63532   6.004   8.066   9.313  0.9381 -0.6694 -0.8471
  482MOL0     C63533   5.864   8.054   9.245 -0.2950  0.4987  0.3286
  482MOL0     C63534   5.763   8.141   9.321  0.7145 -0.3728 -0.6406
  482MOL0     C63535   5.619   8.110   9.285 -0.1046  0.1009 -0.1640
  482MOL0    Cl63536   5.524   8.213   9.400 -0.1145  0.2450 -0.1646
  482MOL0     C63537   6.743   7.816   9.272  0.0349  1.0292 -0.7973
  482MOL0     C63538   6.879   7.813   9.283  0.1399 -0.2002 -0.1916
  482MOL0     O63539   7.119   7.638   9.074  0.2279  0.0990  0.6865
  482MOL0     C63540   7.383   7.612   9.145  0.2574  0.0485  0.1157
  482MOL0     C63541   7.517   7.603   9.197  0.1820  0.2738  0.0744
  482MOL0     N63542   8.210   7.739   8.940 -0.6327 -0.0275 -0.2399
  482MOL0     N63543   8.342   7.736   8.943  0.4236 -0.7981  0.2966
  482MOL0     C63544   9.467   7.629   8.971  0.3794 -0.2972 -0.8757
  482MOL0     C63545   9.585   7.554   8.970 -0.4583 -0.0095 -0.2085
  482MOL0     C63546   9.870   7.213   8.992 -0.3900  0.4136  0.1262
  482MOL0     C63547   9.977   7.248   9.078 -0.3446  0.0366 -0.3583
  482MOL0     C63548  10.101   7.183   9.071  0.2208  0.2495 -0.4866
  482MOL0     C63549  10.129   7.072   8.986  0.3617  1.5259  0.2109
  482MOL0     O63550  10.247   7.009   8.986 -0.3270  0.3830  0.9348
  482MOL0     C63551  10.360   7.052   9.070 -0.4213 -0.1457 -0.8216
  482MOL0     C63552  10.479   6.957   9.062  0.0208 -0.1035  0.4818
  482MOL0     C63553  10.608   7.010   9.137  0.0232  0.0103 -0.1395
  482MOL0     C63554  10.736   6.911   9.122  1.1449 -0.4774  0.5680
  482MOL0     C63555  10.847   6.965   9.197 -0.0466 -0.5678  0.7582
  482MOL0     C63556  10.955   6.989   9.253  0.1916 -0.5216  0.2599
  482MOL0     C63557  10.024   7.034   8.902  0.1051  0.4222 -0.3755
  482MOL0     C63558   9.903   7.104   8.908  0.0575 -0.2250  0.7148
  482MOL0     H63559   9.548   7.357   9.245  0.2053 -1.2886 -0.5196
  482MOL0     H63560   9.345   7.493   9.259  1.4183  0.7559 -0.6732
  482MOL0     H63561   9.381   7.870   9.115 -1.7065  2.2289  2.6093
  482MOL0     H63562   9.226   7.857   9.189  3.1869 -1.3083  3.0077
  482MOL0     H63563   9.296   7.847   8.892  3.6096 -0.6693  1.9040
  482MOL0     H63564   9.230   7.985   8.980 -4.1460  0.5838 -2.5087
  482MOL0     H63565   9.067   7.727   8.936 -2.1836  0.3506  1.7183
  482MOL0     H63566   9.060   7.878   8.843 -2.3286  1.1401  1.0914
  482MOL0     H63567   9.017   7.822   9.139  2.8280  0.3718 -1.2379
  482MOL0     H63568   8.994   7.980   9.062 -3.6093  0.3904  3.6321
  482MOL0     H63569   8.823   7.737   9.042  2.4495 -0.0739  0.3101
  482MOL0     H63570   8.831   7.861   8.911  1.1250 -0.1983 -0.9657
  482MOL0     H63571   8.754   8.034   9.083 -1.3543 -0.0675 -0.5971
  482MOL0     H63572   8.787   7.918   9.205  0.4045  1.5511 -0.7455
  482MOL0     H63573   8.608   7.768   9.143  4.0046 -0.7948  0.8031
  482MOL0     H63574   8.562   7.939   9.182  1.0667  1.3594 -0.9782
  482MOL0     H63575   8.568   7.849   8.897  2.4505  0.1050  1.3804
  482MOL0     H63576   8.514   8.002   8.973 -0.3821 -0.6412 -0.9047
  482MOL0     H63577   8.295   8.037   9.047 -0.3666  0.7931 -3.9203
  482MOL0     H63578   8.013   7.977   8.904 -2.6636  0.4385  0.9989
  482MOL0     H63579   8.030   8.009   9.071  0.6410 -0.0430 -0.0523
  482MOL0     H63580   7.916   7.750   8.954  2.8055  0.3780  0.0168
  482MOL0     H63581   7.804   7.863   9.027 -1.1452 -3.1018  1.0731
  482MOL0     H63582   8.016   7.707   9.181 -0.9699 -1.6667  2.7760
  482MOL0     H63583   7.927   7.820   9.261  2.1893 -1.3366  1.7778
  482MOL0     H63584   7.847   7.596   9.291  0.1296  0.3727  0.2736
  482MOL0     H63585   7.774   7.592   9.123 -0.9977 -0.6298  1.0586
  482MOL0     H63586   7.557   7.929   9.287  2.9015 -0.9780 -0.9346
  482MOL0     H63587   7.310   7.926   9.244  1.8388  0.3970 -1.6376
  482MOL0     H63588   6.956   7.849   8.951 -0.7864  0.1685 -0.0226
  482MOL0     H63589   6.721   7.867   8.935  1.4351  0.4942  0.3226
  482MOL0     H63590   6.518   8.003   9.240  1.7262 -0.0602 -2.0212
  482MOL0     H63591   6.459   7.853   9.324  0.2644 -0.7307  0.4834
  482MOL0     H63592   6.278   7.832   9.153 -4.1401  1.2104  1.1210
  482MOL0     H63593   6.326   7.994   9.092  0.3569  0.3841  0.1727
  482MOL0     H63594   6.296   8.097   9.284  1.1083 -0.0561 -1.0963
  482MOL0     H63595   6.248   7.931   9.355  2.8306 -1.3823 -1.1883
  482MOL0     H63596   6.095   8.081   9.131 -1.7223 -0.5924 -0.6271
  482MOL0     H63597   6.066   7.912   9.170  1.2228 -0.8271  0.0361
  482MOL0     H63598   6.024   8.171   9.334 -3.3081  0.2615 -0.5577
  482MOL0     H63599   6.006   8.008   9.406 -2.8511  0.8730  0.3765
  482MOL0     H63600   5.836   7.948   9.238  0.8230  0.2524 -0.8584
  482MOL0     H63601   5.872   8.088   9.142  3.6333 -2.0995 -0.4752
  482MOL0     H63602   5.773   8.117   9.427 -0.4389 -0.1323 -0.4680
  482MOL0     H63603   5.783   8.248   9.306  2.9193 -0.4845  0.9508
  482MOL0     H63604   5.584   8.006   9.291 -2.8139  0.9679  0.5440
  482MOL0     H63605   5.592   8.144   9.185  1.3259  0.4776 -0.4419
  482MOL0     H63606   6.685   7.787   9.360 -0.3874 -0.0420 -1.4116
  482MOL0     H63607   6.915   7.788   9.382 -2.9673  1.5104  1.5104
  482MOL0     H63608   7.332   7.539   9.082  2.8870 -1.1474 -0.7471
  482MOL0     H63609   7.567   7.508   9.188  1.7426  1.2102 -2.0863
  482MOL0     H63610   9.452   7.714   8.905 -0.3704  1.6491  1.6156
  482MOL0     H63611   9.659   7.570   8.893 -0.7709 -0.4548 -0.6093
  482MOL0     H63612   9.971   7.324   9.156  3.3752 -0.4481  0.6195
  482MOL0     H63613  10.180   7.229   9.131 -0.6000 -0.1775  0.9561
  482MOL0     H63614  10.328   7.069   9.173  4.1105 -1.7051  1.0923
  482MOL0     H63615  10.398   7.147   9.029  0.1925  1.7010  3.4961
  482MOL0     H63616  10.447   6.857   9.095 -2.2342 -0.3113 -1.9761
  482MOL0     H63617  10.508   6.947   8.957 -2.2896  1.4546 -0.3775
  482MOL0     H63618  10.579   7.037   9.238 -1.3757 -1.4815 -0.0968
  482MOL0     H63619  10.634   7.106   9.091  1.2860 -0.3730 -0.2807
  482MOL0     H63620  10.715   6.812   9.164  0.3183 -1.9441 -2.8867
  482MOL0     H63621  10.754   6.905   9.014 -0.1057  0.7217  0.2643
  482MOL0     H63622  11.046   7.015   9.303 -0.6358 -1.2022  2.1913
  482MOL0     H63623  10.036   6.941   8.847 -2.7273 -1.6987  2.2019
  482MOL0     H63624   9.828   7.083   8.833 -1.0077  2.5821  0.8550
  483MOL0     O63625   8.536   6.686   7.406  0.5400 -0.4711 -0.1999
  483MOL0     C63626   8.510   6.727   7.522  0.2014 -0.9594 -0.3699
  483MOL0     O63627   8.599   6.784   7.608 -0.2151 -0.2497 -0.2921
  483MOL0     C63628   8.717   6.845   7.564  0.7454  0.4101 -0.1812
  483MOL0     C63629   8.726   6.924   7.441 -0.0398  0.0261 -0.5858
  483MOL0     C63630   8.847   6.995   7.407 -0.1618  0.9814  0.6761
  483MOL0     C63631   8.962   6.989   7.489 -0.1866  0.0204 -0.0695
  483MOL0     O63632   9.070   7.058   7.459  0.5835 -0.0593 -0.1115
  483MOL0     C63633   9.091   7.125   7.330 -0.2796 -0.2263  0.1856
  483MOL0     C63634   9.220   7.206   7.342 -0.2092 -0.0100 -0.2670
  483MOL0     C63635   9.339   7.118   7.384  0.3047  0.2016 -0.0224
  483MOL0     C63636   9.477   7.185   7.371  1.4078 -0.0879 -1.0397
  483MOL0     C63637   9.577   7.104   7.465  0.7581 -1.0755  0.0075
  483MOL0     C63638   9.722   7.143   7.444 -0.1683 -0.2259 -0.2152
  483MOL0     C63639   9.731   7.299   7.421 -0.0326 -0.7085 -0.0971
  483MOL0     C63640   9.876   7.346   7.455 -0.5772  0.4504 -0.2511
  483MOL0     N63641   9.913   7.483   7.418  0.1937 -0.1426  0.1624
  483MOL0     C63642   9.923   7.524   7.285 -0.1385 -0.4178  0.2751
  483MOL0     C63643   9.923   7.662   7.290  0.7147  0.0442 -0.0591
  483MOL0     C63644   9.924   7.765   7.182  0.5307  0.3413 -0.0306
  483MOL0     C63645  10.026   7.886   7.192  0.4323  0.2043 -0.4462
  483MOL0     C63646  10.171   7.830   7.155 -0.5032 -0.2068 -0.4874
  483MOL0     C63647  10.275   7.935   7.175  0.0521  0.0731 -0.0658
  483MOL0     O63648  10.405   7.888   7.147 -0.0289  1.0384 -0.2631
  483MOL0     C63649  10.519   7.964   7.154 -0.5536  0.3427  0.1401
  483MOL0     C63650  10.527   8.097   7.195  0.0473  0.8122  0.0397
  483MOL0     C63651  10.652   8.152   7.214 -0.6124 -0.4889 -0.0002
  483MOL0     C63652  10.773   8.083   7.206  0.1553  0.4415 -0.1219
  483MOL0     C63653  10.902   8.137   7.234 -0.8421 -0.7912 -0.6300
  483MOL0     O63654  11.011   8.059   7.212 -0.1420 -0.5931 -0.4824
  483MOL0     C63655  11.137   8.093   7.261  0.6894  1.0126  0.7882
  483MOL0     C63656  11.164   8.134   7.390  0.5823  0.5885  0.1549
  483MOL0     C63657  11.304   8.140   7.433 -0.7913 -0.1150  0.2902
  483MOL0     C63658  11.416   8.115   7.353 -0.2083  0.7569  0.6366
  483MOL0     O63659  11.547   8.136   7.385 -0.2975  0.3400 -0.6999
  483MOL0     C63660  11.566   8.188   7.525  0.1586 -0.1527 -0.1574
  483MOL0     C63661  11.709   8.203   7.553 -0.5847 -0.2451  0.2369
  483MOL0     C63662  11.762   8.330   7.476  1.5737 -0.4378  0.9013
  483MOL0     C63663  11.898   8.362   7.528  0.7425 -0.4138 -0.1724
  483MOL0     C63664  11.959   8.471   7.448  0.6611 -0.1897 -0.0387
  483MOL0     C63665  12.073   8.530   7.529 -0.0346 -0.0411  0.0829
  483MOL0     C63666  12.141   8.634   7.438 -0.2280 -0.5006  0.5903
  483MOL0     C63667  12.283   8.669   7.469  0.1606  0.5036 -0.5575
  483MOL0    Cl63668  12.354   8.807   7.374 -0.1312 -0.3439  0.1644
  483MOL0     C63669  11.388   8.076   7.223 -0.1546 -0.2379  0.3405
  483MOL0     C63670  11.251   8.062   7.181 -0.1998 -0.0615  0.4041
  483MOL0     O63671  10.905   8.260   7.261  0.2079 -0.2973 -0.6839
  483MOL0     C63672  10.759   7.952   7.172  0.7147  0.0363  0.1751
  483MOL0     C63673  10.637   7.890   7.141 -0.4999 -0.3264 -0.0168
  483MOL0     N63674   9.921   7.698   7.424 -0.7872 -0.5969 -0.3437
  483MOL0     N63675   9.920   7.594   7.495  0.7362 -0.5614  0.3018
  483MOL0     C63676   8.949   6.920   7.613 -0.0132  0.8487 -0.0198
  483MOL0     C63677   8.826   6.853   7.648 -1.0207 -0.3285 -0.5262
  483MOL0     C63678   8.375   6.703   7.567 -0.2048  0.2627  0.0897
  483MOL0     C63679   8.330   6.736   7.698 -0.2997  0.6099  0.1214
  483MOL0     C63680   8.196   6.706   7.740  0.4124 -0.4554 -0.1212
  483MOL0     C63681   8.107   6.639   7.653 -0.3643 -0.3021 -0.3722
  483MOL0     O63682   7.977   6.609   7.679  0.3909 -0.1846 -0.3696
  483MOL0     C63683   7.926   6.632   7.812 -0.0550 -0.0593 -0.5777
  483MOL0     C63684   7.780   6.577   7.834 -1.2003  0.3414  0.3290
  483MOL0     C63685   7.676   6.675   7.765  0.0932 -0.1892 -0.6155
  483MOL0     C63686   7.647   6.796   7.857 -1.1680  0.1801 -0.1956
  483MOL0     C63687   7.565   6.904   7.793  0.7034  0.0558  0.3900
  483MOL0     C63688   7.524   7.009   7.748  0.0853  0.7163 -0.4422
  483MOL0     C63689   8.156   6.593   7.530  0.4442 -0.2514  0.1742
  483MOL0     C63690   8.287   6.640   7.489  0.2693 -0.1949 -0.3022
  483MOL0     H63691   8.651   6.920   7.363 -1.0439  0.2383  0.3505
  483MOL0     H63692   8.852   7.049   7.313  0.1484 -1.3601 -0.7453
  483MOL0     H63693   9.014   7.202   7.324  1.4100  1.4301 -2.9478
  483MOL0     H63694   9.089   7.060   7.242 -0.2228  0.1546 -0.0976
  483MOL0     H63695   9.205   7.280   7.422 -0.1162 -1.4722  1.1528
  483MOL0     H63696   9.237   7.243   7.240 -0.5030  1.3709  0.1594
  483MOL0     H63697   9.348   7.030   7.320  1.2981  0.0610  0.2893
  483MOL0     H63698   9.331   7.067   7.480  2.9199  0.2542  0.3017
  483MOL0     H63699   9.501   7.204   7.266 -0.7119  1.5284 -1.3137
  483MOL0     H63700   9.481   7.287   7.412  3.0257 -1.0043  1.2942
  483MOL0     H63701   9.575   6.997   7.442  0.6052 -0.6620 -2.0463
  483MOL0     H63702   9.546   7.134   7.565 -1.5417  4.0640 -1.9167
  483MOL0     H63703   9.762   7.094   7.355  1.6679  0.5571  0.1241
  483MOL0     H63704   9.776   7.105   7.532 -1.4009  3.0266  2.1247
  483MOL0     H63705   9.705   7.322   7.318  0.9603 -1.9394 -0.6370
  483MOL0     H63706   9.657   7.348   7.486 -0.9455  1.9155 -2.9042
  483MOL0     H63707   9.951   7.283   7.405 -0.3493 -0.9371  1.7226
  483MOL0     H63708   9.888   7.335   7.563  1.6763  2.1505 -0.2436
  483MOL0     H63709   9.916   7.466   7.193  0.2246  0.3889 -0.2792
  483MOL0     H63710   9.819   7.797   7.185  0.7356  1.2047  3.8172
  483MOL0     H63711   9.938   7.727   7.081  2.4935  2.7909 -0.7792
  483MOL0     H63712  10.014   7.920   7.295 -0.0334  1.3412 -0.8639
  483MOL0     H63713   9.995   7.969   7.128  0.9808  2.7328  2.3398
  483MOL0     H63714  10.211   7.743   7.208  2.5667  0.5677 -1.3331
  483MOL0     H63715  10.179   7.817   7.047  0.1459  1.4812 -0.6858
  483MOL0     H63716  10.275   7.967   7.280 -1.3203 -0.6137  0.1743
  483MOL0     H63717  10.241   8.013   7.106 -0.4779  1.0180  1.2107
  483MOL0     H63718  10.436   8.154   7.207 -0.2879 -0.0257  1.8099
  483MOL0     H63719  10.646   8.260   7.220 -2.0589 -0.2807 -3.1199
  483MOL0     H63720  11.077   8.138   7.455  0.1931 -1.7905 -0.1271
  483MOL0     H63721  11.316   8.187   7.530  2.3550  1.0617 -0.5700
  483MOL0     H63722  11.526   8.125   7.605  0.1775  1.0724  0.8445
  483MOL0     H63723  11.514   8.283   7.537  1.0480  0.2804  0.3922
  483MOL0     H63724  11.752   8.114   7.506 -0.9979  0.0306 -0.7098
  483MOL0     H63725  11.730   8.205   7.660  1.9344 -1.5775 -0.1471
  483MOL0     H63726  11.699   8.419   7.485 -0.3252 -1.7296  0.9801
  483MOL0     H63727  11.758   8.295   7.372  0.2494 -1.0573  1.1447
  483MOL0     H63728  11.888   8.385   7.634 -1.8884 -2.8469  0.2006
  483MOL0     H63729  11.953   8.270   7.505  0.6375 -0.7482  0.8858
  483MOL0     H63730  11.885   8.548   7.423 -1.8315 -1.9705  1.3032
  483MOL0     H63731  11.999   8.434   7.354  1.4720  0.1389  0.1661
  483MOL0     H63732  12.145   8.454   7.561  0.3228 -1.0257 -2.7709
  483MOL0     H63733  12.025   8.583   7.612  1.4408  2.9223 -0.8308
  483MOL0     H63734  12.148   8.602   7.333 -1.5236  1.4214 -0.1502
  483MOL0     H63735  12.084   8.728   7.429  0.8786  0.1279 -0.1076
  483MOL0     H63736  12.345   8.579   7.461 -1.8014 -0.8263 -1.5477
  483MOL0     H63737  12.284   8.709   7.571 -1.3672 -1.2733  0.2201
  483MOL0     H63738  11.456   8.057   7.140 -0.2092  0.0945  0.2183
  483MOL0     H63739  11.233   8.012   7.086 -2.3147 -0.0919  0.7672
  483MOL0     H63740  10.839   7.879   7.167 -0.0629 -0.9394  1.4084
  483MOL0     H63741  10.625   7.782   7.144 -0.0889 -0.3630  0.4196
  483MOL0     H63742   9.037   6.913   7.677  1.8142  0.0529 -2.4820
  483MOL0     H63743   8.814   6.816   7.749 -1.8412  3.2121  0.7885
  483MOL0     H63744   8.387   6.788   7.774 -0.6792  0.8680  0.2353
  483MOL0     H63745   8.169   6.734   7.841 -0.1497  2.7071 -1.0624
  483MOL0     H63746   7.920   6.737   7.842 -0.1471 -0.6298  1.5735
  483MOL0     H63747   7.993   6.587   7.886  1.2603 -1.4839 -2.5391
  483MOL0     H63748   7.774   6.474   7.800  1.2951  0.6641 -1.3705
  483MOL0     H63749   7.771   6.579   7.943  1.4224 -0.7063  0.6500
  483MOL0     H63750   7.586   6.619   7.738 -0.9131 -0.0291  2.1789
  483MOL0     H63751   7.705   6.712   7.666  0.8599 -0.5517 -0.5363
  483MOL0     H63752   7.601   6.766   7.951 -1.0464 -1.5663 -0.6489
  483MOL0     H63753   7.740   6.852   7.872 -0.8347 -0.4824  0.2517
  483MOL0     H63754   7.494   7.103   7.705  2.8632  0.7156 -2.7098
  483MOL0     H63755   8.098   6.544   7.453 -0.0722  3.3839 -1.9440
  483MOL0     H63756   8.316   6.610   7.389 -2.7101 -1.1517 -0.9906
  484MOL0     O63757  10.426   6.996   1.252  0.2438  0.0262 -0.0317
  484MOL0     C63758  10.403   6.989   1.132 -0.7077  0.0118  0.8179
  484MOL0     O63759  10.301   6.919   1.076  0.4733 -0.0161  0.5112
  484MOL0     C63760  10.218   6.840   1.154  0.3613  0.6653 -0.0314
  484MOL0     C63761  10.261   6.732   1.244 -0.2655 -0.0758  0.2815
  484MOL0     C63762  10.172   6.647   1.311  0.3629 -0.4699 -0.6404
  484MOL0     C63763  10.036   6.654   1.290 -0.0547 -0.4043  0.6666
  484MOL0     O63764   9.961   6.569   1.362  1.0057 -0.7417 -0.8007
  484MOL0     C63765   9.819   6.587   1.353 -0.7836  0.7215  0.1387
  484MOL0     C63766   9.758   6.498   1.466 -0.5780 -0.6509  0.2504
  484MOL0     C63767   9.609   6.548   1.489 -0.0510 -0.0669  0.6212
  484MOL0     C63768   9.550   6.491   1.617  0.0490 -0.3463  0.2201
  484MOL0     C63769   9.401   6.480   1.599 -0.0394  0.1095 -0.1003
  484MOL0     C63770   9.322   6.412   1.721 -0.7092 -0.1391  0.0757
  484MOL0     C63771   9.173   6.447   1.715  0.5528 -0.0064 -0.3934
  484MOL0     C63772   9.099   6.367   1.607  0.2815  0.4784 -1.0521
  484MOL0     N63773   8.958   6.361   1.618 -0.7266  0.4626  0.2776
  484MOL0     C63774   8.870   6.255   1.632 -1.6093 -0.6026  0.1693
  484MOL0     C63775   8.749   6.314   1.635 -1.0249  0.6036  0.1954
  484MOL0     C63776   8.625   6.227   1.635  0.2867  0.6795 -0.0733
  484MOL0     C63777   8.617   6.114   1.740 -0.1336 -0.8225  0.1837
  484MOL0     C63778   8.477   6.060   1.730  0.2022  0.2238 -0.0589
  484MOL0     C63779   8.459   5.924   1.804 -0.7149  0.4763 -0.0131
  484MOL0     O63780   8.331   5.865   1.770 -0.5598 -0.1078 -0.2378
  484MOL0     C63781   8.222   5.890   1.857  0.3441  0.5819 -0.1514
  484MOL0     C63782   8.213   5.855   1.999 -0.0830 -0.4924  0.8849
  484MOL0     C63783   8.096   5.873   2.072  0.8112  0.6674 -0.1345
  484MOL0     C63784   7.980   5.929   2.009 -0.3673 -0.2231  0.4462
  484MOL0     C63785   7.855   5.951   2.083 -0.8693 -0.5675 -0.6632
  484MOL0     O63786   7.738   5.940   2.021  0.5776  0.5000  0.5926
  484MOL0     C63787   7.622   5.992   2.077 -1.4254 -0.1806  0.3777
  484MOL0     C63788   7.606   6.097   2.159 -0.7456  0.2282  0.1238
  484MOL0     C63789   7.479   6.139   2.204 -0.0217 -0.3419 -0.4691
  484MOL0     C63790   7.361   6.072   2.152 -1.0703 -0.1198 -0.7458
  484MOL0     O63791   7.232   6.099   2.177  0.5521  0.2621 -0.0195
  484MOL0     C63792   7.196   6.188   2.278  1.0907  0.3599 -0.5125
  484MOL0     C63793   7.041   6.202   2.293 -0.5372 -0.2542 -0.0690
  484MOL0     C63794   6.991   6.179   2.440  0.4023 -0.3915 -0.0309
  484MOL0     C63795   6.844   6.148   2.429  0.6034  0.3886 -0.3057
  484MOL0     C63796   6.781   6.130   2.571  0.0188 -0.3438  0.4695
  484MOL0     C63797   6.667   6.022   2.572 -0.9252 -0.5596 -0.3233
  484MOL0     C63798   6.539   6.072   2.490 -0.1143 -0.3587 -0.3386
  484MOL0     C63799   6.454   6.177   2.559  0.9223  0.4052 -0.3574
  484MOL0    Cl63800   6.277   6.182   2.509  0.1439  0.4283 -0.0532
  484MOL0     C63801   7.378   5.974   2.059  0.7554 -0.3010 -0.2423
  484MOL0     C63802   7.504   5.928   2.032  0.1514 -0.0534 -0.6528
  484MOL0     O63803   7.871   5.990   2.197 -0.2875 -0.4051  0.0256
  484MOL0     C63804   7.986   5.957   1.868 -0.3255 -0.3469  0.4796
  484MOL0     C63805   8.108   5.937   1.794  0.2686 -0.9320 -0.0540
  484MOL0     N63806   8.765   6.452   1.635  0.6338 -0.5174  0.6146
  484MOL0     N63807   8.885   6.478   1.625 -1.0374 -0.8739 -0.1815
  484MOL0     C63808   9.992   6.747   1.197 -0.2590  0.0402 -0.0174
  484MOL0     C63809  10.083   6.833   1.126  0.2770 -1.1168  0.6121
  484MOL0     C63810  10.489   7.060   1.033  0.4563  0.3814 -0.1006
  484MOL0     C63811  10.592   7.149   1.074  0.2624  0.4417 -0.0016
  484MOL0     C63812  10.691   7.200   0.987 -0.6225 -0.0459 -0.4562
  484MOL0     C63813  10.677   7.180   0.854  0.2701  0.7868  1.1842
  484MOL0     O63814  10.776   7.217   0.770 -0.0053  0.4854 -0.2260
  484MOL0     C63815  10.775   7.357   0.735 -0.1514 -0.2029 -0.3456
  484MOL0     C63816  10.907   7.395   0.663  0.9638  0.3753  0.7237
  484MOL0     C63817  10.920   7.331   0.531 -0.2245 -0.2006  0.8278
  484MOL0     C63818  11.063   7.289   0.496 -0.2093 -0.7911  0.7419
  484MOL0     C63819  11.088   7.251   0.358 -0.5763 -0.1185  0.4630
  484MOL0     C63820  11.114   7.223   0.242  0.6939 -0.0664 -0.1153
  484MOL0     C63821  10.573   7.098   0.810  0.8477 -0.4637  0.5531
  484MOL0     C63822  10.480   7.035   0.898 -0.7908  0.4263 -0.2589
  484MOL0     H63823  10.367   6.711   1.254 -0.7918 -2.7491  1.0093
  484MOL0     H63824  10.210   6.575   1.382  2.0618  1.3418  0.3762
  484MOL0     H63825   9.785   6.567   1.251  1.9972 -0.4147 -0.6672
  484MOL0     H63826   9.788   6.685   1.390 -3.4621 -0.3928  1.0854
  484MOL0     H63827   9.821   6.501   1.555  0.2555 -1.5682 -0.2892
  484MOL0     H63828   9.755   6.395   1.428 -0.3063 -0.5309 -0.1057
  484MOL0     H63829   9.546   6.514   1.406 -2.4185 -0.7154  2.5857
  484MOL0     H63830   9.602   6.657   1.490 -2.5974 -0.0851 -1.7301
  484MOL0     H63831   9.602   6.397   1.636 -3.3217 -3.5228 -4.0033
  484MOL0     H63832   9.572   6.558   1.701 -0.2368  1.1424 -0.8522
  484MOL0     H63833   9.377   6.412   1.516 -0.2384 -1.1207  0.9425
  484MOL0     H63834   9.362   6.577   1.567 -0.8012 -0.4402 -0.8975
  484MOL0     H63835   9.351   6.467   1.811  0.1592 -1.1919  0.4614
  484MOL0     H63836   9.337   6.304   1.725  0.8076 -0.1314 -2.7273
  484MOL0     H63837   9.139   6.435   1.818  1.5960  0.5494  0.0352
  484MOL0     H63838   9.149   6.551   1.688  1.8336  0.1610 -1.0018
  484MOL0     H63839   9.137   6.265   1.613 -0.8104 -0.1394 -3.5218
  484MOL0     H63840   9.128   6.390   1.505  1.4979  2.3736 -0.3385
  484MOL0     H63841   8.904   6.152   1.635 -0.3757 -0.2823 -1.3062
  484MOL0     H63842   8.615   6.180   1.537  0.5223  1.0282 -0.2653
  484MOL0     H63843   8.537   6.291   1.643 -0.3217 -0.2815  1.7379
  484MOL0     H63844   8.639   6.147   1.842 -0.0414  0.8478 -0.3480
  484MOL0     H63845   8.680   6.028   1.714  0.5728 -0.1052 -0.5574
  484MOL0     H63846   8.406   6.130   1.777  1.3079  1.6355 -0.4118
  484MOL0     H63847   8.448   6.048   1.625  1.8297 -0.8641 -0.4175
  484MOL0     H63848   8.479   5.937   1.911 -2.5866 -1.4794  0.6448
  484MOL0     H63849   8.534   5.859   1.758 -1.6510 -1.5959  1.2439
  484MOL0     H63850   8.303   5.809   2.038 -0.7503 -1.1545  1.6468
  484MOL0     H63851   8.093   5.851   2.178  0.6626  1.3022 -0.0042
  484MOL0     H63852   7.689   6.161   2.186 -1.2147  2.4350 -3.1492
  484MOL0     H63853   7.467   6.233   2.258 -2.0540 -0.9678  0.2525
  484MOL0     H63854   7.241   6.284   2.252 -0.2369  1.8686  2.2621
  484MOL0     H63855   7.227   6.145   2.374 -2.0352  1.5488  1.1771
  484MOL0     H63856   7.004   6.122   2.228 -0.5173 -1.8626  1.8313
  484MOL0     H63857   7.008   6.303   2.266  0.2242 -0.3307 -1.3783
  484MOL0     H63858   7.008   6.265   2.506  0.3292 -0.2449 -0.2020
  484MOL0     H63859   7.045   6.093   2.480  0.3875  0.4348  1.9069
  484MOL0     H63860   6.785   6.228   2.384 -2.0588 -0.1974  1.8974
  484MOL0     H63861   6.834   6.047   2.388 -0.9268 -0.1563  1.2809
  484MOL0     H63862   6.746   6.225   2.612 -1.2527 -0.3322 -0.5666
  484MOL0     H63863   6.856   6.094   2.641  0.9036  1.0009  0.2518
  484MOL0     H63864   6.647   6.018   2.680  1.0489  2.6165  0.3178
  484MOL0     H63865   6.704   5.924   2.542 -1.3531 -1.1286  0.9508
  484MOL0     H63866   6.576   6.117   2.397  1.8586  0.9609  0.9909
  484MOL0     H63867   6.475   5.985   2.474 -0.3093 -0.9151  2.8851
  484MOL0     H63868   6.494   6.278   2.547 -1.4838  1.4415 -0.1736
  484MOL0     H63869   6.461   6.155   2.667 -2.6173  0.5475  0.0088
  484MOL0     H63870   7.290   5.923   2.022  0.7380  0.3421 -1.1167
  484MOL0     H63871   7.510   5.842   1.967  0.8811 -1.0519  0.6652
  484MOL0     H63872   7.903   5.991   1.806  1.0565  0.3786 -1.0332
  484MOL0     H63873   8.101   5.952   1.687 -1.7774  2.2298  0.3888
  484MOL0     H63874   9.886   6.760   1.174  0.1461 -0.5141 -2.4908
  484MOL0     H63875  10.046   6.921   1.075 -2.5019 -3.0534 -0.9544
  484MOL0     H63876  10.590   7.169   1.180 -2.3190 -0.6910  0.2423
  484MOL0     H63877  10.775   7.260   1.023 -0.5829 -1.4830  2.1428
  484MOL0     H63878  10.778   7.412   0.830  4.8140 -2.8111  1.3600
  484MOL0     H63879  10.695   7.379   0.664  0.3392  2.8173 -0.0767
  484MOL0     H63880  10.904   7.503   0.647  0.0874  0.5011  1.6228
  484MOL0     H63881  10.996   7.374   0.724  0.1671  1.1833  2.2260
  484MOL0     H63882  10.899   7.403   0.452 -3.1428  0.1509  1.8216
  484MOL0     H63883  10.851   7.246   0.522 -1.2010  0.6009  0.6360
  484MOL0     H63884  11.125   7.377   0.516 -0.6349 -0.6716  1.5569
  484MOL0     H63885  11.106   7.214   0.563 -0.0383 -0.4708  0.9914
  484MOL0     H63886  11.134   7.208   0.137 -2.4726  0.1787 -0.8566
  484MOL0     H63887  10.575   7.076   0.704 -0.7470  2.8505 -0.2704
  484MOL0     H63888  10.406   6.965   0.861 -0.0274 -1.3089  1.3625
  485MOL0     O63889   5.131   1.522  11.001  0.8146  0.1528  0.1712
  485MOL0     C63890   5.219   1.600  11.042 -0.1139  0.9444 -0.0064
  485MOL0     O63891   5.338   1.605  10.999  0.1161 -0.1559  0.3747
  485MOL0     C63892   5.398   1.558  10.892 -0.6607 -0.2448 -0.5091
  485MOL0     C63893   5.531   1.591  10.887  0.2878 -0.3409 -0.1122
  485MOL0     C63894   5.614   1.555  10.775  0.2063 -0.0932 -0.0805
  485MOL0     C63895   5.558   1.484  10.674  0.4767 -1.2343  0.9265
  485MOL0     O63896   5.627   1.444  10.562  0.5980  0.1597  0.1683
  485MOL0     C63897   5.761   1.478  10.528  0.4048  0.3249  0.3301
  485MOL0     C63898   5.789   1.621  10.473 -0.2628 -0.3556  0.0481
  485MOL0     C63899   5.694   1.636  10.347  0.0794 -0.0852  0.4919
  485MOL0     C63900   5.718   1.554  10.209 -0.9364  0.1521 -0.4986
  485MOL0     C63901   5.612   1.581  10.091 -0.4815 -0.3542 -0.8133
  485MOL0     C63902   5.649   1.689   9.994  0.2167 -0.8878 -0.2091
  485MOL0     C63903   5.531   1.709   9.892  0.2885  0.3701  0.3869
  485MOL0     C63904   5.570   1.802   9.771  0.4354 -0.3246  0.5901
  485MOL0     N63905   5.464   1.831   9.672 -0.0645 -0.7028 -0.3513
  485MOL0     C63906   5.383   1.746   9.605 -0.5488 -0.2524 -0.5587
  485MOL0     C63907   5.274   1.814   9.561 -1.2621 -0.2168  0.6794
  485MOL0     C63908   5.158   1.753   9.490  0.4433  0.3386 -0.0582
  485MOL0     C63909   5.027   1.782   9.568  0.1977 -0.2923  0.4988
  485MOL0     C63910   4.908   1.702   9.505  0.3191 -0.1162 -0.4261
  485MOL0     C63911   4.768   1.744   9.570  0.2755  0.1534  0.6931
  485MOL0     O63912   4.663   1.698   9.480 -0.4835  0.5625 -0.9188
  485MOL0     C63913   4.534   1.694   9.523 -0.0021 -0.5877  0.4772
  485MOL0     C63914   4.483   1.773   9.629 -0.7212  0.1606  0.6760
  485MOL0     C63915   4.348   1.758   9.664  0.9378  0.6266  0.5044
  485MOL0     C63916   4.258   1.669   9.591 -0.5716 -0.2817  0.1388
  485MOL0     C63917   4.112   1.665   9.620  0.0108  0.9211  0.6938
  485MOL0     O63918   4.060   1.779   9.675  0.5376 -0.0480 -0.3855
  485MOL0     C63919   3.926   1.803   9.687 -0.0965 -1.4380 -0.2097
  485MOL0     C63920   3.883   1.927   9.645  0.2254  1.1682  0.6464
  485MOL0     C63921   3.746   1.950   9.639  0.0667 -0.8614  0.7009
  485MOL0     C63922   3.651   1.855   9.698 -0.6944 -0.8096 -0.4491
  485MOL0     O63923   3.520   1.872   9.700 -0.1519  0.1724 -0.2982
  485MOL0     C63924   3.466   1.984   9.629 -0.4060 -0.7037 -0.2367
  485MOL0     C63925   3.310   1.987   9.631  0.6107 -0.0084 -0.5341
  485MOL0     C63926   3.255   2.102   9.531 -0.3326  0.4278 -0.1699
  485MOL0     C63927   3.104   2.098   9.526 -0.0902  0.0171  0.7443
  485MOL0     C63928   3.051   2.211   9.446  0.0605 -0.2529  0.7828
  485MOL0     C63929   2.901   2.195   9.410  0.1051  0.3043  0.2268
  485MOL0     C63930   2.834   2.335   9.385  0.2569  0.1390  0.0497
  485MOL0     C63931   2.683   2.341   9.396  0.3435 -0.1470  0.8872
  485MOL0    Cl63932   2.625   2.276   9.553 -0.3448  0.0527  0.0945
  485MOL0     C63933   3.705   1.736   9.759  0.2641  0.4326 -0.6678
  485MOL0     C63934   3.845   1.716   9.750 -0.1783 -0.1744  0.4981
  485MOL0     O63935   4.049   1.560   9.603 -0.6115 -0.1294 -0.3665
  485MOL0     C63936   4.316   1.590   9.493 -0.4655  0.2882  0.9228
  485MOL0     C63937   4.447   1.611   9.455 -0.2862 -0.0808  0.0995
  485MOL0     N63938   5.291   1.944   9.603  0.0992  0.3998  0.5528
  485MOL0     N63939   5.407   1.950   9.660  0.9240  0.2508  0.0052
  485MOL0     C63940   5.414   1.460  10.674  0.4732 -0.0989 -0.1662
  485MOL0     C63941   5.338   1.490  10.783 -0.6223  0.4054  0.3384
  485MOL0     C63942   5.181   1.688  11.161 -0.2044  0.2585  0.2250
  485MOL0     C63943   5.275   1.782  11.210 -0.0010 -0.8419 -0.4100
  485MOL0     C63944   5.253   1.851  11.330 -0.0326 -0.5268 -0.0088
  485MOL0     C63945   5.126   1.841  11.388 -0.0446 -0.0984  0.7378
  485MOL0     O63946   5.080   1.911  11.496 -0.1954 -0.1137  0.4409
  485MOL0     C63947   5.183   1.950  11.589  0.0647  0.1085  0.9878
  485MOL0     C63948   5.112   2.013  11.706  0.1333 -0.2997  0.3542
  485MOL0     C63949   5.184   2.127  11.776  0.1539 -0.8437 -0.0805
  485MOL0     C63950   5.322   2.088  11.836 -0.2105 -0.4792  0.0462
  485MOL0     C63951   5.319   1.992  11.947 -0.8973  0.3133  0.1552
  485MOL0     C63952   5.313   1.900  12.036  0.5835 -0.1442 -0.3959
  485MOL0     C63953   5.027   1.758  11.327 -0.1220 -0.6135 -0.4786
  485MOL0     C63954   5.060   1.667  11.221 -0.2937  0.5451 -0.3579
  485MOL0     H63955   5.581   1.654  10.960 -1.5903 -1.6663  2.4723
  485MOL0     H63956   5.713   1.598  10.771  0.0796  0.1047 -2.4125
  485MOL0     H63957   5.804   1.412  10.453 -1.1811  0.6653 -0.9299
  485MOL0     H63958   5.824   1.458  10.616  1.2977 -3.8234 -1.0561
  485MOL0     H63959   5.894   1.625  10.441 -0.5768 -0.8427 -1.0846
  485MOL0     H63960   5.763   1.693  10.552 -2.2673 -2.9021  1.8705
  485MOL0     H63961   5.682   1.740  10.314  0.9107 -0.5289 -1.3126
  485MOL0     H63962   5.590   1.621  10.379  0.4691 -0.3346  1.7069
  485MOL0     H63963   5.822   1.559  10.176  0.1756 -0.5162  2.5243
  485MOL0     H63964   5.703   1.449  10.235 -0.8884  0.4973  1.0700
  485MOL0     H63965   5.523   1.599  10.151 -0.9941 -2.9857 -0.6433
  485MOL0     H63966   5.592   1.483  10.046 -0.3514  0.4972 -2.8117
  485MOL0     H63967   5.743   1.664   9.945  1.3535  2.2077  0.1612
  485MOL0     H63968   5.662   1.774  10.061  0.6678 -1.4861  0.4743
  485MOL0     H63969   5.503   1.608   9.860  1.1977  0.4949 -0.8700
  485MOL0     H63970   5.445   1.757   9.940  0.5938 -2.3650  4.1247
  485MOL0     H63971   5.658   1.753   9.728  2.1857  1.4942  1.9120
  485MOL0     H63972   5.607   1.891   9.823  2.5916 -2.2439  2.6084
  485MOL0     H63973   5.382   1.638   9.595 -1.4668 -0.8437  3.9007
  485MOL0     H63974   5.160   1.647   9.463  0.5161 -0.1358  1.6885
  485MOL0     H63975   5.137   1.799   9.392  2.5330  0.8822 -0.2935
  485MOL0     H63976   5.015   1.891   9.561 -1.4563 -0.4260  0.8899
  485MOL0     H63977   5.038   1.763   9.675 -0.9901  2.6521  1.2496
  485MOL0     H63978   4.916   1.723   9.397  0.8153 -1.8165 -0.7496
  485MOL0     H63979   4.917   1.594   9.518  2.1673 -0.1166 -1.2714
  485MOL0     H63980   4.761   1.853   9.560  0.7404  0.3608  2.3894
  485MOL0     H63981   4.763   1.714   9.675 -1.4832  0.2517  0.6761
  485MOL0     H63982   4.545   1.847   9.678  0.0987 -0.1026  0.0531
  485MOL0     H63983   4.305   1.812   9.747  2.0088  1.0370  0.8101
  485MOL0     H63984   3.956   1.999   9.610  1.5012 -1.1177 -1.8088
  485MOL0     H63985   3.718   2.038   9.581 -0.5334 -2.7552 -2.0674
  485MOL0     H63986   3.499   1.990   9.525  1.0507 -0.7687  0.2085
  485MOL0     H63987   3.512   2.069   9.681  2.8334 -2.1178 -0.5484
  485MOL0     H63988   3.273   2.012   9.731  0.7356 -0.8537 -0.2654
  485MOL0     H63989   3.269   1.889   9.605 -0.0405 -0.0555  0.5856
  485MOL0     H63990   3.302   2.074   9.436  0.4987  1.8900 -0.2172
  485MOL0     H63991   3.302   2.194   9.567 -0.1972 -0.0615  0.9435
  485MOL0     H63992   3.071   2.004   9.481  0.1944 -1.4778  3.4215
  485MOL0     H63993   3.073   2.114   9.630  1.5246 -0.6087  1.3442
  485MOL0     H63994   3.116   2.228   9.359  0.6007 -3.9239  0.3156
  485MOL0     H63995   3.069   2.306   9.497 -0.7654  0.0848  0.4632
  485MOL0     H63996   2.847   2.146   9.491  0.3419 -0.2723  0.0381
  485MOL0     H63997   2.895   2.131   9.321  0.7696  1.8540 -0.9908
  485MOL0     H63998   2.877   2.405   9.457  0.0905 -0.0719  0.3580
  485MOL0     H63999   2.864   2.375   9.288  0.2223  0.7504  0.2913
  485MOL0     H64000   2.632   2.293   9.312 -0.3171 -1.4740  2.0020
  485MOL0     H64001   2.652   2.446   9.396  1.0764  0.0781  0.4675
  485MOL0     H64002   3.636   1.676   9.818  0.1739 -0.6098 -1.7934
  485MOL0     H64003   3.896   1.632   9.795 -2.6091  0.0789  4.1585
  485MOL0     H64004   4.260   1.520   9.432  2.9952 -1.3499 -0.6735
  485MOL0     H64005   4.498   1.558   9.375 -0.0560  1.1036 -0.5611
  485MOL0     H64006   5.367   1.399  10.597 -4.1292 -1.3602  3.2194
  485MOL0     H64007   5.237   1.450  10.778 -0.4733  0.0799 -0.1387
  485MOL0     H64008   5.368   1.795  11.156  1.3353 -3.2768  1.1087
  485MOL0     H64009   5.333   1.916  11.365  0.0069 -0.2244 -0.6491
  485MOL0     H64010   5.245   2.030  11.548  1.3638 -1.0134  0.6978
  485MOL0     H64011   5.247   1.866  11.618  0.5193 -0.6024 -1.8517
  485MOL0     H64012   5.023   2.059  11.663  0.3012 -1.2918 -1.1399
  485MOL0     H64013   5.073   1.939  11.777 -3.6984 -0.6339 -1.7930
  485MOL0     H64014   5.113   2.148  11.858 -0.4665 -5.1988  0.7537
  485MOL0     H64015   5.187   2.210  11.705 -2.3963 -0.2897  0.3446
  485MOL0     H64016   5.373   2.057  11.744 -0.6826  0.0147 -0.3897
  485MOL0     H64017   5.377   2.177  11.866 -4.6303  2.3976  0.6102
  485MOL0     H64018   5.310   1.820  12.107  2.4708 -1.8688 -2.1033
  485MOL0     H64019   4.930   1.752  11.374  0.8475 -2.7090  1.4686
  485MOL0     H64020   4.992   1.590  11.187  1.0082 -0.4705 -0.7417
  486MOL0     O64021   3.671   1.428   2.499 -0.2943 -0.5267 -0.1484
  486MOL0     C64022   3.731   1.328   2.535  0.4340 -0.5824 -0.1084
  486MOL0     O64023   3.672   1.213   2.569 -0.4338 -0.0930  0.0799
  486MOL0     C64024   3.536   1.215   2.593  0.3295 -0.3138 -0.0869
  486MOL0     C64025   3.481   1.249   2.716 -0.3404 -0.2474  0.1127
  486MOL0     C64026   3.341   1.260   2.727 -0.1711 -0.5287  0.1594
  486MOL0     C64027   3.252   1.234   2.625 -0.1852 -0.3185 -0.1071
  486MOL0     O64028   3.109   1.230   2.626 -0.2495  0.4132 -1.0192
  486MOL0     C64029   3.044   1.216   2.760 -0.1597 -0.1117 -0.0373
  486MOL0     C64030   2.897   1.183   2.758  0.0664 -0.3272 -0.8720
  486MOL0     C64031   2.822   1.306   2.698 -0.0009 -0.0381 -0.8734
  486MOL0     C64032   2.674   1.313   2.738  0.6498  0.0189  0.0042
  486MOL0     C64033   2.590   1.218   2.649 -0.2940  0.0662  0.2086
  486MOL0     C64034   2.447   1.191   2.701  0.1231  0.3995  0.3328
  486MOL0     C64035   2.335   1.233   2.601 -0.5847 -0.3019  0.2887
  486MOL0     C64036   2.201   1.269   2.673  0.3913 -0.1248 -1.0868
  486MOL0     N64037   2.101   1.308   2.579  0.3018 -1.0999 -0.0368
  486MOL0     C64038   1.994   1.233   2.532  0.8641 -0.4770 -0.3441
  486MOL0     C64039   1.930   1.312   2.437 -0.3032  0.8900  0.4848
  486MOL0     C64040   1.826   1.256   2.352 -0.0103  0.0439  0.1454
  486MOL0     C64041   1.690   1.269   2.407  0.6049 -0.9086  0.2698
  486MOL0     C64042   1.665   1.420   2.458  0.0189 -0.0075 -0.8135
  486MOL0     C64043   1.519   1.448   2.505  0.5189 -0.2012 -1.2890
  486MOL0     O64044   1.434   1.456   2.392  0.5643 -0.6841  0.2089
  486MOL0     C64045   1.305   1.481   2.423  0.8750 -0.0243  1.2373
  486MOL0     C64046   1.220   1.474   2.317  0.1838  0.1062 -0.0016
  486MOL0     C64047   1.088   1.504   2.333 -0.0253 -0.2599 -0.6294
  486MOL0     C64048   1.045   1.560   2.454  0.3296 -0.0087 -0.2322
  486MOL0     C64049   0.909   1.600   2.471  1.1169  0.5049  0.7195
  486MOL0     O64050   0.826   1.560   2.371  0.4843  1.0939  0.5353
  486MOL0     C64051   0.701   1.610   2.380 -0.1701  0.3167  0.4262
  486MOL0     C64052   0.603   1.557   2.467 -0.8409 -0.4171 -0.0633
  486MOL0     C64053   0.477   1.613   2.482 -0.6345 -0.5197  0.1538
  486MOL0     C64054   0.438   1.715   2.394 -0.2470 -0.5780 -0.5083
  486MOL0     O64055   0.315   1.782   2.401 -0.2130  0.3810 -0.3603
  486MOL0     C64056   0.193   1.708   2.435 -0.0011  1.0417  0.3110
  486MOL0     C64057   0.069   1.755   2.357  0.5379 -1.1159  0.0566
  486MOL0     C64058  -0.003   1.868   2.438  0.0747 -0.4195  0.3971
  486MOL0     C64059  -0.110   1.932   2.349  0.1375  0.8052  0.2582
  486MOL0     C64060  -0.238   1.992   2.408 -0.3049 -0.7579 -0.5540
  486MOL0     C64061  -0.355   1.966   2.302  0.0073  0.1628  0.8803
  486MOL0     C64062  -0.489   2.039   2.343 -0.8081  0.2163  0.2048
  486MOL0     C64063  -0.606   2.017   2.246 -0.3057  0.0656 -0.0839
  486MOL0    Cl64064  -0.561   2.054   2.079 -0.3946 -0.3635  0.0319
  486MOL0     C64065   0.534   1.769   2.301 -0.3267 -0.1237  0.1440
  486MOL0     C64066   0.666   1.719   2.295  0.3008  0.5686 -0.0253
  486MOL0     O64067   0.874   1.665   2.571  0.2783 -0.5455 -0.3942
  486MOL0     C64068   1.126   1.563   2.569 -0.4783  0.5376 -0.5911
  486MOL0     C64069   1.252   1.515   2.554  0.4223  0.5891  0.7472
  486MOL0     N64070   1.996   1.437   2.429  0.8428  0.5307  0.0438
  486MOL0     N64071   2.096   1.427   2.512 -0.3783 -0.2501  0.4333
  486MOL0     C64072   3.306   1.203   2.501  0.2109 -0.2342 -0.0604
  486MOL0     C64073   3.445   1.199   2.481  0.0096  0.0647 -0.4014
  486MOL0     C64074   3.876   1.335   2.545  0.5236 -0.1942  0.1263
  486MOL0     C64075   3.948   1.232   2.607 -0.4807 -0.6723 -0.3329
  486MOL0     C64076   4.088   1.234   2.615 -0.4509 -0.0121 -0.6178
  486MOL0     C64077   4.157   1.335   2.556  0.1330 -0.7194 -0.5990
  486MOL0     O64078   4.293   1.349   2.556  0.1486  0.3084 -0.8131
  486MOL0     C64079   4.339   1.345   2.693 -0.3522 -0.1157 -0.1285
  486MOL0     C64080   4.473   1.419   2.700 -0.6242 -0.1764  0.7490
  486MOL0     C64081   4.573   1.344   2.622  0.4214 -0.1616  0.4452
  486MOL0     C64082   4.712   1.367   2.664  0.2199  0.3030  0.6126
  486MOL0     C64083   4.741   1.300   2.785 -0.2184  0.2551 -0.1984
  486MOL0     C64084   4.785   1.250   2.887  0.2116 -0.1707 -0.1246
  486MOL0     C64085   4.088   1.442   2.506  0.8341 -0.8189 -0.4545
  486MOL0     C64086   3.949   1.443   2.512  0.6637 -0.6524  0.0640
  486MOL0     H64087   3.535   1.280   2.805 -2.1387 -0.5160  1.3440
  486MOL0     H64088   3.282   1.302   2.808 -1.4409  1.7500 -1.8045
  486MOL0     H64089   3.065   1.306   2.820  1.1361 -0.5100  0.1456
  486MOL0     H64090   3.093   1.135   2.816 -0.0193 -1.5627 -2.1563
  486MOL0     H64091   2.871   1.163   2.862  0.0885 -2.5832 -1.2461
  486MOL0     H64092   2.882   1.093   2.698 -0.5549  0.2606 -1.6177
  486MOL0     H64093   2.818   1.295   2.590 -3.0318 -0.2193 -0.8426
  486MOL0     H64094   2.866   1.401   2.730  0.5438 -0.6060  0.1326
  486MOL0     H64095   2.657   1.280   2.841  0.0436 -1.3632 -0.5150
  486MOL0     H64096   2.637   1.416   2.736 -0.8228 -0.4753 -2.2612
  486MOL0     H64097   2.634   1.118   2.640  2.6156  1.2076  0.7212
  486MOL0     H64098   2.587   1.254   2.546 -0.3573  0.4798  0.3531
  486MOL0     H64099   2.436   1.261   2.784 -0.1179  0.5918  0.1393
  486MOL0     H64100   2.424   1.091   2.740  0.7506  0.2280  0.2700
  486MOL0     H64101   2.381   1.312   2.541  0.2848 -1.2767 -0.3555
  486MOL0     H64102   2.316   1.150   2.533  0.5245  0.0826 -0.5191
  486MOL0     H64103   2.213   1.344   2.752  1.5548 -1.4221  0.0216
  486MOL0     H64104   2.167   1.176   2.720  0.6252  1.0592  1.5861
  486MOL0     H64105   1.964   1.131   2.555 -1.3957  0.5396  1.6279
  486MOL0     H64106   1.846   1.151   2.332 -1.0135  0.0433 -0.9464
  486MOL0     H64107   1.833   1.297   2.251 -1.8264 -0.3914 -0.1895
  486MOL0     H64108   1.679   1.201   2.492 -4.1654  1.0883  1.5668
  486MOL0     H64109   1.616   1.237   2.333 -0.1739 -1.1555  1.1483
  486MOL0     H64110   1.733   1.441   2.541  4.0128 -2.1749 -3.2544
  486MOL0     H64111   1.685   1.491   2.378  0.4636 -0.4055 -1.0544
  486MOL0     H64112   1.528   1.543   2.558  0.0765  0.4409 -2.3379
  486MOL0     H64113   1.492   1.363   2.569  0.0227 -1.0734 -2.6256
  486MOL0     H64114   1.257   1.433   2.224 -1.8072 -1.5520 -0.1506
  486MOL0     H64115   1.009   1.488   2.260 -0.3155 -1.1232 -0.1445
  486MOL0     H64116   0.622   1.473   2.533 -0.4243  1.8006  2.8781
  486MOL0     H64117   0.408   1.583   2.560 -3.1746  1.4464 -1.1952
  486MOL0     H64118   0.160   1.702   2.539 -2.1526  0.4540 -0.3546
  486MOL0     H64119   0.206   1.603   2.409  1.3140  0.9305  1.3205
  486MOL0     H64120   0.000   1.670   2.352 -0.6169 -0.1451 -1.5555
  486MOL0     H64121   0.096   1.794   2.259 -1.0964  1.1398  0.4163
  486MOL0     H64122   0.070   1.942   2.472 -0.8406 -0.0572  1.6403
  486MOL0     H64123  -0.058   1.817   2.518 -1.6545 -0.7567 -0.9331
  486MOL0     H64124  -0.050   1.998   2.286  0.5178  0.7984  0.6102
  486MOL0     H64125  -0.151   1.846   2.296 -0.5100  0.9799  0.4627
  486MOL0     H64126  -0.226   2.098   2.432  2.8839 -0.9338 -1.0341
  486MOL0     H64127  -0.254   1.944   2.505 -0.7699 -1.6182 -1.0379
  486MOL0     H64128  -0.372   1.859   2.286 -1.7027  0.8193 -2.7054
  486MOL0     H64129  -0.317   2.002   2.205 -0.7235  1.2569  0.9873
  486MOL0     H64130  -0.517   2.002   2.442 -2.4203 -0.0285 -0.3115
  486MOL0     H64131  -0.463   2.145   2.347 -1.1962  0.3628 -0.8454
  486MOL0     H64132  -0.688   2.085   2.269  0.1939  0.6834 -0.0969
  486MOL0     H64133  -0.640   1.914   2.258  0.4964 -0.0855  1.1956
  486MOL0     H64134   0.493   1.854   2.248 -1.5276 -1.0955 -0.5594
  486MOL0     H64135   0.730   1.761   2.218 -0.6226  1.6972 -0.1946
  486MOL0     H64136   1.078   1.592   2.661 -2.0018  0.3613 -1.3002
  486MOL0     H64137   1.314   1.520   2.643  0.1706 -2.4320  1.2109
  486MOL0     H64138   3.230   1.185   2.426  0.2116  1.7690 -0.6123
  486MOL0     H64139   3.503   1.185   2.390  1.9879  0.7294  0.6980
  486MOL0     H64140   3.899   1.153   2.661 -1.0047  1.0736  1.8667
  486MOL0     H64141   4.134   1.150   2.665  1.5108  0.1541 -2.0557
  486MOL0     H64142   4.356   1.239   2.714 -1.0674 -0.6007 -1.8093
  486MOL0     H64143   4.268   1.387   2.764  2.3137  0.9024  2.1420
  486MOL0     H64144   4.462   1.522   2.663  0.6012 -0.2437  0.1365
  486MOL0     H64145   4.508   1.418   2.804  2.6216 -0.1193 -0.2367
  486MOL0     H64146   4.558   1.363   2.515  0.8080 -0.6855  0.2932
  486MOL0     H64147   4.546   1.238   2.631 -0.5384  0.0918  0.6488
  486MOL0     H64148   4.770   1.330   2.579 -2.2275 -0.1558 -0.9749
  486MOL0     H64149   4.729   1.475   2.674  0.0105  0.4818 -0.7614
  486MOL0     H64150   4.837   1.206   2.969  0.9384 -1.9817 -1.4862
  486MOL0     H64151   4.141   1.520   2.454 -0.5517 -1.2994 -2.7309
  486MOL0     H64152   3.890   1.526   2.476  1.1329  0.8190  2.4612
  487MOL0     O64153   7.256   2.245   4.089 -0.5044 -0.3758  0.0505
  487MOL0     C64154   7.217   2.128   4.115  0.5190 -0.1571 -1.2838
  487MOL0     O64155   7.084   2.099   4.135  0.5184  0.0141 -0.4864
  487MOL0     C64156   7.002   2.174   4.218 -0.8058 -1.0126  0.4757
  487MOL0     C64157   7.051   2.260   4.313  0.2417 -0.2741  0.7361
  487MOL0     C64158   6.963   2.342   4.394  0.8095  0.9142  0.7227
  487MOL0     C64159   6.825   2.330   4.386 -0.4178 -0.0336 -0.4045
  487MOL0     O64160   6.753   2.408   4.466  1.4000 -0.6115  0.1411
  487MOL0     C64161   6.764   2.401   4.608  0.4687 -0.1494 -0.1126
  487MOL0     C64162   6.783   2.541   4.670  0.6883 -0.7867 -0.8179
  487MOL0     C64163   6.645   2.588   4.736 -0.6139 -0.5158  0.7901
  487MOL0     C64164   6.533   2.622   4.642 -0.1443  0.9090 -0.1964
  487MOL0     C64165   6.399   2.647   4.708  0.1293 -0.0886 -0.2136
  487MOL0     C64166   6.288   2.666   4.604  0.6695  0.7418  0.6342
  487MOL0     C64167   6.159   2.711   4.677  0.0236  0.4429  0.4910
  487MOL0     C64168   6.094   2.606   4.778 -0.6132  0.4369 -0.2245
  487MOL0     N64169   5.961   2.665   4.816  0.2429  0.0114 -0.1012
  487MOL0     C64170   5.950   2.804   4.853  0.0824  1.3239 -1.6444
  487MOL0     C64171   5.819   2.838   4.838  0.4545 -0.2216  0.5447
  487MOL0     C64172   5.743   2.972   4.841  0.4740 -0.2546 -0.2411
  487MOL0     C64173   5.695   3.007   4.988 -0.0699 -0.2492 -0.3637
  487MOL0     C64174   5.628   3.144   4.996  0.2928  0.6471  0.4730
  487MOL0     C64175   5.477   3.133   4.969  0.0126 -0.2429 -0.4542
  487MOL0     O64176   5.409   3.262   5.010 -0.2110 -0.0625 -0.2197
  487MOL0     C64177   5.276   3.268   4.975  0.5252 -0.6562  1.1264
  487MOL0     C64178   5.208   3.201   4.872 -0.3706  0.7163 -0.0916
  487MOL0     C64179   5.069   3.235   4.845 -0.3425  0.1556 -0.0282
  487MOL0     C64180   4.998   3.331   4.921 -0.3632 -0.1967 -1.1555
  487MOL0     C64181   4.857   3.360   4.896  0.0366  1.3626  0.6444
  487MOL0     O64182   4.797   3.263   4.825  0.3678 -0.0546  0.0604
  487MOL0     C64183   4.664   3.277   4.800  0.4450  0.3967  0.4841
  487MOL0     C64184   4.630   3.281   4.667 -0.5235  0.6450  0.5622
  487MOL0     C64185   4.496   3.313   4.629  0.1818 -0.0420 -0.7307
  487MOL0     C64186   4.396   3.340   4.729 -0.2873  0.9805 -0.0629
  487MOL0     O64187   4.266   3.368   4.692  0.1757  0.0892 -0.3701
  487MOL0     C64188   4.164   3.367   4.792  0.0743  0.0925 -0.6133
  487MOL0     C64189   4.025   3.376   4.730  0.2510  0.4553  1.0577
  487MOL0     C64190   3.925   3.364   4.838  0.4039  0.5033  1.2255
  487MOL0     C64191   3.920   3.456   4.952 -0.2772  0.1153 -0.6869
  487MOL0     C64192   3.817   3.402   5.055  0.2170  1.1422 -0.0862
  487MOL0     C64193   3.847   3.464   5.185  0.4892  0.9531  0.1954
  487MOL0     C64194   3.750   3.420   5.300 -0.5280 -0.3633 -0.3642
  487MOL0     C64195   3.785   3.282   5.343  0.5199  0.0705 -0.2098
  487MOL0    Cl64196   3.916   3.299   5.461  0.4993  0.1089  0.2598
  487MOL0     C64197   4.434   3.323   4.869  0.5034  0.0547  0.0721
  487MOL0     C64198   4.566   3.301   4.892 -0.0290  0.0357 -0.0511
  487MOL0     O64199   4.799   3.446   4.957  0.0486  0.6061 -0.0923
  487MOL0     C64200   5.073   3.389   5.029  0.3039  0.0428  0.3964
  487MOL0     C64201   5.207   3.358   5.055 -1.0740 -0.2731 -0.3406
  487MOL0     N64202   5.751   2.716   4.811  0.0534  0.1358  0.0172
  487MOL0     N64203   5.833   2.619   4.795 -0.1047 -0.6620 -0.5979
  487MOL0     C64204   6.780   2.238   4.289  0.8232 -0.4130 -0.1201
  487MOL0     C64205   6.866   2.165   4.201  0.2162 -0.0894 -1.3514
  487MOL0     C64206   7.309   2.019   4.083  0.6037  1.1629 -0.1227
  487MOL0     C64207   7.441   2.032   4.061 -0.2445  0.5934  0.6250
  487MOL0     C64208   7.516   1.927   4.016 -0.3256  0.0961  0.1683
  487MOL0     C64209   7.468   1.796   4.016  0.2558  0.1235  0.2662
  487MOL0     O64210   7.540   1.682   3.984 -0.7875 -0.0077 -0.4986
  487MOL0     C64211   7.659   1.695   3.912 -0.4523 -0.5939 -0.4163
  487MOL0     C64212   7.739   1.559   3.884  0.2039  0.0309 -0.5665
  487MOL0     C64213   7.647   1.440   3.824  0.2941 -0.2129 -0.1290
  487MOL0     C64214   7.559   1.478   3.701  0.3125 -0.3830  0.1967
  487MOL0     C64215   7.647   1.533   3.590  0.5653  0.0158  0.5753
  487MOL0     C64216   7.730   1.579   3.509  0.5353 -0.7349 -0.9402
  487MOL0     C64217   7.332   1.783   4.042 -0.0101 -0.2565 -0.3088
  487MOL0     C64218   7.251   1.886   4.084 -0.8809 -0.1160  0.4741
  487MOL0     H64219   7.156   2.280   4.333  0.0786  0.8772  0.4852
  487MOL0     H64220   6.998   2.413   4.468 -1.1290  0.4950  2.1314
  487MOL0     H64221   6.843   2.335   4.644 -0.1534 -1.1902 -0.6092
  487MOL0     H64222   6.672   2.354   4.646  0.2635 -0.3114 -0.7996
  487MOL0     H64223   6.816   2.623   4.605  1.4424  0.0272  0.5221
  487MOL0     H64224   6.857   2.544   4.751  0.2796  1.1418 -0.4638
  487MOL0     H64225   6.660   2.684   4.786 -3.5036  1.3110 -1.5004
  487MOL0     H64226   6.620   2.510   4.808  1.0119 -0.2751  1.6583
  487MOL0     H64227   6.569   2.701   4.576 -1.0613  0.0948 -1.7233
  487MOL0     H64228   6.512   2.541   4.571  0.5838 -1.8897  2.5262
  487MOL0     H64229   6.412   2.735   4.771  3.7533  0.1329 -1.0850
  487MOL0     H64230   6.365   2.562   4.769 -0.6624  0.3979  0.0333
  487MOL0     H64231   6.265   2.578   4.543 -1.9921  2.9654 -1.8282
  487MOL0     H64232   6.325   2.744   4.537 -0.3682 -0.6725 -1.7205
  487MOL0     H64233   6.176   2.804   4.732 -0.7712  1.1374 -0.4040
  487MOL0     H64234   6.084   2.729   4.600  0.7425  0.1996 -0.2913
  487MOL0     H64235   6.152   2.592   4.869  0.4641 -1.1915 -1.1131
  487MOL0     H64236   6.078   2.511   4.726 -0.0293 -0.3760  1.0435
  487MOL0     H64237   6.023   2.878   4.885 -0.8414  1.7011 -0.3128
  487MOL0     H64238   5.654   2.955   4.780  0.0522  3.3849 -0.8201
  487MOL0     H64239   5.800   3.056   4.802 -1.5758  1.3139 -0.0441
  487MOL0     H64240   5.789   3.002   5.043  0.4526  2.4301 -0.8987
  487MOL0     H64241   5.622   2.935   5.026 -0.1733 -0.2447 -0.5479
  487MOL0     H64242   5.641   3.193   5.093 -3.0694  1.0844  0.8415
  487MOL0     H64243   5.665   3.210   4.917  0.1793  2.3867  1.8125
  487MOL0     H64244   5.430   3.055   5.029 -0.9383  1.4815  1.1630
  487MOL0     H64245   5.464   3.099   4.866 -0.3070 -1.3134 -0.0662
  487MOL0     H64246   5.265   3.133   4.810 -0.6462  0.9980 -0.6709
  487MOL0     H64247   5.027   3.191   4.755 -0.6950 -2.3358  1.2816
  487MOL0     H64248   4.704   3.267   4.589 -2.0487 -1.2919 -0.6069
  487MOL0     H64249   4.462   3.304   4.527 -3.7541 -1.2071  0.5231
  487MOL0     H64250   4.182   3.445   4.868 -2.4928 -0.4200  0.6298
  487MOL0     H64251   4.165   3.267   4.836  3.0053  0.7842  1.2555
  487MOL0     H64252   4.007   3.306   4.648  1.1300 -1.5536  2.5129
  487MOL0     H64253   4.021   3.483   4.705  1.2553  0.6241  1.5873
  487MOL0     H64254   3.950   3.264   4.876  0.1083 -0.9010 -1.8974
  487MOL0     H64255   3.821   3.370   4.803  0.4597  2.9416  1.3108
  487MOL0     H64256   4.019   3.453   4.999  0.7184  1.3755 -2.6222
  487MOL0     H64257   3.897   3.559   4.925  0.1599  1.5405  3.6286
  487MOL0     H64258   3.834   3.294   5.051 -1.4357  0.8417  0.3207
  487MOL0     H64259   3.710   3.403   5.033 -0.2602 -2.4618  1.3387
  487MOL0     H64260   3.847   3.573   5.171  0.3594  1.2877  2.4318
  487MOL0     H64261   3.947   3.440   5.221  0.8641  0.4382 -1.1396
  487MOL0     H64262   3.746   3.489   5.385 -1.6018 -1.5605  0.5941
  487MOL0     H64263   3.648   3.416   5.262 -0.2318 -1.5165 -1.0837
  487MOL0     H64264   3.823   3.222   5.261 -1.7876 -1.5746 -0.1692
  487MOL0     H64265   3.698   3.238   5.392 -0.1655  0.8442 -0.6999
  487MOL0     H64266   4.361   3.354   4.943 -0.0992 -1.1079 -0.0224
  487MOL0     H64267   4.598   3.300   4.996  1.7192 -0.5610 -0.5689
  487MOL0     H64268   5.029   3.458   5.100 -0.4716  0.8334 -0.8085
  487MOL0     H64269   5.256   3.404   5.140 -2.4578  3.4399 -1.3243
  487MOL0     H64270   6.673   2.227   4.275  0.7734 -2.3337  1.3578
  487MOL0     H64271   6.835   2.076   4.147 -0.2531 -0.9111  0.2223
  487MOL0     H64272   7.482   2.132   4.059  2.6072 -0.4669  0.7694
  487MOL0     H64273   7.617   1.943   3.978  0.1537  1.9081  1.9811
  487MOL0     H64274   7.724   1.751   3.979 -0.1776 -2.0029  0.5382
  487MOL0     H64275   7.650   1.752   3.819 -0.9537  0.1377  0.0713
  487MOL0     H64276   7.841   1.572   3.845  0.6866 -0.9804  0.3249
  487MOL0     H64277   7.751   1.524   3.987 -0.9108 -1.8617 -1.0310
  487MOL0     H64278   7.573   1.425   3.903  0.6737  1.0031  0.4741
  487MOL0     H64279   7.689   1.340   3.808 -1.1057 -0.3107 -4.6965
  487MOL0     H64280   7.498   1.396   3.662  2.2401 -1.8410  0.0893
  487MOL0     H64281   7.484   1.550   3.735  1.8343  1.8105 -0.8017
  487MOL0     H64282   7.809   1.625   3.454  1.0824 -1.7608 -1.0428
  487MOL0     H64283   7.295   1.680   4.039  0.1030 -0.3364  0.6834
  487MOL0     H64284   7.144   1.874   4.099 -0.7650  1.2278  3.0041
  488MOL0     O64285   1.974   5.243   4.796  0.0904 -0.1360 -0.5858
  488MOL0     C64286   2.002   5.134   4.843  0.8501  0.2297 -0.5781
  488MOL0     O64287   1.912   5.029   4.870  0.3959  0.2456  0.4432
  488MOL0     C64288   1.779   5.054   4.849  0.5002  0.2003 -0.1766
  488MOL0     C64289   1.725   5.111   4.740  0.2704  0.2376 -1.0102
  488MOL0     C64290   1.592   5.117   4.717 -0.0248 -1.0134 -0.0379
  488MOL0     C64291   1.496   5.082   4.810  0.5303  0.6370  0.2667
  488MOL0     O64292   1.364   5.121   4.788  0.0204  0.2164  0.5652
  488MOL0     C64293   1.310   5.053   4.675  0.0643  0.3088 -0.1434
  488MOL0     C64294   1.198   5.130   4.603  0.3627 -0.2647 -0.0811
  488MOL0     C64295   1.105   5.028   4.519 -0.0996 -0.2083 -0.6024
  488MOL0     C64296   0.983   5.104   4.455  0.4078 -0.7807 -0.1575
  488MOL0     C64297   0.864   5.119   4.549  0.1176  0.2921  0.9530
  488MOL0     C64298   0.739   5.172   4.472  0.5402 -0.8913 -0.3404
  488MOL0     C64299   0.674   5.068   4.375  0.1852  0.1060  0.1454
  488MOL0     C64300   0.620   4.939   4.446  0.0967  0.1914  0.2726
  488MOL0     N64301   0.518   4.870   4.362  0.6294  0.2437  0.2052
  488MOL0     C64302   0.427   4.930   4.282  0.0421  0.8092  1.0879
  488MOL0     C64303   0.357   4.827   4.224 -0.8984  0.1944  0.0615
  488MOL0     C64304   0.236   4.845   4.134 -0.2496  0.2109 -0.4970
  488MOL0     C64305   0.260   4.938   4.018 -0.3179 -0.1587  0.4408
  488MOL0     C64306   0.359   4.880   3.918  0.7427 -0.0642 -0.0514
  488MOL0     C64307   0.374   4.981   3.809  0.2739 -0.4593  0.1241
  488MOL0     O64308   0.418   5.106   3.865 -0.1096 -0.6527 -0.4708
  488MOL0     C64309   0.539   5.129   3.916  0.4326  0.8636 -0.9953
  488MOL0     C64310   0.550   5.237   4.011 -0.2565 -0.0698  0.1950
  488MOL0     C64311   0.674   5.267   4.067 -0.1419 -0.6552  0.5192
  488MOL0     C64312   0.783   5.197   4.025  0.7329 -0.4834 -0.2601
  488MOL0     C64313   0.907   5.224   4.101  0.1131 -0.8427 -0.3862
  488MOL0     O64314   1.008   5.133   4.086  0.1079  0.5405  1.0952
  488MOL0     C64315   1.123   5.142   4.146 -0.6657  0.2647 -0.3208
  488MOL0     C64316   1.187   5.021   4.147  0.2895  0.3291 -1.1377
  488MOL0     C64317   1.316   5.003   4.194  0.4907 -0.3895 -0.8510
  488MOL0     C64318   1.387   5.118   4.239  0.7614 -0.1244 -0.5733
  488MOL0     O64319   1.517   5.116   4.295 -0.3753  0.3178 -1.0815
  488MOL0     C64320   1.584   4.994   4.319 -0.0516 -0.7668  0.7752
  488MOL0     C64321   1.725   5.025   4.375  0.0613 -0.5153  1.4020
  488MOL0     C64322   1.810   4.901   4.410  0.3654 -1.2544 -0.3981
  488MOL0     C64323   1.936   4.937   4.502 -0.5743 -0.0186 -0.5291
  488MOL0     C64324   2.034   4.811   4.491 -0.0045 -0.1144 -0.8108
  488MOL0     C64325   2.171   4.845   4.557  0.0501 -0.5725  0.0900
  488MOL0     C64326   2.245   4.961   4.490  0.3538  0.9879 -0.4743
  488MOL0     C64327   2.399   4.954   4.515  0.5978 -0.5526  0.3455
  488MOL0    Cl64328   2.465   5.121   4.486  0.1671  0.3651 -0.4064
  488MOL0     C64329   1.326   5.241   4.234  0.2077  0.3418  0.0726
  488MOL0     C64330   1.198   5.254   4.179 -0.6498 -0.2720  0.5619
  488MOL0     O64331   0.908   5.321   4.183 -0.2500 -0.2571 -0.8072
  488MOL0     C64332   0.776   5.096   3.936  0.5473  0.5587  0.3688
  488MOL0     C64333   0.650   5.050   3.894  0.0969  0.4451  0.5888
  488MOL0     N64334   0.412   4.707   4.278  0.3104  0.3389 -0.1828
  488MOL0     N64335   0.509   4.730   4.353 -0.7309  0.6327 -0.4802
  488MOL0     C64336   1.546   5.028   4.924 -0.1578  0.2431  0.4311
  488MOL0     C64337   1.690   5.007   4.943  0.1227  0.3606  0.8990
  488MOL0     C64338   2.146   5.106   4.870  0.2644  0.0268  0.1474
  488MOL0     C64339   2.249   5.162   4.784 -0.5987  0.3552 -0.0437
  488MOL0     C64340   2.380   5.153   4.822  0.0032  0.3027  1.0456
  488MOL0     C64341   2.415   5.087   4.938 -0.6956  0.6726 -1.3794
  488MOL0     O64342   2.552   5.068   4.978  0.2745  0.4159  0.4546
  488MOL0     C64343   2.667   5.130   4.908  0.0590  0.2220  0.8202
  488MOL0     C64344   2.717   5.042   4.791 -0.6724  0.5396 -0.6138
  488MOL0     C64345   2.785   4.927   4.839  0.6675  0.4609 -0.0008
  488MOL0     C64346   2.792   4.813   4.735 -0.8031 -0.2839 -0.4441
  488MOL0     C64347   2.841   4.684   4.785  0.8145 -0.3446  0.1860
  488MOL0     C64348   2.888   4.585   4.828  0.0992 -0.5027  0.5606
  488MOL0     C64349   2.319   5.031   5.022 -1.0764 -0.0604 -0.1145
  488MOL0     C64350   2.186   5.028   4.980  0.6366 -0.6038 -1.3234
  488MOL0     H64351   1.790   5.138   4.657 -0.2452 -0.2080 -1.5650
  488MOL0     H64352   1.567   5.177   4.630  0.6982 -0.5390  0.0776
  488MOL0     H64353   1.264   4.962   4.714  1.1733 -0.0930  0.2426
  488MOL0     H64354   1.381   5.027   4.597 -1.4678 -2.6069 -0.6815
  488MOL0     H64355   1.245   5.193   4.527  7.7280 -2.0638  2.1435
  488MOL0     H64356   1.146   5.198   4.672  2.5180  0.2793  1.1249
  488MOL0     H64357   1.063   4.948   4.581  0.2771 -1.5970 -2.0770
  488MOL0     H64358   1.168   4.985   4.440 -0.3415 -1.0598 -0.3508
  488MOL0     H64359   1.025   5.200   4.424  0.5196 -0.6888  0.2669
  488MOL0     H64360   0.949   5.055   4.363 -1.7290 -1.2920  0.8447
  488MOL0     H64361   0.885   5.184   4.635  0.2352 -1.7393  2.5464
  488MOL0     H64362   0.828   5.031   4.602  2.1029 -0.2462  1.5080
  488MOL0     H64363   0.753   5.270   4.425  0.7705  0.1034  1.7173
  488MOL0     H64364   0.674   5.185   4.559  3.1092 -0.2713  1.5751
  488MOL0     H64365   0.601   5.126   4.317  0.1625  2.1166  2.0615
  488MOL0     H64366   0.735   5.029   4.292 -2.1162  0.5601 -1.8798
  488MOL0     H64367   0.570   4.972   4.537 -2.4028  0.8536 -1.2294
  488MOL0     H64368   0.696   4.863   4.463 -1.6137 -1.3391  1.4249
  488MOL0     H64369   0.401   5.033   4.261  0.7461  0.3727 -2.8900
  488MOL0     H64370   0.145   4.876   4.186  0.7079  1.9909  0.1931
  488MOL0     H64371   0.211   4.743   4.101  1.0214 -0.5758  0.8652
  488MOL0     H64372   0.312   5.028   4.050  0.7620  0.4024 -2.5971
  488MOL0     H64373   0.161   4.971   3.984  0.1987 -0.4440 -1.4391
  488MOL0     H64374   0.442   4.861   3.986 -0.2763 -0.2700  1.1807
  488MOL0     H64375   0.316   4.791   3.869 -2.7257  2.7044 -2.6177
  488MOL0     H64376   0.282   5.002   3.753  1.2699 -2.1361 -2.3219
  488MOL0     H64377   0.441   4.936   3.735 -1.2453 -1.3217 -0.7695
  488MOL0     H64378   0.465   5.298   4.040  1.0628  1.3955  1.1360
  488MOL0     H64379   0.673   5.349   4.138 -3.1688 -0.1083 -0.0066
  488MOL0     H64380   1.139   4.935   4.102 -0.3642  0.9914 -1.7407
  488MOL0     H64381   1.357   4.904   4.181  1.0325 -0.5065  1.3056
  488MOL0     H64382   1.597   4.946   4.221  2.0833 -1.1041  1.1740
  488MOL0     H64383   1.524   4.922   4.376 -0.7139 -0.9568 -0.1341
  488MOL0     H64384   1.705   5.084   4.465 -1.7779 -0.7009  1.1736
  488MOL0     H64385   1.780   5.087   4.304  3.6225 -0.9897  3.5451
  488MOL0     H64386   1.849   4.854   4.320  2.9864 -3.4021  1.6787
  488MOL0     H64387   1.750   4.831   4.469  0.3452  1.0580  2.5895
  488MOL0     H64388   1.986   5.026   4.463  0.4167 -0.5867 -0.5807
  488MOL0     H64389   1.905   4.958   4.605  0.5672 -3.7923  0.7407
  488MOL0     H64390   2.055   4.785   4.387 -0.8914  1.0048 -1.2983
  488MOL0     H64391   1.983   4.724   4.533 -0.9628  0.2551 -1.1885
  488MOL0     H64392   2.236   4.759   4.540 -1.6834 -2.1443  1.0130
  488MOL0     H64393   2.161   4.844   4.666  0.1224 -1.6532  0.1026
  488MOL0     H64394   2.224   4.952   4.383  0.4027  0.0834 -0.4152
  488MOL0     H64395   2.213   5.058   4.528  2.7607  1.8567 -0.4878
  488MOL0     H64396   2.450   4.882   4.451 -2.8906 -3.0788  0.1588
  488MOL0     H64397   2.415   4.919   4.617  1.5493 -0.9808  0.0670
  488MOL0     H64398   1.380   5.325   4.277  3.7733 -0.9419 -1.5235
  488MOL0     H64399   1.171   5.357   4.157  3.0830  0.3130 -2.1806
  488MOL0     H64400   0.870   5.053   3.904  0.0044 -1.9788  1.8617
  488MOL0     H64401   0.650   4.959   3.835 -1.8651  0.1296  1.0182
  488MOL0     H64402   1.475   4.987   4.996  0.0019 -0.6646  0.0832
  488MOL0     H64403   1.731   4.961   5.031  4.0841  2.8735  0.6325
  488MOL0     H64404   2.239   5.222   4.694 -2.5506  2.1045  1.2398
  488MOL0     H64405   2.450   5.204   4.757  0.2615  1.4241  2.1677
  488MOL0     H64406   2.752   5.155   4.973  0.1208 -0.9360  1.2144
  488MOL0     H64407   2.628   5.225   4.871 -3.8596 -0.7943  1.9451
  488MOL0     H64408   2.635   5.008   4.726 -1.1494 -0.9745  0.7005
  488MOL0     H64409   2.793   5.093   4.731  1.3835  1.0816  2.2545
  488MOL0     H64410   2.728   4.879   4.919  3.6241 -1.4331  1.1471
  488MOL0     H64411   2.884   4.952   4.877 -0.1349  2.7499  0.8115
  488MOL0     H64412   2.695   4.793   4.689  0.0220  0.2961 -2.5714
  488MOL0     H64413   2.855   4.840   4.649 -1.3228  3.8072  0.2696
  488MOL0     H64414   2.933   4.494   4.863 -0.1734 -0.5434  0.8036
  488MOL0     H64415   2.356   4.980   5.110 -2.0088 -3.3905 -1.5091
  488MOL0     H64416   2.103   4.990   5.039  0.0953  3.2981  0.7866
  489MOL0     O64417   0.996  11.222  10.121  0.0330  0.9079 -0.0728
  489MOL0     C64418   0.942  11.286  10.033 -0.2917 -1.0110 -0.2719
  489MOL0     O64419   0.856  11.240   9.940  0.2144 -0.1552 -1.3567
  489MOL0     C64420   0.808  11.115   9.938  0.1980  0.7221  0.2080
  489MOL0     C64421   0.818  11.010  10.032 -0.7576 -0.7902 -0.0474
  489MOL0     C64422   0.748  10.888  10.023  0.2749 -0.1000  0.3168
  489MOL0     C64423   0.647  10.875   9.922  0.0954 -0.2706  0.3032
  489MOL0     O64424   0.572  10.762   9.926  0.3798 -0.3243 -0.5814
  489MOL0     C64425   0.471  10.745   9.819 -0.6257 -0.1644  1.1748
  489MOL0     C64426   0.413  10.606   9.825  0.1614  0.9846 -0.4455
  489MOL0     C64427   0.309  10.578   9.717 -0.0555  0.0416 -0.3358
  489MOL0     C64428   0.374  10.567   9.581 -0.2095  0.4661  0.6153
  489MOL0     C64429   0.292  10.488   9.484 -0.7256  0.5966  0.4524
  489MOL0     C64430   0.183  10.574   9.433  0.0772 -0.3819 -0.0529
  489MOL0     C64431   0.041  10.507   9.444 -0.3581 -0.6113 -0.8256
  489MOL0     C64432   0.031  10.390   9.347 -0.9743  0.0836 -0.6065
  489MOL0     N64433  -0.093  10.306   9.370 -0.1831 -0.0265 -0.0982
  489MOL0     C64434  -0.132  10.236   9.483  0.1813  0.0428  1.2815
  489MOL0     C64435  -0.248  10.174   9.442 -0.0421 -0.5409 -0.2273
  489MOL0     C64436  -0.325  10.079   9.533 -1.2975 -0.9040 -0.7145
  489MOL0     C64437  -0.410   9.999   9.441 -0.1477  0.7655  0.7388
  489MOL0     C64438  -0.507   9.908   9.507 -0.1194 -0.0955 -1.3141
  489MOL0     C64439  -0.434   9.791   9.572  0.0972  0.6020  0.4551
  489MOL0     O64440  -0.371   9.703   9.475 -0.2242 -0.4907 -0.0524
  489MOL0     C64441  -0.234   9.678   9.491 -0.1993 -0.5507 -0.5493
  489MOL0     C64442  -0.184   9.666   9.622  0.3513  0.0188  0.4188
  489MOL0     C64443  -0.049   9.656   9.639 -0.0986  0.1219  0.2866
  489MOL0     C64444   0.044   9.659   9.525  0.7390 -0.0000 -0.3028
  489MOL0     C64445   0.189   9.662   9.544 -0.4668 -0.4502  0.2403
  489MOL0     O64446   0.264   9.687   9.429  0.1457  0.4269  0.1637
  489MOL0     C64447   0.397   9.673   9.434  0.6953  0.6496 -0.1849
  489MOL0     C64448   0.459   9.552   9.393  0.3838 -0.1224  0.1370
  489MOL0     C64449   0.596   9.539   9.396  0.4369 -0.5445 -0.8645
  489MOL0     C64450   0.675   9.652   9.433 -0.8618 -0.1077  0.3996
  489MOL0     O64451   0.812   9.650   9.433  0.0919  0.5705 -0.1654
  489MOL0     C64452   0.865   9.576   9.318  0.2008 -0.3843 -0.1439
  489MOL0     C64453   1.014   9.612   9.294  0.0445  0.4046 -0.3068
  489MOL0     C64454   1.105   9.576   9.403 -0.0307 -0.9687  0.2378
  489MOL0     C64455   1.257   9.574   9.355  1.0032 -0.1470 -0.0546
  489MOL0     C64456   1.314   9.435   9.354 -0.8041  0.1509  0.0178
  489MOL0     C64457   1.460   9.446   9.371 -0.0779  0.4694 -0.4839
  489MOL0     C64458   1.522   9.309   9.360  1.3456 -0.0526 -0.0598
  489MOL0     C64459   1.669   9.310   9.409 -0.2841  0.5354 -0.1609
  489MOL0    Cl64460   1.750   9.435   9.311  0.4008 -0.2474  0.1313
  489MOL0     C64461   0.608   9.765   9.468  0.2602  0.3203 -0.7359
  489MOL0     C64462   0.474   9.779   9.479  0.0672 -0.5677  0.2352
  489MOL0     O64463   0.233   9.646   9.656 -0.4770 -0.4085 -0.3208
  489MOL0     C64464  -0.014   9.676   9.396  0.3724 -0.0937 -0.7094
  489MOL0     C64465  -0.157   9.692   9.383 -0.1046 -0.3213 -1.0005
  489MOL0     N64466  -0.275  10.215   9.312  0.4067  0.0048  0.4564
  489MOL0     N64467  -0.187  10.292   9.271  0.1806  0.3292 -0.5421
  489MOL0     C64468   0.634  10.980   9.831  0.6220  0.3092  0.2792
  489MOL0     C64469   0.717  11.090   9.835 -0.0662  0.3105  0.2735
  489MOL0     C64470   0.996  11.428  10.015 -0.1885  0.2750  0.7511
  489MOL0     C64471   0.928  11.515   9.930  0.4875  0.7079  0.3107
  489MOL0     C64472   0.972  11.642   9.900 -0.6352  0.3906  0.0840
  489MOL0     C64473   1.080  11.703   9.978 -0.0232  0.0454  0.1420
  489MOL0     O64474   1.101  11.835   9.950  0.5430 -0.2306 -0.1383
  489MOL0     C64475   1.179  11.916  10.032 -0.3521  0.1754 -0.6837
  489MOL0     C64476   1.153  12.064  10.012 -0.3715  0.6254  0.2050
  489MOL0     C64477   1.008  12.098   9.973  0.2480  0.6726 -0.0616
  489MOL0     C64478   0.983  12.088   9.819  0.0204 -0.0895 -0.1700
  489MOL0     C64479   0.865  12.163   9.782  0.6010 -0.0415 -0.4497
  489MOL0     C64480   0.766  12.225   9.740  0.2705 -0.1751 -0.0345
  489MOL0     C64481   1.140  11.617  10.077  0.5041 -0.1065  0.0129
  489MOL0     C64482   1.103  11.482  10.092 -0.2840 -0.4909  0.1998
  489MOL0     H64483   0.881  11.020  10.120  1.1379  0.4490 -1.4597
  489MOL0     H64484   0.766  10.808  10.093 -2.0390  1.6377  3.1473
  489MOL0     H64485   0.515  10.756   9.720 -0.7632  3.0692  1.3878
  489MOL0     H64486   0.395  10.823   9.829  1.7587  3.0077 -2.7651
  489MOL0     H64487   0.357  10.585   9.917 -4.0740  1.6881 -2.6389
  489MOL0     H64488   0.490  10.529   9.817 -2.3174 -1.6269 -0.6593
  489MOL0     H64489   0.228  10.651   9.718 -0.8773 -0.7995 -1.8772
  489MOL0     H64490   0.261  10.484   9.745 -1.1479  0.0255 -2.0959
  489MOL0     H64491   0.420  10.661   9.548  2.7285 -0.7754  0.7865
  489MOL0     H64492   0.464  10.505   9.591 -0.2379  0.3500  0.1711
  489MOL0     H64493   0.248  10.396   9.526  0.0421  1.2657  2.8954
  489MOL0     H64494   0.356  10.459   9.400 -2.1447  2.0220 -1.1981
  489MOL0     H64495   0.195  10.599   9.327  2.1139  0.2454  0.2723
  489MOL0     H64496   0.177  10.668   9.488  1.0911 -1.7746  2.6691
  489MOL0     H64497   0.026  10.485   9.550  3.6758 -0.2290 -0.0150
  489MOL0     H64498  -0.031  10.586   9.423  0.9180  0.2179 -2.3681
  489MOL0     H64499   0.124  10.333   9.356 -1.7477 -1.1540 -0.1625
  489MOL0     H64500   0.014  10.433   9.248 -0.0623  1.6961 -0.1085
  489MOL0     H64501  -0.078  10.214   9.574 -1.2309  0.2757  2.1943
  489MOL0     H64502  -0.401  10.138   9.586  0.5510  2.2804 -1.2985
  489MOL0     H64503  -0.265  10.024   9.606 -1.6204 -0.6889 -0.2811
  489MOL0     H64504  -0.350   9.946   9.366  1.6314  1.2073  1.7888
  489MOL0     H64505  -0.478  10.067   9.389 -2.4866 -0.5968  1.8475
  489MOL0     H64506  -0.560   9.969   9.581  1.0027  1.4507 -1.7285
  489MOL0     H64507  -0.576   9.880   9.427  1.1574  0.9790 -2.8639
  489MOL0     H64508  -0.500   9.723   9.627  2.1445 -0.4932  1.6877
  489MOL0     H64509  -0.354   9.830   9.635  1.9569 -0.3754 -1.1685
  489MOL0     H64510  -0.251   9.643   9.704 -2.1585 -0.3695 -1.6446
  489MOL0     H64511  -0.022   9.630   9.741 -0.8582  1.1167  0.7464
  489MOL0     H64512   0.392   9.475   9.358  0.2474  0.6614 -1.3917
  489MOL0     H64513   0.635   9.444   9.362 -1.5664 -2.8153  2.5643
  489MOL0     H64514   0.812   9.618   9.233  0.8317  1.3311  0.2659
  489MOL0     H64515   0.856   9.467   9.326 -1.3264 -0.2123  1.0556
  489MOL0     H64516   1.014   9.721   9.291 -2.5251  0.5408  1.2979
  489MOL0     H64517   1.047   9.578   9.195  2.1313 -1.0336  0.8148
  489MOL0     H64518   1.082   9.475   9.439 -0.1992 -0.6237  1.1178
  489MOL0     H64519   1.094   9.656   9.476 -0.7987 -0.3075 -0.5845
  489MOL0     H64520   1.278   9.624   9.260 -0.5109 -2.4048 -1.6926
  489MOL0     H64521   1.308   9.636   9.430 -0.3831  0.5837  0.3090
  489MOL0     H64522   1.283   9.390   9.259 -3.7201 -0.5102  1.1514
  489MOL0     H64523   1.268   9.369   9.428  2.7679 -1.0239  1.3620
  489MOL0     H64524   1.483   9.485   9.471  1.5945 -2.5479  0.4331
  489MOL0     H64525   1.502   9.512   9.294  1.3518  1.0807  0.7817
  489MOL0     H64526   1.466   9.226   9.406  2.2363 -0.8120 -0.3076
  489MOL0     H64527   1.504   9.277   9.257 -2.4502 -1.0909  0.7556
  489MOL0     H64528   1.732   9.223   9.387  1.7814  1.9886 -0.3284
  489MOL0     H64529   1.681   9.338   9.514  1.5045 -0.4003 -0.0838
  489MOL0     H64530   0.659   9.851   9.510  1.9130 -1.7341  1.7991
  489MOL0     H64531   0.424   9.873   9.502  1.6524  0.1486  0.8815
  489MOL0     H64532   0.049   9.686   9.308  0.7701 -0.1962 -0.4365
  489MOL0     H64533  -0.210   9.695   9.289 -2.6713 -0.6041  0.3375
  489MOL0     H64534   0.563  10.976   9.749 -1.2945  2.1741  1.7154
  489MOL0     H64535   0.702  11.168   9.761  1.6645  0.3199 -0.0902
  489MOL0     H64536   0.844  11.492   9.866  0.5981  3.8563 -1.1811
  489MOL0     H64537   0.918  11.695   9.823  0.1531 -0.1557 -0.8758
  489MOL0     H64538   1.287  11.896  10.029 -0.0238  1.0013  2.4366
  489MOL0     H64539   1.134  11.906  10.131 -1.0052 -1.3000 -1.0985
  489MOL0     H64540   1.169  12.123  10.103 -0.6272 -1.4334  1.6474
  489MOL0     H64541   1.218  12.107   9.935 -1.1668  0.3234 -0.6551
  489MOL0     H64542   0.993  12.205   9.989 -1.4415  0.5649 -0.7669
  489MOL0     H64543   0.928  12.051  10.031 -1.1212 -1.3426 -3.3004
  489MOL0     H64544   1.063  12.147   9.775  1.1508 -0.1627  1.6888
  489MOL0     H64545   0.968  11.985   9.785  0.0551  0.3322 -1.5214
  489MOL0     H64546   0.685  12.282   9.699  1.6595  0.7022 -1.6957
  489MOL0     H64547   1.223  11.658  10.134 -1.6700  2.5056  1.5113
  489MOL0     H64548   1.150  11.411  10.158  1.3303  0.4308  0.0877
  490MOL0     O64549   7.784   5.029   9.572 -0.3642 -0.2558  0.8548
  490MOL0     C64550   7.772   4.934   9.651  0.6260  0.4093 -0.7251
  490MOL0     O64551   7.657   4.876   9.696  0.4864 -0.2103 -1.0796
  490MOL0     C64552   7.542   4.939   9.670  0.9663  0.1515 -1.2381
  490MOL0     C64553   7.516   5.068   9.719  0.4805 -0.3995 -0.0988
  490MOL0     C64554   7.390   5.124   9.694 -0.2688 -0.3059 -0.1647
  490MOL0     C64555   7.288   5.055   9.628 -0.0242 -0.7471  0.3335
  490MOL0     O64556   7.162   5.100   9.601 -0.1399 -1.0819  0.0389
  490MOL0     C64557   7.123   5.234   9.644 -0.5911  0.6882 -1.0950
  490MOL0     C64558   6.973   5.242   9.640  0.2836 -0.1073  0.5018
  490MOL0     C64559   6.912   5.343   9.747 -0.1663  0.2227  0.5646
  490MOL0     C64560   6.772   5.382   9.700 -0.9082 -0.0593 -0.2561
  490MOL0     C64561   6.696   5.477   9.798 -0.0618 -0.4269  0.3003
  490MOL0     C64562   6.735   5.627   9.780  0.4356 -0.4147 -0.7343
  490MOL0     C64563   6.718   5.685   9.632  0.8068  0.0870  0.5107
  490MOL0     C64564   6.712   5.832   9.644  0.3294 -0.2589  0.4781
  490MOL0     N64565   6.707   5.894   9.507 -0.1771  0.1528 -0.8896
  490MOL0     C64566   6.591   5.911   9.447 -0.2289 -1.1379 -0.2270
  490MOL0     C64567   6.623   5.967   9.330  1.1752  0.2617 -0.2465
  490MOL0     C64568   6.524   5.999   9.215 -0.8085 -0.7862  1.2157
  490MOL0     C64569   6.548   6.144   9.171 -0.2403 -0.7577 -0.1839
  490MOL0     C64570   6.514   6.261   9.269 -0.3515  0.6053 -0.6703
  490MOL0     C64571   6.365   6.280   9.291 -0.3673  0.5011  0.4221
  490MOL0     O64572   6.332   6.365   9.179  0.0215  0.3385 -0.0187
  490MOL0     C64573   6.199   6.408   9.170 -0.6291 -0.4222 -0.1363
  490MOL0     C64574   6.167   6.490   9.061 -0.3251 -0.8743  0.1210
  490MOL0     C64575   6.050   6.561   9.044 -0.3965 -0.0689 -0.4072
  490MOL0     C64576   5.950   6.538   9.137 -0.3502 -0.7850  0.3355
  490MOL0     C64577   5.816   6.611   9.121  0.5108  0.4445  0.0334
  490MOL0     O64578   5.799   6.705   9.023 -0.8864  0.8108  0.9700
  490MOL0     C64579   5.677   6.760   9.008  0.8662  0.3729  0.0966
  490MOL0     C64580   5.600   6.806   9.115  0.5305 -0.2261 -0.4908
  490MOL0     C64581   5.475   6.864   9.078 -0.5316  0.3282 -0.0484
  490MOL0     C64582   5.426   6.863   8.944 -1.0478  0.6222 -0.0496
  490MOL0     O64583   5.311   6.924   8.896  0.1724 -0.1826 -0.6783
  490MOL0     C64584   5.195   6.849   8.868  0.5662 -0.6141  0.1896
  490MOL0     C64585   5.074   6.944   8.862  0.6566  0.0403  0.4069
  490MOL0     C64586   4.950   6.879   8.812 -0.9084  1.0940  0.0338
  490MOL0     C64587   4.838   6.971   8.795 -0.6621  0.6559  0.0498
  490MOL0     C64588   4.710   6.903   8.751 -0.2007 -0.0387 -0.2613
  490MOL0     C64589   4.597   6.998   8.715 -0.0086 -0.0381  0.0489
  490MOL0     C64590   4.460   6.943   8.740  1.2134  0.8967  0.3978
  490MOL0     C64591   4.367   7.049   8.662 -0.4148  0.7907 -0.3405
  490MOL0    Cl64592   4.345   7.196   8.763  0.0564 -0.1484 -0.0748
  490MOL0     C64593   5.509   6.818   8.840 -1.3166 -0.8739 -0.1501
  490MOL0     C64594   5.639   6.776   8.876 -1.1355 -0.4721 -0.0533
  490MOL0     O64595   5.723   6.564   9.195 -0.4285  0.6531  0.4981
  490MOL0     C64596   5.974   6.452   9.246  0.7411 -0.0762 -0.0789
  490MOL0     C64597   6.093   6.393   9.263 -0.3887  0.9161  0.1478
  490MOL0     N64598   6.758   5.977   9.332  0.6818  0.3493  0.5371
  490MOL0     N64599   6.808   5.936   9.437 -0.9036  0.2155  0.0864
  490MOL0     C64600   7.316   4.921   9.590 -1.3010 -0.3153  0.1033
  490MOL0     C64601   7.445   4.864   9.609  0.1545 -0.0845 -0.5730
  490MOL0     C64602   7.908   4.863   9.678  0.3697  0.0911  0.7796
  490MOL0     C64603   8.028   4.886   9.607  0.2131 -0.8578 -0.1907
  490MOL0     C64604   8.138   4.816   9.633  0.4709 -0.1375  0.2129
  490MOL0     C64605   8.140   4.717   9.727 -0.1745  0.1338  0.8325
  490MOL0     O64606   8.248   4.642   9.769  0.0960  0.3218 -0.2255
  490MOL0     C64607   8.370   4.666   9.697 -0.9608  0.5635 -0.3369
  490MOL0     C64608   8.468   4.558   9.721 -0.3927  0.9832  0.1604
  490MOL0     C64609   8.602   4.588   9.644 -0.1567 -0.3058 -0.4017
  490MOL0     C64610   8.697   4.668   9.734  0.3020  0.2494 -0.2303
  490MOL0     C64611   8.818   4.694   9.653 -0.6577 -0.4611 -0.2615
  490MOL0     C64612   8.918   4.708   9.583 -0.0753  0.6993  0.1106
  490MOL0     C64613   8.023   4.680   9.796  0.1653 -0.1495 -0.1750
  490MOL0     C64614   7.903   4.756   9.779 -0.7115  0.8733 -0.0348
  490MOL0     H64615   7.594   5.116   9.777  1.1543 -2.3694  0.7097
  490MOL0     H64616   7.379   5.229   9.720 -1.1405  0.2600 -2.5892
  490MOL0     H64617   7.168   5.310   9.580  0.3653 -1.0216 -2.5524
  490MOL0     H64618   7.161   5.249   9.746 -0.9737  0.3492 -0.8995
  490MOL0     H64619   6.922   5.148   9.659 -2.7527  1.3090 -0.0238
  490MOL0     H64620   6.943   5.280   9.542 -0.1184  2.3853  1.5197
  490MOL0     H64621   6.973   5.434   9.756  0.8824 -0.1466 -1.8635
  490MOL0     H64622   6.911   5.291   9.843 -0.1004 -2.8100 -0.9422
  490MOL0     H64623   6.779   5.419   9.597 -2.2958  1.2241  0.0878
  490MOL0     H64624   6.721   5.285   9.699  1.1086 -1.1789 -0.0965
  490MOL0     H64625   6.713   5.431   9.896 -1.4165  0.1874  0.8476
  490MOL0     H64626   6.590   5.472   9.772  0.2357 -0.2589 -1.0250
  490MOL0     H64627   6.836   5.649   9.816  1.0129  0.6127 -2.8211
  490MOL0     H64628   6.665   5.684   9.842 -1.8536 -0.2510 -3.2851
  490MOL0     H64629   6.811   5.674   9.575  0.7119 -1.1636  0.5768
  490MOL0     H64630   6.634   5.638   9.580  1.9496 -0.9287 -0.4786
  490MOL0     H64631   6.799   5.880   9.688 -1.5210  2.4948  1.3769
  490MOL0     H64632   6.625   5.860   9.704  0.6499  1.5891  0.1244
  490MOL0     H64633   6.491   5.879   9.474 -1.3231  1.5225 -0.8074
  490MOL0     H64634   6.424   5.973   9.252 -1.6609 -0.8745 -1.0122
  490MOL0     H64635   6.540   5.926   9.135  0.6875  0.7353  0.0372
  490MOL0     H64636   6.482   6.158   9.084  1.1419  3.6523 -0.8083
  490MOL0     H64637   6.653   6.161   9.147 -0.4179 -0.2168 -0.6233
  490MOL0     H64638   6.559   6.230   9.364  2.7419  1.4539 -1.7237
  490MOL0     H64639   6.568   6.354   9.249  0.8623  0.2442  0.7355
  490MOL0     H64640   6.349   6.336   9.383 -2.1693  0.5810  0.0996
  490MOL0     H64641   6.304   6.189   9.285 -0.5990  0.7544 -2.2584
  490MOL0     H64642   6.226   6.522   8.976 -0.5319  3.1040  1.2709
  490MOL0     H64643   6.044   6.629   8.960  0.9696 -0.5282 -0.8979
  490MOL0     H64644   5.640   6.800   9.216  0.1239 -0.1116 -0.3197
  490MOL0     H64645   5.424   6.916   9.159 -0.9491 -1.7789  1.1090
  490MOL0     H64646   5.177   6.784   8.954 -1.7732  0.9111  0.9412
  490MOL0     H64647   5.201   6.796   8.772 -1.5060  0.2780 -0.4986
  490MOL0     H64648   5.093   7.030   8.797  2.3778 -1.4309 -1.1340
  490MOL0     H64649   5.055   6.994   8.958 -2.0023 -0.5505  0.2558
  490MOL0     H64650   4.923   6.795   8.876 -0.1020 -0.4710 -1.5763
  490MOL0     H64651   4.964   6.834   8.713 -0.9529  3.2228 -0.9886
  490MOL0     H64652   4.817   7.013   8.893 -0.7293 -1.0680  0.8057
  490MOL0     H64653   4.874   7.053   8.731  1.0192  0.1812  0.3372
  490MOL0     H64654   4.681   6.837   8.833 -0.6201 -0.2017 -0.5327
  490MOL0     H64655   4.721   6.847   8.657 -0.3960 -2.1518  0.9123
  490MOL0     H64656   4.607   7.031   8.611 -0.2074  0.6555  0.2399
  490MOL0     H64657   4.608   7.088   8.777 -1.5094 -0.3945  0.8608
  490MOL0     H64658   4.462   6.843   8.695  2.0103  0.1563  1.9799
  490MOL0     H64659   4.429   6.929   8.844 -1.3077 -1.1069 -0.4934
  490MOL0     H64660   4.265   7.008   8.660 -0.6813  1.4515 -1.6336
  490MOL0     H64661   4.403   7.083   8.565  1.7793 -1.0680 -0.2601
  490MOL0     H64662   5.489   6.832   8.735  1.2873  0.7178 -0.5183
  490MOL0     H64663   5.710   6.762   8.794 -0.8875  4.6828 -1.0594
  490MOL0     H64664   5.895   6.451   9.320  0.7392 -0.3908 -0.0869
  490MOL0     H64665   6.115   6.333   9.350  3.1195  1.1928 -0.4367
  490MOL0     H64666   7.238   4.877   9.529 -1.2970  2.4950 -2.1471
  490MOL0     H64667   7.476   4.770   9.565 -2.9177 -0.8179 -1.4487
  490MOL0     H64668   8.037   4.954   9.523  3.0862  1.5049  1.7777
  490MOL0     H64669   8.225   4.825   9.570 -0.9904 -2.4604 -2.3795
  490MOL0     H64670   8.422   4.759   9.722  2.5603 -0.4048 -3.1928
  490MOL0     H64671   8.362   4.665   9.588 -0.6562 -1.3577 -0.3866
  490MOL0     H64672   8.491   4.552   9.828  0.8148  2.5884  0.0209
  490MOL0     H64673   8.428   4.467   9.676  0.1961  2.2384 -3.1459
  490MOL0     H64674   8.586   4.637   9.548  2.1390 -2.5618 -2.0718
  490MOL0     H64675   8.657   4.494   9.630  0.2647 -0.4657  1.8550
  490MOL0     H64676   8.659   4.766   9.764  0.1988  0.0158  0.4048
  490MOL0     H64677   8.713   4.607   9.823  2.3906 -1.2977 -1.5726
  490MOL0     H64678   8.991   4.732   9.508  0.6663  1.3796  1.0220
  490MOL0     H64679   8.039   4.601   9.868  5.4328  1.1934  0.6126
  490MOL0     H64680   7.812   4.735   9.833  0.3315  0.0787  1.4811
  491MOL0     O64681   6.157   0.442   0.427 -1.2526  0.6137  0.1834
  491MOL0     C64682   6.083   0.520   0.368 -1.2204  0.5118  0.4628
  491MOL0     O64683   6.110   0.631   0.302  0.7618 -0.1285 -0.5157
  491MOL0     C64684   6.240   0.656   0.265 -1.1899 -0.9374 -0.2059
  491MOL0     C64685   6.259   0.785   0.233  0.0665 -0.5714 -1.7256
  491MOL0     C64686   6.386   0.836   0.200 -0.2995  0.0003  0.8965
  491MOL0     C64687   6.489   0.754   0.172  0.1753  0.4466 -0.0511
  491MOL0     O64688   6.606   0.801   0.129 -0.6807 -0.9679  0.0597
  491MOL0     C64689   6.734   0.728   0.145  0.6546  0.3754  1.2303
  491MOL0     C64690   6.850   0.834   0.129  0.6379  0.0747 -0.6525
  491MOL0     C64691   6.876   0.863  -0.016  0.0685 -0.4814 -0.3117
  491MOL0     C64692   6.944   0.747  -0.090 -0.0792 -0.5687 -0.8795
  491MOL0     C64693   7.087   0.712  -0.028 -0.2197  0.0253 -0.5492
  491MOL0     C64694   7.141   0.594  -0.117 -0.0764 -0.1703  0.1985
  491MOL0     C64695   7.289   0.568  -0.083  0.3416 -0.5943  0.2101
  491MOL0     C64696   7.379   0.668  -0.160  0.3540 -0.4833  0.0547
  491MOL0     N64697   7.514   0.679  -0.101  0.7633 -0.2082 -0.4560
  491MOL0     C64698   7.551   0.695   0.029  0.3839 -0.3375  0.4527
  491MOL0     C64699   7.688   0.699   0.025  0.5829  0.1635  0.5511
  491MOL0     C64700   7.775   0.727   0.148  0.9680  0.2429 -0.0492
  491MOL0     C64701   7.835   0.596   0.197  0.7112 -1.0967 -0.0480
  491MOL0     C64702   7.753   0.549   0.317 -0.3670  0.2964  0.8361
  491MOL0     C64703   7.602   0.545   0.320 -0.0496 -0.0259 -0.2202
  491MOL0     O64704   7.534   0.664   0.354 -0.1801 -0.8123 -0.3518
  491MOL0     C64705   7.401   0.664   0.364  0.8909 -0.0708 -0.6245
  491MOL0     C64706   7.327   0.548   0.337 -0.4777  0.5109  0.0245
  491MOL0     C64707   7.194   0.554   0.360  0.9870  0.2202 -0.3272
  491MOL0     C64708   7.127   0.673   0.406  0.3333 -0.8649  0.3171
  491MOL0     C64709   6.985   0.679   0.438 -0.5019  0.3312  1.0735
  491MOL0     O64710   6.939   0.788   0.501  0.1967  0.1306 -0.3076
  491MOL0     C64711   6.814   0.762   0.563 -0.6866 -0.3624  0.0807
  491MOL0     C64712   6.804   0.712   0.691 -0.4888  0.3461  0.1111
  491MOL0     C64713   6.676   0.702   0.746 -0.0876 -0.3979  0.5304
  491MOL0     C64714   6.559   0.736   0.682  0.4927  0.9520 -0.0736
  491MOL0     O64715   6.442   0.708   0.743 -0.0890  0.0643 -0.5015
  491MOL0     C64716   6.322   0.739   0.678 -0.0937  0.6722  0.4590
  491MOL0     C64717   6.207   0.690   0.759  0.6087 -0.3222 -0.5780
  491MOL0     C64718   6.067   0.744   0.723 -0.3720  0.8056  0.4475
  491MOL0     C64719   5.945   0.669   0.780  0.0665 -1.0297  0.7909
  491MOL0     C64720   5.810   0.730   0.740 -0.0298 -0.1179 -1.2426
  491MOL0     C64721   5.701   0.630   0.785  0.5956 -0.1524 -0.4526
  491MOL0     C64722   5.553   0.687   0.764 -0.9683 -0.3213 -0.5611
  491MOL0     C64723   5.449   0.614   0.850  0.2090  0.9647  0.4271
  491MOL0    Cl64724   5.472   0.432   0.814 -0.2175 -0.3707 -0.6034
  491MOL0     C64725   6.574   0.781   0.549  0.5841 -0.8016 -0.5383
  491MOL0     C64726   6.699   0.801   0.494  0.1765 -0.5985 -0.0353
  491MOL0     O64727   6.923   0.580   0.398  0.3411 -0.5531 -0.5861
  491MOL0     C64728   7.199   0.796   0.403 -0.0780  0.0626  0.0693
  491MOL0     C64729   7.336   0.783   0.387 -0.3256 -1.1233  0.5624
  491MOL0     N64730   7.723   0.667  -0.104  1.0863 -0.0144 -0.2213
  491MOL0     N64731   7.618   0.663  -0.175  0.1621 -0.0787 -0.3223
  491MOL0     C64732   6.469   0.612   0.183 -0.7472 -0.1061 -0.0288
  491MOL0     C64733   6.348   0.570   0.235 -0.3333  0.3211  1.0982
  491MOL0     C64734   5.940   0.502   0.368 -0.0413  0.2229  0.1933
  491MOL0     C64735   5.881   0.422   0.473 -0.1205 -0.7017 -0.5168
  491MOL0     C64736   5.743   0.416   0.490 -0.3083 -0.4850  0.2578
  491MOL0     C64737   5.656   0.491   0.403 -0.3804  0.2463 -0.0262
  491MOL0     O64738   5.519   0.489   0.436 -0.5074 -0.1465  0.2483
  491MOL0     C64739   5.433   0.525   0.327  0.1227  0.6296  0.2118
  491MOL0     C64740   5.289   0.516   0.360  0.4341 -0.1560  0.4489
  491MOL0     C64741   5.256   0.608   0.473  0.4057  0.8102  0.4659
  491MOL0     C64742   5.125   0.579   0.545 -0.8215 -0.1589 -0.0730
  491MOL0     C64743   5.002   0.574   0.467  0.5673 -0.1527  0.2216
  491MOL0     C64744   4.902   0.580   0.402 -1.1525 -0.2908 -0.3420
  491MOL0     C64745   5.713   0.562   0.304 -0.5395 -0.7398  0.7950
  491MOL0     C64746   5.853   0.569   0.283  1.4411 -0.5828 -0.1068
  491MOL0     H64747   6.180   0.858   0.240 -2.0177 -2.8657  1.8307
  491MOL0     H64748   6.406   0.942   0.194  1.2062 -0.2619  0.7684
  491MOL0     H64749   6.722   0.649   0.070 -1.7190  0.2443  1.6791
  491MOL0     H64750   6.745   0.681   0.243  0.5063  1.9536  2.0363
  491MOL0     H64751   6.942   0.801   0.179 -0.3735 -2.7317 -0.4628
  491MOL0     H64752   6.809   0.918   0.185  0.7229 -0.9801  1.0997
  491MOL0     H64753   6.946   0.947  -0.015 -0.8051  0.2868 -1.0927
  491MOL0     H64754   6.790   0.892  -0.077  0.7057  0.5309 -0.7667
  491MOL0     H64755   6.877   0.662  -0.080  0.4672 -0.7151  2.3993
  491MOL0     H64756   6.951   0.767  -0.198 -1.8441 -3.9968 -1.7524
  491MOL0     H64757   7.088   0.693   0.079 -2.5781 -1.3599 -0.7002
  491MOL0     H64758   7.165   0.788  -0.042  1.2731 -0.9092  2.1125
  491MOL0     H64759   7.136   0.625  -0.222  0.3403 -1.6620 -0.2899
  491MOL0     H64760   7.070   0.512  -0.102 -0.5011  0.2451  0.4866
  491MOL0     H64761   7.319   0.574   0.022  0.7603  2.7508  0.0106
  491MOL0     H64762   7.319   0.472  -0.127  1.1489 -1.0213  1.6110
  491MOL0     H64763   7.338   0.769  -0.163  1.3499 -0.0839 -2.6687
  491MOL0     H64764   7.391   0.651  -0.267  3.5182  2.3589 -0.1801
  491MOL0     H64765   7.484   0.721   0.111 -0.0584 -1.0843  0.3369
  491MOL0     H64766   7.710   0.783   0.215  1.5582  0.4425  0.3625
  491MOL0     H64767   7.848   0.795   0.102 -1.4625  2.2403 -1.1907
  491MOL0     H64768   7.938   0.615   0.228  0.3595  2.0561 -0.4873
  491MOL0     H64769   7.836   0.522   0.117  1.7484 -0.6887 -0.4293
  491MOL0     H64770   7.795   0.451   0.342  2.1670  0.9576 -0.4761
  491MOL0     H64771   7.785   0.616   0.398  0.0553 -1.6518  2.3541
  491MOL0     H64772   7.562   0.467   0.385 -0.7382  1.2668  0.9563
  491MOL0     H64773   7.568   0.511   0.221 -1.3583  1.7726 -0.4380
  491MOL0     H64774   7.361   0.447   0.318 -1.4752 -0.0108  0.9548
  491MOL0     H64775   7.135   0.464   0.342 -0.1508  0.0825  3.3062
  491MOL0     H64776   6.885   0.674   0.752  1.9961 -0.0525 -3.1485
  491MOL0     H64777   6.656   0.652   0.841 -2.0793 -0.8436 -0.0802
  491MOL0     H64778   6.311   0.691   0.580 -1.8146 -2.5624  2.0721
  491MOL0     H64779   6.318   0.847   0.661 -0.3667  0.4180 -1.3215
  491MOL0     H64780   6.219   0.722   0.863 -2.9861  0.2993 -0.2301
  491MOL0     H64781   6.195   0.582   0.748  0.0984 -0.1768 -1.5694
  491MOL0     H64782   6.056   0.738   0.615  5.3687 -0.6895 -0.3320
  491MOL0     H64783   6.071   0.848   0.758 -4.8887  0.8379  1.5411
  491MOL0     H64784   5.942   0.569   0.736 -2.3767 -1.1805  1.1640
  491MOL0     H64785   5.960   0.642   0.885  2.4987 -2.3256  0.1960
  491MOL0     H64786   5.796   0.729   0.632 -1.1651  0.8017 -1.1273
  491MOL0     H64787   5.802   0.832   0.781  0.3014  0.2330 -2.0415
  491MOL0     H64788   5.717   0.623   0.893 -1.5974  0.4957 -0.0249
  491MOL0     H64789   5.708   0.532   0.736 -0.1866  0.5756 -2.0951
  491MOL0     H64790   5.548   0.793   0.793  2.0597  0.0700 -1.1376
  491MOL0     H64791   5.524   0.687   0.659 -1.6560 -0.0557 -0.3794
  491MOL0     H64792   5.351   0.658   0.825  0.6019  1.0098 -1.1227
  491MOL0     H64793   5.476   0.630   0.955  0.6292 -2.6039  0.9823
  491MOL0     H64794   6.484   0.816   0.500 -0.0033 -0.9653  0.3993
  491MOL0     H64795   6.711   0.845   0.396 -1.4139 -0.7441 -0.3182
  491MOL0     H64796   7.149   0.883   0.445  0.2817  1.0617 -1.4990
  491MOL0     H64797   7.407   0.864   0.400  0.2514 -1.4462 -0.4553
  491MOL0     H64798   6.544   0.548   0.138 -1.2970  1.1964 -3.0444
  491MOL0     H64799   6.320   0.466   0.249  1.1195 -0.4718 -1.2091
  491MOL0     H64800   5.955   0.375   0.535 -0.7081 -1.4412 -0.3659
  491MOL0     H64801   5.694   0.364   0.571 -1.1480 -0.4504 -0.2130
  491MOL0     H64802   5.442   0.467   0.235 -1.8898  3.1603 -1.7519
  491MOL0     H64803   5.461   0.626   0.297  1.9405 -0.3929 -1.8587
  491MOL0     H64804   5.237   0.552   0.271 -1.2217 -2.0773  0.5603
  491MOL0     H64805   5.248   0.418   0.386  2.3961 -0.7683  1.4435
  491MOL0     H64806   5.262   0.713   0.441 -0.2280  1.0544  1.1393
  491MOL0     H64807   5.335   0.597   0.548  2.2962  0.7189 -1.4156
  491MOL0     H64808   5.129   0.483   0.597 -0.4408 -1.9417 -3.1889
  491MOL0     H64809   5.116   0.657   0.622 -1.0201  1.0023 -1.2343
  491MOL0     H64810   4.806   0.578   0.354  0.3781 -0.9131 -3.6649
  491MOL0     H64811   5.660   0.639   0.248  1.8929  2.4945  2.6194
  491MOL0     H64812   5.893   0.636   0.207 -0.0510 -1.7491 -2.0336
  492MOL0     O64813   1.219   4.153   3.444 -0.5430  0.4124  0.3824
  492MOL0     C64814   1.251   4.127   3.328  0.1181 -0.3449  0.3260
  492MOL0     O64815   1.173   4.069   3.234 -0.4417 -0.5596  0.0493
  492MOL0     C64816   1.032   4.058   3.247 -0.3122 -0.2173 -0.8845
  492MOL0     C64817   0.957   3.988   3.344 -0.6321 -0.1651  0.2561
  492MOL0     C64818   0.821   3.994   3.336 -1.2611 -0.4966 -0.3692
  492MOL0     C64819   0.749   4.054   3.235  0.2962  0.7528  0.8959
  492MOL0     O64820   0.610   4.043   3.236 -0.1329 -0.3602  0.3561
  492MOL0     C64821   0.545   4.087   3.119  0.8093 -0.1079 -0.3769
  492MOL0     C64822   0.393   4.090   3.151  1.1979 -0.3475  0.3028
  492MOL0     C64823   0.352   4.209   3.235  1.1695 -0.2824  0.0760
  492MOL0     C64824   0.209   4.201   3.287  1.5298  0.2818  0.3483
  492MOL0     C64825   0.191   4.094   3.394  0.8476  0.1064 -0.3819
  492MOL0     C64826   0.064   4.122   3.467 -0.2078 -0.4720  0.0734
  492MOL0     C64827   0.035   4.040   3.593 -0.2198 -0.0036  0.0146
  492MOL0     C64828   0.030   3.887   3.571 -0.3373  0.7907  1.0215
  492MOL0     N64829  -0.092   3.855   3.495 -0.0770 -0.3388  0.2458
  492MOL0     C64830  -0.111   3.879   3.361 -0.0503  0.6343 -0.3573
  492MOL0     C64831  -0.249   3.861   3.344 -1.1734 -0.3741 -0.9306
  492MOL0     C64832  -0.326   3.916   3.226  0.7702 -1.7242  0.2364
  492MOL0     C64833  -0.340   4.068   3.245 -0.3089  0.8640 -0.0785
  492MOL0     C64834  -0.443   4.131   3.150 -0.2447  0.5338 -0.7506
  492MOL0     C64835  -0.582   4.147   3.208  0.1851  0.1911  0.1424
  492MOL0     O64836  -0.564   4.206   3.336  0.0934  0.1352 -0.1142
  492MOL0     C64837  -0.680   4.222   3.410  0.2033 -0.8122  0.5067
  492MOL0     C64838  -0.806   4.224   3.354  0.0676 -0.3606  0.1087
  492MOL0     C64839  -0.916   4.248   3.443 -1.0949  0.2414  0.6912
  492MOL0     C64840  -0.901   4.272   3.582 -0.9848 -0.5907  0.0341
  492MOL0     C64841  -1.023   4.303   3.674 -0.0583 -0.2510  0.6867
  492MOL0     O64842  -1.148   4.288   3.617  0.4817 -0.1798  0.3121
  492MOL0     C64843  -1.263   4.291   3.687  0.9088 -0.1060  0.9063
  492MOL0     C64844  -1.287   4.378   3.793 -0.2910  0.0973 -0.0177
  492MOL0     C64845  -1.407   4.375   3.855  0.0043 -0.3988 -0.0170
  492MOL0     C64846  -1.506   4.281   3.814  0.1006  1.4561 -0.3514
  492MOL0     O64847  -1.632   4.296   3.860 -0.4043 -0.1397  0.4431
  492MOL0     C64848  -1.655   4.281   4.001  0.6325  0.1989 -1.3956
  492MOL0     C64849  -1.787   4.353   4.036  0.0970  0.2327 -0.3129
  492MOL0     C64850  -1.898   4.270   3.985 -0.0169 -0.1432  0.0349
  492MOL0     C64851  -2.024   4.340   4.031 -0.0735 -0.2737  0.0097
  492MOL0     C64852  -2.146   4.250   3.997 -0.4277  0.1292 -0.3972
  492MOL0     C64853  -2.167   4.131   4.079  0.5466  0.8086 -0.4624
  492MOL0     C64854  -2.226   4.175   4.212  0.5055  0.1803  0.1290
  492MOL0     C64855  -2.271   4.054   4.292 -0.1091  0.2957  0.7575
  492MOL0    Cl64856  -2.354   4.102   4.440 -0.3593 -0.1645 -0.3117
  492MOL0     C64857  -1.481   4.195   3.708  0.6655 -0.3266  0.7594
  492MOL0     C64858  -1.357   4.200   3.643  0.0023  0.1034 -0.0857
  492MOL0     O64859  -1.004   4.326   3.793 -0.0260  0.2891  0.0374
  492MOL0     C64860  -0.766   4.287   3.629  0.2715  0.7326  0.0381
  492MOL0     C64861  -0.662   4.246   3.547  0.3174 -0.0289  0.8160
  492MOL0     N64862  -0.308   3.799   3.452 -0.1993 -1.0318 -0.4673
  492MOL0     N64863  -0.214   3.808   3.544  0.4374 -0.5084  0.3176
  492MOL0     C64864   0.824   4.114   3.136  0.0733 -0.3249 -0.3693
  492MOL0     C64865   0.960   4.121   3.141 -1.0800 -0.8042 -0.8159
  492MOL0     C64866   1.397   4.148   3.288 -0.0988  0.0310 -1.0786
  492MOL0     C64867   1.471   4.256   3.348  0.4916 -0.1448  0.1545
  492MOL0     C64868   1.604   4.265   3.312 -0.7220  0.5790 -0.8207
  492MOL0     C64869   1.662   4.185   3.214 -0.6777 -0.3764  0.1790
  492MOL0     O64870   1.791   4.181   3.176 -0.2947 -0.7414  0.4439
  492MOL0     C64871   1.890   4.217   3.267 -0.1979  0.7728 -0.6419
  492MOL0     C64872   2.006   4.119   3.250 -0.1118  0.0235  1.0241
  492MOL0     C64873   2.137   4.163   3.325  0.1920 -0.2508 -0.4980
  492MOL0     C64874   2.256   4.078   3.277  0.1756  0.4145 -1.7136
  492MOL0     C64875   2.290   4.078   3.139 -0.1985 -0.0287 -0.0414
  492MOL0     C64876   2.310   4.076   3.015 -0.2245  0.1867 -0.0092
  492MOL0     C64877   1.584   4.093   3.151  0.0297 -0.7039  0.0069
  492MOL0     C64878   1.458   4.066   3.196 -0.6624  0.0352  0.6854
  492MOL0     H64879   1.005   3.921   3.414  1.5884 -0.8447 -1.7677
  492MOL0     H64880   0.757   3.930   3.395 -1.4129  0.5461  0.6399
  492MOL0     H64881   0.563   4.016   3.038 -3.5229  1.2198 -2.7828
  492MOL0     H64882   0.574   4.188   3.088  0.3425 -0.4152 -1.8607
  492MOL0     H64883   0.344   4.000   3.189 -1.7673  0.0744 -2.1545
  492MOL0     H64884   0.342   4.102   3.056 -0.1430  0.5551  1.1101
  492MOL0     H64885   0.352   4.295   3.168 -0.3751  0.7640  1.3529
  492MOL0     H64886   0.429   4.228   3.311 -0.0507  2.1715  0.7812
  492MOL0     H64887   0.190   4.298   3.333  1.6603 -0.2418  1.5675
  492MOL0     H64888   0.140   4.178   3.205  0.9857  0.0477  0.8603
  492MOL0     H64889   0.273   4.105   3.466  0.9654  3.4630 -0.8718
  492MOL0     H64890   0.193   3.993   3.351  0.9028 -0.0181 -0.0867
  492MOL0     H64891  -0.015   4.116   3.392  1.5915 -1.8773 -1.8340
  492MOL0     H64892   0.069   4.226   3.502 -0.2690 -0.1649 -0.8095
  492MOL0     H64893   0.111   4.067   3.667  0.5934 -0.7398 -0.5336
  492MOL0     H64894  -0.056   4.081   3.638  0.7497  2.7298 -0.3414
  492MOL0     H64895   0.031   3.834   3.667  1.3090 -1.8396 -0.3449
  492MOL0     H64896   0.118   3.851   3.517 -0.8860 -0.5331  0.9669
  492MOL0     H64897  -0.055   3.932   3.284  0.2817 -0.7869 -1.1261
  492MOL0     H64898  -0.425   3.870   3.222  0.5420 -1.5177  2.3601
  492MOL0     H64899  -0.284   3.894   3.127  1.4936  1.3168 -0.2347
  492MOL0     H64900  -0.243   4.114   3.223  1.1937 -2.1805 -0.3242
  492MOL0     H64901  -0.353   4.088   3.351 -0.8537  0.7734 -0.1258
  492MOL0     H64902  -0.396   4.226   3.122  1.5655 -0.4020 -1.0891
  492MOL0     H64903  -0.451   4.070   3.059  0.5456 -1.8417  0.6608
  492MOL0     H64904  -0.628   4.049   3.213  0.0816  0.2838  3.7200
  492MOL0     H64905  -0.635   4.218   3.143  0.9693 -0.1972 -0.9582
  492MOL0     H64906  -0.825   4.201   3.249 -0.2742 -3.2706  0.7381
  492MOL0     H64907  -1.018   4.253   3.404 -0.4018  0.4271 -1.2318
  492MOL0     H64908  -1.217   4.455   3.826 -0.1581  0.4194 -1.0100
  492MOL0     H64909  -1.435   4.447   3.931 -1.1430  1.8550 -2.4207
  492MOL0     H64910  -1.582   4.328   4.068  0.0929  2.2816 -2.1588
  492MOL0     H64911  -1.666   4.176   4.028  2.1165  0.1299 -0.9340
  492MOL0     H64912  -1.794   4.451   3.989 -1.2618 -0.7434 -2.2919
  492MOL0     H64913  -1.792   4.360   4.145 -0.3586 -0.9114 -0.2498
  492MOL0     H64914  -1.885   4.174   4.035 -2.7081  1.0203  3.3381
  492MOL0     H64915  -1.906   4.266   3.876 -1.7252  1.2310  0.0759
  492MOL0     H64916  -2.016   4.352   4.140 -1.8376 -2.4454  0.4484
  492MOL0     H64917  -2.044   4.442   3.996  1.1672 -0.1239 -0.3042
  492MOL0     H64918  -2.139   4.225   3.891  2.6556 -1.6516  0.1095
  492MOL0     H64919  -2.240   4.305   4.002 -1.0670 -1.0192  2.9942
  492MOL0     H64920  -2.076   4.072   4.089  1.3568  2.3739  2.2799
  492MOL0     H64921  -2.235   4.058   4.034  1.3395 -1.5704  1.9699
  492MOL0     H64922  -2.146   4.218   4.272 -0.2492  1.0881  0.5049
  492MOL0     H64923  -2.311   4.243   4.201 -1.3120 -2.2621 -2.2207
  492MOL0     H64924  -2.177   3.998   4.300 -0.1312  0.3596  1.6089
  492MOL0     H64925  -2.340   3.997   4.230  0.7688  0.0242  0.0207
  492MOL0     H64926  -1.559   4.121   3.689 -1.9343  2.3758  0.1431
  492MOL0     H64927  -1.335   4.132   3.561 -1.1046 -0.3697 -0.0132
  492MOL0     H64928  -0.744   4.311   3.732  0.0604  0.3200  0.1832
  492MOL0     H64929  -0.559   4.245   3.582  0.4687 -0.4414  0.3642
  492MOL0     H64930   0.762   4.170   3.067 -0.9090 -0.8217  0.0918
  492MOL0     H64931   1.018   4.169   3.063  2.2490 -3.9299 -0.4699
  492MOL0     H64932   1.421   4.325   3.415 -3.5684 -2.2382 -0.4038
  492MOL0     H64933   1.661   4.344   3.360 -2.6964  0.5625  1.7396
  492MOL0     H64934   1.855   4.206   3.370  1.2333 -0.1549 -0.2366
  492MOL0     H64935   1.939   4.314   3.251  1.1218  0.2308 -0.0142
  492MOL0     H64936   1.976   4.017   3.278  1.3348 -0.4156  1.0726
  492MOL0     H64937   2.026   4.109   3.143  1.2003 -0.2145  1.2679
  492MOL0     H64938   2.107   4.151   3.429  0.7802  2.8995  0.1064
  492MOL0     H64939   2.150   4.265   3.288 -4.4646  0.7765 -0.0044
  492MOL0     H64940   2.340   4.105   3.341  0.0830 -2.0813 -0.3898
  492MOL0     H64941   2.240   3.982   3.326  0.1626  2.1482  1.9498
  492MOL0     H64942   2.331   4.061   2.911  3.1555 -0.5813  0.6500
  492MOL0     H64943   1.623   4.021   3.079 -1.4380 -1.1047 -0.4333
  492MOL0     H64944   1.398   3.981   3.166  1.8545 -1.7781  0.4780
  493MOL0     O64945   1.946   4.599   7.077 -0.1751 -0.3297  0.7038
  493MOL0     C64946   1.962   4.615   6.958  0.7634  0.4625 -0.1828
  493MOL0     O64947   1.868   4.629   6.861 -0.1664 -0.3603  0.1394
  493MOL0     C64948   1.737   4.631   6.909  0.3583 -0.5457 -0.0089
  493MOL0     C64949   1.641   4.548   6.857 -0.4783  0.6504  0.8226
  493MOL0     C64950   1.511   4.554   6.913 -0.0864 -0.2562  0.4237
  493MOL0     C64951   1.473   4.636   7.024  0.8225  0.0841  0.3727
  493MOL0     O64952   1.336   4.631   7.063 -0.4636 -0.5450  0.0678
  493MOL0     C64953   1.235   4.650   6.968 -0.0892 -0.1255  0.9762
  493MOL0     C64954   1.111   4.651   7.046 -0.4183  0.1649  0.2958
  493MOL0     C64955   0.983   4.650   6.965  1.1564  0.2035  0.5174
  493MOL0     C64956   0.975   4.773   6.875 -0.7862  0.4065 -0.0060
  493MOL0     C64957   0.828   4.831   6.837 -0.7061  0.4737  0.5509
  493MOL0     C64958   0.712   4.748   6.890 -0.5351  0.7172 -0.5139
  493MOL0     C64959   0.575   4.788   6.830 -0.4278  0.6460  0.6056
  493MOL0     C64960   0.540   4.941   6.844 -0.5349  0.0258  0.1768
  493MOL0     N64961   0.402   4.971   6.804 -0.0409  0.2014 -0.1040
  493MOL0     C64962   0.290   4.905   6.839  0.3219 -0.5779  0.6602
  493MOL0     C64963   0.187   4.964   6.768  0.5403 -0.6205 -0.6552
  493MOL0     C64964   0.045   4.917   6.756  0.6918  0.5069 -0.4284
  493MOL0     C64965  -0.055   5.033   6.745  0.3339 -0.3918 -0.2772
  493MOL0     C64966  -0.080   5.101   6.890  0.0321  1.2973  0.1810
  493MOL0     C64967  -0.147   5.011   6.991 -0.6030 -0.5203  0.1163
  493MOL0     O64968  -0.272   4.971   6.932 -0.0876 -0.0274 -0.5147
  493MOL0     C64969  -0.386   5.051   6.952  0.8622  0.2456  0.1066
  493MOL0     C64970  -0.517   4.997   6.918 -0.1602 -0.1967  1.5795
  493MOL0     C64971  -0.638   5.064   6.945 -0.3824  0.4984 -0.3583
  493MOL0     C64972  -0.630   5.191   7.011  0.6483 -0.1355  0.7344
  493MOL0     C64973  -0.754   5.278   7.034  0.4006  0.4517 -0.4964
  493MOL0     O64974  -0.877   5.238   6.985  0.3451  0.3544  0.4483
  493MOL0     C64975  -0.985   5.318   6.995  0.3554 -0.0539  0.0969
  493MOL0     C64976  -1.028   5.395   6.888 -0.2053  0.0122  0.2380
  493MOL0     C64977  -1.130   5.485   6.908  0.1561 -0.4882  0.3073
  493MOL0     C64978  -1.201   5.493   7.027 -0.3887 -0.1452  0.6517
  493MOL0     O64979  -1.302   5.572   7.043 -0.4412 -0.0059  0.8048
  493MOL0     C64980  -1.289   5.672   7.148 -0.0602 -0.0037  0.3777
  493MOL0     C64981  -1.426   5.732   7.165  0.4673 -0.7224 -0.2401
  493MOL0     C64982  -1.543   5.643   7.216 -0.4415 -1.2914  0.9889
  493MOL0     C64983  -1.654   5.739   7.216  0.3989 -0.0983  0.4501
  493MOL0     C64984  -1.790   5.665   7.207  0.6113 -0.1458  0.0706
  493MOL0     C64985  -1.913   5.760   7.185 -0.0521 -0.5924  0.2264
  493MOL0     C64986  -2.046   5.713   7.114 -0.5120  0.1701  0.1085
  493MOL0     C64987  -2.123   5.845   7.102  0.8029  0.4053  0.5223
  493MOL0    Cl64988  -2.253   5.851   7.218 -0.5082 -0.3665 -0.6281
  493MOL0     C64989  -1.160   5.410   7.136 -0.8576  0.5550  0.3304
  493MOL0     C64990  -1.050   5.323   7.114  0.3631 -0.5378  0.7390
  493MOL0     O64991  -0.724   5.390   7.090  1.4266  0.7059 -0.4348
  493MOL0     C64992  -0.506   5.230   7.048 -0.6915  0.3185  0.5915
  493MOL0     C64993  -0.383   5.171   7.019 -1.1783  0.1242  1.0646
  493MOL0     N64994   0.250   5.054   6.683 -0.0495 -0.1919  0.2687
  493MOL0     N64995   0.376   5.059   6.706  0.3119  0.8012  0.1753
  493MOL0     C64996   1.561   4.715   7.074 -0.1775 -0.7284  0.5929
  493MOL0     C64997   1.696   4.709   7.019  0.4248 -0.0903 -0.6060
  493MOL0     C64998   2.097   4.621   6.910 -0.2987  0.1414  0.5668
  493MOL0     C64999   2.126   4.722   6.813  0.6051  0.8625 -0.0581
  493MOL0     C65000   2.250   4.763   6.780  0.1355  0.7551  0.1036
  493MOL0     C65001   2.361   4.698   6.836 -0.1683 -0.4844 -0.1436
  493MOL0     O65002   2.485   4.760   6.829  0.0586 -0.1209  0.1849
  493MOL0     C65003   2.521   4.829   6.711  0.0131 -0.1884  0.4127
  493MOL0     C65004   2.656   4.886   6.720 -0.4639 -0.1929  0.0793
  493MOL0     C65005   2.691   4.960   6.600 -0.5319 -0.4347 -0.4320
  493MOL0     C65006   2.840   5.009   6.607  0.4351 -0.9377 -0.0394
  493MOL0     C65007   2.924   4.891   6.601 -0.5735  1.1504  0.7571
  493MOL0     C65008   3.008   4.800   6.598  0.4686 -0.3612  0.0207
  493MOL0     C65009   2.342   4.589   6.915 -0.1556  0.2990 -0.5946
  493MOL0     C65010   2.212   4.546   6.957 -0.5032 -0.1483  0.4437
  493MOL0     H65011   1.668   4.475   6.781 -0.1024 -0.7308  2.2383
  493MOL0     H65012   1.441   4.491   6.860  0.5986  1.3215 -2.5255
  493MOL0     H65013   1.228   4.571   6.893  1.0956 -0.0855  0.8033
  493MOL0     H65014   1.251   4.745   6.916  0.2358 -0.8563 -0.3052
  493MOL0     H65015   1.115   4.745   7.101  1.1109  1.4925 -1.9702
  493MOL0     H65016   1.101   4.559   7.105 -4.3202 -1.0982 -1.9753
  493MOL0     H65017   0.902   4.647   7.038 -0.3704  2.7966 -0.9336
  493MOL0     H65018   0.962   4.562   6.902 -0.6227  0.2618  0.9796
  493MOL0     H65019   1.033   4.852   6.923  0.3557  0.5433 -1.5436
  493MOL0     H65020   1.027   4.767   6.779  1.1702  2.5086  0.8330
  493MOL0     H65021   0.813   4.839   6.729 -0.4126 -2.6925  0.1961
  493MOL0     H65022   0.814   4.933   6.875  3.5094  1.8523 -1.0317
  493MOL0     H65023   0.707   4.768   6.997 -0.2968  3.0797 -0.8874
  493MOL0     H65024   0.730   4.644   6.864 -0.2329  0.0466  2.1146
  493MOL0     H65025   0.586   4.767   6.723 -1.0116  0.8490  0.5046
  493MOL0     H65026   0.502   4.717   6.870  1.3499 -1.0312  1.0420
  493MOL0     H65027   0.603   5.011   6.789  0.2853  1.2723  2.5593
  493MOL0     H65028   0.551   4.961   6.951 -1.2936  2.9110 -0.2176
  493MOL0     H65029   0.287   4.817   6.902  3.0644 -1.2486 -0.0111
  493MOL0     H65030   0.017   4.855   6.841 -1.2603  3.1721  1.0404
  493MOL0     H65031   0.036   4.844   6.675 -0.2418  0.5940 -0.4100
  493MOL0     H65032  -0.154   4.996   6.718 -0.8129  1.9447  0.4412
  493MOL0     H65033  -0.028   5.119   6.682 -2.6738  3.8204  3.5118
  493MOL0     H65034   0.020   5.118   6.932  2.2620 -2.2888 -2.9698
  493MOL0     H65035  -0.120   5.203   6.884 -0.7254  1.2186  2.7941
  493MOL0     H65036  -0.141   5.055   7.091 -1.2189 -2.0546  0.8650
  493MOL0     H65037  -0.083   4.924   7.004  2.9626  1.6909 -1.3442
  493MOL0     H65038  -0.512   4.900   6.871  2.6202 -1.0096  3.3203
  493MOL0     H65039  -0.732   5.011   6.933  0.5245 -1.8548  2.0172
  493MOL0     H65040  -0.960   5.392   6.803 -1.2365  2.3719 -0.7801
  493MOL0     H65041  -1.158   5.553   6.828  0.6669 -0.8463 -0.1835
  493MOL0     H65042  -1.211   5.744   7.119 -1.2798  1.1319 -0.1900
  493MOL0     H65043  -1.267   5.626   7.245 -0.6224 -0.8836  0.0957
  493MOL0     H65044  -1.455   5.777   7.069  0.6834 -1.8880 -0.8694
  493MOL0     H65045  -1.415   5.809   7.242 -0.9668 -1.7546  1.0446
  493MOL0     H65046  -1.520   5.611   7.317  0.9204 -0.5638  0.9364
  493MOL0     H65047  -1.555   5.561   7.145  1.7146  0.0477 -1.0743
  493MOL0     H65048  -1.644   5.801   7.306  2.0686  1.8224 -0.9535
  493MOL0     H65049  -1.645   5.807   7.130  1.0688 -1.1104 -0.3033
  493MOL0     H65050  -1.807   5.604   7.296  2.4859 -0.3901  0.3151
  493MOL0     H65051  -1.797   5.600   7.119 -3.1094  2.2639 -1.6471
  493MOL0     H65052  -1.870   5.841   7.124  0.1494 -0.8717 -0.0038
  493MOL0     H65053  -1.934   5.805   7.283  2.7121  2.8955 -0.5729
  493MOL0     H65054  -2.021   5.676   7.014 -0.9271  0.3072 -0.0483
  493MOL0     H65055  -2.100   5.637   7.170 -0.3079 -1.1540 -1.4130
  493MOL0     H65056  -2.170   5.849   7.003  0.0905 -2.4224  0.6724
  493MOL0     H65057  -2.060   5.934   7.118 -0.0936  1.6373 -2.1142
  493MOL0     H65058  -1.221   5.411   7.226 -1.1524  2.4373  0.1484
  493MOL0     H65059  -1.020   5.274   7.206 -0.8194 -1.1388  0.8083
  493MOL0     H65060  -0.496   5.321   7.106 -0.6277  0.0733  0.9655
  493MOL0     H65061  -0.290   5.217   7.051 -0.9550 -0.2150  0.9027
  493MOL0     H65062   1.524   4.787   7.146  1.2879  1.5375 -0.7600
  493MOL0     H65063   1.773   4.771   7.063  1.7654 -2.4667  0.6295
  493MOL0     H65064   2.050   4.793   6.782  0.2100  0.3650 -0.2472
  493MOL0     H65065   2.250   4.851   6.716 -0.3568 -0.3260 -1.4544
  493MOL0     H65066   2.453   4.913   6.700  0.6696  0.3473  0.3990
  493MOL0     H65067   2.511   4.754   6.632 -2.9927  0.6400 -0.1272
  493MOL0     H65068   2.667   4.942   6.813  2.7732 -0.0298 -0.2837
  493MOL0     H65069   2.726   4.802   6.725  1.3950  1.1568 -1.3949
  493MOL0     H65070   2.633   5.052   6.587 -1.1521 -0.9152 -1.1644
  493MOL0     H65071   2.681   4.894   6.514 -1.0594 -0.4685 -0.3485
  493MOL0     H65072   2.858   5.075   6.521 -7.1348  0.3011 -1.3401
  493MOL0     H65073   2.851   5.061   6.702  1.9616  1.4092 -1.4060
  493MOL0     H65074   3.079   4.720   6.607  1.7061  0.6187 -0.6335
  493MOL0     H65075   2.423   4.530   6.955  0.2341  2.2435  1.6871
  493MOL0     H65076   2.198   4.471   7.035 -1.6732 -0.0034  0.3863
  494MOL0     O65077   2.869   0.167   1.861  0.1140  0.0674 -0.1372
  494MOL0     C65078   2.807   0.162   1.755 -0.2739  0.0302  0.2565
  494MOL0     O65079   2.772   0.267   1.668 -0.2679 -0.2392 -0.2422
  494MOL0     C65080   2.785   0.394   1.705  0.0284 -0.0442 -0.1374
  494MOL0     C65081   2.665   0.468   1.686 -0.8787  0.0438 -0.3675
  494MOL0     C65082   2.670   0.606   1.721  0.9388  0.3125 -0.6566
  494MOL0     C65083   2.783   0.665   1.791  0.6590  0.5874 -0.3253
  494MOL0     O65084   2.771   0.799   1.825  0.6405 -0.2300  0.2145
  494MOL0     C65085   2.858   0.853   1.934  0.0225  0.1177  0.3281
  494MOL0     C65086   2.780   0.979   1.985  0.1864 -1.2921  0.4305
  494MOL0     C65087   2.638   0.953   2.033 -0.3293  0.0030  0.2497
  494MOL0     C65088   2.565   1.081   2.090 -0.1372 -0.2370  0.2327
  494MOL0     C65089   2.417   1.050   2.124  0.2212 -0.8150 -0.4740
  494MOL0     C65090   2.358   1.185   2.191  0.3059 -0.4090 -0.1741
  494MOL0     C65091   2.201   1.198   2.204 -0.3024 -0.1075 -0.5392
  494MOL0     C65092   2.131   1.200   2.066 -0.1027 -0.6199  0.6702
  494MOL0     N65093   2.189   1.313   1.990  0.0935 -0.2745  0.1590
  494MOL0     C65094   2.173   1.447   2.016 -0.2026  0.5072  0.7232
  494MOL0     C65095   2.243   1.508   1.916 -0.1003  0.2298 -0.2129
  494MOL0     C65096   2.270   1.654   1.899  0.4664  0.7502  0.2934
  494MOL0     C65097   2.238   1.736   2.025  0.2822  0.1894 -0.3329
  494MOL0     C65098   2.258   1.879   1.999  0.5923 -0.4212 -0.1367
  494MOL0     C65099   2.118   1.947   1.949 -0.8105 -0.2396  0.2671
  494MOL0     O65100   2.019   1.937   2.046  0.5701 -0.0211  0.0264
  494MOL0     C65101   1.888   1.951   2.002  0.6174  0.4509 -0.1583
  494MOL0     C65102   1.839   1.996   1.875 -0.0279  0.0502 -0.0782
  494MOL0     C65103   1.698   2.016   1.854 -0.2202 -0.6991  0.7683
  494MOL0     C65104   1.608   1.962   1.945  0.0012 -0.9160  0.4696
  494MOL0     C65105   1.470   1.960   1.928 -0.1202  0.1222 -0.1059
  494MOL0     O65106   1.396   1.955   2.042  0.1390 -0.4775 -0.1582
  494MOL0     C65107   1.257   1.961   2.043 -0.6381 -0.0207  0.4814
  494MOL0     C65108   1.172   2.032   1.965 -0.1133 -1.2329  0.3998
  494MOL0     C65109   1.033   2.048   1.991 -0.5400  0.5651  0.1540
  494MOL0     C65110   0.979   1.974   2.085 -0.0804  0.5370 -0.3654
  494MOL0     O65111   0.846   1.964   2.101 -0.6934  0.2082 -0.2250
  494MOL0     C65112   0.772   2.084   2.077 -0.1453 -0.7574 -0.2508
  494MOL0     C65113   0.626   2.072   2.137  1.2999 -0.1156 -0.7768
  494MOL0     C65114   0.527   2.175   2.083  0.7687  0.0522  0.4514
  494MOL0     C65115   0.388   2.149   2.137  0.2393  0.7138  0.8448
  494MOL0     C65116   0.282   2.239   2.067 -0.0416 -0.2905  0.7589
  494MOL0     C65117   0.316   2.391   2.083 -0.9220 -0.2592 -0.6970
  494MOL0     C65118   0.199   2.489   2.042 -0.2027 -0.3598  1.3590
  494MOL0     C65119   0.212   2.619   2.132 -0.7379  0.4410  0.3111
  494MOL0    Cl65120   0.172   2.579   2.298  0.1472 -0.0849  0.1504
  494MOL0     C65121   1.060   1.885   2.167 -0.0944  0.1603 -0.6063
  494MOL0     C65122   1.201   1.891   2.150 -0.6046 -0.2079  0.4026
  494MOL0     O65123   1.427   1.964   1.812 -0.8013 -0.2020 -0.6623
  494MOL0     C65124   1.659   1.916   2.068  0.8689 -0.2393  0.7440
  494MOL0     C65125   1.792   1.906   2.093  0.4413  0.3305  0.6899
  494MOL0     N65126   2.313   1.413   1.842  0.2704 -0.0858  0.6644
  494MOL0     N65127   2.278   1.295   1.889  0.4261 -0.1695  0.5989
  494MOL0     C65128   2.898   0.583   1.792  0.4009 -0.4828  0.3322
  494MOL0     C65129   2.894   0.447   1.766  0.5175 -0.4975  0.4309
  494MOL0     C65130   2.784   0.034   1.702 -0.0926  0.0650  0.6167
  494MOL0     C65131   2.852  -0.075   1.755  0.2944  0.4004 -0.3480
  494MOL0     C65132   2.811  -0.208   1.718 -0.0826  0.3025  0.4635
  494MOL0     C65133   2.701  -0.234   1.639  0.2160 -0.6805  0.4621
  494MOL0     O65134   2.675  -0.359   1.601 -0.6948  0.0425 -0.0339
  494MOL0     C65135   2.554  -0.418   1.654 -0.3625  0.2339 -0.2405
  494MOL0     C65136   2.591  -0.493   1.788 -0.9079 -0.1479  0.9563
  494MOL0     C65137   2.470  -0.566   1.846 -0.2357 -0.0292 -1.1404
  494MOL0     C65138   2.382  -0.475   1.929  0.1781 -0.3310  0.0183
  494MOL0     C65139   2.275  -0.550   2.002  0.3085 -0.4317  0.1788
  494MOL0     C65140   2.194  -0.606   2.067  0.2165  0.1426 -0.1959
  494MOL0     C65141   2.633  -0.125   1.587  0.8173  0.4194 -0.2017
  494MOL0     C65142   2.669   0.008   1.627 -0.5718 -0.0493  0.1157
  494MOL0     H65143   2.582   0.417   1.639  0.5493 -2.9616  0.1112
  494MOL0     H65144   2.578   0.660   1.703  0.1041 -1.5419 -2.4084
  494MOL0     H65145   2.958   0.879   1.899 -0.2147  0.9472  0.2302
  494MOL0     H65146   2.864   0.787   2.020  1.3262  0.0480  0.1974
  494MOL0     H65147   2.772   1.048   1.900 -3.6532 -2.5343 -0.4265
  494MOL0     H65148   2.836   1.034   2.061  4.4702 -2.2822 -1.6386
  494MOL0     H65149   2.644   0.872   2.106  0.7790 -1.4505 -1.3527
  494MOL0     H65150   2.572   0.911   1.956  0.2303 -0.5693  0.0732
  494MOL0     H65151   2.615   1.135   2.171 -1.1569 -1.2034  1.5720
  494MOL0     H65152   2.547   1.152   2.009 -1.2106 -0.1909  0.4939
  494MOL0     H65153   2.399   0.978   2.205 -0.0697  0.1480  0.3334
  494MOL0     H65154   2.368   1.024   2.030 -0.2140 -2.3673  0.1424
  494MOL0     H65155   2.390   1.267   2.126  4.3559 -2.3171 -0.8688
  494MOL0     H65156   2.397   1.213   2.289  1.5920  0.3884 -0.8856
  494MOL0     H65157   2.166   1.110   2.258  3.2100 -2.3749 -1.5899
  494MOL0     H65158   2.183   1.285   2.268  1.9265  0.8989 -1.1837
  494MOL0     H65159   2.024   1.217   2.076 -0.1242 -1.1186  1.3639
  494MOL0     H65160   2.153   1.104   2.018  2.7301  0.1623  0.1751
  494MOL0     H65161   2.115   1.496   2.093 -1.1713 -1.2843  1.1766
  494MOL0     H65162   2.219   1.679   1.805 -1.7618 -4.2071 -0.1042
  494MOL0     H65163   2.375   1.669   1.874  0.3767 -0.6230 -1.0408
  494MOL0     H65164   2.310   1.703   2.099 -0.5192 -1.7922 -0.3799
  494MOL0     H65165   2.137   1.719   2.062  1.8427 -1.6926  3.5133
  494MOL0     H65166   2.290   1.935   2.087 -2.2574  1.3544 -0.1057
  494MOL0     H65167   2.334   1.894   1.923 -0.1209  1.8916 -0.4599
  494MOL0     H65168   2.085   1.907   1.852  2.1225  0.5362 -1.1521
  494MOL0     H65169   2.140   2.051   1.922 -1.2378 -0.3077 -0.3735
  494MOL0     H65170   1.907   2.018   1.793  0.2860 -0.2848  0.0892
  494MOL0     H65171   1.669   2.058   1.758  1.0474  0.3031  0.7911
  494MOL0     H65172   1.221   2.083   1.882  1.9911 -2.4444  0.8239
  494MOL0     H65173   0.973   2.106   1.921 -0.5850  0.5493  0.1800
  494MOL0     H65174   0.761   2.111   1.971 -0.6029 -2.2188 -0.6008
  494MOL0     H65175   0.818   2.165   2.135 -1.1653 -0.7409  0.5513
  494MOL0     H65176   0.626   2.089   2.245 -1.3382  1.5015 -0.9461
  494MOL0     H65177   0.590   1.975   2.103 -2.1252  1.1550 -1.1643
  494MOL0     H65178   0.522   2.180   1.974  0.3445  2.4972  0.5261
  494MOL0     H65179   0.559   2.269   2.130 -1.2218  0.7152  0.5565
  494MOL0     H65180   0.356   2.046   2.121  2.1306  0.3829 -1.2481
  494MOL0     H65181   0.392   2.149   2.246  1.8839  0.1800  0.8105
  494MOL0     H65182   0.183   2.215   2.107  0.3690 -0.7411  1.5274
  494MOL0     H65183   0.282   2.223   1.959  2.1540  0.3419  0.6269
  494MOL0     H65184   0.401   2.425   2.022 -0.8210  3.2653  1.1296
  494MOL0     H65185   0.341   2.412   2.187 -4.9127 -2.8493  1.0011
  494MOL0     H65186   0.210   2.523   1.938  1.2168  0.6350  1.8018
  494MOL0     H65187   0.099   2.446   2.048 -1.0477  1.1703 -0.4535
  494MOL0     H65188   0.154   2.703   2.092 -1.4577  0.7318  1.8893
  494MOL0     H65189   0.316   2.654   2.131 -1.1032  1.7755  2.3325
  494MOL0     H65190   1.026   1.814   2.242  1.6251 -1.5043 -1.3100
  494MOL0     H65191   1.275   1.835   2.208  1.7762  0.3636 -1.8811
  494MOL0     H65192   1.597   1.876   2.148 -2.2570  0.6798 -1.0601
  494MOL0     H65193   1.834   1.860   2.182  3.1499 -2.4032 -1.7698
  494MOL0     H65194   2.997   0.609   1.829 -0.0043  1.0074  0.4284
  494MOL0     H65195   2.981   0.384   1.784 -0.3842 -1.4421  1.7338
  494MOL0     H65196   2.925  -0.069   1.836  0.8691 -0.2851 -0.8020
  494MOL0     H65197   2.870  -0.292   1.755 -0.0623 -0.0203 -0.2872
  494MOL0     H65198   2.509  -0.495   1.592 -2.1317 -0.4697  1.7971
  494MOL0     H65199   2.482  -0.339   1.677  0.6368  1.3424 -0.7869
  494MOL0     H65200   2.673  -0.560   1.765  0.2289  2.0226 -1.9221
  494MOL0     H65201   2.637  -0.416   1.851  3.0708  1.6419 -3.5280
  494MOL0     H65202   2.506  -0.648   1.909 -2.2243 -0.0797  0.0248
  494MOL0     H65203   2.410  -0.604   1.763 -1.4174  0.9809 -0.7726
  494MOL0     H65204   2.439  -0.415   2.001  1.1430  1.0053 -1.7873
  494MOL0     H65205   2.341  -0.403   1.856  0.7270  1.1507  1.1132
  494MOL0     H65206   2.136  -0.671   2.129  0.3899 -1.8924 -2.0653
  494MOL0     H65207   2.547  -0.132   1.521  1.1705 -0.5932 -0.5741
  494MOL0     H65208   2.604   0.090   1.598  0.7823  1.2692  0.6756
  495MOL0     O65209  10.491   2.697   6.352 -0.8616 -0.1358 -0.9026
  495MOL0     C65210  10.487   2.820   6.366  0.1312  0.8264  0.3691
  495MOL0     O65211  10.409   2.888   6.447  0.4344 -0.5273 -0.3009
  495MOL0     C65212  10.290   2.819   6.487 -0.2959 -0.3949  0.7095
  495MOL0     C65213  10.201   2.764   6.393  0.7326  0.3652  0.3619
  495MOL0     C65214  10.082   2.690   6.434 -0.0158 -0.6139 -0.0024
  495MOL0     C65215  10.053   2.684   6.569 -0.6648 -1.0591  0.1051
  495MOL0     O65216   9.948   2.617   6.625 -0.9090  0.1361  1.1508
  495MOL0     C65217   9.881   2.507   6.559 -0.6289 -0.3278  0.7055
  495MOL0     C65218   9.786   2.435   6.646  0.4395  0.2327 -0.2271
  495MOL0     C65219   9.650   2.395   6.585  0.6269  0.4703 -0.1538
  495MOL0     C65220   9.559   2.345   6.703  0.9742  0.9860  0.1899
  495MOL0     C65221   9.417   2.326   6.633  0.9165 -0.5520  0.9817
  495MOL0     C65222   9.406   2.185   6.572  0.2976 -0.4358 -0.1006
  495MOL0     C65223   9.264   2.150   6.529  0.7501  0.2741  0.4739
  495MOL0     C65224   9.251   2.010   6.473 -0.6009  0.4060 -0.1320
  495MOL0     N65225   9.288   1.918   6.586  0.0713  0.0290 -0.5111
  495MOL0     C65226   9.193   1.861   6.671 -0.1150 -0.9837  0.6762
  495MOL0     C65227   9.261   1.769   6.747 -0.1030 -0.5207  0.0891
  495MOL0     C65228   9.185   1.664   6.832  0.6470 -0.5816 -0.5770
  495MOL0     C65229   9.155   1.537   6.751  0.4134  0.6109  0.0051
  495MOL0     C65230   9.135   1.408   6.840 -0.2145  0.0788 -0.1005
  495MOL0     C65231   9.015   1.408   6.936 -1.0534 -0.3948  0.0076
  495MOL0     O65232   8.897   1.393   6.856 -0.5949 -0.0412  0.2380
  495MOL0     C65233   8.781   1.363   6.912 -0.5247  0.5061 -0.8520
  495MOL0     C65234   8.678   1.351   6.824 -0.1034  0.9091 -0.1391
  495MOL0     C65235   8.544   1.325   6.866  0.3473 -0.7323  0.3893
  495MOL0     C65236   8.512   1.316   7.005  0.3645  0.4370  0.3281
  495MOL0     C65237   8.370   1.313   7.048 -1.0466 -0.6220  0.2302
  495MOL0     O65238   8.280   1.332   6.954 -0.9174  0.1351  0.5341
  495MOL0     C65239   8.151   1.336   6.984  0.9017  0.1538  0.7254
  495MOL0     C65240   8.058   1.298   6.882  0.1235  0.4769  0.7050
  495MOL0     C65241   7.925   1.306   6.898  0.6211 -0.6533  0.0352
  495MOL0     C65242   7.863   1.341   7.021  0.1706 -0.1559 -0.9184
  495MOL0     O65243   7.724   1.345   7.035  0.0266  0.6837  0.5435
  495MOL0     C65244   7.669   1.290   7.154  0.0073  0.1455 -0.2939
  495MOL0     C65245   7.516   1.276   7.147 -0.7440 -0.9027 -0.4853
  495MOL0     C65246   7.466   1.226   7.281  0.1940 -0.3580  0.5244
  495MOL0     C65247   7.449   1.341   7.384  0.5079  0.8783  0.8565
  495MOL0     C65248   7.478   1.292   7.530  0.0648  0.1793  0.9223
  495MOL0     C65249   7.433   1.394   7.632 -0.2483 -0.1904 -0.0781
  495MOL0     C65250   7.286   1.406   7.638  0.3380 -0.2563 -0.0481
  495MOL0     C65251   7.246   1.499   7.758 -0.6305 -0.6028 -0.7326
  495MOL0    Cl65252   7.072   1.537   7.764  0.0529  0.2279 -0.1187
  495MOL0     C65253   7.953   1.373   7.123 -0.9419  0.5155  0.4059
  495MOL0     C65254   8.093   1.378   7.099  0.6798 -0.3720  0.5406
  495MOL0     O65255   8.354   1.278   7.166  0.1481  0.0600  0.3372
  495MOL0     C65256   8.623   1.323   7.088  0.8353 -0.1790  0.2471
  495MOL0     C65257   8.754   1.340   7.047 -0.0112 -0.2139  0.0400
  495MOL0     N65258   9.392   1.767   6.707  0.4945  0.0541 -0.5291
  495MOL0     N65259   9.406   1.850   6.606 -0.1107  0.2218  0.0151
  495MOL0     C65260  10.138   2.748   6.658 -0.3385 -0.1234 -1.5763
  495MOL0     C65261  10.268   2.803   6.622 -0.5200  0.7914  0.5818
  495MOL0     C65262  10.577   2.907   6.286  0.6189  0.7086  1.1372
  495MOL0     C65263  10.583   3.042   6.312 -0.3770 -0.1498 -0.3275
  495MOL0     C65264  10.673   3.130   6.250 -0.4896 -0.1182 -0.8142
  495MOL0     C65265  10.754   3.079   6.156 -0.5978 -0.2858  0.4490
  495MOL0     O65266  10.846   3.148   6.079  0.2908 -0.2751 -0.1062
  495MOL0     C65267  10.859   3.286   6.124  0.0456  0.3431  0.4158
  495MOL0     C65268  10.983   3.349   6.066 -0.2095  0.3277 -0.2648
  495MOL0     C65269  11.111   3.285   6.131  0.4471 -0.3998 -0.4582
  495MOL0     C65270  11.231   3.309   6.038  0.3481  0.2673  0.0076
  495MOL0     C65271  11.348   3.258   6.109  0.4835  0.3911 -0.6482
  495MOL0     C65272  11.447   3.210   6.164 -0.8962 -0.2352 -0.6723
  495MOL0     C65273  10.757   2.942   6.125 -0.0699  0.8858  0.0490
  495MOL0     C65274  10.672   2.850   6.196  0.5537  0.3542 -0.2805
  495MOL0     H65275  10.226   2.765   6.287  1.1406 -0.2661  0.4480
  495MOL0     H65276  10.018   2.642   6.360 -3.2423 -1.8619  3.2688
  495MOL0     H65277   9.959   2.435   6.535 -3.1360 -3.2000  0.5823
  495MOL0     H65278   9.834   2.557   6.474 -1.7340  0.3478  1.6758
  495MOL0     H65279   9.771   2.498   6.734 -0.2593  0.0562 -0.2164
  495MOL0     H65280   9.828   2.345   6.692  1.2489  1.1301  0.8366
  495MOL0     H65281   9.664   2.315   6.512  1.5933  0.1562  0.3598
  495MOL0     H65282   9.601   2.477   6.532  1.0467  0.8989  0.1175
  495MOL0     H65283   9.603   2.258   6.753 -0.7579  0.9184  1.6820
  495MOL0     H65284   9.542   2.418   6.783 -3.0496  0.2507  0.2052
  495MOL0     H65285   9.384   2.398   6.558 -0.0318 -1.8197  0.1557
  495MOL0     H65286   9.344   2.338   6.714 -0.9834  0.9970 -0.8381
  495MOL0     H65287   9.446   2.110   6.641  3.8171  1.7417  0.4642
  495MOL0     H65288   9.474   2.172   6.487 -0.7869 -1.7575 -0.7999
  495MOL0     H65289   9.204   2.155   6.620  1.7882 -1.0872  1.2745
  495MOL0     H65290   9.219   2.216   6.454 -0.1054 -1.5835 -0.7221
  495MOL0     H65291   9.310   1.985   6.384 -0.2145  1.3186 -0.1363
  495MOL0     H65292   9.149   1.987   6.439 -0.2907 -1.7002  0.2275
  495MOL0     H65293   9.086   1.881   6.670  0.1567  0.7484  1.7290
  495MOL0     H65294   9.086   1.699   6.863  0.6154 -2.4783  1.8304
  495MOL0     H65295   9.240   1.649   6.926  1.2201  1.6423 -0.5079
  495MOL0     H65296   9.246   1.518   6.694 -0.2535 -0.9420 -0.5923
  495MOL0     H65297   9.066   1.536   6.687  1.4157 -1.1136 -1.4643
  495MOL0     H65298   9.133   1.318   6.777  3.2891  0.8404 -1.5361
  495MOL0     H65299   9.227   1.405   6.900 -0.7877 -0.9259  0.7772
  495MOL0     H65300   9.009   1.504   6.988 -1.6324 -0.2402 -0.3350
  495MOL0     H65301   9.041   1.333   7.011  2.5076  0.5585 -0.0665
  495MOL0     H65302   8.696   1.358   6.717  0.2097 -2.0751 -0.3829
  495MOL0     H65303   8.454   1.319   6.805 -0.8509 -0.2988  2.0314
  495MOL0     H65304   8.109   1.283   6.787  0.7600  1.8596  0.8172
  495MOL0     H65305   7.867   1.282   6.809 -1.0898 -0.9190  1.1606
  495MOL0     H65306   7.685   1.361   7.235 -0.6111  2.1830 -1.8493
  495MOL0     H65307   7.712   1.190   7.164  1.8886  0.9646  0.2758
  495MOL0     H65308   7.495   1.199   7.072 -4.6285 -1.8717  1.3695
  495MOL0     H65309   7.471   1.371   7.115  3.8269  1.6796 -0.2033
  495MOL0     H65310   7.542   1.161   7.326  0.7081  0.5098  0.9433
  495MOL0     H65311   7.369   1.178   7.264  0.5012 -0.8886  0.2576
  495MOL0     H65312   7.518   1.424   7.368  1.0479  0.3055  0.0813
  495MOL0     H65313   7.344   1.370   7.382 -0.4257 -1.9394  3.0009
  495MOL0     H65314   7.582   1.267   7.552 -0.5761 -1.8395  1.8433
  495MOL0     H65315   7.418   1.202   7.539 -0.1685  0.2810  0.4132
  495MOL0     H65316   7.484   1.486   7.600  0.0588 -0.3430 -0.0335
  495MOL0     H65317   7.478   1.357   7.724  0.4567 -1.6406 -0.9562
  495MOL0     H65318   7.247   1.458   7.550  1.2640 -0.6478 -0.6973
  495MOL0     H65319   7.233   1.311   7.645 -0.6505  0.4148  3.4900
  495MOL0     H65320   7.301   1.593   7.754  0.3091 -1.1057  0.0680
  495MOL0     H65321   7.280   1.447   7.848  0.8968  2.7128  0.7839
  495MOL0     H65322   7.909   1.410   7.215 -0.6486 -1.1522  1.2464
  495MOL0     H65323   8.151   1.422   7.179 -1.9123  2.2235  1.1842
  495MOL0     H65324   8.593   1.311   7.191 -1.4183 -2.9261 -0.6065
  495MOL0     H65325   8.838   1.353   7.115 -1.0942 -0.5576  1.4967
  495MOL0     H65326  10.117   2.749   6.765  1.9373  0.9231 -1.0673
  495MOL0     H65327  10.342   2.853   6.683 -1.2873  1.6791  0.8129
  495MOL0     H65328  10.524   3.097   6.385  0.6988 -1.6913  1.7992
  495MOL0     H65329  10.673   3.232   6.287 -1.6289  0.8143 -3.2145
  495MOL0     H65330  10.868   3.295   6.233  1.2552  0.3272  0.3307
  495MOL0     H65331  10.771   3.337   6.084 -0.4404  0.3852  1.5028
  495MOL0     H65332  10.976   3.344   5.957  1.9538  0.9800 -0.4858
  495MOL0     H65333  10.985   3.456   6.089  1.0226  0.2967 -0.1546
  495MOL0     H65334  11.097   3.177   6.135 -0.0144 -0.3605 -0.9372
  495MOL0     H65335  11.136   3.319   6.232  1.0681  1.0350 -1.0648
  495MOL0     H65336  11.219   3.264   5.939 -0.9301 -2.4823  1.2819
  495MOL0     H65337  11.250   3.413   6.012  1.0567  0.5031  1.3925
  495MOL0     H65338  11.526   3.151   6.208 -1.4279  0.6222  1.5420
  495MOL0     H65339  10.822   2.906   6.045 -1.4955  0.1552 -0.8440
  495MOL0     H65340  10.672   2.749   6.158 -0.8099  0.2016  0.0782
  496MOL0     O65341   5.550   7.175   5.854 -0.1289 -0.2609  0.3677
  496MOL0     C65342   5.564   7.260   5.771  0.4061 -0.3989 -0.0631
  496MOL0     O65343   5.465   7.302   5.691 -0.4880  0.4999  0.1093
  496MOL0     C65344   5.336   7.256   5.700  0.7924 -0.5926  0.9405
  496MOL0     C65345   5.297   7.124   5.730  1.3332  0.1022 -0.6171
  496MOL0     C65346   5.155   7.094   5.745  1.3323  0.2424  0.3061
  496MOL0     C65347   5.057   7.186   5.709 -0.1473 -0.1261 -0.3406
  496MOL0     O65348   4.917   7.147   5.719 -0.2442 -0.1291  0.0140
  496MOL0     C65349   4.820   7.189   5.615 -0.3089 -0.3490 -0.0654
  496MOL0     C65350   4.686   7.236   5.668  0.1820  0.4133 -0.1498
  496MOL0     C65351   4.581   7.270   5.565  0.3371  0.1168  0.6617
  496MOL0     C65352   4.618   7.383   5.480  0.3477  0.4225  0.4143
  496MOL0     C65353   4.503   7.439   5.393  0.4825 -0.9108  0.3351
  496MOL0     C65354   4.564   7.546   5.297  0.0092 -0.5495  0.2467
  496MOL0     C65355   4.454   7.608   5.210  0.0530  0.9302 -0.0415
  496MOL0     C65356   4.526   7.668   5.084 -0.3576 -0.1194 -0.3528
  496MOL0     N65357   4.438   7.680   4.968  0.4167  0.1452 -0.3786
  496MOL0     C65358   4.357   7.785   4.948 -0.0446 -0.2407  0.6026
  496MOL0     C65359   4.297   7.758   4.832  0.0451  0.1425 -0.3441
  496MOL0     C65360   4.175   7.829   4.761 -0.4386  0.7656 -0.1394
  496MOL0     C65361   4.069   7.834   4.869  0.6889 -0.2262  0.7158
  496MOL0     C65362   3.955   7.925   4.823  0.7217  0.5968 -0.6403
  496MOL0     C65363   3.988   8.067   4.855  1.3582 -0.5746 -0.5978
  496MOL0     O65364   3.876   8.137   4.793  0.5715  0.5256  0.6751
  496MOL0     C65365   3.867   8.277   4.820 -0.0592 -0.0810  0.2578
  496MOL0     C65366   3.744   8.345   4.797 -0.3645 -0.0667  0.0680
  496MOL0     C65367   3.736   8.483   4.827 -0.0573  0.8476 -0.3966
  496MOL0     C65368   3.846   8.555   4.873 -0.0034  0.0104  0.6737
  496MOL0     C65369   3.846   8.698   4.911  0.9300  0.4006 -0.6348
  496MOL0     O65370   3.731   8.757   4.889  0.5423 -0.4439  0.5368
  496MOL0     C65371   3.720   8.894   4.911  0.2517 -0.5403  0.1131
  496MOL0     C65372   3.631   8.943   5.004  0.1149  0.7875  0.0467
  496MOL0     C65373   3.638   9.079   5.039  0.3550 -0.1289 -0.7461
  496MOL0     C65374   3.717   9.179   4.972 -0.4970 -0.2233 -1.1404
  496MOL0     O65375   3.701   9.311   5.017 -0.2553  0.4386  0.2776
  496MOL0     C65376   3.818   9.383   5.036 -0.0130 -0.3082 -0.4953
  496MOL0     C65377   3.778   9.501   5.121  0.8642 -0.3313  0.0047
  496MOL0     C65378   3.748   9.475   5.269  0.1612  0.5704 -0.4161
  496MOL0     C65379   3.705   9.602   5.341 -0.4548  0.2837 -0.4683
  496MOL0     C65380   3.826   9.703   5.344  0.4407  0.0688 -0.9498
  496MOL0     C65381   3.790   9.825   5.433 -0.3822 -0.4193  0.2096
  496MOL0     C65382   3.902   9.927   5.442  0.6253 -0.8770 -0.4915
  496MOL0     C65383   3.846  10.067   5.473  0.3184 -0.6625 -0.4821
  496MOL0    Cl65384   3.985  10.179   5.468  0.3365  0.2714  0.5438
  496MOL0     C65385   3.791   9.133   4.869 -0.3494  0.8868 -0.6932
  496MOL0     C65386   3.801   8.993   4.843 -0.0093 -0.0558  0.4341
  496MOL0     O65387   3.948   8.758   4.944 -0.0047 -0.4321 -0.5209
  496MOL0     C65388   3.957   8.485   4.904 -0.1289  1.3971 -0.0233
  496MOL0     C65389   3.978   8.351   4.864  0.3044 -0.1452  0.0014
  496MOL0     N65390   4.345   7.637   4.785 -0.3893 -0.3300 -0.0929
  496MOL0     N65391   4.432   7.587   4.858  0.6499 -0.4637 -0.6328
  496MOL0     C65392   5.095   7.316   5.685  0.0355  0.0707  0.3899
  496MOL0     C65393   5.237   7.352   5.683  0.3372  0.0800 -0.4612
  496MOL0     C65394   5.696   7.309   5.736 -0.4694  0.3344  0.0096
  496MOL0     C65395   5.814   7.248   5.782 -0.9022 -0.1005 -0.9176
  496MOL0     C65396   5.938   7.286   5.751 -0.7223 -0.7285  0.5825
  496MOL0     C65397   5.949   7.393   5.656 -0.3046  0.4281  0.6895
  496MOL0     O65398   6.061   7.456   5.616  0.0107 -0.3639  0.0861
  496MOL0     C65399   6.192   7.388   5.630  0.6380  0.5297 -0.1146
  496MOL0     C65400   6.274   7.443   5.748  1.0738 -0.0288 -0.2484
  496MOL0     C65401   6.327   7.581   5.720 -0.6244 -0.3583 -0.3664
  496MOL0     C65402   6.352   7.652   5.853 -0.0197 -0.6431  0.5715
  496MOL0     C65403   6.457   7.600   5.950  0.8928  1.4889 -0.5274
  496MOL0     C65404   6.532   7.553   6.039  0.2614 -0.5898 -0.0899
  496MOL0     C65405   5.829   7.448   5.597 -0.8459  0.4106  0.3304
  496MOL0     C65406   5.704   7.410   5.637  0.2346  0.2704  0.1822
  496MOL0     H65407   5.369   7.043   5.746 -1.0265 -1.8539  0.8381
  496MOL0     H65408   5.128   6.996   5.783  1.4131  0.5296  1.1275
  496MOL0     H65409   4.815   7.105   5.546  2.8603 -1.7180  1.1504
  496MOL0     H65410   4.866   7.271   5.559  1.1273 -1.2998 -0.3262
  496MOL0     H65411   4.709   7.326   5.727  3.5400  0.0166 -0.6197
  496MOL0     H65412   4.654   7.161   5.741  0.4123 -0.1675 -0.6366
  496MOL0     H65413   4.489   7.297   5.618  2.0607 -0.5674  4.2973
  496MOL0     H65414   4.566   7.180   5.504  0.9842  0.4428  0.0125
  496MOL0     H65415   4.675   7.455   5.538  0.8718 -0.8646  1.5491
  496MOL0     H65416   4.690   7.349   5.405  1.2862  0.9364  1.0730
  496MOL0     H65417   4.428   7.483   5.459  0.4410 -1.5442  0.7189
  496MOL0     H65418   4.464   7.358   5.331 -2.2532 -0.0367  0.7738
  496MOL0     H65419   4.634   7.499   5.227 -1.9339 -3.6507  0.2012
  496MOL0     H65420   4.616   7.626   5.351  2.8169 -2.4874  0.6536
  496MOL0     H65421   4.384   7.532   5.176 -1.6858  1.8447  1.3256
  496MOL0     H65422   4.382   7.674   5.259  1.2147  0.8076  1.9537
  496MOL0     H65423   4.620   7.621   5.054 -0.9099 -0.5252 -1.4762
  496MOL0     H65424   4.565   7.762   5.124 -0.4952 -1.3507  3.0553
  496MOL0     H65425   4.347   7.866   5.021  2.3045  2.1443 -1.5171
  496MOL0     H65426   4.142   7.768   4.677 -0.1146 -2.1808  1.7189
  496MOL0     H65427   4.205   7.925   4.720 -3.2089  0.5990 -2.9752
  496MOL0     H65428   4.119   7.886   4.951  1.3631  1.3285 -0.6333
  496MOL0     H65429   4.045   7.732   4.902  1.6881 -0.8839 -0.4672
  496MOL0     H65430   3.962   7.910   4.714  2.3262  2.4001 -0.8425
  496MOL0     H65431   3.866   7.882   4.870  0.1518  0.6122 -1.6679
  496MOL0     H65432   4.082   8.098   4.810  0.0505 -0.8068 -3.7657
  496MOL0     H65433   3.989   8.091   4.962  2.7067  0.1349 -0.7457
  496MOL0     H65434   3.660   8.292   4.755  0.7002 -0.5878 -1.4981
  496MOL0     H65435   3.642   8.532   4.803 -0.8892 -0.3902  0.2287
  496MOL0     H65436   3.571   8.869   5.056 -1.2195  0.1903 -2.2463
  496MOL0     H65437   3.576   9.124   5.116 -2.4950 -2.2935 -1.5998
  496MOL0     H65438   3.857   9.415   4.939 -0.9785  2.3676 -0.0588
  496MOL0     H65439   3.888   9.326   5.099  1.8029  2.7339  0.4491
  496MOL0     H65440   3.687   9.546   5.081  0.7393 -0.4381  0.1680
  496MOL0     H65441   3.859   9.575   5.125  2.0418 -1.6261  1.0805
  496MOL0     H65442   3.828   9.430   5.330  0.3634 -0.3754 -1.3357
  496MOL0     H65443   3.662   9.408   5.265 -0.6468  1.6261 -1.2404
  496MOL0     H65444   3.628   9.665   5.296  2.1180  3.2767 -1.0286
  496MOL0     H65445   3.688   9.566   5.443  0.7113 -0.1679 -0.4157
  496MOL0     H65446   3.837   9.755   5.248 -0.1235  3.4630  0.6718
  496MOL0     H65447   3.922   9.658   5.369 -0.9876 -2.7658 -0.1269
  496MOL0     H65448   3.762   9.798   5.536 -2.3194 -1.5214 -0.5677
  496MOL0     H65449   3.698   9.873   5.398  0.0050 -0.2874 -0.6464
  496MOL0     H65450   3.951   9.881   5.528 -2.6465 -0.8993  1.5258
  496MOL0     H65451   3.964   9.928   5.352 -2.0524 -2.4801 -2.5035
  496MOL0     H65452   3.797  10.069   5.571  3.2459 -3.6208  1.2638
  496MOL0     H65453   3.782  10.094   5.389  1.5326 -0.4147 -1.3670
  496MOL0     H65454   3.868   9.194   4.822  2.3235 -1.9079 -0.3339
  496MOL0     H65455   3.877   8.957   4.774 -0.6627 -1.8154  0.5875
  496MOL0     H65456   4.042   8.541   4.942 -0.5310  0.5681  2.2288
  496MOL0     H65457   4.076   8.304   4.865 -0.5684 -2.0830  0.0345
  496MOL0     H65458   5.012   7.384   5.674 -0.7511 -0.9745 -0.3302
  496MOL0     H65459   5.264   7.457   5.677 -2.4854  0.8897 -0.1627
  496MOL0     H65460   5.796   7.171   5.857 -1.3516  0.6692 -0.2225
  496MOL0     H65461   6.029   7.259   5.803  0.2932  1.1246 -0.1399
  496MOL0     H65462   6.245   7.412   5.538 -1.4179  2.0692 -0.9899
  496MOL0     H65463   6.179   7.280   5.641  1.5448  0.3195 -0.9502
  496MOL0     H65464   6.217   7.444   5.841  2.4171 -3.1510  0.7439
  496MOL0     H65465   6.357   7.373   5.763  0.9853 -0.1211 -0.1875
  496MOL0     H65466   6.261   7.652   5.668  2.6414  3.5777  0.3252
  496MOL0     H65467   6.427   7.573   5.677  0.1708 -2.0842  1.6688
  496MOL0     H65468   6.364   7.758   5.827 -0.8481 -0.7448 -0.2954
  496MOL0     H65469   6.259   7.655   5.910  0.7692  2.6862  1.9346
  496MOL0     H65470   6.600   7.512   6.111 -1.2332 -1.9164  0.6617
  496MOL0     H65471   5.845   7.525   5.522  0.6766 -2.0141 -1.9751
  496MOL0     H65472   5.612   7.456   5.604  0.6608  0.8223 -0.2466
  497MOL0     O65473   1.237   3.841   6.884 -0.2785 -0.6547 -0.0047
  497MOL0     C65474   1.225   3.721   6.903 -0.1012 -0.7198 -0.2752
  497MOL0     O65475   1.110   3.649   6.887  0.2194 -0.4072 -0.3752
  497MOL0     C65476   0.979   3.690   6.870  0.3432 -0.6129 -0.6159
  497MOL0     C65477   0.879   3.607   6.912  0.7009 -0.2038  0.2373
  497MOL0     C65478   0.749   3.643   6.900  1.5706 -0.4356 -0.8936
  497MOL0     C65479   0.710   3.764   6.840 -0.8490  0.3146  0.0900
  497MOL0     O65480   0.585   3.810   6.837  0.8737  1.1241  0.1355
  497MOL0     C65481   0.529   3.830   6.973  0.1189 -0.2769  0.8144
  497MOL0     C65482   0.367   3.839   6.966 -0.0052  0.7779 -0.4981
  497MOL0     C65483   0.324   3.976   6.902  0.9056  0.7511 -1.5823
  497MOL0     C65484   0.167   3.969   6.885 -0.1043  0.5645  0.2904
  497MOL0     C65485   0.121   3.984   6.741  0.3328 -0.0068 -0.5764
  497MOL0     C65486  -0.023   3.942   6.708 -0.7860 -0.4294  0.1473
  497MOL0     C65487  -0.126   4.012   6.813 -0.0791  1.1670  0.4001
  497MOL0     C65488  -0.129   4.160   6.788 -0.1137 -0.3715  0.3070
  497MOL0     N65489  -0.230   4.228   6.863  0.2951 -0.5562 -0.3853
  497MOL0     C65490  -0.363   4.231   6.844  0.9682  0.2062  0.0820
  497MOL0     C65491  -0.415   4.283   6.959 -0.3795 -0.1446 -0.7869
  497MOL0     C65492  -0.559   4.315   6.967 -0.6667  0.3441  0.6962
  497MOL0     C65493  -0.600   4.459   6.995 -0.6692 -0.2439 -0.1313
  497MOL0     C65494  -0.611   4.543   6.861 -0.3736 -0.2400 -0.2073
  497MOL0     C65495  -0.747   4.575   6.817  0.0531 -0.0806 -0.1466
  497MOL0     O65496  -0.821   4.656   6.913  0.2161 -1.0429  0.2828
  497MOL0     C65497  -0.940   4.709   6.877 -0.1760 -0.6896  0.1857
  497MOL0     C65498  -1.000   4.804   6.962  0.5683  0.2896 -0.9158
  497MOL0     C65499  -1.125   4.867   6.931  0.2991  0.8063  0.0422
  497MOL0     C65500  -1.192   4.837   6.804 -0.6108  0.2800 -0.5544
  497MOL0     C65501  -1.314   4.902   6.777 -0.6101 -1.1109  0.4948
  497MOL0     O65502  -1.350   4.908   6.646 -0.7433 -0.0111  0.1096
  497MOL0     C65503  -1.476   4.957   6.634  0.4669  0.8126  0.4316
  497MOL0     C65504  -1.479   5.050   6.528 -0.4540  1.0881  0.1069
  497MOL0     C65505  -1.607   5.096   6.484 -0.3549  1.0380  0.4176
  497MOL0     C65506  -1.727   5.064   6.558 -0.1081 -1.2010 -0.5473
  497MOL0     O65507  -1.836   5.130   6.498  0.7346  0.3115 -0.5007
  497MOL0     C65508  -1.919   5.212   6.576 -0.7565  0.5176 -0.6322
  497MOL0     C65509  -2.034   5.282   6.489  0.2643  0.4200  0.0021
  497MOL0     C65510  -1.974   5.370   6.383  0.6286  0.1944 -0.3519
  497MOL0     C65511  -2.087   5.428   6.288  0.2066 -0.6073 -0.2446
  497MOL0     C65512  -2.223   5.446   6.355  0.3433 -0.8204 -0.5659
  497MOL0     C65513  -2.304   5.556   6.287 -0.2242 -0.3825 -1.0574
  497MOL0     C65514  -2.440   5.558   6.343  0.1746 -0.3505  0.1999
  497MOL0     C65515  -2.535   5.654   6.265 -1.0111  0.4840  0.0091
  497MOL0    Cl65516  -2.707   5.615   6.300  0.2354 -0.5306 -0.1812
  497MOL0     C65517  -1.716   4.980   6.670 -0.2109 -0.3354  0.3286
  497MOL0     C65518  -1.595   4.923   6.698 -0.4318 -0.5910 -0.5177
  497MOL0     O65519  -1.372   4.947   6.874 -0.1539  0.8693 -0.4750
  497MOL0     C65520  -1.127   4.736   6.727  0.0887 -0.3658 -0.4354
  497MOL0     C65521  -1.002   4.681   6.757 -0.1895  0.1000 -0.5457
  497MOL0     N65522  -0.309   4.318   7.038  0.3323 -0.6593 -0.2975
  497MOL0     N65523  -0.206   4.272   6.989  0.2519 -0.3795  0.3150
  497MOL0     C65524   0.814   3.841   6.795  0.1590 -0.1096 -0.1703
  497MOL0     C65525   0.950   3.810   6.802  0.0779 -0.1285  0.5139
  497MOL0     C65526   1.341   3.641   6.943 -0.6168 -0.6700  0.0979
  497MOL0     C65527   1.475   3.702   6.927  0.6393  0.6363 -0.7477
  497MOL0     C65528   1.592   3.638   6.962 -0.3190  0.5547 -0.1548
  497MOL0     C65529   1.580   3.506   7.016 -0.6359  0.3912 -0.9874
  497MOL0     O65530   1.688   3.426   7.049  0.3122  0.2002  0.3668
  497MOL0     C65531   1.783   3.480   7.139  0.4801 -0.1195  0.4445
  497MOL0     C65532   1.890   3.377   7.189 -0.0187 -1.0977 -0.0129
  497MOL0     C65533   2.009   3.359   7.091 -0.7468  0.0773  0.5715
  497MOL0     C65534   2.109   3.251   7.149 -0.8984  0.1629 -0.3108
  497MOL0     C65535   2.213   3.322   7.230  0.5273  0.3667 -0.2457
  497MOL0     C65536   2.308   3.378   7.277 -0.3985 -0.3165  0.1048
  497MOL0     C65537   1.457   3.445   7.029 -0.0402  0.0708  0.2094
  497MOL0     C65538   1.336   3.512   7.002 -0.0402  0.0400  0.0329
  497MOL0     H65539   0.903   3.515   6.964 -3.2202 -1.2605  0.5019
  497MOL0     H65540   0.676   3.586   6.956  1.2816  1.4557  0.7889
  497MOL0     H65541   0.554   3.928   7.016 -2.3424  0.0073  1.8057
  497MOL0     H65542   0.557   3.743   7.033  2.2926  0.5396  1.0619
  497MOL0     H65543   0.332   3.832   7.069  0.6559 -0.4137 -0.3308
  497MOL0     H65544   0.324   3.752   6.915 -1.4658  1.6933 -0.8775
  497MOL0     H65545   0.377   3.999   6.809 -0.4327 -0.9644 -2.8213
  497MOL0     H65546   0.347   4.052   6.978  0.0285 -1.2849  0.8278
  497MOL0     H65547   0.135   3.876   6.934  0.5730  0.5104  0.6385
  497MOL0     H65548   0.132   4.050   6.949 -0.7683 -1.3038  2.4395
  497MOL0     H65549   0.189   3.915   6.690  1.8904  1.6006 -0.7918
  497MOL0     H65550   0.132   4.087   6.704 -3.2083  1.4071  1.7880
  497MOL0     H65551  -0.024   3.833   6.713  0.6198 -0.4024  2.9122
  497MOL0     H65552  -0.043   3.963   6.602  1.1868  0.8654 -0.0188
  497MOL0     H65553  -0.226   3.969   6.805 -0.0287  1.3909 -2.1599
  497MOL0     H65554  -0.089   4.001   6.916  1.4431  0.9970 -0.1296
  497MOL0     H65555  -0.155   4.173   6.682  2.5556  3.3397 -0.0487
  497MOL0     H65556  -0.033   4.201   6.818 -1.0560  3.6371 -1.4906
  497MOL0     H65557  -0.418   4.201   6.755  2.4581  0.4114 -0.9389
  497MOL0     H65558  -0.599   4.260   7.053  1.4821 -0.2777  1.3885
  497MOL0     H65559  -0.605   4.289   6.872 -1.5137  2.3500  0.5105
  497MOL0     H65560  -0.521   4.501   7.058 -1.4458 -0.6917  1.1690
  497MOL0     H65561  -0.694   4.463   7.051 -1.4714 -1.0689 -1.3854
  497MOL0     H65562  -0.552   4.635   6.867  1.6037 -1.4441 -0.1433
  497MOL0     H65563  -0.553   4.484   6.789  1.2504  1.8790 -0.7552
  497MOL0     H65564  -0.791   4.477   6.801  3.9846 -2.0122 -0.2892
  497MOL0     H65565  -0.741   4.633   6.724  0.3600  0.0905 -0.0245
  497MOL0     H65566  -0.945   4.834   7.050 -1.1264  1.5751 -0.2439
  497MOL0     H65567  -1.159   4.945   6.999  1.2146  0.6749  0.6713
  497MOL0     H65568  -1.401   5.080   6.459 -1.9971  1.9565 -1.3216
  497MOL0     H65569  -1.606   5.168   6.403  0.6508  3.3527  2.3349
  497MOL0     H65570  -1.869   5.295   6.626 -0.0164  0.2896 -0.9796
  497MOL0     H65571  -1.964   5.145   6.650  1.0803  1.0234  1.0129
  497MOL0     H65572  -2.109   5.322   6.557  0.8242 -2.6077  2.6328
  497MOL0     H65573  -2.082   5.198   6.438  2.0113  0.1401 -1.2859
  497MOL0     H65574  -1.894   5.318   6.330  0.1793 -1.2421  0.3182
  497MOL0     H65575  -1.929   5.460   6.428  0.0182  0.3467 -0.0292
  497MOL0     H65576  -2.050   5.522   6.246 -2.0964 -0.2869 -1.7368
  497MOL0     H65577  -2.095   5.368   6.197  2.1022  1.1832 -1.6859
  497MOL0     H65578  -2.211   5.484   6.457 -0.3980 -1.0852 -0.3800
  497MOL0     H65579  -2.271   5.348   6.356  0.8626 -1.2295  3.5467
  497MOL0     H65580  -2.312   5.533   6.181 -0.8738 -1.9817 -0.6891
  497MOL0     H65581  -2.256   5.654   6.300 -0.8861 -0.2458  0.7428
  497MOL0     H65582  -2.481   5.456   6.345  1.8327 -1.0348  1.0249
  497MOL0     H65583  -2.435   5.594   6.446 -1.7510  1.6939 -0.3329
  497MOL0     H65584  -2.522   5.630   6.159  1.1950  1.3102  0.0355
  497MOL0     H65585  -2.512   5.759   6.285 -0.6449  0.1200  1.7203
  497MOL0     H65586  -1.805   4.950   6.724 -0.0421 -1.0890  0.1987
  497MOL0     H65587  -1.586   4.842   6.771  1.5301 -0.6210 -0.7354
  497MOL0     H65588  -1.181   4.708   6.637  1.6005 -0.9751 -1.1843
  497MOL0     H65589  -0.968   4.601   6.692 -1.3710 -2.2390  1.5746
  497MOL0     H65590   0.794   3.936   6.747 -1.4646  0.7063  1.9610
  497MOL0     H65591   1.030   3.869   6.761 -1.0698  0.2893 -1.2278
  497MOL0     H65592   1.499   3.795   6.876  3.5860 -0.1962 -1.0889
  497MOL0     H65593   1.687   3.689   6.951  0.9714 -1.7735 -0.4818
  497MOL0     H65594   1.732   3.531   7.221 -1.0730 -0.3076 -0.3860
  497MOL0     H65595   1.828   3.562   7.082 -0.8303  0.0616 -0.3698
  497MOL0     H65596   1.933   3.422   7.279 -1.5477  1.9910 -0.7112
  497MOL0     H65597   1.845   3.282   7.221 -5.3239  0.8240 -0.7196
  497MOL0     H65598   2.058   3.455   7.071 -4.2157  1.8744 -0.0160
  497MOL0     H65599   1.960   3.319   7.002  0.9938 -0.5617 -0.1530
  497MOL0     H65600   2.060   3.180   7.215 -1.6973  0.9806 -0.0014
  497MOL0     H65601   2.156   3.194   7.069  0.7780  3.1789 -1.6520
  497MOL0     H65602   2.393   3.438   7.303  0.3326 -0.8268 -1.0187
  497MOL0     H65603   1.462   3.340   7.058 -1.5087 -0.1008 -0.1068
  497MOL0     H65604   1.241   3.466   7.026  0.2542 -1.1370 -0.9789
  498MOL0     O65605   6.576   3.112   1.971  0.3270  0.6257  0.3770
  498MOL0     C65606   6.580   2.996   1.935 -0.5282  0.3564 -0.5871
  498MOL0     O65607   6.476   2.919   1.890 -0.2970 -0.2279  0.1356
  498MOL0     C65608   6.346   2.951   1.918 -0.5876  0.3475  0.6059
  498MOL0     C65609   6.293   3.039   2.010  0.0539 -0.1892 -0.1564
  498MOL0     C65610   6.155   3.051   2.004  0.3538 -0.6879  0.9086
  498MOL0     C65611   6.060   2.983   1.918  0.1353 -0.9109 -0.6193
  498MOL0     O65612   5.927   3.015   1.935  0.0485 -0.6469 -0.2566
  498MOL0     C65613   5.837   2.978   1.826  1.0930  1.6525 -0.5505
  498MOL0     C65614   5.693   2.986   1.878 -0.4540  0.1599  0.9908
  498MOL0     C65615   5.594   2.912   1.780  0.1174  0.1114  0.3831
  498MOL0     C65616   5.456   2.926   1.829  0.7787 -1.1350  0.9462
  498MOL0     C65617   5.343   2.870   1.748  0.2680 -0.2747 -0.2951
  498MOL0     C65618   5.203   2.889   1.817 -0.1220  0.8053  0.2107
  498MOL0     C65619   5.074   2.848   1.733 -0.3254  0.3481  0.0382
  498MOL0     C65620   5.067   2.916   1.597 -0.3125 -0.0791  0.1484
  498MOL0     N65621   4.939   2.888   1.542  0.9581  0.6648  0.3025
  498MOL0     C65622   4.815   2.941   1.574 -0.7898 -0.1465  0.3544
  498MOL0     C65623   4.731   2.879   1.502  0.0300 -0.5021  0.0444
  498MOL0     C65624   4.587   2.913   1.528 -0.0819 -0.5492  0.2740
  498MOL0     C65625   4.496   2.911   1.404 -0.7487  0.4076  0.2013
  498MOL0     C65626   4.356   2.966   1.441 -0.2243 -0.1291 -0.1544
  498MOL0     C65627   4.269   2.933   1.324 -0.1946  0.7746 -0.1926
  498MOL0     O65628   4.136   2.992   1.330 -0.0055 -0.1971  0.2324
  498MOL0     C65629   4.027   2.916   1.359  0.1796 -0.2027  0.9114
  498MOL0     C65630   3.903   2.948   1.304  0.1550 -0.3581  0.1764
  498MOL0     C65631   3.788   2.877   1.324  0.3317  0.9675 -0.7830
  498MOL0     C65632   3.807   2.757   1.395  0.0002  0.2280 -0.1708
  498MOL0     C65633   3.680   2.677   1.426  0.1555  0.2007  0.3473
  498MOL0     O65634   3.562   2.721   1.361 -0.6739  0.9167  0.2475
  498MOL0     C65635   3.436   2.668   1.380 -0.6229  0.5212  0.0263
  498MOL0     C65636   3.345   2.725   1.302  0.4088  0.6831  0.7024
  498MOL0     C65637   3.206   2.694   1.313 -0.8928 -0.9750 -0.0369
  498MOL0     C65638   3.163   2.613   1.406 -0.1095  0.2394 -0.2120
  498MOL0     O65639   3.031   2.589   1.443  0.4499 -0.2019 -0.1903
  498MOL0     C65640   2.932   2.657   1.372  0.3150 -0.1110  0.4996
  498MOL0     C65641   2.797   2.590   1.403  0.0326  0.4395  0.6132
  498MOL0     C65642   2.679   2.671   1.344 -0.7886  0.3842 -0.2121
  498MOL0     C65643   2.556   2.572   1.336 -0.9178  0.1995 -0.2862
  498MOL0     C65644   2.425   2.648   1.301  0.1812 -0.4860 -0.3755
  498MOL0     C65645   2.311   2.550   1.277  0.2104 -0.0297 -0.1473
  498MOL0     C65646   2.175   2.626   1.275 -1.0263  0.4707 -0.0988
  498MOL0     C65647   2.060   2.548   1.195 -0.1906 -0.8954  0.8575
  498MOL0    Cl65648   2.023   2.390   1.254  0.3918 -0.4577 -0.4329
  498MOL0     C65649   3.260   2.552   1.490 -0.1239 -0.4633  1.1178
  498MOL0     C65650   3.397   2.590   1.489  0.4170 -0.2317 -0.3878
  498MOL0     O65651   3.694   2.572   1.486  0.5521 -0.0471 -0.0432
  498MOL0     C65652   3.931   2.717   1.446  0.3113  0.0227 -0.2400
  498MOL0     C65653   4.038   2.801   1.436 -1.1995 -0.4340  0.8290
  498MOL0     N65654   4.789   2.792   1.413 -0.5769  0.8416  0.0051
  498MOL0     N65655   4.913   2.795   1.447 -0.6432 -0.1754  0.3618
  498MOL0     C65656   6.121   2.882   1.845 -0.2723  0.2078  0.5601
  498MOL0     C65657   6.259   2.872   1.841 -0.2267  0.2705  0.1258
  498MOL0     C65658   6.714   2.928   1.917  0.4056 -1.0264 -0.1388
  498MOL0     C65659   6.828   3.001   1.885 -0.5663 -0.5241  0.1504
  498MOL0     C65660   6.950   2.934   1.875 -0.1704 -0.5598 -0.3513
  498MOL0     C65661   6.969   2.804   1.901 -0.3719 -0.6461  0.5618
  498MOL0     O65662   7.092   2.738   1.914 -0.4739 -0.0758 -0.6937
  498MOL0     C65663   7.183   2.764   1.805 -0.1805 -0.3156 -0.6138
  498MOL0     C65664   7.297   2.664   1.793 -0.0265 -0.4713 -0.0592
  498MOL0     C65665   7.394   2.674   1.917 -0.1309 -0.4944  0.6856
  498MOL0     C65666   7.498   2.787   1.931 -0.9020 -0.2531  0.3915
  498MOL0     C65667   7.616   2.737   1.849  0.2737 -0.8109 -0.2941
  498MOL0     C65668   7.697   2.686   1.776 -0.6782  0.4873  0.4664
  498MOL0     C65669   6.856   2.727   1.934 -0.0028  1.0962 -0.3494
  498MOL0     C65670   6.731   2.792   1.942  0.4820 -0.3001 -0.7055
  498MOL0     H65671   6.351   3.095   2.082  0.6201  4.0339 -3.5128
  498MOL0     H65672   6.112   3.123   2.073 -0.5796 -1.0246  0.7056
  498MOL0     H65673   5.854   2.878   1.786  0.6027  1.3798 -0.0954
  498MOL0     H65674   5.842   3.046   1.741  1.4843  1.2717 -0.8352
  498MOL0     H65675   5.673   3.093   1.888 -3.3459 -0.3405  1.4718
  498MOL0     H65676   5.682   2.936   1.974 -0.1779 -0.2497  0.8136
  498MOL0     H65677   5.623   2.807   1.779  3.4127  0.9150 -0.3413
  498MOL0     H65678   5.612   2.936   1.675  1.7638 -1.2099  0.3124
  498MOL0     H65679   5.449   2.885   1.931  0.3477 -2.3891  0.4272
  498MOL0     H65680   5.451   3.035   1.821  1.4535 -1.0717  1.2496
  498MOL0     H65681   5.370   2.764   1.737 -0.2235 -1.0242  3.9209
  498MOL0     H65682   5.342   2.913   1.648 -0.1192 -0.5886 -0.4283
  498MOL0     H65683   5.186   2.991   1.854  1.2995  1.7109 -1.4878
  498MOL0     H65684   5.205   2.827   1.907 -1.9109  0.6694  0.1919
  498MOL0     H65685   5.080   2.740   1.716  3.0667  0.7105 -2.2387
  498MOL0     H65686   4.991   2.876   1.798  0.6555  3.2573  0.1737
  498MOL0     H65687   5.142   2.879   1.527 -2.3254 -0.4294 -1.9172
  498MOL0     H65688   5.087   3.019   1.628  0.0727  0.4124 -1.6156
  498MOL0     H65689   4.795   2.996   1.665 -1.7937  1.6970 -0.9178
  498MOL0     H65690   4.588   3.006   1.586 -0.1237  0.2233 -0.9489
  498MOL0     H65691   4.554   2.836   1.599 -2.0458 -0.0941 -0.0926
  498MOL0     H65692   4.490   2.815   1.352 -1.0476  0.4594  0.1383
  498MOL0     H65693   4.547   2.984   1.340  1.6894 -0.3114  1.2155
  498MOL0     H65694   4.310   2.920   1.529  0.6658  1.9371  1.5018
  498MOL0     H65695   4.359   3.075   1.457 -1.0052 -0.2400  0.7898
  498MOL0     H65696   4.261   2.824   1.314  0.6784  0.5227  1.3859
  498MOL0     H65697   4.319   2.968   1.233  3.7218  0.6407  1.6889
  498MOL0     H65698   3.907   3.050   1.266  2.0529 -0.8161 -0.9504
  498MOL0     H65699   3.688   2.895   1.286 -0.5994 -2.2248 -0.2115
  498MOL0     H65700   3.381   2.785   1.219 -2.1119  1.4110  0.0356
  498MOL0     H65701   3.136   2.748   1.250  1.8584 -0.3589 -2.8650
  498MOL0     H65702   2.946   2.640   1.265 -0.0377 -1.4120  0.6369
  498MOL0     H65703   2.919   2.760   1.408  0.9013  0.9018 -1.9935
  498MOL0     H65704   2.796   2.571   1.511  0.1766 -3.2999  0.0854
  498MOL0     H65705   2.801   2.486   1.367  0.2782  0.3134  0.9967
  498MOL0     H65706   2.711   2.708   1.247 -2.8834 -0.1515 -1.1615
  498MOL0     H65707   2.655   2.755   1.409 -3.5485  0.6908 -1.4831
  498MOL0     H65708   2.585   2.499   1.260 -0.0540  1.8461 -1.6126
  498MOL0     H65709   2.537   2.532   1.436 -2.0013  2.3702  0.4292
  498MOL0     H65710   2.427   2.715   1.215  0.7129 -1.4769 -1.1557
  498MOL0     H65711   2.402   2.717   1.383  1.9949 -0.6784  0.3416
  498MOL0     H65712   2.322   2.481   1.361 -1.6276  0.3031  0.4093
  498MOL0     H65713   2.323   2.505   1.178 -1.1563  1.4978 -1.0453
  498MOL0     H65714   2.138   2.668   1.369  1.3269 -1.1541  1.6804
  498MOL0     H65715   2.200   2.714   1.216 -1.9224  1.2757  0.6933
  498MOL0     H65716   2.085   2.545   1.088 -0.6377  1.2284  0.6483
  498MOL0     H65717   1.969   2.608   1.207 -0.1673  0.1421 -2.8416
  498MOL0     H65718   3.216   2.499   1.574  0.3580 -0.4506  1.3817
  498MOL0     H65719   3.459   2.563   1.573  2.0026 -0.4517 -1.5758
  498MOL0     H65720   3.952   2.629   1.506 -1.9920 -2.5800 -2.9320
  498MOL0     H65721   4.130   2.767   1.482 -0.1756  3.0218  1.6306
  498MOL0     H65722   6.057   2.820   1.783  0.0172 -1.4198  1.8330
  498MOL0     H65723   6.306   2.804   1.772  3.0811  2.0954  0.3916
  498MOL0     H65724   6.828   3.109   1.877  1.1928 -0.6195 -2.3537
  498MOL0     H65725   7.042   2.988   1.855  0.2111 -1.3164 -0.6491
  498MOL0     H65726   7.232   2.860   1.824 -2.2048  0.0928  3.6974
  498MOL0     H65727   7.131   2.759   1.709 -0.1099  0.1801 -0.6813
  498MOL0     H65728   7.259   2.562   1.785  0.1984 -0.9612  3.4198
  498MOL0     H65729   7.356   2.688   1.704  2.3783 -1.4566  1.1758
  498MOL0     H65730   7.444   2.577   1.930  4.2720  0.8888 -3.2602
  498MOL0     H65731   7.323   2.686   2.000 -0.8705  3.5121 -0.2975
  498MOL0     H65732   7.460   2.874   1.876  0.8425  0.9355  0.9562
  498MOL0     H65733   7.525   2.806   2.036 -0.2651  1.0802  0.0025
  498MOL0     H65734   7.786   2.651   1.729 -0.9101 -0.5429  0.7768
  498MOL0     H65735   6.862   2.628   1.978  1.1200  1.6883  0.8930
  498MOL0     H65736   6.644   2.731   1.961  0.1294 -0.5499 -2.9513
  499MOL0     O65737   7.251   9.735   9.629 -0.6119  0.1454  0.2036
  499MOL0     C65738   7.322   9.635   9.611  1.0943  0.5715 -0.0192
  499MOL0     O65739   7.270   9.506   9.594 -0.1240  0.1104  0.1210
  499MOL0     C65740   7.139   9.496   9.583  0.4142  0.5853 -0.1009
  499MOL0     C65741   7.099   9.419   9.466 -1.2778  0.2128 -0.1768
  499MOL0     C65742   6.964   9.401   9.449 -0.6560 -0.2111  0.3358
  499MOL0     C65743   6.863   9.443   9.536  0.2663  0.6965 -0.0736
  499MOL0     O65744   6.735   9.401   9.532  0.7272  0.8832  0.0303
  499MOL0     C65745   6.721   9.276   9.467  0.1865  0.1598 -0.4362
  499MOL0     C65746   6.611   9.185   9.512  0.2285  0.6219  0.2812
  499MOL0     C65747   6.468   9.240   9.494 -0.6078  0.2550 -0.4291
  499MOL0     C65748   6.424   9.346   9.597  0.7555 -0.3462  0.2469
  499MOL0     C65749   6.300   9.416   9.546  1.0358 -0.5263  0.1071
  499MOL0     C65750   6.172   9.333   9.541 -0.2833  0.3859 -0.2554
  499MOL0     C65751   6.046   9.402   9.487  0.3227  0.2706 -0.3517
  499MOL0     C65752   6.005   9.525   9.567  0.3048  0.7856  0.1172
  499MOL0     N65753   5.898   9.597   9.498 -0.2996 -0.2435 -0.2466
  499MOL0     C65754   5.841   9.576   9.367 -0.3163  0.8820 -0.4854
  499MOL0     C65755   5.714   9.622   9.376 -0.5127  0.0079  0.6420
  499MOL0     C65756   5.623   9.588   9.260  0.0443  0.1276 -0.6927
  499MOL0     C65757   5.481   9.642   9.256 -0.0169  0.4595  0.3662
  499MOL0     C65758   5.394   9.556   9.157  0.4740 -1.5207 -0.0379
  499MOL0     C65759   5.250   9.626   9.131 -0.6757  1.0116 -0.9409
  499MOL0     O65760   5.162   9.599   9.241 -0.0831 -0.2352 -0.6110
  499MOL0     C65761   5.025   9.619   9.220 -0.0257 -0.0135  0.5298
  499MOL0     C65762   4.965   9.678   9.102 -0.2993  0.5995 -0.3598
  499MOL0     C65763   4.833   9.691   9.087  0.5042 -0.6957  0.7279
  499MOL0     C65764   4.741   9.624   9.180 -1.1342 -0.2650 -0.7192
  499MOL0     C65765   4.592   9.632   9.175  0.7545  0.6722  0.2965
  499MOL0     O65766   4.528   9.527   9.238  0.1184  0.5404  0.0110
  499MOL0     C65767   4.390   9.518   9.240 -0.4579 -0.5917 -1.1791
  499MOL0     C65768   4.309   9.562   9.136  0.1287  0.1000 -0.3132
  499MOL0     C65769   4.164   9.560   9.153 -0.1470  0.0385 -0.6654
  499MOL0     C65770   4.102   9.514   9.275 -0.3959 -0.2099  0.5714
  499MOL0     O65771   3.968   9.522   9.299  0.2092 -0.4760  0.0861
  499MOL0     C65772   3.872   9.540   9.194  1.4266  0.2853 -0.6649
  499MOL0     C65773   3.732   9.496   9.255 -0.8079  0.7202 -0.0354
  499MOL0     C65774   3.605   9.567   9.191  0.1977 -0.3321 -0.5708
  499MOL0     C65775   3.485   9.511   9.265 -0.3800 -0.5583  0.4759
  499MOL0     C65776   3.355   9.595   9.238 -0.2153 -0.3134 -0.5279
  499MOL0     C65777   3.288   9.549   9.108  0.0334  0.0822  0.0493
  499MOL0     C65778   3.189   9.648   9.034  0.2947  0.6631 -0.6468
  499MOL0     C65779   3.068   9.674   9.119 -0.2789  0.1323  0.2915
  499MOL0    Cl65780   2.948   9.527   9.110 -0.0576 -0.3134 -0.0851
  499MOL0     C65781   4.190   9.466   9.376  0.2507  0.2329  0.1485
  499MOL0     C65782   4.328   9.472   9.357 -0.1613  0.4867 -0.5093
  499MOL0     O65783   4.550   9.731   9.123 -0.8197 -0.6517  0.2133
  499MOL0     C65784   4.803   9.559   9.292  0.7321  0.1907  0.2817
  499MOL0     C65785   4.942   9.573   9.317  0.4302  0.1030 -0.0761
  499MOL0     N65786   5.694   9.664   9.507 -0.0752  0.3110  1.0478
  499MOL0     N65787   5.804   9.653   9.571 -0.3058  0.0985 -0.4774
  499MOL0     C65788   6.900   9.517   9.642  0.0643  0.4192 -0.0065
  499MOL0     C65789   7.035   9.545   9.672 -0.8737 -0.5174  0.6029
  499MOL0     C65790   7.463   9.645   9.585 -0.5301  0.4391  0.5912
  499MOL0     C65791   7.559   9.540   9.619  0.0888  0.7352  0.0450
  499MOL0     C65792   7.694   9.541   9.578  0.4695 -1.1385  0.7373
  499MOL0     C65793   7.743   9.665   9.520  0.8599  0.4029 -0.7124
  499MOL0     O65794   7.872   9.674   9.484  0.0194  0.0009 -0.4166
  499MOL0     C65795   7.935   9.803   9.474 -0.1475  0.3025 -0.5539
  499MOL0     C65796   8.081   9.777   9.503  0.6494 -0.2150  0.1176
  499MOL0     C65797   8.145   9.678   9.402  0.5370 -0.1874  0.2729
  499MOL0     C65798   8.192   9.754   9.270  0.4539  0.8300  0.1730
  499MOL0     C65799   8.280   9.659   9.191 -0.5349  0.7234  0.6339
  499MOL0     C65800   8.355   9.596   9.124  0.0025  0.9451 -0.4130
  499MOL0     C65801   7.650   9.767   9.496  0.8248 -0.4126 -0.1723
  499MOL0     C65802   7.522   9.757   9.538 -0.9072 -0.4470  0.3359
  499MOL0     H65803   7.169   9.383   9.391  0.6008  2.1281  0.5584
  499MOL0     H65804   6.942   9.341   9.362  0.3233  0.3920 -0.3416
  499MOL0     H65805   6.812   9.215   9.470  1.6358  2.2219 -0.0484
  499MOL0     H65806   6.697   9.299   9.363 -1.3761  1.7351  0.2280
  499MOL0     H65807   6.624   9.150   9.615  1.5189  3.0273  1.0117
  499MOL0     H65808   6.609   9.097   9.447 -1.4024 -0.3656  1.5924
  499MOL0     H65809   6.397   9.157   9.492  1.0119 -1.3406  2.1122
  499MOL0     H65810   6.464   9.294   9.399  2.6580  1.4787  0.0031
  499MOL0     H65811   6.411   9.312   9.700 -1.2514 -0.9249 -0.1549
  499MOL0     H65812   6.503   9.422   9.598  0.1244  0.3127  0.3422
  499MOL0     H65813   6.308   9.462   9.447 -1.3271  0.2509  0.2214
  499MOL0     H65814   6.275   9.500   9.612 -2.8128  1.1025 -3.0211
  499MOL0     H65815   6.140   9.306   9.642 -0.0490  0.6400 -0.1136
  499MOL0     H65816   6.183   9.241   9.482  2.1061 -0.5862  1.5695
  499MOL0     H65817   6.071   9.436   9.386  1.4458  0.6410  0.0351
  499MOL0     H65818   5.965   9.329   9.492  1.6183 -1.2931 -1.1571
  499MOL0     H65819   6.086   9.598   9.577  1.0728 -0.0201 -0.0916
  499MOL0     H65820   5.968   9.500   9.667  1.2620  1.9773  0.7880
  499MOL0     H65821   5.890   9.526   9.284  1.1242  2.5429 -0.7254
  499MOL0     H65822   5.618   9.479   9.267 -1.9414  0.1805 -0.6428
  499MOL0     H65823   5.673   9.601   9.164  3.0036 -2.7556  0.2844
  499MOL0     H65824   5.487   9.746   9.221 -0.8555  0.0664 -1.0332
  499MOL0     H65825   5.434   9.642   9.355  2.1091 -0.2655  1.4238
  499MOL0     H65826   5.443   9.527   9.063 -0.5729  3.2596 -2.3819
  499MOL0     H65827   5.385   9.458   9.205  0.4080 -0.8549  1.3422
  499MOL0     H65828   5.206   9.584   9.040 -0.1530  1.7901 -1.5650
  499MOL0     H65829   5.246   9.734   9.114  0.4663  1.1758 -0.3133
  499MOL0     H65830   5.034   9.738   9.043 -1.9918  1.7592 -1.2476
  499MOL0     H65831   4.790   9.743   9.002 -1.1522 -3.7166 -0.4300
  499MOL0     H65832   4.352   9.608   9.048 -0.1022  2.2906  0.6566
  499MOL0     H65833   4.108   9.610   9.075  2.0445  3.5849 -0.2162
  499MOL0     H65834   3.894   9.478   9.107 -0.7551 -3.6693  1.2901
  499MOL0     H65835   3.865   9.643   9.158  2.0830 -0.3672 -2.8050
  499MOL0     H65836   3.745   9.520   9.361 -2.0424  0.0453  0.2903
  499MOL0     H65837   3.721   9.389   9.235  1.7969  0.9260 -3.6282
  499MOL0     H65838   3.596   9.550   9.083  1.6853 -2.3357 -0.4413
  499MOL0     H65839   3.612   9.674   9.212 -1.7665 -0.4389  0.8993
  499MOL0     H65840   3.485   9.405   9.239  2.6909  0.2535 -4.1109
  499MOL0     H65841   3.519   9.534   9.366  2.5337  2.2143 -0.9382
  499MOL0     H65842   3.383   9.701   9.245 -0.3246 -0.4089  2.5294
  499MOL0     H65843   3.283   9.559   9.312 -0.9636 -2.0538 -2.0062
  499MOL0     H65844   3.222   9.468   9.138 -0.0767 -0.0906 -0.6402
  499MOL0     H65845   3.366   9.529   9.034 -0.4141  1.4232 -0.8329
  499MOL0     H65846   3.229   9.748   9.018 -0.0454  0.3532 -4.4820
  499MOL0     H65847   3.162   9.599   8.940 -0.3085  1.1013 -0.7038
  499MOL0     H65848   3.015   9.754   9.068  0.8110 -1.1315 -3.1181
  499MOL0     H65849   3.095   9.695   9.223  3.1559 -0.1322 -0.4275
  499MOL0     H65850   4.156   9.419   9.468  1.0616 -0.5637  0.0600
  499MOL0     H65851   4.394   9.436   9.435  2.7092  2.0054 -2.0934
  499MOL0     H65852   4.739   9.492   9.349 -1.8115  0.9402 -1.5509
  499MOL0     H65853   4.993   9.530   9.402  0.9784 -0.0801 -0.4875
  499MOL0     H65854   6.822   9.568   9.699  0.5078  3.1152 -1.6561
  499MOL0     H65855   7.053   9.615   9.753 -1.3370  1.7785 -1.1591
  499MOL0     H65856   7.524   9.457   9.679  1.8383  0.9222  1.3923
  499MOL0     H65857   7.755   9.459   9.613  2.9666  0.2449 -0.1309
  499MOL0     H65858   7.892   9.869   9.549  0.5610  0.4498 -0.2697
  499MOL0     H65859   7.916   9.854   9.379 -0.1980  0.7972 -0.2784
  499MOL0     H65860   8.133   9.873   9.494  0.1429 -0.0065 -0.6403
  499MOL0     H65861   8.081   9.735   9.604 -1.0936 -1.1490 -0.2257
  499MOL0     H65862   8.086   9.592   9.370  4.6355 -2.1748 -2.9009
  499MOL0     H65863   8.240   9.637   9.439  2.3398  1.4257 -2.2111
  499MOL0     H65864   8.106   9.789   9.213 -0.9440 -2.3660  0.1376
  499MOL0     H65865   8.246   9.842   9.309 -1.3809 -0.3465  6.6934
  499MOL0     H65866   8.418   9.532   9.065  0.5120 -0.3510  1.4087
  499MOL0     H65867   7.697   9.855   9.454 -0.7555 -0.2179 -1.6370
  499MOL0     H65868   7.463   9.849   9.536  1.3998  1.1577 -2.2951
  500MOL0     O65869   7.274   7.875   7.057 -0.1356  0.4778 -0.7374
  500MOL0     C65870   7.346   7.804   6.979  0.5527 -1.0550  0.2746
  500MOL0     O65871   7.300   7.708   6.895  0.1373  0.4076  0.2304
  500MOL0     C65872   7.171   7.659   6.914 -0.4576 -0.5278 -0.7681
  500MOL0     C65873   7.104   7.647   6.797 -0.5328  0.3261  0.7630
  500MOL0     C65874   6.984   7.580   6.796 -0.0363  1.0409  0.7748
  500MOL0     C65875   6.922   7.538   6.911  0.6310  0.3792 -0.1824
  500MOL0     O65876   6.794   7.484   6.891 -0.1620 -0.8103  0.5209
  500MOL0     C65877   6.771   7.356   6.931 -0.1257  0.0676  0.3552
  500MOL0     C65878   6.634   7.333   7.007  0.3542  0.1425  0.2381
  500MOL0     C65879   6.617   7.412   7.139  0.1439 -1.1705  0.2877
  500MOL0     C65880   6.470   7.390   7.200  0.3298  0.3633 -0.8085
  500MOL0     C65881   6.425   7.512   7.283  0.0034  2.0558  0.3309
  500MOL0     C65882   6.313   7.474   7.387  0.5336 -0.6547  0.5062
  500MOL0     C65883   6.191   7.422   7.322 -0.2143 -0.2564  0.7544
  500MOL0     C65884   6.120   7.528   7.241  0.2986  0.7156  0.5015
  500MOL0     N65885   6.070   7.645   7.314 -0.5927 -0.6740 -0.1970
  500MOL0     C65886   5.970   7.643   7.409 -0.0071 -0.7928 -0.5004
  500MOL0     C65887   5.964   7.773   7.457 -0.1206  0.3366  0.0553
  500MOL0     C65888   5.885   7.814   7.572  0.0053  0.1988 -0.7104
  500MOL0     C65889   5.744   7.861   7.555  0.8596  0.6320  0.2252
  500MOL0     C65890   5.735   7.990   7.464 -0.6378 -0.1514 -0.1775
  500MOL0     C65891   5.594   8.041   7.457  0.0798 -0.3005  0.2809
  500MOL0     O65892   5.491   7.947   7.433  0.2499  0.7904 -0.7772
  500MOL0     C65893   5.363   7.981   7.396 -0.3016 -0.6350 -0.2103
  500MOL0     C65894   5.313   8.115   7.403 -0.8134 -0.2493 -0.3392
  500MOL0     C65895   5.176   8.145   7.384 -0.2539  0.8616 -0.0269
  500MOL0     C65896   5.086   8.042   7.362 -0.8112 -0.2436  0.5494
  500MOL0     C65897   4.942   8.073   7.331 -0.5115 -0.5388  0.1339
  500MOL0     O65898   4.895   8.206   7.324 -0.2884  0.3009 -0.0100
  500MOL0     C65899   4.765   8.233   7.293 -0.2435 -0.1964  0.1647
  500MOL0     C65900   4.684   8.298   7.392 -0.1171 -0.4736 -0.5618
  500MOL0     C65901   4.544   8.323   7.371 -0.0888 -0.9745  0.5111
  500MOL0     C65902   4.485   8.302   7.247 -0.1561 -0.3081 -0.1460
  500MOL0     O65903   4.357   8.324   7.215  0.2951  0.0752 -0.2047
  500MOL0     C65904   4.255   8.371   7.308  0.9788  0.2298  0.3427
  500MOL0     C65905   4.194   8.263   7.394  0.5320 -0.0313 -0.1654
  500MOL0     C65906   4.108   8.161   7.320 -1.3919 -0.2718  0.1179
  500MOL0     C65907   4.083   8.040   7.411 -0.2505  0.4100 -0.1852
  500MOL0     C65908   3.938   7.993   7.417 -0.0978  0.3128  0.3708
  500MOL0     C65909   3.934   7.871   7.509  0.9414  0.8180  0.4171
  500MOL0     C65910   3.788   7.810   7.505 -1.2735  0.6777 -1.0303
  500MOL0     C65911   3.692   7.911   7.544  0.1424 -0.2372  0.3546
  500MOL0    Cl65912   3.546   7.833   7.615  0.3209  0.1657 -0.0958
  500MOL0     C65913   4.566   8.232   7.154 -0.0037 -0.4190  0.8839
  500MOL0     C65914   4.699   8.200   7.175  0.1381 -0.1444  0.1107
  500MOL0     O65915   4.874   7.968   7.321 -0.4124 -0.3179  0.0731
  500MOL0     C65916   5.139   7.913   7.345 -0.3690  0.2155  1.0163
  500MOL0     C65917   5.275   7.874   7.367  0.4558  0.5048  0.4126
  500MOL0     N65918   6.050   7.852   7.383  0.0158 -0.2458 -0.8291
  500MOL0     N65919   6.123   7.775   7.316  0.0968 -0.0402 -0.1231
  500MOL0     C65920   6.989   7.558   7.032  0.9527 -0.3416 -0.6331
  500MOL0     C65921   7.114   7.625   7.037  0.2045 -0.6716  0.8710
  500MOL0     C65922   7.490   7.835   6.987  0.1060  0.2800 -1.1202
  500MOL0     C65923   7.575   7.724   6.975  0.6370  0.2090 -1.0575
  500MOL0     C65924   7.721   7.733   6.983 -0.2310 -0.0393  0.0627
  500MOL0     C65925   7.778   7.863   7.025  0.2398  0.4518 -0.5496
  500MOL0     O65926   7.907   7.880   7.055  0.0727 -0.6542  0.1272
  500MOL0     C65927   8.004   7.788   7.029  0.4069  0.3388 -0.3914
  500MOL0     C65928   8.125   7.850   7.086  0.0665  0.2498 -0.0333
  500MOL0     C65929   8.145   7.994   7.028 -0.5653  0.1827  0.1839
  500MOL0     C65930   8.291   8.033   7.050  0.5890 -0.1679  0.1517
  500MOL0     C65931   8.378   7.951   6.961  0.6671 -0.4873  0.5648
  500MOL0     C65932   8.446   7.883   6.886  0.4116 -0.1493  0.1948
  500MOL0     C65933   7.686   7.973   7.056 -0.4574  0.3407  0.1556
  500MOL0     C65934   7.556   7.956   7.038  0.7874  0.2661  0.0055
  500MOL0     H65935   7.136   7.669   6.696 -1.6838 -1.7047 -0.1007
  500MOL0     H65936   6.925   7.566   6.707 -1.5163  2.4321  1.4875
  500MOL0     H65937   6.860   7.320   6.984 -1.2785 -1.1647  1.5250
  500MOL0     H65938   6.771   7.305   6.833  0.7806  0.1663  0.2918
  500MOL0     H65939   6.626   7.225   7.021  2.3469 -0.4608 -2.4739
  500MOL0     H65940   6.565   7.369   6.930  1.3987  1.1009 -0.2828
  500MOL0     H65941   6.632   7.516   7.109 -0.4957 -1.8290 -2.6931
  500MOL0     H65942   6.687   7.377   7.215 -3.1969 -1.6946  3.4292
  500MOL0     H65943   6.398   7.371   7.120  0.5453 -1.8386 -0.5351
  500MOL0     H65944   6.468   7.306   7.269  0.1515 -0.0423 -1.2985
  500MOL0     H65945   6.382   7.588   7.218 -2.7053  0.0379 -0.3822
  500MOL0     H65946   6.512   7.557   7.333  0.8331 -0.5178  1.3562
  500MOL0     H65947   6.300   7.568   7.441  1.6143  0.5414 -1.1858
  500MOL0     H65948   6.352   7.402   7.460  1.9711  0.5518  0.9751
  500MOL0     H65949   6.207   7.345   7.245 -2.2327  2.4171 -2.6178
  500MOL0     H65950   6.123   7.385   7.400  0.5533  0.1491  1.6386
  500MOL0     H65951   6.050   7.463   7.189  2.4760 -1.9362  0.6424
  500MOL0     H65952   6.179   7.567   7.157 -0.8709  1.3113 -0.0592
  500MOL0     H65953   5.922   7.555   7.450  0.3916 -1.1617 -0.8118
  500MOL0     H65954   5.932   7.902   7.616 -4.7103  2.0464  1.3412
  500MOL0     H65955   5.899   7.730   7.641  0.2148 -0.3283 -1.3767
  500MOL0     H65956   5.694   7.890   7.648 -0.4291 -0.6431 -0.0312
  500MOL0     H65957   5.680   7.785   7.510  0.9681 -0.6240  2.0775
  500MOL0     H65958   5.796   8.073   7.501 -1.3386  0.2049  0.1762
  500MOL0     H65959   5.768   7.955   7.365  1.8555 -1.4446  1.0347
  500MOL0     H65960   5.588   8.134   7.399  3.1593 -0.3792 -0.3504
  500MOL0     H65961   5.582   8.059   7.564  1.3350 -4.4535  1.2999
  500MOL0     H65962   5.378   8.196   7.433  2.1230 -3.4794  2.9114
  500MOL0     H65963   5.146   8.249   7.393  1.0497  1.4932 -2.1870
  500MOL0     H65964   4.726   8.328   7.487 -1.3670  1.3138 -0.5335
  500MOL0     H65965   4.499   8.386   7.447 -1.8692 -1.9253  0.2912
  500MOL0     H65966   4.174   8.421   7.253 -0.5046 -0.3771  1.8750
  500MOL0     H65967   4.299   8.452   7.368  1.5590 -1.2209  1.9588
  500MOL0     H65968   4.132   8.313   7.469  2.3021 -0.2257  1.5020
  500MOL0     H65969   4.271   8.210   7.451 -2.0179 -2.2267  1.4898
  500MOL0     H65970   4.160   8.125   7.231 -0.7424 -1.2114  0.8679
  500MOL0     H65971   4.017   8.217   7.297 -1.7497 -1.4129 -1.4366
  500MOL0     H65972   4.151   7.959   7.385 -0.7650  0.1748 -0.8342
  500MOL0     H65973   4.101   8.060   7.517  1.8547 -2.2723  0.0750
  500MOL0     H65974   3.900   7.957   7.320 -1.8044 -0.3261  1.2390
  500MOL0     H65975   3.872   8.073   7.453 -0.2937  1.5645 -2.4576
  500MOL0     H65976   3.969   7.893   7.611 -0.2879 -1.3009  1.3672
  500MOL0     H65977   3.993   7.790   7.465  0.6677 -0.1447  1.7499
  500MOL0     H65978   3.756   7.773   7.407 -1.2688 -3.3982  0.3519
  500MOL0     H65979   3.799   7.728   7.575  1.5429  0.6555 -1.4012
  500MOL0     H65980   3.664   7.981   7.464  2.8069  2.4709  1.6099
  500MOL0     H65981   3.738   7.981   7.614  0.1368  1.0353 -0.8736
  500MOL0     H65982   4.511   8.230   7.061  0.9813 -1.5489  0.3163
  500MOL0     H65983   4.758   8.161   7.092 -1.0722  3.1960 -2.5559
  500MOL0     H65984   5.072   7.834   7.314  0.9101 -0.6938  0.4624
  500MOL0     H65985   5.312   7.774   7.349 -1.4320  0.0249 -1.1634
  500MOL0     H65986   6.934   7.523   7.119 -2.1416 -0.7895 -2.5958
  500MOL0     H65987   7.161   7.652   7.131  1.2276  1.6485 -0.2193
  500MOL0     H65988   7.528   7.638   6.928 -0.4437  0.2453 -0.0932
  500MOL0     H65989   7.793   7.655   6.960  1.4125  2.1600 -2.9234
  500MOL0     H65990   8.008   7.769   6.921 -4.1201 -1.2188 -0.5010
  500MOL0     H65991   7.998   7.691   7.080  0.4025 -0.0999 -1.1938
  500MOL0     H65992   8.109   7.870   7.192  1.6879  0.4131  0.2062
  500MOL0     H65993   8.216   7.790   7.073  0.2424 -0.1154  2.3775
  500MOL0     H65994   8.080   8.058   7.088 -1.1871 -1.3708  1.2195
  500MOL0     H65995   8.121   7.993   6.921  0.4759  2.3069 -0.1099
  500MOL0     H65996   8.310   8.138   7.025 -0.0765 -0.0159  0.2647
  500MOL0     H65997   8.324   8.025   7.154  0.6675 -1.3046  0.0549
  500MOL0     H65998   8.521   7.829   6.833  0.9432 -0.1707  0.9490
  500MOL0     H65999   7.720   8.067   7.098 -1.4355  1.8905 -2.3029
  500MOL0     H66000   7.486   8.032   7.071 -1.1858 -1.0969 -0.8080
  501MOL0     O66001  10.377   2.360   4.310  0.0751 -0.8166 -0.5518
  501MOL0     C66002  10.320   2.250   4.306 -0.2651 -0.8408  0.4672
  501MOL0     O66003  10.383   2.138   4.351 -0.4504 -0.4027 -0.3429
  501MOL0     C66004  10.510   2.151   4.399  0.7351  0.0726  0.7708
  501MOL0     C66005  10.620   2.175   4.316  0.0706 -0.5058  0.0641
  501MOL0     C66006  10.754   2.167   4.363  0.6974 -0.7834  0.6800
  501MOL0     C66007  10.775   2.146   4.500 -1.3547 -0.3413 -0.9419
  501MOL0     O66008  10.902   2.140   4.569  0.2589  0.0351 -0.3747
  501MOL0     C66009  10.989   2.047   4.504 -0.2997 -0.0002 -0.9126
  501MOL0     C66010  11.058   1.953   4.617 -0.8670 -0.5216  0.3234
  501MOL0     C66011  10.965   1.886   4.721  0.2927  0.2150 -0.1686
  501MOL0     C66012  10.902   1.764   4.657 -0.3059 -0.1893 -0.1206
  501MOL0     C66013  10.859   1.664   4.752 -0.0171 -0.0809 -0.1548
  501MOL0     C66014  10.972   1.588   4.822 -0.0897 -0.5229 -0.0762
  501MOL0     C66015  10.920   1.488   4.924  0.4641  0.2953 -1.0834
  501MOL0     C66016  11.009   1.369   4.973  1.3496 -0.5128  0.7270
  501MOL0     N66017  11.017   1.253   4.888  0.5416  0.9338  0.6089
  501MOL0     C66018  10.912   1.177   4.854  0.1620  0.3013  0.0839
  501MOL0     C66019  10.949   1.084   4.764  0.0285 -0.1104 -0.0253
  501MOL0     C66020  10.871   0.977   4.702 -0.4416  0.0913 -0.3983
  501MOL0     C66021  10.723   1.023   4.684 -0.5105 -0.0231  0.2234
  501MOL0     C66022  10.630   0.913   4.632  0.4940 -0.5905  0.4593
  501MOL0     C66023  10.508   0.975   4.582  0.2812 -0.3564 -0.0072
  501MOL0     O66024  10.432   1.010   4.700  0.2279  0.0446 -0.5326
  501MOL0     C66025  10.301   1.039   4.674  0.2499  0.3331  0.1084
  501MOL0     C66026  10.234   1.045   4.551  0.3780 -0.1497  0.4427
  501MOL0     C66027  10.112   1.100   4.540 -0.8548  0.9145  0.0411
  501MOL0     C66028  10.043   1.154   4.645 -0.6168  0.0707 -0.5590
  501MOL0     C66029   9.903   1.203   4.635  0.6350  0.5740 -0.2551
  501MOL0     O66030   9.825   1.127   4.552 -0.0076  0.1283  0.8941
  501MOL0     C66031   9.695   1.155   4.508  0.9095  0.0259 -0.4498
  501MOL0     C66032   9.655   1.284   4.476 -0.4059 -0.3259  0.5020
  501MOL0     C66033   9.520   1.311   4.426  0.0658 -0.2222 -0.1036
  501MOL0     C66034   9.432   1.203   4.402  0.1401  1.4370  0.2504
  501MOL0     O66035   9.314   1.211   4.345  0.2178  0.4454  0.3798
  501MOL0     C66036   9.245   1.338   4.334 -0.4844  0.7444  0.0825
  501MOL0     C66037   9.126   1.325   4.232 -0.7615  0.4473 -0.0480
  501MOL0     C66038   9.062   1.460   4.196  0.3527 -0.7438  0.2012
  501MOL0     C66039   8.956   1.505   4.302  0.5024 -0.7520  0.4716
  501MOL0     C66040   8.925   1.653   4.284  0.0195 -0.4131  0.2232
  501MOL0     C66041   8.849   1.694   4.159  0.0293  0.2319 -0.1917
  501MOL0     C66042   8.702   1.653   4.149  0.0973 -0.4180  0.0841
  501MOL0     C66043   8.613   1.727   4.043 -0.9034 -0.2058  0.4374
  501MOL0    Cl66044   8.564   1.887   4.107  0.3147 -0.1287  0.4832
  501MOL0     C66045   9.479   1.072   4.428  0.6614 -0.1590  0.4232
  501MOL0     C66046   9.607   1.049   4.484  0.2104 -0.4781  0.0589
  501MOL0     O66047   9.878   1.312   4.686  0.0437  0.5554  0.2428
  501MOL0     C66048  10.106   1.156   4.775  0.8563  1.2210 -0.5724
  501MOL0     C66049  10.234   1.102   4.784  0.2134 -0.0873  0.3730
  501MOL0     N66050  11.081   1.098   4.756  1.1275 -0.3845  0.0377
  501MOL0     N66051  11.125   1.205   4.821 -1.2731  0.1842 -0.2387
  501MOL0     C66052  10.663   2.137   4.591  0.6226  0.3371  0.0644
  501MOL0     C66053  10.539   2.136   4.535  0.0605  0.6920  0.2138
  501MOL0     C66054  10.181   2.244   4.278 -0.3046 -0.8977  0.0092
  501MOL0     C66055  10.103   2.159   4.351  0.0764  0.5964 -1.8183
  501MOL0     C66056   9.967   2.181   4.349  0.1112  0.4798  0.7160
  501MOL0     C66057   9.902   2.267   4.259  0.1150 -0.3004 -0.2473
  501MOL0     O66058   9.768   2.285   4.250  0.6354 -0.2087  0.0259
  501MOL0     C66059   9.679   2.178   4.284  0.4112 -0.1731 -0.2319
  501MOL0     C66060   9.674   2.072   4.177 -0.5269  0.4730  0.0238
  501MOL0     C66061   9.667   2.137   4.036  0.5289 -0.8228  0.2197
  501MOL0     C66062   9.559   2.246   4.012  1.0746  1.5101 -0.4696
  501MOL0     C66063   9.432   2.177   3.973  0.5425 -0.9972  0.0184
  501MOL0     C66064   9.339   2.128   3.912 -0.6988  0.0125  0.5049
  501MOL0     C66065   9.985   2.345   4.176 -0.6693 -0.3237  0.1124
  501MOL0     C66066  10.131   2.344   4.189  0.6383 -0.8937  0.3222
  501MOL0     H66067  10.599   2.196   4.212  0.9411  2.5857  0.4331
  501MOL0     H66068  10.834   2.167   4.290 -1.5078 -0.3764 -1.8887
  501MOL0     H66069  11.066   2.101   4.448 -0.6202  0.1745 -1.1916
  501MOL0     H66070  10.941   1.977   4.435  0.9079 -1.3928 -0.3922
  501MOL0     H66071  11.112   2.028   4.675 -0.9467 -0.3905  0.2282
  501MOL0     H66072  11.133   1.889   4.570  1.4406 -0.6347  3.7916
  501MOL0     H66073  10.890   1.957   4.758  1.5232  1.7270 -0.4863
  501MOL0     H66074  11.017   1.863   4.815  0.5418 -0.2778 -0.4249
  501MOL0     H66075  10.829   1.792   4.581  0.2007 -1.5152 -1.1215
  501MOL0     H66076  10.990   1.721   4.608 -0.4318 -1.3104  0.5947
  501MOL0     H66077  10.777   1.608   4.707 -1.8749  0.4283  2.3495
  501MOL0     H66078  10.801   1.712   4.831  0.8887  0.6312  0.1025
  501MOL0     H66079  11.047   1.654   4.866  1.8187 -3.0796  0.7541
  501MOL0     H66080  11.026   1.533   4.745 -2.1301 -2.4362 -0.2420
  501MOL0     H66081  10.877   1.545   5.007  0.1059  0.6048 -1.4746
  501MOL0     H66082  10.831   1.449   4.875  0.7400 -1.8302  0.0298
  501MOL0     H66083  10.965   1.347   5.071  0.3930 -0.4322  0.3211
  501MOL0     H66084  11.114   1.398   4.980  1.4783 -1.0894  1.3424
  501MOL0     H66085  10.808   1.193   4.882  0.0523  0.1514 -0.2294
  501MOL0     H66086  10.884   0.896   4.773  2.8474  2.0412  1.4937
  501MOL0     H66087  10.916   0.963   4.603  0.9510  1.4411  0.0104
  501MOL0     H66088  10.712   1.103   4.611 -1.7570  0.0945  0.5031
  501MOL0     H66089  10.679   1.058   4.779 -0.2971  0.5202  0.1213
  501MOL0     H66090  10.683   0.846   4.563 -0.1377 -1.7679  1.0905
  501MOL0     H66091  10.596   0.842   4.709 -1.9214 -0.4291 -0.3869
  501MOL0     H66092  10.447   0.898   4.533 -0.8112  0.4192  0.1088
  501MOL0     H66093  10.520   1.052   4.505 -1.7580 -1.7576 -1.8895
  501MOL0     H66094  10.285   1.003   4.465  2.2000  1.5526  0.6210
  501MOL0     H66095  10.054   1.089   4.449 -2.1911 -2.8045  1.1545
  501MOL0     H66096   9.716   1.372   4.495  2.3250 -1.8875 -0.5049
  501MOL0     H66097   9.495   1.410   4.390 -2.0624 -0.2402  1.1667
  501MOL0     H66098   9.306   1.419   4.292 -0.2372 -0.2433 -1.5267
  501MOL0     H66099   9.216   1.378   4.432  0.0106 -1.8895  1.4118
  501MOL0     H66100   9.048   1.263   4.276 -0.4321  0.2206  0.2248
  501MOL0     H66101   9.158   1.281   4.137 -0.8403  1.0163 -0.3407
  501MOL0     H66102   9.003   1.456   4.104  0.7603 -0.4005 -0.0773
  501MOL0     H66103   9.143   1.532   4.185  1.2523 -1.5296  1.3706
  501MOL0     H66104   8.866   1.449   4.277  0.7650 -1.9434  2.0911
  501MOL0     H66105   8.996   1.481   4.401  1.0588 -4.8801 -0.5447
  501MOL0     H66106   9.019   1.708   4.270  1.6287 -2.5215  1.9611
  501MOL0     H66107   8.874   1.692   4.373 -1.2179 -1.2997 -0.0679
  501MOL0     H66108   8.903   1.651   4.073  1.0150 -1.8851  1.3784
  501MOL0     H66109   8.849   1.803   4.161 -1.4177  0.2424  0.7266
  501MOL0     H66110   8.699   1.548   4.120 -1.7632 -0.2724 -0.4394
  501MOL0     H66111   8.647   1.662   4.243 -1.9797  1.1806 -1.1923
  501MOL0     H66112   8.531   1.661   4.012  2.7410 -3.9904 -2.2882
  501MOL0     H66113   8.670   1.755   3.954  0.4816  0.3679  1.4613
  501MOL0     H66114   9.405   0.996   4.404 -1.0796  1.3813  0.6207
  501MOL0     H66115   9.649   0.950   4.499  1.8620  0.2298  0.3633
  501MOL0     H66116  10.065   1.199   4.866 -1.5084 -0.0154 -0.9834
  501MOL0     H66117  10.282   1.107   4.882 -1.5105  0.6740  1.2304
  501MOL0     H66118  10.687   2.134   4.696  0.3311  1.9100  0.2050
  501MOL0     H66119  10.450   2.123   4.597 -1.5093  3.1723 -1.3484
  501MOL0     H66120  10.141   2.096   4.430 -2.0300  0.2335 -1.0221
  501MOL0     H66121   9.910   2.112   4.410 -0.0634 -0.0549 -0.0410
  501MOL0     H66122   9.580   2.223   4.297  0.1626 -1.2081  1.9267
  501MOL0     H66123   9.701   2.142   4.385 -1.9373 -0.3077  0.2975
  501MOL0     H66124   9.771   2.023   4.189 -2.2090 -2.7204  1.8443
  501MOL0     H66125   9.598   2.001   4.209 -0.3103  0.6377  0.9313
  501MOL0     H66126   9.648   2.055   3.965 -0.3970 -0.5322  0.1195
  501MOL0     H66127   9.765   2.176   4.006 -0.4439 -1.6371 -5.0576
  501MOL0     H66128   9.531   2.309   4.097  0.9915  0.5759  0.2056
  501MOL0     H66129   9.588   2.311   3.929  3.2051  2.1546  0.6815
  501MOL0     H66130   9.265   2.072   3.859 -0.5762 -2.6120  2.8617
  501MOL0     H66131   9.927   2.410   4.111  0.3562 -1.4978 -2.0732
  501MOL0     H66132  10.193   2.413   4.133  0.1366  0.9267  1.8643
  502MOL0     O66133   6.682   8.275  10.462 -0.2036 -0.7666 -0.6199
  502MOL0     C66134   6.694   8.378  10.526  0.3715 -0.6974  0.4507
  502MOL0     O66135   6.632   8.399  10.642 -0.3104 -0.3330  0.7308
  502MOL0     C66136   6.523   8.327  10.675  0.4496 -0.5472 -0.6072
  502MOL0     C66137   6.511   8.269  10.803 -0.1046  0.2502 -0.4385
  502MOL0     C66138   6.390   8.214  10.838 -0.1650 -0.1978  0.1949
  502MOL0     C66139   6.286   8.209  10.750  0.1930 -0.5767  0.1281
  502MOL0     O66140   6.171   8.161  10.807  0.2314  0.1365 -0.2172
  502MOL0     C66141   6.056   8.143  10.729  1.0984  0.0551  0.3008
  502MOL0     C66142   5.944   8.063  10.804 -0.9069 -0.4135 -0.6551
  502MOL0     C66143   5.821   8.032  10.718  0.9927  0.2956  0.0034
  502MOL0     C66144   5.709   7.968  10.804 -0.0007  0.3980  0.0537
  502MOL0     C66145   5.598   7.939  10.704 -0.1844 -0.0072 -0.0260
  502MOL0     C66146   5.515   7.838  10.779  0.4799  0.8412  0.5456
  502MOL0     C66147   5.377   7.817  10.715 -0.0504 -0.3254 -0.9571
  502MOL0     C66148   5.290   7.706  10.774 -0.5525 -0.3988  0.1770
  502MOL0     N66149   5.159   7.682  10.706 -0.0401 -0.5764  0.3111
  502MOL0     C66150   5.034   7.709  10.766  0.6074 -0.1899  1.0063
  502MOL0     C66151   4.944   7.690  10.668 -0.1739  0.7464 -0.8942
  502MOL0     C66152   4.798   7.719  10.693  0.0235  0.4470 -0.6237
  502MOL0     C66153   4.714   7.599  10.662 -0.3110  0.8094 -0.0762
  502MOL0     C66154   4.564   7.636  10.682  0.3808 -0.1960  0.2701
  502MOL0     C66155   4.471   7.527  10.653 -0.0781  0.2461  0.0082
  502MOL0     O66156   4.331   7.572  10.658 -0.1595  0.3502  0.3517
  502MOL0     C66157   4.230   7.474  10.665 -1.1897 -0.3887  0.6989
  502MOL0     C66158   4.106   7.516  10.700  0.5338 -0.0599 -0.0504
  502MOL0     C66159   4.005   7.423  10.692  0.7632 -0.6318 -0.0143
  502MOL0     C66160   4.027   7.284  10.664 -0.3222  0.0288 -0.4829
  502MOL0     C66161   3.922   7.182  10.672  0.6841 -0.1071  0.0896
  502MOL0     O66162   3.795   7.234  10.688  0.2433 -0.6287  1.2120
  502MOL0     C66163   3.686   7.156  10.658 -0.6524  0.8454  0.0225
  502MOL0     C66164   3.580   7.153  10.762 -0.9536  0.1670  0.7478
  502MOL0     C66165   3.452   7.119  10.730  0.2842  0.4039  0.0177
  502MOL0     C66166   3.429   7.070  10.599 -0.8302  0.1529 -0.3510
  502MOL0     O66167   3.305   7.019  10.574  0.3578 -0.2238 -0.3035
  502MOL0     C66168   3.282   6.990  10.434 -0.1401  0.0155 -0.0270
  502MOL0     C66169   3.131   6.958  10.406  1.2018  0.7658 -0.3571
  502MOL0     C66170   3.097   6.811  10.377 -0.2338 -0.2912 -0.3606
  502MOL0     C66171   2.947   6.787  10.368 -0.4620 -1.0741 -0.2916
  502MOL0     C66172   2.918   6.641  10.321 -0.3803  0.3131  0.1777
  502MOL0     C66173   2.778   6.599  10.356 -0.3962 -0.0448 -0.6719
  502MOL0     C66174   2.751   6.468  10.280 -0.3681  0.5167  0.5813
  502MOL0     C66175   2.608   6.416  10.297 -0.5745  0.8742  1.0442
  502MOL0    Cl66176   2.584   6.364  10.468  0.4277  0.3761  0.0170
  502MOL0     C66177   3.535   7.064  10.506 -0.2499  0.0503 -0.2341
  502MOL0     C66178   3.667   7.112  10.532  0.0253  0.0285  0.0008
  502MOL0     O66179   3.954   7.062  10.664 -0.9443  0.0947  0.3914
  502MOL0     C66180   4.153   7.246  10.653 -0.4229  0.5575 -0.5493
  502MOL0     C66181   4.258   7.342  10.655  0.4747 -0.7095 -0.3357
  502MOL0     N66182   5.007   7.651  10.553 -0.1136  0.7862 -0.2398
  502MOL0     N66183   5.136   7.646  10.570 -0.2345 -0.7200  0.3622
  502MOL0     C66184   6.297   8.256  10.623  0.8769 -0.1646 -0.8983
  502MOL0     C66185   6.422   8.319  10.585 -0.8968  0.0180  0.6533
  502MOL0     C66186   6.795   8.468  10.457  1.0065  1.0178 -0.4044
  502MOL0     C66187   6.822   8.591  10.516 -0.5123  0.5056 -0.9238
  502MOL0     C66188   6.916   8.681  10.457 -0.1224  0.3283 -0.4454
  502MOL0     C66189   6.992   8.645  10.350 -0.5125 -0.3483  0.4267
  502MOL0     O66190   7.067   8.741  10.286 -0.2921  0.3639  0.2265
  502MOL0     C66191   7.171   8.785  10.377 -0.0344 -0.2026  0.0289
  502MOL0     C66192   7.268   8.888  10.296  0.0440 -0.1677  0.2582
  502MOL0     C66193   7.346   8.803  10.188  0.2763 -0.1752  0.3545
  502MOL0     C66194   7.415   8.891  10.088 -0.9163 -0.2892  0.0796
  502MOL0     C66195   7.556   8.883  10.112 -0.7028  0.7336  0.1054
  502MOL0     C66196   7.675   8.871  10.142  0.4384 -0.8489 -0.0533
  502MOL0     C66197   6.967   8.526  10.285  0.9888  0.2611 -0.1638
  502MOL0     C66198   6.866   8.440  10.334  0.9865  0.9747 -0.5118
  502MOL0     H66199   6.590   8.285  10.877 -0.1623  0.9353 -0.5163
  502MOL0     H66200   6.366   8.168  10.933 -1.1972  0.2761  0.1716
  502MOL0     H66201   6.081   8.084  10.640 -0.2289 -2.1060  1.3063
  502MOL0     H66202   6.029   8.247  10.705  0.3223 -0.2810 -0.3353
  502MOL0     H66203   5.915   8.118  10.894 -1.4776 -0.4752 -0.8015
  502MOL0     H66204   5.994   7.973  10.840  0.8084  1.0756  0.9732
  502MOL0     H66205   5.848   7.967  10.634  0.6511 -0.8074  0.7183
  502MOL0     H66206   5.780   8.126  10.680  1.0237  1.0563  1.7901
  502MOL0     H66207   5.752   7.879  10.852  0.2621  1.1670  1.3011
  502MOL0     H66208   5.669   8.021  10.891 -2.7056 -2.6522  0.9087
  502MOL0     H66209   5.633   7.899  10.608  2.2285  1.0725  0.3140
  502MOL0     H66210   5.548   8.034  10.684  0.9839  0.8990  1.1179
  502MOL0     H66211   5.493   7.858  10.884 -1.2491 -1.3995  0.6828
  502MOL0     H66212   5.573   7.745  10.770 -3.6831 -2.4755  3.9358
  502MOL0     H66213   5.321   7.911  10.705 -0.5219 -0.5224 -0.2738
  502MOL0     H66214   5.396   7.788  10.611 -1.5545 -2.3529 -0.7253
  502MOL0     H66215   5.282   7.705  10.883  0.8542 -2.3066  0.3133
  502MOL0     H66216   5.354   7.620  10.757  1.6686  0.5263  3.0587
  502MOL0     H66217   5.016   7.735  10.870 -0.4849  0.8545  0.5812
  502MOL0     H66218   4.765   7.808  10.638 -2.5384  0.5214  0.8783
  502MOL0     H66219   4.788   7.746  10.798  4.6253 -1.3856  0.5495
  502MOL0     H66220   4.731   7.510  10.724 -1.1510  0.9817  0.4192
  502MOL0     H66221   4.728   7.565  10.558 -1.7701  2.0380 -0.7183
  502MOL0     H66222   4.536   7.662  10.784 -1.0777 -2.8441  0.6365
  502MOL0     H66223   4.535   7.715  10.612 -2.4728 -0.0614  1.4929
  502MOL0     H66224   4.483   7.460  10.738  0.4240 -1.0904 -1.0820
  502MOL0     H66225   4.481   7.483  10.553 -2.1868 -0.4162  0.0300
  502MOL0     H66226   4.087   7.622  10.715 -0.7213 -0.5010  1.6992
  502MOL0     H66227   3.905   7.464  10.707  0.7676 -1.1760  1.6778
  502MOL0     H66228   3.628   7.193  10.851  1.1870 -0.8120  0.1125
  502MOL0     H66229   3.376   7.140  10.805  1.0415  1.1233  0.6089
  502MOL0     H66230   3.351   6.910  10.403  1.8987  1.0735  1.5314
  502MOL0     H66231   3.312   7.066  10.361  3.2025 -2.4485 -1.5494
  502MOL0     H66232   3.110   7.028  10.325  1.1826  0.9964 -0.1545
  502MOL0     H66233   3.081   6.981  10.501  1.5445  0.2969 -0.0613
  502MOL0     H66234   3.141   6.754  10.460 -1.3389  0.2405  0.6341
  502MOL0     H66235   3.146   6.771  10.288 -0.4649 -1.6634  0.1090
  502MOL0     H66236   2.908   6.816  10.466  1.5413  1.1095 -0.0301
  502MOL0     H66237   2.897   6.851  10.295 -0.7436 -2.1125 -1.0237
  502MOL0     H66238   2.997   6.586  10.372 -0.1005  1.8517  1.4910
  502MOL0     H66239   2.924   6.643  10.212 -1.0339  0.5599  0.1443
  502MOL0     H66240   2.706   6.678  10.333 -0.3869  0.5829  1.2553
  502MOL0     H66241   2.766   6.576  10.462  1.8090 -2.3348 -0.8349
  502MOL0     H66242   2.772   6.479  10.173 -0.8068  1.2944  0.5748
  502MOL0     H66243   2.820   6.389  10.314  0.1592  1.3469  1.4922
  502MOL0     H66244   2.585   6.327  10.237 -2.3452  0.9097  1.6011
  502MOL0     H66245   2.535   6.496  10.284 -0.9163  0.4658  0.3885
  502MOL0     H66246   3.519   7.033  10.404  0.4565  0.8101 -0.5848
  502MOL0     H66247   3.739   7.136  10.454  0.9144 -2.4554 -0.0583
  502MOL0     H66248   4.184   7.145  10.629  0.8385  0.6328  0.6267
  502MOL0     H66249   4.362   7.319  10.634  1.1329  2.2420 -0.7527
  502MOL0     H66250   6.209   8.243  10.561 -1.4770 -1.5131  2.4136
  502MOL0     H66251   6.432   8.358  10.484 -0.1997 -0.1520  0.6551
  502MOL0     H66252   6.770   8.617  10.608  1.4069 -1.0059  0.6724
  502MOL0     H66253   6.922   8.783  10.494 -0.5946  0.0466  0.4468
  502MOL0     H66254   7.224   8.697  10.415  1.2875  0.5991  0.0775
  502MOL0     H66255   7.126   8.837  10.462  2.0449 -1.2376  1.8721
  502MOL0     H66256   7.200   8.962  10.253  0.3215  0.9622  1.6795
  502MOL0     H66257   7.337   8.933  10.369  0.2539 -0.1359  0.0409
  502MOL0     H66258   7.287   8.731  10.130  1.2569 -0.2052 -0.6447
  502MOL0     H66259   7.417   8.740  10.243  1.2146  0.0528 -0.5573
  502MOL0     H66260   7.398   8.860   9.984 -2.4698 -0.5818  0.3965
  502MOL0     H66261   7.389   8.997  10.101  1.7795  0.3456  0.9255
  502MOL0     H66262   7.777   8.852  10.167  0.6406  2.0923  1.7583
  502MOL0     H66263   7.013   8.522  10.186  0.7524  0.3247 -0.2771
  502MOL0     H66264   6.828   8.357  10.277 -0.7033  1.2565  0.1519
  503MOL0     O66265   2.529   7.543   2.318  0.6797  0.6593  0.5268
  503MOL0     C66266   2.601   7.556   2.223 -0.6059 -0.4082  0.5134
  503MOL0     O66267   2.609   7.475   2.108  0.2210  0.3003 -0.4627
  503MOL0     C66268   2.516   7.374   2.101  0.0196 -0.5286  0.1844
  503MOL0     C66269   2.544   7.243   2.142 -0.5276  0.1371  0.4829
  503MOL0     C66270   2.441   7.149   2.127 -1.0552  0.4842 -1.0148
  503MOL0     C66271   2.315   7.181   2.081  0.6627  0.0340 -0.6603
  503MOL0     O66272   2.200   7.103   2.072  0.2688  0.2679 -0.1514
  503MOL0     C66273   2.184   6.994   2.164 -0.4035  0.4610  0.1795
  503MOL0     C66274   2.037   6.947   2.171 -0.0784  0.5487  0.1243
  503MOL0     C66275   2.018   6.824   2.264  0.0713 -0.8045  0.3617
  503MOL0     C66276   1.880   6.778   2.254 -0.1779 -0.6843 -0.0245
  503MOL0     C66277   1.854   6.658   2.357  0.4761  0.5037  0.8122
  503MOL0     C66278   1.719   6.592   2.353  0.1257  0.5648  0.0467
  503MOL0     C66279   1.724   6.472   2.450  0.1559  0.5555 -0.2215
  503MOL0     C66280   1.579   6.419   2.490  0.4791 -0.5229 -0.4870
  503MOL0     N66281   1.522   6.480   2.613 -0.9387 -0.1818 -0.0480
  503MOL0     C66282   1.494   6.608   2.630  0.1489  1.5552 -0.0614
  503MOL0     C66283   1.434   6.612   2.752 -0.2463  0.1266 -0.5684
  503MOL0     C66284   1.386   6.740   2.818 -0.6385  0.6143 -0.2053
  503MOL0     C66285   1.451   6.861   2.753  0.7456 -0.2145  0.2510
  503MOL0     C66286   1.399   6.993   2.821 -0.4120  0.8116  0.1316
  503MOL0     C66287   1.457   7.116   2.767  0.1456 -0.1529 -0.2477
  503MOL0     O66288   1.594   7.130   2.808 -0.1231  0.4932  0.2764
  503MOL0     C66289   1.640   7.258   2.859 -0.4080 -0.1817  0.4652
  503MOL0     C66290   1.557   7.378   2.868 -0.3031 -0.1495  0.6724
  503MOL0     C66291   1.612   7.503   2.911 -0.5039  0.6317 -0.1851
  503MOL0     C66292   1.746   7.509   2.943 -0.6954 -0.5341 -0.1421
  503MOL0     C66293   1.807   7.636   2.980  0.0896  0.6775  0.0114
  503MOL0     O66294   1.937   7.641   3.002  1.0641  0.2094 -0.2416
  503MOL0     C66295   1.998   7.711   3.102  0.6957  0.6059  0.2017
  503MOL0     C66296   2.134   7.693   3.099 -0.7288 -1.5191 -0.2565
  503MOL0     C66297   2.211   7.766   3.179  0.1436  0.8016 -0.1720
  503MOL0     C66298   2.163   7.873   3.269  0.5481  0.0534  0.2235
  503MOL0     O66299   2.251   7.946   3.344  0.2689 -0.6073  0.2647
  503MOL0     C66300   2.209   8.083   3.389 -0.5631  0.2527 -0.6862
  503MOL0     C66301   2.319   8.137   3.489 -0.2239  0.2111 -0.1801
  503MOL0     C66302   2.456   8.171   3.430 -0.0309  0.5381 -0.7196
  503MOL0     C66303   2.558   8.209   3.534 -0.3623 -1.0192  0.8397
  503MOL0     C66304   2.691   8.243   3.473  0.0938  0.0677  0.3228
  503MOL0     C66305   2.796   8.291   3.569 -0.2570 -0.3913 -0.3447
  503MOL0     C66306   2.918   8.352   3.489  0.1073  0.5848 -0.2135
  503MOL0     C66307   3.022   8.391   3.596 -0.6202 -0.2625  0.0522
  503MOL0    Cl66308   3.154   8.481   3.521 -0.2228  0.3719 -0.0787
  503MOL0     C66309   2.027   7.880   3.283 -1.0233  0.6351 -1.6714
  503MOL0     C66310   1.946   7.793   3.201  0.3763  0.2368 -0.8026
  503MOL0     O66311   1.730   7.730   3.008 -0.6691  0.4946 -0.2748
  503MOL0     C66312   1.829   7.393   2.940  0.6103 -0.2090  0.4466
  503MOL0     C66313   1.770   7.271   2.909  0.3780 -0.0804  0.1483
  503MOL0     N66314   1.412   6.482   2.794 -0.1541  0.5594 -0.3317
  503MOL0     N66315   1.471   6.406   2.715 -0.2540  0.0726  0.5709
  503MOL0     C66316   2.285   7.308   2.038 -1.0930 -0.6226  0.0317
  503MOL0     C66317   2.387   7.407   2.054  0.8612  0.3652  0.8325
  503MOL0     C66318   2.685   7.674   2.229 -0.3141  0.4341 -0.5763
  503MOL0     C66319   2.662   7.772   2.329  0.3748  0.7871 -0.8797
  503MOL0     C66320   2.754   7.870   2.353 -0.2514  0.1138 -0.1165
  503MOL0     C66321   2.863   7.902   2.269  0.5680  0.3604 -0.2303
  503MOL0     O66322   2.958   8.002   2.279  0.1523 -0.3725 -0.4448
  503MOL0     C66323   2.922   8.131   2.324 -0.7201 -0.5444 -0.4108
  503MOL0     C66324   2.909   8.241   2.223 -0.0299  0.0382  0.1649
  503MOL0     C66325   3.040   8.253   2.150 -0.7492 -0.3463  0.4055
  503MOL0     C66326   3.040   8.362   2.033 -0.8384  0.6894 -0.1104
  503MOL0     C66327   3.128   8.342   1.920  0.7321  0.8113  0.2482
  503MOL0     C66328   3.207   8.334   1.824 -0.4766  0.9948 -0.5766
  503MOL0     C66329   2.864   7.818   2.163 -0.6752 -0.2988 -0.2638
  503MOL0     C66330   2.789   7.705   2.142  0.4398 -0.2525  1.0022
  503MOL0     H66331   2.638   7.232   2.194  0.9135  3.3393 -1.1293
  503MOL0     H66332   2.467   7.051   2.166 -0.2232  0.8283 -0.6834
  503MOL0     H66333   2.211   7.008   2.269  0.0951 -1.3912  0.3389
  503MOL0     H66334   2.247   6.911   2.129 -1.8598 -1.1160  1.1187
  503MOL0     H66335   2.003   6.919   2.071  0.7623 -1.6687  0.4043
  503MOL0     H66336   1.980   7.034   2.204 -0.8667 -0.0980  0.4993
  503MOL0     H66337   2.032   6.867   2.364 -1.1933  2.5382 -0.7934
  503MOL0     H66338   2.094   6.747   2.245  1.5743  0.9980 -1.2636
  503MOL0     H66339   1.817   6.866   2.272 -0.9848 -1.0082 -1.1175
  503MOL0     H66340   1.861   6.753   2.149  1.0153  3.1929 -1.2982
  503MOL0     H66341   1.878   6.683   2.461 -1.1244  0.9706  1.1025
  503MOL0     H66342   1.929   6.587   2.321 -0.4122 -0.1803  0.2819
  503MOL0     H66343   1.710   6.559   2.249  0.2945  1.1325 -0.1516
  503MOL0     H66344   1.640   6.662   2.381 -1.4141 -1.3223  0.6209
  503MOL0     H66345   1.786   6.390   2.412 -1.1745 -0.2540 -0.7101
  503MOL0     H66346   1.779   6.494   2.542 -0.2913 -1.6317  0.6181
  503MOL0     H66347   1.577   6.310   2.504 -2.2034 -0.5837 -0.8672
  503MOL0     H66348   1.511   6.443   2.407  0.0748 -4.4616 -1.5239
  503MOL0     H66349   1.515   6.692   2.566 -3.2028  2.5677 -0.0172
  503MOL0     H66350   1.403   6.743   2.926  1.2808  0.9203 -0.4777
  503MOL0     H66351   1.276   6.745   2.819 -0.6659  0.0644  0.8520
  503MOL0     H66352   1.422   6.872   2.648  0.1992 -2.3847  0.1303
  503MOL0     H66353   1.559   6.864   2.769  0.3271  0.0671  3.7591
  503MOL0     H66354   1.292   7.004   2.800 -0.9905 -3.9452 -0.5485
  503MOL0     H66355   1.398   6.982   2.930  0.9404 -0.1454  0.0706
  503MOL0     H66356   1.387   7.198   2.786 -2.7717 -1.9099 -2.5642
  503MOL0     H66357   1.449   7.102   2.659 -2.8797  1.0064 -0.2649
  503MOL0     H66358   1.457   7.378   2.826 -0.3635 -1.9513  0.7486
  503MOL0     H66359   1.560   7.596   2.930  2.6452  2.2826  0.9797
  503MOL0     H66360   2.179   7.624   3.028 -0.1720 -1.4303  0.0035
  503MOL0     H66361   2.319   7.757   3.176  0.1149  0.1218  0.4969
  503MOL0     H66362   2.114   8.073   3.442 -0.9066 -1.7147 -1.5989
  503MOL0     H66363   2.194   8.162   3.314 -1.2755 -0.7612 -1.6302
  503MOL0     H66364   2.328   8.062   3.568 -0.1723  2.3740  1.9771
  503MOL0     H66365   2.283   8.227   3.539  2.6962  1.2018  0.3491
  503MOL0     H66366   2.447   8.250   3.355  1.3394  2.0779  0.6790
  503MOL0     H66367   2.480   8.082   3.370  2.2460  1.6398 -1.5767
  503MOL0     H66368   2.535   8.278   3.616 -0.5372  1.0572 -0.8910
  503MOL0     H66369   2.575   8.112   3.582 -0.6550 -0.6493  1.7061
  503MOL0     H66370   2.682   8.316   3.392  2.5965 -0.1564 -0.2622
  503MOL0     H66371   2.723   8.155   3.416  1.2020  2.0505 -2.3169
  503MOL0     H66372   2.843   8.213   3.629  0.1001  0.8454  1.0565
  503MOL0     H66373   2.752   8.357   3.646 -0.8183 -0.0569 -0.9403
  503MOL0     H66374   2.966   8.282   3.419 -1.8203  0.8147 -1.8484
  503MOL0     H66375   2.886   8.445   3.441 -1.0573 -0.5565 -1.7613
  503MOL0     H66376   3.057   8.304   3.653 -2.7207 -0.7409  0.7070
  503MOL0     H66377   2.980   8.463   3.666 -0.9861 -0.2053 -0.2239
  503MOL0     H66378   1.975   7.944   3.353 -0.0235 -1.5622  1.3022
  503MOL0     H66379   1.839   7.806   3.212  0.2969 -0.4174 -0.7733
  503MOL0     H66380   1.936   7.395   2.962  0.4318 -0.0461  1.3266
  503MOL0     H66381   1.830   7.180   2.905 -0.2379 -0.4771 -0.1751
  503MOL0     H66382   2.193   7.344   1.993 -0.9824 -0.1322  0.1828
  503MOL0     H66383   2.355   7.507   2.026 -3.0248 -1.7402 -3.8220
  503MOL0     H66384   2.591   7.764   2.411  0.8676 -0.2085 -0.5282
  503MOL0     H66385   2.738   7.924   2.446 -2.2174  2.9564 -1.9345
  503MOL0     H66386   3.006   8.160   2.388 -0.8599 -1.4588  0.2121
  503MOL0     H66387   2.829   8.124   2.382 -1.2725 -1.7100 -1.3966
  503MOL0     H66388   2.833   8.207   2.153 -0.6099 -0.8720  1.1982
  503MOL0     H66389   2.878   8.328   2.281  1.9702 -1.2126  3.4382
  503MOL0     H66390   3.069   8.153   2.114  2.0476 -0.5713  2.9034
  503MOL0     H66391   3.116   8.284   2.222  0.6488  2.1538 -1.9684
  503MOL0     H66392   2.939   8.370   1.991 -0.7638 -2.9791 -1.2654
  503MOL0     H66393   3.059   8.462   2.075  0.5157  1.0247 -1.4113
  503MOL0     H66394   3.268   8.315   1.738 -2.4451  1.6448 -2.1944
  503MOL0     H66395   2.940   7.858   2.097  1.3932  1.4951  2.9606
  503MOL0     H66396   2.810   7.631   2.066  0.2339  0.6365  0.0593
  504MOL0     O66397   3.533   8.166   0.673  0.1621  0.2420 -0.1701
  504MOL0     C66398   3.617   8.083   0.644 -0.3029  0.3677 -0.0345
  504MOL0     O66399   3.600   7.950   0.607  0.4053  0.2279  0.4823
  504MOL0     C66400   3.474   7.903   0.583  0.2499  0.0790 -0.8477
  504MOL0     C66401   3.426   7.783   0.640  0.2679 -0.3090 -0.6083
  504MOL0     C66402   3.297   7.732   0.614  0.0761  0.1253  0.4217
  504MOL0     C66403   3.217   7.798   0.522 -0.1654 -0.1161 -0.4423
  504MOL0     O66404   3.089   7.749   0.500 -0.2396  1.0514  1.0600
  504MOL0     C66405   2.981   7.830   0.442 -0.1145 -0.1019 -0.4681
  504MOL0     C66406   2.926   7.928   0.542  0.3824 -0.0756 -1.3593
  504MOL0     C66407   2.858   7.840   0.656  0.3538 -0.2875 -0.0632
  504MOL0     C66408   2.803   7.940   0.769  0.1115  0.7187  0.7916
  504MOL0     C66409   2.781   7.863   0.899 -0.1924  0.0635 -0.7879
  504MOL0     C66410   2.906   7.831   0.981  0.0476 -0.0508  0.1354
  504MOL0     C66411   2.857   7.760   1.104  0.3114 -0.9827  0.2667
  504MOL0     C66412   2.979   7.714   1.182 -0.2177  0.5771 -0.2694
  504MOL0     N66413   2.956   7.672   1.321 -0.8100 -0.1164 -0.4458
  504MOL0     C66414   3.049   7.673   1.418 -0.8175 -0.3175 -0.3226
  504MOL0     C66415   2.988   7.650   1.530  0.0049  0.0895  0.1007
  504MOL0     C66416   3.043   7.647   1.672 -0.2561  0.2168  0.8360
  504MOL0     C66417   2.991   7.777   1.748  0.2187  0.8999  0.5379
  504MOL0     C66418   3.084   7.811   1.867  0.3189  0.7031 -0.2110
  504MOL0     C66419   3.224   7.856   1.837 -0.7515 -0.2481  0.3197
  504MOL0     O66420   3.314   7.743   1.844 -0.2051 -0.9564  0.1855
  504MOL0     C66421   3.452   7.766   1.826 -0.4840 -0.3242 -0.3516
  504MOL0     C66422   3.543   7.663   1.863 -0.9102  0.4839  1.0951
  504MOL0     C66423   3.681   7.682   1.853 -0.0645  1.0525  0.0452
  504MOL0     C66424   3.734   7.800   1.798  0.5147 -0.7006 -0.1980
  504MOL0     C66425   3.879   7.813   1.780  0.4085  0.7604  0.4243
  504MOL0     O66426   3.928   7.937   1.780  0.7314 -0.4733 -0.4973
  504MOL0     C66427   4.061   7.949   1.785  0.5552  0.2402 -0.4893
  504MOL0     C66428   4.137   7.926   1.897 -0.5232 -0.6564 -0.5877
  504MOL0     C66429   4.277   7.949   1.907 -0.6592  0.9031 -0.3165
  504MOL0     C66430   4.342   8.000   1.790 -0.2632 -0.0072  1.0754
  504MOL0     O66431   4.477   8.027   1.775  0.6377 -0.8752  0.3860
  504MOL0     C66432   4.566   7.994   1.876 -0.2900  0.2013  0.5979
  504MOL0     C66433   4.705   8.007   1.811 -0.3491 -0.6894  0.1089
  504MOL0     C66434   4.810   8.055   1.920  1.2127 -0.6129  0.5858
  504MOL0     C66435   4.937   8.083   1.845 -0.1494 -0.4492  0.5355
  504MOL0     C66436   5.050   8.141   1.935  0.6296 -0.3584  0.5483
  504MOL0     C66437   5.170   8.204   1.862 -0.0018 -0.1775  0.1261
  504MOL0     C66438   5.296   8.195   1.948  0.1220 -0.5614  0.0890
  504MOL0     C66439   5.417   8.249   1.879 -0.4059  0.1981  0.0989
  504MOL0    Cl66440   5.554   8.196   1.987  0.4242  0.2096  0.2321
  504MOL0     C66441   4.261   8.013   1.674 -0.3964  0.0029 -1.1141
  504MOL0     C66442   4.122   7.994   1.670 -0.0994  0.1947  0.7355
  504MOL0     O66443   3.951   7.712   1.774 -0.0254 -0.8296 -0.1654
  504MOL0     C66444   3.651   7.906   1.762  0.0870 -0.0450 -0.6018
  504MOL0     C66445   3.514   7.885   1.779  0.0375  0.2494 -1.1747
  504MOL0     N66446   2.852   7.652   1.505 -0.9406 -0.9707  1.2621
  504MOL0     N66447   2.834   7.674   1.379  0.4343  1.2979 -0.0603
  504MOL0     C66448   3.263   7.922   0.473 -1.7048 -0.4059 -0.1891
  504MOL0     C66449   3.388   7.974   0.495 -0.1963 -0.7774 -0.5597
  504MOL0     C66450   3.759   8.124   0.664 -0.0433 -0.1631 -1.2564
  504MOL0     C66451   3.790   8.255   0.708  0.6728  0.3016  0.5279
  504MOL0     C66452   3.926   8.301   0.709 -0.2566  1.0354  0.0564
  504MOL0     C66453   4.033   8.221   0.675 -0.2641  0.9738  0.4409
  504MOL0     O66454   4.159   8.272   0.693 -0.3997 -0.3984 -0.1097
  504MOL0     C66455   4.279   8.193   0.645 -0.7087 -0.0702 -0.1115
  504MOL0     C66456   4.399   8.260   0.695 -0.4069  0.2211 -0.2672
  504MOL0     C66457   4.395   8.414   0.677  0.0934  0.1439  0.3641
  504MOL0     C66458   4.510   8.473   0.753 -1.2692 -0.0826 -1.2824
  504MOL0     C66459   4.453   8.593   0.817  0.0224  0.7621  0.3014
  504MOL0     C66460   4.430   8.700   0.870 -0.7197  0.6069  1.4805
  504MOL0     C66461   4.000   8.087   0.624  0.7271 -1.0022 -0.0332
  504MOL0     C66462   3.866   8.045   0.617  0.0288  1.1550 -0.0730
  504MOL0     H66463   3.483   7.714   0.702 -2.4798 -2.3715 -0.1596
  504MOL0     H66464   3.259   7.641   0.658 -1.4930 -0.7050 -2.4529
  504MOL0     H66465   2.890   7.773   0.423 -1.4225  1.3292  1.1651
  504MOL0     H66466   3.021   7.882   0.354  1.6593  0.5089  0.6503
  504MOL0     H66467   2.845   7.986   0.498  1.1031  1.3580 -0.8353
  504MOL0     H66468   3.006   7.986   0.589  0.8213 -1.3873 -0.4393
  504MOL0     H66469   2.929   7.763   0.690  0.6395 -0.8725 -1.8820
  504MOL0     H66470   2.767   7.796   0.615  0.9383 -1.1280 -0.4819
  504MOL0     H66471   2.875   8.021   0.781  1.1525  0.2550 -1.6349
  504MOL0     H66472   2.710   7.992   0.745  0.6051  2.4753  2.4568
  504MOL0     H66473   2.731   7.768   0.879 -0.2505 -0.1314  0.2356
  504MOL0     H66474   2.710   7.922   0.957 -1.7509 -1.2819 -1.2645
  504MOL0     H66475   2.957   7.924   1.008  1.8298 -0.6818 -0.9291
  504MOL0     H66476   2.984   7.778   0.927  0.0567  0.6316 -0.5380
  504MOL0     H66477   2.798   7.824   1.170 -1.9662 -0.8342 -1.7729
  504MOL0     H66478   2.794   7.679   1.066  0.7451 -0.2594 -2.1743
  504MOL0     H66479   3.049   7.798   1.185  1.8004 -1.0585  1.3853
  504MOL0     H66480   3.038   7.640   1.127 -0.2382  0.8273 -0.6377
  504MOL0     H66481   3.152   7.694   1.389 -1.1765 -1.7085 -2.9503
  504MOL0     H66482   3.153   7.649   1.672 -0.2573  0.4180  1.6453
  504MOL0     H66483   2.999   7.559   1.719  0.3210 -1.6457 -1.8452
  504MOL0     H66484   2.894   7.749   1.791 -0.7386 -0.5507 -2.3213
  504MOL0     H66485   2.980   7.864   1.684  2.9976  1.3423  0.5705
  504MOL0     H66486   3.050   7.896   1.927  1.7467  0.6892  0.6438
  504MOL0     H66487   3.098   7.718   1.922  1.0780 -1.0738 -3.1700
  504MOL0     H66488   3.255   7.929   1.912  0.4065  0.8929 -1.1870
  504MOL0     H66489   3.231   7.896   1.735  0.1448  0.2416  0.5540
  504MOL0     H66490   3.505   7.567   1.895 -1.0476 -0.0462 -0.5873
  504MOL0     H66491   3.732   7.590   1.881 -2.3159 -0.6583 -1.2009
  504MOL0     H66492   4.081   7.885   1.980 -4.7543 -0.7378 -3.1574
  504MOL0     H66493   4.329   7.934   2.001 -1.7856  2.7173  0.6706
  504MOL0     H66494   4.548   7.891   1.907 -0.4210 -0.7246 -2.2475
  504MOL0     H66495   4.554   8.072   1.952 -1.2609  1.3380 -0.6597
  504MOL0     H66496   4.702   8.087   1.737 -1.5983 -0.4943  0.3398
  504MOL0     H66497   4.743   7.910   1.776  1.1602 -1.2585  3.0220
  504MOL0     H66498   4.829   7.980   1.997 -0.0594 -0.3396  1.1844
  504MOL0     H66499   4.764   8.142   1.968  3.3845  0.1164  1.4501
  504MOL0     H66500   4.968   7.990   1.796  0.7658 -0.8361  1.7942
  504MOL0     H66501   4.916   8.168   1.780  1.0843  2.4194  3.6232
  504MOL0     H66502   5.094   8.075   2.011  0.1248 -0.3830  0.8176
  504MOL0     H66503   5.003   8.227   1.984  2.0840  1.9279 -1.8204
  504MOL0     H66504   5.141   8.308   1.845 -0.8525 -0.4570 -0.2433
  504MOL0     H66505   5.195   8.148   1.772  2.1022 -1.9741  1.7239
  504MOL0     H66506   5.279   8.243   2.044 -1.3285 -2.8909  1.0983
  504MOL0     H66507   5.310   8.086   1.957 -1.0921 -0.6429  1.1676
  504MOL0     H66508   5.414   8.359   1.872 -0.9223  0.1012 -1.9955
  504MOL0     H66509   5.423   8.201   1.781  1.4703  1.0002 -0.2187
  504MOL0     H66510   4.301   8.062   1.585 -0.7525  0.5907 -0.9568
  504MOL0     H66511   4.065   8.013   1.580  0.4145 -0.6850  0.2051
  504MOL0     H66512   3.684   8.000   1.718 -2.8641  0.8250 -1.2184
  504MOL0     H66513   3.451   7.973   1.771 -2.0001 -1.0091  0.1100
  504MOL0     H66514   3.203   7.977   0.401 -0.8840 -0.0382 -0.6047
  504MOL0     H66515   3.405   8.073   0.454 -2.6041  0.3422  0.8757
  504MOL0     H66516   3.713   8.317   0.754  1.2163  1.3349  0.0764
  504MOL0     H66517   3.936   8.403   0.746 -1.2632  1.0461  0.3342
  504MOL0     H66518   4.283   8.202   0.536  0.0763 -0.8041 -0.1531
  504MOL0     H66519   4.264   8.088   0.670 -1.1055  0.5018  2.3182
  504MOL0     H66520   4.412   8.223   0.797  0.0205  2.2813  0.4613
  504MOL0     H66521   4.483   8.220   0.637 -0.5664  0.8067 -0.9069
  504MOL0     H66522   4.301   8.462   0.706  0.3923  1.1734 -0.3273
  504MOL0     H66523   4.415   8.449   0.575  2.0407  2.1984  1.3589
  504MOL0     H66524   4.550   8.405   0.828 -2.8663 -1.3932 -1.5596
  504MOL0     H66525   4.597   8.497   0.691  0.9537  0.8843  1.9448
  504MOL0     H66526   4.414   8.798   0.910  1.4520  1.4764  0.3678
  504MOL0     H66527   4.077   8.021   0.585  1.5132  0.4414 -1.0407
  504MOL0     H66528   3.856   7.945   0.575  2.9347 -0.3285  2.3501
  505MOL0     O66529   2.401   3.726   4.844  0.1002  0.0228  0.2967
  505MOL0     C66530   2.468   3.637   4.890 -0.3029 -0.6843 -0.7190
  505MOL0     O66531   2.418   3.523   4.936 -0.2090  0.7384 -0.5798
  505MOL0     C66532   2.283   3.505   4.953  0.2142  0.1765  0.9492
  505MOL0     C66533   2.245   3.462   5.071 -0.1791  0.5364 -0.8369
  505MOL0     C66534   2.113   3.466   5.111  0.0629 -0.0651 -1.0692
  505MOL0     C66535   2.016   3.482   5.016  0.2702  0.4047  0.2128
  505MOL0     O66536   1.883   3.473   5.050 -0.0783 -0.1457  0.4246
  505MOL0     C66537   1.771   3.492   4.960 -0.2672  0.2317  0.5355
  505MOL0     C66538   1.654   3.511   5.052 -0.5467 -0.2806  0.5846
  505MOL0     C66539   1.541   3.591   4.991 -0.3893  0.3312  1.1512
  505MOL0     C66540   1.404   3.572   5.060  0.9342  0.1184 -0.2435
  505MOL0     C66541   1.290   3.667   5.005  1.3327 -0.3848  0.7967
  505MOL0     C66542   1.147   3.624   5.038 -0.5335  0.1592 -0.9722
  505MOL0     C66543   1.040   3.737   5.029 -0.2169  0.5529 -0.3064
  505MOL0     C66544   1.035   3.823   5.164 -0.0381  0.1955  0.4554
  505MOL0     N66545   0.918   3.913   5.142  0.4971 -0.3163  0.5187
  505MOL0     C66546   0.779   3.892   5.155  0.0193  0.8799 -0.0098
  505MOL0     C66547   0.726   4.002   5.107  1.1318 -0.3171  0.7228
  505MOL0     C66548   0.574   4.039   5.097  0.0480  0.2932 -0.7381
  505MOL0     C66549   0.522   4.028   4.954  0.1802 -0.9880  0.3048
  505MOL0     C66550   0.410   4.130   4.938  0.1747  0.2516 -0.7256
  505MOL0     C66551   0.299   4.127   5.032  0.5234  0.3009 -0.3454
  505MOL0     O66552   0.185   4.187   4.974 -0.2177  0.7499  0.6923
  505MOL0     C66553   0.064   4.188   5.032 -0.0541 -0.6397  0.0182
  505MOL0     C66554  -0.036   4.238   4.961  1.1849  0.9937  0.8701
  505MOL0     C66555  -0.160   4.237   5.010  0.1943  0.3906 -0.3903
  505MOL0     C66556  -0.187   4.178   5.143  0.5921 -0.7148  0.4966
  505MOL0     C66557  -0.324   4.169   5.183  1.1701  0.6572  0.2759
  505MOL0     O66558  -0.346   4.102   5.299  0.3207  0.6425 -0.2333
  505MOL0     C66559  -0.476   4.080   5.352  0.6055 -0.0159 -0.0801
  505MOL0     C66560  -0.595   4.158   5.317 -0.5488 -0.0265 -0.0760
  505MOL0     C66561  -0.723   4.132   5.367  0.0379  0.0448 -0.3295
  505MOL0     C66562  -0.739   4.024   5.457 -0.8486  0.3642  0.7399
  505MOL0     O66563  -0.862   3.989   5.511 -0.7999 -0.6497  0.6100
  505MOL0     C66564  -0.977   4.007   5.430  0.7598 -0.3473 -1.0788
  505MOL0     C66565  -1.108   3.959   5.511 -0.5244  0.1736  0.9283
  505MOL0     C66566  -1.130   3.812   5.511 -0.8496  0.7489 -0.3952
  505MOL0     C66567  -1.058   3.762   5.641 -0.5943  0.8286  0.3010
  505MOL0     C66568  -1.052   3.612   5.650 -0.8023 -0.0024 -0.1980
  505MOL0     C66569  -0.962   3.538   5.545 -0.0024 -0.5438  0.4992
  505MOL0     C66570  -0.826   3.600   5.534  0.0463 -0.3339  0.4355
  505MOL0     C66571  -0.735   3.515   5.443 -0.6460  0.1707  0.5394
  505MOL0    Cl66572  -0.569   3.581   5.444  0.1192 -0.0285  0.0255
  505MOL0     C66573  -0.625   3.954   5.491  0.0782  0.3002  0.2449
  505MOL0     C66574  -0.496   3.986   5.449 -0.7973 -0.3244 -0.2524
  505MOL0     O66575  -0.416   4.229   5.113 -0.4194  0.0634  1.0592
  505MOL0     C66576  -0.084   4.127   5.215 -0.1124  0.6209  0.6879
  505MOL0     C66577   0.041   4.137   5.163 -0.2236 -0.6754 -0.5783
  505MOL0     N66578   0.825   4.086   5.050 -0.4193 -0.1983 -0.6219
  505MOL0     N66579   0.942   4.031   5.068  0.5572  0.7393 -0.4306
  505MOL0     C66580   2.053   3.512   4.887 -0.0333 -0.1324  0.3610
  505MOL0     C66581   2.187   3.517   4.848 -1.0901  1.1473  0.5525
  505MOL0     C66582   2.617   3.650   4.904 -0.1168 -0.9573 -0.2667
  505MOL0     C66583   2.677   3.783   4.883  0.5348  0.1372  0.5590
  505MOL0     C66584   2.814   3.805   4.879  1.0312 -0.5108 -0.0318
  505MOL0     C66585   2.894   3.696   4.913 -0.9585 -0.3438 -0.4635
  505MOL0     O66586   3.038   3.721   4.893  0.3935  0.4133 -0.1512
  505MOL0     C66587   3.137   3.620   4.896  0.4137  0.1870 -0.2884
  505MOL0     C66588   3.265   3.673   4.825 -0.1978 -0.0443 -1.1916
  505MOL0     C66589   3.234   3.716   4.682 -0.3996  0.4228  0.3026
  505MOL0     C66590   3.356   3.774   4.606  0.2472  0.2197  0.2699
  505MOL0     C66591   3.438   3.668   4.558  0.4311 -0.3793 -0.0634
  505MOL0     C66592   3.511   3.580   4.507  0.4709  1.1441 -0.9511
  505MOL0     C66593   2.842   3.572   4.942 -0.2024  0.3062  0.3975
  505MOL0     C66594   2.703   3.546   4.924 -0.4289  0.1858 -0.0357
  505MOL0     H66595   2.320   3.459   5.149 -0.2950 -2.2850 -0.7318
  505MOL0     H66596   2.079   3.447   5.212  0.6408 -0.7136 -0.9909
  505MOL0     H66597   1.753   3.402   4.900 -1.1837  0.8400 -0.1392
  505MOL0     H66598   1.787   3.575   4.890 -1.1523 -1.4889 -1.8723
  505MOL0     H66599   1.688   3.565   5.141 -2.2273  1.8786  0.0036
  505MOL0     H66600   1.618   3.417   5.094 -2.5486  1.4104  2.9497
  505MOL0     H66601   1.524   3.540   4.896  0.0625 -2.0312  2.2492
  505MOL0     H66602   1.565   3.696   4.973 -0.0039 -0.0270 -0.5581
  505MOL0     H66603   1.390   3.464   5.049  2.9786 -0.5484  2.4620
  505MOL0     H66604   1.408   3.592   5.167  1.6043 -3.6009  0.5591
  505MOL0     H66605   1.302   3.660   4.896  1.8268  1.3544  0.7011
  505MOL0     H66606   1.310   3.771   5.032  0.2981  0.3495 -1.0843
  505MOL0     H66607   1.156   3.592   5.143 -0.1626 -2.8254 -1.8275
  505MOL0     H66608   1.111   3.536   4.983  1.5865  0.4784 -3.0034
  505MOL0     H66609   1.051   3.802   4.942  2.3200 -0.2202 -0.6294
  505MOL0     H66610   0.939   3.698   5.013  0.3870 -0.1020 -3.0696
  505MOL0     H66611   1.127   3.882   5.163 -0.3063  0.6140  0.3626
  505MOL0     H66612   1.028   3.766   5.256 -1.0057 -0.0639  0.2277
  505MOL0     H66613   0.721   3.819   5.211  0.0498  0.0240 -1.0540
  505MOL0     H66614   0.561   4.143   5.128 -0.8412 -0.1075  0.3086
  505MOL0     H66615   0.525   3.971   5.167 -0.9051  2.4354  0.7801
  505MOL0     H66616   0.503   3.924   4.927  3.0414 -1.3692 -0.6521
  505MOL0     H66617   0.593   4.056   4.875 -0.5711 -2.8351 -1.1126
  505MOL0     H66618   0.455   4.230   4.933 -0.6354  0.5576 -2.7040
  505MOL0     H66619   0.367   4.111   4.839 -1.9989  2.3815 -0.2847
  505MOL0     H66620   0.325   4.170   5.129  2.6228 -0.9712 -0.2917
  505MOL0     H66621   0.281   4.020   5.051  1.6417 -0.3939 -2.8097
  505MOL0     H66622  -0.021   4.276   4.860  0.2198 -0.4224  0.1562
  505MOL0     H66623  -0.237   4.272   4.942  0.4131  2.7401  0.4685
  505MOL0     H66624  -0.583   4.239   5.245  0.8949  1.4791  1.7350
  505MOL0     H66625  -0.811   4.189   5.340  1.5635  1.3970 -2.7916
  505MOL0     H66626  -0.969   3.942   5.342  1.3240 -0.1798 -1.1517
  505MOL0     H66627  -0.996   4.114   5.418 -0.9812 -0.1851  2.0640
  505MOL0     H66628  -1.191   4.008   5.459  1.0536  1.2374 -0.7404
  505MOL0     H66629  -1.108   3.994   5.615 -2.2923  0.0174  1.0140
  505MOL0     H66630  -1.094   3.772   5.415  1.0141 -0.8325  0.8864
  505MOL0     H66631  -1.235   3.787   5.527 -0.4131  0.0235  1.5523
  505MOL0     H66632  -0.956   3.800   5.652 -0.8864  1.1960  2.0553
  505MOL0     H66633  -1.112   3.806   5.725 -1.5811  1.6499 -0.7306
  505MOL0     H66634  -1.156   3.578   5.648 -1.4305  0.7925  5.3799
  505MOL0     H66635  -1.025   3.583   5.752 -1.5646  0.2581  0.0838
  505MOL0     H66636  -1.012   3.543   5.447 -0.4145  0.0281  0.7305
  505MOL0     H66637  -0.956   3.432   5.568 -0.1831 -0.4216  1.1092
  505MOL0     H66638  -0.823   3.698   5.485 -1.2884 -0.7357 -0.5173
  505MOL0     H66639  -0.785   3.603   5.635 -2.7451 -1.4944  1.6917
  505MOL0     H66640  -0.783   3.516   5.345  1.2932  0.8808 -0.4642
  505MOL0     H66641  -0.715   3.413   5.478  1.1699 -0.2553 -1.5053
  505MOL0     H66642  -0.635   3.869   5.557 -0.6173 -0.7277 -1.1175
  505MOL0     H66643  -0.414   3.925   5.483  3.3232  3.1368 -2.8901
  505MOL0     H66644  -0.103   4.084   5.313  1.1118 -1.0190  0.2537
  505MOL0     H66645   0.123   4.100   5.223 -0.4025  2.6072  1.9706
  505MOL0     H66646   1.981   3.524   4.806  1.9126  1.0276 -1.3090
  505MOL0     H66647   2.216   3.547   4.748 -0.5726  3.6060  1.3616
  505MOL0     H66648   2.611   3.869   4.874  1.2211  0.4662 -2.1717
  505MOL0     H66649   2.864   3.893   4.840  0.0447 -0.0129 -0.2071
  505MOL0     H66650   3.103   3.533   4.839 -0.6348 -0.3218  1.0744
  505MOL0     H66651   3.154   3.597   5.001 -0.9337  0.3142 -0.0285
  505MOL0     H66652   3.301   3.761   4.879  0.3392 -1.0962  0.2424
  505MOL0     H66653   3.340   3.594   4.815 -0.1604 -0.0003 -1.2669
  505MOL0     H66654   3.156   3.792   4.678  0.3970  1.2233 -0.4076
  505MOL0     H66655   3.207   3.632   4.617  1.2286 -0.9738  1.3392
  505MOL0     H66656   3.331   3.846   4.527  0.9348  1.8670  1.5150
  505MOL0     H66657   3.422   3.830   4.672 -0.6415  2.2434 -0.4685
  505MOL0     H66658   3.565   3.496   4.465 -0.4672  0.6546 -1.2035
  505MOL0     H66659   2.900   3.484   4.969 -3.0081 -1.1234  2.3714
  505MOL0     H66660   2.671   3.451   4.965 -0.5918  0.1203 -0.3078
  506MOL0     O66661   8.939   1.712   1.640 -0.9707 -0.3955  0.3681
  506MOL0     C66662   9.023   1.808   1.656 -0.3359 -0.6984 -0.5423
  506MOL0     O66663   9.020   1.931   1.603  0.3830  0.0758  0.4389
  506MOL0     C66664   8.909   1.964   1.522  1.3500 -0.5213 -0.2941
  506MOL0     C66665   8.932   2.039   1.402 -0.1072  0.0367 -0.6611
  506MOL0     C66666   8.823   2.080   1.334 -0.1218 -0.1460  0.0918
  506MOL0     C66667   8.690   2.039   1.362  0.5665 -0.5493 -0.6818
  506MOL0     O66668   8.587   2.082   1.288  0.1391  1.0461  0.8224
  506MOL0     C66669   8.468   1.993   1.292  0.6679 -0.2023  0.3449
  506MOL0     C66670   8.380   2.021   1.169 -0.5288 -0.5398  0.0855
  506MOL0     C66671   8.243   1.972   1.194  0.4995 -0.1104 -0.1156
  506MOL0     C66672   8.142   1.989   1.073  0.0476 -0.1199  0.1956
  506MOL0     C66673   7.982   1.981   1.097 -0.6659  0.1298 -0.3415
  506MOL0     C66674   7.920   2.112   1.150 -0.6857  0.1162  0.0419
  506MOL0     C66675   7.771   2.084   1.175 -0.0005  0.0991 -0.2337
  506MOL0     C66676   7.697   2.219   1.210  0.1321  0.1245  0.6338
  506MOL0     N66677   7.694   2.308   1.094 -0.9589 -0.9131  0.2468
  506MOL0     C66678   7.618   2.281   0.981 -0.5023  0.0252  0.5484
  506MOL0     C66679   7.615   2.391   0.908  0.4125 -0.9195  1.5174
  506MOL0     C66680   7.549   2.441   0.774 -0.4245  0.4838  0.3715
  506MOL0     C66681   7.395   2.460   0.786 -0.5809 -0.6895 -0.9030
  506MOL0     C66682   7.315   2.487   0.659  0.2279 -0.3127 -0.6675
  506MOL0     C66683   7.163   2.492   0.662 -1.2321  0.6080  0.7176
  506MOL0     O66684   7.126   2.608   0.742  0.1440  0.0104  0.0659
  506MOL0     C66685   6.994   2.629   0.752 -0.0073 -0.6145 -0.7557
  506MOL0     C66686   6.950   2.741   0.823 -0.2146  0.3389  0.8945
  506MOL0     C66687   6.821   2.760   0.856  0.0192 -0.5301 -0.1406
  506MOL0     C66688   6.717   2.678   0.798 -0.3721  0.0574 -0.0683
  506MOL0     C66689   6.571   2.704   0.826  0.3574 -0.3362 -0.0515
  506MOL0     O66690   6.483   2.638   0.745  0.8291  0.0884 -0.1324
  506MOL0     C66691   6.345   2.650   0.755 -0.1589 -0.6818  0.2480
  506MOL0     C66692   6.278   2.672   0.637  0.2215 -0.9179  0.1320
  506MOL0     C66693   6.135   2.678   0.623  0.6264 -0.8397  0.0887
  506MOL0     C66694   6.053   2.652   0.735 -1.1640  0.2890 -1.2312
  506MOL0     O66695   5.913   2.653   0.739 -0.0905  0.3211  0.2511
  506MOL0     C66696   5.849   2.681   0.616 -0.1618  0.3869 -0.0610
  506MOL0     C66697   5.700   2.675   0.654  1.0857  0.4375 -0.1567
  506MOL0     C66698   5.613   2.706   0.535  0.3370  0.0366  0.1416
  506MOL0     C66699   5.463   2.679   0.561 -0.7790  0.2471 -0.9645
  506MOL0     C66700   5.380   2.698   0.435  0.0414  1.1038 -0.0906
  506MOL0     C66701   5.227   2.664   0.456 -0.6452  0.1872  0.1780
  506MOL0     C66702   5.152   2.667   0.322 -0.0369  0.5685 -0.5019
  506MOL0     C66703   5.013   2.717   0.342 -0.5748  0.1894  0.9179
  506MOL0    Cl66704   5.001   2.866   0.441  0.3225  0.5392 -0.1921
  506MOL0     C66705   6.121   2.631   0.860 -0.7206 -0.5386 -0.1224
  506MOL0     C66706   6.263   2.632   0.869  0.2644 -0.2660 -0.4645
  506MOL0     O66707   6.549   2.784   0.911  0.1935 -0.0763 -0.3103
  506MOL0     C66708   6.760   2.571   0.717 -0.2138  0.0114 -0.0001
  506MOL0     C66709   6.896   2.549   0.691  0.1478 -0.5989 -0.2276
  506MOL0     N66710   7.686   2.480   0.976 -0.0275  0.1874 -1.3228
  506MOL0     N66711   7.738   2.443   1.085 -0.2487  1.3459  0.0663
  506MOL0     C66712   8.670   1.968   1.484 -0.5887  0.0050 -0.2979
  506MOL0     C66713   8.779   1.948   1.569  1.1855  0.2879  0.1586
  506MOL0     C66714   9.129   1.785   1.753 -0.6326 -0.2153 -0.7888
  506MOL0     C66715   9.233   1.872   1.764 -1.2032  0.3853  0.6329
  506MOL0     C66716   9.334   1.850   1.854  0.0201  0.4959  0.4121
  506MOL0     C66717   9.342   1.741   1.934  0.2703  0.0893 -0.4707
  506MOL0     O66718   9.457   1.732   2.010  0.0176 -0.4904 -0.2449
  506MOL0     C66719   9.506   1.600   2.022 -0.3939 -1.3087 -0.6526
  506MOL0     C66720   9.509   1.550   2.165  0.5037 -0.3194 -1.0763
  506MOL0     C66721   9.590   1.641   2.270  0.4437  0.3576  1.0058
  506MOL0     C66722   9.630   1.564   2.395 -0.7279  0.1352  0.1379
  506MOL0     C66723   9.515   1.496   2.456  0.4920 -0.6087  0.4425
  506MOL0     C66724   9.405   1.463   2.497 -0.0974  0.3533 -0.0429
  506MOL0     C66725   9.230   1.655   1.942  0.2589  0.3931  0.3012
  506MOL0     C66726   9.126   1.672   1.846  0.0395 -0.2598 -0.7579
  506MOL0     H66727   9.034   2.057   1.370 -0.2849  2.0856 -0.2184
  506MOL0     H66728   8.840   2.134   1.241  1.5238  0.0469  0.4566
  506MOL0     H66729   8.408   2.009   1.381 -1.1597 -1.4892 -0.5864
  506MOL0     H66730   8.503   1.889   1.291 -0.8919 -0.7541 -1.2496
  506MOL0     H66731   8.434   1.985   1.081 -1.4656 -1.0346 -0.3019
  506MOL0     H66732   8.372   2.129   1.151 -1.8898 -0.5113  0.7516
  506MOL0     H66733   8.203   2.025   1.281 -0.5986 -1.5045  0.2740
  506MOL0     H66734   8.251   1.864   1.211 -0.3556 -0.4703 -1.8039
  506MOL0     H66735   8.165   2.087   1.030 -0.1083 -0.0701  0.2279
  506MOL0     H66736   8.159   1.908   1.000 -0.5131 -0.8359  0.8392
  506MOL0     H66737   7.963   1.898   1.166  0.3926  1.1129  1.2053
  506MOL0     H66738   7.929   1.962   1.004 -1.5744  0.4019  0.1163
  506MOL0     H66739   7.918   2.190   1.074 -0.1239 -1.7753 -2.0077
  506MOL0     H66740   7.970   2.153   1.239  0.3547  0.7905 -0.8325
  506MOL0     H66741   7.726   2.017   1.102  2.2406 -0.0166 -1.5886
  506MOL0     H66742   7.772   2.037   1.274 -0.9365  0.8433  0.1573
  506MOL0     H66743   7.726   2.275   1.299 -0.6458  0.0784  0.9183
  506MOL0     H66744   7.592   2.195   1.223 -0.3546  1.6133 -0.2104
  506MOL0     H66745   7.572   2.184   0.967  2.0240 -1.1627 -0.0921
  506MOL0     H66746   7.558   2.356   0.706 -0.1435  1.7574 -1.2478
  506MOL0     H66747   7.609   2.522   0.730 -0.8348  1.8879  2.2599
  506MOL0     H66748   7.386   2.547   0.852  1.1663  0.0170 -1.5501
  506MOL0     H66749   7.356   2.371   0.838  3.1678 -1.7673  0.3821
  506MOL0     H66750   7.331   2.589   0.620 -2.9020  0.7776  0.5751
  506MOL0     H66751   7.347   2.413   0.585 -0.4588 -0.4476 -0.8356
  506MOL0     H66752   7.112   2.397   0.682  0.0800 -0.2022  0.3451
  506MOL0     H66753   7.134   2.517   0.560  2.6670 -0.5718 -0.8938
  506MOL0     H66754   7.028   2.800   0.870 -1.5470  2.2320  0.8433
  506MOL0     H66755   6.794   2.831   0.934  0.7782 -1.2506  0.7999
  506MOL0     H66756   6.341   2.660   0.549  2.1405 -0.7011  1.4197
  506MOL0     H66757   6.085   2.695   0.528  2.0772  0.7103 -0.4499
  506MOL0     H66758   5.865   2.602   0.542 -0.3113 -0.7151  1.0618
  506MOL0     H66759   5.862   2.786   0.585 -0.6244  1.0157  1.7516
  506MOL0     H66760   5.679   2.742   0.738  2.9218 -0.1826  0.8400
  506MOL0     H66761   5.683   2.571   0.684  3.1549 -0.6797 -2.4436
  506MOL0     H66762   5.637   2.649   0.444  2.6016 -0.8031  1.1803
  506MOL0     H66763   5.628   2.812   0.517 -0.1319  0.1459  0.3870
  506MOL0     H66764   5.442   2.581   0.604 -1.2777  1.6226  2.2116
  506MOL0     H66765   5.430   2.752   0.635  0.3472 -2.6075  2.6374
  506MOL0     H66766   5.431   2.643   0.357  0.4325 -2.7272  2.5966
  506MOL0     H66767   5.376   2.804   0.408 -2.0367  1.3424  0.8806
  506MOL0     H66768   5.186   2.740   0.523 -2.0441  0.2273 -0.6697
  506MOL0     H66769   5.223   2.564   0.500  0.4336 -0.0997 -0.3511
  506MOL0     H66770   5.216   2.724   0.254  1.2606  1.0850  1.0900
  506MOL0     H66771   5.141   2.569   0.274  0.4725  0.2391  0.0381
  506MOL0     H66772   4.944   2.639   0.375 -0.4836  0.1797  1.0873
  506MOL0     H66773   4.958   2.730   0.249 -0.2026 -0.4638  0.6034
  506MOL0     H66774   6.052   2.619   0.943 -2.5207  3.1640 -0.8802
  506MOL0     H66775   6.300   2.627   0.971 -0.5470 -0.7128 -0.1812
  506MOL0     H66776   6.700   2.499   0.662  1.6878 -0.4360 -1.5812
  506MOL0     H66777   6.910   2.476   0.613 -1.9088 -1.0614 -0.2241
  506MOL0     H66778   8.570   1.949   1.520 -0.3818 -2.5815 -0.9205
  506MOL0     H66779   8.757   1.917   1.671 -0.2251  3.5687  0.9660
  506MOL0     H66780   9.252   1.951   1.691 -0.2249  0.0362  0.4922
  506MOL0     H66781   9.423   1.912   1.860  0.9540 -0.8794  1.6978
  506MOL0     H66782   9.611   1.601   1.992  0.7164  0.2681  2.7725
  506MOL0     H66783   9.446   1.528   1.965 -0.3748 -1.5816 -0.3309
  506MOL0     H66784   9.405   1.541   2.199  1.1077 -1.2701  0.6644
  506MOL0     H66785   9.555   1.451   2.165  2.9438  0.7328  0.5465
  506MOL0     H66786   9.521   1.720   2.300 -0.6724 -0.4054  0.4937
  506MOL0     H66787   9.673   1.679   2.209  0.9925 -3.2819 -0.7796
  506MOL0     H66788   9.702   1.493   2.355 -1.9847 -1.2254  0.1812
  506MOL0     H66789   9.666   1.627   2.477 -4.6857 -0.3864  2.5713
  506MOL0     H66790   9.303   1.460   2.527  0.1405 -3.5247  0.9399
  506MOL0     H66791   9.225   1.580   2.021  1.8621  1.0635  1.0773
  506MOL0     H66792   9.046   1.598   1.841 -0.3271  0.0496  0.3236
  507MOL0     O66793  11.143   0.034   9.215 -0.7032  0.5374 -0.2748
  507MOL0     C66794  11.201   0.099   9.303 -0.2410 -0.4771  0.1711
  507MOL0     O66795  11.335   0.112   9.315  0.1411 -0.0825 -0.6691
  507MOL0     C66796  11.417   0.081   9.210  0.0243 -0.3998  1.1666
  507MOL0     C66797  11.538   0.012   9.228  0.5063  0.0160 -0.0044
  507MOL0     C66798  11.632  -0.007   9.122 -0.8645  0.3354  0.2713
  507MOL0     C66799  11.604   0.023   8.985 -0.3229  0.2038 -0.9753
  507MOL0     O66800  11.698   0.006   8.891  0.1739  0.1617 -0.9503
  507MOL0     C66801  11.651  -0.068   8.775 -0.0039  0.2944 -0.6442
  507MOL0     C66802  11.743  -0.028   8.661 -0.1875 -0.6840 -0.8032
  507MOL0     C66803  11.887  -0.031   8.700 -1.0657  1.1051 -0.8026
  507MOL0     C66804  11.988   0.001   8.587 -0.9052  0.1712  0.3086
  507MOL0     C66805  12.134   0.020   8.620  0.2529  0.1429  0.2880
  507MOL0     C66806  12.203  -0.110   8.650 -0.3828 -0.6621  0.0132
  507MOL0     C66807  12.356  -0.095   8.658  1.3753 -0.0634  0.8108
  507MOL0     C66808  12.398  -0.068   8.799  0.0169 -0.1890  0.0708
  507MOL0     N66809  12.523   0.012   8.797  0.4277 -0.9159  0.3784
  507MOL0     C66810  12.627   0.003   8.706 -0.3584 -0.5793  0.5562
  507MOL0     C66811  12.731   0.070   8.761 -0.0311  0.4274 -0.6556
  507MOL0     C66812  12.866   0.095   8.706 -0.7754  0.4130 -0.5136
  507MOL0     C66813  12.895   0.046   8.562 -0.5151  0.3981 -0.9691
  507MOL0     C66814  12.805   0.119   8.457 -0.7453  0.6254  0.5026
  507MOL0     C66815  12.858   0.264   8.437 -0.2272  0.1014 -0.2252
  507MOL0     O66816  12.763   0.348   8.369 -0.0843 -0.0049 -0.6384
  507MOL0     C66817  12.645   0.370   8.427 -0.2520 -0.0904  0.7084
  507MOL0     C66818  12.639   0.392   8.563  0.0454 -0.0088  0.1150
  507MOL0     C66819  12.521   0.416   8.623  1.2629 -0.4674 -0.3987
  507MOL0     C66820  12.400   0.442   8.550  0.5361  0.5293 -0.1888
  507MOL0     C66821  12.263   0.456   8.622 -0.5178 -0.1154 -0.7414
  507MOL0     O66822  12.152   0.474   8.544  0.3647  0.1983  0.3201
  507MOL0     C66823  12.021   0.453   8.584  0.7855 -0.3410  0.0959
  507MOL0     C66824  11.913   0.522   8.523 -0.2286 -0.3924 -0.6993
  507MOL0     C66825  11.789   0.494   8.556 -0.3899 -0.7149 -0.1432
  507MOL0     C66826  11.748   0.395   8.650 -0.3326 -0.9690 -0.4187
  507MOL0     O66827  11.610   0.363   8.679 -1.0079  0.1209 -0.1640
  507MOL0     C66828  11.505   0.428   8.605  0.0775 -0.2943  0.1697
  507MOL0     C66829  11.357   0.383   8.628  0.0854  0.5459 -0.2691
  507MOL0     C66830  11.315   0.431   8.773 -0.1331  0.0489  1.1261
  507MOL0     C66831  11.198   0.343   8.811  0.0626  0.4798  0.2133
  507MOL0     C66832  11.135   0.386   8.945  0.7294 -0.1927 -0.6406
  507MOL0     C66833  11.009   0.310   8.976  0.9158  0.7213 -0.3933
  507MOL0     C66834  10.939   0.329   9.107  0.5895 -0.8524  0.5091
  507MOL0     C66835  10.840   0.447   9.101 -0.5162  0.4092  0.0299
  507MOL0    Cl66836  10.755   0.469   9.264 -0.0967 -0.0813 -0.3777
  507MOL0     C66837  11.853   0.328   8.721  0.4119  0.1998  0.0985
  507MOL0     C66838  11.988   0.360   8.688 -0.4708  0.2923 -0.6372
  507MOL0     O66839  12.266   0.458   8.745  0.7240 -0.2264 -0.0382
  507MOL0     C66840  12.411   0.433   8.408  0.2259  0.0764  0.3239
  507MOL0     C66841  12.532   0.385   8.354 -0.1193  0.5279  0.2441
  507MOL0     N66842  12.690   0.117   8.887  0.1656  0.3078  0.4552
  507MOL0     N66843  12.565   0.097   8.895  0.4926 -0.0928  0.0223
  507MOL0     C66844  11.478   0.096   8.963 -0.3972  1.2565 -0.5329
  507MOL0     C66845  11.385   0.121   9.069  0.5366  0.5794 -1.2152
  507MOL0     C66846  11.120   0.152   9.421  0.4465  0.0883  0.0986
  507MOL0     C66847  10.976   0.175   9.413 -0.0554  0.1532 -0.5032
  507MOL0     C66848  10.909   0.249   9.511  0.1793  1.6557 -0.2397
  507MOL0     C66849  10.988   0.324   9.607  0.0372 -0.1594  1.3612
  507MOL0     O66850  10.941   0.432   9.678 -0.5041 -0.3203  0.8876
  507MOL0     C66851  10.852   0.523   9.607 -0.5345 -0.3704 -0.4975
  507MOL0     C66852  10.831   0.641   9.712  0.7672  0.1558 -0.0824
  507MOL0     C66853  10.728   0.747   9.658  0.7983  0.9544 -0.6992
  507MOL0     C66854  10.672   0.843   9.768 -0.0875  0.0248 -0.1120
  507MOL0     C66855  10.590   0.953   9.715  0.3214 -0.0767  0.2751
  507MOL0     C66856  10.524   1.054   9.676 -0.1817 -0.1010  1.0987
  507MOL0     C66857  11.131   0.302   9.604 -0.2637 -0.6333 -0.4503
  507MOL0     C66858  11.191   0.208   9.527 -1.3187 -0.8319 -0.6596
  507MOL0     H66859  11.548  -0.026   9.329  1.1696 -0.3399 -0.1961
  507MOL0     H66860  11.731  -0.047   9.142  0.4594  2.5893 -1.3700
  507MOL0     H66861  11.545  -0.056   8.751 -0.3934  1.9785  1.6023
  507MOL0     H66862  11.671  -0.175   8.790  0.5972  0.7931  2.8514
  507MOL0     H66863  11.721   0.069   8.616  1.2074  0.7559  1.4213
  507MOL0     H66864  11.731  -0.100   8.579 -1.3465 -0.3257 -0.9730
  507MOL0     H66865  11.900  -0.135   8.733  1.0972  1.2885 -0.9249
  507MOL0     H66866  11.911   0.036   8.783 -3.1602 -0.1293  0.9013
  507MOL0     H66867  11.965  -0.071   8.508 -1.8721  2.3903 -1.5493
  507MOL0     H66868  11.957   0.099   8.550 -1.3419  0.1877  0.7065
  507MOL0     H66869  12.137   0.079   8.712  2.5311 -2.5674  2.1042
  507MOL0     H66870  12.185   0.082   8.546 -1.0075 -1.7668 -2.3327
  507MOL0     H66871  12.209  -0.175   8.562  3.4244 -0.1938 -0.2358
  507MOL0     H66872  12.172  -0.163   8.741 -0.5871  0.8334  0.8382
  507MOL0     H66873  12.406  -0.185   8.621  1.7175 -0.8614  3.0321
  507MOL0     H66874  12.381  -0.007   8.598 -0.9108  1.1610  1.5704
  507MOL0     H66875  12.386  -0.162   8.853 -3.8646  0.7189  1.1247
  507MOL0     H66876  12.311  -0.017   8.842 -0.2065 -1.7242  1.5116
  507MOL0     H66877  12.622  -0.043   8.608  1.4956  0.0747  0.1093
  507MOL0     H66878  12.924   0.023   8.766  1.0613 -0.2602 -2.9186
  507MOL0     H66879  12.897   0.198   8.725 -0.7620  0.5121 -1.0609
  507MOL0     H66880  12.882  -0.063   8.561 -0.0754  0.2963  0.8774
  507MOL0     H66881  13.002   0.052   8.543 -0.1719 -2.3659 -0.4587
  507MOL0     H66882  12.805   0.073   8.358 -1.6234 -1.3492  1.3727
  507MOL0     H66883  12.700   0.119   8.490 -1.1810 -0.6059 -0.8075
  507MOL0     H66884  12.946   0.256   8.373  0.1099  0.7717  0.1365
  507MOL0     H66885  12.890   0.315   8.528  3.2909  1.2475 -1.9420
  507MOL0     H66886  12.723   0.380   8.631  1.0458 -0.7131 -1.1905
  507MOL0     H66887  12.506   0.397   8.729  0.3261  0.2336 -0.3814
  507MOL0     H66888  11.942   0.606   8.461 -1.1914  1.2456  0.9442
  507MOL0     H66889  11.717   0.554   8.502  1.8053  0.9142 -1.3928
  507MOL0     H66890  11.520   0.404   8.500 -1.7187  1.8863 -0.6668
  507MOL0     H66891  11.511   0.536   8.623 -0.5628 -0.4265  1.3338
  507MOL0     H66892  11.353   0.274   8.631  2.6433  0.4232  0.9674
  507MOL0     H66893  11.298   0.436   8.552  0.4702  1.4757  0.0634
  507MOL0     H66894  11.276   0.533   8.767 -2.5780 -0.8387  0.6144
  507MOL0     H66895  11.396   0.424   8.846 -1.1209  2.4551  2.5514
  507MOL0     H66896  11.113   0.350   8.743 -1.0761 -0.4584  1.4968
  507MOL0     H66897  11.222   0.237   8.816 -0.4938  0.3160 -0.5079
  507MOL0     H66898  11.117   0.493   8.942  0.2182 -0.1367  2.1641
  507MOL0     H66899  11.201   0.364   9.030 -2.5058 -1.3615  1.7594
  507MOL0     H66900  11.029   0.203   8.971 -0.9044  0.1845  1.9681
  507MOL0     H66901  10.932   0.325   8.899 -2.0587  0.9102  2.4144
  507MOL0     H66902  10.887   0.238   9.137 -2.6995  1.0144  0.9268
  507MOL0     H66903  11.009   0.346   9.190  1.1484  2.5861 -0.5032
  507MOL0     H66904  10.764   0.421   9.027 -0.3043 -1.1297  0.3274
  507MOL0     H66905  10.891   0.539   9.073  1.4162 -0.8388 -0.6849
  507MOL0     H66906  11.825   0.244   8.785  0.0113 -1.0820 -1.6809
  507MOL0     H66907  12.053   0.286   8.734 -0.7157  0.7379  0.4655
  507MOL0     H66908  12.328   0.447   8.340 -0.2785 -0.9812  0.7150
  507MOL0     H66909  12.537   0.362   8.248  0.4310  0.6905  0.2304
  507MOL0     H66910  11.455   0.122   8.860 -0.9318 -0.7728 -0.9654
  507MOL0     H66911  11.288   0.166   9.053  0.1428 -0.5428 -2.1518
  507MOL0     H66912  10.922   0.121   9.336 -1.4882 -0.5300  0.9526
  507MOL0     H66913  10.801   0.254   9.510  0.0443 -0.0192  0.7697
  507MOL0     H66914  10.759   0.468   9.586  0.0738 -2.2515  1.4119
  507MOL0     H66915  10.890   0.558   9.511 -0.8483  0.8890 -0.1901
  507MOL0     H66916  10.808   0.595   9.808 -0.3030 -2.3787 -1.4725
  507MOL0     H66917  10.924   0.697   9.730 -0.0758  1.0264  1.8091
  507MOL0     H66918  10.643   0.699   9.608  0.3747  1.1368 -0.1599
  507MOL0     H66919  10.779   0.805   9.581 -0.2682 -0.6185 -2.7258
  507MOL0     H66920  10.618   0.791   9.848  0.8202 -1.5690 -0.4973
  507MOL0     H66921  10.765   0.886   9.808  0.5753 -1.9980  0.6229
  507MOL0     H66922  10.464   1.132   9.634  0.3588 -1.1966 -2.0167
  507MOL0     H66923  11.200   0.363   9.662  0.0092 -0.1968 -1.2148
  507MOL0     H66924  11.294   0.178   9.539 -1.1658 -0.4218 -0.9264
  508MOL0     O66925   1.289  10.235   4.028  0.4671 -0.0437 -0.3748
  508MOL0     C66926   1.256  10.117   4.025 -0.2304  0.1183 -0.5009
  508MOL0     O66927   1.345  10.010   4.040 -0.0725 -0.0736  0.2267
  508MOL0     C66928   1.483  10.013   4.035  0.6278  0.7430 -0.2194
  508MOL0     C66929   1.553  10.097   3.943 -0.4963 -0.1839 -0.3796
  508MOL0     C66930   1.688  10.063   3.926  0.1101  0.3039  0.0166
  508MOL0     C66931   1.756   9.974   4.008  0.0377  0.2374 -1.0467
  508MOL0     O66932   1.892   9.949   3.992 -0.3739 -0.5320  0.1778
  508MOL0     C66933   1.992  10.047   3.971  0.1376 -0.6216 -0.8495
  508MOL0     C66934   2.044  10.032   3.826 -0.3144  0.0200  0.5550
  508MOL0     C66935   2.130  10.155   3.788  0.7748  0.8180  0.9868
  508MOL0     C66936   2.194  10.127   3.657  0.7842  0.0524 -0.2476
  508MOL0     C66937   2.338  10.172   3.630  1.0762  0.0234  0.5950
  508MOL0     C66938   2.342  10.338   3.646  0.3702 -0.4042 -0.3078
  508MOL0     C66939   2.484  10.388   3.659 -0.1020  0.1120  0.0188
  508MOL0     C66940   2.496  10.540   3.654 -0.6492  1.2601  0.5663
  508MOL0     N66941   2.632  10.580   3.662 -0.0337  0.1244  0.5511
  508MOL0     C66942   2.694  10.632   3.552  0.3745 -0.2463  0.4666
  508MOL0     C66943   2.817  10.659   3.596 -0.7036 -0.8935 -0.0595
  508MOL0     C66944   2.915  10.748   3.523 -0.3874  0.4022 -0.4072
  508MOL0     C66945   2.871  10.905   3.519  0.0893 -0.0154  0.5412
  508MOL0     C66946   2.969  10.994   3.445  0.0415 -0.3952  0.6253
  508MOL0     C66947   2.942  11.131   3.501  0.2851  0.6286 -0.3583
  508MOL0     O66948   2.809  11.176   3.465 -0.2699 -0.5690 -0.5863
  508MOL0     C66949   2.709  11.188   3.562 -0.0063 -0.4708  0.7394
  508MOL0     C66950   2.579  11.156   3.509 -0.3771 -0.3548 -0.7818
  508MOL0     C66951   2.467  11.171   3.590 -0.0515  0.0015  0.2791
  508MOL0     C66952   2.478  11.191   3.733  0.7232  0.3097  0.6210
  508MOL0     C66953   2.361  11.194   3.816  0.3754  0.7932 -0.3784
  508MOL0     O66954   2.246  11.202   3.750 -0.2446  0.4169  0.0912
  508MOL0     C66955   2.141  11.188   3.829  0.7550  0.7453  0.1655
  508MOL0     C66956   2.066  11.070   3.817  0.5687 -0.6339  1.7893
  508MOL0     C66957   1.939  11.054   3.872  0.5926  0.2718 -0.4897
  508MOL0     C66958   1.889  11.157   3.950 -1.5623 -0.1717 -0.0726
  508MOL0     O66959   1.768  11.145   4.001 -0.3748 -1.2027 -0.1482
  508MOL0     C66960   1.735  11.204   4.131  0.1186  0.1752  0.3600
  508MOL0     C66961   1.593  11.158   4.173  0.2245 -0.7376 -0.2319
  508MOL0     C66962   1.570  11.004   4.175  0.4756  0.2426 -0.1413
  508MOL0     C66963   1.434  10.958   4.246  0.8502 -0.4626 -0.4885
  508MOL0     C66964   1.408  10.816   4.212  0.6346  0.2553  0.7477
  508MOL0     C66965   1.272  10.759   4.260  0.3632 -1.0367 -0.6468
  508MOL0     C66966   1.270  10.607   4.267  0.2014 -0.4969  0.5845
  508MOL0     C66967   1.125  10.571   4.300  0.4468 -0.4762  0.9074
  508MOL0    Cl66968   1.099  10.559   4.479  0.3514  0.5865 -0.1611
  508MOL0     C66969   1.957  11.276   3.956 -0.1068 -0.0539 -0.5776
  508MOL0     C66970   2.083  11.292   3.903  0.5606  0.0749  0.0292
  508MOL0     O66971   2.376  11.197   3.937 -0.4565  0.2329 -0.0128
  508MOL0     C66972   2.601  11.234   3.779  0.1364  0.0220  0.7018
  508MOL0     C66973   2.721  11.225   3.698  0.4201  0.2905 -0.6742
  508MOL0     N66974   2.834  10.604   3.722  1.1738  1.3672  0.3187
  508MOL0     N66975   2.717  10.562   3.768 -0.2521 -0.5391 -0.2312
  508MOL0     C66976   1.692   9.905   4.100  0.1838  0.0130 -0.2902
  508MOL0     C66977   1.552   9.922   4.110 -0.1645 -0.5478 -0.7666
  508MOL0     C66978   1.103  10.088   4.025  0.1789  0.2133  0.5771
  508MOL0     C66979   1.019  10.194   4.042  0.0480 -0.9789  1.2370
  508MOL0     C66980   0.882  10.167   4.057  0.5415 -0.7477 -0.0851
  508MOL0     C66981   0.822  10.043   4.046  0.8282  0.3769 -0.0467
  508MOL0     O66982   0.683  10.036   4.036  0.0927  0.7102  0.2563
  508MOL0     C66983   0.623   9.943   4.129  0.4618  0.0881  0.8951
  508MOL0     C66984   0.636   9.981   4.280  0.5099 -1.0952  1.2386
  508MOL0     C66985   0.601  10.130   4.303 -0.2013  0.2088  0.1658
  508MOL0     C66986   0.608  10.162   4.455 -0.2455  0.8788  0.9212
  508MOL0     C66987   0.706  10.259   4.490  0.0868  0.2062 -0.4912
  508MOL0     C66988   0.787  10.341   4.516  0.0291 -0.4371 -0.1616
  508MOL0     C66989   0.914   9.935   4.021 -0.2325  0.4444  0.2085
  508MOL0     C66990   1.049   9.958   4.017  0.5642 -0.1271  1.0710
  508MOL0     H66991   1.502  10.171   3.882 -1.3994  2.2121  3.0327
  508MOL0     H66992   1.735  10.107   3.838  2.6291 -2.1999 -0.0465
  508MOL0     H66993   2.080  10.036   4.033  1.1435  1.7002 -1.7244
  508MOL0     H66994   1.956  10.148   3.995  1.5850 -0.3125  0.1381
  508MOL0     H66995   1.963  10.010   3.756  1.7394 -3.9384 -0.8780
  508MOL0     H66996   2.100   9.938   3.831  0.3877  0.4640  1.3175
  508MOL0     H66997   2.201  10.184   3.865  1.9366  2.2309 -0.5348
  508MOL0     H66998   2.057  10.237   3.783 -2.1184 -1.5838  0.3227
  508MOL0     H66999   2.201  10.017   3.657 -5.2607 -0.7668  2.9302
  508MOL0     H67000   2.129  10.176   3.584  2.8964  3.6775  0.0509
  508MOL0     H67001   2.370  10.139   3.531  0.8989 -1.5021  1.0069
  508MOL0     H67002   2.399  10.123   3.707  1.6000 -0.1073  0.1056
  508MOL0     H67003   2.301  10.386   3.735  2.7063  0.7020  0.2492
  508MOL0     H67004   2.296  10.390   3.561 -0.4277 -0.9242 -0.2063
  508MOL0     H67005   2.519  10.354   3.757  0.9996 -0.2130 -0.4723
  508MOL0     H67006   2.546  10.333   3.587 -2.0309  1.3160 -2.7374
  508MOL0     H67007   2.433  10.578   3.735 -0.1921  1.7805  0.6769
  508MOL0     H67008   2.464  10.571   3.553  3.3725 -0.1270 -1.3289
  508MOL0     H67009   2.653  10.654   3.454  0.8967  1.6147  0.6390
  508MOL0     H67010   2.922  10.708   3.421 -2.3108 -1.9954  0.3284
  508MOL0     H67011   3.008  10.747   3.580 -1.8394  0.6213  2.0705
  508MOL0     H67012   2.874  10.939   3.622  2.2413  0.7093  0.2814
  508MOL0     H67013   2.774  10.912   3.468 -0.0958 -1.7516  0.5925
  508MOL0     H67014   3.070  10.954   3.460  1.1565  0.5850 -3.1257
  508MOL0     H67015   2.940  10.987   3.339 -0.8197  1.0347  0.7433
  508MOL0     H67016   3.015  11.204   3.463  0.4020  1.3076  1.1058
  508MOL0     H67017   2.956  11.131   3.610 -1.6317  0.6341 -0.0832
  508MOL0     H67018   2.557  11.130   3.405 -0.5012  0.7577 -1.0492
  508MOL0     H67019   2.371  11.160   3.541  1.0313 -1.1383 -1.7410
  508MOL0     H67020   2.106  10.992   3.754 -2.2316 -0.6807 -0.1004
  508MOL0     H67021   1.883  10.961   3.865  1.7740 -0.5839  0.8801
  508MOL0     H67022   1.746  11.312   4.120  0.3672  0.0576 -0.7256
  508MOL0     H67023   1.805  11.169   4.207  0.9803 -4.9929 -2.3161
  508MOL0     H67024   1.511  11.198   4.112  0.6375  0.0995 -0.2567
  508MOL0     H67025   1.587  11.187   4.279 -1.9012 -1.4644 -0.1029
  508MOL0     H67026   1.657  10.958   4.223 -0.3672 -1.2712  0.0058
  508MOL0     H67027   1.576  10.970   4.071 -0.2084  0.2148 -0.1756
  508MOL0     H67028   1.442  10.967   4.355 -0.9776  2.1604 -0.4794
  508MOL0     H67029   1.347  11.019   4.218  1.5936 -0.0137 -1.8936
  508MOL0     H67030   1.484  10.756   4.263  0.6341 -0.2071  0.2236
  508MOL0     H67031   1.416  10.796   4.104 -0.6926 -2.6983  1.0739
  508MOL0     H67032   1.198  10.789   4.186  0.0725  0.8715  0.3629
  508MOL0     H67033   1.250  10.806   4.356 -1.4830  0.1823 -1.6188
  508MOL0     H67034   1.322  10.566   4.180  2.8563 -2.9286  3.0780
  508MOL0     H67035   1.337  10.581   4.350  0.8297  0.1019  0.2757
  508MOL0     H67036   1.100  10.477   4.250 -0.0845  0.9726 -1.7375
  508MOL0     H67037   1.064  10.650   4.255  4.5868  2.0513 -0.8695
  508MOL0     H67038   1.922  11.361   4.013  1.5221 -0.0842  0.5658
  508MOL0     H67039   2.154  11.374   3.908  1.5154 -0.4744 -2.6600
  508MOL0     H67040   2.613  11.266   3.882  1.8055  0.2328  0.4744
  508MOL0     H67041   2.818  11.251   3.740  1.1155  0.8406 -2.5207
  508MOL0     H67042   1.737   9.824   4.157 -0.5033  0.2540  0.6164
  508MOL0     H67043   1.495   9.845   4.163  0.6046 -1.6676 -1.5201
  508MOL0     H67044   1.048  10.295   4.069 -2.0181 -0.9902  3.8490
  508MOL0     H67045   0.816  10.249   4.086 -0.2463 -2.4110  3.3548
  508MOL0     H67046   0.649   9.840   4.102  1.9876  0.9042 -0.9721
  508MOL0     H67047   0.517   9.954   4.103  0.8050  2.5757  0.3896
  508MOL0     H67048   0.564   9.927   4.342  0.4558 -0.9800  1.2755
  508MOL0     H67049   0.741   9.957   4.302  2.0273  1.6474 -2.1206
  508MOL0     H67050   0.503  10.153   4.260 -0.7269 -0.9104  0.7192
  508MOL0     H67051   0.676  10.195   4.257  0.1094 -0.3821 -0.1755
  508MOL0     H67052   0.507  10.186   4.487 -1.3083 -2.4193  0.3790
  508MOL0     H67053   0.644  10.074   4.508 -2.1236 -0.2838  0.3622
  508MOL0     H67054   0.865  10.410   4.541  0.7176 -0.1159 -2.8550
  508MOL0     H67055   0.876   9.834   4.014  2.1111 -0.4249 -0.9016
  508MOL0     H67056   1.118   9.876   4.002  0.4669  0.0857 -0.7056
  509MOL0     O67057   2.707  10.555   9.325 -0.3226  0.3242  0.8092
  509MOL0     C67058   2.641  10.488   9.248  1.0494  0.0920 -0.9287
  509MOL0     O67059   2.683  10.455   9.126  0.0059  0.5349  0.7770
  509MOL0     C67060   2.811  10.472   9.079 -0.0908 -0.4251  0.5883
  509MOL0     C67061   2.910  10.567   9.135 -0.7320  0.0091  0.2616
  509MOL0     C67062   3.034  10.575   9.076 -0.1449 -0.8109 -0.7044
  509MOL0     C67063   3.077  10.492   8.977  0.0536  0.3916 -1.4924
  509MOL0     O67064   3.200  10.492   8.918  0.0342 -0.7083 -0.0944
  509MOL0     C67065   3.312  10.525   9.001 -0.5398 -0.4132 -0.0004
  509MOL0     C67066   3.440  10.530   8.915 -0.5049 -0.1134 -0.5639
  509MOL0     C67067   3.436  10.648   8.825  0.0892 -0.4741 -0.0698
  509MOL0     C67068   3.569  10.659   8.756  0.6772 -0.5532  0.0970
  509MOL0     C67069   3.606  10.807   8.705  0.1637 -0.1256 -0.4412
  509MOL0     C67070   3.612  10.905   8.820  0.9841 -0.3170  0.8980
  509MOL0     C67071   3.716  11.005   8.795 -0.0102 -0.0874 -0.3686
  509MOL0     C67072   3.696  11.085   8.666 -0.3210 -0.8875 -0.3981
  509MOL0     N67073   3.573  11.163   8.670  0.3663  0.1275  0.1653
  509MOL0     C67074   3.544  11.272   8.742 -0.6867 -0.1252  0.8942
  509MOL0     C67075   3.410  11.295   8.732  0.1928 -0.6092  0.0757
  509MOL0     C67076   3.340  11.410   8.799 -0.3892 -0.9547  0.5389
  509MOL0     C67077   3.213  11.364   8.871 -0.2613 -1.0866 -0.2387
  509MOL0     C67078   3.143  11.476   8.945  1.0513  0.4631  0.6575
  509MOL0     C67079   3.014  11.435   9.011  0.5600  0.3174 -0.5673
  509MOL0     O67080   2.964  11.534   9.099 -0.5695 -0.4589 -0.9056
  509MOL0     C67081   2.851  11.519   9.175 -0.0573  0.5656  0.0329
  509MOL0     C67082   2.759  11.412   9.152  0.0976 -0.0449  0.4799
  509MOL0     C67083   2.640  11.413   9.227 -1.3348  0.1309  0.7088
  509MOL0     C67084   2.613  11.497   9.330  0.2520 -0.1184  0.6433
  509MOL0     C67085   2.488  11.494   9.397 -0.1535 -1.0899 -0.6751
  509MOL0     O67086   2.445  11.371   9.421  0.1386  0.0925 -0.1419
  509MOL0     C67087   2.328  11.342   9.473  0.8542 -0.2406 -0.0569
  509MOL0     C67088   2.236  11.259   9.407 -0.5810  0.0609  0.8160
  509MOL0     C67089   2.112  11.229   9.456  0.1966 -0.4101 -0.1514
  509MOL0     C67090   2.063  11.283   9.580  0.2584 -0.2790 -0.0047
  509MOL0     O67091   1.930  11.264   9.627 -0.1441 -0.2789  0.0180
  509MOL0     C67092   1.917  11.197   9.748  0.3018  1.0223 -0.6115
  509MOL0     C67093   1.766  11.180   9.783 -0.8993  0.2946 -0.3141
  509MOL0     C67094   1.692  11.313   9.807  0.5060 -0.4624  0.7070
  509MOL0     C67095   1.545  11.281   9.831 -0.9849 -0.3895  0.5723
  509MOL0     C67096   1.465  11.413   9.877  0.2018  0.0731 -0.7576
  509MOL0     C67097   1.436  11.501   9.759  0.0689 -0.2638  0.3398
  509MOL0     C67098   1.399  11.652   9.786  0.2143 -0.0949  0.0008
  509MOL0     C67099   1.493  11.732   9.871 -0.4919  0.2814 -0.1933
  509MOL0    Cl67100   1.659  11.730   9.822  0.6707  0.2259 -0.4007
  509MOL0     C67101   2.156  11.375   9.649 -0.4058 -0.1341  0.5151
  509MOL0     C67102   2.281  11.400   9.597  0.1769 -0.7322  0.4226
  509MOL0     O67103   2.435  11.604   9.428 -0.0769 -0.6091  0.2396
  509MOL0     C67104   2.702  11.604   9.347  0.2719  0.5765 -0.1476
  509MOL0     C67105   2.816  11.611   9.274 -0.4830  0.3365  1.2762
  509MOL0     N67106   3.369  11.211   8.627  0.4756  0.0394  0.0335
  509MOL0     N67107   3.460  11.128   8.589 -0.1643  0.2229  0.2623
  509MOL0     C67108   2.992  10.392   8.939 -0.0671 -0.7516  0.0658
  509MOL0     C67109   2.863  10.385   8.987  0.0308 -0.3579  0.4941
  509MOL0     C67110   2.505  10.441   9.294 -0.5471 -0.2804 -0.1344
  509MOL0     C67111   2.457  10.468   9.422  0.1945  0.5806  0.0702
  509MOL0     C67112   2.326  10.427   9.457  0.1448 -0.5796  0.2678
  509MOL0     C67113   2.246  10.359   9.360 -0.2266  0.1481 -0.7410
  509MOL0     O67114   2.122  10.305   9.399 -0.3425  0.7700  0.2030
  509MOL0     C67115   2.012  10.337   9.316  0.0772 -0.0419  0.3374
  509MOL0     C67116   1.888  10.291   9.388  0.1227 -0.0978  0.0683
  509MOL0     C67117   1.884  10.372   9.522  0.5712  0.0613 -0.2905
  509MOL0     C67118   1.747  10.356   9.583  0.7705  0.1003 -0.8032
  509MOL0     C67119   1.716  10.220   9.607  0.2763 -0.7413 -0.6755
  509MOL0     C67120   1.711  10.106   9.618 -0.0162  0.6705 -0.4064
  509MOL0     C67121   2.303  10.325   9.239  0.7594  0.7207 -0.3484
  509MOL0     C67122   2.430  10.363   9.205 -0.0692  0.7392 -0.1791
  509MOL0     H67123   2.900  10.629   9.223  3.6972 -1.0349  1.7676
  509MOL0     H67124   3.094  10.658   9.113 -2.3189  1.5678 -2.1401
  509MOL0     H67125   3.334  10.449   9.076  2.3944 -0.2065 -0.5341
  509MOL0     H67126   3.296  10.624   9.043 -0.6047  0.4498 -1.9610
  509MOL0     H67127   3.446  10.448   8.842  3.3124  0.1547 -0.7540
  509MOL0     H67128   3.533  10.522   8.971  1.5382 -0.7019 -3.8118
  509MOL0     H67129   3.427  10.744   8.877  1.5863 -0.8280  0.9102
  509MOL0     H67130   3.356  10.640   8.751  0.6671 -2.3360 -0.5652
  509MOL0     H67131   3.645  10.631   8.830  0.5812  0.9198  0.7836
  509MOL0     H67132   3.569  10.588   8.673  0.1515 -0.9835  0.4527
  509MOL0     H67133   3.538  10.849   8.630  1.1034  3.9806  0.7575
  509MOL0     H67134   3.707  10.808   8.662  2.1437  0.8730  3.7258
  509MOL0     H67135   3.637  10.849   8.911 -0.2266 -0.5600  1.1028
  509MOL0     H67136   3.515  10.953   8.837  0.7644 -0.5292  0.2714
  509MOL0     H67137   3.729  11.066   8.884  1.5155  0.2947 -0.8175
  509MOL0     H67138   3.809  10.947   8.788  0.6752  1.0863 -1.2194
  509MOL0     H67139   3.706  11.026   8.574 -1.7024 -1.8671  0.0515
  509MOL0     H67140   3.779  11.156   8.664 -0.4823 -0.7038 -1.4643
  509MOL0     H67141   3.609  11.339   8.797 -2.2970 -0.0655  2.8651
  509MOL0     H67142   3.308  11.473   8.716  3.1331 -2.6762 -2.3768
  509MOL0     H67143   3.410  11.455   8.869 -2.4884 -1.2418  2.9855
  509MOL0     H67144   3.230  11.283   8.943 -0.1237 -3.0713 -2.4123
  509MOL0     H67145   3.149  11.332   8.789 -2.9945  4.9695 -1.0383
  509MOL0     H67146   3.214  11.525   9.012  0.2403  2.5832  0.0331
  509MOL0     H67147   3.119  11.546   8.865  1.7180 -2.2092 -2.0880
  509MOL0     H67148   3.013  11.340   9.066 -0.0819 -0.0579 -1.2039
  509MOL0     H67149   2.934  11.424   8.937  1.0715  3.2581 -1.7055
  509MOL0     H67150   2.763  11.341   9.071 -0.2356  1.7990 -1.2427
  509MOL0     H67151   2.568  11.332   9.213  0.9762 -2.2229  1.5708
  509MOL0     H67152   2.262  11.222   9.308 -0.0926  0.8964  0.6249
  509MOL0     H67153   2.041  11.184   9.387 -2.0079  1.3184  0.8507
  509MOL0     H67154   1.959  11.263   9.824  2.7599 -0.7141 -0.3351
  509MOL0     H67155   1.963  11.098   9.749  1.2527  1.4550  0.2869
  509MOL0     H67156   1.756  11.127   9.878  0.4228  2.4715  1.1409
  509MOL0     H67157   1.719  11.120   9.704  3.4272 -3.2994 -0.5671
  509MOL0     H67158   1.691  11.366   9.711 -1.6196 -1.8592 -0.1235
  509MOL0     H67159   1.738  11.365   9.892 -1.4595  1.5876  0.6320
  509MOL0     H67160   1.510  11.225   9.743 -0.6342 -0.0989  0.2427
  509MOL0     H67161   1.538  11.216   9.919 -2.4695 -2.8553 -1.2322
  509MOL0     H67162   1.528  11.468   9.948 -1.1976  4.1456 -2.3682
  509MOL0     H67163   1.369  11.392   9.925  0.1958  3.0729  0.7953
  509MOL0     H67164   1.359  11.455   9.698  1.8017  0.7896 -2.8641
  509MOL0     H67165   1.523  11.494   9.692 -0.6441 -0.2987 -0.5970
  509MOL0     H67166   1.398  11.706   9.691 -2.6536 -2.2265 -1.3467
  509MOL0     H67167   1.302  11.663   9.836  0.7214  1.1207  0.7882
  509MOL0     H67168   1.485  11.696   9.974  0.1602  1.0739  0.1521
  509MOL0     H67169   1.462  11.837   9.868  1.4960  0.9006 -0.6628
  509MOL0     H67170   2.123  11.432   9.735  0.0839 -0.4230  0.8978
  509MOL0     H67171   2.338  11.464   9.664 -1.4901  0.0935  1.1120
  509MOL0     H67172   2.693  11.687   9.417  2.9096  1.8506 -1.2079
  509MOL0     H67173   2.883  11.694   9.292 -0.3665  0.4536  0.3852
  509MOL0     H67174   3.022  10.333   8.854 -1.9065 -1.2712 -0.2699
  509MOL0     H67175   2.795  10.310   8.949  0.8428 -1.1628  0.6097
  509MOL0     H67176   2.528  10.511   9.492 -1.0413  1.0829  1.0485
  509MOL0     H67177   2.287  10.454   9.555  0.7744  2.9219 -0.3034
  509MOL0     H67178   2.018  10.289   9.218 -1.8225 -0.0492  0.1755
  509MOL0     H67179   2.005  10.445   9.305  0.3103 -0.1472 -0.9446
  509MOL0     H67180   1.802  10.309   9.323  0.7639 -1.4750 -1.2239
  509MOL0     H67181   1.884  10.183   9.406 -1.4715 -0.0968 -0.1177
  509MOL0     H67182   1.921  10.474   9.507 -0.6408  0.5705  0.0373
  509MOL0     H67183   1.952  10.323   9.593 -1.4326 -1.9384  0.3312
  509MOL0     H67184   1.732  10.406   9.679  0.5715 -4.8671  2.1192
  509MOL0     H67185   1.663  10.387   9.520 -0.4030 -0.4601  0.4356
  509MOL0     H67186   1.712   9.999   9.629  2.1250  0.4635 -1.9161
  509MOL0     H67187   2.241  10.276   9.164  1.3041  2.2589 -1.8661
  509MOL0     H67188   2.478  10.347   9.109  0.6004  1.9712 -0.0661
  510MOL0     O67189   6.689   4.930   9.803  0.8401 -0.3770 -0.2784
  510MOL0     C67190   6.747   4.981   9.899 -0.5974  0.3137 -0.0952
  510MOL0     O67191   6.693   5.071   9.990  0.2723  0.5676 -0.6762
  510MOL0     C67192   6.569   5.126   9.985  0.1793  0.8228 -0.0337
  510MOL0     C67193   6.519   5.180  10.101  0.0419 -1.3547  0.5887
  510MOL0     C67194   6.396   5.238  10.118  0.1268 -0.2567  0.0749
  510MOL0     C67195   6.312   5.243   9.999 -0.4264  0.8096  0.2872
  510MOL0     O67196   6.187   5.293  10.008 -0.3379 -0.4006 -0.8229
  510MOL0     C67197   6.096   5.317   9.892  0.0116  0.1345 -0.2704
  510MOL0     C67198   6.001   5.441   9.930  0.0668  1.1536  0.0818
  510MOL0     C67199   5.920   5.487   9.816  0.0772  0.7199 -0.5882
  510MOL0     C67200   5.845   5.611   9.862  0.1694  0.0599 -0.5742
  510MOL0     C67201   5.720   5.652   9.787 -0.9984 -0.3243  0.7252
  510MOL0     C67202   5.756   5.745   9.678 -0.7388  0.2772  0.7366
  510MOL0     C67203   5.640   5.767   9.581 -0.0606 -0.3087  0.4230
  510MOL0     C67204   5.639   5.652   9.478 -0.1642  0.4445  0.4755
  510MOL0     N67205   5.535   5.669   9.380 -0.2385 -0.8967  1.3883
  510MOL0     C67206   5.520   5.783   9.305  0.9037 -0.2589  0.1090
  510MOL0     C67207   5.438   5.727   9.210  0.2125 -0.8641  1.2168
  510MOL0     C67208   5.372   5.793   9.094  0.1691  0.2415 -0.1088
  510MOL0     C67209   5.479   5.816   8.985  1.6345  0.0644 -0.2761
  510MOL0     C67210   5.429   5.866   8.841  0.6986  0.3839  0.5966
  510MOL0     C67211   5.389   6.007   8.842  0.2386 -0.6953  0.3511
  510MOL0     O67212   5.355   6.037   8.710 -0.8315 -0.6018 -0.2977
  510MOL0     C67213   5.231   6.076   8.664  0.4467  0.8030 -1.1416
  510MOL0     C67214   5.116   6.104   8.746 -0.1966  0.2381 -0.1007
  510MOL0     C67215   4.989   6.142   8.687 -0.5015 -0.0328  0.3716
  510MOL0     C67216   4.973   6.130   8.548  0.5629 -0.5681 -1.1427
  510MOL0     C67217   4.837   6.149   8.503 -0.3099  0.3711 -0.4930
  510MOL0     O67218   4.800   6.062   8.394  0.2281  0.1045  0.3089
  510MOL0     C67219   4.679   6.074   8.329  0.0461 -0.3959 -1.5706
  510MOL0     C67220   4.579   5.980   8.321  0.3620  0.4675 -0.2593
  510MOL0     C67221   4.456   6.009   8.271  0.3728 -0.5732  1.1880
  510MOL0     C67222   4.422   6.136   8.221  0.5292 -0.5573 -1.2186
  510MOL0     O67223   4.295   6.166   8.179  0.0030  0.2809 -0.5545
  510MOL0     C67224   4.274   6.255   8.068  0.5453 -0.2878  0.7678
  510MOL0     C67225   4.125   6.254   8.035  0.2466 -0.3053 -0.0024
  510MOL0     C67226   4.047   6.368   8.110  0.4302 -0.2507  0.3646
  510MOL0     C67227   3.905   6.363   8.057 -0.1769  0.2104  0.2133
  510MOL0     C67228   3.829   6.484   8.112 -0.2209  0.4201 -0.5582
  510MOL0     C67229   3.679   6.470   8.086 -0.1580 -0.5351 -0.7403
  510MOL0     C67230   3.605   6.592   8.138  0.1173 -0.2479  0.4342
  510MOL0     C67231   3.565   6.572   8.282  0.2622  0.4240  0.4983
  510MOL0    Cl67232   3.482   6.723   8.328  0.2652 -0.3669  0.0691
  510MOL0     C67233   4.518   6.235   8.223  0.8810  0.3310  0.0548
  510MOL0     C67234   4.644   6.208   8.289 -1.0469 -0.1560 -0.3905
  510MOL0     O67235   4.753   6.209   8.572 -0.3006 -0.1794 -0.4120
  510MOL0     C67236   5.086   6.108   8.466  0.5108  0.5434 -0.2720
  510MOL0     C67237   5.213   6.080   8.527 -0.1905 -0.8992  0.0385
  510MOL0     N67238   5.409   5.588   9.230  0.2980 -0.5174 -0.2424
  510MOL0     N67239   5.475   5.555   9.333  0.2500  0.2226 -0.4890
  510MOL0     C67240   6.361   5.191   9.874 -0.0963  0.2037  0.5420
  510MOL0     C67241   6.490   5.137   9.864 -0.0191 -1.1417  0.3251
  510MOL0     C67242   6.890   4.951   9.918  0.0889 -0.9457 -0.3115
  510MOL0     C67243   6.958   5.004  10.029  1.7542 -0.2886 -0.1177
  510MOL0     C67244   7.090   4.968  10.054  0.8593 -0.9380 -0.3387
  510MOL0     C67245   7.165   4.896   9.961  0.1612 -0.1451  0.2635
  510MOL0     O67246   7.298   4.856   9.967 -0.7590 -0.2816  0.0600
  510MOL0     C67247   7.368   4.886  10.085 -1.3352 -0.8942  0.1016
  510MOL0     C67248   7.506   4.820  10.091  0.3478 -0.5900  0.6229
  510MOL0     C67249   7.498   4.670  10.110 -0.6351  0.1747 -1.0553
  510MOL0     C67250   7.633   4.599  10.112 -0.1394 -0.1742 -0.1073
  510MOL0     C67251   7.639   4.452  10.139  0.2676  0.2657  0.3611
  510MOL0     C67252   7.626   4.334  10.161 -0.0288  0.0346 -0.1718
  510MOL0     C67253   7.092   4.850   9.850  0.1138  0.8481 -0.4150
  510MOL0     C67254   6.959   4.876   9.827  0.1920 -0.0578 -0.2551
  510MOL0     H67255   6.584   5.176  10.188  1.1271 -0.0312 -0.1105
  510MOL0     H67256   6.366   5.290  10.208 -0.0763  0.2337 -0.2686
  510MOL0     H67257   6.037   5.227   9.873  1.4768 -0.7926 -0.6363
  510MOL0     H67258   6.132   5.343   9.792 -0.9121 -2.6340 -1.4017
  510MOL0     H67259   6.051   5.530   9.970 -1.6856  2.2232 -0.0208
  510MOL0     H67260   5.932   5.402  10.006 -1.5868 -1.6754 -2.6388
  510MOL0     H67261   5.843   5.412   9.797 -1.7520  2.0137  1.3175
  510MOL0     H67262   5.974   5.511   9.723 -1.4191 -0.2734 -1.7595
  510MOL0     H67263   5.816   5.587   9.965  0.3640 -2.6073 -1.0689
  510MOL0     H67264   5.912   5.695   9.884  0.0048 -0.3269  1.6448
  510MOL0     H67265   5.651   5.710   9.849 -1.9388 -1.1662  0.5010
  510MOL0     H67266   5.665   5.566   9.747 -2.0823  1.1755 -1.2175
  510MOL0     H67267   5.831   5.691   9.619 -1.6533 -1.1186  0.7950
  510MOL0     H67268   5.795   5.838   9.720  1.4662 -0.2000 -0.1069
  510MOL0     H67269   5.542   5.775   9.629 -0.2082  0.1344  0.0565
  510MOL0     H67270   5.656   5.860   9.525  0.1038 -1.4559 -1.4772
  510MOL0     H67271   5.630   5.552   9.521 -1.1622 -0.9973 -2.7885
  510MOL0     H67272   5.733   5.647   9.424  1.5465 -0.2528  3.3025
  510MOL0     H67273   5.566   5.881   9.316 -0.6435  0.3240  1.8102
  510MOL0     H67274   5.338   5.895   9.116 -0.4201  0.2379 -0.9502
  510MOL0     H67275   5.293   5.722   9.066  0.8867 -0.7230  0.2841
  510MOL0     H67276   5.535   5.725   8.965  1.3426  0.0798 -1.2088
  510MOL0     H67277   5.545   5.900   9.011  1.0181  1.1828 -2.0958
  510MOL0     H67278   5.509   5.857   8.767 -1.1097 -1.0597 -1.3056
  510MOL0     H67279   5.341   5.803   8.822  1.2820 -1.1764  2.6295
  510MOL0     H67280   5.476   6.069   8.865  0.1072  0.1338 -1.2609
  510MOL0     H67281   5.303   6.018   8.909  2.9844  0.5176  3.9663
  510MOL0     H67282   5.128   6.094   8.853 -1.6457 -0.3287  0.0274
  510MOL0     H67283   4.910   6.169   8.757  0.7603 -0.0562  1.8694
  510MOL0     H67284   4.603   5.879   8.349  2.3783  1.3137  1.3172
  510MOL0     H67285   4.379   5.934   8.277  0.9632 -1.1926  1.1501
  510MOL0     H67286   4.327   6.243   7.973  0.5102  1.4112  0.4933
  510MOL0     H67287   4.306   6.357   8.094 -0.9720  0.2229  0.7072
  510MOL0     H67288   4.089   6.155   8.061 -0.4961  0.1639  0.8129
  510MOL0     H67289   4.109   6.265   7.928  1.8588  1.5886 -0.1114
  510MOL0     H67290   4.093   6.466   8.093 -1.2531  0.5590  0.2836
  510MOL0     H67291   4.051   6.358   8.219  1.5495  1.9336  0.5950
  510MOL0     H67292   3.895   6.353   7.949  0.3431  0.9219  0.0895
  510MOL0     H67293   3.871   6.268   8.099  2.3427 -0.7352  0.2808
  510MOL0     H67294   3.878   6.572   8.068  0.7952 -0.9521 -2.2669
  510MOL0     H67295   3.841   6.480   8.221  0.2428 -0.1952 -0.6327
  510MOL0     H67296   3.649   6.381   8.142  1.3598  1.2628  3.2976
  510MOL0     H67297   3.649   6.457   7.981 -0.3808 -0.4120 -0.6908
  510MOL0     H67298   3.657   6.687   8.123  0.3071 -0.1107  1.8174
  510MOL0     H67299   3.519   6.599   8.071  0.9307 -0.0411 -0.6065
  510MOL0     H67300   3.647   6.569   8.355  1.7184  1.5557 -1.0152
  510MOL0     H67301   3.493   6.491   8.294  1.7735 -0.7754  2.0538
  510MOL0     H67302   4.508   6.340   8.197  3.3639  0.4498 -0.7237
  510MOL0     H67303   4.724   6.282   8.291  0.1503 -1.4048 -0.8577
  510MOL0     H67304   5.069   6.104   8.359  2.6915 -4.6862 -0.7471
  510MOL0     H67305   5.302   6.069   8.466  0.9392  1.9730  0.9582
  510MOL0     H67306   6.293   5.183   9.790  0.7138  0.2163 -0.1245
  510MOL0     H67307   6.521   5.105   9.765 -1.6635  1.2819 -1.0791
  510MOL0     H67308   6.902   5.059  10.104  2.5920 -0.7068  0.8298
  510MOL0     H67309   7.137   4.998  10.147 -0.7343  1.1866 -0.1397
  510MOL0     H67310   7.310   4.860  10.175 -0.6128  0.2906  0.9361
  510MOL0     H67311   7.379   4.995  10.086 -2.8067 -0.7173  0.9452
  510MOL0     H67312   7.553   4.848   9.996 -0.2518  0.4298  0.6114
  510MOL0     H67313   7.566   4.865  10.171 -0.0240 -0.7450  0.9921
  510MOL0     H67314   7.436   4.619  10.036 -0.4144 -2.5996  0.5773
  510MOL0     H67315   7.444   4.647  10.202  3.2456 -3.3219  0.6907
  510MOL0     H67316   7.671   4.621  10.012 -2.1736  0.5163 -0.7596
  510MOL0     H67317   7.699   4.642  10.188  2.8004 -1.5024 -1.7438
  510MOL0     H67318   7.608   4.231  10.185 -1.5138 -0.0013 -1.3151
  510MOL0     H67319   7.137   4.778   9.782 -1.5981 -0.9683  0.2726
  510MOL0     H67320   6.912   4.844   9.735  0.8964  0.1541 -0.6908
  511MOL0     O67321   1.379   6.388   6.519 -0.3853 -0.3584 -0.4168
  511MOL0     C67322   1.459   6.494   6.514 -0.5298  0.6645 -0.5035
  511MOL0     O67323   1.421   6.626   6.514  0.6375  0.7285  0.3496
  511MOL0     C67324   1.289   6.651   6.510 -0.1115  0.1103  0.7209
  511MOL0     C67325   1.199   6.608   6.606 -0.4955 -0.9900  0.0200
  511MOL0     C67326   1.061   6.644   6.593  0.2580 -0.5369 -0.2329
  511MOL0     C67327   1.012   6.718   6.485  0.3239  0.7538 -0.3278
  511MOL0     O67328   0.883   6.756   6.481  0.4572 -0.3492 -0.4888
  511MOL0     C67329   0.819   6.769   6.354 -0.1655  0.4971 -0.1561
  511MOL0     C67330   0.672   6.728   6.367  0.1525  0.5517  0.3922
  511MOL0     C67331   0.626   6.757   6.500 -0.0559 -0.1535 -0.7451
  511MOL0     C67332   0.478   6.724   6.495  0.4894  0.1418  0.1913
  511MOL0     C67333   0.421   6.717   6.645 -0.1826  0.3533  0.2451
  511MOL0     C67334   0.279   6.747   6.663  0.7457 -0.4031 -0.5532
  511MOL0     C67335   0.256   6.764   6.809 -0.2425 -0.6786 -0.0954
  511MOL0     C67336   0.296   6.896   6.872 -0.1887  0.3915 -0.3730
  511MOL0     N67337   0.227   7.021   6.841 -0.1054 -0.9376 -0.2778
  511MOL0     C67338   0.240   7.095   6.729  0.3134 -0.6383 -0.1631
  511MOL0     C67339   0.173   7.213   6.758 -0.2300  0.0941 -0.5987
  511MOL0     C67340   0.150   7.309   6.645  0.6811 -0.7158  0.0585
  511MOL0     C67341   0.049   7.246   6.543  0.0087 -0.6163  0.8470
  511MOL0     C67342  -0.088   7.214   6.613 -0.4293 -1.0547  0.4797
  511MOL0     C67343  -0.209   7.260   6.526 -0.4536 -0.2699  0.3726
  511MOL0     O67344  -0.325   7.234   6.598  0.5569  0.4651 -1.1389
  511MOL0     C67345  -0.438   7.285   6.540 -0.2254 -0.1188  0.5631
  511MOL0     C67346  -0.448   7.350   6.413  0.8843 -0.5732  0.6494
  511MOL0     C67347  -0.570   7.394   6.364  1.0814 -0.8088  1.3311
  511MOL0     C67348  -0.691   7.371   6.435 -0.3319 -0.6426  0.7862
  511MOL0     C67349  -0.813   7.435   6.387  0.7878  0.5710  0.0146
  511MOL0     O67350  -0.803   7.539   6.297 -0.2479  0.8062 -0.0624
  511MOL0     C67351  -0.913   7.594   6.248 -0.6965  0.3070 -0.2456
  511MOL0     C67352  -0.961   7.718   6.296 -0.4157 -0.1495 -0.1385
  511MOL0     C67353  -1.067   7.776   6.239  1.1165 -0.1038 -0.0668
  511MOL0     C67354  -1.119   7.719   6.127 -0.1437  0.1548 -0.5479
  511MOL0     O67355  -1.219   7.787   6.064 -0.1610 -0.4524 -1.0683
  511MOL0     C67356  -1.295   7.729   5.961 -0.1078  0.9063  0.1606
  511MOL0     C67357  -1.404   7.820   5.907 -0.6668 -0.2178  0.1962
  511MOL0     C67358  -1.517   7.850   6.005 -0.3722 -0.4423  0.1395
  511MOL0     C67359  -1.642   7.894   5.935  0.5074  0.3894 -0.8054
  511MOL0     C67360  -1.745   7.958   6.035 -0.9439  0.7050 -0.0502
  511MOL0     C67361  -1.896   7.944   5.987  0.8526  0.0693 -0.5843
  511MOL0     C67362  -1.985   8.015   6.080  0.3687  0.4323  0.0205
  511MOL0     C67363  -2.143   7.986   6.060  0.3829 -0.2034  0.0691
  511MOL0    Cl67364  -2.178   7.813   6.046  0.6691 -0.0849 -0.1620
  511MOL0     C67365  -1.064   7.606   6.070  0.4014  0.8056 -0.2469
  511MOL0     C67366  -0.965   7.536   6.135 -0.9402 -0.2533  1.2829
  511MOL0     O67367  -0.928   7.400   6.432 -0.6447 -0.4678  0.3140
  511MOL0     C67368  -0.672   7.315   6.560  0.4465 -0.2343 -0.2617
  511MOL0     C67369  -0.556   7.268   6.613 -0.2499  0.0050  0.1486
  511MOL0     N67370   0.126   7.216   6.885  0.5284 -0.7675  0.5374
  511MOL0     N67371   0.155   7.099   6.928 -0.6074  0.2840  0.4771
  511MOL0     C67372   1.103   6.740   6.390 -0.1871 -0.6950 -0.6735
  511MOL0     C67373   1.243   6.724   6.401  0.7042  1.0200  0.3937
  511MOL0     C67374   1.595   6.464   6.545 -0.7079 -0.5843 -0.5555
  511MOL0     C67375   1.642   6.334   6.547  0.6578  0.7117  0.0454
  511MOL0     C67376   1.779   6.320   6.534  0.2267  0.3827  0.7704
  511MOL0     C67377   1.867   6.423   6.528 -0.1744 -0.9678  0.2414
  511MOL0     O67378   1.996   6.394   6.514  0.4531 -0.6198 -0.1035
  511MOL0     C67379   2.092   6.493   6.558  0.3628 -0.2003  0.4081
  511MOL0     C67380   2.218   6.409   6.542  0.4197  0.0677  0.6863
  511MOL0     C67381   2.346   6.480   6.603  1.3930 -0.0223  0.8757
  511MOL0     C67382   2.423   6.384   6.694 -0.1271 -0.8005 -0.0294
  511MOL0     C67383   2.528   6.468   6.756 -1.5153 -0.6274  0.1218
  511MOL0     C67384   2.626   6.535   6.804 -0.3397  1.0049  0.1818
  511MOL0     C67385   1.818   6.549   6.542 -0.4500  0.8580 -0.1161
  511MOL0     C67386   1.686   6.577   6.547  0.3609 -0.1911  0.0911
  511MOL0     H67387   1.229   6.561   6.699 -2.7837  0.2201  1.4577
  511MOL0     H67388   0.988   6.608   6.665 -0.7547 -1.7218 -1.7680
  511MOL0     H67389   0.868   6.705   6.280 -0.1186 -1.0243  1.1291
  511MOL0     H67390   0.840   6.873   6.325 -0.6248  0.6988  0.2075
  511MOL0     H67391   0.664   6.622   6.341  1.2459  0.4548  0.3849
  511MOL0     H67392   0.622   6.782   6.286 -2.1450 -1.2528  0.4937
  511MOL0     H67393   0.626   6.864   6.520 -0.6636 -0.4738  1.2037
  511MOL0     H67394   0.686   6.704   6.574  1.1604  1.2916 -0.6522
  511MOL0     H67395   0.418   6.798   6.442 -1.5673  0.1295  2.3429
  511MOL0     H67396   0.449   6.631   6.445  0.9859  2.2377 -4.5630
  511MOL0     H67397   0.490   6.776   6.707  1.4394 -0.3873 -0.7758
  511MOL0     H67398   0.454   6.617   6.676 -0.4699  0.7137  1.7745
  511MOL0     H67399   0.224   6.657   6.633  1.5125 -1.9549  2.3138
  511MOL0     H67400   0.240   6.832   6.605 -3.2552 -1.8169 -0.2232
  511MOL0     H67401   0.149   6.752   6.828  0.0656  0.3153  2.5887
  511MOL0     H67402   0.313   6.683   6.857  0.3509  0.1778  0.6646
  511MOL0     H67403   0.401   6.912   6.846  0.1022  0.5046  0.7902
  511MOL0     H67404   0.285   6.875   6.979  1.6224  1.1312  0.0046
  511MOL0     H67405   0.294   7.056   6.643  0.1559 -5.0901  1.4934
  511MOL0     H67406   0.235   7.347   6.587 -0.1036  1.9660  0.5075
  511MOL0     H67407   0.115   7.398   6.698  0.8693 -0.1939 -0.6711
  511MOL0     H67408   0.078   7.150   6.500  2.3180 -0.2701  1.5073
  511MOL0     H67409   0.030   7.317   6.462  0.0886 -1.7549 -0.1927
  511MOL0     H67410  -0.099   7.108   6.639  2.2876 -1.5801 -0.1991
  511MOL0     H67411  -0.089   7.267   6.708  2.2295 -1.5829  0.8733
  511MOL0     H67412  -0.218   7.198   6.436  0.0339 -1.5006  1.1469
  511MOL0     H67413  -0.195   7.366   6.504  1.4094 -0.0583  2.2704
  511MOL0     H67414  -0.365   7.363   6.344  0.6030  2.0756  0.7425
  511MOL0     H67415  -0.572   7.450   6.271 -3.0173 -3.6080 -0.5620
  511MOL0     H67416  -0.912   7.769   6.378  0.4177 -0.3150 -0.5247
  511MOL0     H67417  -1.105   7.871   6.276  2.2795 -0.4598  2.1872
  511MOL0     H67418  -1.334   7.630   5.989  4.2042 -1.2862 -0.7271
  511MOL0     H67419  -1.233   7.706   5.874 -0.1733  1.3437 -0.0061
  511MOL0     H67420  -1.457   7.777   5.822 -1.7357  2.7477 -0.7662
  511MOL0     H67421  -1.370   7.912   5.858 -1.7732  0.0959 -0.0073
  511MOL0     H67422  -1.487   7.925   6.079  0.0031  0.9270 -1.3304
  511MOL0     H67423  -1.545   7.765   6.067 -3.8231  1.9457  2.2226
  511MOL0     H67424  -1.625   7.969   5.858 -4.3190  1.7488 -0.8803
  511MOL0     H67425  -1.697   7.812   5.888  0.1170  0.3058 -0.2231
  511MOL0     H67426  -1.714   8.062   6.048 -0.6232  0.4979  0.9862
  511MOL0     H67427  -1.732   7.911   6.133 -2.3379  0.0707 -0.1466
  511MOL0     H67428  -1.911   7.836   5.991  3.3841 -0.4946 -3.0194
  511MOL0     H67429  -1.908   7.980   5.884  1.5752  0.6881 -0.4636
  511MOL0     H67430  -1.961   7.986   6.182 -0.8628 -1.2185 -0.1187
  511MOL0     H67431  -1.970   8.122   6.062 -0.2920  0.2595 -1.8586
  511MOL0     H67432  -2.176   8.044   5.973  1.5054  1.1535  0.5067
  511MOL0     H67433  -2.182   8.024   6.154 -0.8790 -0.6090 -0.2734
  511MOL0     H67434  -1.098   7.572   5.973  0.0861 -1.0162  0.4509
  511MOL0     H67435  -0.914   7.451   6.091 -0.9758  1.1438 -1.6983
  511MOL0     H67436  -0.766   7.303   6.614  1.1355 -0.1233  1.0141
  511MOL0     H67437  -0.572   7.204   6.698  1.8094 -1.7594 -0.6922
  511MOL0     H67438   1.072   6.785   6.297  0.5205  0.5119 -0.3411
  511MOL0     H67439   1.311   6.758   6.323 -0.0054 -1.9028 -1.6755
  511MOL0     H67440   1.578   6.247   6.541  0.2458  0.9500  0.7863
  511MOL0     H67441   1.811   6.216   6.529 -0.6134 -0.0945  3.6107
  511MOL0     H67442   2.057   6.518   6.658 -4.6502 -2.4293 -0.4866
  511MOL0     H67443   2.085   6.586   6.501 -1.6503 -1.9388 -2.4256
  511MOL0     H67444   2.208   6.304   6.573  1.7193 -1.3415 -3.0873
  511MOL0     H67445   2.230   6.396   6.434  0.1698  2.1223  0.3781
  511MOL0     H67446   2.318   6.564   6.668 -0.0517  0.5004 -0.3591
  511MOL0     H67447   2.401   6.524   6.519 -1.2233  0.2694 -0.7935
  511MOL0     H67448   2.350   6.340   6.763  0.3690 -1.6575 -0.0458
  511MOL0     H67449   2.478   6.305   6.644  0.1552 -0.8082  0.2918
  511MOL0     H67450   2.705   6.587   6.854  0.8859 -0.4855 -0.1261
  511MOL0     H67451   1.882   6.636   6.532  2.3683 -1.0642 -0.1350
  511MOL0     H67452   1.648   6.678   6.537 -2.0626 -1.2833 -4.2591
  512MOL0     O67453   9.057   2.024   5.782  0.2824  0.7212  0.6054
  512MOL0     C67454   9.079   2.140   5.747  1.1980  0.1674 -0.5801
  512MOL0     O67455   8.985   2.231   5.689  0.5976  0.4014 -0.1270
  512MOL0     C67456   8.860   2.183   5.692  0.2007  0.0742 -0.2244
  512MOL0     C67457   8.794   2.116   5.582 -0.4487  0.6444 -0.1534
  512MOL0     C67458   8.672   2.051   5.602 -0.9900  0.4540 -0.1886
  512MOL0     C67459   8.611   2.050   5.729 -0.3814  0.0324  0.6847
  512MOL0     O67460   8.505   1.972   5.757  0.5344 -0.6093  0.2217
  512MOL0     C67461   8.515   1.886   5.872 -0.3215 -0.3816  0.7506
  512MOL0     C67462   8.397   1.792   5.881 -0.0527  0.5128  0.8330
  512MOL0     C67463   8.390   1.725   5.746  0.3828  0.1116  0.0185
  512MOL0     C67464   8.286   1.615   5.735  0.1133 -0.4332  0.2158
  512MOL0     C67465   8.296   1.496   5.829  0.8175 -0.2793 -0.2136
  512MOL0     C67466   8.427   1.428   5.842  1.1641  0.7156  1.2152
  512MOL0     C67467   8.462   1.374   5.703  0.2179 -0.3229  0.1712
  512MOL0     C67468   8.386   1.243   5.663 -0.0176  0.5423 -0.0222
  512MOL0     N67469   8.466   1.141   5.726  0.3923  0.0037 -0.0281
  512MOL0     C67470   8.465   1.085   5.849  0.4934  0.4762 -1.0412
  512MOL0     C67471   8.571   1.004   5.841 -0.2936  0.2469 -0.9543
  512MOL0     C67472   8.609   0.927   5.958  0.5030  0.8610  0.0424
  512MOL0     C67473   8.527   0.794   5.972 -0.2975 -0.6878  0.3661
  512MOL0     C67474   8.545   0.726   6.105 -0.1918 -0.5355  0.1545
  512MOL0     C67475   8.494   0.584   6.089 -0.6510 -0.8344  0.2529
  512MOL0     O67476   8.365   0.569   6.042  0.5826  0.8250  0.7480
  512MOL0     C67477   8.255   0.615   6.110 -0.6065 -0.2939 -0.5786
  512MOL0     C67478   8.135   0.627   6.034 -0.5411  0.0029 -1.1769
  512MOL0     C67479   8.023   0.667   6.097 -0.2417  0.3565 -0.3146
  512MOL0     C67480   8.030   0.718   6.233  0.2578  0.8584  0.9798
  512MOL0     C67481   7.909   0.773   6.304  0.4311 -0.7376 -0.2844
  512MOL0     O67482   7.802   0.817   6.228  0.0512 -0.3086 -0.1636
  512MOL0     C67483   7.722   0.911   6.287 -0.4977  1.2127 -0.9600
  512MOL0     C67484   7.773   1.039   6.287  0.6770 -0.7590  0.6665
  512MOL0     C67485   7.701   1.136   6.361  0.0475  0.5056  0.5868
  512MOL0     C67486   7.577   1.104   6.418 -0.2021  0.4124  0.4837
  512MOL0     O67487   7.491   1.195   6.472 -0.8363  0.5186 -0.3745
  512MOL0     C67488   7.555   1.300   6.563  0.1752 -0.5124  1.2417
  512MOL0     C67489   7.460   1.335   6.679  0.1278  0.3224  0.7751
  512MOL0     C67490   7.327   1.405   6.635  0.1467  0.2383 -0.3037
  512MOL0     C67491   7.243   1.436   6.759 -0.4244  0.5418  0.4897
  512MOL0     C67492   7.125   1.521   6.720 -0.2514 -0.0122 -0.4021
  512MOL0     C67493   6.989   1.529   6.808 -0.6501 -0.2035  0.3690
  512MOL0     C67494   7.014   1.582   6.953  0.1971 -0.1489 -0.6686
  512MOL0     C67495   7.008   1.489   7.075 -0.2403 -0.3394  0.5942
  512MOL0    Cl67496   7.072   1.325   7.043  0.0192 -0.3071  0.5978
  512MOL0     C67497   7.526   0.970   6.411 -0.1166 -0.4777 -0.2293
  512MOL0     C67498   7.605   0.870   6.349 -0.1880  0.6613 -1.0486
  512MOL0     O67499   7.908   0.773   6.423 -0.1105 -0.3333 -0.1838
  512MOL0     C67500   8.145   0.700   6.305 -0.0579 -0.3610  0.6124
  512MOL0     C67501   8.261   0.640   6.251  0.3319 -0.9772  1.0441
  512MOL0     N67502   8.629   0.996   5.718  0.5867  0.1501 -0.9077
  512MOL0     N67503   8.566   1.077   5.645  0.8012 -0.2702  0.5111
  512MOL0     C67504   8.665   2.126   5.830 -0.9190  0.3041 -1.2847
  512MOL0     C67505   8.786   2.192   5.812 -0.3658  0.6350  0.1300
  512MOL0     C67506   9.214   2.183   5.765  0.0458  0.0512  0.1537
  512MOL0     C67507   9.261   2.287   5.684 -0.5763  0.4690 -1.0386
  512MOL0     C67508   9.394   2.317   5.690  0.0342 -0.5898  0.2149
  512MOL0     C67509   9.476   2.268   5.786 -0.3001  0.1142  0.1279
  512MOL0     O67510   9.612   2.314   5.786 -0.0929 -0.2100 -0.7286
  512MOL0     C67511   9.711   2.224   5.846  0.3055 -0.0478 -0.1332
  512MOL0     C67512   9.847   2.269   5.812 -0.6461 -0.8134  0.1649
  512MOL0     C67513   9.944   2.177   5.883 -0.7075 -0.6416  0.4522
  512MOL0     C67514  10.085   2.228   5.852  0.1098  0.1787 -0.4344
  512MOL0     C67515  10.189   2.152   5.918 -0.1893 -0.2893  0.2500
  512MOL0     C67516  10.279   2.095   5.976  1.0225  0.9665 -0.0624
  512MOL0     C67517   9.436   2.161   5.859 -0.3735 -0.2220 -0.1701
  512MOL0     C67518   9.302   2.116   5.851  0.0276  0.2200 -0.3937
  512MOL0     H67519   8.841   2.111   5.485  1.1296 -3.6226  0.5931
  512MOL0     H67520   8.639   1.988   5.520  1.8949  0.1054 -1.1898
  512MOL0     H67521   8.513   1.948   5.962 -2.5200 -0.0096  0.5160
  512MOL0     H67522   8.607   1.827   5.864 -0.3628 -0.1990 -2.6460
  512MOL0     H67523   8.305   1.850   5.894  1.4769  3.7866 -1.3929
  512MOL0     H67524   8.411   1.726   5.967  1.4997  0.7507  0.7894
  512MOL0     H67525   8.483   1.668   5.734  0.2206 -0.0529 -0.5198
  512MOL0     H67526   8.374   1.793   5.662 -1.2046  1.2215  1.1670
  512MOL0     H67527   8.189   1.662   5.752 -0.3562 -1.4672  0.4754
  512MOL0     H67528   8.292   1.589   5.629  0.1527  3.4626 -0.8965
  512MOL0     H67529   8.226   1.415   5.806 -0.0768  0.2861  0.4538
  512MOL0     H67530   8.269   1.545   5.923 -2.0243 -0.1186 -1.0334
  512MOL0     H67531   8.427   1.341   5.909  0.3846 -1.3135 -1.2937
  512MOL0     H67532   8.506   1.490   5.883 -0.3608  1.9966  2.3598
  512MOL0     H67533   8.449   1.437   5.615  1.8872 -2.3378 -1.6430
  512MOL0     H67534   8.568   1.347   5.711  0.3798  0.8460  3.6854
  512MOL0     H67535   8.381   1.238   5.554 -1.7225 -1.3814  0.0936
  512MOL0     H67536   8.283   1.231   5.696 -1.1770  2.1904 -2.7083
  512MOL0     H67537   8.400   1.109   5.932  2.0326 -1.2904  0.7724
  512MOL0     H67538   8.589   0.991   6.044 -2.3146  0.1301  0.0085
  512MOL0     H67539   8.716   0.902   5.955  0.0581 -1.4719  1.1465
  512MOL0     H67540   8.550   0.724   5.892  0.5076 -0.6684  0.5686
  512MOL0     H67541   8.422   0.822   5.965 -1.4506 -3.3741  3.8672
  512MOL0     H67542   8.647   0.726   6.145 -0.2523 -1.2769  0.3340
  512MOL0     H67543   8.477   0.766   6.181  0.6165 -1.4070  1.3834
  512MOL0     H67544   8.495   0.527   6.183 -1.3791 -1.6045 -0.1799
  512MOL0     H67545   8.555   0.533   6.014 -1.3790 -0.5953 -0.5150
  512MOL0     H67546   8.127   0.619   5.926  0.9721  1.7363 -1.4803
  512MOL0     H67547   7.935   0.684   6.036 -1.7302 -1.8841  1.0643
  512MOL0     H67548   7.864   1.060   6.232  1.1848 -1.7368  1.0988
  512MOL0     H67549   7.751   1.229   6.388 -2.1108  2.0775 -0.4991
  512MOL0     H67550   7.567   1.394   6.509 -1.1711 -1.3016 -0.5742
  512MOL0     H67551   7.645   1.253   6.604  2.6208 -0.0015 -3.0000
  512MOL0     H67552   7.524   1.399   6.740 -0.8327  1.6746  0.4156
  512MOL0     H67553   7.433   1.243   6.733 -1.1222  0.3744  0.2699
  512MOL0     H67554   7.274   1.348   6.559 -2.2157  2.7877 -0.7439
  512MOL0     H67555   7.367   1.497   6.590 -0.0094 -0.5363 -2.0820
  512MOL0     H67556   7.209   1.341   6.801 -3.0018  1.5272  0.8178
  512MOL0     H67557   7.304   1.495   6.828 -0.4256  1.7324 -0.4869
  512MOL0     H67558   7.105   1.489   6.618 -0.7995  0.3837 -0.4299
  512MOL0     H67559   7.160   1.625   6.722  1.9226 -0.7157  0.3431
  512MOL0     H67560   6.963   1.422   6.809  3.5190 -1.4214  1.8414
  512MOL0     H67561   6.926   1.606   6.763  1.6042  1.9404  0.6484
  512MOL0     H67562   7.118   1.609   6.970  0.8578 -2.7079 -0.2469
  512MOL0     H67563   6.957   1.674   6.968 -0.2066 -0.5093  0.0550
  512MOL0     H67564   6.903   1.476   7.101 -0.5633 -1.8150 -1.1920
  512MOL0     H67565   7.060   1.528   7.163 -2.1540  1.9650  0.8013
  512MOL0     H67566   7.430   0.956   6.461 -0.1540 -2.2662 -0.7157
  512MOL0     H67567   7.569   0.770   6.325 -0.9323  0.2028  1.7193
  512MOL0     H67568   8.139   0.723   6.411  1.6759 -1.2510  0.9383
  512MOL0     H67569   8.339   0.605   6.316 -0.0565 -2.9258  0.5195
  512MOL0     H67570   8.606   2.145   5.919  6.4509  0.8262  4.4758
  512MOL0     H67571   8.827   2.250   5.894 -0.6607 -0.6257  1.2070
  512MOL0     H67572   9.201   2.317   5.599 -0.1868 -1.8705 -2.2203
  512MOL0     H67573   9.449   2.373   5.615 -0.4859 -1.4921 -0.8753
  512MOL0     H67574   9.695   2.125   5.802 -0.5842  0.9994 -2.3252
  512MOL0     H67575   9.698   2.224   5.955  0.6871 -2.3801 -0.0322
  512MOL0     H67576   9.858   2.282   5.704 -2.4476 -1.0160 -0.0809
  512MOL0     H67577   9.847   2.365   5.863  0.2403 -0.8668  0.2868
  512MOL0     H67578   9.922   2.077   5.845 -1.5846  0.7334 -3.0905
  512MOL0     H67579   9.932   2.184   5.991  2.4460 -0.2579  0.8506
  512MOL0     H67580  10.098   2.231   5.744 -5.4510  1.8142 -1.3719
  512MOL0     H67581  10.082   2.332   5.888 -1.2296  0.6263 -1.7531
  512MOL0     H67582  10.363   2.035   6.003 -0.7005 -1.7860 -0.4057
  512MOL0     H67583   9.491   2.108   5.936 -1.6943 -3.0156 -1.0259
  512MOL0     H67584   9.276   2.031   5.915  1.2621 -0.0384 -0.1999
  513MOL0     O67585   4.047   5.222   7.857 -0.2560 -0.1439 -0.7994
  513MOL0     C67586   4.149   5.289   7.886  0.5421 -0.2388 -0.1342
  513MOL0     O67587   4.203   5.304   8.014  0.2016  0.2091 -0.4696
  513MOL0     C67588   4.139   5.249   8.117  0.1453  0.0743 -0.4078
  513MOL0     C67589   4.106   5.109   8.122  1.0772  0.4882  0.6068
  513MOL0     C67590   4.015   5.066   8.213 -0.9869  0.2383 -0.3768
  513MOL0     C67591   3.964   5.154   8.311 -0.4488  0.3218  0.1903
  513MOL0     O67592   3.879   5.113   8.408 -0.1503 -0.0958 -0.4946
  513MOL0     C67593   3.751   5.169   8.414  0.6973 -0.2682  0.4150
  513MOL0     C67594   3.649   5.087   8.496 -0.1546 -0.8355  0.4484
  513MOL0     C67595   3.569   4.981   8.400 -0.0731 -1.0452 -0.1874
  513MOL0     C67596   3.491   4.904   8.500  0.1685 -0.0278  0.4770
  513MOL0     C67597   3.393   4.808   8.424 -0.0453  0.2281  0.4595
  513MOL0     C67598   3.333   4.730   8.540  0.2141 -0.1561  0.2772
  513MOL0     C67599   3.209   4.646   8.487 -0.1061 -0.2633  0.6026
  513MOL0     C67600   3.175   4.529   8.591  0.2573 -0.3519  0.9068
  513MOL0     N67601   3.078   4.443   8.527  0.5023  1.0268  0.1617
  513MOL0     C67602   2.939   4.453   8.524 -0.0459 -0.3737 -0.5487
  513MOL0     C67603   2.885   4.347   8.465  0.2396  0.0024  0.3113
  513MOL0     C67604   2.736   4.316   8.470  0.5338  0.1313  0.8880
  513MOL0     C67605   2.697   4.234   8.579  0.4976 -0.4429 -1.2250
  513MOL0     C67606   2.569   4.154   8.550  0.3286 -0.5553  0.4656
  513MOL0     C67607   2.528   4.067   8.664 -0.0614  1.1225  0.2604
  513MOL0     O67608   2.452   4.141   8.768 -0.7171  0.5926 -0.5850
  513MOL0     C67609   2.316   4.152   8.779  0.8556  0.2118  0.6024
  513MOL0     C67610   2.257   4.204   8.895  0.9125 -0.3341 -0.7847
  513MOL0     C67611   2.120   4.233   8.908  0.3868  0.3927 -0.6343
  513MOL0     C67612   2.032   4.193   8.806 -0.0374  0.2465 -0.1169
  513MOL0     C67613   1.885   4.220   8.818 -0.1596 -0.1716  0.0578
  513MOL0     O67614   1.828   4.234   8.938  0.4335  0.2156  0.2923
  513MOL0     C67615   1.713   4.303   8.964 -0.2346 -0.3540 -0.9019
  513MOL0     C67616   1.629   4.350   8.865 -0.6551 -0.0121  0.4149
  513MOL0     C67617   1.521   4.434   8.896 -0.6322 -0.4962 -0.1933
  513MOL0     C67618   1.488   4.458   9.036 -0.2816 -0.5194  0.0813
  513MOL0     O67619   1.387   4.535   9.084 -0.5035  0.2423 -1.0522
  513MOL0     C67620   1.274   4.550   8.997 -0.5331 -0.6229 -0.3015
  513MOL0     C67621   1.140   4.576   9.073 -0.1245  0.3783 -0.1884
  513MOL0     C67622   1.159   4.662   9.188  0.3925 -0.8429 -0.6488
  513MOL0     C67623   1.020   4.684   9.269  0.5367 -0.6960 -0.0762
  513MOL0     C67624   1.050   4.765   9.405  0.9542  0.3913  0.6405
  513MOL0     C67625   0.927   4.835   9.480 -0.3889  0.1171 -0.5722
  513MOL0     C67626   0.975   4.905   9.605  0.3035 -0.8427  0.0586
  513MOL0     C67627   0.875   5.013   9.668  0.1514  0.5174 -0.0364
  513MOL0    Cl67628   0.711   4.930   9.693 -0.1643  0.2581  0.3996
  513MOL0     C67629   1.569   4.399   9.138 -0.1706 -0.0684  0.4222
  513MOL0     C67630   1.684   4.329   9.100  0.2262 -0.3377 -0.1247
  513MOL0     O67631   1.821   4.213   8.717 -0.7481 -0.1047  0.4686
  513MOL0     C67632   2.087   4.128   8.685  0.7792 -0.2004  1.1502
  513MOL0     C67633   2.228   4.113   8.665 -0.2777 -0.1968  0.6657
  513MOL0     N67634   2.989   4.273   8.422 -0.1902  0.3835  0.5036
  513MOL0     N67635   3.102   4.314   8.485  0.0494 -0.2017 -0.1973
  513MOL0     C67636   4.007   5.286   8.307  0.7415 -0.4237  0.0045
  513MOL0     C67637   4.091   5.336   8.206 -0.4688 -1.1505  1.0136
  513MOL0     C67638   4.236   5.331   7.776 -0.1787 -1.2593 -0.2134
  513MOL0     C67639   4.176   5.371   7.656  0.5391  0.4891 -0.2320
  513MOL0     C67640   4.251   5.431   7.557  1.0839  0.4723  0.0270
  513MOL0     C67641   4.388   5.441   7.570  0.0260  0.5110 -0.1803
  513MOL0     O67642   4.455   5.489   7.464  0.9811 -0.6210 -0.1711
  513MOL0     C67643   4.584   5.522   7.485  0.7106 -0.6969 -0.4769
  513MOL0     C67644   4.629   5.585   7.354 -1.0611 -0.0798 -0.1488
  513MOL0     C67645   4.780   5.613   7.346  0.5674 -0.7199  0.2262
  513MOL0     C67646   4.825   5.696   7.222  0.4448  0.6373 -0.6750
  513MOL0     C67647   4.966   5.725   7.241  0.1597  0.0680 -0.6210
  513MOL0     C67648   5.083   5.750   7.270  0.6386 -0.5264  0.1635
  513MOL0     C67649   4.453   5.390   7.688  0.5457 -0.6404  0.2683
  513MOL0     C67650   4.374   5.338   7.793  0.0984  0.0316  0.5189
  513MOL0     H67651   4.154   5.047   8.047  0.8681 -1.5869  2.0993
  513MOL0     H67652   3.989   4.961   8.225  0.3504 -0.0727  0.0134
  513MOL0     H67653   3.707   5.171   8.313 -0.1897 -1.9103  0.7293
  513MOL0     H67654   3.754   5.275   8.440 -0.2005  0.0901 -0.8116
  513MOL0     H67655   3.581   5.159   8.543  0.1592 -0.9487  1.0952
  513MOL0     H67656   3.703   5.038   8.578  1.7058 -0.6346 -0.6137
  513MOL0     H67657   3.634   4.915   8.342  2.0509 -0.6380  1.6046
  513MOL0     H67658   3.508   5.036   8.327 -0.2945  0.4600  1.0735
  513MOL0     H67659   3.567   4.851   8.559  0.0066 -0.2809  0.4581
  513MOL0     H67660   3.434   4.971   8.565 -0.6083 -1.2448  1.0924
  513MOL0     H67661   3.442   4.738   8.355 -0.0597 -1.5445  2.1611
  513MOL0     H67662   3.312   4.869   8.381 -2.0728 -0.0223  3.6054
  513MOL0     H67663   3.291   4.808   8.604 -0.5280  1.5552 -2.1295
  513MOL0     H67664   3.413   4.666   8.577  1.0332  0.6330 -0.0848
  513MOL0     H67665   3.122   4.707   8.463 -0.0681 -0.5325 -0.2888
  513MOL0     H67666   3.239   4.602   8.391 -0.6204 -2.6592  1.4598
  513MOL0     H67667   3.129   4.571   8.681 -1.4430 -0.9181  0.3510
  513MOL0     H67668   3.262   4.475   8.628  1.1783 -0.1719 -0.9018
  513MOL0     H67669   2.888   4.526   8.587  2.9065  1.8922 -0.5548
  513MOL0     H67670   2.711   4.267   8.376  1.8990  0.1308  0.5124
  513MOL0     H67671   2.689   4.415   8.478 -0.2441 -0.1916  0.4837
  513MOL0     H67672   2.664   4.288   8.669  1.3217 -0.6238 -0.7983
  513MOL0     H67673   2.776   4.164   8.609  0.2794 -0.2506 -0.1476
  513MOL0     H67674   2.489   4.222   8.520  0.6835  0.4443  1.6798
  513MOL0     H67675   2.597   4.092   8.464 -2.4303 -2.4706  0.8107
  513MOL0     H67676   2.619   4.022   8.703  1.6809  2.4141 -2.0749
  513MOL0     H67677   2.466   3.985   8.624  1.9332 -0.0217 -0.6121
  513MOL0     H67678   2.327   4.228   8.974 -0.3740 -3.5775  1.5434
  513MOL0     H67679   2.075   4.276   8.998  0.5784 -0.3730 -0.1627
  513MOL0     H67680   1.639   4.328   8.759 -0.7042 -4.6431  1.1292
  513MOL0     H67681   1.469   4.487   8.817  0.7750  1.6427  0.2168
  513MOL0     H67682   1.251   4.459   8.942  1.1055 -1.0232 -0.3901
  513MOL0     H67683   1.291   4.634   8.930  0.7232  0.4762  1.2985
  513MOL0     H67684   1.111   4.482   9.122  2.8009 -0.9851 -0.8942
  513MOL0     H67685   1.060   4.613   9.007 -0.0441 -0.5280 -0.8147
  513MOL0     H67686   1.179   4.766   9.160  0.1183 -0.6309 -0.0852
  513MOL0     H67687   1.239   4.634   9.256 -1.2637  0.1925  1.8776
  513MOL0     H67688   0.940   4.726   9.207  1.4620 -1.1125 -1.6054
  513MOL0     H67689   0.989   4.586   9.306 -0.4954 -0.0843  0.7281
  513MOL0     H67690   1.121   4.845   9.383  3.5243 -1.5059  1.5890
  513MOL0     H67691   1.113   4.697   9.463  1.0723 -0.9470 -0.9955
  513MOL0     H67692   0.849   4.763   9.506 -1.3087  1.2208 -0.1786
  513MOL0     H67693   0.885   4.902   9.404  1.0531 -1.4604 -2.8940
  513MOL0     H67694   0.987   4.817   9.670  0.9237 -2.2223 -1.8460
  513MOL0     H67695   1.075   4.946   9.586  0.7647 -0.7761  2.3053
  513MOL0     H67696   0.869   5.091   9.591  2.6946  0.2559 -0.5793
  513MOL0     H67697   0.904   5.050   9.767 -1.0143 -0.7444  0.8330
  513MOL0     H67698   1.545   4.411   9.243 -1.3638  1.1599  0.0416
  513MOL0     H67699   1.751   4.283   9.171  0.9604 -0.6687 -1.0040
  513MOL0     H67700   2.013   4.103   8.610  1.2136  2.3576 -0.2341
  513MOL0     H67701   2.266   4.072   8.572 -0.9946  0.4856  0.0516
  513MOL0     H67702   3.964   5.361   8.374  3.1674 -1.6131  3.1774
  513MOL0     H67703   4.116   5.441   8.197  0.0930 -1.1802  2.0453
  513MOL0     H67704   4.071   5.350   7.637  0.9444 -1.3669 -0.5598
  513MOL0     H67705   4.193   5.448   7.467 -0.3313 -1.0537  0.5939
  513MOL0     H67706   4.635   5.425   7.498  0.5903 -0.7613 -0.4883
  513MOL0     H67707   4.596   5.595   7.566 -0.9795  0.3464 -1.1237
  513MOL0     H67708   4.604   5.509   7.279  0.9535 -2.2471  1.2306
  513MOL0     H67709   4.569   5.674   7.333 -1.4897 -0.4975 -0.6939
  513MOL0     H67710   4.831   5.517   7.339 -1.1678 -1.8667  2.4094
  513MOL0     H67711   4.810   5.666   7.437  0.6504  0.5384 -0.5043
  513MOL0     H67712   4.798   5.652   7.126 -1.6728 -3.8798  1.6945
  513MOL0     H67713   4.783   5.797   7.230 -0.3145  0.2684  0.2999
  513MOL0     H67714   5.183   5.783   7.293 -0.0377 -0.7684  4.1910
  513MOL0     H67715   4.559   5.405   7.705  0.4256 -0.5878  1.0034
  513MOL0     H67716   4.409   5.295   7.887 -3.1288 -2.5925  0.7178
  514MOL0     O67717  10.402   2.180   9.805  0.1788 -0.9705 -0.5570
  514MOL0     C67718  10.428   2.102   9.718 -0.0507 -0.4120 -0.5311
  514MOL0     O67719  10.341   2.055   9.621  0.1015  0.3375  0.0518
  514MOL0     C67720  10.211   2.084   9.630 -0.0743  0.3426  0.0248
  514MOL0     C67721  10.149   2.210   9.606  0.7902 -0.0964 -0.8019
  514MOL0     C67722  10.010   2.222   9.601  1.2024  0.0364  0.6481
  514MOL0     C67723   9.922   2.120   9.625 -0.0596  0.0735  0.7399
  514MOL0     O67724   9.783   2.137   9.617  0.2469 -0.4297  0.0110
  514MOL0     C67725   9.724   2.255   9.559  0.7119 -0.4512  0.0295
  514MOL0     C67726   9.733   2.287   9.407 -0.3802  0.2508  0.0573
  514MOL0     C67727   9.703   2.434   9.380 -0.3692 -0.4126  0.2400
  514MOL0     C67728   9.552   2.470   9.397  0.0622 -1.5038 -0.3422
  514MOL0     C67729   9.517   2.618   9.381 -0.3265  0.0889  0.1533
  514MOL0     C67730   9.601   2.717   9.469 -0.0759  0.3926  0.0528
  514MOL0     C67731   9.623   2.669   9.617  0.7250  0.1387 -0.0081
  514MOL0     C67732   9.694   2.778   9.702 -0.3227  0.2067  0.4102
  514MOL0     N67733   9.837   2.764   9.699 -0.7931  0.1144  0.2265
  514MOL0     C67734   9.922   2.708   9.797 -1.2502  0.5669 -0.0823
  514MOL0     C67735  10.046   2.744   9.765  0.1570 -0.6049 -0.0572
  514MOL0     C67736  10.177   2.711   9.831  1.0627  0.2990 -0.9175
  514MOL0     C67737  10.282   2.645   9.739 -1.0087 -0.4691 -0.7362
  514MOL0     C67738  10.409   2.597   9.818  0.1061  1.1147 -0.9874
  514MOL0     C67739  10.505   2.535   9.720 -0.4029 -0.0768  0.5793
  514MOL0     O67740  10.615   2.490   9.798  0.4608  0.0419  0.1698
  514MOL0     C67741  10.722   2.433   9.740  0.5753 -0.3833 -0.6560
  514MOL0     C67742  10.723   2.356   9.626 -0.6621  0.1676 -0.0790
  514MOL0     C67743  10.837   2.288   9.574 -0.8467 -0.0639 -0.0482
  514MOL0     C67744  10.963   2.317   9.632 -1.0370 -1.2424  0.8695
  514MOL0     C67745  11.090   2.272   9.572 -0.7697  0.5022  0.1339
  514MOL0     O67746  11.218   2.295   9.644  0.3516 -0.0466  0.2385
  514MOL0     C67747  11.327   2.247   9.584 -0.0995 -0.4642  0.1797
  514MOL0     C67748  11.406   2.157   9.663  0.0032  0.0442 -0.3375
  514MOL0     C67749  11.517   2.095   9.607  0.7993  0.3377  0.2617
  514MOL0     C67750  11.549   2.112   9.469  0.1135 -0.6516  0.9304
  514MOL0     O67751  11.656   2.043   9.414  0.8943 -0.2132 -0.0236
  514MOL0     C67752  11.771   2.004   9.490  1.3429 -0.2111  0.4394
  514MOL0     C67753  11.860   1.929   9.395  0.4150  0.0493  0.2406
  514MOL0     C67754  11.797   1.806   9.329 -0.4751  0.3499 -0.0951
  514MOL0     C67755  11.736   1.702   9.421 -0.5823  0.0974  0.0236
  514MOL0     C67756  11.645   1.600   9.342 -0.9401 -0.6270  0.1583
  514MOL0     C67757  11.606   1.478   9.429  0.1581 -0.1317  0.3195
  514MOL0     C67758  11.532   1.510   9.555  0.1959 -0.4594  1.2452
  514MOL0     C67759  11.500   1.380   9.623  0.3357  0.7690  0.4479
  514MOL0    Cl67760  11.342   1.310   9.566  0.0467 -0.3097 -0.4419
  514MOL0     C67761  11.471   2.204   9.399 -0.4392 -0.2843  1.3405
  514MOL0     C67762  11.360   2.273   9.450  0.0104  0.5229 -0.0434
  514MOL0     O67763  11.074   2.195   9.475 -0.0813  0.1219  0.2137
  514MOL0     C67764  10.962   2.406   9.740 -0.3515  0.5090 -0.5242
  514MOL0     C67765  10.845   2.462   9.796  0.6049  0.9731 -0.1057
  514MOL0     N67766  10.041   2.819   9.649 -0.0980 -0.1958 -0.1131
  514MOL0     N67767   9.916   2.815   9.606 -0.5471 -0.7181 -0.1896
  514MOL0     C67768   9.988   1.997   9.653 -0.7772  0.0040  0.2832
  514MOL0     C67769  10.122   1.977   9.648 -0.6365 -0.3458  0.8963
  514MOL0     C67770  10.568   2.052   9.703 -0.3481  0.2226  0.2937
  514MOL0     C67771  10.611   1.987   9.587  0.0957  1.0533  0.1596
  514MOL0     C67772  10.741   1.927   9.576  0.9665 -0.2948 -0.1586
  514MOL0     C67773  10.843   1.942   9.674 -0.6847 -0.7976 -0.4192
  514MOL0     O67774  10.975   1.891   9.675 -0.0521  0.3143 -0.3433
  514MOL0     C67775  11.034   1.833   9.552 -0.6165  0.4750 -0.1678
  514MOL0     C67776  11.000   1.684   9.548 -0.6640 -0.2025 -0.0792
  514MOL0     C67777  11.065   1.603   9.432  0.6714  0.5446  0.0456
  514MOL0     C67778  11.076   1.695   9.309  0.7725  0.1741 -0.0465
  514MOL0     C67779  11.124   1.616   9.203 -0.1943  0.7007  0.6946
  514MOL0     C67780  11.179   1.546   9.116  0.4032 -0.5132 -0.4336
  514MOL0     C67781  10.805   2.026   9.782  0.5935 -0.8466 -0.1144
  514MOL0     C67782  10.671   2.070   9.797 -0.1489 -0.3769  0.1387
  514MOL0     H67783  10.214   2.293   9.582  0.3206  0.5756  0.2078
  514MOL0     H67784   9.964   2.317   9.576 -0.7132 -0.6584  1.3911
  514MOL0     H67785   9.759   2.346   9.609 -0.3517  0.0663 -0.1342
  514MOL0     H67786   9.615   2.254   9.561  0.5180 -0.5384 -3.6319
  514MOL0     H67787   9.678   2.219   9.341 -0.3238 -0.3804  0.6560
  514MOL0     H67788   9.836   2.280   9.372 -0.6575  0.1452 -0.7585
  514MOL0     H67789   9.729   2.446   9.274  1.2155 -0.5269  0.5924
  514MOL0     H67790   9.771   2.505   9.427 -1.6741  3.6447 -3.3928
  514MOL0     H67791   9.494   2.426   9.315 -3.0696  0.5358  0.5942
  514MOL0     H67792   9.514   2.432   9.492 -2.8324  0.4348 -0.5972
  514MOL0     H67793   9.413   2.635   9.410 -0.3032  1.8664 -0.6834
  514MOL0     H67794   9.534   2.641   9.276 -0.2071 -2.4665 -0.4649
  514MOL0     H67795   9.548   2.812   9.470  2.3015  1.7833  0.9586
  514MOL0     H67796   9.701   2.723   9.423 -0.1766  0.7400 -0.1257
  514MOL0     H67797   9.533   2.624   9.660 -0.0668  0.4286 -1.2768
  514MOL0     H67798   9.688   2.583   9.633 -0.4680 -0.4863  1.8309
  514MOL0     H67799   9.676   2.762   9.809 -0.6849  0.1269  0.3403
  514MOL0     H67800   9.671   2.881   9.674  2.0554  0.9947  1.1485
  514MOL0     H67801   9.898   2.666   9.894 -2.0961  2.8758  0.7940
  514MOL0     H67802  10.162   2.654   9.922  1.5889 -0.7813 -1.4900
  514MOL0     H67803  10.214   2.811   9.855 -1.0417  1.1043 -0.7631
  514MOL0     H67804  10.308   2.729   9.675 -1.2805  0.7063  0.6365
  514MOL0     H67805  10.233   2.566   9.681  1.5838 -1.9659 -1.0444
  514MOL0     H67806  10.456   2.684   9.865  0.9039  0.1666  0.0181
  514MOL0     H67807  10.369   2.521   9.885  3.1885 -1.4765 -1.8640
  514MOL0     H67808  10.534   2.609   9.644 -1.4291 -1.0687 -0.8430
  514MOL0     H67809  10.464   2.449   9.665  0.1508 -0.1760  0.3183
  514MOL0     H67810  10.633   2.334   9.569  1.0133  2.8621 -4.2705
  514MOL0     H67811  10.834   2.220   9.489 -1.1832  0.6213 -0.5889
  514MOL0     H67812  11.373   2.142   9.766  1.3670  0.4385  0.1819
  514MOL0     H67813  11.574   2.039   9.679  0.9620 -1.1865 -0.9974
  514MOL0     H67814  11.735   1.937   9.569 -0.8459 -0.5555 -0.7552
  514MOL0     H67815  11.816   2.099   9.520  0.8654  0.3033 -0.4225
  514MOL0     H67816  11.953   1.903   9.445  0.2642 -1.0056  0.0121
  514MOL0     H67817  11.884   2.004   9.319  0.1040 -1.0909 -1.0462
  514MOL0     H67818  11.871   1.762   9.262  3.2048  1.0936  3.0886
  514MOL0     H67819  11.719   1.850   9.266 -2.0241 -0.3088  1.2846
  514MOL0     H67820  11.818   1.643   9.465 -1.9852 -1.3165  0.8450
  514MOL0     H67821  11.682   1.740   9.508 -1.3674  0.3526 -0.5636
  514MOL0     H67822  11.701   1.571   9.253  2.5732  0.7799  1.7322
  514MOL0     H67823  11.556   1.656   9.310  0.2200  0.9391 -0.4790
  514MOL0     H67824  11.696   1.422   9.455 -0.1751 -1.0330 -0.4207
  514MOL0     H67825  11.548   1.406   9.371 -0.6499  0.7555 -0.0077
  514MOL0     H67826  11.595   1.575   9.617 -1.5675  1.8892  0.7408
  514MOL0     H67827  11.437   1.562   9.535  1.3540  1.4474  0.4287
  514MOL0     H67828  11.476   1.412   9.725  0.8527  2.6012  0.0416
  514MOL0     H67829  11.577   1.303   9.621 -1.6270 -1.2963  0.1951
  514MOL0     H67830  11.497   2.227   9.296 -1.0368  3.8048  1.9398
  514MOL0     H67831  11.323   2.354   9.387 -2.6142 -1.5127 -1.2832
  514MOL0     H67832  11.060   2.441   9.770 -1.4899  1.5739  2.2980
  514MOL0     H67833  10.851   2.521   9.887 -0.7485 -2.5812  2.5255
  514MOL0     H67834   9.929   1.909   9.674  1.4889 -1.2282  1.9255
  514MOL0     H67835  10.161   1.878   9.671 -1.5078 -0.7319  0.7824
  514MOL0     H67836  10.537   1.965   9.511  0.7201 -3.5272  0.5560
  514MOL0     H67837  10.764   1.870   9.487  5.9091  0.9493  0.0350
  514MOL0     H67838  11.143   1.848   9.547 -0.5218 -0.5301 -1.5838
  514MOL0     H67839  10.989   1.872   9.460 -3.8369 -2.0607  0.1771
  514MOL0     H67840  11.022   1.637   9.645  2.4539  0.1681 -0.5248
  514MOL0     H67841  10.891   1.683   9.539 -0.9582 -0.2380  2.5604
  514MOL0     H67842  10.991   1.524   9.413 -0.8980  2.5393 -3.0086
  514MOL0     H67843  11.160   1.565   9.472  0.8514  0.3642 -0.5397
  514MOL0     H67844  10.982   1.745   9.286  0.3745  0.6159  2.2350
  514MOL0     H67845  11.152   1.770   9.335  2.5233 -1.2411 -0.8527
  514MOL0     H67846  11.228   1.484   9.044  1.6853  0.7661 -0.7322
  514MOL0     H67847  10.879   2.052   9.857  0.5538 -1.6302  0.2050
  514MOL0     H67848  10.638   2.118   9.889 -1.6176 -0.5350 -0.2742
  515MOL0     O67849  10.995   4.040   1.740  0.9637  0.1331 -0.0010
  515MOL0     C67850  10.993   4.145   1.678  0.4185  0.0789  0.0087
  515MOL0     O67851  10.901   4.246   1.685  1.0020 -0.1189  0.2482
  515MOL0     C67852  10.764   4.217   1.684  0.3068  0.0223  1.6962
  515MOL0     C67853  10.675   4.328   1.701  0.5660 -0.3593  0.4101
  515MOL0     C67854  10.536   4.309   1.689 -0.7258 -0.3070  0.3610
  515MOL0     C67855  10.484   4.185   1.670 -0.5169  0.0406  0.2526
  515MOL0     O67856  10.345   4.167   1.669  0.4519 -0.4071 -1.0692
  515MOL0     C67857  10.287   4.036   1.693 -0.9987 -0.8045 -0.1178
  515MOL0     C67858  10.166   4.057   1.779 -0.8135  0.6347 -0.4295
  515MOL0     C67859  10.045   4.098   1.705 -0.1684  0.0868 -0.2632
  515MOL0     C67860   9.926   4.094   1.810  0.4480 -0.4444  0.2151
  515MOL0     C67861   9.787   4.074   1.744 -0.4555 -0.4678  0.5033
  515MOL0     C67862   9.683   4.039   1.854  0.2370 -0.6034 -0.2017
  515MOL0     C67863   9.530   4.041   1.826  0.5848  0.1230  0.5777
  515MOL0     C67864   9.477   4.172   1.763 -0.1084 -0.0910 -0.7773
  515MOL0     N67865   9.340   4.147   1.712 -0.0045 -0.3754  0.9892
  515MOL0     C67866   9.224   4.140   1.783 -0.2796  0.7522  0.1554
  515MOL0     C67867   9.121   4.147   1.691 -0.7218  0.5600  1.3012
  515MOL0     C67868   8.981   4.128   1.719 -0.6063  1.4501  0.4159
  515MOL0     C67869   8.897   4.251   1.745  0.5697  0.5998  0.2943
  515MOL0     C67870   8.861   4.332   1.622  0.2743  0.2946 -0.3236
  515MOL0     C67871   8.747   4.438   1.652  0.8643  0.2554 -0.7428
  515MOL0     O67872   8.634   4.375   1.714 -0.9986  0.2107  0.2620
  515MOL0     C67873   8.516   4.434   1.682 -0.5911  0.1299 -0.7644
  515MOL0     C67874   8.441   4.389   1.576  0.7772  0.7049  0.0790
  515MOL0     C67875   8.315   4.437   1.543  0.6741  0.3894  0.2756
  515MOL0     C67876   8.256   4.540   1.626 -0.5854  1.0115  0.5950
  515MOL0     C67877   8.122   4.590   1.607  1.1745 -0.0883 -0.2624
  515MOL0     O67878   8.097   4.733   1.620 -0.6420  0.4021  0.5399
  515MOL0     C67879   7.974   4.779   1.567 -0.2823  0.0058 -0.4028
  515MOL0     C67880   7.888   4.864   1.640  0.1997  0.7142 -1.1682
  515MOL0     C67881   7.769   4.904   1.574  0.2699  0.2626  0.0212
  515MOL0     C67882   7.734   4.866   1.441 -0.3943  0.2401 -0.1805
  515MOL0     O67883   7.605   4.893   1.398  0.0012 -0.1084 -0.0295
  515MOL0     C67884   7.586   4.931   1.261 -0.1567  1.3372  0.1638
  515MOL0     C67885   7.476   5.037   1.235  0.5614  0.6355 -0.0673
  515MOL0     C67886   7.340   4.993   1.277  0.2461 -0.1058 -0.6575
  515MOL0     C67887   7.232   5.076   1.217  0.3033 -0.5618  0.2776
  515MOL0     C67888   7.104   4.995   1.197  0.4669  1.1059 -0.3460
  515MOL0     C67889   6.977   5.072   1.142 -0.0019  0.1524 -0.4576
  515MOL0     C67890   6.936   5.192   1.222 -0.5686  0.4451 -0.6088
  515MOL0     C67891   6.875   5.152   1.356  0.3187  0.3352  0.2433
  515MOL0    Cl67892   6.897   5.271   1.487  0.2135  0.1281 -0.3178
  515MOL0     C67893   7.823   4.784   1.376  0.1264 -1.4318 -0.4033
  515MOL0     C67894   7.946   4.748   1.428 -1.2582 -0.3607 -0.6063
  515MOL0     O67895   8.036   4.511   1.558  0.5752  0.2079 -1.0549
  515MOL0     C67896   8.333   4.583   1.737 -0.0743 -0.4608  0.1327
  515MOL0     C67897   8.463   4.535   1.762 -0.4793  0.6823  0.3352
  515MOL0     N67898   9.178   4.178   1.564  0.6562 -0.0016 -0.5760
  515MOL0     N67899   9.308   4.182   1.584  0.5501  0.0694 -0.2680
  515MOL0     C67900  10.577   4.076   1.650 -0.1506 -0.2316  0.1348
  515MOL0     C67901  10.715   4.090   1.662 -0.0179  0.5324  0.4733
  515MOL0     C67902  11.114   4.182   1.598  0.0231 -1.4853  0.1790
  515MOL0     C67903  11.231   4.106   1.595  0.3459  0.1487 -0.4733
  515MOL0     C67904  11.348   4.153   1.541  0.6338 -0.4119 -0.1961
  515MOL0     C67905  11.352   4.276   1.470 -0.4241  0.6789 -0.2152
  515MOL0     O67906  11.471   4.312   1.403  0.6056  0.4142 -0.1271
  515MOL0     C67907  11.554   4.206   1.353 -0.0064 -0.5413  0.4596
  515MOL0     C67908  11.644   4.260   1.240  0.2472  0.1405 -0.1492
  515MOL0     C67909  11.556   4.311   1.124  0.4716 -0.6361  0.6539
  515MOL0     C67910  11.645   4.352   1.002 -0.3546  0.0675 -0.4286
  515MOL0     C67911  11.730   4.472   1.014 -0.3541  0.0140  0.5046
  515MOL0     C67912  11.798   4.573   1.026 -0.2743 -0.0531  1.0233
  515MOL0     C67913  11.236   4.354   1.474  0.1453 -0.7036 -1.2739
  515MOL0     C67914  11.116   4.301   1.529 -0.5487 -1.1607 -0.3009
  515MOL0     H67915  10.709   4.429   1.722  2.0762 -0.2464 -2.1881
  515MOL0     H67916  10.470   4.393   1.710  1.6062  1.9308 -0.6241
  515MOL0     H67917  10.348   3.959   1.742  0.4661  1.1759  1.3466
  515MOL0     H67918  10.272   4.000   1.590 -0.2404 -1.0932 -0.1373
  515MOL0     H67919  10.194   4.121   1.863 -0.6939  0.2104 -0.1428
  515MOL0     H67920  10.137   3.966   1.833  1.6499  0.6634  1.0940
  515MOL0     H67921  10.032   4.021   1.629 -3.3588 -0.1673  0.3796
  515MOL0     H67922  10.056   4.197   1.659  1.1382  0.2005  0.2646
  515MOL0     H67923   9.943   4.027   1.894  0.8291 -0.0691  0.4412
  515MOL0     H67924   9.925   4.192   1.858 -1.6181 -0.1732 -0.2491
  515MOL0     H67925   9.789   3.988   1.676  1.8360  0.0354 -0.1608
  515MOL0     H67926   9.769   4.166   1.687  1.8316  0.4795  1.1797
  515MOL0     H67927   9.702   4.114   1.931 -1.8322 -0.3138  0.0820
  515MOL0     H67928   9.714   3.940   1.888  3.2419 -1.3737 -4.3470
  515MOL0     H67929   9.495   3.962   1.758 -1.2671  2.7775 -1.8305
  515MOL0     H67930   9.475   4.032   1.920 -0.5146 -0.1378 -0.0718
  515MOL0     H67931   9.550   4.208   1.690  0.6617 -1.1215 -0.5423
  515MOL0     H67932   9.463   4.247   1.841  0.4032  1.6718 -2.3207
  515MOL0     H67933   9.246   4.141   1.890 -0.5830 -2.6757  0.3644
  515MOL0     H67934   8.977   4.060   1.804 -0.3288  0.4800 -0.3226
  515MOL0     H67935   8.948   4.062   1.638  0.2385 -1.6426  2.4309
  515MOL0     H67936   8.949   4.320   1.812 -3.2040  0.4475  3.7552
  515MOL0     H67937   8.806   4.209   1.789  1.1941  0.1808  1.2220
  515MOL0     H67938   8.953   4.380   1.588  1.3859 -2.1239 -0.9280
  515MOL0     H67939   8.841   4.272   1.532  2.9449  0.4649 -1.1306
  515MOL0     H67940   8.713   4.489   1.561 -1.3734  0.6799  0.2702
  515MOL0     H67941   8.783   4.516   1.719 -2.6447 -0.9326  2.9055
  515MOL0     H67942   8.498   4.329   1.506  1.6711  2.0774 -0.4035
  515MOL0     H67943   8.271   4.399   1.451  0.1261 -0.1417  0.7460
  515MOL0     H67944   7.911   4.900   1.740 -0.0072  0.2530 -0.9541
  515MOL0     H67945   7.684   4.958   1.615 -0.8116 -1.8791  0.7583
  515MOL0     H67946   7.549   4.842   1.208  0.6931  1.3062 -0.4108
  515MOL0     H67947   7.673   4.966   1.204  2.0462 -1.6849  1.3735
  515MOL0     H67948   7.476   5.047   1.126  3.6317 -0.3771 -0.2410
  515MOL0     H67949   7.508   5.134   1.274  4.4549 -0.1920 -0.8181
  515MOL0     H67950   7.338   4.995   1.386  0.2104 -1.9140 -0.5837
  515MOL0     H67951   7.336   4.892   1.235  1.6520  0.2224 -1.6893
  515MOL0     H67952   7.211   5.161   1.283  0.1100  0.1400 -0.6663
  515MOL0     H67953   7.253   5.115   1.117 -2.6940 -0.1806 -0.2992
  515MOL0     H67954   7.086   4.960   1.299  0.3935  1.7109 -0.1509
  515MOL0     H67955   7.120   4.907   1.133 -1.1501  0.5799 -0.0785
  515MOL0     H67956   6.891   5.005   1.129  2.2506 -2.9081 -0.5794
  515MOL0     H67957   7.007   5.104   1.042 -1.8031 -1.2263 -1.4917
  515MOL0     H67958   7.014   5.267   1.237 -0.4716 -0.1476  2.4132
  515MOL0     H67959   6.860   5.243   1.161  0.5680  2.1056 -0.6986
  515MOL0     H67960   6.924   5.057   1.378 -1.0681 -1.5384 -3.7552
  515MOL0     H67961   6.767   5.145   1.346 -0.1302  0.5080  3.7755
  515MOL0     H67962   7.796   4.738   1.281 -2.5885  0.3439 -0.5815
  515MOL0     H67963   8.016   4.690   1.369  1.7982  1.7471  0.6699
  515MOL0     H67964   8.291   4.660   1.801  0.0531 -0.0351 -0.2842
  515MOL0     H67965   8.523   4.571   1.845 -1.1169 -1.5628  1.8842
  515MOL0     H67966  10.537   3.980   1.621  0.3285 -0.1830 -0.7477
  515MOL0     H67967  10.776   4.002   1.646 -2.0417 -0.7421 -0.5392
  515MOL0     H67968  11.225   4.006   1.637  1.0938 -0.2655 -1.3158
  515MOL0     H67969  11.434   4.088   1.555 -0.2286 -1.5168  0.0853
  515MOL0     H67970  11.490   4.122   1.323 -0.9019  0.1544  0.3915
  515MOL0     H67971  11.625   4.175   1.431  1.0315 -1.6296 -0.8617
  515MOL0     H67972  11.701   4.346   1.277 -1.4829  2.1601 -1.8692
  515MOL0     H67973  11.710   4.182   1.202  3.0418  2.5136 -0.5779
  515MOL0     H67974  11.494   4.399   1.145 -0.1284 -0.4266 -1.7331
  515MOL0     H67975  11.504   4.222   1.091 -1.2647  0.6739 -0.2951
  515MOL0     H67976  11.706   4.268   0.966  0.2005  0.2438  0.0867
  515MOL0     H67977  11.576   4.373   0.921 -1.4301  0.6459  0.6108
  515MOL0     H67978  11.853   4.659   1.060  1.6213 -0.6865 -0.2501
  515MOL0     H67979  11.240   4.450   1.423  0.4190 -0.3373 -0.5672
  515MOL0     H67980  11.030   4.367   1.520  0.3086  0.2356  1.1867
  516MOL0     O67981  11.169   7.000   1.654  0.4094  0.4092  0.3289
  516MOL0     C67982  11.185   7.048   1.765 -0.2439 -0.6717 -0.2753
  516MOL0     O67983  11.105   7.145   1.828 -0.6219 -0.7585 -0.1341
  516MOL0     C67984  10.997   7.196   1.766 -0.2217  0.0339 -0.8429
  516MOL0     C67985  11.016   7.263   1.649 -0.0575 -0.0046 -0.5944
  516MOL0     C67986  10.906   7.315   1.579  0.2877 -0.4769 -0.5170
  516MOL0     C67987  10.775   7.289   1.622 -0.3622  0.5539 -0.4395
  516MOL0     O67988  10.669   7.344   1.558 -0.6823 -0.6638  0.1076
  516MOL0     C67989  10.550   7.265   1.543  0.5980  0.0676 -0.1662
  516MOL0     C67990  10.428   7.366   1.535  0.2387  0.6797 -0.5095
  516MOL0     C67991  10.294   7.283   1.562 -0.0964 -0.5885  0.4940
  516MOL0     C67992  10.272   7.174   1.465  0.8069  0.2143 -0.6961
  516MOL0     C67993  10.136   7.107   1.477 -0.2171  0.4383  0.0587
  516MOL0     C67994  10.030   7.192   1.412  0.4569 -0.6058  1.4709
  516MOL0     C67995   9.888   7.159   1.467 -0.0626 -0.0360  0.7351
  516MOL0     C67996   9.833   7.027   1.415 -0.7261 -0.1070 -0.3820
  516MOL0     N67997   9.704   6.990   1.479 -0.6105  0.4872  0.4543
  516MOL0     C67998   9.680   6.973   1.613 -0.3054  0.4935  0.4790
  516MOL0     C67999   9.546   6.962   1.630  0.9591 -0.2965  0.0699
  516MOL0     C68000   9.469   6.940   1.757  0.3057 -1.1911  0.0099
  516MOL0     C68001   9.322   6.901   1.730  0.0232 -0.2971  0.2495
  516MOL0     C68002   9.248   6.837   1.843 -0.0880  0.5439 -0.2243
  516MOL0     C68003   9.253   6.909   1.979 -1.1692  0.1888 -0.1869
  516MOL0     O68004   9.190   6.829   2.079  0.0761  0.4345  0.3830
  516MOL0     C68005   9.064   6.868   2.126 -0.5193  0.4547  1.1618
  516MOL0     C68006   8.977   6.960   2.063 -0.9007 -0.5492 -0.6324
  516MOL0     C68007   8.849   6.989   2.113  0.0028  0.1460  0.4873
  516MOL0     C68008   8.800   6.936   2.239 -0.0458 -0.4377 -0.1116
  516MOL0     C68009   8.663   6.961   2.293 -0.4967 -0.6369 -0.4618
  516MOL0     O68010   8.630   6.878   2.396  0.1152  0.0541  1.1902
  516MOL0     C68011   8.496   6.900   2.436  0.0505  1.1712 -0.1181
  516MOL0     C68012   8.388   6.830   2.378 -0.0693  0.6661  0.1054
  516MOL0     C68013   8.259   6.869   2.407 -0.2772 -0.5795 -0.2690
  516MOL0     C68014   8.236   6.981   2.490 -0.8952 -0.2723 -1.2551
  516MOL0     O68015   8.109   7.017   2.518  0.5645 -0.2324  1.2909
  516MOL0     C68016   8.060   7.076   2.639 -0.3120  0.3539 -0.7695
  516MOL0     C68017   7.913   7.067   2.656  0.7285  0.5452  0.2707
  516MOL0     C68018   7.859   6.926   2.626  0.1030  0.1741 -0.4809
  516MOL0     C68019   7.703   6.913   2.612  0.6588  0.2124 -0.2662
  516MOL0     C68020   7.630   6.955   2.747  0.1465 -0.5992  0.0694
  516MOL0     C68021   7.498   6.879   2.759 -0.3654 -0.5247  0.0305
  516MOL0     C68022   7.397   6.932   2.644  0.2205  0.0436  0.6487
  516MOL0     C68023   7.248   6.894   2.658  0.2384 -0.1272 -1.0718
  516MOL0    Cl68024   7.170   6.961   2.800 -0.2767 -0.0006 -0.2805
  516MOL0     C68025   8.343   7.053   2.549 -0.5351  0.3548  0.2027
  516MOL0     C68026   8.468   7.011   2.521 -0.1292  0.5415  0.0582
  516MOL0     O68027   8.592   7.049   2.241  0.3011  0.1469  0.1351
  516MOL0     C68028   8.889   6.837   2.291 -0.2840 -0.5424 -0.7688
  516MOL0     C68029   9.017   6.807   2.238 -0.1803  0.0419  0.2166
  516MOL0     N68030   9.486   6.986   1.507 -0.3911  0.4509  0.1182
  516MOL0     N68031   9.585   7.005   1.423  0.3031 -0.0366 -1.0834
  516MOL0     C68032  10.751   7.237   1.748  0.3401  0.1542 -0.0016
  516MOL0     C68033  10.868   7.191   1.820 -0.0701  0.6016  0.4473
  516MOL0     C68034  11.306   7.020   1.846  0.1229 -0.3278 -0.0218
  516MOL0     C68035  11.398   6.928   1.787 -1.1742  0.2416 -0.5520
  516MOL0     C68036  11.524   6.900   1.844  0.3155  0.3808 -0.7602
  516MOL0     C68037  11.555   6.959   1.958  0.2895  0.9471  0.1390
  516MOL0     O68038  11.684   6.915   2.013  0.8425  0.1268  0.8141
  516MOL0     C68039  11.726   6.956   2.144 -0.0643 -0.4119  0.2581
  516MOL0     C68040  11.841   7.052   2.122  0.0215  1.5226 -0.7314
  516MOL0     C68041  11.893   7.104   2.261 -0.3053  0.8213 -0.7826
  516MOL0     C68042  11.927   6.993   2.363 -0.1334  0.7130  0.2492
  516MOL0     C68043  12.020   6.895   2.302  0.1595 -0.2295 -0.3685
  516MOL0     C68044  12.083   6.802   2.266 -0.1359 -0.5352 -0.2513
  516MOL0     C68045  11.473   7.058   2.013  0.1019 -0.5062  0.3035
  516MOL0     C68046  11.346   7.090   1.964  0.1275  0.5505 -0.2153
  516MOL0     H68047  11.115   7.283   1.610 -0.6012 -0.8670 -2.5309
  516MOL0     H68048  10.917   7.370   1.486 -1.7558  0.0498 -0.4941
  516MOL0     H68049  10.533   7.192   1.623 -0.9524  1.8680  1.2268
  516MOL0     H68050  10.546   7.209   1.449  1.5027  0.7992 -0.6526
  516MOL0     H68051  10.426   7.411   1.435 -1.4941 -0.4641 -1.0423
  516MOL0     H68052  10.426   7.446   1.609 -1.1622 -0.3051  0.5575
  516MOL0     H68053  10.205   7.347   1.554 -3.0377 -4.4840 -1.6290
  516MOL0     H68054  10.292   7.248   1.666  1.1939  2.5745  1.6913
  516MOL0     H68055  10.270   7.217   1.364  1.3864  2.8132  0.3187
  516MOL0     H68056  10.358   7.106   1.476  0.1545 -0.4251  0.5975
  516MOL0     H68057  10.107   7.098   1.582 -1.5411 -2.3019 -0.4567
  516MOL0     H68058  10.130   7.006   1.436 -0.2705  1.6078 -3.1863
  516MOL0     H68059  10.026   7.168   1.306  3.8672 -0.2623  1.1612
  516MOL0     H68060  10.046   7.300   1.420  1.9355 -0.4150 -2.1910
  516MOL0     H68061   9.895   7.153   1.576  2.6745 -2.6695  0.5506
  516MOL0     H68062   9.814   7.239   1.454 -1.4541 -1.6417 -1.9840
  516MOL0     H68063   9.886   6.934   1.438 -1.4341  0.0329  2.1818
  516MOL0     H68064   9.811   7.023   1.308  1.2771 -3.4976 -0.8197
  516MOL0     H68065   9.755   6.964   1.691  3.0362  0.5402 -2.5238
  516MOL0     H68066   9.459   7.035   1.809 -2.2966 -0.9655 -0.7424
  516MOL0     H68067   9.520   6.873   1.827 -0.1132 -0.8308  0.6675
  516MOL0     H68068   9.331   6.826   1.651 -0.6222  1.6232 -1.7217
  516MOL0     H68069   9.268   6.983   1.684  0.5419  0.2486  0.5977
  516MOL0     H68070   9.141   6.837   1.818  0.2577  0.2852 -1.8269
  516MOL0     H68071   9.275   6.731   1.839  0.1876  0.5909 -4.3464
  516MOL0     H68072   9.218   7.012   1.969  2.0365  1.6939  2.2197
  516MOL0     H68073   9.357   6.923   2.009 -0.5979  0.4136 -2.1320
  516MOL0     H68074   8.983   7.005   1.965 -0.9338 -0.6222 -0.6684
  516MOL0     H68075   8.794   7.068   2.063 -0.2315 -0.6028 -0.4555
  516MOL0     H68076   8.399   6.744   2.311 -2.0211  0.4374  0.0221
  516MOL0     H68077   8.171   6.811   2.384  0.2693 -2.0394  1.1647
  516MOL0     H68078   8.080   7.183   2.637  1.2285  0.2061  2.0452
  516MOL0     H68079   8.102   7.034   2.732 -1.2798  0.2709 -0.3534
  516MOL0     H68080   7.865   7.147   2.597 -1.2249  0.0896  1.1550
  516MOL0     H68081   7.877   7.092   2.756 -1.4664  0.9157 -0.5497
  516MOL0     H68082   7.885   6.863   2.712  0.6947 -0.0773 -0.8419
  516MOL0     H68083   7.903   6.884   2.536  1.2199  1.5630 -0.6178
  516MOL0     H68084   7.668   6.959   2.520 -1.5535  3.3263  1.9084
  516MOL0     H68085   7.686   6.806   2.598  1.0401  0.2498 -1.0372
  516MOL0     H68086   7.630   7.065   2.752  0.9057 -0.5918 -0.0315
  516MOL0     H68087   7.674   6.932   2.844  0.3112 -1.4526 -0.2039
  516MOL0     H68088   7.456   6.890   2.860 -1.0594 -1.0013 -0.1979
  516MOL0     H68089   7.513   6.774   2.732 -0.3940 -0.3770 -0.5669
  516MOL0     H68090   7.407   7.041   2.636 -1.1793  0.1017 -0.7194
  516MOL0     H68091   7.432   6.898   2.547  0.8231 -1.3840  1.3359
  516MOL0     H68092   7.238   6.786   2.664 -0.7215  0.0377  1.2150
  516MOL0     H68093   7.196   6.919   2.565 -0.4832 -1.9026 -1.1831
  516MOL0     H68094   8.328   7.144   2.605 -0.2665  0.9007 -0.5993
  516MOL0     H68095   8.548   7.070   2.566  0.0264  1.6451 -1.5694
  516MOL0     H68096   8.856   6.784   2.380  1.4987 -1.1028 -0.4188
  516MOL0     H68097   9.074   6.727   2.284 -0.0380 -0.3267 -0.5979
  516MOL0     H68098  10.652   7.223   1.788  0.3679  1.2121  0.4684
  516MOL0     H68099  10.857   7.155   1.922 -0.7538  0.0493  0.1973
  516MOL0     H68100  11.383   6.877   1.693 -2.6122  2.2925 -1.5063
  516MOL0     H68101  11.590   6.819   1.815  0.9093  1.0397 -1.2908
  516MOL0     H68102  11.764   6.868   2.196  1.6740 -0.0504 -0.3399
  516MOL0     H68103  11.644   6.998   2.203  1.6629  1.4000  1.4878
  516MOL0     H68104  11.914   6.989   2.070 -1.8564 -0.8873 -0.6173
  516MOL0     H68105  11.816   7.137   2.059 -1.4272  0.7455 -1.2345
  516MOL0     H68106  11.818   7.170   2.305 -2.1314 -1.6554  0.0792
  516MOL0     H68107  11.990   7.150   2.239 -1.6334  3.4584 -1.4991
  516MOL0     H68108  11.965   7.036   2.456 -0.4140  1.7851 -0.1193
  516MOL0     H68109  11.831   6.950   2.394  1.1334 -0.1033  3.4455
  516MOL0     H68110  12.145   6.718   2.246  0.1470 -0.9579  2.0788
  516MOL0     H68111  11.515   7.112   2.098 -0.7811  0.2277  0.2906
  516MOL0     H68112  11.276   7.158   2.013 -1.2407 -1.8200  1.3367
  517MOL0     O68113  10.742   4.225   2.900  0.2158  0.5430 -0.6764
  517MOL0     C68114  10.705   4.264   2.783 -0.0938 -0.3999 -0.0818
  517MOL0     O68115  10.602   4.345   2.753 -0.0430  0.0730  0.1036
  517MOL0     C68116  10.515   4.370   2.858  0.4304 -0.5164 -0.0874
  517MOL0     C68117  10.554   4.434   2.980  0.7300  0.5120  0.3828
  517MOL0     C68118  10.461   4.462   3.080 -0.8411  0.3587 -0.8020
  517MOL0     C68119  10.326   4.436   3.058 -0.2184  0.3743 -0.4854
  517MOL0     O68120  10.237   4.444   3.164  0.7705 -0.5331 -0.0647
  517MOL0     C68121  10.107   4.501   3.151 -0.3952  0.6979 -0.6772
  517MOL0     C68122  10.011   4.434   3.255 -0.9024  0.1859  0.0525
  517MOL0     C68123   9.870   4.488   3.247  0.0789 -0.6339  1.0702
  517MOL0     C68124   9.797   4.429   3.370 -0.2926 -0.0976  0.3951
  517MOL0     C68125   9.645   4.469   3.345 -0.3868 -0.2760 -0.1329
  517MOL0     C68126   9.556   4.414   3.462 -0.2245 -0.1840  0.3825
  517MOL0     C68127   9.411   4.387   3.406  0.2024 -0.1932 -0.4686
  517MOL0     C68128   9.327   4.326   3.522 -0.0958  0.0984 -0.2037
  517MOL0     N68129   9.192   4.359   3.505  0.7295 -1.0540 -0.2863
  517MOL0     C68130   9.132   4.480   3.523  0.1563 -0.2139 -0.0941
  517MOL0     C68131   9.005   4.467   3.475 -0.1209  0.1137  0.1597
  517MOL0     C68132   8.913   4.585   3.465 -0.4366 -0.5179  0.5607
  517MOL0     C68133   8.882   4.641   3.597  0.3280 -1.0908  0.4979
  517MOL0     C68134   8.748   4.604   3.662  0.6828  0.3134  0.2115
  517MOL0     C68135   8.702   4.461   3.638  0.2558  0.0774  0.0764
  517MOL0     O68136   8.597   4.449   3.730 -0.2714 -0.8034 -0.3638
  517MOL0     C68137   8.567   4.328   3.774  0.0293  0.8814  0.0385
  517MOL0     C68138   8.608   4.212   3.704 -0.3530  0.1255 -0.1821
  517MOL0     C68139   8.568   4.086   3.755 -0.2812  0.8352  0.4939
  517MOL0     C68140   8.471   4.070   3.852 -0.5955 -0.7647 -0.2457
  517MOL0     C68141   8.418   3.932   3.892 -0.2812 -1.0574 -0.0200
  517MOL0     O68142   8.378   3.911   4.024  0.0597 -0.4879 -0.2076
  517MOL0     C68143   8.294   3.797   4.047  0.4834  1.0480 -0.1755
  517MOL0     C68144   8.174   3.765   3.979  0.7696  0.5634  0.2931
  517MOL0     C68145   8.110   3.647   4.009  0.2373  0.4229 -0.1384
  517MOL0     C68146   8.167   3.553   4.099 -0.0472  0.9294  0.3220
  517MOL0     O68147   8.106   3.431   4.117 -0.5161  0.2624  0.2417
  517MOL0     C68148   7.986   3.432   4.200  0.0443 -0.7853  0.3471
  517MOL0     C68149   7.895   3.314   4.199 -0.7273 -0.6486  0.2145
  517MOL0     C68150   7.748   3.350   4.245 -0.4137  0.2546  1.1017
  517MOL0     C68151   7.664   3.222   4.231  0.2310 -1.1417 -0.0911
  517MOL0     C68152   7.710   3.111   4.337 -0.1874 -0.9839  0.3621
  517MOL0     C68153   7.720   3.169   4.479 -0.9146  0.7601 -0.3160
  517MOL0     C68154   7.772   3.060   4.570  0.0484 -0.2105 -0.4707
  517MOL0     C68155   7.815   3.114   4.705 -0.3258 -0.3884  0.0728
  517MOL0    Cl68156   7.974   3.211   4.681  0.4387  0.4335  0.0498
  517MOL0     C68157   8.287   3.572   4.153 -0.6790 -0.7862 -0.1504
  517MOL0     C68158   8.352   3.693   4.128  0.5310 -0.0766  0.5566
  517MOL0     O68159   8.416   3.845   3.806  0.1277  0.0294  0.1705
  517MOL0     C68160   8.433   4.188   3.926 -0.0185  0.9667 -0.1745
  517MOL0     C68161   8.478   4.319   3.887 -1.0569  0.4604 -0.0331
  517MOL0     N68162   8.985   4.331   3.438 -0.5374 -0.6649 -0.5629
  517MOL0     N68163   9.099   4.273   3.456 -0.2873  0.5371 -0.3477
  517MOL0     C68164  10.291   4.387   2.935  0.1190 -0.1866  0.1364
  517MOL0     C68165  10.380   4.350   2.835  1.0587  0.0161 -0.0083
  517MOL0     C68166  10.776   4.206   2.674  0.5300  0.5805 -0.4872
  517MOL0     C68167  10.747   4.245   2.540  0.5911  0.6529 -0.7575
  517MOL0     C68168  10.815   4.188   2.425  0.2123 -0.4257  0.1979
  517MOL0     C68169  10.903   4.087   2.446  0.0178  1.1630  0.6754
  517MOL0     O68170  10.951   4.019   2.335  0.2172  0.6664 -0.0394
  517MOL0     C68171  10.914   4.039   2.201 -0.6947 -0.2152  0.2381
  517MOL0     C68172  10.795   3.954   2.164 -0.1820 -0.3288  0.1526
  517MOL0     C68173  10.786   3.954   2.004 -0.2878  0.2450 -0.4220
  517MOL0     C68174  10.662   3.889   1.964 -0.1718  0.0873  0.1121
  517MOL0     C68175  10.635   3.744   1.987 -0.1472 -0.5901 -0.4306
  517MOL0     C68176  10.626   3.624   1.985  0.2420  0.2314 -0.5440
  517MOL0     C68177  10.948   4.058   2.577  1.0776 -0.3085 -0.9293
  517MOL0     C68178  10.880   4.116   2.686  0.5811  0.4970 -0.3642
  517MOL0     H68179  10.660   4.454   2.989  0.5008  1.5006  1.0108
  517MOL0     H68180  10.483   4.501   3.179 -1.8450  0.1056 -0.4697
  517MOL0     H68181  10.069   4.490   3.049 -0.8587  1.5914 -0.6126
  517MOL0     H68182  10.116   4.608   3.171 -1.4612  0.5850  0.5240
  517MOL0     H68183  10.057   4.454   3.352 -1.4251 -0.2363  0.3950
  517MOL0     H68184  10.015   4.325   3.239  0.5235 -0.2005  2.5250
  517MOL0     H68185   9.830   4.450   3.152  0.1162  0.6176  0.5391
  517MOL0     H68186   9.879   4.596   3.235  2.3306 -0.6590  2.1264
  517MOL0     H68187   9.800   4.320   3.369  3.1219 -0.1398  1.8791
  517MOL0     H68188   9.822   4.458   3.472  0.4365  0.9679 -0.0576
  517MOL0     H68189   9.616   4.430   3.247  1.5750  0.8617 -1.2261
  517MOL0     H68190   9.625   4.574   3.321 -1.6729 -0.2710  0.8168
  517MOL0     H68191   9.556   4.499   3.531  0.9842  0.3854 -0.2807
  517MOL0     H68192   9.598   4.321   3.501  0.9895  0.3165  0.3415
  517MOL0     H68193   9.369   4.480   3.367 -0.3529 -0.3577 -0.2807
  517MOL0     H68194   9.406   4.306   3.333  0.3227 -2.0625  1.4888
  517MOL0     H68195   9.358   4.359   3.621 -0.5139 -1.5248  0.5136
  517MOL0     H68196   9.341   4.217   3.519  0.4966  0.1952 -1.6135
  517MOL0     H68197   9.177   4.574   3.553  0.2130 -0.5226  0.8134
  517MOL0     H68198   8.814   4.580   3.420 -0.4728  0.9787  0.4159
  517MOL0     H68199   8.974   4.658   3.410 -1.7097 -1.7148 -2.6814
  517MOL0     H68200   8.881   4.750   3.581  1.4732 -1.0564  0.6168
  517MOL0     H68201   8.965   4.617   3.663  1.1924 -0.8290 -0.4633
  517MOL0     H68202   8.765   4.633   3.766  2.1065 -2.8787  0.9717
  517MOL0     H68203   8.670   4.673   3.628 -2.1785 -1.8620  1.9681
  517MOL0     H68204   8.793   4.404   3.656  1.1673  0.7515 -2.1341
  517MOL0     H68205   8.663   4.445   3.537  1.6876 -0.5093 -0.4139
  517MOL0     H68206   8.674   4.208   3.617 -2.1659  3.6148 -1.9342
  517MOL0     H68207   8.617   3.999   3.713  1.0151  1.6415  0.2886
  517MOL0     H68208   8.134   3.824   3.897  1.5233  1.1799  0.3609
  517MOL0     H68209   8.026   3.616   3.947 -1.0217  0.3237  1.5592
  517MOL0     H68210   7.921   3.517   4.176  1.8771  0.2559 -1.1494
  517MOL0     H68211   8.028   3.440   4.301  0.0841 -4.2932  0.7514
  517MOL0     H68212   7.941   3.244   4.269  1.2630  2.7682  2.6047
  517MOL0     H68213   7.889   3.276   4.097  1.2430  3.1769 -1.5084
  517MOL0     H68214   7.715   3.422   4.169 -1.6907 -0.7729  0.6336
  517MOL0     H68215   7.749   3.403   4.341  0.2279  0.9572  0.7117
  517MOL0     H68216   7.557   3.245   4.233 -0.1418 -2.7919  0.2271
  517MOL0     H68217   7.667   3.177   4.131 -4.2720 -2.1420  0.0139
  517MOL0     H68218   7.813   3.085   4.310  0.5202 -0.8965  2.8248
  517MOL0     H68219   7.635   3.033   4.318 -3.8206  2.6366 -1.7098
  517MOL0     H68220   7.625   3.207   4.517 -0.7110 -0.1746  1.2223
  517MOL0     H68221   7.786   3.256   4.468 -0.6325  0.3686 -1.9510
  517MOL0     H68222   7.694   2.985   4.587 -0.2973  0.3497  0.5373
  517MOL0     H68223   7.861   3.012   4.530  0.0021  1.0764 -2.2013
  517MOL0     H68224   7.826   3.024   4.767  1.1496 -0.8001 -0.7360
  517MOL0     H68225   7.744   3.174   4.763  1.2066  1.5421  0.0647
  517MOL0     H68226   8.337   3.505   4.222 -1.3002 -1.0538  0.0456
  517MOL0     H68227   8.444   3.705   4.184 -1.3643  1.0195  3.6838
  517MOL0     H68228   8.362   4.186   4.008  1.3603  2.5335  1.1462
  517MOL0     H68229   8.445   4.412   3.932  0.8045  1.1962 -0.0678
  517MOL0     H68230  10.188   4.371   2.905  0.7482 -1.1662 -1.7109
  517MOL0     H68231  10.346   4.324   2.735  0.7337  2.5532 -0.6248
  517MOL0     H68232  10.678   4.329   2.532  2.4169  2.6063  2.0205
  517MOL0     H68233  10.783   4.208   2.324  0.2585 -0.7546  0.1170
  517MOL0     H68234  10.997   4.008   2.138 -1.2845  0.5222 -0.9345
  517MOL0     H68235  10.911   4.146   2.181 -2.8458 -0.0990  0.9150
  517MOL0     H68236  10.816   3.854   2.203  1.4073  0.1201  0.5090
  517MOL0     H68237  10.716   4.010   2.216  0.9117  2.3768 -0.9116
  517MOL0     H68238  10.868   3.894   1.966  0.7390  1.1013  0.3859
  517MOL0     H68239  10.792   4.048   1.948 -2.3935 -0.4912 -2.0393
  517MOL0     H68240  10.579   3.947   2.005  1.2111  1.3703  1.2360
  517MOL0     H68241  10.647   3.898   1.856 -4.0517  0.4910  0.5536
  517MOL0     H68242  10.630   3.517   1.995 -0.6407  0.3207  1.0732
  517MOL0     H68243  11.024   3.981   2.590 -0.7514 -1.9841  0.4537
  517MOL0     H68244  10.901   4.091   2.790  2.5052  2.9335 -0.0509
  518MOL0     O68245   1.956   3.275  10.759 -0.5323 -0.1064  0.2702
  518MOL0     C68246   1.991   3.306  10.866 -0.4199 -0.3998 -0.5668
  518MOL0     O68247   1.918   3.323  10.978  0.3953  0.4286  0.0005
  518MOL0     C68248   1.776   3.311  10.982  0.2769 -0.1571 -0.2421
  518MOL0     C68249   1.688   3.362  10.885 -0.6471 -1.1750 -1.0098
  518MOL0     C68250   1.548   3.357  10.907 -0.3335  0.8050  0.1113
  518MOL0     C68251   1.490   3.290  11.017 -0.5281  0.5340  0.6103
  518MOL0     O68252   1.357   3.281  11.014 -0.1748 -0.1780  0.0178
  518MOL0     C68253   1.294   3.209  11.124 -0.3917  1.0152 -0.3266
  518MOL0     C68254   1.280   3.310  11.238 -0.0881  0.8293 -0.4078
  518MOL0     C68255   1.229   3.257  11.374  0.2011  0.3740 -0.2271
  518MOL0     C68256   1.100   3.185  11.351 -0.1590  0.1869 -0.0612
  518MOL0     C68257   1.006   3.192  11.476  0.1728  1.0667  1.1098
  518MOL0     C68258   1.058   3.123  11.603 -0.0173  0.5122 -0.2211
  518MOL0     C68259   1.167   3.196  11.683  0.8043  0.3825 -0.0708
  518MOL0     C68260   1.137   3.334  11.739  1.4020 -0.7144 -0.7439
  518MOL0     N68261   1.000   3.338  11.809 -0.2473  0.1572 -0.3136
  518MOL0     C68262   0.952   3.257  11.914  0.4854 -0.4305 -0.2394
  518MOL0     C68263   0.828   3.317  11.945 -0.4053 -0.1433 -0.1696
  518MOL0     C68264   0.729   3.256  12.043 -1.2337  0.1418 -0.1572
  518MOL0     C68265   0.761   3.288  12.186 -1.7574  0.1286  0.1921
  518MOL0     C68266   0.759   3.446  12.198  0.1561  0.7120  0.7574
  518MOL0     C68267   0.761   3.481  12.346 -0.1758 -0.0393 -1.2936
  518MOL0     O68268   0.634   3.433  12.407 -0.1466  0.3056  0.8369
  518MOL0     C68269   0.613   3.441  12.540  0.2725 -0.3011 -0.2682
  518MOL0     C68270   0.706   3.477  12.639  0.3353  0.7043 -0.6446
  518MOL0     C68271   0.672   3.468  12.778 -0.1287  0.3170  0.1465
  518MOL0     C68272   0.542   3.433  12.824  0.5938 -0.0974 -0.1078
  518MOL0     C68273   0.504   3.423  12.969 -0.5222 -0.2066 -0.6524
  518MOL0     O68274   0.589   3.473  13.067 -1.0403 -0.3709  0.0766
  518MOL0     C68275   0.549   3.459  13.195 -0.1076  0.0383 -0.6705
  518MOL0     C68276   0.421   3.499  13.236 -0.9055 -0.2283 -0.4673
  518MOL0     C68277   0.383   3.485  13.368 -0.5782  0.2752  0.9001
  518MOL0     C68278   0.469   3.436  13.463  0.4868  0.4929  0.2359
  518MOL0     O68279   0.436   3.445  13.597 -0.0362  0.0299 -0.0118
  518MOL0     C68280   0.536   3.447  13.697 -0.6486 -0.4965  0.7447
  518MOL0     C68281   0.483   3.430  13.840  0.1371  0.3283 -0.0224
  518MOL0     C68282   0.447   3.284  13.857  0.1864  0.7123 -0.2293
  518MOL0     C68283   0.362   3.253  13.982  0.3867 -0.6081  0.2143
  518MOL0     C68284   0.214   3.279  13.956 -0.1794 -0.0108 -0.7218
  518MOL0     C68285   0.129   3.333  14.074 -0.0557 -0.2665  0.5366
  518MOL0     C68286  -0.018   3.358  14.036 -0.3722  0.2362  0.3184
  518MOL0     C68287  -0.049   3.453  13.914 -1.1454  0.5642 -0.7477
  518MOL0    Cl68288   0.030   3.621  13.930  0.3613 -0.2749 -0.2769
  518MOL0     C68289   0.590   3.382  13.423 -0.1204 -0.0652  0.0838
  518MOL0     C68290   0.632   3.399  13.285  0.2106 -0.2122  0.1367
  518MOL0     O68291   0.390   3.375  12.985 -0.3670  0.5837  0.0232
  518MOL0     C68292   0.441   3.417  12.722 -0.4780  0.3300 -0.1703
  518MOL0     C68293   0.482   3.407  12.585  0.1721  0.0326 -0.2849
  518MOL0     N68294   0.813   3.425  11.859 -0.5274 -0.3798 -0.1712
  518MOL0     N68295   0.904   3.431  11.773 -0.4825  0.0067 -1.0678
  518MOL0     C68296   1.582   3.226  11.106 -0.3025  1.1058  0.3987
  518MOL0     C68297   1.722   3.243  11.095  0.6223 -0.0630  0.1377
  518MOL0     C68298   2.136   3.336  10.883  0.2005  0.1899 -0.7165
  518MOL0     C68299   2.219   3.360  10.771  0.3720  0.0420  0.7812
  518MOL0     C68300   2.350   3.397  10.791  0.5248  0.4277  0.6501
  518MOL0     C68301   2.415   3.402  10.916  0.3306 -0.6110  0.6730
  518MOL0     O68302   2.549   3.429  10.920  0.2225 -0.2886  0.2717
  518MOL0     C68303   2.611   3.431  11.047 -1.0044  0.0134  0.6211
  518MOL0     C68304   2.766   3.438  11.023  0.4327 -1.0303 -1.4809
  518MOL0     C68305   2.841   3.467  11.161  0.7286  0.3107 -0.5118
  518MOL0     C68306   2.990   3.494  11.139  0.5556 -0.5937 -0.1872
  518MOL0     C68307   3.050   3.512  11.271 -1.2397  0.2231 -0.7180
  518MOL0     C68308   3.093   3.524  11.383  0.9502  0.1271 -0.3618
  518MOL0     C68309   2.338   3.375  11.028 -0.2592 -0.3083 -0.0154
  518MOL0     C68310   2.198   3.340  11.014 -0.8090  0.7194  0.3529
  518MOL0     H68311   1.732   3.412  10.800  1.5467  2.6418  2.0149
  518MOL0     H68312   1.486   3.408  10.834 -2.1428 -0.9090  0.3697
  518MOL0     H68313   1.335   3.111  11.148  0.4871  1.3891 -0.2555
  518MOL0     H68314   1.193   3.190  11.086 -0.5480  1.2274 -0.0249
  518MOL0     H68315   1.209   3.385  11.201  0.0770  0.7353 -0.9282
  518MOL0     H68316   1.374   3.361  11.260  0.6174 -0.5510 -0.1044
  518MOL0     H68317   1.233   3.330  11.455  0.4842 -2.2852  2.3439
  518MOL0     H68318   1.298   3.179  11.409 -1.0766 -1.9693 -2.6568
  518MOL0     H68319   1.040   3.227  11.270  0.1070 -2.2161 -1.6304
  518MOL0     H68320   1.114   3.079  11.327  0.4230  1.0456 -4.3864
  518MOL0     H68321   0.915   3.138  11.450 -0.0545  1.8953  0.0961
  518MOL0     H68322   0.964   3.292  11.490  0.0181  1.4757 -1.5796
  518MOL0     H68323   1.093   3.021  11.587 -1.1342 -0.0312  0.6714
  518MOL0     H68324   0.971   3.110  11.668  0.9819  2.8705  1.7344
  518MOL0     H68325   1.190   3.131  11.768  0.0957 -5.5483 -3.7962
  518MOL0     H68326   1.262   3.199  11.630  0.0705 -1.0280 -1.5400
  518MOL0     H68327   1.143   3.408  11.659 -1.4891  0.0709 -0.3324
  518MOL0     H68328   1.206   3.374  11.815  0.4724  0.3468 -0.4330
  518MOL0     H68329   0.987   3.164  11.958 -3.6868 -3.3698 -2.3958
  518MOL0     H68330   0.722   3.147  12.037  0.7254  0.0150 -0.5926
  518MOL0     H68331   0.628   3.291  12.018 -2.0747 -1.7904  0.3053
  518MOL0     H68332   0.862   3.261  12.218 -2.8588 -0.0731  4.0222
  518MOL0     H68333   0.700   3.235  12.259  0.4707 -1.7562  0.8095
  518MOL0     H68334   0.847   3.479  12.142 -0.4047  0.2813 -0.4063
  518MOL0     H68335   0.672   3.485  12.144  0.5476  1.1352  0.4107
  518MOL0     H68336   0.766   3.589  12.362 -2.1247 -0.2187  1.1226
  518MOL0     H68337   0.848   3.430  12.389  0.5456  2.2331  0.1446
  518MOL0     H68338   0.806   3.510  12.614  1.4223  0.5926  2.9360
  518MOL0     H68339   0.751   3.474  12.852  1.0005  1.0731 -1.0669
  518MOL0     H68340   0.350   3.527  13.158 -1.4540 -3.5265 -1.3202
  518MOL0     H68341   0.281   3.508  13.398 -0.8443 -0.7385  0.8201
  518MOL0     H68342   0.571   3.550  13.691  0.2762 -0.8757 -2.4898
  518MOL0     H68343   0.608   3.369  13.673  0.0078  0.5412 -0.8555
  518MOL0     H68344   0.396   3.493  13.859 -0.3870  0.8736 -3.5122
  518MOL0     H68345   0.571   3.457  13.899 -1.2046  0.0110  2.2459
  518MOL0     H68346   0.539   3.225  13.860 -0.3679 -0.1461  0.6466
  518MOL0     H68347   0.398   3.248  13.766  4.1389 -0.5502 -2.0652
  518MOL0     H68348   0.375   3.149  14.013  1.4264 -1.4390 -2.7241
  518MOL0     H68349   0.403   3.313  14.064 -0.6448  0.6090 -0.1297
  518MOL0     H68350   0.169   3.183  13.928  0.4096  0.4142 -3.3103
  518MOL0     H68351   0.192   3.345  13.872 -1.1509  1.6698  0.7644
  518MOL0     H68352   0.163   3.426  14.121 -2.1667 -0.6489  3.0393
  518MOL0     H68353   0.137   3.264  14.158 -0.2672  1.7948  2.3394
  518MOL0     H68354  -0.058   3.258  14.020 -0.4650  0.4224 -0.6581
  518MOL0     H68355  -0.065   3.396  14.127  1.1645  2.5506  0.2465
  518MOL0     H68356  -0.158   3.446  13.915 -1.1322  0.1932  0.9550
  518MOL0     H68357  -0.007   3.407  13.824 -0.1574  1.8488 -0.9770
  518MOL0     H68358   0.667   3.334  13.483  0.1336 -1.6585 -1.4095
  518MOL0     H68359   0.725   3.352  13.255 -0.5542 -1.1718 -0.7827
  518MOL0     H68360   0.339   3.393  12.752 -0.2098 -1.2149 -0.4338
  518MOL0     H68361   0.408   3.365  12.517 -1.7855  5.2749 -1.8501
  518MOL0     H68362   1.548   3.164  11.189 -1.6592  0.3908 -0.6531
  518MOL0     H68363   1.777   3.195  11.176 -0.3016  0.9946  1.4351
  518MOL0     H68364   2.175   3.350  10.672  1.4626  3.1077 -0.1027
  518MOL0     H68365   2.402   3.428  10.701 -0.3154 -0.0411 -0.0195
  518MOL0     H68366   2.591   3.350  11.118 -0.3277  1.4814  2.5563
  518MOL0     H68367   2.571   3.521  11.095 -0.9575  0.5842 -0.3829
  518MOL0     H68368   2.810   3.350  10.976  1.0812 -0.6728 -1.5523
  518MOL0     H68369   2.784   3.522  10.956 -0.4371 -1.7696 -2.6944
  518MOL0     H68370   2.823   3.383  11.229  0.1710  0.8273 -0.0066
  518MOL0     H68371   2.791   3.550  11.211  0.2640 -0.6749  0.7126
  518MOL0     H68372   3.038   3.412  11.085 -2.1090 -0.9253 -2.3149
  518MOL0     H68373   3.008   3.591  11.092 -0.2709 -0.4317 -0.1985
  518MOL0     H68374   3.121   3.531  11.486 -0.5586 -0.1864  0.0844
  518MOL0     H68375   2.371   3.368  11.131  0.7010  0.5260 -0.2513
  518MOL0     H68376   2.143   3.329  11.107 -1.6122  0.0649 -0.1945
  519MOL0     O68377   8.262  10.712   4.793 -0.1762  0.5059  0.6367
  519MOL0     C68378   8.338  10.632   4.731 -0.5560 -0.0247 -0.9339
  519MOL0     O68379   8.299  10.522   4.660  0.7877 -1.0770  0.4560
  519MOL0     C68380   8.169  10.512   4.624  0.4095 -0.7291  0.1858
  519MOL0     C68381   8.066  10.511   4.716  0.1241 -0.3698 -0.3561
  519MOL0     C68382   7.932  10.496   4.672 -0.1824 -1.9627  0.2384
  519MOL0     C68383   7.904  10.478   4.537 -0.2464  0.5394  0.4260
  519MOL0     O68384   7.778  10.455   4.474 -0.0161 -0.0925 -0.4363
  519MOL0     C68385   7.660  10.461   4.563  0.3113  0.4447  0.7263
  519MOL0     C68386   7.533  10.398   4.504 -0.1953 -0.1886  0.1890
  519MOL0     C68387   7.428  10.377   4.616 -0.3094 -0.4980 -0.0601
  519MOL0     C68388   7.291  10.358   4.546 -0.9978 -0.6236 -0.1413
  519MOL0     C68389   7.178  10.358   4.654  0.0521  0.3701  0.6174
  519MOL0     C68390   7.164  10.485   4.739  0.4088 -0.1966 -0.0085
  519MOL0     C68391   7.046  10.480   4.843 -0.4301  0.1046  0.4901
  519MOL0     C68392   6.908  10.491   4.763  0.0668  0.4144 -0.4829
  519MOL0     N68393   6.800  10.464   4.860  0.0041  0.0315  0.4046
  519MOL0     C68394   6.773  10.542   4.972  0.5170 -0.4304  1.4993
  519MOL0     C68395   6.646  10.510   5.005 -0.8751  0.1656 -0.4574
  519MOL0     C68396   6.584  10.575   5.124 -0.5654  0.0077 -0.4653
  519MOL0     C68397   6.489  10.680   5.079 -0.0868  0.1437 -0.8162
  519MOL0     C68398   6.346  10.631   5.051  0.2504 -0.2036 -0.9167
  519MOL0     C68399   6.278  10.561   5.170  0.1264  0.6217 -0.4551
  519MOL0     O68400   6.133  10.554   5.135 -0.6248 -0.1155  1.2544
  519MOL0     C68401   6.061  10.521   5.239 -0.1736  0.5730 -0.0011
  519MOL0     C68402   5.985  10.407   5.239  0.2714  0.2841  0.0766
  519MOL0     C68403   5.880  10.393   5.330 -0.7665 -0.4201  0.0912
  519MOL0     C68404   5.863  10.486   5.428 -0.3881 -0.0916  1.2683
  519MOL0     C68405   5.761  10.459   5.533 -0.4416  0.1848  0.1791
  519MOL0     O68406   5.716  10.331   5.551  0.0659  0.4301  0.2552
  519MOL0     C68407   5.610  10.314   5.638  0.2591 -0.2892  0.9182
  519MOL0     C68408   5.493  10.242   5.605  0.3220 -1.3624  0.5039
  519MOL0     C68409   5.399  10.206   5.701 -0.6048  0.4599 -0.4351
  519MOL0     C68410   5.420  10.234   5.836 -0.0286 -0.8133 -1.1570
  519MOL0     O68411   5.333  10.210   5.946  0.1070  0.1543 -0.1918
  519MOL0     C68412   5.197  10.243   5.940  0.9056  0.2760  0.2502
  519MOL0     C68413   5.146  10.262   6.081  0.3254  0.4407  0.3233
  519MOL0     C68414   4.990  10.268   6.100 -0.2587  0.6033 -0.5617
  519MOL0     C68415   4.920  10.137   6.079  0.3013  0.4844  0.4339
  519MOL0     C68416   4.770  10.164   6.121  0.0695 -0.7433  0.9094
  519MOL0     C68417   4.664  10.059   6.077 -0.1350  0.4472 -0.1088
  519MOL0     C68418   4.682   9.926   6.150 -0.4964  0.1531  0.1967
  519MOL0     C68419   4.556   9.903   6.233  0.0140  0.7785  0.2374
  519MOL0    Cl68420   4.538  10.029   6.366  0.4474 -0.2231  0.1585
  519MOL0     C68421   5.537  10.310   5.873  0.3691  0.5217 -0.2343
  519MOL0     C68422   5.629  10.353   5.772 -0.0013  0.5976 -0.6280
  519MOL0     O68423   5.717  10.557   5.593 -0.0266  0.1750  0.7962
  519MOL0     C68424   5.936  10.606   5.427  0.2000 -0.2988  0.2691
  519MOL0     C68425   6.036  10.622   5.332 -0.1957 -0.5583  0.5828
  519MOL0     N68426   6.607  10.411   4.919  0.7010 -0.1934  0.4547
  519MOL0     N68427   6.699  10.381   4.838  1.4818  0.4436  0.1278
  519MOL0     C68428   8.014  10.464   4.448  0.3658 -0.1225 -0.5445
  519MOL0     C68429   8.147  10.487   4.493  0.9422 -0.2161  0.6281
  519MOL0     C68430   8.480  10.659   4.753 -0.3112 -0.8057  0.0976
  519MOL0     C68431   8.523  10.734   4.871  0.4581  0.6524 -0.4771
  519MOL0     C68432   8.653  10.762   4.886 -0.1090  0.3278  0.4571
  519MOL0     C68433   8.745  10.734   4.793 -0.5140  0.4548 -0.0329
  519MOL0     O68434   8.875  10.782   4.817  0.8165 -0.0753 -0.5404
  519MOL0     C68435   8.948  10.816   4.700  0.1468  1.5416  0.0419
  519MOL0     C68436   9.066  10.892   4.736  0.2705 -0.3325  0.3364
  519MOL0     C68437   9.162  10.802   4.810 -0.0221  1.0986 -0.5527
  519MOL0     C68438   9.219  10.682   4.730  0.1147 -0.3844 -0.8213
  519MOL0     C68439   9.314  10.735   4.634  0.2098 -0.8633 -0.4190
  519MOL0     C68440   9.387  10.783   4.551  0.6531 -0.0881 -0.1679
  519MOL0     C68441   8.707  10.668   4.674  0.1759  0.2591 -0.6658
  519MOL0     C68442   8.574  10.634   4.655 -0.2705  0.1790 -0.7190
  519MOL0     H68443   8.083  10.544   4.818  0.1397  0.7637 -0.7130
  519MOL0     H68444   7.864  10.508   4.756  0.7000  0.2029  0.7080
  519MOL0     H68445   7.642  10.564   4.592 -1.7945  0.1253  0.7504
  519MOL0     H68446   7.687  10.408   4.655  1.1981 -0.9065 -0.2645
  519MOL0     H68447   7.561  10.304   4.456  1.8818 -0.8084  2.4178
  519MOL0     H68448   7.488  10.473   4.438  1.3116  2.3636  1.8966
  519MOL0     H68449   7.430  10.453   4.694  2.1658 -2.4228  1.9175
  519MOL0     H68450   7.449  10.282   4.666 -2.4714 -2.2934 -2.3065
  519MOL0     H68451   7.265  10.448   4.488  0.3250 -0.1057  0.0480
  519MOL0     H68452   7.299  10.275   4.475  3.9102 -1.7572  1.3649
  519MOL0     H68453   7.211  10.279   4.721  1.1638 -0.1734 -0.5440
  519MOL0     H68454   7.087  10.330   4.600  1.1741 -0.0239 -1.1322
  519MOL0     H68455   7.145  10.569   4.672 -0.4782  0.0090  0.4806
  519MOL0     H68456   7.256  10.510   4.794  0.9470 -0.3742 -0.8093
  519MOL0     H68457   7.035  10.390   4.904  2.0636 -0.3033  0.4320
  519MOL0     H68458   7.058  10.568   4.908 -1.0226 -1.2109  2.4560
  519MOL0     H68459   6.915  10.406   4.695 -0.5542  1.2663 -1.6394
  519MOL0     H68460   6.903  10.585   4.706 -2.0584  0.5250 -0.1872
  519MOL0     H68461   6.828  10.621   5.022  0.0005  0.5941  0.4951
  519MOL0     H68462   6.659  10.627   5.184 -2.5129  1.6362  0.6702
  519MOL0     H68463   6.535  10.496   5.180  3.3692 -0.6152  2.5666
  519MOL0     H68464   6.524  10.714   4.981  0.1710 -3.2600 -2.0296
  519MOL0     H68465   6.484  10.759   5.155 -1.0696 -1.2974  0.7038
  519MOL0     H68466   6.277  10.710   5.019 -2.8020 -2.5623 -0.6488
  519MOL0     H68467   6.344  10.556   4.971 -0.9682 -0.7522 -0.3991
  519MOL0     H68468   6.299  10.595   5.272  2.5594  0.9414 -1.0157
  519MOL0     H68469   6.313  10.457   5.168 -2.2485 -0.2661  0.0697
  519MOL0     H68470   5.997  10.339   5.155 -1.2141  1.3794 -1.0763
  519MOL0     H68471   5.818  10.304   5.332  0.2246 -1.1163  1.1626
  519MOL0     H68472   5.468  10.225   5.500 -0.4901 -0.7978  0.5900
  519MOL0     H68473   5.308  10.159   5.668 -1.6155  2.0923 -0.0953
  519MOL0     H68474   5.134  10.170   5.887 -2.9335  1.8558  2.1969
  519MOL0     H68475   5.198  10.333   5.877  0.9800 -1.6822 -2.7932
  519MOL0     H68476   5.180  10.359   6.117 -4.2203  2.2943  0.2538
  519MOL0     H68477   5.189  10.187   6.149  2.8869 -0.6320 -2.2463
  519MOL0     H68478   4.943  10.349   6.044 -0.8824 -0.2961 -1.3976
  519MOL0     H68479   4.974  10.293   6.205 -1.6737 -2.5805  0.1339
  519MOL0     H68480   4.917  10.122   5.971 -1.4838  0.7168  0.4108
  519MOL0     H68481   4.965  10.050   6.129 -0.0024 -0.1642 -0.3907
  519MOL0     H68482   4.723  10.251   6.073 -1.0791 -1.9424 -0.2631
  519MOL0     H68483   4.775  10.184   6.228  2.5148 -0.5511  0.8115
  519MOL0     H68484   4.681  10.036   5.971  2.9000 -1.7765  0.7147
  519MOL0     H68485   4.563  10.098   6.093 -0.3864  0.1449 -0.9169
  519MOL0     H68486   4.697   9.838   6.087  2.3535  0.2871  0.5645
  519MOL0     H68487   4.768   9.947   6.214  0.3555  1.7014 -1.3623
  519MOL0     H68488   4.561   9.804   6.278 -2.9456  0.5174  0.1902
  519MOL0     H68489   4.468   9.889   6.170 -0.7886 -0.5329  1.6006
  519MOL0     H68490   5.562  10.333   5.976 -1.5347  2.8325 -0.2052
  519MOL0     H68491   5.720  10.408   5.795  0.9665 -1.6894  1.4756
  519MOL0     H68492   5.913  10.675   5.508 -1.5255 -1.1631  0.5730
  519MOL0     H68493   6.093  10.714   5.340 -1.8857  0.6726 -0.8795
  519MOL0     H68494   7.982  10.437   4.348  0.2593 -1.8929 -0.0577
  519MOL0     H68495   8.230  10.488   4.424  1.1884 -1.3511  0.8960
  519MOL0     H68496   8.460  10.774   4.949 -1.2583 -0.5971 -1.1676
  519MOL0     H68497   8.678  10.827   4.970  1.2169  1.4789 -0.7805
  519MOL0     H68498   8.888  10.892   4.648 -0.0993  1.4559  0.1986
  519MOL0     H68499   8.961  10.740   4.623 -0.7152 -0.1784  1.5132
  519MOL0     H68500   9.107  10.927   4.641 -0.5003  3.1316  1.1628
  519MOL0     H68501   9.040  10.978   4.797  0.3071  0.1105 -0.2699
  519MOL0     H68502   9.130  10.775   4.911 -0.7748 -0.1126 -1.1006
  519MOL0     H68503   9.249  10.863   4.837  1.2061 -0.8213 -0.0094
  519MOL0     H68504   9.243  10.606   4.805 -0.8139  2.5353  2.6581
  519MOL0     H68505   9.140  10.638   4.666 -1.8698 -2.8534  2.9564
  519MOL0     H68506   9.443  10.821   4.468  0.4546  0.3119 -0.1217
  519MOL0     H68507   8.772  10.636   4.593 -3.5730 -0.5828 -3.6155
  519MOL0     H68508   8.537  10.579   4.569  2.4149 -1.6439 -0.8222
  520MOL0     O68509   0.903   2.085   3.892  0.3330  0.5986 -0.3418
  520MOL0     C68510   0.960   2.180   3.944  0.0509  0.1780 -0.1337
  520MOL0     O68511   0.914   2.249   4.049 -0.0387  0.7455  0.5417
  520MOL0     C68512   0.797   2.218   4.106  0.4401  0.9840  0.3477
  520MOL0     C68513   0.669   2.220   4.040  0.0870  0.4405 -0.2896
  520MOL0     C68514   0.556   2.175   4.106 -0.1178  0.7417  0.4078
  520MOL0     C68515   0.562   2.149   4.244  0.1593 -0.3092  0.5480
  520MOL0     O68516   0.457   2.108   4.313  0.0518  0.5835  0.1025
  520MOL0     C68517   0.333   2.091   4.247  0.2421  0.0110  0.9440
  520MOL0     C68518   0.234   2.048   4.352 -0.0904  0.3775  0.2377
  520MOL0     C68519   0.091   2.046   4.295  0.6806 -0.8925 -0.1020
  520MOL0     C68520   0.074   1.948   4.184  0.2545 -0.3783 -0.2730
  520MOL0     C68521  -0.061   1.980   4.114 -0.0862  0.7324 -1.2800
  520MOL0     C68522  -0.086   1.887   3.999 -0.2296  0.0926 -0.2190
  520MOL0     C68523  -0.213   1.925   3.910 -0.2693  1.0065  0.8530
  520MOL0     C68524  -0.330   1.919   3.996  0.5687  0.2899  0.6318
  520MOL0     N68525  -0.440   1.969   3.916 -0.0214  0.7458 -0.1208
  520MOL0     C68526  -0.478   1.924   3.784 -0.5840 -0.7760 -0.8771
  520MOL0     C68527  -0.590   1.987   3.757 -0.6800  0.7749 -0.1436
  520MOL0     C68528  -0.681   1.967   3.642 -0.0804 -0.5714  0.3227
  520MOL0     C68529  -0.682   2.090   3.550 -0.0882  0.7061  0.0331
  520MOL0     C68530  -0.762   2.075   3.425  0.8428 -0.2348  0.6434
  520MOL0     C68531  -0.907   2.018   3.444  0.6115 -0.2580 -0.7644
  520MOL0     O68532  -0.996   2.076   3.349 -0.7216  0.1382  0.0335
  520MOL0     C68533  -1.121   2.016   3.335  0.1092  0.0832  0.6123
  520MOL0     C68534  -1.180   1.939   3.438  0.0861 -0.6645  0.0112
  520MOL0     C68535  -1.312   1.891   3.428  0.2427 -0.6431  0.1991
  520MOL0     C68536  -1.386   1.908   3.309  0.1316  0.3188  0.1475
  520MOL0     C68537  -1.514   1.842   3.290  0.0340  0.5947 -0.6610
  520MOL0     O68538  -1.592   1.894   3.200  0.0594  0.0131  0.0531
  520MOL0     C68539  -1.725   1.842   3.193 -0.3913  0.0784  0.2696
  520MOL0     C68540  -1.750   1.709   3.176  0.1742  0.7599  0.6801
  520MOL0     C68541  -1.882   1.664   3.182 -0.5131 -0.2005 -0.2074
  520MOL0     C68542  -1.989   1.754   3.217 -0.0825  0.0878  0.9116
  520MOL0     O68543  -2.106   1.692   3.255  0.3405 -0.2584  0.6699
  520MOL0     C68544  -2.191   1.778   3.335 -0.4835 -0.1490 -0.1440
  520MOL0     C68545  -2.297   1.678   3.390  0.3896  0.0891  0.0058
  520MOL0     C68546  -2.387   1.633   3.278 -0.2710  0.2531  0.4529
  520MOL0     C68547  -2.506   1.559   3.325 -0.4235 -0.2603  0.1371
  520MOL0     C68548  -2.594   1.492   3.221  0.1670 -0.3016 -0.1382
  520MOL0     C68549  -2.738   1.473   3.270 -0.3276 -0.5985  0.5123
  520MOL0     C68550  -2.810   1.596   3.330  0.0917  0.9501  0.1667
  520MOL0     C68551  -2.958   1.608   3.301  0.0438 -0.3325 -0.2583
  520MOL0    Cl68552  -3.034   1.753   3.390 -0.3380 -0.4689 -0.1754
  520MOL0     C68553  -1.958   1.894   3.234  0.0493  0.5832 -0.6011
  520MOL0     C68554  -1.827   1.935   3.213 -0.0844  0.1786  0.7719
  520MOL0     O68555  -1.533   1.744   3.356  0.8600  0.1369 -0.4939
  520MOL0     C68556  -1.327   1.996   3.214  0.0969  1.0565 -0.1435
  520MOL0     C68557  -1.196   2.038   3.222 -0.4473 -0.0125 -0.8016
  520MOL0     N68558  -0.621   2.073   3.859 -0.3715 -0.4977  0.3051
  520MOL0     N68559  -0.531   2.071   3.960 -0.3236  0.8050 -0.4103
  520MOL0     C68560   0.682   2.152   4.309  0.4914 -1.6324 -0.1291
  520MOL0     C68561   0.799   2.184   4.244  0.1957 -0.2574  0.4051
  520MOL0     C68562   1.093   2.205   3.917 -0.4054 -0.9104  0.5935
  520MOL0     C68563   1.156   2.142   3.806 -0.0394  0.0126  0.3682
  520MOL0     C68564   1.287   2.184   3.773 -0.1014 -0.7232 -0.7343
  520MOL0     C68565   1.358   2.277   3.851  0.1915 -0.8449 -0.3247
  520MOL0     O68566   1.490   2.319   3.817  0.1602 -0.3126  0.2808
  520MOL0     C68567   1.598   2.250   3.891  0.0797  0.5982  0.5553
  520MOL0     C68568   1.714   2.352   3.876  0.6200  1.2194  0.2756
  520MOL0     C68569   1.693   2.469   3.965  0.4245  0.3109  0.2660
  520MOL0     C68570   1.788   2.579   3.927 -0.2434 -1.0753  0.8148
  520MOL0     C68571   1.921   2.563   3.975 -0.7345 -0.6305 -0.2519
  520MOL0     C68572   2.034   2.543   4.019  0.9031  0.0855 -0.5709
  520MOL0     C68573   1.288   2.343   3.955  0.0201 -0.0184 -0.3967
  520MOL0     C68574   1.153   2.311   3.989 -0.2672 -0.7290  0.8009
  520MOL0     H68575   0.660   2.255   3.938 -0.7288 -2.1778 -1.2065
  520MOL0     H68576   0.464   2.172   4.048 -0.3258 -1.1872  0.7726
  520MOL0     H68577   0.339   2.018   4.166 -0.7470  2.5777 -1.6236
  520MOL0     H68578   0.292   2.184   4.206 -3.8400 -2.5096 -1.3356
  520MOL0     H68579   0.241   2.120   4.434 -1.2834 -1.2506  1.8448
  520MOL0     H68580   0.253   1.950   4.395 -0.1665  0.5756  0.7305
  520MOL0     H68581   0.058   2.146   4.265  1.5821 -0.6219 -0.2247
  520MOL0     H68582   0.021   2.022   4.376 -0.9180 -0.7563 -1.4030
  520MOL0     H68583   0.146   1.968   4.104 -0.8508 -0.8866 -1.4296
  520MOL0     H68584   0.086   1.846   4.220  2.2732 -0.2255 -0.3705
  520MOL0     H68585  -0.067   2.082   4.075  2.9900  0.2127 -3.5225
  520MOL0     H68586  -0.137   1.953   4.188  2.9342 -0.8868  1.5450
  520MOL0     H68587  -0.091   1.782   4.030 -2.6059 -0.2405 -1.4690
  520MOL0     H68588   0.003   1.898   3.936 -0.5249  0.4601 -0.5818
  520MOL0     H68589  -0.188   2.025   3.875  2.5039  0.0948 -0.0886
  520MOL0     H68590  -0.218   1.852   3.828  1.2951  1.0043  0.7254
  520MOL0     H68591  -0.312   1.985   4.081  0.4604 -1.1574  1.8179
  520MOL0     H68592  -0.344   1.816   4.029 -0.5765  0.5480  1.0066
  520MOL0     H68593  -0.428   1.850   3.723  0.2967 -0.8176 -0.1269
  520MOL0     H68594  -0.782   1.955   3.682 -0.0121 -0.1838  0.6129
  520MOL0     H68595  -0.651   1.880   3.582 -1.4743 -1.5654  1.0176
  520MOL0     H68596  -0.582   2.122   3.520  0.8239 -3.6456 -2.3634
  520MOL0     H68597  -0.738   2.164   3.609 -0.8914 -0.0560  0.2533
  520MOL0     H68598  -0.766   2.169   3.369 -0.9148  0.5314  1.9915
  520MOL0     H68599  -0.708   1.998   3.368 -2.2864 -0.8775 -1.7542
  520MOL0     H68600  -0.947   2.045   3.542 -1.9257 -1.8611 -1.2546
  520MOL0     H68601  -0.903   1.908   3.448  0.3799 -0.2542  3.0312
  520MOL0     H68602  -1.133   1.927   3.535 -1.3226  4.0570  1.5535
  520MOL0     H68603  -1.350   1.839   3.515  1.0350 -1.9634 -0.2043
  520MOL0     H68604  -1.672   1.639   3.148 -0.4383  1.6325 -3.9733
  520MOL0     H68605  -1.904   1.558   3.174 -0.3205 -0.3529  1.1024
  520MOL0     H68606  -2.235   1.855   3.271  0.0580  0.9596  0.7918
  520MOL0     H68607  -2.140   1.834   3.414 -0.9882  0.9345 -0.5586
  520MOL0     H68608  -2.359   1.730   3.464 -0.5124  1.3103 -1.5457
  520MOL0     H68609  -2.254   1.586   3.430  0.5482 -0.2848 -0.9931
  520MOL0     H68610  -2.328   1.575   3.207  2.2492  2.4325  0.6216
  520MOL0     H68611  -2.419   1.722   3.224 -2.8480 -1.1057 -0.4071
  520MOL0     H68612  -2.479   1.489   3.404 -0.5101  2.5744  2.8717
  520MOL0     H68613  -2.559   1.635   3.382 -1.5216  1.1038 -2.5328
  520MOL0     H68614  -2.547   1.396   3.201  2.4461  0.7602 -0.2040
  520MOL0     H68615  -2.602   1.562   3.137  0.7898  2.2827  1.7970
  520MOL0     H68616  -2.746   1.389   3.340  0.5794 -0.1634  1.1670
  520MOL0     H68617  -2.786   1.436   3.179  0.2014  3.3015 -1.5473
  520MOL0     H68618  -2.806   1.575   3.437 -2.9655 -3.0246 -0.2602
  520MOL0     H68619  -2.757   1.687   3.301  1.3522  1.7413  4.2634
  520MOL0     H68620  -3.010   1.514   3.318 -1.0082 -0.1885 -2.2991
  520MOL0     H68621  -2.969   1.629   3.194 -1.8987 -0.1365 -0.0623
  520MOL0     H68622  -2.034   1.968   3.259 -0.8782  0.1418 -1.9449
  520MOL0     H68623  -1.798   2.039   3.226  0.6672  0.2144 -0.9273
  520MOL0     H68624  -1.375   1.992   3.117 -0.0810 -2.1538 -0.0365
  520MOL0     H68625  -1.160   2.092   3.134 -0.8578  1.0092 -0.3609
  520MOL0     H68626   0.688   2.132   4.415 -0.8521 -0.0555  0.2704
  520MOL0     H68627   0.892   2.177   4.299  1.2012  1.6960 -0.9314
  520MOL0     H68628   1.115   2.060   3.747  2.8486  1.0225 -3.5065
  520MOL0     H68629   1.341   2.140   3.689  0.7382  1.0879 -1.2161
  520MOL0     H68630   1.616   2.157   3.836  1.7177  2.5608 -2.5197
  520MOL0     H68631   1.580   2.244   3.999 -0.8924  1.7326  0.4736
  520MOL0     H68632   1.807   2.305   3.909  0.6816 -0.2680 -1.8419
  520MOL0     H68633   1.724   2.380   3.771 -2.9736 -2.7776 -1.4443
  520MOL0     H68634   1.716   2.450   4.070  3.2851  4.0830  0.5330
  520MOL0     H68635   1.590   2.505   3.950  1.0689  1.1722 -3.0379
  520MOL0     H68636   1.790   2.574   3.817 -0.5566  0.0093  0.7481
  520MOL0     H68637   1.751   2.676   3.960 -1.1686 -1.7574  1.8337
  520MOL0     H68638   2.130   2.530   4.065 -0.1478  3.6339  3.1806
  520MOL0     H68639   1.350   2.406   4.018 -0.3267 -0.2591  0.1969
  520MOL0     H68640   1.109   2.356   4.077 -3.7922 -0.5866 -0.8770
  521MOL0     O68641   1.852   1.654   3.604 -0.6522 -0.8276  0.9738
  521MOL0     C68642   1.910   1.703   3.504 -0.1620  0.0644  0.2468
  521MOL0     O68643   1.858   1.713   3.382  0.1731 -0.1723  0.6636
  521MOL0     C68644   1.724   1.716   3.356 -1.0977  0.7817 -0.1575
  521MOL0     C68645   1.616   1.747   3.450 -0.3697 -0.5196 -0.0348
  521MOL0     C68646   1.480   1.729   3.412 -1.3469  0.1298 -0.0451
  521MOL0     C68647   1.452   1.650   3.295  0.0391  0.0955 -0.3777
  521MOL0     O68648   1.325   1.612   3.271  0.0750  0.2959  0.4983
  521MOL0     C68649   1.215   1.689   3.307 -0.2386 -0.3583 -0.7908
  521MOL0     C68650   1.093   1.612   3.250  1.2361  0.6424 -0.2222
  521MOL0     C68651   1.077   1.480   3.320 -0.8233  0.0826 -0.3023
  521MOL0     C68652   0.935   1.435   3.273 -0.1297  0.5023 -0.5136
  521MOL0     C68653   0.902   1.287   3.323  0.2036 -0.0507  0.1296
  521MOL0     C68654   0.857   1.283   3.463 -0.0890 -0.1644 -0.9566
  521MOL0     C68655   0.828   1.141   3.509  0.3237  0.3347  0.2238
  521MOL0     C68656   0.776   1.143   3.657 -0.2588  0.7141 -0.1986
  521MOL0     N68657   0.625   1.163   3.662 -1.2637  0.6081 -0.6208
  521MOL0     C68658   0.570   1.289   3.695 -0.3196  0.3562  0.4882
  521MOL0     C68659   0.437   1.281   3.664 -0.3889  0.2166  0.1000
  521MOL0     C68660   0.342   1.393   3.679 -0.0747  0.1095  0.1522
  521MOL0     C68661   0.204   1.368   3.617  0.5832  0.2039 -0.2638
  521MOL0     C68662   0.121   1.254   3.681  0.1508 -0.1601  0.4851
  521MOL0     C68663  -0.034   1.274   3.665  0.4701 -0.5772  0.1912
  521MOL0     O68664  -0.058   1.234   3.526 -0.2276  0.4981 -0.3231
  521MOL0     C68665  -0.180   1.214   3.480 -0.4082  0.6115 -0.6115
  521MOL0     C68666  -0.196   1.110   3.384 -0.2059  0.2584 -0.6181
  521MOL0     C68667  -0.312   1.076   3.335 -0.3525  0.0668 -0.3953
  521MOL0     C68668  -0.435   1.132   3.374  0.1692 -0.2511  0.2250
  521MOL0     C68669  -0.571   1.091   3.315 -0.2591 -0.0650  0.1550
  521MOL0     O68670  -0.669   1.173   3.341 -0.7798  0.5756 -0.1578
  521MOL0     C68671  -0.787   1.166   3.269 -0.5954  0.2642 -0.3354
  521MOL0     C68672  -0.914   1.168   3.339 -0.0887  0.9905  0.4812
  521MOL0     C68673  -1.029   1.165   3.264  0.3341  1.0503  0.2072
  521MOL0     C68674  -1.025   1.138   3.127  0.2433  0.6360 -0.3826
  521MOL0     O68675  -1.147   1.129   3.060 -0.7385  0.1472 -0.3788
  521MOL0     C68676  -1.140   1.135   2.914  0.5733  0.1196 -0.3398
  521MOL0     C68677  -1.283   1.157   2.859  0.4923 -1.0540  0.5383
  521MOL0     C68678  -1.391   1.095   2.953  0.0662  0.6037  0.5095
  521MOL0     C68679  -1.537   1.097   2.899  0.6833 -0.5227 -0.5093
  521MOL0     C68680  -1.590   1.236   2.875 -0.3496 -0.0412  0.0357
  521MOL0     C68681  -1.730   1.260   2.853  0.2580  0.2684  0.2428
  521MOL0     C68682  -1.784   1.187   2.736 -0.5320  0.2570  0.4398
  521MOL0     C68683  -1.944   1.197   2.741 -0.6104 -0.3912 -0.2298
  521MOL0    Cl68684  -2.007   1.353   2.812  0.5822  0.0229 -0.4398
  521MOL0     C68685  -0.898   1.128   3.060 -0.2365 -0.6794  0.3527
  521MOL0     C68686  -0.783   1.151   3.130 -0.0032  0.4991 -0.3208
  521MOL0     O68687  -0.574   1.000   3.239  0.0928 -0.4000  0.1170
  521MOL0     C68688  -0.427   1.241   3.460  0.3816 -0.5748  0.2018
  521MOL0     C68689  -0.302   1.284   3.521  0.0066  0.6446  0.4007
  521MOL0     N68690   0.411   1.157   3.624  0.7732  0.1732  0.4306
  521MOL0     N68691   0.523   1.086   3.624 -0.1619 -0.5218 -0.9115
  521MOL0     C68692   1.550   1.613   3.212 -0.3319  0.9612  0.2483
  521MOL0     C68693   1.686   1.657   3.231  0.9363 -0.0733  0.7003
  521MOL0     C68694   2.052   1.756   3.537 -1.2304  0.3559  0.2574
  521MOL0     C68695   2.129   1.799   3.434  0.7511 -0.0163 -0.7676
  521MOL0     C68696   2.254   1.845   3.452 -0.2051  0.5576  0.3906
  521MOL0     C68697   2.307   1.865   3.578 -0.2507 -0.0760  0.1093
  521MOL0     O68698   2.424   1.936   3.597  0.2338 -0.1313 -0.6892
  521MOL0     C68699   2.520   1.825   3.621 -0.4042  0.1093 -0.7717
  521MOL0     C68700   2.653   1.894   3.644  0.1689 -0.3873  0.8847
  521MOL0     C68701   2.708   1.960   3.517  0.4942 -0.0943  0.1294
  521MOL0     C68702   2.734   1.865   3.408  0.4221 -0.0681  0.5554
  521MOL0     C68703   2.869   1.883   3.352 -0.0454 -0.5320  0.5325
  521MOL0     C68704   2.978   1.889   3.296  0.4722 -0.6839  0.5110
  521MOL0     C68705   2.223   1.823   3.687  0.4111  0.2338 -0.2179
  521MOL0     C68706   2.099   1.764   3.662 -0.7235 -0.5253 -0.1181
  521MOL0     H68707   1.647   1.793   3.544  0.7235 -3.3293  1.0926
  521MOL0     H68708   1.408   1.762   3.486 -3.9423 -1.9803 -1.4824
  521MOL0     H68709   1.221   1.790   3.264 -0.1305  0.2414  0.5937
  521MOL0     H68710   1.223   1.704   3.415 -1.0750  3.1356 -1.0845
  521MOL0     H68711   1.107   1.596   3.143 -1.1493 -1.6296 -0.3030
  521MOL0     H68712   1.001   1.670   3.258 -0.9357 -2.3246 -1.7569
  521MOL0     H68713   1.075   1.492   3.429  5.0918  1.7148 -0.0558
  521MOL0     H68714   1.158   1.411   3.295 -0.5749  1.4211 -3.7386
  521MOL0     H68715   0.867   1.505   3.322  0.7369  0.0380  1.4241
  521MOL0     H68716   0.934   1.447   3.164 -0.5879  1.8606 -0.3851
  521MOL0     H68717   0.989   1.222   3.309  0.4570 -0.0912  1.7099
  521MOL0     H68718   0.819   1.244   3.265 -0.5745  2.8373 -1.0821
  521MOL0     H68719   0.773   1.352   3.477  1.3818  1.2486  1.7405
  521MOL0     H68720   0.944   1.315   3.520 -0.7227 -1.2081  0.6569
  521MOL0     H68721   0.759   1.090   3.441  4.9657 -2.8917 -2.5980
  521MOL0     H68722   0.923   1.087   3.507  0.5428  0.6513  1.3021
  521MOL0     H68723   0.828   1.226   3.705  0.1724  1.4286 -1.8309
  521MOL0     H68724   0.799   1.056   3.719 -1.0210 -0.3626 -1.3910
  521MOL0     H68725   0.622   1.382   3.716 -0.4620  0.7579 -0.8330
  521MOL0     H68726   0.374   1.478   3.618 -3.8052  0.6015 -1.3480
  521MOL0     H68727   0.340   1.419   3.786 -2.3261 -0.2333  0.2303
  521MOL0     H68728   0.210   1.348   3.510  1.0742  2.6808 -0.7546
  521MOL0     H68729   0.148   1.461   3.626  1.7492  0.8641  0.3434
  521MOL0     H68730   0.154   1.159   3.638  3.3192  0.4942  1.2653
  521MOL0     H68731   0.142   1.239   3.788 -0.4234  0.9604  0.7709
  521MOL0     H68732  -0.063   1.375   3.693 -0.7057 -0.8031 -0.1380
  521MOL0     H68733  -0.086   1.216   3.743  0.2513  0.0390  0.5066
  521MOL0     H68734  -0.106   1.061   3.346 -1.1553  0.5552 -3.4758
  521MOL0     H68735  -0.311   0.983   3.279 -1.7201  0.0088 -0.3501
  521MOL0     H68736  -0.926   1.206   3.440  0.9096  3.0326 -0.1217
  521MOL0     H68737  -1.123   1.186   3.313 -0.0158  1.3474 -0.5827
  521MOL0     H68738  -1.111   1.039   2.872 -2.0839 -0.6335 -0.6420
  521MOL0     H68739  -1.061   1.202   2.878  2.6793 -2.1406 -0.1266
  521MOL0     H68740  -1.287   1.111   2.760 -0.4718 -2.4203  1.1670
  521MOL0     H68741  -1.307   1.263   2.849  1.0728 -0.9766 -0.1304
  521MOL0     H68742  -1.398   1.127   3.057 -0.4251  1.7916  0.1311
  521MOL0     H68743  -1.369   0.988   2.955 -1.5069  0.2019  3.8302
  521MOL0     H68744  -1.549   1.035   2.809  1.1414 -0.6683 -0.4725
  521MOL0     H68745  -1.600   1.048   2.975  0.1518  2.1147  0.8493
  521MOL0     H68746  -1.521   1.279   2.801  0.5533 -0.4045  0.6402
  521MOL0     H68747  -1.572   1.285   2.971 -1.7686  1.5888 -0.4901
  521MOL0     H68748  -1.737   1.365   2.823 -0.4654  0.0462 -0.3906
  521MOL0     H68749  -1.790   1.243   2.942 -2.8091 -0.3760 -1.7832
  521MOL0     H68750  -1.749   1.231   2.643 -0.6886 -1.0655 -0.2667
  521MOL0     H68751  -1.739   1.087   2.736 -0.8117  0.1224  1.3112
  521MOL0     H68752  -1.986   1.108   2.788 -0.7614 -2.4350 -3.8146
  521MOL0     H68753  -1.986   1.196   2.640 -3.4770 -0.5197  0.8863
  521MOL0     H68754  -0.889   1.103   2.955 -0.7132  1.4629 -0.2423
  521MOL0     H68755  -0.687   1.147   3.080 -0.9253  0.2225 -2.1636
  521MOL0     H68756  -0.520   1.290   3.491  1.1555  1.7136 -0.8657
  521MOL0     H68757  -0.289   1.379   3.574  1.8228  1.7409 -1.8369
  521MOL0     H68758   1.535   1.552   3.124  0.9075  0.4652  0.3506
  521MOL0     H68759   1.759   1.630   3.155  1.0269 -0.1609  0.8181
  521MOL0     H68760   2.094   1.807   3.332  2.2935  0.1360 -1.3057
  521MOL0     H68761   2.320   1.872   3.370  0.5723 -0.3863  0.6873
  521MOL0     H68762   2.521   1.750   3.541 -3.3086  1.0605 -1.8096
  521MOL0     H68763   2.498   1.776   3.717  2.6381  1.0144  0.5216
  521MOL0     H68764   2.633   1.961   3.728 -2.9252  1.1599 -0.8788
  521MOL0     H68765   2.725   1.817   3.673  1.0453  1.0651  2.7939
  521MOL0     H68766   2.804   2.002   3.548  1.4756 -1.3253 -1.1017
  521MOL0     H68767   2.637   2.038   3.486  0.7642  2.1469  4.3642
  521MOL0     H68768   2.723   1.762   3.444  4.1966 -1.1646 -0.9792
  521MOL0     H68769   2.650   1.874   3.339  0.9436  0.1039 -0.0675
  521MOL0     H68770   3.073   1.901   3.249 -0.4244  0.7300 -1.0487
  521MOL0     H68771   2.244   1.856   3.788 -2.6593  1.9660 -0.0095
  521MOL0     H68772   2.027   1.732   3.736 -0.9842 -1.5508 -0.7894
  522MOL0     O68773   2.187   8.860  11.076 -0.1335  0.2984 -0.0042
  522MOL0     C68774   2.224   8.893  10.964 -0.9712  0.4437 -1.0180
  522MOL0     O68775   2.183   8.839  10.845 -0.1019 -0.5804  0.1373
  522MOL0     C68776   2.078   8.753  10.834 -0.1172 -0.2887  0.2111
  522MOL0     C68777   2.084   8.671  10.725 -0.3674 -0.1988  0.2084
  522MOL0     C68778   1.989   8.578  10.697  0.5299  0.2411 -0.4081
  522MOL0     C68779   1.872   8.582  10.771  0.4601  1.6358 -0.4933
  522MOL0     O68780   1.785   8.485  10.728  0.2516 -0.1720  0.0287
  522MOL0     C68781   1.673   8.447  10.809 -0.2527  0.1751 -0.1124
  522MOL0     C68782   1.555   8.549  10.819 -1.3491 -0.0796  0.6952
  522MOL0     C68783   1.454   8.508  10.924  0.7343 -0.8580  0.2238
  522MOL0     C68784   1.396   8.366  10.900  0.1574  0.6811  0.2877
  522MOL0     C68785   1.273   8.334  10.984 -0.4506 -0.1581  0.0001
  522MOL0     C68786   1.162   8.434  10.943  0.7302 -0.1675 -0.0338
  522MOL0     C68787   1.021   8.386  10.966  0.8460  0.1404 -0.6394
  522MOL0     C68788   0.983   8.384  11.110  0.6973 -0.6659 -0.1104
  522MOL0     N68789   1.035   8.263  11.178  0.0369 -0.7031 -0.0352
  522MOL0     C68790   1.004   8.129  11.152  0.2816  1.1125 -0.6015
  522MOL0     C68791   1.035   8.062  11.263  0.3277  0.2765 -0.1788
  522MOL0     C68792   1.047   7.911  11.291 -0.4394 -0.3174  0.0619
  522MOL0     C68793   0.910   7.855  11.339  0.2162  0.6005 -0.4607
  522MOL0     C68794   0.918   7.705  11.355 -0.2978 -0.9769 -0.5712
  522MOL0     C68795   0.791   7.656  11.416 -0.1840 -0.4871  0.5963
  522MOL0     O68796   0.688   7.693  11.319  1.0034 -0.8998 -0.8617
  522MOL0     C68797   0.563   7.698  11.371  0.6145  0.2655  0.1653
  522MOL0     C68798   0.468   7.731  11.272  0.0259  0.4043  0.5387
  522MOL0     C68799   0.330   7.698  11.285  0.0919  0.8107  0.9478
  522MOL0     C68800   0.285   7.655  11.411  0.8689 -0.5227 -0.6929
  522MOL0     C68801   0.140   7.653  11.433 -0.1114 -0.6875 -0.2974
  522MOL0     O68802   0.104   7.629  11.562 -1.2653  0.0472  0.4642
  522MOL0     C68803  -0.023   7.644  11.606  0.1250  0.0552 -0.1315
  522MOL0     C68804  -0.059   7.745  11.702 -1.3737  0.5358 -0.0236
  522MOL0     C68805  -0.193   7.761  11.749 -0.1562  0.7966  0.5136
  522MOL0     C68806  -0.296   7.688  11.690 -0.3596 -1.1804  0.2248
  522MOL0     O68807  -0.425   7.680  11.739 -0.4505  0.2486 -0.0969
  522MOL0     C68808  -0.470   7.795  11.810  0.2698 -0.0276 -0.4180
  522MOL0     C68809  -0.623   7.782  11.825  0.0273  0.1082  0.3382
  522MOL0     C68810  -0.663   7.654  11.895  0.0173  1.0227 -0.0256
  522MOL0     C68811  -0.821   7.647  11.913  0.5297  0.1636 -0.4360
  522MOL0     C68812  -0.868   7.533  12.012 -0.1927 -0.1731  0.1017
  522MOL0     C68813  -1.021   7.483  12.032  0.6649 -0.4377 -0.4287
  522MOL0     C68814  -1.030   7.355  12.121  0.2549  0.1416  0.5507
  522MOL0     C68815  -1.172   7.344  12.197 -0.4755  0.1844 -0.5476
  522MOL0    Cl68816  -1.316   7.360  12.076 -0.3796 -0.2822 -0.1054
  522MOL0     C68817  -0.261   7.601  11.588  0.3422 -0.2034  0.2640
  522MOL0     C68818  -0.133   7.586  11.540 -0.0371  0.2713 -0.5000
  522MOL0     O68819   0.067   7.693  11.343 -0.3689  0.2696 -0.0202
  522MOL0     C68820   0.379   7.629  11.515  0.0845 -1.2136  0.0060
  522MOL0     C68821   0.513   7.647  11.492 -0.0239 -0.3625  0.1097
  522MOL0     N68822   1.094   8.148  11.360  0.2640  0.1182  0.4082
  522MOL0     N68823   1.093   8.256  11.303  0.6851  0.0961  0.7287
  522MOL0     C68824   1.859   8.663  10.877 -0.0069  0.0140 -0.0802
  522MOL0     C68825   1.967   8.742  10.913 -0.6054 -0.1883 -0.5341
  522MOL0     C68826   2.325   8.997  10.957  0.9479  0.1497 -0.7893
  522MOL0     C68827   2.389   9.032  10.836  0.7049 -0.5197 -0.2129
  522MOL0     C68828   2.496   9.124  10.836 -0.6450  0.8313  0.4241
  522MOL0     C68829   2.545   9.187  10.955  0.9516 -0.9443 -0.0041
  522MOL0     O68830   2.637   9.293  10.966 -0.3295  0.2580 -0.1123
  522MOL0     C68831   2.716   9.327  10.849  0.0156  0.3068  1.0631
  522MOL0     C68832   2.644   9.419  10.754 -0.2947 -0.0886  0.8488
  522MOL0     C68833   2.729   9.432  10.625  0.5388  0.4374 -0.1488
  522MOL0     C68834   2.832   9.545  10.639  0.5644 -0.1666  0.7372
  522MOL0     C68835   2.912   9.522  10.520 -0.7637  0.8759  0.9365
  522MOL0     C68836   2.991   9.503  10.430  0.0444 -0.0903  0.7655
  522MOL0     C68837   2.470   9.163  11.070 -0.0818  0.0066 -0.5973
  522MOL0     C68838   2.370   9.063  11.074  0.8368 -0.6497  0.5939
  522MOL0     H68839   2.175   8.688  10.667  1.0740 -0.3152  2.3427
  522MOL0     H68840   1.974   8.514  10.611 -3.0855 -0.1241  0.3217
  522MOL0     H68841   1.715   8.424  10.908  1.7157 -0.8794 -1.1496
  522MOL0     H68842   1.641   8.351  10.769  2.6080 -0.6367 -0.6510
  522MOL0     H68843   1.502   8.543  10.724  0.7466 -1.7412 -0.4680
  522MOL0     H68844   1.589   8.652  10.835  4.4838 -1.2829 -1.3506
  522MOL0     H68845   1.381   8.590  10.921 -0.8191 -2.1740  0.0583
  522MOL0     H68846   1.503   8.513  11.021  1.3619 -3.3989  0.0923
  522MOL0     H68847   1.362   8.357  10.796 -1.5377 -1.4629  0.9591
  522MOL0     H68848   1.466   8.284  10.916  0.1876  0.3784 -1.2302
  522MOL0     H68849   1.306   8.341  11.088  5.5149  2.7033 -1.6371
  522MOL0     H68850   1.255   8.229  10.960  3.9878 -0.7519 -1.7032
  522MOL0     H68851   1.169   8.463  10.838 -4.5603 -2.1364 -1.2266
  522MOL0     H68852   1.177   8.526  11.001  0.1996 -0.8292  1.1849
  522MOL0     H68853   0.938   8.433  10.913 -1.5914 -1.7108  1.2743
  522MOL0     H68854   1.008   8.283  10.931  0.8307  0.5058 -1.7614
  522MOL0     H68855   0.875   8.375  11.125  0.9443 -0.5459  2.0655
  522MOL0     H68856   1.016   8.474  11.164 -1.8616  0.4050 -0.2078
  522MOL0     H68857   0.962   8.090  11.060 -0.5329 -0.0385  0.2271
  522MOL0     H68858   1.123   7.895  11.368 -0.1354  1.2497  0.1152
  522MOL0     H68859   1.074   7.858  11.199  1.4394 -0.8274  0.8691
  522MOL0     H68860   0.824   7.878  11.275 -0.5944  0.6077  0.5896
  522MOL0     H68861   0.885   7.887  11.441  3.0280 -1.2777  0.9188
  522MOL0     H68862   0.934   7.655  11.259 -2.0298  0.3815 -1.6382
  522MOL0     H68863   0.996   7.686  11.429 -1.6406 -1.3354  0.8002
  522MOL0     H68864   0.786   7.701  11.516  4.2832 -0.3965  0.9610
  522MOL0     H68865   0.799   7.548  11.433  1.6938 -0.2719  1.3188
  522MOL0     H68866   0.512   7.768  11.180 -1.5644 -1.6249 -1.1108
  522MOL0     H68867   0.258   7.697  11.203  2.1093  0.3331 -0.8870
  522MOL0     H68868   0.019   7.799  11.754 -1.4370 -0.0059  0.6400
  522MOL0     H68869  -0.208   7.826  11.835 -1.6933 -2.8246  3.2467
  522MOL0     H68870  -0.441   7.896  11.778 -0.0490  0.7085  1.4978
  522MOL0     H68871  -0.422   7.782  11.907 -0.1163 -0.4833 -0.2849
  522MOL0     H68872  -0.674   7.778  11.729 -0.5823  1.8651  0.5616
  522MOL0     H68873  -0.655   7.865  11.888 -0.3580  1.6371 -1.7745
  522MOL0     H68874  -0.604   7.644  11.986  2.9425 -0.4305 -1.9463
  522MOL0     H68875  -0.626   7.568  11.838  1.3468 -0.6577  3.1707
  522MOL0     H68876  -0.857   7.740  11.958 -0.6998 -1.3019  1.8427
  522MOL0     H68877  -0.876   7.635  11.819 -1.0981  4.8108 -0.3340
  522MOL0     H68878  -0.847   7.573  12.112 -3.0718  0.5051  0.5415
  522MOL0     H68879  -0.801   7.448  11.998  1.7273  1.3761 -0.4864
  522MOL0     H68880  -1.082   7.455  11.945  1.1307  2.2560 -1.7495
  522MOL0     H68881  -1.070   7.567  12.083  2.3664 -0.1278  0.7762
  522MOL0     H68882  -1.017   7.259  12.070  0.9680 -0.3192  1.5631
  522MOL0     H68883  -0.943   7.384  12.180  0.8236  1.1663 -0.7678
  522MOL0     H68884  -1.177   7.420  12.276  0.9901 -1.0746  0.8421
  522MOL0     H68885  -1.181   7.253  12.258  1.4154  2.5636  3.7254
  522MOL0     H68886  -0.338   7.536  11.547 -0.8872 -0.6768  3.0687
  522MOL0     H68887  -0.116   7.519  11.456 -2.1101 -1.4012  0.3270
  522MOL0     H68888   0.367   7.588  11.614  2.0173  0.8045  1.1681
  522MOL0     H68889   0.587   7.639  11.571  1.7089  2.4648 -1.0751
  522MOL0     H68890   1.771   8.667  10.941  1.4832  3.3743  2.0304
  522MOL0     H68891   1.961   8.805  11.001  2.9984  0.6190 -0.6893
  522MOL0     H68892   2.348   8.998  10.742 -2.0413  2.9819 -0.5028
  522MOL0     H68893   2.547   9.148  10.742 -0.1973  1.3761  0.7935
  522MOL0     H68894   2.741   9.231  10.802  1.6195  0.4096  1.6515
  522MOL0     H68895   2.814   9.361  10.883  0.5642  3.0907 -2.6754
  522MOL0     H68896   2.540   9.387  10.741  0.2433 -1.3067 -0.9017
  522MOL0     H68897   2.645   9.518  10.800  2.3596 -0.6585  2.1981
  522MOL0     H68898   2.664   9.449  10.539  0.9007 -1.0737 -0.7535
  522MOL0     H68899   2.779   9.336  10.609  0.7644  1.0044 -3.7370
  522MOL0     H68900   2.802   9.649  10.623  2.1738 -0.0535 -2.2113
  522MOL0     H68901   2.893   9.531  10.728 -0.5385  2.9174  2.1192
  522MOL0     H68902   3.045   9.508  10.338  0.4991  0.1098  1.0365
  522MOL0     H68903   2.507   9.207  11.162 -2.0751 -1.0005  0.7508
  522MOL0     H68904   2.332   9.034  11.171  1.0811  0.8408  1.1693
  523MOL0     O68905   8.917   9.070   8.261  0.5085 -0.0978  0.3997
  523MOL0     C68906   8.971   9.041   8.364 -0.3557 -0.1310 -0.3104
  523MOL0     O68907   8.924   8.970   8.462  0.3513 -0.3409  0.1171
  523MOL0     C68908   8.795   8.934   8.454 -0.0544 -0.3884 -0.2157
  523MOL0     C68909   8.686   9.017   8.492  0.3931  0.5881  0.3974
  523MOL0     C68910   8.554   8.960   8.500  0.1472  0.3307 -0.4048
  523MOL0     C68911   8.541   8.821   8.465 -0.1826  0.4534 -0.3408
  523MOL0     O68912   8.416   8.779   8.484  0.4063  0.0309  0.6353
  523MOL0     C68913   8.401   8.638   8.490 -0.0657  0.5592 -0.1228
  523MOL0     C68914   8.269   8.600   8.568 -0.6299  0.5288  0.6967
  523MOL0     C68915   8.144   8.649   8.503 -0.1706 -0.5072  0.2483
  523MOL0     C68916   8.015   8.592   8.563 -1.2846 -0.2326 -0.1617
  523MOL0     C68917   7.904   8.666   8.489  0.5914  0.3612 -0.2544
  523MOL0     C68918   7.769   8.596   8.505 -0.0253  0.7827  0.2717
  523MOL0     C68919   7.681   8.672   8.403 -0.1357 -0.2099 -0.3358
  523MOL0     C68920   7.542   8.606   8.404 -0.3131 -0.2401 -0.1783
  523MOL0     N68921   7.486   8.598   8.540  1.3028  0.9258  0.5140
  523MOL0     C68922   7.418   8.695   8.602  0.2234 -0.0754 -0.7437
  523MOL0     C68923   7.400   8.652   8.733 -0.0663 -0.1541  0.6704
  523MOL0     C68924   7.345   8.719   8.847 -0.6410  0.1568  0.1126
  523MOL0     C68925   7.197   8.693   8.855 -0.4752  0.0244 -0.1364
  523MOL0     C68926   7.137   8.775   8.970  0.5627  0.3401 -0.0333
  523MOL0     C68927   6.991   8.729   8.982  0.2251 -0.5543  1.3127
  523MOL0     O68928   6.915   8.793   8.871  0.5123  0.1136 -0.0052
  523MOL0     C68929   6.774   8.794   8.865 -0.8762  1.1971  0.9190
  523MOL0     C68930   6.714   8.873   8.765 -0.3219  0.2954 -0.3501
  523MOL0     C68931   6.573   8.866   8.734  0.0199 -0.4168 -0.8726
  523MOL0     C68932   6.493   8.776   8.809 -0.1031 -0.4747 -0.8772
  523MOL0     C68933   6.346   8.769   8.785 -0.0390  0.5104 -0.6858
  523MOL0     O68934   6.285   8.663   8.845  0.0452 -0.4153  0.4916
  523MOL0     C68935   6.151   8.653   8.847 -0.8389  0.0930 -0.2215
  523MOL0     C68936   6.082   8.717   8.955 -0.3509  0.2512 -0.3062
  523MOL0     C68937   5.945   8.730   8.958 -0.1925  0.1783 -0.3263
  523MOL0     C68938   5.864   8.671   8.857  0.9010 -0.2612 -0.0889
  523MOL0     O68939   5.727   8.686   8.862 -0.1039  1.7637 -0.6327
  523MOL0     C68940   5.632   8.660   8.761 -0.5644 -0.0446 -0.0877
  523MOL0     C68941   5.649   8.750   8.645  0.0338  0.1597  1.1526
  523MOL0     C68942   5.549   8.722   8.530  0.3430  0.2992  0.4889
  523MOL0     C68943   5.553   8.808   8.403  0.2559  0.1597  0.5132
  523MOL0     C68944   5.429   8.797   8.311 -0.3915  0.1523  0.0163
  523MOL0     C68945   5.450   8.694   8.197 -0.1686  0.1653 -1.0970
  523MOL0     C68946   5.329   8.671   8.106  0.5625 -0.0017 -0.1463
  523MOL0     C68947   5.272   8.796   8.031  0.7484  0.2337 -0.4531
  523MOL0    Cl68948   5.150   8.724   7.935  0.2471  0.1745 -0.1590
  523MOL0     C68949   5.931   8.613   8.748  0.3246  0.0249  0.3979
  523MOL0     C68950   6.075   8.615   8.740 -0.1668  0.3157 -0.0237
  523MOL0     O68951   6.289   8.854   8.720 -0.5340  0.3007 -0.1463
  523MOL0     C68952   6.556   8.693   8.913  0.5564 -0.9849  0.4164
  523MOL0     C68953   6.690   8.708   8.939 -0.1599  0.3239  0.8211
  523MOL0     N68954   7.446   8.524   8.749  0.4422 -0.4847  0.5047
  523MOL0     N68955   7.499   8.492   8.634  0.4832  0.4923  0.7987
  523MOL0     C68956   8.651   8.740   8.440  0.5113  0.3425 -0.8695
  523MOL0     C68957   8.772   8.796   8.440 -0.5447 -0.7736  0.5877
  523MOL0     C68958   9.111   9.086   8.380  0.3661 -0.6829 -0.3084
  523MOL0     C68959   9.192   9.045   8.484 -0.2621  0.2138  0.0783
  523MOL0     C68960   9.329   9.083   8.488  0.0690  0.3410 -0.1301
  523MOL0     C68961   9.386   9.185   8.410 -0.4132 -0.3661  0.5585
  523MOL0     O68962   9.515   9.214   8.432  0.0925 -0.0003  0.3713
  523MOL0     C68963   9.594   9.285   8.329  0.1770 -0.5464  0.0363
  523MOL0     C68964   9.728   9.313   8.389  0.3654  0.0311  0.0384
  523MOL0     C68965   9.709   9.411   8.513  0.2541  0.2172  1.1092
  523MOL0     C68966   9.840   9.464   8.563 -0.2419  0.4649  0.2640
  523MOL0     C68967   9.820   9.536   8.697 -0.1528  0.6701  0.1582
  523MOL0     C68968   9.791   9.594   8.796 -0.8001 -0.3095 -0.0421
  523MOL0     C68969   9.294   9.249   8.316  0.1439  0.6656 -0.4755
  523MOL0     C68970   9.160   9.200   8.304 -0.1118  0.7364  1.0087
  523MOL0     H68971   8.695   9.124   8.510  0.4253  0.7637 -0.6061
  523MOL0     H68972   8.464   9.012   8.531  0.4154  1.0394 -0.8032
  523MOL0     H68973   8.483   8.590   8.545 -0.4440  1.6496  1.4684
  523MOL0     H68974   8.395   8.598   8.388 -1.3074 -1.0041  0.5219
  523MOL0     H68975   8.272   8.631   8.673  3.6843  2.0075  0.3626
  523MOL0     H68976   8.260   8.491   8.572  0.6254  0.2754 -1.4857
  523MOL0     H68977   8.150   8.619   8.398  1.4611  0.3711  0.0499
  523MOL0     H68978   8.145   8.758   8.515  0.8503 -0.4664 -0.0834
  523MOL0     H68979   8.016   8.484   8.545  0.5224  0.3345 -4.8162
  523MOL0     H68980   8.016   8.604   8.672 -0.9465  0.6945 -0.2544
  523MOL0     H68981   7.933   8.690   8.386  1.4891 -0.0507 -0.1031
  523MOL0     H68982   7.893   8.770   8.522 -0.3930  1.3170 -3.2616
  523MOL0     H68983   7.730   8.598   8.607  1.3135  1.6478  0.8027
  523MOL0     H68984   7.782   8.490   8.481 -0.1325  0.5511  1.1838
  523MOL0     H68985   7.676   8.777   8.433 -2.1651 -0.2125 -0.4979
  523MOL0     H68986   7.728   8.668   8.304  2.4775 -1.0017  0.8584
  523MOL0     H68987   7.554   8.502   8.370 -0.2899  0.2244 -1.6725
  523MOL0     H68988   7.475   8.661   8.337 -2.6760  2.6903  4.1700
  523MOL0     H68989   7.381   8.791   8.568  1.2554  0.6973  0.2350
  523MOL0     H68990   7.357   8.827   8.858 -2.1236  0.1099  3.5071
  523MOL0     H68991   7.397   8.676   8.932 -1.0418 -2.4613 -0.8764
  523MOL0     H68992   7.187   8.585   8.871 -2.9491  0.5238  2.2711
  523MOL0     H68993   7.160   8.731   8.759  0.0507  1.6000  0.2633
  523MOL0     H68994   7.191   8.743   9.060  0.4055  2.0735  0.7213
  523MOL0     H68995   7.135   8.883   8.957 -1.4402  0.1938 -1.3786
  523MOL0     H68996   6.954   8.779   9.072 -1.8027  1.1661 -0.3875
  523MOL0     H68997   6.991   8.620   8.969  0.8798 -0.2993 -1.3484
  523MOL0     H68998   6.779   8.948   8.719 -2.0519  2.6438  0.8055
  523MOL0     H68999   6.526   8.929   8.659 -1.2380  1.7889  1.6170
  523MOL0     H69000   6.138   8.752   9.042  4.0514 -2.6177 -1.6736
  523MOL0     H69001   5.898   8.782   9.041  0.9943  3.2009 -1.4088
  523MOL0     H69002   5.526   8.665   8.787 -0.1916  2.7147  1.2443
  523MOL0     H69003   5.646   8.557   8.725  1.7496  0.2729 -0.2275
  523MOL0     H69004   5.747   8.749   8.596 -0.3196  2.4845  0.2784
  523MOL0     H69005   5.641   8.852   8.684 -1.8960  0.5264 -0.0617
  523MOL0     H69006   5.449   8.710   8.572  0.3809 -1.3900  0.1854
  523MOL0     H69007   5.579   8.622   8.498  0.5673  0.5607 -0.1165
  523MOL0     H69008   5.565   8.911   8.439 -0.1004  0.1303  0.7287
  523MOL0     H69009   5.642   8.789   8.343  0.6560  1.2345  0.7455
  523MOL0     H69010   5.406   8.890   8.259 -1.9445 -0.9922 -1.4683
  523MOL0     H69011   5.343   8.778   8.377 -0.2227  1.8410  0.7629
  523MOL0     H69012   5.471   8.595   8.239  0.6607 -0.1427 -2.1860
  523MOL0     H69013   5.542   8.718   8.141  0.5025  0.9672  0.2868
  523MOL0     H69014   5.351   8.598   8.027 -0.8399 -1.5327  0.8027
  523MOL0     H69015   5.246   8.636   8.168 -1.1082  0.9768 -1.7234
  523MOL0     H69016   5.338   8.836   7.953  0.7717 -0.8908 -1.0354
  523MOL0     H69017   5.236   8.872   8.100  2.9762  0.4999  0.4857
  523MOL0     H69018   5.870   8.562   8.674 -2.4188  2.5266  0.7905
  523MOL0     H69019   6.108   8.576   8.644 -2.2634 -3.3617  0.5863
  523MOL0     H69020   6.494   8.628   8.974 -1.5574 -0.1555 -0.7248
  523MOL0     H69021   6.730   8.646   9.019  1.5450 -0.9670 -0.9441
  523MOL0     H69022   8.643   8.633   8.428  1.1293  0.3436 -1.3796
  523MOL0     H69023   8.857   8.731   8.418  1.1049  1.5253 -0.2143
  523MOL0     H69024   9.169   8.970   8.558  0.5288  2.5800  2.8807
  523MOL0     H69025   9.392   9.025   8.554  0.0637 -2.0461 -2.1012
  523MOL0     H69026   9.539   9.371   8.291 -0.1518 -0.1034  1.4662
  523MOL0     H69027   9.610   9.215   8.247  1.5060 -1.2710  0.8728
  523MOL0     H69028   9.767   9.217   8.424 -0.7786 -0.0410  1.2122
  523MOL0     H69029   9.802   9.348   8.317  2.0935 -1.6477  0.8931
  523MOL0     H69030   9.673   9.350   8.596 -3.3034 -0.2694 -0.6097
  523MOL0     H69031   9.628   9.480   8.490  1.0441  0.7986 -0.0239
  523MOL0     H69032   9.908   9.379   8.575  0.0537  0.7976  1.1001
  523MOL0     H69033   9.886   9.536   8.495 -0.0120 -0.9941 -1.1748
  523MOL0     H69034   9.767   9.653   8.882 -0.0584 -1.6896  1.1742
  523MOL0     H69035   9.330   9.329   8.253  0.5480  0.3016 -0.7138
  523MOL0     H69036   9.091   9.257   8.243  0.3239 -0.4049 -0.5891
  524MOL0     O69037   2.409   7.997   6.590 -0.0023  0.9994  0.0977
  524MOL0     C69038   2.362   7.893   6.530 -0.4069 -0.7295 -0.3476
  524MOL0     O69039   2.442   7.792   6.475 -0.2987  0.0110  0.2274
  524MOL0     C69040   2.579   7.810   6.461 -0.1607 -0.6594  0.0538
  524MOL0     C69041   2.643   7.925   6.403 -0.3877  0.3454 -0.2559
  524MOL0     C69042   2.781   7.928   6.397  0.2166  0.8410  0.0840
  524MOL0     C69043   2.861   7.818   6.442 -1.1167  0.1092 -0.5233
  524MOL0     O69044   3.002   7.819   6.417 -0.0393 -1.0757  0.2693
  524MOL0     C69045   3.088   7.717   6.477 -0.0411 -0.3495  0.0045
  524MOL0     C69046   3.235   7.742   6.439  0.5318 -0.0612  0.2213
  524MOL0     C69047   3.257   7.740   6.291  0.2318 -0.0925 -0.5277
  524MOL0     C69048   3.407   7.757   6.258  1.1412 -0.7543  0.0514
  524MOL0     C69049   3.448   7.910   6.224  0.2389 -0.6716 -1.2055
  524MOL0     C69050   3.597   7.914   6.242 -0.4241 -0.7765  0.8765
  524MOL0     C69051   3.668   8.041   6.186  0.2630 -0.2843 -0.0116
  524MOL0     C69052   3.658   8.141   6.292 -0.1631 -1.0667 -0.6840
  524MOL0     N69053   3.686   8.274   6.251  0.2229 -0.6782  0.4214
  524MOL0     C69054   3.595   8.378   6.257  0.0696  0.5928 -0.3998
  524MOL0     C69055   3.665   8.490   6.228  0.2163  0.2665  0.1733
  524MOL0     C69056   3.617   8.632   6.225  0.2463  0.5515 -0.9054
  524MOL0     C69057   3.468   8.666   6.230 -0.5574 -0.3117 -0.4542
  524MOL0     C69058   3.418   8.738   6.358  0.2280 -1.6168 -0.1897
  524MOL0     C69059   3.264   8.746   6.373 -0.4105 -1.4655  0.5083
  524MOL0     O69060   3.226   8.794   6.500  0.3160 -0.2552 -0.1275
  524MOL0     C69061   3.092   8.796   6.535 -0.9186 -0.9325 -0.7839
  524MOL0     C69062   3.062   8.845   6.660  0.5963  1.0117 -0.2133
  524MOL0     C69063   2.931   8.849   6.697 -0.0129 -0.0229 -0.0393
  524MOL0     C69064   2.827   8.825   6.611  0.1735  0.0325  0.3912
  524MOL0     C69065   2.690   8.842   6.659 -0.3268  0.4882 -0.9294
  524MOL0     O69066   2.594   8.770   6.594 -0.2263  0.0145  0.3684
  524MOL0     C69067   2.473   8.749   6.656 -0.7067  0.5875 -0.7690
  524MOL0     C69068   2.367   8.830   6.625  0.5677 -0.2717  0.1326
  524MOL0     C69069   2.246   8.810   6.683  0.7948 -1.2823  0.1000
  524MOL0     C69070   2.225   8.700   6.762 -0.3284  1.0922  0.0571
  524MOL0     O69071   2.094   8.692   6.811  0.6262  0.4075  0.6942
  524MOL0     C69072   2.040   8.578   6.870 -0.1123  0.8709 -0.8345
  524MOL0     C69073   1.955   8.607   6.990 -0.8238  0.1782  0.2416
  524MOL0     C69074   1.813   8.645   6.957  0.8911 -0.1147  0.4359
  524MOL0     C69075   1.728   8.516   6.928  0.6870 -0.1313  0.2104
  524MOL0     C69076   1.586   8.545   6.880 -0.4947 -0.4484  0.3026
  524MOL0     C69077   1.505   8.415   6.862 -0.7999  0.9497  0.7841
  524MOL0     C69078   1.441   8.355   6.985  1.5254  0.2385 -1.0728
  524MOL0     C69079   1.292   8.393   7.003  0.1329 -0.5462  0.7115
  524MOL0    Cl69080   1.195   8.346   6.863  0.6212 -0.2429 -0.2363
  524MOL0     C69081   2.333   8.615   6.796  0.5069 -0.1676 -0.4497
  524MOL0     C69082   2.458   8.646   6.748  0.3248  0.5077 -0.5337
  524MOL0     O69083   2.668   8.906   6.761 -0.0576 -0.9042  0.1818
  524MOL0     C69084   2.855   8.790   6.481  0.0464  0.2124  0.3788
  524MOL0     C69085   2.990   8.764   6.446  0.1564 -0.8011  0.6645
  524MOL0     N69086   3.798   8.452   6.212 -0.2736  0.4828  0.8571
  524MOL0     N69087   3.808   8.326   6.215  0.3677 -0.4525 -0.2285
  524MOL0     C69088   2.796   7.713   6.499  0.4994  0.4114  0.2235
  524MOL0     C69089   2.660   7.711   6.507  0.3406  0.5430 -1.2637
  524MOL0     C69090   2.217   7.853   6.538  0.6135  0.1880  0.0756
  524MOL0     C69091   2.118   7.943   6.568  0.8234 -0.7261 -0.3577
  524MOL0     C69092   1.989   7.905   6.590  0.3495  1.5820  0.4504
  524MOL0     C69093   1.964   7.764   6.591 -0.0276  0.3172 -0.3919
  524MOL0     O69094   1.845   7.704   6.618  0.8825 -0.6978  0.6482
  524MOL0     C69095   1.736   7.793   6.631 -0.2767 -0.1822  0.4748
  524MOL0     C69096   1.588   7.731   6.648 -0.2345  0.4708  0.4765
  524MOL0     C69097   1.579   7.596   6.727 -0.8168  0.7122  0.8111
  524MOL0     C69098   1.448   7.517   6.691 -0.9069 -0.0401 -0.7538
  524MOL0     C69099   1.472   7.466   6.559 -0.4476 -0.0790 -0.1148
  524MOL0     C69100   1.517   7.431   6.448 -0.6487 -0.2788 -0.3172
  524MOL0     C69101   2.063   7.671   6.549  0.3442  0.7090 -0.5267
  524MOL0     C69102   2.190   7.714   6.527  0.2323 -0.4867  0.2648
  524MOL0     H69103   2.581   8.012   6.380  0.4607  1.7997  2.5174
  524MOL0     H69104   2.818   8.015   6.343 -0.4123  0.7682 -0.4728
  524MOL0     H69105   3.071   7.620   6.430  1.3895 -0.4100 -0.4184
  524MOL0     H69106   3.078   7.711   6.585  2.2338  0.1156  0.2895
  524MOL0     H69107   3.303   7.677   6.494 -0.0056 -0.1316  0.8191
  524MOL0     H69108   3.251   7.850   6.451 -2.3529  0.2797  1.8411
  524MOL0     H69109   3.207   7.817   6.232 -0.2736  0.7421  0.9577
  524MOL0     H69110   3.238   7.638   6.255 -2.9156 -0.2109  1.1387
  524MOL0     H69111   3.473   7.729   6.341 -0.5990 -1.2146  1.3365
  524MOL0     H69112   3.437   7.701   6.169 -0.7454 -0.4959 -0.8015
  524MOL0     H69113   3.402   7.990   6.281  2.5905  1.2311 -1.8140
  524MOL0     H69114   3.423   7.926   6.119 -0.6188  0.2378 -0.8656
  524MOL0     H69115   3.634   7.831   6.182  1.8845  0.6732  0.1636
  524MOL0     H69116   3.616   7.903   6.349  2.1720 -1.7465  0.3852
  524MOL0     H69117   3.772   8.016   6.164 -0.1648 -1.9754 -0.2399
  524MOL0     H69118   3.626   8.080   6.092 -0.1521 -1.2539 -0.2365
  524MOL0     H69119   3.732   8.131   6.371 -1.7700 -1.8618  0.8018
  524MOL0     H69120   3.562   8.144   6.344  1.7855 -1.6781  3.3303
  524MOL0     H69121   3.492   8.372   6.290  0.6929  0.2098  1.5926
  524MOL0     H69122   3.663   8.683   6.140  0.0362 -0.0175 -1.3672
  524MOL0     H69123   3.674   8.674   6.308  1.3497 -1.5126 -0.5646
  524MOL0     H69124   3.410   8.577   6.206  1.7935 -2.2564  0.6282
  524MOL0     H69125   3.451   8.730   6.142 -2.4651 -2.8849 -2.0946
  524MOL0     H69126   3.454   8.688   6.448 -0.0813  2.2086  2.2546
  524MOL0     H69127   3.458   8.839   6.358 -0.6323 -1.2393 -1.6328
  524MOL0     H69128   3.226   8.643   6.375 -2.8767 -0.6302  0.1743
  524MOL0     H69129   3.215   8.800   6.292 -1.0735 -1.8146  0.6671
  524MOL0     H69130   3.127   8.882   6.739  0.8640  0.0339  0.0371
  524MOL0     H69131   2.904   8.885   6.796 -3.3956  0.1051 -0.8788
  524MOL0     H69132   2.386   8.914   6.560  0.2766  0.2421  0.7004
  524MOL0     H69133   2.161   8.873   6.657  1.8920 -0.0244 -0.5783
  524MOL0     H69134   2.122   8.511   6.899 -0.7157  0.8156  0.8379
  524MOL0     H69135   1.980   8.522   6.798  0.5086 -1.0007  0.0519
  524MOL0     H69136   2.009   8.694   7.028 -1.0711  1.6807 -2.5133
  524MOL0     H69137   1.957   8.519   7.055 -0.4541  0.0134  0.0093
  524MOL0     H69138   1.814   8.708   6.867 -0.4125  1.1966  1.2971
  524MOL0     H69139   1.763   8.700   7.037  0.4240  1.8069 -1.0900
  524MOL0     H69140   1.777   8.466   6.844 -1.4525 -0.6126 -0.8449
  524MOL0     H69141   1.722   8.454   7.018 -0.5981  0.6137  0.6667
  524MOL0     H69142   1.597   8.595   6.783  0.8371 -5.5671 -2.5189
  524MOL0     H69143   1.542   8.609   6.958 -0.9671 -2.8546  2.1507
  524MOL0     H69144   1.560   8.334   6.814 -2.6242  0.4415 -0.5267
  524MOL0     H69145   1.430   8.436   6.786 -0.4325  0.9361  0.4108
  524MOL0     H69146   1.448   8.246   6.986 -2.4475 -0.1413 -1.5741
  524MOL0     H69147   1.492   8.399   7.072 -1.1730 -0.4831  0.9995
  524MOL0     H69148   1.282   8.498   7.034  0.8195 -0.7402  1.6031
  524MOL0     H69149   1.251   8.328   7.081  0.4391  0.8483  2.0854
  524MOL0     H69150   2.333   8.523   6.854  1.7746 -0.8476 -1.4884
  524MOL0     H69151   2.533   8.578   6.788 -1.1866 -2.6795 -2.6456
  524MOL0     H69152   2.782   8.773   6.402  0.8646  2.3759 -0.9105
  524MOL0     H69153   3.017   8.751   6.342  1.7286  2.0503  0.6139
  524MOL0     H69154   2.855   7.630   6.537  1.0142  0.1929 -1.0078
  524MOL0     H69155   2.623   7.638   6.579  0.4347  2.3257  0.6990
  524MOL0     H69156   2.145   8.047   6.583 -0.2900 -0.7423  2.4902
  524MOL0     H69157   1.926   7.989   6.619 -1.3858  1.2329 -1.9601
  524MOL0     H69158   1.734   7.862   6.546 -0.5561  0.1108  0.7163
  524MOL0     H69159   1.745   7.850   6.724  0.8098 -1.4231  1.1622
  524MOL0     H69160   1.518   7.799   6.697 -1.4650 -0.7896  0.5192
  524MOL0     H69161   1.546   7.729   6.548  1.3869  4.4058 -0.4802
  524MOL0     H69162   1.584   7.612   6.836  1.0103  1.6806  0.6222
  524MOL0     H69163   1.668   7.535   6.713 -1.0441  0.7016 -0.6597
  524MOL0     H69164   1.439   7.428   6.754 -0.8306 -0.4988 -1.3875
  524MOL0     H69165   1.356   7.575   6.698 -3.1389 -3.1565 -2.2339
  524MOL0     H69166   1.573   7.391   6.366  0.8671 -0.1082  0.6042
  524MOL0     H69167   2.045   7.564   6.550  0.6834  0.6488  0.2298
  524MOL0     H69168   2.273   7.646   6.508  0.4016 -0.2242  0.0556
  525MOL0     O69169   7.382   6.932   5.047  0.0988 -0.1339  0.6027
  525MOL0     C69170   7.479   7.005   5.079  0.6015 -0.1824  0.4154
  525MOL0     O69171   7.518   7.037   5.207  1.1175 -0.0229 -0.0137
  525MOL0     C69172   7.440   7.015   5.314  0.1505  0.4448 -0.8792
  525MOL0     C69173   7.507   6.978   5.430  0.4471 -0.1746  1.3755
  525MOL0     C69174   7.430   6.959   5.542  0.6448  0.1562 -0.5062
  525MOL0     C69175   7.289   6.953   5.550 -0.0479 -0.4130  0.7533
  525MOL0     O69176   7.220   6.907   5.653 -0.8360  0.9988 -0.1198
  525MOL0     C69177   7.283   6.871   5.782 -0.4501  0.0739 -0.3982
  525MOL0     C69178   7.353   6.729   5.782  0.8431 -0.2697 -0.4723
  525MOL0     C69179   7.396   6.687   5.924  0.0177  1.0380 -0.5457
  525MOL0     C69180   7.456   6.551   5.919  0.6539  0.4286  0.3902
  525MOL0     C69181   7.508   6.496   6.054  1.9472  0.1792  0.7110
  525MOL0     C69182   7.409   6.483   6.170  0.8089 -0.9531 -0.4725
  525MOL0     C69183   7.477   6.437   6.306 -0.4712  0.2495  0.4068
  525MOL0     C69184   7.506   6.282   6.313 -0.6617 -0.1669 -0.2097
  525MOL0     N69185   7.390   6.205   6.353  0.5579 -0.2037  0.0719
  525MOL0     C69186   7.400   6.070   6.367 -0.5571 -0.3943  0.7992
  525MOL0     C69187   7.290   6.031   6.428  0.0754 -0.3431 -0.0944
  525MOL0     C69188   7.245   5.895   6.467  0.8045  0.6438  0.0975
  525MOL0     C69189   7.131   5.830   6.371 -0.7238 -1.0080 -0.8047
  525MOL0     C69190   7.085   5.696   6.430 -0.4079 -0.6523  0.3296
  525MOL0     C69191   6.965   5.713   6.511  0.0072  1.1167 -0.7633
  525MOL0     O69192   6.902   5.582   6.527  0.1365  0.3200  0.4738
  525MOL0     C69193   6.773   5.585   6.569 -0.2861  0.8076 -0.8254
  525MOL0     C69194   6.675   5.690   6.561  0.8810  0.2815 -0.5347
  525MOL0     C69195   6.550   5.670   6.611  0.3914  0.5681  0.8512
  525MOL0     C69196   6.504   5.543   6.648  0.8112 -0.6297 -0.2597
  525MOL0     C69197   6.357   5.505   6.686  0.1608 -0.0166  0.3258
  525MOL0     O69198   6.288   5.602   6.742  0.9657 -0.5469 -0.2338
  525MOL0     C69199   6.157   5.575   6.783  0.0847  0.5182 -0.2399
  525MOL0     C69200   6.116   5.613   6.913  0.5142 -0.4596  0.6278
  525MOL0     C69201   5.982   5.597   6.954 -1.1226 -0.9907 -0.6667
  525MOL0     C69202   5.885   5.551   6.865  0.2357  0.1751 -0.9879
  525MOL0     O69203   5.751   5.525   6.898  0.5041 -0.3312 -0.2830
  525MOL0     C69204   5.697   5.618   6.989 -0.6359 -0.0031 -0.8810
  525MOL0     C69205   5.701   5.563   7.122 -0.2235 -0.2620 -0.7247
  525MOL0     C69206   5.612   5.442   7.142  0.2561  0.5851 -0.4710
  525MOL0     C69207   5.650   5.354   7.263 -0.0991  0.3108 -0.1228
  525MOL0     C69208   5.728   5.222   7.224 -0.5496 -0.4011 -0.7304
  525MOL0     C69209   5.696   5.112   7.324 -0.6022 -1.1804 -0.3002
  525MOL0     C69210   5.803   5.080   7.430  0.2552 -0.6055 -0.1072
  525MOL0     C69211   5.859   5.194   7.522 -0.4420  0.7122  0.1797
  525MOL0    Cl69212   5.932   5.135   7.668 -0.1942  0.0806 -0.1495
  525MOL0     C69213   5.931   5.505   6.739  0.1793 -0.4798 -0.3309
  525MOL0     C69214   6.060   5.513   6.704 -1.0185 -0.3944 -0.0051
  525MOL0     O69215   6.319   5.395   6.659  0.2959  0.0811 -0.1279
  525MOL0     C69216   6.597   5.441   6.651  0.3105  0.1197 -0.2092
  525MOL0     C69217   6.730   5.463   6.606  0.4220 -0.2302 -0.2425
  525MOL0     N69218   7.215   6.139   6.455  0.6323 -0.7587 -0.3233
  525MOL0     N69219   7.274   6.249   6.411  0.9062  0.7924 -0.6486
  525MOL0     C69220   7.226   6.996   5.430  0.2740 -0.4624 -0.1744
  525MOL0     C69221   7.303   7.040   5.320  0.2293  0.6044  0.7226
  525MOL0     C69222   7.568   7.056   4.981  0.0466  0.3227  1.0866
  525MOL0     C69223   7.560   7.016   4.847 -0.5776 -0.3219  0.4301
  525MOL0     C69224   7.657   7.049   4.750  0.1639  0.1338  0.5160
  525MOL0     C69225   7.743   7.156   4.784 -0.7650 -0.2717 -0.1272
  525MOL0     O69226   7.831   7.209   4.695 -0.1553 -0.3171  0.1070
  525MOL0     C69227   7.918   7.122   4.632 -0.6136  0.3454  0.0414
  525MOL0     C69228   7.991   7.200   4.520 -0.4133 -0.0020 -0.1694
  525MOL0     C69229   8.090   7.297   4.579 -0.8112 -0.2048  0.8724
  525MOL0     C69230   8.182   7.365   4.470  0.5382 -0.0595  0.5069
  525MOL0     C69231   8.271   7.272   4.407  0.1077 -0.2268 -0.3142
  525MOL0     C69232   8.342   7.189   4.360 -0.3320  0.5888  0.0202
  525MOL0     C69233   7.749   7.210   4.916 -0.0269  0.2385 -0.3509
  525MOL0     C69234   7.671   7.154   5.010  0.4040 -0.1725  0.0749
  525MOL0     H69235   7.614   6.969   5.437  0.2597 -2.1182  2.5366
  525MOL0     H69236   7.487   6.936   5.632 -0.1413  1.7721  0.4677
  525MOL0     H69237   7.204   6.863   5.857 -2.4500 -0.6061 -2.4613
  525MOL0     H69238   7.362   6.934   5.823 -0.6070 -0.6689  1.0947
  525MOL0     H69239   7.434   6.732   5.709 -0.0323  0.1684 -1.4586
  525MOL0     H69240   7.283   6.655   5.742 -0.4492  0.1687  0.8726
  525MOL0     H69241   7.313   6.693   5.995  2.2567  2.6299  2.1617
  525MOL0     H69242   7.471   6.757   5.963  0.3747 -0.0041  0.7145
  525MOL0     H69243   7.382   6.491   5.866 -0.5575  2.3083 -0.1544
  525MOL0     H69244   7.542   6.570   5.855 -0.3827  0.2645 -1.1074
  525MOL0     H69245   7.584   6.566   6.090  2.5636  1.8246 -3.2022
  525MOL0     H69246   7.552   6.398   6.033  2.1514  0.3128  0.4961
  525MOL0     H69247   7.333   6.407   6.148  0.4559 -0.7863  0.1831
  525MOL0     H69248   7.359   6.576   6.198  1.8633 -0.7414  0.8177
  525MOL0     H69249   7.577   6.482   6.309  0.1558 -0.9328 -1.1441
  525MOL0     H69250   7.422   6.456   6.399 -1.0504  0.9219 -0.0704
  525MOL0     H69251   7.583   6.274   6.391 -0.0272  1.1169 -0.6644
  525MOL0     H69252   7.552   6.255   6.218 -1.4755 -0.1588 -0.6122
  525MOL0     H69253   7.483   6.008   6.334  0.3090  0.3941  1.4323
  525MOL0     H69254   7.201   5.901   6.567  0.1798 -2.5282  0.1189
  525MOL0     H69255   7.328   5.824   6.463  0.3417  0.1353 -3.0833
  525MOL0     H69256   7.195   5.809   6.285  1.6751  0.0215  0.6320
  525MOL0     H69257   7.051   5.899   6.342 -0.0328 -0.9330 -2.6967
  525MOL0     H69258   7.052   5.636   6.345  2.9833 -2.3363  0.0363
  525MOL0     H69259   7.163   5.643   6.487 -1.0879 -1.9133  0.1227
  525MOL0     H69260   6.892   5.778   6.463 -2.4083 -0.7521  0.1102
  525MOL0     H69261   6.996   5.758   6.606  2.5552  2.1681 -2.0181
  525MOL0     H69262   6.701   5.792   6.536  2.4287 -0.0214 -0.2304
  525MOL0     H69263   6.476   5.748   6.596 -0.2418 -0.3884 -1.5433
  525MOL0     H69264   6.191   5.640   6.987  0.0379  1.6813  0.3991
  525MOL0     H69265   5.945   5.638   7.047 -0.5144 -0.2996 -0.7223
  525MOL0     H69266   5.595   5.646   6.961  0.3417  2.2733 -2.5008
  525MOL0     H69267   5.754   5.711   6.988 -3.3493  1.7609 -1.0130
  525MOL0     H69268   5.673   5.641   7.193  1.9353 -1.3962  1.5728
  525MOL0     H69269   5.800   5.520   7.142 -0.8368 -1.4229 -0.0470
  525MOL0     H69270   5.611   5.387   7.047  2.9356 -1.5877  0.6222
  525MOL0     H69271   5.508   5.473   7.150  0.4144  1.1791 -0.7075
  525MOL0     H69272   5.718   5.397   7.337  1.7101 -2.6526  0.1339
  525MOL0     H69273   5.551   5.335   7.304 -0.1320  2.8907  1.1702
  525MOL0     H69274   5.833   5.249   7.209 -0.4244 -1.2631 -1.4414
  525MOL0     H69275   5.706   5.185   7.124  3.1472 -1.3124 -1.3341
  525MOL0     H69276   5.657   5.023   7.272 -0.1125 -0.9555 -1.0649
  525MOL0     H69277   5.608   5.145   7.380 -1.3673 -4.1866  0.4495
  525MOL0     H69278   5.737   5.022   7.496 -1.7408  1.0354 -0.5332
  525MOL0     H69279   5.885   5.025   7.384 -1.7003 -3.6921 -0.2462
  525MOL0     H69280   5.786   5.273   7.541  2.2520  3.4370 -0.0345
  525MOL0     H69281   5.921   5.251   7.453 -2.4285  1.9975 -0.6478
  525MOL0     H69282   5.863   5.464   6.665 -0.6957  1.5399 -0.7300
  525MOL0     H69283   6.084   5.475   6.605 -1.1024 -0.6078  0.0562
  525MOL0     H69284   6.573   5.340   6.682  3.5753 -0.3208  1.2594
  525MOL0     H69285   6.804   5.385   6.608  1.0349  0.3500  1.7943
  525MOL0     H69286   7.117   7.003   5.425  0.3444  1.3560  0.0061
  525MOL0     H69287   7.250   7.063   5.229  1.6913 -3.1830 -1.3285
  525MOL0     H69288   7.468   6.962   4.831 -0.9295  0.6637 -1.0583
  525MOL0     H69289   7.649   7.017   4.647 -0.3201 -0.6458  0.7842
  525MOL0     H69290   7.864   7.040   4.584  2.5128 -2.0455  0.3074
  525MOL0     H69291   7.990   7.073   4.698 -1.1058 -0.5103 -0.0371
  525MOL0     H69292   8.047   7.129   4.458  0.6792 -1.6344  2.4802
  525MOL0     H69293   7.921   7.250   4.453 -0.0356  2.7278  1.3052
  525MOL0     H69294   8.158   7.240   4.643  0.2631 -1.2266 -1.0946
  525MOL0     H69295   8.032   7.371   4.635 -0.2497  0.8464  0.1268
  525MOL0     H69296   8.116   7.415   4.398  1.5858  1.3096  0.4416
  525MOL0     H69297   8.248   7.437   4.519 -0.3508  1.3446 -0.3087
  525MOL0     H69298   8.415   7.126   4.313 -3.0895 -0.7542 -2.8711
  525MOL0     H69299   7.817   7.292   4.934  0.6067 -0.4181  0.3302
  525MOL0     H69300   7.684   7.208   5.103  0.0932 -1.2499  0.7511
  526MOL0     O69301   4.919   3.073   2.758 -0.2909 -0.8340  0.4232
  526MOL0     C69302   4.972   2.966   2.724  0.2779 -0.3999 -0.3509
  526MOL0     O69303   4.915   2.880   2.629 -0.5986  0.2713 -0.1660
  526MOL0     C69304   4.782   2.885   2.593 -0.6153  0.0883 -0.3213
  526MOL0     C69305   4.678   2.902   2.688  0.1379  0.3076 -0.0190
  526MOL0     C69306   4.548   2.882   2.643  0.9568  0.6025 -0.1301
  526MOL0     C69307   4.512   2.850   2.516  0.5739  1.0362 -0.2965
  526MOL0     O69308   4.381   2.840   2.502 -0.1470 -0.0413 -0.3982
  526MOL0     C69309   4.336   2.815   2.370 -0.2773 -0.6278 -0.0636
  526MOL0     C69310   4.194   2.762   2.374 -0.1562 -0.4375  0.7159
  526MOL0     C69311   4.161   2.713   2.231 -0.9055 -0.0028  0.5572
  526MOL0     C69312   4.011   2.728   2.202 -0.2067 -0.3776 -0.7276
  526MOL0     C69313   3.978   2.672   2.066  0.2066 -0.3710 -0.5762
  526MOL0     C69314   3.827   2.677   2.036  1.1726  0.3405 -1.1391
  526MOL0     C69315   3.795   2.676   1.880 -0.0970 -1.0212 -0.5153
  526MOL0     C69316   3.641   2.659   1.848  0.6800 -0.6181 -1.0541
  526MOL0     N69317   3.592   2.534   1.889 -0.1559  0.5461 -0.5692
  526MOL0     C69318   3.557   2.434   1.803  0.6785  1.1873  0.4029
  526MOL0     C69319   3.482   2.344   1.871  0.2442 -0.5838 -0.6144
  526MOL0     C69320   3.409   2.216   1.833 -0.6251 -0.1800 -0.1089
  526MOL0     C69321   3.273   2.247   1.767  0.1850 -0.2510 -0.2890
  526MOL0     C69322   3.193   2.120   1.727  0.4346  0.0146 -0.2811
  526MOL0     C69323   3.060   2.166   1.676  0.7917  0.3380  0.2400
  526MOL0     O69324   2.957   2.168   1.771  0.7646  0.0715  0.5634
  526MOL0     C69325   2.828   2.202   1.733 -0.9268  0.4134 -0.7708
  526MOL0     C69326   2.732   2.190   1.829  0.2825  0.9097 -0.0922
  526MOL0     C69327   2.601   2.228   1.809  0.5695  0.1406 -0.5216
  526MOL0     C69328   2.567   2.290   1.686 -0.0917 -0.1693 -0.0818
  526MOL0     C69329   2.431   2.312   1.666 -0.7122  0.2585 -0.6941
  526MOL0     O69330   2.349   2.325   1.776 -0.9291  0.4171 -0.2606
  526MOL0     C69331   2.211   2.337   1.761  0.0167  0.1317  0.8874
  526MOL0     C69332   2.143   2.406   1.657 -0.7614  0.3603 -0.5575
  526MOL0     C69333   2.004   2.415   1.651 -0.3699 -0.2620  0.1738
  526MOL0     C69334   1.923   2.371   1.759  0.2052 -0.3308  0.3013
  526MOL0     O69335   1.785   2.383   1.748 -0.1971  0.0800  0.3137
  526MOL0     C69336   1.723   2.454   1.857  0.3780 -0.3051  0.8700
  526MOL0     C69337   1.595   2.523   1.802  0.4534  0.8341  0.5635
  526MOL0     C69338   1.625   2.639   1.713 -0.3089 -0.0548 -0.9119
  526MOL0     C69339   1.650   2.767   1.798 -0.6073 -0.5375  0.0432
  526MOL0     C69340   1.663   2.904   1.722  0.5694 -0.0904  0.3542
  526MOL0     C69341   1.728   2.900   1.582  0.0419 -0.3686  0.5584
  526MOL0     C69342   1.875   2.871   1.587 -0.2567  0.5377  0.1067
  526MOL0     C69343   1.921   2.794   1.462 -0.7376  0.3952  0.4711
  526MOL0    Cl69344   1.888   2.877   1.317 -0.0029 -0.3580  0.2414
  526MOL0     C69345   1.994   2.306   1.864 -0.0508  0.4609 -0.0151
  526MOL0     C69346   2.132   2.284   1.856  0.1726 -0.3790 -0.5387
  526MOL0     O69347   2.401   2.320   1.551  0.5746 -1.1108  0.4755
  526MOL0     C69348   2.661   2.295   1.586 -0.6488 -0.4974  0.0341
  526MOL0     C69349   2.795   2.256   1.611  0.1908 -0.2369 -0.9911
  526MOL0     N69350   3.487   2.380   2.004  0.9868  0.1650  0.4723
  526MOL0     N69351   3.537   2.497   2.009  0.1906  0.0762  0.8322
  526MOL0     C69352   4.615   2.821   2.429 -0.2481  0.0881  0.0661
  526MOL0     C69353   4.749   2.838   2.466  0.1666  0.1461  0.0472
  526MOL0     C69354   5.103   2.941   2.779 -0.6816 -0.3635  1.0432
  526MOL0     C69355   5.178   2.827   2.752 -0.4293  0.7288 -0.4270
  526MOL0     C69356   5.307   2.811   2.798 -0.0547  0.3079 -0.5304
  526MOL0     C69357   5.373   2.909   2.865 -0.5136  0.3821  0.3288
  526MOL0     O69358   5.488   2.856   2.921 -0.1593 -0.3608  0.3439
  526MOL0     C69359   5.609   2.935   2.894  1.2765 -0.0928  0.7887
  526MOL0     C69360   5.685   2.960   3.019 -0.3054 -0.3538 -0.2468
  526MOL0     C69361   5.769   3.089   2.989 -0.7880  0.4466  0.2955
  526MOL0     C69362   5.878   3.099   3.105  0.0139  0.2144  0.5541
  526MOL0     C69363   5.918   3.244   3.135  0.4801  0.3153  0.8721
  526MOL0     C69364   5.937   3.364   3.151  0.3326 -0.1836  0.5973
  526MOL0     C69365   5.307   3.018   2.903 -0.7358  0.0763 -0.3006
  526MOL0     C69366   5.166   3.036   2.860  0.0750  0.4845  0.0474
  526MOL0     H69367   4.696   2.923   2.793 -0.5666  3.5531 -0.4423
  526MOL0     H69368   4.465   2.905   2.709 -0.9975 -1.5816 -1.6218
  526MOL0     H69369   4.406   2.752   2.315 -0.1196 -0.9309  0.4691
  526MOL0     H69370   4.340   2.914   2.324 -0.0110 -0.4595  0.3094
  526MOL0     H69371   4.133   2.841   2.421  0.4154 -1.1243  2.7215
  526MOL0     H69372   4.188   2.665   2.424 -2.9196 -1.2211 -0.9126
  526MOL0     H69373   4.197   2.611   2.215  0.6955  0.5637  0.3281
  526MOL0     H69374   4.215   2.782   2.166  0.2106 -1.0714  0.3021
  526MOL0     H69375   3.941   2.681   2.271  0.8777  0.1549  0.7943
  526MOL0     H69376   3.986   2.833   2.218 -0.4292 -0.2777 -1.6558
  526MOL0     H69377   4.010   2.568   2.069  1.0553 -0.1099 -0.2559
  526MOL0     H69378   4.030   2.736   1.994 -0.1721  2.4378  1.4709
  526MOL0     H69379   3.778   2.761   2.087 -1.9347 -1.3173 -1.1725
  526MOL0     H69380   3.779   2.596   2.091 -1.1875  1.8358 -0.8313
  526MOL0     H69381   3.834   2.767   1.834 -1.6753 -0.5276 -0.9234
  526MOL0     H69382   3.843   2.586   1.840  1.2727 -1.2222  1.4497
  526MOL0     H69383   3.614   2.680   1.744 -1.0299 -1.3515 -0.7921
  526MOL0     H69384   3.587   2.736   1.903  2.7336 -0.3245  0.7045
  526MOL0     H69385   3.579   2.421   1.698  0.7716 -0.2809  0.5832
  526MOL0     H69386   3.386   2.154   1.921 -0.9756  0.2146  0.0797
  526MOL0     H69387   3.481   2.155   1.777  1.2939  0.4023  1.6032
  526MOL0     H69388   3.284   2.317   1.684 -2.6202  0.8543  0.1298
  526MOL0     H69389   3.221   2.299   1.848  1.7469  1.4543 -0.3208
  526MOL0     H69390   3.246   2.062   1.651  2.8329 -0.5068  1.6232
  526MOL0     H69391   3.168   2.059   1.815  0.4861  1.0742  0.4829
  526MOL0     H69392   3.020   2.083   1.617  1.0106 -0.7752  1.6034
  526MOL0     H69393   3.068   2.255   1.613 -0.6450 -1.6771 -3.0539
  526MOL0     H69394   2.762   2.149   1.926 -2.8685 -4.4450 -0.9462
  526MOL0     H69395   2.529   2.228   1.889  2.0364 -0.0377  0.8388
  526MOL0     H69396   2.201   2.453   1.579 -1.3524 -1.9916 -2.5733
  526MOL0     H69397   1.965   2.474   1.568  0.5254 -0.1239 -0.1562
  526MOL0     H69398   1.792   2.532   1.891 -0.0239  0.8405 -0.8323
  526MOL0     H69399   1.699   2.387   1.940 -0.6705  0.5316  1.2555
  526MOL0     H69400   1.527   2.560   1.879 -1.2081  0.9231 -0.8671
  526MOL0     H69401   1.542   2.439   1.756  2.5680 -0.5357  0.5425
  526MOL0     H69402   1.543   2.662   1.643 -1.3226  4.1741  1.2983
  526MOL0     H69403   1.715   2.618   1.656  0.2248  0.5951 -0.3232
  526MOL0     H69404   1.560   2.791   1.855 -0.4199  1.8365 -0.5535
  526MOL0     H69405   1.739   2.749   1.860  0.5244  4.5435  0.3340
  526MOL0     H69406   1.728   2.964   1.787 -1.7213 -0.0361  2.7520
  526MOL0     H69407   1.563   2.947   1.721  0.6947  0.2196 -0.9854
  526MOL0     H69408   1.717   3.001   1.541  0.1323 -0.3921  0.4778
  526MOL0     H69409   1.679   2.835   1.510  0.7388 -1.9387  1.4521
  526MOL0     H69410   1.926   2.968   1.589 -0.6099  0.7124  2.3075
  526MOL0     H69411   1.891   2.830   1.687 -2.6558  0.5255  0.5384
  526MOL0     H69412   1.874   2.696   1.455  0.1447  0.0567 -2.8165
  526MOL0     H69413   2.028   2.778   1.480 -0.9398  1.2235  2.6841
  526MOL0     H69414   1.952   2.254   1.950  1.7845 -1.3528 -0.1396
  526MOL0     H69415   2.181   2.248   1.946 -2.5946 -1.4201  0.6420
  526MOL0     H69416   2.629   2.327   1.487 -0.4314  1.5781  0.5831
  526MOL0     H69417   2.873   2.268   1.537  2.1884  0.4202  1.1202
  526MOL0     H69418   4.594   2.794   2.326  1.5754 -0.1626 -0.2802
  526MOL0     H69419   4.828   2.827   2.393 -0.3300  0.9565 -0.6253
  526MOL0     H69420   5.125   2.750   2.695 -1.8320  1.5156 -0.2283
  526MOL0     H69421   5.373   2.726   2.778 -1.6834 -1.8757  2.4969
  526MOL0     H69422   5.568   3.025   2.847 -2.6924 -0.4917  3.0105
  526MOL0     H69423   5.675   2.891   2.819 -0.9655 -0.4528 -1.0919
  526MOL0     H69424   5.618   2.988   3.101 -1.6898  1.8479 -2.0052
  526MOL0     H69425   5.741   2.869   3.041 -0.4559 -0.4872 -0.4125
  526MOL0     H69426   5.705   3.178   2.991 -1.6271 -0.1481  0.3614
  526MOL0     H69427   5.824   3.085   2.895 -0.8090 -1.0669  0.3192
  526MOL0     H69428   5.832   3.055   3.194 -2.9423  1.5219 -0.2040
  526MOL0     H69429   5.967   3.045   3.069 -1.6920 -1.2490 -1.7258
  526MOL0     H69430   5.938   3.471   3.164 -1.6345 -0.4096  3.7845
  526MOL0     H69431   5.365   3.094   2.954 -2.2101  0.0284  1.5586
  526MOL0     H69432   5.116   3.132   2.877  1.2662  1.6681 -2.6061
  527MOL0     O69433   8.319   3.923   0.712  0.5670 -0.4253 -0.5971
  527MOL0     C69434   8.242   3.979   0.638  0.1478 -0.6349  0.5737
  527MOL0     O69435   8.261   3.986   0.501  0.0479 -0.3279 -0.2624
  527MOL0     C69436   8.380   3.947   0.448  0.4033  0.9049  1.0477
  527MOL0     C69437   8.468   4.026   0.374  0.1107 -0.2550  0.1055
  527MOL0     C69438   8.579   3.972   0.316  0.4970 -0.1319 -0.5841
  527MOL0     C69439   8.619   3.843   0.324  0.1031 -0.2604 -0.9196
  527MOL0     O69440   8.739   3.815   0.268  0.9774  0.2396 -1.0643
  527MOL0     C69441   8.774   3.674   0.263  0.7412 -0.4568  0.2735
  527MOL0     C69442   8.895   3.669   0.171 -0.5264 -0.0350  0.0444
  527MOL0     C69443   9.017   3.757   0.210  0.5078  0.1046 -0.6205
  527MOL0     C69444   9.096   3.770   0.079  0.5058  1.2312 -1.2730
  527MOL0     C69445   9.224   3.852   0.084  0.3291  0.2393  0.2010
  527MOL0     C69446   9.274   3.851  -0.057 -0.3427  0.0514 -0.2220
  527MOL0     C69447   9.424   3.904  -0.062 -0.7354 -0.3812  0.3518
  527MOL0     C69448   9.521   3.834   0.034  0.2393 -0.0536  0.1747
  527MOL0     N69449   9.545   3.695   0.002  0.9612  0.4932  0.7440
  527MOL0     C69450   9.475   3.592   0.058  0.6409  0.1787  1.1453
  527MOL0     C69451   9.507   3.481  -0.026 -0.2697  0.4168  0.3067
  527MOL0     C69452   9.465   3.342   0.009  0.5069  0.3362 -0.3093
  527MOL0     C69453   9.315   3.315   0.030  0.2491 -0.1436 -0.2853
  527MOL0     C69454   9.296   3.192   0.119 -0.4121  0.7139  0.5278
  527MOL0     C69455   9.144   3.164   0.155 -0.2756  0.3354  0.0928
  527MOL0     O69456   9.097   3.263   0.251  0.3939  0.9593  0.5962
  527MOL0     C69457   8.963   3.269   0.276  0.4214 -0.3623  0.3816
  527MOL0     C69458   8.866   3.222   0.186 -0.6161 -0.4033  0.8029
  527MOL0     C69459   8.731   3.241   0.208  0.7276  0.7578 -0.2303
  527MOL0     C69460   8.681   3.296   0.326  0.3241  0.5680 -0.2362
  527MOL0     C69461   8.538   3.320   0.347  0.4318 -0.2155 -0.3994
  527MOL0     O69462   8.504   3.362   0.466 -0.7852  0.2673  0.3153
  527MOL0     C69463   8.372   3.367   0.498  1.1843 -0.4250  0.2935
  527MOL0     C69464   8.280   3.464   0.449 -0.7270 -0.3134 -0.0135
  527MOL0     C69465   8.151   3.485   0.494  0.3234  0.8379  0.6952
  527MOL0     C69466   8.096   3.394   0.585 -0.1506  0.3754 -0.5043
  527MOL0     O69467   7.963   3.391   0.611  0.4733  0.2411 -0.3466
  527MOL0     C69468   7.876   3.481   0.534 -0.0463  0.3402  0.3753
  527MOL0     C69469   7.726   3.443   0.553 -0.2215  0.0377 -0.2006
  527MOL0     C69470   7.663   3.498   0.687  0.0820  0.2652  0.2638
  527MOL0     C69471   7.520   3.456   0.706 -0.0628 -0.4856  0.1220
  527MOL0     C69472   7.435   3.558   0.784 -0.2286 -0.7684  1.2905
  527MOL0     C69473   7.287   3.515   0.762  0.0454 -0.7997 -0.5174
  527MOL0     C69474   7.206   3.593   0.862 -0.5456  0.7385  0.6645
  527MOL0     C69475   7.061   3.541   0.855  0.3882 -0.2727  0.4066
  527MOL0    Cl69476   6.989   3.550   0.690 -0.0675  0.5229 -0.1421
  527MOL0     C69477   8.186   3.318   0.648 -0.0526  0.3923  0.1502
  527MOL0     C69478   8.319   3.300   0.613  0.2301 -0.1392  0.0434
  527MOL0     O69479   8.461   3.289   0.250 -0.0895 -0.2414  0.0988
  527MOL0     C69480   8.780   3.337   0.418  0.4601 -0.2676 -0.5672
  527MOL0     C69481   8.918   3.322   0.398  0.0852 -0.1100  0.0530
  527MOL0     N69482   9.594   3.528  -0.121  0.8498  0.7103 -0.3343
  527MOL0     N69483   9.617   3.648  -0.103  0.4375 -0.1017 -0.2031
  527MOL0     C69484   8.532   3.757   0.387  0.0852 -0.3199  0.9283
  527MOL0     C69485   8.416   3.814   0.453  0.5318  0.0603  0.8776
  527MOL0     C69486   8.112   4.010   0.682  0.0244 -0.0272  0.4668
  527MOL0     C69487   8.009   4.047   0.598 -0.2871 -0.6722  0.2534
  527MOL0     C69488   7.883   4.093   0.638  0.2458 -0.1906 -0.0422
  527MOL0     C69489   7.842   4.080   0.771  0.5463  0.1820  1.0053
  527MOL0     O69490   7.718   4.090   0.830  0.4842  0.7024 -0.4013
  527MOL0     C69491   7.611   4.115   0.736 -0.2698 -0.2311  0.0403
  527MOL0     C69492   7.476   4.118   0.814  0.7889 -0.4454  0.1273
  527MOL0     C69493   7.454   3.971   0.872  0.2015 -0.1938 -0.2736
  527MOL0     C69494   7.323   3.977   0.954  0.4444  0.5734  0.1695
  527MOL0     C69495   7.202   3.977   0.870 -0.5084  0.4387  0.5464
  527MOL0     C69496   7.098   3.987   0.812  0.4226  0.0900 -1.0369
  527MOL0     C69497   7.943   4.022   0.858 -0.5695 -0.4504 -0.3469
  527MOL0     C69498   8.075   3.992   0.816 -0.4473  0.0743  0.2058
  527MOL0     H69499   8.432   4.127   0.354 -2.0198 -0.9044  0.4202
  527MOL0     H69500   8.633   4.037   0.249  1.0926 -1.2777 -1.2439
  527MOL0     H69501   8.701   3.614   0.207  1.3074  0.4462 -1.5117
  527MOL0     H69502   8.791   3.635   0.364  2.3126  0.2712  0.3074
  527MOL0     H69503   8.864   3.709   0.074  0.1818  1.0270  0.2384
  527MOL0     H69504   8.922   3.567   0.146 -0.5003  0.6811 -3.3046
  527MOL0     H69505   9.078   3.698   0.278  0.4487 -0.6627 -1.2240
  527MOL0     H69506   9.000   3.853   0.260  0.5801  0.1127 -0.6107
  527MOL0     H69507   9.125   3.673   0.038  1.1388  1.5048 -1.4895
  527MOL0     H69508   9.019   3.799   0.007 -0.1429 -2.7818 -2.3907
  527MOL0     H69509   9.291   3.791   0.146  0.5058 -1.4293 -1.5437
  527MOL0     H69510   9.210   3.947   0.136  2.7942  0.1409  1.2369
  527MOL0     H69511   9.219   3.917  -0.123 -0.6465 -1.3056 -1.3696
  527MOL0     H69512   9.277   3.747  -0.092  0.6110 -0.2141  0.5808
  527MOL0     H69513   9.469   3.907  -0.161  0.2933  2.1559  0.8369
  527MOL0     H69514   9.415   4.007  -0.026 -0.8033  0.1878 -1.2379
  527MOL0     H69515   9.486   3.846   0.137 -1.7275  2.4162 -0.6955
  527MOL0     H69516   9.616   3.888   0.032  0.9791 -1.2267  1.6106
  527MOL0     H69517   9.409   3.605   0.143  1.0908  0.4332  1.4575
  527MOL0     H69518   9.524   3.307   0.094  1.9278 -1.3757 -1.9036
  527MOL0     H69519   9.492   3.276  -0.075 -1.6917 -0.3493 -0.5408
  527MOL0     H69520   9.272   3.300  -0.069 -0.8988 -4.9189  0.7251
  527MOL0     H69521   9.260   3.402   0.068 -1.2425 -1.5010  0.7994
  527MOL0     H69522   9.337   3.103   0.072 -1.2845 -0.0168  1.1159
  527MOL0     H69523   9.343   3.206   0.217 -3.0456  0.4269  1.9421
  527MOL0     H69524   9.129   3.065   0.200  0.0343  1.3226  2.5359
  527MOL0     H69525   9.090   3.157   0.061  1.7942  0.3863 -1.1622
  527MOL0     H69526   8.900   3.189   0.088  2.8310  0.4500  1.5444
  527MOL0     H69527   8.672   3.204   0.124 -0.2234  2.1488 -0.2150
  527MOL0     H69528   8.329   3.522   0.372 -0.7370  2.5546  1.9811
  527MOL0     H69529   8.092   3.561   0.443 -1.8106 -1.3722 -0.3258
  527MOL0     H69530   7.893   3.462   0.428 -4.2581 -1.1238 -0.2474
  527MOL0     H69531   7.885   3.585   0.567 -2.9075  0.3633  1.4292
  527MOL0     H69532   7.708   3.335   0.545  2.2048 -0.6179  1.9755
  527MOL0     H69533   7.669   3.481   0.468 -0.7837  3.1089  1.4242
  527MOL0     H69534   7.664   3.607   0.675 -2.4318  0.3283  0.0754
  527MOL0     H69535   7.723   3.460   0.771 -1.1108  1.6872  1.8513
  527MOL0     H69536   7.465   3.446   0.613  3.2110 -2.0989 -1.8400
  527MOL0     H69537   7.511   3.360   0.757 -0.0846  0.3668  1.7876
  527MOL0     H69538   7.432   3.661   0.747 -1.0859 -0.5484  1.9265
  527MOL0     H69539   7.470   3.562   0.888  2.2098  1.7404  0.4913
  527MOL0     H69540   7.279   3.406   0.766 -0.2255 -0.7724 -0.2718
  527MOL0     H69541   7.252   3.542   0.661 -5.2879  1.7047  1.6080
  527MOL0     H69542   7.254   3.585   0.960 -0.3940 -0.6458  0.4930
  527MOL0     H69543   7.213   3.698   0.831 -0.6718  0.3172 -0.8779
  527MOL0     H69544   7.003   3.589   0.934  0.6217 -4.2925  3.3781
  527MOL0     H69545   7.046   3.438   0.891 -2.7219  1.2261  4.0734
  527MOL0     H69546   8.154   3.251   0.727  1.9475 -0.4331  0.3432
  527MOL0     H69547   8.387   3.239   0.671  1.3265  2.3820  1.5489
  527MOL0     H69548   8.741   3.395   0.501  1.0876  3.3500 -2.5618
  527MOL0     H69549   8.980   3.347   0.484 -4.0138  2.4339  2.6273
  527MOL0     H69550   8.562   3.654   0.400  0.6680 -1.2032 -4.8414
  527MOL0     H69551   8.362   3.745   0.518 -3.1147  0.8157 -1.0818
  527MOL0     H69552   8.035   4.049   0.492  1.2844  1.3328  0.6067
  527MOL0     H69553   7.803   4.106   0.566 -0.5766 -1.6065  0.5824
  527MOL0     H69554   7.612   4.048   0.649 -2.5722 -0.4273  0.1020
  527MOL0     H69555   7.627   4.218   0.702 -1.2575 -0.2681 -0.5882
  527MOL0     H69556   7.478   4.182   0.902  1.3476 -1.0901  0.6018
  527MOL0     H69557   7.393   4.137   0.746  0.6835 -1.0272  0.0853
  527MOL0     H69558   7.528   3.943   0.947 -1.1843  2.4869  2.3383
  527MOL0     H69559   7.433   3.899   0.793 -2.0578  1.0363 -0.8987
  527MOL0     H69560   7.315   3.884   1.011 -1.0967 -1.1361 -2.5612
  527MOL0     H69561   7.321   4.061   1.023  5.6565  1.9050 -0.8177
  527MOL0     H69562   7.003   4.008   0.766 -1.0335 -0.8378  1.3777
  527MOL0     H69563   7.920   3.998   0.961  1.8734  1.3549  0.7313
  527MOL0     H69564   8.139   3.945   0.889 -2.8184 -0.5846  1.9812
  528MOL0     O69565   6.075   8.033   3.738 -0.5154 -0.0641 -0.7303
  528MOL0     C69566   6.185   7.979   3.754 -0.0828 -0.3749 -0.1082
  528MOL0     O69567   6.217   7.879   3.840  0.2085 -0.0307 -0.4060
  528MOL0     C69568   6.122   7.788   3.882 -0.1739  0.4506 -0.6873
  528MOL0     C69569   6.176   7.705   3.991  1.6402 -0.6736  0.7340
  528MOL0     C69570   6.092   7.601   4.039  0.4429  0.1759  0.2779
  528MOL0     C69571   5.964   7.583   3.992 -0.1816 -0.5952 -0.1780
  528MOL0     O69572   5.874   7.487   4.035  1.0587  0.8260 -0.4019
  528MOL0     C69573   5.851   7.479   4.175 -0.0312 -0.2998  0.8935
  528MOL0     C69574   5.702   7.444   4.208  0.8799  0.6352  0.2586
  528MOL0     C69575   5.653   7.472   4.350  0.6871  0.0709  0.7374
  528MOL0     C69576   5.516   7.403   4.372 -0.1291 -0.6402 -0.7725
  528MOL0     C69577   5.521   7.265   4.428 -0.7103 -0.9397  0.4677
  528MOL0     C69578   5.382   7.199   4.425 -1.1453 -0.7063  0.0735
  528MOL0     C69579   5.276   7.271   4.504  1.2560 -0.4613 -0.4609
  528MOL0     C69580   5.296   7.260   4.658 -0.7171 -0.8160  0.8002
  528MOL0     N69581   5.286   7.123   4.709  0.0947 -0.4095  1.1656
  528MOL0     C69582   5.164   7.066   4.754  0.5944  1.0338  0.3007
  528MOL0     C69583   5.210   6.953   4.814  0.4183 -0.2691 -0.1639
  528MOL0     C69584   5.105   6.873   4.889 -0.3201  0.6075  0.0976
  528MOL0     C69585   5.110   6.730   4.863 -0.0302  0.9128  0.2573
  528MOL0     C69586   5.192   6.644   4.965  0.0582 -0.0774  0.2140
  528MOL0     C69587   5.173   6.487   4.941 -0.5928 -0.6051  0.5699
  528MOL0     O69588   5.030   6.448   4.963 -0.7952 -0.6838 -0.4158
  528MOL0     C69589   5.001   6.350   5.050 -0.3702 -0.1176 -0.3829
  528MOL0     C69590   5.090   6.246   5.093  0.6509 -0.6630 -0.8701
  528MOL0     C69591   5.048   6.138   5.178 -0.4711  0.0087  0.5305
  528MOL0     C69592   4.920   6.136   5.223  0.5829 -0.5788 -0.6617
  528MOL0     C69593   4.882   6.032   5.332  0.1844 -0.2424  0.8534
  528MOL0     O69594   4.752   6.042   5.364  0.4178 -0.2709  0.2103
  528MOL0     C69595   4.702   5.957   5.454  0.5688 -0.5296 -0.0055
  528MOL0     C69596   4.573   5.914   5.428 -1.1295  0.1648  0.4190
  528MOL0     C69597   4.522   5.821   5.509  0.8917 -0.6403 -0.0797
  528MOL0     C69598   4.582   5.767   5.621  0.1144 -0.6587  0.3378
  528MOL0     O69599   4.525   5.685   5.712  0.8536 -0.2237  0.1828
  528MOL0     C69600   4.381   5.674   5.718 -0.1188 -0.4985  0.5100
  528MOL0     C69601   4.337   5.593   5.832 -0.0976  0.1238  0.3827
  528MOL0     C69602   4.188   5.588   5.836  0.4033 -0.1022  0.0402
  528MOL0     C69603   4.141   5.501   5.959  0.4236 -0.5047 -0.2912
  528MOL0     C69604   3.993   5.487   5.969 -0.0422 -0.7519 -0.4560
  528MOL0     C69605   3.946   5.385   6.073 -0.4724  1.0877  0.5354
  528MOL0     C69606   3.965   5.430   6.219  0.2100  0.5279  0.1092
  528MOL0     C69607   3.894   5.346   6.326 -0.8844  0.0685 -0.1000
  528MOL0    Cl69608   3.869   5.448   6.472 -0.2315  0.1026  0.1598
  528MOL0     C69609   4.713   5.810   5.645  0.0595  0.9414 -0.3612
  528MOL0     C69610   4.774   5.909   5.571  0.1121  0.8519  0.8866
  528MOL0     O69611   4.967   5.948   5.365 -0.7727 -0.3117  0.1364
  528MOL0     C69612   4.834   6.241   5.187  0.8523  0.8416 -0.0049
  528MOL0     C69613   4.875   6.343   5.102  0.0716 -0.6528 -0.6654
  528MOL0     N69614   5.348   6.932   4.798  0.8583 -0.0626  0.3727
  528MOL0     N69615   5.391   7.038   4.726 -0.9491  0.2265 -0.1403
  528MOL0     C69616   5.913   7.664   3.888  0.3045  0.4869  0.4044
  528MOL0     C69617   5.994   7.759   3.830  0.3599 -1.2270 -0.5041
  528MOL0     C69618   6.291   8.033   3.682  0.2262 -0.8046  0.6137
  528MOL0     C69619   6.417   7.979   3.682  0.5970  1.1682 -0.1799
  528MOL0     C69620   6.523   8.042   3.624 -0.0219  0.4019  0.4441
  528MOL0     C69621   6.514   8.169   3.569  0.5515 -0.2773 -0.3369
  528MOL0     O69622   6.639   8.227   3.530  0.3114  0.2902  0.3230
  528MOL0     C69623   6.638   8.363   3.470  0.0298 -0.3989 -0.3708
  528MOL0     C69624   6.606   8.354   3.316  0.0081  0.0295 -0.6419
  528MOL0     C69625   6.510   8.463   3.267  0.1180  0.2062  0.6619
  528MOL0     C69626   6.550   8.614   3.291  0.3358 -0.2606  0.7989
  528MOL0     C69627   6.688   8.634   3.247 -0.2248  0.2715  0.4714
  528MOL0     C69628   6.801   8.646   3.204 -0.1740  0.0102 -0.9740
  528MOL0     C69629   6.391   8.226   3.572  0.7839 -0.3077  0.3841
  528MOL0     C69630   6.275   8.162   3.616 -0.1955  0.0998  0.8025
  528MOL0     H69631   6.271   7.739   4.030  0.8302 -0.2619  2.4290
  528MOL0     H69632   6.115   7.542   4.127  1.4264  1.1314  0.6879
  528MOL0     H69633   5.866   7.578   4.218 -2.2411  0.7815 -0.6347
  528MOL0     H69634   5.923   7.410   4.221 -2.4867 -4.8360 -1.3551
  528MOL0     H69635   5.680   7.341   4.177 -2.4650  1.1212  0.5732
  528MOL0     H69636   5.636   7.509   4.150  2.7977  2.9858  0.5560
  528MOL0     H69637   5.641   7.579   4.367 -3.1791 -0.3838  1.9619
  528MOL0     H69638   5.729   7.425   4.413 -1.0974 -0.4789  2.5963
  528MOL0     H69639   5.462   7.465   4.443 -0.1841  0.8446 -2.0549
  528MOL0     H69640   5.451   7.404   4.284 -1.9197 -1.6629  0.4675
  528MOL0     H69641   5.570   7.274   4.525  1.2303  1.8781 -0.6236
  528MOL0     H69642   5.585   7.209   4.359 -0.9677  0.1091 -0.6623
  528MOL0     H69643   5.395   7.094   4.452 -1.0933 -0.4382  1.1203
  528MOL0     H69644   5.355   7.199   4.319  3.5669 -1.3701 -1.3351
  528MOL0     H69645   5.274   7.377   4.478 -0.5203 -0.5514 -0.7703
  528MOL0     H69646   5.175   7.242   4.473  1.1013 -1.0522  0.5374
  528MOL0     H69647   5.227   7.328   4.709  0.3693  0.6054  0.4668
  528MOL0     H69648   5.400   7.292   4.669 -1.1892  1.6039 -0.8413
  528MOL0     H69649   5.062   7.102   4.747  0.1200 -0.0080  1.3985
  528MOL0     H69650   5.002   6.902   4.864 -0.1968  2.2507  1.3493
  528MOL0     H69651   5.110   6.894   4.996 -2.8589  1.3771  0.1535
  528MOL0     H69652   5.155   6.709   4.765 -0.7913 -0.8476  0.2559
  528MOL0     H69653   5.005   6.700   4.870 -0.3434  1.2947 -2.0412
  528MOL0     H69654   5.301   6.657   4.954  0.3698  0.7984  3.4452
  528MOL0     H69655   5.170   6.669   5.069 -2.5402  1.1321 -0.5476
  528MOL0     H69656   5.246   6.434   5.003 -1.0401 -0.5595  1.1532
  528MOL0     H69657   5.182   6.463   4.835 -2.4108 -0.2625  0.3025
  528MOL0     H69658   5.193   6.236   5.063  0.3343 -3.9162 -1.2053
  528MOL0     H69659   5.117   6.064   5.217 -0.9980  0.1690  1.8300
  528MOL0     H69660   4.528   5.960   5.341 -1.0400 -0.2213  0.1654
  528MOL0     H69661   4.420   5.791   5.488 -0.7814  2.2982  2.8860
  528MOL0     H69662   4.337   5.626   5.631  0.6583  1.5192 -1.0971
  528MOL0     H69663   4.336   5.774   5.713  1.0905  0.0666  0.5132
  528MOL0     H69664   4.369   5.629   5.930  1.1076 -1.4279  0.6029
  528MOL0     H69665   4.393   5.499   5.822 -0.9285 -0.5171  1.5029
  528MOL0     H69666   4.150   5.544   5.743  1.3981 -0.9102 -0.0000
  528MOL0     H69667   4.161   5.693   5.854  2.3378  0.5035 -0.3670
  528MOL0     H69668   4.179   5.400   5.945  2.9202  0.4473 -0.8846
  528MOL0     H69669   4.180   5.557   6.045  2.1691  1.3701 -2.1767
  528MOL0     H69670   3.945   5.447   5.879  0.8624  1.8215 -2.1770
  528MOL0     H69671   3.942   5.583   5.977  1.6607  0.6762 -4.1987
  528MOL0     H69672   3.985   5.286   6.048 -5.8735 -0.8256 -1.9433
  528MOL0     H69673   3.838   5.383   6.054 -0.3457  0.4178 -0.1440
  528MOL0     H69674   4.070   5.410   6.241  0.4438  2.1771  0.5946
  528MOL0     H69675   3.953   5.538   6.234  3.5195  1.4120 -2.4557
  528MOL0     H69676   3.969   5.270   6.353  2.0789  1.7472 -2.8139
  528MOL0     H69677   3.802   5.306   6.283 -0.6641 -0.5470 -0.0089
  528MOL0     H69678   4.766   5.778   5.734 -1.7622 -2.1484 -0.2259
  528MOL0     H69679   4.869   5.953   5.601  0.7461  0.6429 -0.7197
  528MOL0     H69680   4.732   6.255   5.221  1.4537  2.9849  1.0635
  528MOL0     H69681   4.806   6.422   5.075  1.9463  0.8462 -1.2866
  528MOL0     H69682   5.815   7.644   3.846  0.8951 -2.5799  0.2451
  528MOL0     H69683   5.952   7.815   3.747  0.7769  2.1216  1.3493
  528MOL0     H69684   6.427   7.879   3.723 -0.6790 -0.4669 -3.5332
  528MOL0     H69685   6.625   8.007   3.632 -0.2378 -0.5896 -0.7449
  528MOL0     H69686   6.737   8.406   3.482  1.4663 -3.1919 -1.4086
  528MOL0     H69687   6.575   8.433   3.526 -0.4665 -0.8464 -0.3609
  528MOL0     H69688   6.695   8.360   3.253  0.1078 -0.1299 -0.5166
  528MOL0     H69689   6.555   8.260   3.295 -0.0727  0.4602 -2.4643
  528MOL0     H69690   6.409   8.441   3.303  0.4010 -3.1503 -0.1929
  528MOL0     H69691   6.503   8.448   3.159 -0.0617 -0.4162  0.7547
  528MOL0     H69692   6.470   8.673   3.246  1.0830  0.1268 -0.0596
  528MOL0     H69693   6.543   8.649   3.395 -3.1782  1.5231  0.0845
  528MOL0     H69694   6.898   8.657   3.161 -0.0087  1.3033 -0.3277
  528MOL0     H69695   6.381   8.330   3.542 -0.7501 -1.1746 -2.4716
  528MOL0     H69696   6.183   8.220   3.621 -0.4272  0.0231 -1.6552
  529MOL0     O69697   8.185   8.253   4.309  0.3330 -0.3087  0.8763
  529MOL0     C69698   8.094   8.183   4.259  0.0240  0.1695  0.9222
  529MOL0     O69699   8.097   8.130   4.136  0.2107  0.5151 -0.2937
  529MOL0     C69700   8.194   8.142   4.039 -1.0449 -0.2961  0.5391
  529MOL0     C69701   8.154   8.117   3.909  0.2455  0.2418  0.3039
  529MOL0     C69702   8.246   8.127   3.798 -0.2719  0.1662  0.1039
  529MOL0     C69703   8.382   8.164   3.822  0.3231  0.6555 -0.0096
  529MOL0     O69704   8.479   8.154   3.718  0.8156  0.2276 -0.1646
  529MOL0     C69705   8.449   8.078   3.600 -0.4955 -0.2066  0.7955
  529MOL0     C69706   8.567   8.079   3.498  0.4346 -1.4607  0.3531
  529MOL0     C69707   8.705   8.046   3.556  0.2309 -0.1777  0.0966
  529MOL0     C69708   8.817   8.025   3.447  0.1423 -0.1831  0.2582
  529MOL0     C69709   8.843   7.878   3.388 -0.2259 -0.2842 -0.6688
  529MOL0     C69710   8.980   7.851   3.327  0.0654 -0.2309  0.7919
  529MOL0     C69711   9.108   7.877   3.405 -0.2462 -1.2393  0.0281
  529MOL0     C69712   9.230   7.830   3.312  0.0564  1.0072  0.4368
  529MOL0     N69713   9.239   7.687   3.271  0.0212 -0.4855 -0.4759
  529MOL0     C69714   9.196   7.586   3.350  0.0946  0.2727  0.9396
  529MOL0     C69715   9.225   7.475   3.282 -0.4548 -0.4088 -0.0346
  529MOL0     C69716   9.197   7.343   3.340 -0.2649 -0.7498  0.4181
  529MOL0     C69717   9.333   7.265   3.359  0.2709  0.2061  0.5561
  529MOL0     C69718   9.309   7.141   3.442 -0.4056  0.2377 -1.1574
  529MOL0     C69719   9.417   7.035   3.406  0.5046  0.7760 -0.2141
  529MOL0     O69720   9.545   7.083   3.451 -0.1181  0.3814  0.1865
  529MOL0     C69721   9.639   7.052   3.359  0.2976  0.3764  0.1317
  529MOL0     C69722   9.690   6.924   3.359 -0.6313 -0.5146  0.6460
  529MOL0     C69723   9.804   6.895   3.285 -0.2287 -0.0960  0.3417
  529MOL0     C69724   9.867   6.987   3.206  0.4423  0.2785  0.9706
  529MOL0     C69725  10.000   6.958   3.147  0.2755  1.0035  0.6210
  529MOL0     O69726  10.039   6.829   3.134  0.5275 -0.8665 -0.0360
  529MOL0     C69727  10.161   6.794   3.074  0.1097 -0.4964  0.1463
  529MOL0     C69728  10.243   6.704   3.133 -0.3957 -0.4888 -0.0257
  529MOL0     C69729  10.372   6.662   3.073 -0.2347 -0.1935  0.2102
  529MOL0     C69730  10.419   6.727   2.959  0.7860  0.8209  0.9662
  529MOL0     O69731  10.537   6.693   2.902  0.3327 -0.2372 -0.8647
  529MOL0     C69732  10.620   6.606   2.969 -0.0016  0.3253  0.1516
  529MOL0     C69733  10.748   6.592   2.895  0.8357 -0.1224 -0.1962
  529MOL0     C69734  10.720   6.539   2.753 -0.2505  0.8579  0.0383
  529MOL0     C69735  10.858   6.533   2.693  0.6831  0.1225  0.7468
  529MOL0     C69736  10.840   6.474   2.552  0.2978  0.1616  0.1353
  529MOL0     C69737  10.967   6.496   2.466  0.5175 -1.2880  0.1549
  529MOL0     C69738  10.948   6.444   2.326  0.0377 -0.0528  0.4397
  529MOL0     C69739  10.989   6.306   2.318 -0.1071 -0.2453 -0.1956
  529MOL0    Cl69740  11.003   6.255   2.147 -0.1786  0.3381 -0.4479
  529MOL0     C69741  10.329   6.817   2.892 -0.6334 -0.0288  0.5102
  529MOL0     C69742  10.201   6.848   2.949 -0.3709 -0.3536  0.1724
  529MOL0     O69743  10.065   7.054   3.110  0.6128  0.5556 -0.5054
  529MOL0     C69744   9.806   7.111   3.187 -0.1963 -1.0440 -0.7644
  529MOL0     C69745   9.697   7.142   3.271  0.1835 -0.0629  0.7286
  529MOL0     N69746   9.277   7.517   3.156  0.0460 -0.0605  0.0737
  529MOL0     N69747   9.268   7.649   3.144  0.2373  0.0132  0.9425
  529MOL0     C69748   8.417   8.204   3.945  0.0047  0.4983 -0.4576
  529MOL0     C69749   8.328   8.183   4.055  0.3282 -0.1020 -0.1884
  529MOL0     C69750   7.974   8.151   4.353 -0.1455 -0.5021  0.3813
  529MOL0     C69751   7.867   8.076   4.312  0.6908  0.6391 -0.4177
  529MOL0     C69752   7.762   8.060   4.396 -0.1526  0.7274 -0.6139
  529MOL0     C69753   7.761   8.118   4.527  0.1212 -0.3688  0.3327
  529MOL0     O69754   7.652   8.101   4.612  0.2383  0.5239 -0.3841
  529MOL0     C69755   7.520   8.086   4.544  0.0132  0.6277  0.7670
  529MOL0     C69756   7.408   8.103   4.641  0.8976  0.9107 -0.0840
  529MOL0     C69757   7.409   7.986   4.739 -0.0798 -0.4564  0.0912
  529MOL0     C69758   7.273   7.973   4.811 -0.2512 -0.4536  0.2634
  529MOL0     C69759   7.269   7.862   4.900 -0.8810  0.1849 -0.0560
  529MOL0     C69760   7.279   7.763   4.975 -0.4150 -0.1990  0.2973
  529MOL0     C69761   7.876   8.190   4.569 -0.5770  0.3582 -0.4324
  529MOL0     C69762   7.988   8.196   4.482  0.7616 -1.1482  0.3744
  529MOL0     H69763   8.057   8.080   3.877  0.1450  1.6157 -1.0600
  529MOL0     H69764   8.213   8.097   3.699 -1.0875 -0.1450  0.4569
  529MOL0     H69765   8.368   8.136   3.555 -0.1574  0.5519  1.1561
  529MOL0     H69766   8.420   7.973   3.614  1.0362 -0.7398  0.1974
  529MOL0     H69767   8.590   8.180   3.464  4.5770 -2.0651  0.8662
  529MOL0     H69768   8.549   8.015   3.411  0.2549  2.6519 -2.9185
  529MOL0     H69769   8.702   7.957   3.620  0.3719  0.2754  0.7465
  529MOL0     H69770   8.745   8.122   3.624 -1.1564  0.0838  0.6591
  529MOL0     H69771   8.795   8.094   3.365  0.2971 -0.6680 -0.2013
  529MOL0     H69772   8.911   8.052   3.497 -0.7252 -0.0240  1.8498
  529MOL0     H69773   8.769   7.843   3.316 -0.8878 -0.4065  0.0598
  529MOL0     H69774   8.840   7.804   3.469 -0.8308 -0.8109 -1.1675
  529MOL0     H69775   8.976   7.909   3.235  1.4403  1.5069  1.7661
  529MOL0     H69776   8.977   7.742   3.314 -0.3327 -0.1928  0.5307
  529MOL0     H69777   9.118   7.985   3.421 -3.7398 -1.1549  3.0999
  529MOL0     H69778   9.101   7.835   3.506 -0.8035 -2.8587 -0.6543
  529MOL0     H69779   9.321   7.853   3.369 -1.1704  1.9625  2.0914
  529MOL0     H69780   9.230   7.888   3.219 -0.0134 -2.7036 -2.0694
  529MOL0     H69781   9.165   7.593   3.454 -0.8088  1.6130  0.6065
  529MOL0     H69782   9.132   7.285   3.274 -0.9215  1.8294 -1.3547
  529MOL0     H69783   9.148   7.351   3.437 -0.7159  0.0459  0.1272
  529MOL0     H69784   9.403   7.332   3.410  4.3152 -1.1463 -2.6140
  529MOL0     H69785   9.379   7.246   3.261  3.0111  0.6447  1.6477
  529MOL0     H69786   9.318   7.166   3.549  0.3272 -1.5332 -0.7767
  529MOL0     H69787   9.206   7.111   3.425 -0.4470 -1.0174  0.9389
  529MOL0     H69788   9.409   7.026   3.298 -2.7992  0.4800 -0.0755
  529MOL0     H69789   9.378   6.946   3.457 -0.6131  0.1541 -2.0527
  529MOL0     H69790   9.643   6.859   3.432  0.6411 -1.9330  0.2642
  529MOL0     H69791   9.859   6.802   3.295  1.7335  1.0900  1.0360
  529MOL0     H69792  10.222   6.670   3.234  2.6887  0.0359  0.9082
  529MOL0     H69793  10.427   6.582   3.120 -1.3745 -2.2583 -1.7374
  529MOL0     H69794  10.577   6.507   2.989 -0.5450  0.7494  1.1953
  529MOL0     H69795  10.657   6.647   3.063 -1.1578  1.2260  0.2443
  529MOL0     H69796  10.814   6.523   2.948 -0.0146  0.8357  2.2447
  529MOL0     H69797  10.793   6.690   2.875  0.5491  0.1769  0.5659
  529MOL0     H69798  10.666   6.617   2.698 -2.8495 -0.5726  0.4163
  529MOL0     H69799  10.660   6.448   2.755 -1.6882  1.7772  0.2810
  529MOL0     H69800  10.897   6.635   2.683 -1.8051  1.0108 -0.6637
  529MOL0     H69801  10.926   6.470   2.751  2.4174  0.1826 -1.1004
  529MOL0     H69802  10.764   6.536   2.503  1.7040  0.5945 -1.6025
  529MOL0     H69803  10.814   6.368   2.556 -1.3019  0.5666  1.6638
  529MOL0     H69804  11.052   6.457   2.522 -0.8034 -2.2257  1.5997
  529MOL0     H69805  10.977   6.604   2.456  0.6060 -1.2840  0.2868
  529MOL0     H69806  10.842   6.454   2.300 -0.7144 -1.0579  2.8610
  529MOL0     H69807  10.999   6.515   2.259  1.1364 -0.2244  1.0808
  529MOL0     H69808  10.927   6.236   2.374 -2.6618  1.2500 -0.9777
  529MOL0     H69809  11.090   6.314   2.360 -0.1219  1.4124 -0.3938
  529MOL0     H69810  10.342   6.878   2.803 -0.4413  2.2952  2.0475
  529MOL0     H69811  10.151   6.920   2.886  0.6885 -1.7288 -2.3827
  529MOL0     H69812   9.849   7.177   3.113  2.6166 -1.4264  0.4085
  529MOL0     H69813   9.640   7.234   3.264  2.1258  1.1600  0.3334
  529MOL0     H69814   8.521   8.233   3.956 -0.7340  3.7493 -0.9619
  529MOL0     H69815   8.352   8.214   4.156 -1.2527  1.3675 -0.2261
  529MOL0     H69816   7.873   8.039   4.210  0.1515  2.3951 -1.1277
  529MOL0     H69817   7.687   7.998   4.347  3.5183 -3.8217 -1.0804
  529MOL0     H69818   7.516   7.987   4.497 -1.9374  1.2425 -0.5312
  529MOL0     H69819   7.506   8.167   4.471 -0.1821 -0.2175 -0.1555
  529MOL0     H69820   7.436   8.191   4.701  2.4868  0.0168  0.5402
  529MOL0     H69821   7.309   8.114   4.596 -0.5660  0.8615  2.9143
  529MOL0     H69822   7.484   8.009   4.815 -1.0074  1.5834  0.4613
  529MOL0     H69823   7.422   7.888   4.692 -3.6123 -2.0359  2.0260
  529MOL0     H69824   7.257   8.060   4.876 -0.6781 -0.9303  0.8010
  529MOL0     H69825   7.190   7.972   4.740  1.3372 -0.0216 -1.7143
  529MOL0     H69826   7.286   7.670   5.028  1.6128 -0.9805 -1.2317
  529MOL0     H69827   7.865   8.232   4.669 -2.2670  0.6955 -0.7216
  529MOL0     H69828   8.076   8.243   4.522 -0.0506 -1.1139  2.2195
  530MOL0     O69829   1.436   5.275   3.622  0.7338  0.2540 -0.3147
  530MOL0     C69830   1.453   5.327   3.729 -0.7339 -0.3754 -0.3520
  530MOL0     O69831   1.354   5.401   3.789 -0.2080  0.0368  0.3147
  530MOL0     C69832   1.227   5.425   3.730  0.0129 -0.1355 -0.7956
  530MOL0     C69833   1.129   5.328   3.752 -0.0491 -0.5230 -0.0864
  530MOL0     C69834   1.003   5.333   3.700 -0.1108  0.4444  0.7236
  530MOL0     C69835   0.969   5.442   3.609 -0.1027  0.3277 -0.5065
  530MOL0     O69836   0.841   5.436   3.566  0.3116  0.0900  0.4050
  530MOL0     C69837   0.801   5.539   3.475  0.0659 -0.4558  0.8491
  530MOL0     C69838   0.682   5.503   3.388  1.2978  1.2049 -1.0702
  530MOL0     C69839   0.594   5.623   3.331  0.9089  0.0446 -0.3848
  530MOL0     C69840   0.663   5.716   3.230  0.6745  0.1175  1.1335
  530MOL0     C69841   0.566   5.789   3.127 -0.9214 -0.3197 -0.5827
  530MOL0     C69842   0.625   5.918   3.081 -0.1857 -0.7140  0.6839
  530MOL0     C69843   0.546   5.981   2.974 -1.8539 -1.3427 -1.9165
  530MOL0     C69844   0.627   6.104   2.937 -0.1166 -1.3073  0.5804
  530MOL0     N69845   0.566   6.180   2.824  0.6473  0.3490  0.4967
  530MOL0     C69846   0.428   6.168   2.796 -0.3686  0.6368  0.0554
  530MOL0     C69847   0.403   6.266   2.710 -0.4260  0.8176  0.2891
  530MOL0     C69848   0.264   6.295   2.648 -0.3772  1.5501 -0.1574
  530MOL0     C69849   0.203   6.414   2.720 -0.3871 -0.4865 -0.0834
  530MOL0     C69850   0.081   6.469   2.650 -0.8829 -0.8575 -0.8457
  530MOL0     C69851   0.010   6.573   2.733  0.3152  0.4711 -0.7766
  530MOL0     O69852  -0.052   6.512   2.851 -0.0440 -0.4228  0.0092
  530MOL0     C69853  -0.117   6.597   2.943 -0.1601 -0.0451  0.2905
  530MOL0     C69854  -0.151   6.724   2.912  1.1950 -0.6867 -0.2649
  530MOL0     C69855  -0.241   6.791   2.997 -0.6304 -0.0738 -0.6290
  530MOL0     C69856  -0.279   6.737   3.120  1.1411  0.3049  0.2339
  530MOL0     C69857  -0.391   6.802   3.203  0.1047  0.1252 -0.4037
  530MOL0     O69858  -0.418   6.937   3.173  0.4209  0.0069 -0.1860
  530MOL0     C69859  -0.520   6.997   3.239 -0.5048 -0.2979  0.5403
  530MOL0     C69860  -0.500   7.080   3.350 -0.2231  1.2272 -0.4875
  530MOL0     C69861  -0.603   7.155   3.396  0.0093  0.1724  0.3628
  530MOL0     C69862  -0.736   7.157   3.346 -0.5920  0.2809  0.2987
  530MOL0     O69863  -0.831   7.239   3.411 -0.1012 -0.5237  0.4633
  530MOL0     C69864  -0.948   7.279   3.330 -1.4107 -0.3973 -0.5660
  530MOL0     C69865  -1.026   7.385   3.403 -0.4659 -0.0190 -0.7604
  530MOL0     C69866  -1.114   7.468   3.305  0.4589  0.2450 -0.7374
  530MOL0     C69867  -1.202   7.379   3.215 -0.0624  0.0833 -0.3235
  530MOL0     C69868  -1.306   7.463   3.139 -0.6665  0.1149 -0.9112
  530MOL0     C69869  -1.429   7.510   3.222  0.5465 -0.1240 -0.1522
  530MOL0     C69870  -1.543   7.574   3.133 -0.1899 -0.0491 -0.1737
  530MOL0     C69871  -1.689   7.520   3.160 -0.1342  0.1269  0.1107
  530MOL0    Cl69872  -1.741   7.561   3.326  0.2041 -0.0350  0.3739
  530MOL0     C69873  -0.758   7.069   3.238  0.2070 -0.1747  0.0490
  530MOL0     C69874  -0.648   6.982   3.188  0.7236 -0.7949  0.5363
  530MOL0     O69875  -0.450   6.736   3.291  0.2932  0.8923 -0.0174
  530MOL0     C69876  -0.244   6.609   3.155  0.4385  0.6684  0.0861
  530MOL0     C69877  -0.153   6.547   3.065  0.3758  0.3140  0.1540
  530MOL0     N69878   0.516   6.333   2.682 -0.9783  0.5362  0.2145
  530MOL0     N69879   0.620   6.280   2.746  0.0564 -0.4747 -0.0137
  530MOL0     C69880   1.058   5.546   3.589  0.2522  0.1012 -1.0008
  530MOL0     C69881   1.188   5.537   3.652 -1.1165 -0.5700  0.9749
  530MOL0     C69882   1.572   5.300   3.804  0.2030 -1.0069 -0.0838
  530MOL0     C69883   1.569   5.316   3.943  0.2575 -0.0866 -0.4451
  530MOL0     C69884   1.678   5.293   4.029  0.5875  0.1154 -0.0082
  530MOL0     C69885   1.797   5.251   3.972 -0.8464 -0.8068 -0.1613
  530MOL0     O69886   1.899   5.225   4.060  0.2665  0.5612  1.4712
  530MOL0     C69887   2.001   5.139   4.013 -0.1453  0.2958 -0.1385
  530MOL0     C69888   2.105   5.113   4.122  0.0424  0.6066 -0.5238
  530MOL0     C69889   2.213   5.021   4.076 -0.1997 -0.4899  0.5013
  530MOL0     C69890   2.263   5.039   3.929  0.3344 -0.2213 -0.7621
  530MOL0     C69891   2.376   4.960   3.900  0.6335 -0.1460  0.2512
  530MOL0     C69892   2.456   4.877   3.887  0.0565 -0.5130  0.3535
  530MOL0     C69893   1.811   5.237   3.834  0.5786  0.2962 -0.8666
  530MOL0     C69894   1.700   5.265   3.754 -0.0465 -0.7249 -0.5003
  530MOL0     H69895   1.154   5.241   3.812 -1.3346 -0.9708 -0.1654
  530MOL0     H69896   0.916   5.268   3.713  0.9638 -1.1089  0.5099
  530MOL0     H69897   0.873   5.554   3.394 -2.0430 -1.6178 -1.3651
  530MOL0     H69898   0.770   5.630   3.526 -1.0879  0.3551 -1.2265
  530MOL0     H69899   0.621   5.437   3.450  4.9626 -2.2994 -0.7971
  530MOL0     H69900   0.716   5.432   3.312 -0.9848 -1.9553  0.6560
  530MOL0     H69901   0.553   5.684   3.412 -1.4434  0.9328 -2.1195
  530MOL0     H69902   0.504   5.573   3.293 -1.2892  0.0159  4.2034
  530MOL0     H69903   0.723   5.787   3.287  0.4597  0.9060  0.3877
  530MOL0     H69904   0.729   5.650   3.173 -1.2874 -0.6223 -0.4204
  530MOL0     H69905   0.463   5.789   3.165 -0.9306 -0.3872 -0.6073
  530MOL0     H69906   0.555   5.728   3.038 -3.5196  0.1441 -0.6521
  530MOL0     H69907   0.726   5.897   3.045 -0.0463  0.3015  0.4465
  530MOL0     H69908   0.630   5.986   3.166 -2.3046  2.1335 -1.2553
  530MOL0     H69909   0.532   5.912   2.890 -1.1238 -2.0946 -1.4477
  530MOL0     H69910   0.452   6.015   3.018 -0.9529 -2.5467  1.2697
  530MOL0     H69911   0.731   6.083   2.912  0.2891 -0.2450  1.2959
  530MOL0     H69912   0.646   6.177   3.017  3.5208  2.2230 -3.0532
  530MOL0     H69913   0.353   6.096   2.826 -0.0248 -0.9773 -2.5608
  530MOL0     H69914   0.207   6.203   2.661 -0.0269  0.8743 -2.9277
  530MOL0     H69915   0.279   6.321   2.543 -2.5497  2.4051 -0.3148
  530MOL0     H69916   0.280   6.491   2.717 -1.0183  0.1634  0.0227
  530MOL0     H69917   0.169   6.380   2.818 -3.1712 -1.1843 -1.1914
  530MOL0     H69918   0.112   6.510   2.553 -1.2809 -0.7680 -0.9369
  530MOL0     H69919   0.023   6.379   2.626  0.0534 -1.7684  0.1938
  530MOL0     H69920  -0.056   6.620   2.660 -0.5756  3.1875  1.6192
  530MOL0     H69921   0.073   6.656   2.766 -1.6074  0.3805  3.8824
  530MOL0     H69922  -0.117   6.774   2.821  0.4414  0.0201 -0.1712
  530MOL0     H69923  -0.284   6.884   2.962 -0.5953  0.2569  0.1893
  530MOL0     H69924  -0.405   7.095   3.399  0.1982 -1.3717 -0.3481
  530MOL0     H69925  -0.583   7.225   3.476 -3.9870  1.2500  0.6098
  530MOL0     H69926  -1.002   7.188   3.303  2.4209 -1.9341 -4.2279
  530MOL0     H69927  -0.900   7.319   3.240 -2.2005 -3.1734 -2.3378
  530MOL0     H69928  -0.946   7.446   3.445  1.6449 -2.0021 -1.6742
  530MOL0     H69929  -1.078   7.347   3.491 -2.1287 -1.4338 -2.2681
  530MOL0     H69930  -1.039   7.519   3.245  0.2562  0.2077 -1.0201
  530MOL0     H69931  -1.185   7.542   3.341 -1.4455  0.1101 -3.8939
  530MOL0     H69932  -1.155   7.310   3.145 -3.1215  1.2382 -3.8120
  530MOL0     H69933  -1.262   7.324   3.290 -0.6739 -0.0269 -0.8837
  530MOL0     H69934  -1.337   7.399   3.056 -0.1891 -0.5576 -0.5784
  530MOL0     H69935  -1.242   7.546   3.109  3.1356 -2.4108 -0.4010
  530MOL0     H69936  -1.389   7.577   3.299 -0.4396  0.4356 -0.1119
  530MOL0     H69937  -1.465   7.419   3.269  0.1356  1.1801  2.2042
  530MOL0     H69938  -1.544   7.683   3.144 -1.4471 -0.0055 -0.5023
  530MOL0     H69939  -1.522   7.556   3.027 -0.3239  3.2986 -0.8847
  530MOL0     H69940  -1.697   7.411   3.150 -2.6728  0.1346  1.2193
  530MOL0     H69941  -1.757   7.560   3.084  0.7096 -1.9806 -1.8740
  530MOL0     H69942  -0.857   7.056   3.194 -0.0830 -2.9730  1.3753
  530MOL0     H69943  -0.672   6.912   3.109 -1.4972 -1.9779  2.1516
  530MOL0     H69944  -0.272   6.560   3.247 -0.4209  1.9839  0.5625
  530MOL0     H69945  -0.122   6.450   3.103  0.7207  0.3623  0.0001
  530MOL0     H69946   1.037   5.639   3.537  0.8964  2.0211  1.9279
  530MOL0     H69947   1.256   5.612   3.613 -0.6021 -0.5560  1.8610
  530MOL0     H69948   1.477   5.351   3.988 -0.6406  0.6868 -2.7270
  530MOL0     H69949   1.661   5.299   4.136  1.7300 -0.8386  0.2512
  530MOL0     H69950   2.045   5.183   3.923 -3.5238 -3.2495 -4.0128
  530MOL0     H69951   1.964   5.042   3.977  0.9939  0.3022 -1.4105
  530MOL0     H69952   2.152   5.208   4.147 -0.1575  1.0689 -1.8077
  530MOL0     H69953   2.060   5.079   4.216  1.9873  0.6298  0.4571
  530MOL0     H69954   2.177   4.918   4.079 -0.9055 -0.2929 -0.5475
  530MOL0     H69955   2.299   5.036   4.142  0.1848  0.5680 -0.2156
  530MOL0     H69956   2.184   5.015   3.856 -1.0702  3.3181 -0.6441
  530MOL0     H69957   2.287   5.146   3.919 -1.0271  0.3179  1.1686
  530MOL0     H69958   2.542   4.814   3.875  0.2919 -0.4038  1.3204
  530MOL0     H69959   1.898   5.201   3.780  0.8918 -1.1152  0.4981
  530MOL0     H69960   1.711   5.265   3.646  2.8057  0.2850 -0.2837
  531MOL0     O69961   2.539   6.621   9.114 -0.5533 -0.1951  0.1041
  531MOL0     C69962   2.635   6.541   9.113 -0.3252  0.5296  0.1521
  531MOL0     O69963   2.643   6.435   9.032  0.3307 -0.1113  0.2519
  531MOL0     C69964   2.540   6.400   8.951  0.2002 -0.1946 -0.5665
  531MOL0     C69965   2.579   6.378   8.821 -0.0794  0.4386 -0.3480
  531MOL0     C69966   2.483   6.351   8.720  0.7345 -0.3384  0.1199
  531MOL0     C69967   2.342   6.347   8.745 -0.5288 -0.8936 -0.0140
  531MOL0     O69968   2.256   6.314   8.648 -0.0528 -0.5131 -0.0212
  531MOL0     C69969   2.140   6.238   8.689 -0.3153  0.5605  0.5795
  531MOL0     C69970   2.081   6.186   8.564 -0.2667 -0.2300 -0.4135
  531MOL0     C69971   2.011   6.294   8.492  0.4970 -0.4919 -0.1980
  531MOL0     C69972   1.966   6.228   8.359  0.7209 -0.1475 -0.1057
  531MOL0     C69973   1.918   6.324   8.251 -0.1970 -0.6649 -0.9312
  531MOL0     C69974   2.012   6.420   8.184  0.3444  0.7976  0.1486
  531MOL0     C69975   2.146   6.353   8.137  0.1486 -0.0120 -0.1264
  531MOL0     C69976   2.214   6.441   8.031  0.6916 -0.3130  0.3530
  531MOL0     N69977   2.331   6.375   7.982 -0.1506 -0.6751  0.1302
  531MOL0     C69978   2.433   6.316   8.060  0.0804 -0.6027 -0.1595
  531MOL0     C69979   2.545   6.332   7.984 -0.3114 -0.0142 -0.0259
  531MOL0     C69980   2.688   6.282   8.021  1.2834 -0.1806  0.3603
  531MOL0     C69981   2.792   6.389   7.998 -0.3729  0.5313  0.2743
  531MOL0     C69982   2.810   6.467   8.123  0.7863 -0.6150 -0.7864
  531MOL0     C69983   2.929   6.427   8.216  0.4046 -0.0755 -0.4465
  531MOL0     O69984   2.959   6.533   8.306 -0.6187 -0.2956 -0.3681
  531MOL0     C69985   3.067   6.508   8.387 -0.3311  0.6143  0.0910
  531MOL0     C69986   3.132   6.395   8.407 -0.3819  0.4091  0.2822
  531MOL0     C69987   3.242   6.390   8.496  0.9552  0.1124  0.0609
  531MOL0     C69988   3.278   6.504   8.563  1.3373  0.3175  0.8436
  531MOL0     C69989   3.393   6.502   8.662 -0.8798 -0.2253  1.0196
  531MOL0     O69990   3.414   6.617   8.720 -0.2103  0.1658  0.7117
  531MOL0     C69991   3.541   6.663   8.756 -0.2987  0.0550 -0.5324
  531MOL0     C69992   3.612   6.746   8.670  0.0060  0.0880  0.1249
  531MOL0     C69993   3.742   6.785   8.706 -0.0491  0.0500  0.2904
  531MOL0     C69994   3.804   6.726   8.816 -0.8975 -0.9023 -0.0760
  531MOL0     O69995   3.926   6.774   8.853  0.3360 -0.1002  0.5642
  531MOL0     C69996   4.010   6.705   8.937 -0.6444 -0.1495 -0.3971
  531MOL0     C69997   4.145   6.768   8.926 -0.2516  0.1681  0.1448
  531MOL0     C69998   4.243   6.736   9.035 -0.3195  0.0031  0.5010
  531MOL0     C69999   4.238   6.828   9.159  0.5871  0.6720 -0.5158
  531MOL0     C70000   4.320   6.763   9.269 -0.3767 -0.5260  0.3968
  531MOL0     C70001   4.258   6.630   9.322 -0.4827 -0.4548  0.5180
  531MOL0     C70002   4.277   6.606   9.472  1.1941 -0.2488 -0.4706
  531MOL0     C70003   4.409   6.526   9.483  0.3565  0.9347  0.2366
  531MOL0    Cl70004   4.404   6.423   9.619 -0.4210  0.3512  0.5587
  531MOL0     C70005   3.732   6.658   8.908 -0.0239 -0.0204 -0.7521
  531MOL0     C70006   3.598   6.614   8.878  0.0111 -0.3413  0.2051
  531MOL0     O70007   3.475   6.406   8.651 -0.1603  0.1733 -0.1318
  531MOL0     C70008   3.202   6.628   8.539 -0.4993 -0.0526  0.3517
  531MOL0     C70009   3.101   6.628   8.446  1.2382 -0.2804  0.4039
  531MOL0     N70010   2.508   6.368   7.846 -0.4907  1.2151  0.0022
  531MOL0     N70011   2.381   6.395   7.855  0.1457 -0.2062  1.0065
  531MOL0     C70012   2.307   6.357   8.880 -0.0952 -0.4936 -0.5405
  531MOL0     C70013   2.403   6.390   8.980 -0.8340  0.5830  0.3936
  531MOL0     C70014   2.755   6.562   9.205  0.5465 -0.0699  0.3373
  531MOL0     C70015   2.743   6.656   9.311 -0.3059 -0.1256  0.2671
  531MOL0     C70016   2.860   6.692   9.386 -0.4397 -0.1843  0.5895
  531MOL0     C70017   2.984   6.650   9.346  0.8940  0.8734 -0.6014
  531MOL0     O70018   3.093   6.712   9.400 -0.1263 -0.2447 -0.0325
  531MOL0     C70019   3.223   6.639   9.422  0.1979 -0.2568  0.0720
  531MOL0     C70020   3.262   6.689   9.564 -0.5647  0.1586  0.6223
  531MOL0     C70021   3.406   6.622   9.598  0.4470  1.0684 -0.6867
  531MOL0     C70022   3.453   6.652   9.743  0.5123  0.1391  0.9040
  531MOL0     C70023   3.588   6.594   9.771 -0.0145  0.9736  0.4442
  531MOL0     C70024   3.697   6.539   9.793 -0.0041 -0.0028 -0.1837
  531MOL0     C70025   2.999   6.562   9.234 -0.0574 -0.1022  0.5918
  531MOL0     C70026   2.881   6.518   9.163 -0.1205  0.3450  0.3655
  531MOL0     H70027   2.685   6.385   8.799 -0.3179  1.0978 -1.3606
  531MOL0     H70028   2.510   6.328   8.618  2.6778 -0.0516  0.5308
  531MOL0     H70029   2.064   6.298   8.741 -4.2169 -3.7441  0.4851
  531MOL0     H70030   2.174   6.161   8.759  2.1416 -0.9326 -2.0853
  531MOL0     H70031   2.011   6.104   8.586 -0.0666 -0.0960  0.7938
  531MOL0     H70032   2.161   6.139   8.506 -2.6851 -0.9226 -3.4488
  531MOL0     H70033   2.079   6.376   8.465  0.0864 -1.0431 -3.4001
  531MOL0     H70034   1.925   6.339   8.543  0.9864  3.2462 -2.2911
  531MOL0     H70035   2.022   6.144   8.316 -0.5158 -0.6501 -0.7672
  531MOL0     H70036   1.883   6.169   8.397  1.0474  0.1831  1.1680
  531MOL0     H70037   1.855   6.388   8.314  1.5964 -0.4508  0.7434
  531MOL0     H70038   1.869   6.268   8.170 -2.0903 -0.8147  0.2506
  531MOL0     H70039   2.041   6.500   8.252 -0.4244 -0.2555  1.7771
  531MOL0     H70040   1.961   6.472   8.101 -2.7293  0.2839  1.5625
  531MOL0     H70041   2.206   6.331   8.226 -1.1022 -2.2944  0.2324
  531MOL0     H70042   2.104   6.263   8.089 -1.2981 -0.0362  1.0885
  531MOL0     H70043   2.235   6.545   8.058 -2.4447  0.5291 -0.0876
  531MOL0     H70044   2.154   6.454   7.941 -0.0059 -0.6602  0.7609
  531MOL0     H70045   2.427   6.288   8.164  0.6300 -3.3319 -0.7878
  531MOL0     H70046   2.722   6.191   7.972 -0.0393 -1.8191  2.3424
  531MOL0     H70047   2.690   6.269   8.130  0.7723  0.2960  0.4311
  531MOL0     H70048   2.781   6.449   7.908  0.0552 -0.8939 -0.7782
  531MOL0     H70049   2.887   6.337   7.979 -1.1648 -0.9499  0.2450
  531MOL0     H70050   2.810   6.575   8.103  1.1372 -0.3673  0.4320
  531MOL0     H70051   2.722   6.468   8.188  1.0771 -0.4549 -0.3875
  531MOL0     H70052   3.020   6.414   8.156 -0.7496 -2.0166 -1.8941
  531MOL0     H70053   2.903   6.339   8.276  1.0557  1.8586  2.9068
  531MOL0     H70054   3.117   6.310   8.341  4.1495  1.7744 -2.9354
  531MOL0     H70055   3.287   6.292   8.492  1.9543  0.5492  0.4024
  531MOL0     H70056   3.568   6.783   8.578 -1.2108  0.2608  0.7553
  531MOL0     H70057   3.785   6.857   8.638 -0.6143  0.0076 -0.1192
  531MOL0     H70058   4.019   6.598   8.914 -1.5351 -0.3543  0.1638
  531MOL0     H70059   3.980   6.719   9.041  0.2788 -1.5857  0.0870
  531MOL0     H70060   4.142   6.877   8.919  0.0066  0.6330  4.5313
  531MOL0     H70061   4.187   6.719   8.838 -1.5432 -1.0621  0.1872
  531MOL0     H70062   4.346   6.742   8.997  1.3263 -1.8928  4.1232
  531MOL0     H70063   4.233   6.634   9.072 -0.5450  0.3837  1.5420
  531MOL0     H70064   4.270   6.925   9.122 -0.5527 -0.1639 -4.1025
  531MOL0     H70065   4.138   6.839   9.202  1.0420  0.5058  0.6236
  531MOL0     H70066   4.324   6.834   9.353 -0.0768 -1.4530  1.1762
  531MOL0     H70067   4.425   6.744   9.245  1.1368  2.0771  3.9331
  531MOL0     H70068   4.296   6.544   9.266  1.4976  1.2941 -0.9992
  531MOL0     H70069   4.153   6.635   9.291  0.1586 -1.8751 -2.2580
  531MOL0     H70070   4.276   6.695   9.535 -0.5891 -1.0142  0.6677
  531MOL0     H70071   4.203   6.534   9.510  0.0161  1.7478  1.2584
  531MOL0     H70072   4.498   6.586   9.502  0.9308 -0.6986  3.4803
  531MOL0     H70073   4.426   6.448   9.408 -1.4471 -1.0725  1.7673
  531MOL0     H70074   3.779   6.617   8.997 -2.1115  2.0669  1.4614
  531MOL0     H70075   3.550   6.544   8.945  1.0420  0.8302  2.2444
  531MOL0     H70076   3.241   6.717   8.587  1.7775 -2.7529  4.0298
  531MOL0     H70077   3.062   6.723   8.409 -0.4510 -1.2243 -0.3793
  531MOL0     H70078   2.205   6.361   8.918 -0.3863  2.4953 -1.4081
  531MOL0     H70079   2.378   6.389   9.085 -1.1837 -3.8093  0.4402
  531MOL0     H70080   2.652   6.706   9.341  0.2609  2.1051 -1.5045
  531MOL0     H70081   2.857   6.781   9.447 -0.7938  0.8481 -0.8857
  531MOL0     H70082   3.299   6.669   9.350  0.1823  0.8970  0.5176
  531MOL0     H70083   3.221   6.530   9.417  4.8147 -0.5728  1.0248
  531MOL0     H70084   3.271   6.798   9.555  0.9570 -0.1232 -3.8360
  531MOL0     H70085   3.194   6.657   9.643  0.8235 -0.9556  1.4207
  531MOL0     H70086   3.464   6.662   9.516  0.8644  1.8394 -0.0259
  531MOL0     H70087   3.388   6.514   9.596  0.0687  1.0779  0.6021
  531MOL0     H70088   3.460   6.759   9.765  1.2047  0.1604  0.6215
  531MOL0     H70089   3.376   6.609   9.808 -1.1112  1.4911 -0.0832
  531MOL0     H70090   3.795   6.496   9.798  0.4092  0.5822 -2.2590
  531MOL0     H70091   3.096   6.521   9.207 -1.8454 -2.4884 -3.0223
  531MOL0     H70092   2.893   6.465   9.070 -0.1336  1.8798 -0.5415
  532MOL0     O70093   4.149   7.721   8.893 -0.1874 -0.4208 -0.4701
  532MOL0     C70094   4.188   7.741   8.780  0.5643 -0.9466 -0.5342
  532MOL0     O70095   4.115   7.748   8.660 -0.1366 -0.1740  0.1498
  532MOL0     C70096   3.979   7.734   8.675 -0.2196 -0.1542 -0.4881
  532MOL0     C70097   3.925   7.612   8.700 -0.3980 -0.3821 -1.1189
  532MOL0     C70098   3.791   7.587   8.688  0.1541 -0.6548  0.0061
  532MOL0     C70099   3.704   7.689   8.654 -0.0777 -0.9121 -0.9225
  532MOL0     O70100   3.569   7.681   8.637  0.1752 -0.3204  0.6749
  532MOL0     C70101   3.497   7.556   8.664 -0.2895 -0.3000  0.2638
  532MOL0     C70102   3.505   7.457   8.543 -1.1795 -0.0659  0.4306
  532MOL0     C70103   3.433   7.497   8.410 -0.8477  0.3717  0.3245
  532MOL0     C70104   3.297   7.563   8.445  0.8602 -0.4587 -0.5029
  532MOL0     C70105   3.219   7.607   8.313 -0.9263 -0.2598 -0.1448
  532MOL0     C70106   3.149   7.508   8.217  0.8857  0.3757  0.4294
  532MOL0     C70107   3.078   7.390   8.287 -0.0780  0.4448 -0.4384
  532MOL0     C70108   2.963   7.428   8.376 -0.7967  0.2315  0.3234
  532MOL0     N70109   2.868   7.525   8.317  0.7301 -0.6201  0.1445
  532MOL0     C70110   2.867   7.661   8.325 -0.6908  0.3173 -0.6005
  532MOL0     C70111   2.760   7.710   8.258 -0.0878 -0.1550  0.3879
  532MOL0     C70112   2.712   7.846   8.213  0.2572  0.1559  0.5054
  532MOL0     C70113   2.812   7.952   8.266 -0.3493  0.1441 -0.3159
  532MOL0     C70114   2.755   8.093   8.244 -0.5568 -0.0197  0.1785
  532MOL0     C70115   2.851   8.196   8.297  0.9637  0.3346  0.0427
  532MOL0     O70116   2.897   8.167   8.430 -0.9540 -0.3085 -0.4277
  532MOL0     C70117   3.036   8.184   8.454 -0.9292 -0.3591 -0.0328
  532MOL0     C70118   3.106   8.059   8.454 -0.3355  1.3256 -0.1449
  532MOL0     C70119   3.245   8.055   8.472  0.2433  0.0121  0.5402
  532MOL0     C70120   3.307   8.183   8.484 -0.6747  0.3890  0.5389
  532MOL0     C70121   3.447   8.188   8.510 -0.2912  0.0783  0.3094
  532MOL0     O70122   3.497   8.298   8.574 -0.1272 -0.5564  0.9897
  532MOL0     C70123   3.614   8.269   8.632 -0.4814 -0.2230 -0.9717
  532MOL0     C70124   3.729   8.346   8.604  0.5990 -0.1490  0.3526
  532MOL0     C70125   3.849   8.320   8.671 -0.2063  0.6137 -0.3005
  532MOL0     C70126   3.867   8.216   8.751  0.7982 -0.7512 -0.4300
  532MOL0     O70127   3.992   8.204   8.806  0.6652  1.1228  0.1032
  532MOL0     C70128   4.017   8.108   8.915 -0.2505  0.1445  0.1414
  532MOL0     C70129   4.163   8.102   8.952 -0.4767  0.3166 -0.6249
  532MOL0     C70130   4.173   8.058   9.107 -0.7744 -0.7688  0.4910
  532MOL0     C70131   4.317   8.062   9.145 -0.2554  0.6388  0.1810
  532MOL0     C70132   4.356   8.041   9.289  0.2220 -0.0537  0.4373
  532MOL0     C70133   4.499   7.990   9.301 -0.6036  1.1676 -0.3281
  532MOL0     C70134   4.500   7.830   9.300  0.3628  0.9770 -0.0461
  532MOL0     C70135   4.634   7.763   9.283  0.5737  0.2351  1.1011
  532MOL0    Cl70136   4.730   7.765   9.443  0.0703  0.0089  0.2642
  532MOL0     C70137   3.758   8.140   8.778  0.5562 -0.0917 -1.4282
  532MOL0     C70138   3.629   8.159   8.722  0.2006  0.1890 -0.1758
  532MOL0     O70139   3.514   8.093   8.471  0.7208 -0.1661 -0.2258
  532MOL0     C70140   3.231   8.307   8.488 -1.2237  0.0665 -0.3210
  532MOL0     C70141   3.093   8.309   8.470  0.1379 -0.7298  0.4028
  532MOL0     N70142   2.691   7.598   8.225 -0.9671 -0.0763  0.3729
  532MOL0     N70143   2.754   7.492   8.255 -0.3365  0.6103  0.1902
  532MOL0     C70144   3.754   7.820   8.642 -0.0663 -0.3041  0.2491
  532MOL0     C70145   3.893   7.842   8.649  0.1760  0.7563  1.1188
  532MOL0     C70146   4.334   7.780   8.772  0.8644  0.6866 -0.4868
  532MOL0     C70147   4.423   7.768   8.881 -0.2281 -0.0246  0.5112
  532MOL0     C70148   4.561   7.799   8.862  0.3966  0.3859 -0.1881
  532MOL0     C70149   4.608   7.829   8.742 -0.3428  0.1470  0.0178
  532MOL0     O70150   4.731   7.880   8.709  0.4193  0.4003 -0.0932
  532MOL0     C70151   4.830   7.890   8.820  0.2298 -0.3248  0.1954
  532MOL0     C70152   4.957   7.907   8.745  0.3893 -0.0764  0.0187
  532MOL0     C70153   5.059   7.787   8.771 -0.0446  0.2351  0.0342
  532MOL0     C70154   5.171   7.783   8.665 -0.1756  0.4894  0.6963
  532MOL0     C70155   5.281   7.863   8.710  0.9040 -0.2225 -0.2698
  532MOL0     C70156   5.358   7.940   8.759  0.0679 -0.5435  0.5024
  532MOL0     C70157   4.530   7.832   8.634 -0.8378  0.0779 -0.6298
  532MOL0     C70158   4.392   7.807   8.640  0.3244 -0.3996  0.3359
  532MOL0     H70159   4.000   7.535   8.718 -0.5187 -0.1863  0.3554
  532MOL0     H70160   3.753   7.486   8.696  0.6400 -0.9744 -1.3473
  532MOL0     H70161   3.394   7.581   8.694 -1.3764 -2.8347 -1.0336
  532MOL0     H70162   3.538   7.511   8.755  0.1183  0.3560  0.4115
  532MOL0     H70163   3.453   7.366   8.573  2.6030 -3.2260 -1.6249
  532MOL0     H70164   3.607   7.429   8.516 -1.3000  2.1031 -2.8454
  532MOL0     H70165   3.413   7.408   8.350  0.7922  0.1754  0.0254
  532MOL0     H70166   3.492   7.563   8.345 -0.7818 -0.1163 -0.1184
  532MOL0     H70167   3.231   7.491   8.496 -0.9000 -0.2594 -2.3556
  532MOL0     H70168   3.309   7.652   8.507 -2.5000 -0.3471  0.1908
  532MOL0     H70169   3.307   7.656   8.271  1.9610 -2.3922  2.9335
  532MOL0     H70170   3.159   7.694   8.341 -0.3650  0.3734 -0.8862
  532MOL0     H70171   3.228   7.463   8.156  0.4399 -0.1305  0.2212
  532MOL0     H70172   3.082   7.559   8.148 -0.2885  1.0463  2.0125
  532MOL0     H70173   3.038   7.321   8.212 -2.2452  1.3526 -0.1814
  532MOL0     H70174   3.160   7.343   8.343  0.7295  2.5787  0.2601
  532MOL0     H70175   3.008   7.471   8.466 -0.4783 -3.3596  2.0750
  532MOL0     H70176   2.917   7.332   8.402  0.2113  0.6236  4.1298
  532MOL0     H70177   2.939   7.721   8.379 -0.9297  0.2516 -0.2042
  532MOL0     H70178   2.613   7.853   8.258  0.0164  1.2985 -0.1744
  532MOL0     H70179   2.694   7.843   8.105 -1.8421 -2.1948  0.8305
  532MOL0     H70180   2.913   7.950   8.223  1.3597 -0.9838  3.4020
  532MOL0     H70181   2.831   7.935   8.372 -0.3075  2.7507  0.1413
  532MOL0     H70182   2.751   8.108   8.135  0.9359  0.4338  0.1677
  532MOL0     H70183   2.662   8.112   8.298 -2.2780  0.1402 -2.6161
  532MOL0     H70184   2.803   8.293   8.298  0.7892  0.2618  1.4848
  532MOL0     H70185   2.938   8.204   8.231  1.2470  0.8365  0.4719
  532MOL0     H70186   3.050   7.967   8.464  1.0846  0.5977  1.6480
  532MOL0     H70187   3.307   7.966   8.478 -1.5561 -1.4652 -1.1848
  532MOL0     H70188   3.743   8.426   8.532 -1.4073 -1.3291 -1.4857
  532MOL0     H70189   3.939   8.378   8.653  0.7360 -0.9800 -1.0229
  532MOL0     H70190   3.983   8.009   8.884 -0.4610  0.1473  0.3537
  532MOL0     H70191   3.960   8.144   9.002 -1.3688  0.7631 -0.8113
  532MOL0     H70192   4.213   8.198   8.936  1.5011 -0.8232 -1.7773
  532MOL0     H70193   4.216   8.032   8.886  0.1289 -1.1383  1.2932
  532MOL0     H70194   4.125   7.961   9.122 -0.0644 -0.7071  4.0201
  532MOL0     H70195   4.123   8.132   9.170  1.4431 -0.5564  2.1322
  532MOL0     H70196   4.373   7.986   9.090 -0.3512  1.3890 -0.9908
  532MOL0     H70197   4.360   8.157   9.111 -2.5151  1.5942 -0.2343
  532MOL0     H70198   4.294   7.967   9.340  4.0466 -3.9601 -0.0108
  532MOL0     H70199   4.341   8.141   9.329  0.8880  1.0520 -1.9085
  532MOL0     H70200   4.541   8.031   9.393  2.9658 -0.6387 -0.9819
  532MOL0     H70201   4.556   8.020   9.212 -2.4100  2.3094 -1.1614
  532MOL0     H70202   4.447   7.793   9.388 -0.6055 -2.1793 -1.7893
  532MOL0     H70203   4.430   7.793   9.225  0.1478  0.0542  0.6011
  532MOL0     H70204   4.685   7.826   9.209  1.2875 -2.0568 -0.4459
  532MOL0     H70205   4.620   7.668   9.230  0.8391  0.3144  0.8878
  532MOL0     H70206   3.770   8.071   8.861  0.8813  0.1536 -1.2682
  532MOL0     H70207   3.539   8.106   8.750 -1.1435  2.4879  0.1201
  532MOL0     H70208   3.282   8.402   8.501 -1.3646  0.0905  0.0773
  532MOL0     H70209   3.032   8.398   8.479  0.1141 -0.8445  1.5405
  532MOL0     H70210   3.691   7.907   8.632 -1.2268 -0.7839  2.5615
  532MOL0     H70211   3.942   7.938   8.637 -0.8645  1.0208 -1.8834
  532MOL0     H70212   4.374   7.752   8.976 -1.6961 -1.9396 -0.5085
  532MOL0     H70213   4.636   7.789   8.941  1.8028 -1.4831 -1.6541
  532MOL0     H70214   4.830   7.801   8.884 -2.7375  0.3160  1.2752
  532MOL0     H70215   4.817   7.975   8.887  1.1911 -0.9393  1.1884
  532MOL0     H70216   4.944   7.931   8.639  0.0106  2.1427  0.5202
  532MOL0     H70217   5.007   7.993   8.789 -0.6537  0.5118  0.0838
  532MOL0     H70218   4.987   7.704   8.772  0.7517 -0.4609  0.8750
  532MOL0     H70219   5.106   7.789   8.869  0.7022 -0.4750 -0.2956
  532MOL0     H70220   5.216   7.683   8.659 -1.1599 -0.1172  2.5532
  532MOL0     H70221   5.143   7.820   8.566  0.4463  1.4306  0.8532
  532MOL0     H70222   5.430   8.012   8.793  1.2091 -2.3204  2.0674
  532MOL0     H70223   4.577   7.853   8.539  0.7684  0.1463  0.1614
  532MOL0     H70224   4.346   7.801   8.542 -0.7104  0.5584  0.7296
  533MOL0     O70225   2.416   5.802   2.666 -0.7479 -0.8152  0.6152
  533MOL0     C70226   2.369   5.917   2.679 -1.0066  0.0499 -0.2223
  533MOL0     O70227   2.444   6.032   2.716  0.1092 -0.0956 -0.3137
  533MOL0     C70228   2.573   6.013   2.741 -0.0930  0.0186  0.7325
  533MOL0     C70229   2.649   6.098   2.670 -0.2969 -0.7472 -0.3046
  533MOL0     C70230   2.792   6.090   2.678 -0.5313  0.1913 -0.1921
  533MOL0     C70231   2.861   5.988   2.746 -0.0478  0.4734 -0.4638
  533MOL0     O70232   2.995   5.969   2.762 -0.2069 -0.1866  0.1627
  533MOL0     C70233   3.085   6.037   2.667  0.7579  0.5826  0.5139
  533MOL0     C70234   3.126   6.176   2.720 -0.3661  0.4688 -0.5841
  533MOL0     C70235   3.244   6.233   2.649 -0.4584 -0.7450 -0.8524
  533MOL0     C70236   3.197   6.282   2.511  0.5677  0.7326 -0.5411
  533MOL0     C70237   3.326   6.330   2.429  0.0892 -0.1301  0.0606
  533MOL0     C70238   3.290   6.383   2.287  0.4695  0.3376  0.1639
  533MOL0     C70239   3.241   6.263   2.198 -0.4737 -0.5639  0.5704
  533MOL0     C70240   3.251   6.282   2.044 -0.1018 -0.9532 -0.1094
  533MOL0     N70241   3.146   6.219   1.968 -0.6429 -0.1395  0.0691
  533MOL0     C70242   3.045   6.285   1.909  1.0280  0.5335  0.2702
  533MOL0     C70243   2.949   6.189   1.885 -0.6303  0.5624 -0.5609
  533MOL0     C70244   2.811   6.211   1.845  1.1156  0.5619 -0.5732
  533MOL0     C70245   2.805   6.210   1.695  0.0657  0.2338  0.5659
  533MOL0     C70246   2.658   6.199   1.658 -0.1327  0.3362  0.0103
  533MOL0     C70247   2.595   6.329   1.671  0.1040  0.0507  0.0670
  533MOL0     O70248   2.461   6.340   1.619  0.7407  0.6059  0.6632
  533MOL0     C70249   2.431   6.399   1.499 -0.0833  0.2925  0.6097
  533MOL0     C70250   2.521   6.453   1.404  0.0035  0.1753  1.3015
  533MOL0     C70251   2.466   6.524   1.297  0.6610  0.3576  0.7048
  533MOL0     C70252   2.326   6.542   1.273  0.7118 -0.1412 -0.3469
  533MOL0     C70253   2.271   6.601   1.152 -0.8400 -0.9324 -0.0709
  533MOL0     O70254   2.158   6.552   1.092 -0.3173 -0.2953  0.0422
  533MOL0     C70255   2.068   6.630   1.012 -0.5020  0.2293  0.7159
  533MOL0     C70256   2.066   6.767   1.002  0.2365 -0.7077  0.5543
  533MOL0     C70257   1.975   6.828   0.910  0.1726  0.4387  0.1053
  533MOL0     C70258   1.887   6.749   0.833  1.0274 -0.3069  0.9435
  533MOL0     O70259   1.800   6.797   0.740  0.5397  0.2414 -0.3845
  533MOL0     C70260   1.730   6.907   0.784  0.0396 -0.3728 -0.1510
  533MOL0     C70261   1.627   6.921   0.683  0.0761 -0.3545 -0.2868
  533MOL0     C70262   1.497   6.852   0.730  0.1217 -0.2602  0.8594
  533MOL0     C70263   1.397   6.832   0.616  0.4659  0.0166  1.0032
  533MOL0     C70264   1.263   6.776   0.658 -0.1860  0.7863 -0.3986
  533MOL0     C70265   1.164   6.761   0.542  0.3927 -0.2079 -0.3620
  533MOL0     C70266   1.153   6.879   0.440 -0.1541  0.0401  0.3389
  533MOL0     C70267   1.094   7.005   0.524  0.1626  1.3086  0.2675
  533MOL0    Cl70268   1.072   7.139   0.416  0.0627 -0.0100 -0.4012
  533MOL0     C70269   1.892   6.609   0.844 -0.2121 -0.0111 -0.2437
  533MOL0     C70270   1.985   6.555   0.935 -0.1112  0.0449  0.6211
  533MOL0     O70271   2.333   6.700   1.105  0.5570  0.0936 -0.4671
  533MOL0     C70272   2.243   6.478   1.367  0.7491  0.2942  0.0093
  533MOL0     C70273   2.292   6.413   1.483  0.2967 -0.3550  0.4833
  533MOL0     N70274   2.993   6.064   1.929 -0.6915 -0.1312 -0.1272
  533MOL0     N70275   3.108   6.083   1.981 -0.5447 -0.1344 -0.2094
  533MOL0     C70276   2.776   5.905   2.824 -0.6626  0.0960 -0.1684
  533MOL0     C70277   2.635   5.916   2.826  0.0679  0.4369 -0.9132
  533MOL0     C70278   2.224   5.940   2.661  0.0680  0.6977 -0.6622
  533MOL0     C70279   2.142   5.832   2.637 -0.2383  0.4553  0.7974
  533MOL0     C70280   2.005   5.839   2.635 -0.6062 -0.0843  0.8482
  533MOL0     C70281   1.946   5.969   2.661  0.6368 -0.4281  0.4411
  533MOL0     O70282   1.805   5.994   2.668 -0.4666 -0.1101 -0.1700
  533MOL0     C70283   1.722   5.911   2.581  0.0116  0.1818 -0.0254
  533MOL0     C70284   1.595   5.992   2.550 -0.3347 -0.6319 -0.0207
  533MOL0     C70285   1.504   6.025   2.664 -0.0545  1.2403  0.4168
  533MOL0     C70286   1.367   6.083   2.614  0.0620 -0.9009 -1.2353
  533MOL0     C70287   1.282   5.979   2.554 -0.1692 -0.7975 -0.2894
  533MOL0     C70288   1.209   5.882   2.526  0.1972  0.6562  0.4121
  533MOL0     C70289   2.029   6.079   2.677  0.0960 -0.3090 -0.2844
  533MOL0     C70290   2.165   6.059   2.686 -0.1320 -0.1195  0.4142
  533MOL0     H70291   2.608   6.180   2.613  2.6970  0.0836 -1.4446
  533MOL0     H70292   2.843   6.170   2.626  1.9577  0.6881  2.7398
  533MOL0     H70293   3.039   6.043   2.568 -2.6830  2.7042  2.0600
  533MOL0     H70294   3.171   5.970   2.655 -0.9510 -1.7684  0.4688
  533MOL0     H70295   3.169   6.149   2.816  2.4646  1.8059 -1.3872
  533MOL0     H70296   3.044   6.246   2.738  0.8648  1.3109  2.1348
  533MOL0     H70297   3.326   6.166   2.622  0.4214 -0.9815  2.0083
  533MOL0     H70298   3.287   6.313   2.710 -0.1688 -1.4008 -0.1866
  533MOL0     H70299   3.144   6.199   2.464 -0.6715  0.1049  1.8031
  533MOL0     H70300   3.131   6.369   2.520  1.9366  1.6841  0.9198
  533MOL0     H70301   3.398   6.249   2.412 -0.1778 -1.0560  2.8922
  533MOL0     H70302   3.373   6.412   2.484  0.8332 -0.0989 -0.6083
  533MOL0     H70303   3.380   6.426   2.243 -0.5290 -0.7157 -3.1704
  533MOL0     H70304   3.215   6.462   2.285  0.5652  0.4488  0.7159
  533MOL0     H70305   3.308   6.181   2.225  0.1345  0.2228  1.4523
  533MOL0     H70306   3.140   6.232   2.227 -0.5494 -0.7768  0.1059
  533MOL0     H70307   3.347   6.245   2.009 -0.3952 -1.0361 -0.8461
  533MOL0     H70308   3.241   6.390   2.027  0.7280 -1.0053 -0.9962
  533MOL0     H70309   3.040   6.394   1.901  1.6811  0.6463  1.1868
  533MOL0     H70310   2.771   6.308   1.877  2.7569  1.2056 -0.3561
  533MOL0     H70311   2.756   6.122   1.877 -1.4692  2.6006  1.1152
  533MOL0     H70312   2.853   6.118   1.660 -1.2973 -0.5650  0.7455
  533MOL0     H70313   2.858   6.293   1.645  0.9085 -1.5668 -1.7109
  533MOL0     H70314   2.628   6.161   1.560 -4.1341 -0.3560  1.3331
  533MOL0     H70315   2.616   6.131   1.732  3.0315 -0.3260  1.3884
  533MOL0     H70316   2.665   6.393   1.616  2.8865 -4.1680 -1.7537
  533MOL0     H70317   2.597   6.361   1.776 -0.1214  1.9959 -0.4751
  533MOL0     H70318   2.628   6.438   1.405 -0.0105 -1.5547 -2.8061
  533MOL0     H70319   2.531   6.559   1.217 -0.3460 -2.6393 -1.6027
  533MOL0     H70320   2.129   6.833   1.060 -0.8952  0.3615  0.6039
  533MOL0     H70321   1.970   6.936   0.915  1.7093  0.5056  1.0772
  533MOL0     H70322   1.799   6.990   0.767 -1.6431  1.2013  0.3967
  533MOL0     H70323   1.691   6.913   0.886 -1.4569  0.4366 -0.7433
  533MOL0     H70324   1.659   6.881   0.586 -1.0610 -0.5408 -0.6028
  533MOL0     H70325   1.607   7.028   0.669  1.0667 -0.4305 -2.7794
  533MOL0     H70326   1.456   6.904   0.817 -1.9318  2.0951 -1.3373
  533MOL0     H70327   1.526   6.752   0.764 -0.1832  0.4921  3.4967
  533MOL0     H70328   1.380   6.926   0.562  0.3772 -0.0367  0.9370
  533MOL0     H70329   1.439   6.763   0.542 -0.5887 -1.0621  1.3713
  533MOL0     H70330   1.222   6.845   0.732  0.4311  1.3639 -0.5805
  533MOL0     H70331   1.280   6.683   0.712 -0.4084  1.0240  0.0894
  533MOL0     H70332   1.066   6.740   0.586  0.7164  0.7626  0.8758
  533MOL0     H70333   1.200   6.672   0.489 -1.2003  0.5550 -2.8939
  533MOL0     H70334   1.245   6.901   0.385  0.2799  0.7071  1.3007
  533MOL0     H70335   1.077   6.857   0.365 -3.3288  1.9426  2.7235
  533MOL0     H70336   1.164   7.051   0.594 -1.4804 -0.2588  3.1130
  533MOL0     H70337   1.002   6.976   0.576 -0.4005  0.6480 -1.0480
  533MOL0     H70338   1.827   6.537   0.795 -2.7298  0.8737  1.5765
  533MOL0     H70339   1.996   6.447   0.935 -2.4606 -0.2516  0.3689
  533MOL0     H70340   2.135   6.467   1.357  0.1721  1.9134  3.1720
  533MOL0     H70341   2.228   6.371   1.560 -1.5523  2.0932  0.4046
  533MOL0     H70342   2.826   5.831   2.885  2.1194 -0.6431 -3.0918
  533MOL0     H70343   2.567   5.844   2.870  3.0975 -2.0119  0.1393
  533MOL0     H70344   2.183   5.733   2.618 -1.8389  0.4554 -4.3022
  533MOL0     H70345   1.941   5.757   2.604  0.2333  0.5531 -2.9741
  533MOL0     H70346   1.704   5.822   2.643  3.2262 -1.3335 -1.0069
  533MOL0     H70347   1.775   5.886   2.489 -0.7484  2.8730 -1.3038
  533MOL0     H70348   1.617   6.088   2.502 -1.7051 -0.0137  0.5374
  533MOL0     H70349   1.533   5.932   2.483  0.1545  0.5531 -1.5906
  533MOL0     H70350   1.549   6.084   2.745  2.6814 -1.0570  0.7393
  533MOL0     H70351   1.481   5.927   2.705  0.0192  0.1349 -1.9819
  533MOL0     H70352   1.322   6.134   2.700  1.7222  0.1249 -0.9313
  533MOL0     H70353   1.383   6.165   2.544  0.3827  1.4018  1.3338
  533MOL0     H70354   1.149   5.797   2.499 -1.1543  1.0450  2.0042
  533MOL0     H70355   1.994   6.180   2.699 -0.7806 -0.8261  0.8151
  533MOL0     H70356   2.214   6.155   2.694  0.4413 -0.4181  0.5419
  534MOL0     O70357   9.879  10.423   1.462 -0.8001 -0.1222  0.5019
  534MOL0     C70358   9.818  10.335   1.512 -0.1208 -0.2342 -0.5869
  534MOL0     O70359   9.683  10.313   1.510 -0.0109  0.3421 -0.8191
  534MOL0     C70360   9.590  10.405   1.488  0.1012 -0.5760 -1.1053
  534MOL0     C70361   9.605  10.546   1.474  1.1430  0.6723  0.9326
  534MOL0     C70362   9.492  10.630   1.442  0.0056 -0.0252  0.0911
  534MOL0     C70363   9.363  10.575   1.433 -0.3053  0.4028  0.0919
  534MOL0     O70364   9.264  10.665   1.387 -0.4469  0.6143 -0.4749
  534MOL0     C70365   9.132  10.624   1.405  0.3568 -0.0255 -0.3349
  534MOL0     C70366   9.022  10.725   1.372  0.1714  0.0138 -0.6429
  534MOL0     C70367   8.876  10.668   1.376 -0.6475 -0.5101  0.9990
  534MOL0     C70368   8.765  10.775   1.377  0.5478  0.0294  1.0436
  534MOL0     C70369   8.759  10.861   1.250 -0.2310  0.8310 -0.6711
  534MOL0     C70370   8.763  10.785   1.120  0.7949 -0.4615 -0.5366
  534MOL0     C70371   8.634  10.709   1.092 -0.4412  0.2551  0.7377
  534MOL0     C70372   8.644  10.652   0.955 -0.2455 -0.5622  0.3911
  534MOL0     N70373   8.508  10.624   0.898 -0.8825  0.1329  0.7141
  534MOL0     C70374   8.419  10.535   0.929 -0.2749  0.3489 -0.7407
  534MOL0     C70375   8.318  10.555   0.842  1.0648 -0.7712  0.0528
  534MOL0     C70376   8.195  10.466   0.841 -0.6051 -0.5088 -0.1466
  534MOL0     C70377   8.072  10.529   0.905 -0.9904  0.0097  0.0143
  534MOL0     C70378   7.950  10.437   0.873  0.2941  1.1204 -0.5658
  534MOL0     C70379   7.822  10.507   0.928 -0.3459  0.0654 -0.1788
  534MOL0     O70380   7.702  10.432   0.902 -0.0724  0.6634  0.1132
  534MOL0     C70381   7.584  10.504   0.908 -0.3489 -0.7606 -0.8410
  534MOL0     C70382   7.483  10.438   0.849  0.4258 -0.1482  0.2151
  534MOL0     C70383   7.356  10.488   0.857 -0.2133 -0.6005  0.9190
  534MOL0     C70384   7.326  10.596   0.941 -0.7534  1.5146  0.1005
  534MOL0     C70385   7.191  10.647   0.931  0.0983 -0.4616  0.3629
  534MOL0     O70386   7.122  10.593   0.831  0.4857 -1.0484 -0.0627
  534MOL0     C70387   6.987  10.625   0.827  0.0646  0.0516 -0.0053
  534MOL0     C70388   6.902  10.511   0.840  0.7574 -0.8311 -0.0446
  534MOL0     C70389   6.760  10.545   0.821 -0.1208  0.8121  1.4799
  534MOL0     C70390   6.715  10.676   0.805 -0.0950 -0.1104  0.4111
  534MOL0     O70391   6.574  10.688   0.782 -0.1478  0.2698 -0.0240
  534MOL0     C70392   6.515  10.810   0.829  0.0721 -1.0945  0.2398
  534MOL0     C70393   6.367  10.781   0.835  0.1676 -0.8931 -0.4340
  534MOL0     C70394   6.335  10.667   0.939 -0.3924 -0.5887  0.0626
  534MOL0     C70395   6.189  10.619   0.956  0.5707  0.5080 -0.1588
  534MOL0     C70396   6.127  10.575   0.819  0.2764 -0.0393 -0.8216
  534MOL0     C70397   5.982  10.543   0.842  0.4844  0.3033  0.1646
  534MOL0     C70398   5.893  10.568   0.719  0.3928  0.3403  0.4696
  534MOL0     C70399   5.772  10.480   0.722  0.4775  0.0316 -1.0489
  534MOL0    Cl70400   5.660  10.540   0.593 -0.0223 -0.0401  0.2161
  534MOL0     C70401   6.800  10.777   0.820  0.2579  0.5705  0.6564
  534MOL0     C70402   6.938  10.755   0.812  0.4974  0.0913  0.2104
  534MOL0     O70403   7.154  10.734   1.014 -0.4520 -0.0625  0.1845
  534MOL0     C70404   7.432  10.659   1.010  0.2537  0.1311 -0.7091
  534MOL0     C70405   7.566  10.616   0.995  0.7290  0.8476 -0.3113
  534MOL0     N70406   8.351  10.666   0.760 -0.8925 -0.5772  0.0520
  534MOL0     N70407   8.480  10.689   0.788 -0.4399 -0.1480 -0.4032
  534MOL0     C70408   9.340  10.435   1.470  0.3564  1.0960  0.0263
  534MOL0     C70409   9.457  10.350   1.498 -0.4566 -0.8964  0.1108
  534MOL0     C70410   9.888  10.233   1.589 -0.5799 -0.0770 -0.2396
  534MOL0     C70411  10.022  10.249   1.633 -0.5850 -0.1635  0.3306
  534MOL0     C70412  10.089  10.147   1.695 -0.2416 -0.2889 -0.4513
  534MOL0     C70413  10.026  10.016   1.711 -0.5152 -0.4615 -0.6657
  534MOL0     O70414  10.074   9.897   1.773 -0.0166  0.4042  0.4801
  534MOL0     C70415  10.221   9.894   1.784 -0.1694  0.5549 -0.1190
  534MOL0     C70416  10.269   9.766   1.858 -0.7451 -1.5211  0.3979
  534MOL0     C70417  10.424   9.745   1.850  0.7050 -0.6072  0.3250
  534MOL0     C70418  10.466   9.616   1.933  0.4363  0.3606 -0.2072
  534MOL0     C70419  10.402   9.492   1.878 -0.0192  0.6794 -0.2287
  534MOL0     C70420  10.368   9.398   1.812  0.1040 -0.2880 -0.7781
  534MOL0     C70421   9.894  10.002   1.678  0.5244  0.2217 -0.5039
  534MOL0     C70422   9.832  10.111   1.619 -0.0204 -0.3602 -0.7785
  534MOL0     H70423   9.703  10.590   1.463  0.9001  0.8328 -0.7169
  534MOL0     H70424   9.511  10.736   1.433  1.4334 -0.0694  1.9688
  534MOL0     H70425   9.123  10.604   1.512 -1.2911 -1.6706 -0.7298
  534MOL0     H70426   9.113  10.528   1.357  0.6681  0.3769 -1.2911
  534MOL0     H70427   9.058  10.779   1.284 -1.2281  4.2110  1.1197
  534MOL0     H70428   9.024  10.801   1.451 -1.3902  0.2423 -0.7763
  534MOL0     H70429   8.872  10.605   1.466  1.9624 -2.2050  0.0550
  534MOL0     H70430   8.874  10.599   1.291 -0.5027 -1.5737  1.8301
  534MOL0     H70431   8.675  10.715   1.393  1.0515 -1.2763 -0.7140
  534MOL0     H70432   8.771  10.845   1.461 -4.0055  1.8115  0.1615
  534MOL0     H70433   8.846  10.928   1.247  1.1531 -0.8043  0.7264
  534MOL0     H70434   8.670  10.925   1.250 -0.0569  1.0823  0.0446
  534MOL0     H70435   8.842  10.710   1.114  0.0886 -1.1315 -1.8832
  534MOL0     H70436   8.781  10.866   1.048  0.3445 -0.8149 -1.0499
  534MOL0     H70437   8.639  10.625   1.163  2.3582  0.4968  0.9701
  534MOL0     H70438   8.545  10.772   1.096 -0.5160  0.3076 -1.0263
  534MOL0     H70439   8.697  10.556   0.956  1.6642  0.4223 -0.7475
  534MOL0     H70440   8.704  10.716   0.889 -1.2429 -1.2170 -1.2320
  534MOL0     H70441   8.427  10.464   1.011  1.8810  3.1506  1.6686
  534MOL0     H70442   8.216  10.368   0.885  4.9436  0.3488 -0.1853
  534MOL0     H70443   8.168  10.454   0.735  0.0075 -1.4422 -0.2110
  534MOL0     H70444   8.061  10.633   0.871 -2.1632  0.1358  0.7428
  534MOL0     H70445   8.090  10.523   1.013  1.3614 -2.0203 -0.4125
  534MOL0     H70446   7.938  10.434   0.764  1.3780 -0.9250 -0.6967
  534MOL0     H70447   7.962  10.332   0.902  2.3406  1.1393 -1.1301
  534MOL0     H70448   7.812  10.611   0.897  0.5339 -0.1667 -1.3154
  534MOL0     H70449   7.837  10.507   1.036  3.2722 -2.3266 -0.5184
  534MOL0     H70450   7.528  10.355   0.795  3.9517  1.5041  0.3289
  534MOL0     H70451   7.284  10.420   0.812  2.2100 -2.4513 -0.3889
  534MOL0     H70452   6.919  10.405   0.857  0.2065 -0.6772  1.6896
  534MOL0     H70453   6.675  10.479   0.836 -0.9115  1.1551 -1.0671
  534MOL0     H70454   6.532  10.893   0.759 -0.5370 -0.6162  0.6537
  534MOL0     H70455   6.548  10.830   0.931  3.9272 -3.4548 -0.3526
  534MOL0     H70456   6.335  10.761   0.733  4.4524  0.6451 -2.3033
  534MOL0     H70457   6.316  10.874   0.865  1.7791 -0.4413  1.0729
  534MOL0     H70458   6.375  10.701   1.035 -3.9072 -1.7593  2.1200
  534MOL0     H70459   6.405  10.588   0.910  3.1205  2.2730 -0.0396
  534MOL0     H70460   6.192  10.522   1.006 -4.4097 -0.8025 -1.7484
  534MOL0     H70461   6.131  10.695   1.009 -0.7390 -0.3772 -0.2733
  534MOL0     H70462   6.176  10.488   0.774 -1.3577 -0.2325 -2.3486
  534MOL0     H70463   6.133  10.659   0.749 -0.8526  0.1909 -0.6725
  534MOL0     H70464   5.941  10.599   0.927 -0.5763 -0.8358  0.4273
  534MOL0     H70465   5.978  10.436   0.864  2.6734  0.4480  1.5423
  534MOL0     H70466   5.870  10.675   0.713  2.2152  0.7701  0.4005
  534MOL0     H70467   5.948  10.544   0.628 -2.7591 -0.8353 -1.2589
  534MOL0     H70468   5.719  10.482   0.818  1.3646 -2.6274 -0.4236
  534MOL0     H70469   5.794  10.373   0.718  0.1236 -0.1537  1.0421
  534MOL0     H70470   6.759  10.877   0.815 -0.7683  0.1190 -3.1990
  534MOL0     H70471   7.002  10.841   0.795 -1.1021  0.9828 -1.6775
  534MOL0     H70472   7.417  10.750   1.067  0.6849 -1.2591  1.8047
  534MOL0     H70473   7.651  10.661   1.046  1.2526 -1.8419  1.3741
  534MOL0     H70474   9.239  10.397   1.478  0.7979 -0.1234 -0.0290
  534MOL0     H70475   9.445  10.243   1.511 -3.1079 -0.5782  0.9006
  534MOL0     H70476  10.076  10.342   1.614  0.0623 -0.3091  1.3530
  534MOL0     H70477  10.190  10.173   1.726 -0.1411 -2.0613  0.8734
  534MOL0     H70478  10.256   9.987   1.830 -0.6010  0.2948  0.7570
  534MOL0     H70479  10.268   9.878   1.687  1.3046  4.4032 -0.2206
  534MOL0     H70480  10.227   9.772   1.958 -2.3906  2.6867 -0.3747
  534MOL0     H70481  10.227   9.673   1.818 -0.8384 -0.7081 -1.5106
  534MOL0     H70482  10.468   9.833   1.898 -0.4680 -0.6091  1.4460
  534MOL0     H70483  10.471   9.736   1.752  0.8128  0.2100  0.2987
  534MOL0     H70484  10.575   9.605   1.929  0.5061  1.2444 -1.3793
  534MOL0     H70485  10.440   9.635   2.038 -0.9200 -0.8964 -0.2938
  534MOL0     H70486  10.330   9.323   1.746 -1.6443 -1.1867  1.1409
  534MOL0     H70487   9.845   9.907   1.700 -0.5771  0.6713 -0.9663
  534MOL0     H70488   9.726  10.095   1.601 -0.4412 -1.3118  2.0604
  535MOL0     O70489   8.222   1.008   6.482  0.6079 -0.2660  0.1957
  535MOL0     C70490   8.222   1.003   6.607  0.5292 -0.3683  0.0863
  535MOL0     O70491   8.327   0.998   6.693  0.5810 -0.9021 -0.4497
  535MOL0     C70492   8.444   0.979   6.632 -0.6294  0.4021  1.1117
  535MOL0     C70493   8.483   0.848   6.604  0.9409  0.6715 -0.2357
  535MOL0     C70494   8.612   0.810   6.550 -0.4063 -0.2995  0.6101
  535MOL0     C70495   8.698   0.913   6.507  0.7723 -0.9859 -0.1384
  535MOL0     O70496   8.812   0.888   6.438  0.2771  0.1701  1.1689
  535MOL0     C70497   8.865   0.755   6.415  0.0660  0.0784 -0.1402
  535MOL0     C70498   8.987   0.751   6.329 -0.0279 -0.8942 -0.3719
  535MOL0     C70499   8.960   0.780   6.176 -0.1408  0.3750  0.4771
  535MOL0     C70500   8.968   0.657   6.094  0.7364 -0.3052 -1.3848
  535MOL0     C70501   8.949   0.672   5.945 -0.4582  0.5557  0.8219
  535MOL0     C70502   9.084   0.702   5.873 -0.2101 -0.1511 -0.6340
  535MOL0     C70503   9.054   0.731   5.722  0.2889  0.6248 -0.6589
  535MOL0     C70504   9.166   0.812   5.664 -0.5933 -0.5056  0.0539
  535MOL0     N70505   9.140   0.806   5.514 -0.8532  0.0913 -0.3928
  535MOL0     C70506   9.148   0.903   5.417 -0.5537  0.3134  0.2482
  535MOL0     C70507   9.134   0.837   5.301 -0.0212 -0.7669 -0.1496
  535MOL0     C70508   9.175   0.908   5.171  0.7169  0.1494  0.4889
  535MOL0     C70509   9.090   0.850   5.059  0.2304 -0.3991 -0.1257
  535MOL0     C70510   8.972   0.945   5.039 -0.2752 -0.6673 -0.0949
  535MOL0     C70511   8.909   0.925   4.901 -0.2466  1.0007 -0.4252
  535MOL0     O70512   8.778   0.984   4.922 -0.1662  0.0657  0.2982
  535MOL0     C70513   8.693   1.000   4.807 -0.0969 -0.2975  0.4950
  535MOL0     C70514   8.579   1.076   4.834  0.3463 -0.0077 -0.3981
  535MOL0     C70515   8.499   1.111   4.722  0.3994  0.0284 -1.0153
  535MOL0     C70516   8.533   1.083   4.590  0.4845 -0.1492 -0.6911
  535MOL0     C70517   8.444   1.124   4.476  0.6096 -0.0677 -0.4564
  535MOL0     O70518   8.492   1.106   4.346  0.6649  0.3854  0.8603
  535MOL0     C70519   8.400   1.104   4.245 -0.0029  0.1341  0.1564
  535MOL0     C70520   8.351   1.232   4.198 -0.0561  0.2025  0.6130
  535MOL0     C70521   8.268   1.243   4.079  0.4751 -0.1288  0.5549
  535MOL0     C70522   8.231   1.134   4.010 -0.4135  1.4649 -0.0975
  535MOL0     O70523   8.156   1.152   3.902 -0.0950  1.1259  0.5858
  535MOL0     C70524   8.049   1.071   3.863 -0.7406  0.2231 -0.3773
  535MOL0     C70525   7.953   1.040   3.980  0.0429 -0.7536  0.2764
  535MOL0     C70526   7.834   0.952   3.942 -0.2250  0.1848  0.6793
  535MOL0     C70527   7.755   0.911   4.060 -0.4178  0.3801 -0.5248
  535MOL0     C70528   7.815   0.811   4.168 -0.1501 -0.1465  1.0426
  535MOL0     C70529   7.866   0.674   4.129 -0.1621  0.1962 -1.0377
  535MOL0     C70530   7.995   0.627   4.192 -0.9496  0.5581 -0.5256
  535MOL0     C70531   8.121   0.704   4.136  0.3481 -0.0108 -0.7050
  535MOL0    Cl70532   8.268   0.619   4.189 -0.3475 -0.1329 -0.2495
  535MOL0     C70533   8.292   1.010   4.045  0.6279  1.4835 -0.3243
  535MOL0     C70534   8.373   0.994   4.165  0.2625 -0.3317  0.3781
  535MOL0     O70535   8.338   1.180   4.504  0.0360  0.1048 -0.9698
  535MOL0     C70536   8.648   1.001   4.568  0.8851  0.1200 -0.0770
  535MOL0     C70537   8.726   0.973   4.676 -0.0685  0.5860 -0.4540
  535MOL0     N70538   9.116   0.706   5.326  0.5269  0.7560 -0.7285
  535MOL0     N70539   9.120   0.686   5.450  0.2843  1.1767 -0.5810
  535MOL0     C70540   8.669   1.044   6.541 -0.5668  0.0831  1.0111
  535MOL0     C70541   8.543   1.077   6.597 -0.4098  0.0262 -0.3712
  535MOL0     C70542   8.084   0.982   6.667  0.6487  0.5551 -0.9231
  535MOL0     C70543   7.961   0.992   6.592 -0.4275  0.1125  0.1717
  535MOL0     C70544   7.837   0.960   6.648  0.0394 -0.2319 -0.1063
  535MOL0     C70545   7.831   0.919   6.788 -0.7758 -0.4059  0.4767
  535MOL0     O70546   7.722   0.879   6.859  0.6136  0.5433  0.0944
  535MOL0     C70547   7.594   0.910   6.806  0.5891  0.1897  0.3652
  535MOL0     C70548   7.483   0.903   6.911  0.2509  0.6075 -0.4327
  535MOL0     C70549   7.349   0.950   6.844  0.2957  0.6046 -0.4211
  535MOL0     C70550   7.231   0.952   6.940 -0.1080 -0.6148  0.7471
  535MOL0     C70551   7.162   0.827   6.953  0.1109  0.1049 -0.2478
  535MOL0     C70552   7.115   0.718   6.959  0.1718  0.3365 -0.2360
  535MOL0     C70553   7.952   0.920   6.861 -0.3324 -0.5418  0.4268
  535MOL0     C70554   8.074   0.946   6.803 -0.9904 -0.4858 -0.4241
  535MOL0     H70555   8.414   0.767   6.626  0.7564  0.8609 -0.1175
  535MOL0     H70556   8.623   0.706   6.523 -1.1193 -0.2692  0.1606
  535MOL0     H70557   8.795   0.685   6.367 -0.4246  0.2383  0.3340
  535MOL0     H70558   8.898   0.719   6.513 -0.0316 -1.6090 -0.6925
  535MOL0     H70559   9.033   0.653   6.347 -0.7222 -0.7376  2.8907
  535MOL0     H70560   9.057   0.828   6.361 -1.3524  0.4603 -0.5979
  535MOL0     H70561   9.049   0.838   6.147  1.5669  0.2652  4.7853
  535MOL0     H70562   8.874   0.842   6.152 -0.4092  0.9327  2.6725
  535MOL0     H70563   9.070   0.623   6.113  0.5793  1.3528  3.9765
  535MOL0     H70564   8.893   0.591   6.138 -2.6413  0.5173 -5.2465
  535MOL0     H70565   8.887   0.760   5.930 -0.1747  1.0318  2.3034
  535MOL0     H70566   8.906   0.583   5.897  1.5465 -0.0040 -0.0859
  535MOL0     H70567   9.147   0.612   5.868  2.2346  1.5035 -2.3834
  535MOL0     H70568   9.136   0.779   5.930 -1.4549 -0.9363  1.7009
  535MOL0     H70569   9.052   0.634   5.673 -0.6156  1.0568 -1.4886
  535MOL0     H70570   8.959   0.780   5.698 -0.7327 -1.3635 -0.8404
  535MOL0     H70571   9.267   0.770   5.669 -0.5980 -0.4702  0.4505
  535MOL0     H70572   9.165   0.916   5.698 -1.3865  0.3696 -2.4226
  535MOL0     H70573   9.163   1.010   5.428  0.9786 -0.1143  3.1214
  535MOL0     H70574   9.283   0.888   5.169  0.4189 -1.5732 -1.0057
  535MOL0     H70575   9.160   1.016   5.177 -0.3609  0.0665 -0.4281
  535MOL0     H70576   9.052   0.749   5.079 -1.4423 -0.0165 -1.1819
  535MOL0     H70577   9.156   0.848   4.972  0.7120  2.0655  0.1309
  535MOL0     H70578   8.897   0.917   5.113 -1.5085  0.0373 -1.0391
  535MOL0     H70579   8.983   1.054   5.045 -0.4419 -0.7265  3.0330
  535MOL0     H70580   8.906   0.817   4.882 -1.4765  0.8955  0.2224
  535MOL0     H70581   8.970   0.974   4.825  2.1912  0.1837  0.9098
  535MOL0     H70582   8.557   1.097   4.939  2.2058 -1.8624  0.4281
  535MOL0     H70583   8.407   1.167   4.736 -1.1682 -1.9482 -2.7495
  535MOL0     H70584   8.379   1.320   4.256  0.1569 -1.6857  3.6178
  535MOL0     H70585   8.229   1.341   4.055 -0.6367 -0.6065  0.3681
  535MOL0     H70586   8.084   0.981   3.812  1.2515  1.4829 -1.3737
  535MOL0     H70587   7.989   1.115   3.783 -2.1888 -3.3207 -1.4487
  535MOL0     H70588   7.908   1.136   4.005  2.2468  0.3714  0.1491
  535MOL0     H70589   8.015   0.992   4.057  1.7986 -3.9248 -2.7810
  535MOL0     H70590   7.878   0.864   3.895  0.3292 -1.6116  4.2090
  535MOL0     H70591   7.762   0.995   3.872 -2.2350 -0.4016  2.2852
  535MOL0     H70592   7.714   0.992   4.121 -1.0118  0.8484 -1.5242
  535MOL0     H70593   7.662   0.871   4.019  0.0135 -0.1069 -1.0429
  535MOL0     H70594   7.747   0.793   4.252  2.2683 -0.7207  2.9743
  535MOL0     H70595   7.901   0.860   4.213  2.0267 -1.0355 -1.8481
  535MOL0     H70596   7.886   0.655   4.023 -0.1924 -1.7040 -0.7347
  535MOL0     H70597   7.793   0.598   4.158  0.1790 -0.2508 -1.3420
  535MOL0     H70598   7.997   0.630   4.301  2.9778 -2.2177 -0.3143
  535MOL0     H70599   8.009   0.520   4.171  1.6157  0.7387  0.0324
  535MOL0     H70600   8.127   0.810   4.162  1.0024 -0.2718  0.2454
  535MOL0     H70601   8.119   0.722   4.028  2.6864 -0.2224 -0.8313
  535MOL0     H70602   8.301   0.924   3.979 -1.2757  0.3616  0.7629
  535MOL0     H70603   8.433   0.906   4.183  0.7799  0.1437  1.0695
  535MOL0     H70604   8.669   0.968   4.467 -1.5565  0.8406 -0.9097
  535MOL0     H70605   8.825   0.937   4.650  0.2535  1.2625 -0.1878
  535MOL0     H70606   8.742   1.122   6.521 -0.8677  0.9149  2.9149
  535MOL0     H70607   8.517   1.177   6.628 -1.4908  0.0733 -1.3706
  535MOL0     H70608   7.970   1.005   6.484  4.4206  0.5271  0.4141
  535MOL0     H70609   7.745   0.963   6.590 -0.8314  2.0158  1.2322
  535MOL0     H70610   7.561   0.846   6.723  1.0471 -0.1718  0.4554
  535MOL0     H70611   7.587   1.016   6.782 -1.2013  0.2909  1.1230
  535MOL0     H70612   7.472   0.798   6.942 -1.3152  0.4882 -1.2829
  535MOL0     H70613   7.512   0.977   6.987 -0.3739 -0.5501  1.0013
  535MOL0     H70614   7.323   0.888   6.757 -1.0858 -2.3086  1.9020
  535MOL0     H70615   7.368   1.053   6.815  0.9605  0.8732  0.9210
  535MOL0     H70616   7.266   0.986   7.038 -2.2112 -0.6615  1.5591
  535MOL0     H70617   7.162   1.034   6.917 -1.4534 -1.4164  1.8463
  535MOL0     H70618   7.064   0.625   6.944 -1.9371  1.2262  1.0410
  535MOL0     H70619   7.937   0.899   6.967 -2.7509 -3.1512 -0.3026
  535MOL0     H70620   8.162   0.933   6.865 -0.0118  1.6989 -1.2401
  536MOL0     O70621   8.612   7.337   4.101  0.4124 -0.8037  0.1905
  536MOL0     C70622   8.703   7.350   4.017 -0.5008 -0.0168 -0.7984
  536MOL0     O70623   8.691   7.413   3.893 -0.3576 -0.0806 -0.3583
  536MOL0     C70624   8.572   7.460   3.849 -0.1942 -0.3798  0.5315
  536MOL0     C70625   8.442   7.405   3.870 -0.3186  0.3546 -0.1533
  536MOL0     C70626   8.336   7.454   3.785 -0.2921 -1.7030  0.0489
  536MOL0     C70627   8.348   7.549   3.682 -0.1169  0.0512 -0.7840
  536MOL0     O70628   8.257   7.619   3.613 -0.5298  0.4664 -0.3107
  536MOL0     C70629   8.131   7.626   3.667  0.6362 -0.2446  0.1161
  536MOL0     C70630   8.086   7.757   3.603 -0.2087 -0.1612  0.2929
  536MOL0     C70631   7.946   7.791   3.668 -0.1661 -0.1926 -0.1631
  536MOL0     C70632   7.893   7.943   3.653 -1.3808 -0.3282  1.1288
  536MOL0     C70633   7.760   7.960   3.719  0.4583 -0.0292  0.0736
  536MOL0     C70634   7.706   8.104   3.683  0.6772  0.0111  0.3483
  536MOL0     C70635   7.557   8.114   3.706 -1.7724 -0.1687  0.8701
  536MOL0     C70636   7.515   8.161   3.855  0.4093  0.3529  0.2659
  536MOL0     N70637   7.365   8.140   3.867  0.1729  0.2104 -0.3831
  536MOL0     C70638   7.294   8.031   3.818 -0.3292 -0.5648 -0.2231
  536MOL0     C70639   7.159   8.058   3.835  0.5750 -0.2849 -0.8818
  536MOL0     C70640   7.031   7.991   3.810  0.0005 -0.3552  0.2869
  536MOL0     C70641   6.921   8.088   3.753  1.3077  0.1986 -0.5517
  536MOL0     C70642   6.974   8.173   3.636 -0.0311  0.4802  0.6542
  536MOL0     C70643   6.970   8.120   3.491  0.2409  0.1674  0.1239
  536MOL0     O70644   7.037   7.996   3.473  0.6043 -0.2176 -0.1364
  536MOL0     C70645   7.166   8.003   3.429  0.7236 -0.1184  0.1338
  536MOL0     C70646   7.218   7.899   3.344  0.2021 -0.0587  0.3008
  536MOL0     C70647   7.341   7.900   3.287 -0.2889 -0.5970  0.3585
  536MOL0     C70648   7.430   8.004   3.308  0.5420  0.5029 -0.2338
  536MOL0     C70649   7.560   8.007   3.239  0.2757  0.1796 -0.1087
  536MOL0     O70650   7.626   7.887   3.209 -0.0487  0.1173 -0.2140
  536MOL0     C70651   7.759   7.892   3.176 -0.7634  0.0128 -0.4940
  536MOL0     C70652   7.866   7.970   3.235 -0.6339 -0.0220  0.2474
  536MOL0     C70653   7.999   7.942   3.222 -0.2787  0.5963  0.9265
  536MOL0     C70654   8.049   7.831   3.140  0.2580 -0.1028 -0.2613
  536MOL0     O70655   8.184   7.795   3.130  0.8837  0.5959  0.1186
  536MOL0     C70656   8.278   7.892   3.153 -0.3889 -0.4333  0.6465
  536MOL0     C70657   8.406   7.856   3.067  0.0639 -0.2122 -0.4145
  536MOL0     C70658   8.530   7.945   3.090  0.7923  0.0581  0.4847
  536MOL0     C70659   8.631   7.936   2.975  0.4583  1.3824  0.7120
  536MOL0     C70660   8.754   8.014   3.007 -1.2803  0.9485  0.5752
  536MOL0     C70661   8.878   7.958   2.932  0.2336  0.2619  0.1378
  536MOL0     C70662   9.009   8.032   2.955 -0.1947 -0.5962  0.1732
  536MOL0     C70663   9.125   7.957   2.896  0.4557 -0.4124  0.4348
  536MOL0    Cl70664   9.279   8.021   2.957 -0.2715  0.1636  0.0702
  536MOL0     C70665   7.947   7.756   3.080 -0.2986 -0.4427 -1.7249
  536MOL0     C70666   7.813   7.781   3.107 -0.6297 -0.4674 -0.3701
  536MOL0     O70667   7.605   8.115   3.232  0.3802 -0.7206  0.3771
  536MOL0     C70668   7.388   8.103   3.398 -0.6734 -0.8246 -0.2034
  536MOL0     C70669   7.258   8.103   3.456 -0.6252  0.1411  0.9922
  536MOL0     N70670   7.155   8.175   3.905 -0.7549  0.4172  0.1843
  536MOL0     N70671   7.270   8.228   3.917 -0.6211  1.0326  1.0383
  536MOL0     C70672   8.476   7.589   3.661 -0.2370 -0.6479  0.3574
  536MOL0     C70673   8.583   7.548   3.745 -0.4910  1.1812 -0.5414
  536MOL0     C70674   8.836   7.304   4.056  0.8809  0.0484 -0.2477
  536MOL0     C70675   8.859   7.238   4.175 -0.4424  0.2892  0.0585
  536MOL0     C70676   8.985   7.181   4.200  0.5200  0.5453  0.3869
  536MOL0     C70677   9.076   7.160   4.090  0.0327 -0.1201 -0.2819
  536MOL0     O70678   9.194   7.093   4.102 -0.3187  0.2483 -0.2904
  536MOL0     C70679   9.244   7.067   4.228  0.0670  0.6310 -1.0315
  536MOL0     C70680   9.391   7.039   4.228 -0.5054 -0.5772  0.0677
  536MOL0     C70681   9.434   6.920   4.143 -0.4941 -0.2062 -0.2254
  536MOL0     C70682   9.579   6.878   4.176  0.5674  0.0856  0.3326
  536MOL0     C70683   9.628   6.790   4.069 -0.1214  0.0556  0.2374
  536MOL0     C70684   9.657   6.704   3.981 -0.2034 -0.2144  0.2017
  536MOL0     C70685   9.048   7.232   3.973 -0.1051  0.1704  0.7023
  536MOL0     C70686   8.932   7.316   3.966 -0.0226 -0.7803  0.1899
  536MOL0     H70687   8.433   7.330   3.948  1.1422  2.5311  2.2675
  536MOL0     H70688   8.235   7.419   3.802 -2.6681  2.8604 -2.6705
  536MOL0     H70689   8.124   7.639   3.776  1.5811 -1.0458  0.2904
  536MOL0     H70690   8.074   7.539   3.632  2.3431 -0.6133 -1.9210
  536MOL0     H70691   8.069   7.752   3.495 -0.4825 -0.8776  0.3619
  536MOL0     H70692   8.151   7.837   3.638 -0.6762 -0.2421  1.3849
  536MOL0     H70693   7.938   7.765   3.774  1.4336 -0.3456 -0.0642
  536MOL0     H70694   7.871   7.727   3.620 -0.9565  0.5146  0.1001
  536MOL0     H70695   7.963   8.012   3.701 -3.2234  2.1617  0.4082
  536MOL0     H70696   7.882   7.967   3.547 -2.1015 -1.4556  0.9268
  536MOL0     H70697   7.749   7.935   3.825  0.2038 -1.6749 -0.3096
  536MOL0     H70698   7.700   7.893   3.657  1.7372 -1.1461  0.0053
  536MOL0     H70699   7.723   8.112   3.575  0.9805 -0.1391  0.3833
  536MOL0     H70700   7.764   8.184   3.730  0.1950  3.0337 -3.6517
  536MOL0     H70701   7.507   8.168   3.626 -1.3868  0.2075  0.8846
  536MOL0     H70702   7.511   8.016   3.689 -0.4231 -0.2562 -3.1188
  536MOL0     H70703   7.549   8.260   3.887 -2.0197  0.6818  2.1372
  536MOL0     H70704   7.558   8.086   3.921  3.0263 -1.1850 -2.9056
  536MOL0     H70705   7.325   7.941   3.765 -0.6327 -0.3787 -0.7236
  536MOL0     H70706   6.996   7.955   3.908  1.3089  0.9469  1.2713
  536MOL0     H70707   7.055   7.914   3.736 -0.4800  1.8150 -2.2564
  536MOL0     H70708   6.887   8.164   3.824  1.0743 -0.3909 -0.0225
  536MOL0     H70709   6.838   8.028   3.715  1.2471  1.3250 -2.3124
  536MOL0     H70710   6.903   8.255   3.623 -4.0068 -3.1689 -5.0378
  536MOL0     H70711   7.065   8.224   3.670 -0.7049  1.9216  0.3767
  536MOL0     H70712   7.006   8.197   3.422  2.3940 -2.4009 -1.8174
  536MOL0     H70713   6.864   8.110   3.464 -0.3790  1.2082  1.9618
  536MOL0     H70714   7.151   7.815   3.325 -0.6215  0.5627  0.3714
  536MOL0     H70715   7.365   7.817   3.221  2.8149 -0.5730  1.2704
  536MOL0     H70716   7.848   8.059   3.295  2.3981  2.1076 -1.7412
  536MOL0     H70717   8.065   7.983   3.298  1.6601  1.5466 -1.1539
  536MOL0     H70718   8.306   7.893   3.259  1.3360  0.6105  0.2306
  536MOL0     H70719   8.253   7.994   3.121 -0.8842 -0.1575  1.8479
  536MOL0     H70720   8.389   7.854   2.959  2.0090 -1.3758 -0.7598
  536MOL0     H70721   8.436   7.755   3.096 -1.4969 -0.1478  1.6277
  536MOL0     H70722   8.574   7.913   3.185  0.4216 -1.0118  0.3036
  536MOL0     H70723   8.487   8.046   3.091  1.0231  0.1788 -0.4386
  536MOL0     H70724   8.649   7.829   2.961 -0.8932  1.2894 -0.5206
  536MOL0     H70725   8.578   7.970   2.885  0.5917 -0.7124 -0.2230
  536MOL0     H70726   8.762   8.004   3.115 -3.5666 -3.2485  0.5850
  536MOL0     H70727   8.738   8.119   2.983 -1.0877  0.9603  0.4893
  536MOL0     H70728   8.865   7.949   2.823  0.8029 -1.2615  0.1692
  536MOL0     H70729   8.896   7.858   2.972  0.7806 -0.8084 -2.5271
  536MOL0     H70730   9.005   8.132   2.910 -0.9899 -0.7768 -0.1796
  536MOL0     H70731   9.016   8.063   3.059 -1.2313  4.5462 -0.9860
  536MOL0     H70732   9.121   7.954   2.787  1.0348 -2.7896  0.4125
  536MOL0     H70733   9.134   7.854   2.931  1.9428 -0.5900 -0.3508
  536MOL0     H70734   7.990   7.679   3.017  1.9226  1.5231 -2.7792
  536MOL0     H70735   7.737   7.714   3.068 -1.1117  0.6117 -1.3329
  536MOL0     H70736   7.451   8.186   3.430 -1.4392  0.0770 -0.9323
  536MOL0     H70737   7.223   8.178   3.525  1.9196  1.6719  0.7669
  536MOL0     H70738   8.495   7.680   3.605  1.0822 -1.0848  0.0517
  536MOL0     H70739   8.684   7.579   3.718  0.6987  0.4007  2.5496
  536MOL0     H70740   8.790   7.240   4.259 -1.5878 -2.3771 -0.7005
  536MOL0     H70741   9.021   7.146   4.296  1.7367 -0.6161 -0.4608
  536MOL0     H70742   9.200   6.982   4.280  2.8183 -1.2396 -1.5546
  536MOL0     H70743   9.228   7.154   4.293 -2.0434  0.6019 -1.4339
  536MOL0     H70744   9.453   7.127   4.208  0.2984 -0.8226  1.3691
  536MOL0     H70745   9.412   7.018   4.333 -3.4536 -0.3772  0.7586
  536MOL0     H70746   9.433   6.945   4.036  1.5694 -1.8445 -0.7030
  536MOL0     H70747   9.375   6.831   4.169 -0.7661  0.3136  0.9835
  536MOL0     H70748   9.643   6.967   4.171  0.6985  0.1529  2.3870
  536MOL0     H70749   9.580   6.834   4.276  0.9530  0.0685  0.3249
  536MOL0     H70750   9.695   6.620   3.928  1.6830  1.5130 -1.3432
  536MOL0     H70751   9.125   7.231   3.896 -1.0220 -0.9756 -0.2512
  536MOL0     H70752   8.919   7.360   3.868  0.6607 -3.1172 -1.0244
  537MOL0     O70753   8.218  10.254   5.413 -0.9879 -0.4866  0.3736
  537MOL0     C70754   8.138  10.334   5.372  0.4028 -0.0591 -0.3557
  537MOL0     O70755   8.151  10.397   5.246  0.0238  0.0777  0.1589
  537MOL0     C70756   8.253  10.357   5.162  0.0456 -0.2047  0.4175
  537MOL0     C70757   8.312  10.453   5.085  0.3932 -0.5946  0.6128
  537MOL0     C70758   8.406  10.416   4.998 -0.6010 -0.1123  0.1557
  537MOL0     C70759   8.454  10.288   4.979  0.5821 -0.2006  0.5254
  537MOL0     O70760   8.551  10.250   4.890  0.5453  0.0382  1.0778
  537MOL0     C70761   8.645  10.342   4.838 -0.0800 -0.1308 -0.1863
  537MOL0     C70762   8.731  10.412   4.941 -0.0543  0.2048  0.7434
  537MOL0     C70763   8.800  10.333   5.050  0.1557  0.6367  0.7816
  537MOL0     C70764   8.936  10.394   5.081 -0.7767 -0.2296 -0.5435
  537MOL0     C70765   9.017  10.322   5.198 -0.5647 -0.4133  1.1927
  537MOL0     C70766   8.971  10.353   5.342  0.5178 -0.3547  0.6039
  537MOL0     C70767   9.072  10.288   5.441 -0.1142 -0.7997 -0.1069
  537MOL0     C70768   9.030  10.314   5.589 -0.4548  0.4227  0.1468
  537MOL0     N70769   9.020  10.451   5.624 -0.3027  0.1314 -0.0684
  537MOL0     C70770   8.920  10.506   5.698 -0.4054  0.4120 -0.3940
  537MOL0     C70771   8.951  10.637   5.707 -0.4739  0.5466  0.2754
  537MOL0     C70772   8.870  10.756   5.756 -0.0839 -0.1377 -0.2773
  537MOL0     C70773   8.716  10.732   5.728 -0.4495 -0.3884 -0.5140
  537MOL0     C70774   8.620  10.827   5.809 -0.3769  0.0205 -0.5313
  537MOL0     C70775   8.479  10.808   5.759 -0.5631 -0.3041 -0.3689
  537MOL0     O70776   8.395  10.904   5.827 -0.2825 -0.2184 -0.1736
  537MOL0     C70777   8.319  10.864   5.938 -0.3661 -0.1410  0.1802
  537MOL0     C70778   8.228  10.959   5.986  1.0287  0.8518 -0.4026
  537MOL0     C70779   8.143  10.933   6.094  0.6810  0.4473  0.1468
  537MOL0     C70780   8.146  10.800   6.152  0.3762 -0.4295  0.2747
  537MOL0     C70781   8.053  10.769   6.262  1.3435 -0.0641 -0.0725
  537MOL0     O70782   7.957  10.858   6.283  0.2435 -0.3800 -0.0088
  537MOL0     C70783   7.911  10.878   6.413 -0.6027 -0.4018  0.8516
  537MOL0     C70784   8.001  10.913   6.519 -0.1961 -0.0931  0.4270
  537MOL0     C70785   7.952  10.944   6.636 -0.1380 -1.0193  0.0155
  537MOL0     C70786   7.818  10.920   6.673 -0.8344  0.0873  0.8319
  537MOL0     O70787   7.786  10.962   6.799 -0.0547 -0.0403  0.0544
  537MOL0     C70788   7.651  10.927   6.841 -0.1833 -0.7503  0.9093
  537MOL0     C70789   7.616  11.000   6.975  0.8130  0.0131  0.8159
  537MOL0     C70790   7.466  11.007   7.005  0.0882  0.8061 -0.4363
  537MOL0     C70791   7.437  11.103   7.130  0.5324 -0.1680  0.1312
  537MOL0     C70792   7.288  11.087   7.154  1.0415 -0.7805 -0.2274
  537MOL0     C70793   7.235  11.190   7.253 -0.0620  0.0450  0.5358
  537MOL0     C70794   7.204  11.320   7.206  0.3209 -0.1749  0.7782
  537MOL0     C70795   7.176  11.408   7.324  0.4987  0.4278  0.5031
  537MOL0    Cl70796   7.035  11.366   7.434 -0.0790  0.0630  0.1837
  537MOL0     C70797   7.727  10.870   6.577 -0.6003  0.2102 -0.0062
  537MOL0     C70798   7.780  10.864   6.454 -0.9318  0.4544  0.5129
  537MOL0     O70799   8.069  10.660   6.318  0.0356  0.3575 -0.4023
  537MOL0     C70800   8.241  10.710   6.104 -0.9184 -0.0033  0.1733
  537MOL0     C70801   8.333  10.742   6.005 -0.0843  0.1341 -0.1296
  537MOL0     N70802   9.078  10.654   5.648  0.3098 -0.0179  0.1587
  537MOL0     N70803   9.106  10.546   5.581  0.4290  0.6268 -1.7057
  537MOL0     C70804   8.394  10.187   5.056  0.4472 -0.3555 -0.1059
  537MOL0     C70805   8.293  10.218   5.144  0.5532  1.1194  0.1317
  537MOL0     C70806   8.008  10.335   5.447  0.2587  0.4459  0.5249
  537MOL0     C70807   7.977  10.232   5.544  0.4565 -0.0743  0.1857
  537MOL0     C70808   7.855  10.238   5.625 -0.7334 -0.3256 -0.2355
  537MOL0     C70809   7.760  10.339   5.585 -0.1643  0.4549  0.2771
  537MOL0     O70810   7.645  10.364   5.654  0.0112 -0.0724 -0.1001
  537MOL0     C70811   7.604  10.265   5.740  0.3313  0.6057 -0.3397
  537MOL0     C70812   7.454  10.266   5.771  0.4397  0.8585 -0.0169
  537MOL0     C70813   7.371  10.186   5.664 -0.0251 -0.1729 -0.7761
  537MOL0     C70814   7.353  10.250   5.529  0.6728  0.2055  0.6229
  537MOL0     C70815   7.289  10.148   5.431 -0.3287 -1.2980 -0.5941
  537MOL0     C70816   7.252  10.067   5.351 -0.2141  0.3457  0.2426
  537MOL0     C70817   7.778  10.421   5.475 -0.3178 -0.2715 -0.6810
  537MOL0     C70818   7.901  10.419   5.412 -0.7069  0.5280 -0.8920
  537MOL0     H70819   8.270  10.553   5.080  1.4705 -0.1710 -0.2425
  537MOL0     H70820   8.455  10.493   4.939  1.4108 -0.7565  0.8853
  537MOL0     H70821   8.592  10.423   4.786  0.9905  1.5685  1.2242
  537MOL0     H70822   8.699  10.290   4.758  1.0382 -2.7614  2.1314
  537MOL0     H70823   8.672  10.490   4.990 -0.5970 -0.3041  0.8995
  537MOL0     H70824   8.809  10.463   4.884 -1.6153  1.5096 -0.3162
  537MOL0     H70825   8.823  10.236   5.004  0.0874  2.2234 -2.9832
  537MOL0     H70826   8.750  10.320   5.146  2.6560 -0.5242  2.0313
  537MOL0     H70827   9.005  10.383   4.998 -0.4030 -0.5758 -0.1929
  537MOL0     H70828   8.931  10.498   5.115  1.1387 -0.5620  0.9676
  537MOL0     H70829   9.125  10.338   5.189 -0.3563 -2.1826  0.1758
  537MOL0     H70830   9.022  10.216   5.174  2.2986 -0.3504  1.2121
  537MOL0     H70831   8.875  10.302   5.357 -0.8420 -0.5477 -5.7933
  537MOL0     H70832   8.959  10.460   5.358  0.7013  0.0288 -1.5835
  537MOL0     H70833   9.082  10.181   5.423  0.8378 -0.4598 -1.8043
  537MOL0     H70834   9.166  10.340   5.421 -0.7018 -0.1408 -1.2542
  537MOL0     H70835   9.097  10.260   5.656 -1.6351 -2.3894 -0.7887
  537MOL0     H70836   8.932  10.267   5.602 -0.9900  1.9314  2.1523
  537MOL0     H70837   8.827  10.463   5.733 -1.3472  0.6399 -2.4460
  537MOL0     H70838   8.916  10.847   5.718  2.9519 -1.7289 -0.7070
  537MOL0     H70839   8.891  10.767   5.863 -2.2832  0.3409  0.1610
  537MOL0     H70840   8.680  10.629   5.742 -0.7470 -0.3854 -1.1995
  537MOL0     H70841   8.709  10.746   5.619 -1.1130 -0.2023 -0.4531
  537MOL0     H70842   8.628  10.795   5.914 -1.6728  2.3742  0.3540
  537MOL0     H70843   8.655  10.930   5.799  2.1993 -0.3528  2.8065
  537MOL0     H70844   8.438  10.707   5.759  0.0189 -0.5522 -1.4456
  537MOL0     H70845   8.475  10.831   5.653  0.9722 -2.2623 -0.9072
  537MOL0     H70846   8.216  11.047   5.923  2.2549  0.0358 -1.8441
  537MOL0     H70847   8.078  11.012   6.130  1.5712  1.1205  0.3185
  537MOL0     H70848   8.104  10.935   6.494 -1.1058  3.2153 -1.0938
  537MOL0     H70849   8.018  10.983   6.713 -0.6736 -0.7482  0.3415
  537MOL0     H70850   7.649  10.818   6.852 -1.9676 -0.9125 -0.5664
  537MOL0     H70851   7.578  10.965   6.769  0.9598  1.0606  0.6252
  537MOL0     H70852   7.665  11.097   6.976 -0.0366  0.5521 -1.8219
  537MOL0     H70853   7.682  10.945   7.043  0.4076 -3.6068 -1.4149
  537MOL0     H70854   7.433  10.905   7.027  3.0070 -0.0721  0.2939
  537MOL0     H70855   7.411  11.044   6.918 -0.8177 -2.6480 -1.4817
  537MOL0     H70856   7.500  11.097   7.219 -1.1235  0.6939  1.4166
  537MOL0     H70857   7.452  11.207   7.099 -0.1062 -0.1823 -0.2458
  537MOL0     H70858   7.277  10.991   7.205 -1.7504 -0.1867  0.4626
  537MOL0     H70859   7.233  11.100   7.060  0.4280  0.7808  0.3231
  537MOL0     H70860   7.298  11.203   7.342 -0.7275  1.7004  0.7996
  537MOL0     H70861   7.144  11.146   7.296 -1.4458  1.9488 -0.3115
  537MOL0     H70862   7.277  11.355   7.133 -1.6753 -0.0724 -1.3178
  537MOL0     H70863   7.111  11.321   7.148  2.0825  0.0734 -2.2613
  537MOL0     H70864   7.143  11.507   7.290 -1.2215 -0.2327  0.1429
  537MOL0     H70865   7.268  11.415   7.381  1.0278 -1.3139 -0.0696
  537MOL0     H70866   7.625  10.841   6.597  0.0565 -0.7260  2.4474
  537MOL0     H70867   7.707  10.842   6.377 -2.3553  0.9355  1.6725
  537MOL0     H70868   8.250  10.610   6.145  2.6619 -0.7135 -1.9185
  537MOL0     H70869   8.408  10.667   5.982 -0.0496  0.0906  0.1209
  537MOL0     H70870   8.413  10.081   5.044  0.7034 -0.2555 -0.6014
  537MOL0     H70871   8.245  10.136   5.197  0.0129  0.6669 -1.0423
  537MOL0     H70872   8.056  10.159   5.557  0.1331 -0.8389 -1.7306
  537MOL0     H70873   7.841  10.162   5.701  1.3344 -2.9186 -2.2511
  537MOL0     H70874   7.668  10.278   5.828 -2.4055  0.2087  1.8513
  537MOL0     H70875   7.629  10.166   5.701  0.9084  1.0104 -1.0116
  537MOL0     H70876   7.438  10.216   5.867  3.0700 -1.0676 -0.4690
  537MOL0     H70877   7.419  10.370   5.777  1.4993  1.3420 -1.5588
  537MOL0     H70878   7.273  10.158   5.703 -0.1505  1.2162 -0.0167
  537MOL0     H70879   7.432  10.098   5.645  0.3152  0.0068 -0.5310
  537MOL0     H70880   7.293  10.341   5.519  2.7520  1.4025 -4.1515
  537MOL0     H70881   7.451  10.280   5.490 -0.1821  0.0605 -1.8225
  537MOL0     H70882   7.225   9.991   5.280  1.8815 -1.3238  1.1281
  537MOL0     H70883   7.692  10.478   5.442 -1.1163 -0.3567  1.1472
  537MOL0     H70884   7.929  10.490   5.335  0.7677 -1.9150 -2.7433
  538MOL0     O70885   5.323   3.399   4.202  0.2922 -0.5351  0.2258
  538MOL0     C70886   5.380   3.475   4.122  0.1447 -0.1527 -0.4599
  538MOL0     O70887   5.319   3.542   4.012 -0.0806  0.2182  0.1904
  538MOL0     C70888   5.190   3.504   3.987 -0.9866  0.9176  0.5392
  538MOL0     C70889   5.147   3.376   3.953  0.3861  0.0404  0.6212
  538MOL0     C70890   5.015   3.343   3.922  0.0749 -0.5192  0.7222
  538MOL0     C70891   4.917   3.443   3.932 -0.1631  0.4836  0.4725
  538MOL0     O70892   4.788   3.432   3.892  0.3732 -0.2712  0.1950
  538MOL0     C70893   4.688   3.493   3.966  0.7906  0.0298  0.0072
  538MOL0     C70894   4.553   3.420   3.939 -0.5515  0.3679 -0.7468
  538MOL0     C70895   4.439   3.481   4.011  0.4373  0.1367 -1.2128
  538MOL0     C70896   4.451   3.465   4.167  0.1413 -0.2845 -0.5484
  538MOL0     C70897   4.308   3.431   4.221  0.6539  0.2856  0.3897
  538MOL0     C70898   4.193   3.538   4.206 -0.8475  0.8314 -1.0160
  538MOL0     C70899   4.209   3.663   4.289  0.4953 -0.6159 -0.0101
  538MOL0     C70900   4.171   3.649   4.437 -0.8602  0.8345  0.2846
  538MOL0     N70901   4.024   3.679   4.469  0.1902  0.3957  0.4494
  538MOL0     C70902   3.996   3.807   4.512  0.2125  0.2670 -0.6931
  538MOL0     C70903   3.863   3.809   4.531  1.1622 -0.2568  0.1649
  538MOL0     C70904   3.785   3.935   4.574  0.4661  0.9615  0.1272
  538MOL0     C70905   3.793   4.039   4.470  0.1609  0.0283 -0.0344
  538MOL0     C70906   3.720   4.008   4.349 -0.5585  0.3962  0.3619
  538MOL0     C70907   3.748   4.110   4.237 -0.0917  1.2422 -0.4508
  538MOL0     O70908   3.693   4.240   4.272 -0.5628  0.0130  0.0935
  538MOL0     C70909   3.558   4.236   4.250  0.3765  0.3005  0.3682
  538MOL0     C70910   3.467   4.261   4.358  0.1532 -0.4638 -0.5806
  538MOL0     C70911   3.331   4.254   4.354  0.1417 -0.1480  0.0769
  538MOL0     C70912   3.265   4.211   4.238  0.2543 -0.6876 -0.5700
  538MOL0     C70913   3.126   4.165   4.225  0.9091  0.1980  0.2151
  538MOL0     O70914   3.065   4.169   4.100  0.5600 -0.3178 -0.3428
  538MOL0     C70915   2.936   4.142   4.103  0.5627  0.5307  0.2522
  538MOL0     C70916   2.848   4.249   4.076 -0.4032 -0.4041  0.1723
  538MOL0     C70917   2.712   4.233   4.077 -0.0461  0.2313  0.0126
  538MOL0     C70918   2.657   4.108   4.092  0.2632 -0.0764  0.5229
  538MOL0     O70919   2.517   4.119   4.084 -0.5568 -0.2778  0.0171
  538MOL0     C70920   2.445   4.008   4.137 -0.2317 -0.1945  0.0214
  538MOL0     C70921   2.306   4.011   4.082 -0.2825  0.0806  1.2579
  538MOL0     C70922   2.206   3.910   4.101 -0.6461  1.6559  0.6369
  538MOL0     C70923   2.063   3.943   4.035  0.4941 -0.9071 -0.6715
  538MOL0     C70924   1.954   3.843   4.089  0.2352  0.7671  1.0426
  538MOL0     C70925   1.815   3.858   4.023 -0.5746  0.6685  0.7403
  538MOL0     C70926   1.730   3.759   4.086 -0.5133  0.8990 -0.3652
  538MOL0     C70927   1.592   3.789   4.032 -0.9595  0.0859 -1.1823
  538MOL0    Cl70928   1.476   3.690   4.131 -0.2755 -0.1178 -0.2543
  538MOL0     C70929   2.738   3.996   4.111 -0.2091  0.4168 -1.0553
  538MOL0     C70930   2.877   4.016   4.118  0.3809 -0.4546  0.0804
  538MOL0     O70931   3.073   4.128   4.334  0.0588 -0.0318  0.0771
  538MOL0     C70932   3.354   4.192   4.129 -0.3623 -0.4766  0.8184
  538MOL0     C70933   3.491   4.206   4.130 -0.2102 -0.7136 -0.3656
  538MOL0     N70934   3.817   3.685   4.496  1.3301  0.2992  0.3271
  538MOL0     N70935   3.916   3.604   4.460  0.4800 -0.6950 -0.2964
  538MOL0     C70936   4.955   3.577   3.956  0.1624  0.9079 -0.6681
  538MOL0     C70937   5.094   3.606   3.979  0.1711 -0.3551 -0.0447
  538MOL0     C70938   5.526   3.509   4.142 -0.9647 -0.2019 -0.1490
  538MOL0     C70939   5.591   3.604   4.066  0.5291  0.5535  0.1056
  538MOL0     C70940   5.727   3.635   4.089  0.6825  0.0941 -0.1775
  538MOL0     C70941   5.797   3.574   4.199  0.2451  0.3286  0.2807
  538MOL0     O70942   5.935   3.614   4.219  0.0062 -0.4654  0.0392
  538MOL0     C70943   6.004   3.537   4.321 -0.6994 -0.5877 -0.7202
  538MOL0     C70944   6.150   3.588   4.349  0.8955  0.3624 -0.4816
  538MOL0     C70945   6.186   3.518   4.485 -0.2321 -0.2770  0.6056
  538MOL0     C70946   6.335   3.552   4.520  0.6300  0.2490  0.1877
  538MOL0     C70947   6.369   3.692   4.518  0.0494  1.5164 -0.3078
  538MOL0     C70948   6.409   3.801   4.497 -0.2222 -0.7418 -0.6528
  538MOL0     C70949   5.730   3.477   4.279  0.5186  0.3895  0.6987
  538MOL0     C70950   5.600   3.441   4.250  0.6787 -1.2606  0.0052
  538MOL0     H70951   5.216   3.296   3.927 -0.8829 -0.3213 -1.9951
  538MOL0     H70952   4.994   3.237   3.907 -1.6688 -0.0190 -0.6364
  538MOL0     H70953   4.686   3.597   3.932 -1.8923 -0.1926 -0.7075
  538MOL0     H70954   4.712   3.484   4.073  2.7616  0.5035 -0.3574
  538MOL0     H70955   4.576   3.319   3.975  3.8075  1.1536 -0.8154
  538MOL0     H70956   4.525   3.415   3.834 -0.2652 -0.5467 -0.7884
  538MOL0     H70957   4.347   3.438   3.971 -0.4842  1.8414 -1.0233
  538MOL0     H70958   4.445   3.585   3.978 -1.4957  0.2854 -1.1742
  538MOL0     H70959   4.520   3.385   4.194 -0.8230 -0.6782  0.8797
  538MOL0     H70960   4.498   3.551   4.216  1.8322 -0.9149 -1.0025
  538MOL0     H70961   4.344   3.411   4.323  2.2984 -0.5790 -0.3175
  538MOL0     H70962   4.270   3.331   4.199 -0.1392  0.4119  1.1361
  538MOL0     H70963   4.110   3.476   4.241  1.4103 -2.1126 -0.4623
  538MOL0     H70964   4.180   3.556   4.099  0.8654 -2.9161 -2.0317
  538MOL0     H70965   4.314   3.697   4.283 -0.2354  1.7395 -0.6820
  538MOL0     H70966   4.146   3.744   4.251 -0.2189 -1.0873  0.1717
  538MOL0     H70967   4.236   3.720   4.491  2.6412 -2.6937  1.1802
  538MOL0     H70968   4.208   3.550   4.464  4.0942  2.4079  0.4112
  538MOL0     H70969   4.062   3.890   4.534  1.3783 -0.5564 -0.9755
  538MOL0     H70970   3.825   3.970   4.670  0.8515 -0.2550  0.4255
  538MOL0     H70971   3.679   3.918   4.595  0.9316 -0.6375  1.4409
  538MOL0     H70972   3.898   4.063   4.449  0.0066 -0.7437 -1.9074
  538MOL0     H70973   3.742   4.131   4.500 -3.3861 -0.9534 -2.3613
  538MOL0     H70974   3.755   3.913   4.308 -0.1918  0.1743  1.1763
  538MOL0     H70975   3.612   4.011   4.369 -0.7019 -0.4530 -0.1912
  538MOL0     H70976   3.712   4.072   4.141  2.4875 -2.8041 -0.0715
  538MOL0     H70977   3.856   4.118   4.227 -0.1153  2.7559  0.2579
  538MOL0     H70978   3.507   4.287   4.456 -1.8017 -4.0020  1.3226
  538MOL0     H70979   3.280   4.294   4.441 -0.4504  0.3365 -0.4773
  538MOL0     H70980   2.880   4.351   4.060  1.0659 -0.8755 -0.0377
  538MOL0     H70981   2.657   4.326   4.074 -1.8107 -0.5789  3.0162
  538MOL0     H70982   2.437   4.001   4.246 -1.6880  1.5018  0.0673
  538MOL0     H70983   2.500   3.919   4.106  1.9268  1.2298 -0.4282
  538MOL0     H70984   2.321   4.004   3.974 -0.2197  0.0178  1.2699
  538MOL0     H70985   2.254   4.103   4.109 -0.0966  0.3975  0.5380
  538MOL0     H70986   2.194   3.888   4.207  0.4152 -0.3907  0.4000
  538MOL0     H70987   2.243   3.817   4.056  3.5895  1.9661  2.9271
  538MOL0     H70988   2.022   4.038   4.069  0.5627 -0.7699 -0.9615
  538MOL0     H70989   2.069   3.945   3.925 -0.8007 -2.2126 -0.7878
  538MOL0     H70990   1.938   3.860   4.195 -0.7250  1.6399  0.7683
  538MOL0     H70991   1.980   3.738   4.074 -4.1936 -0.9183  3.3529
  538MOL0     H70992   1.808   3.832   3.917 -0.9210 -1.8658  1.3275
  538MOL0     H70993   1.782   3.959   4.050  0.3462  1.1826 -0.0012
  538MOL0     H70994   1.765   3.657   4.065  2.8201  1.2679  2.4883
  538MOL0     H70995   1.720   3.772   4.194 -2.8721  0.1343 -0.4282
  538MOL0     H70996   1.584   3.753   3.929  1.7872 -0.5039 -1.2892
  538MOL0     H70997   1.566   3.893   4.050  0.0765  0.2717 -0.6967
  538MOL0     H70998   2.699   3.896   4.127 -0.3899  0.4989 -0.9781
  538MOL0     H70999   2.931   3.922   4.124 -3.6918 -2.9976  1.2071
  538MOL0     H71000   3.301   4.155   4.042 -0.3962  0.1444  0.5678
  538MOL0     H71001   3.547   4.181   4.041  2.2320 -1.0627  1.1943
  538MOL0     H71002   4.891   3.664   3.961  1.6276  1.9534  0.5152
  538MOL0     H71003   5.131   3.700   4.019  2.1401 -0.6123 -1.1630
  538MOL0     H71004   5.535   3.646   3.984  0.5851 -0.2718 -0.3651
  538MOL0     H71005   5.777   3.710   4.030  2.7722 -1.2182 -0.1798
  538MOL0     H71006   6.019   3.436   4.283  2.4010 -0.7221  0.5609
  538MOL0     H71007   5.954   3.542   4.418  0.0732 -2.2457 -0.2162
  538MOL0     H71008   6.217   3.553   4.269 -0.0833  0.9564 -1.6006
  538MOL0     H71009   6.155   3.698   4.351 -0.1182  0.4371 -1.0170
  538MOL0     H71010   6.183   3.409   4.480 -0.2806 -0.2460 -0.1377
  538MOL0     H71011   6.124   3.556   4.566  2.2333 -0.6484  2.7936
  538MOL0     H71012   6.353   3.526   4.625 -2.0428 -1.5649  0.2928
  538MOL0     H71013   6.407   3.496   4.460  3.1474  4.6066 -1.2834
  538MOL0     H71014   6.452   3.897   4.475  3.5339 -2.6247 -2.4958
  538MOL0     H71015   5.783   3.417   4.352  2.5366  0.9742 -0.1888
  538MOL0     H71016   5.545   3.366   4.306 -1.0325 -0.7211 -0.8519
  539MOL0     O71017   2.039   7.419   1.147 -0.0831  0.7433 -0.8044
  539MOL0     C71018   2.103   7.374   1.045  0.6392 -0.2954 -0.3015
  539MOL0     O71019   2.047   7.377   0.922  0.5012  0.3230  0.0718
  539MOL0     C71020   1.915   7.348   0.904 -0.7521  0.0030  0.6608
  539MOL0     C71021   1.839   7.406   0.799  0.6794  0.6243  0.0270
  539MOL0     C71022   1.698   7.403   0.800  0.2561  0.0246  0.6356
  539MOL0     C71023   1.631   7.328   0.891  0.3256 -0.9393 -0.1603
  539MOL0     O71024   1.495   7.325   0.884 -0.4746 -0.2586  1.1111
  539MOL0     C71025   1.451   7.196   0.894 -0.3229  0.9145 -0.7194
  539MOL0     C71026   1.323   7.182   0.819 -0.1419  0.7387  0.3878
  539MOL0     C71027   1.210   7.280   0.859 -0.0456 -0.6469 -0.4908
  539MOL0     C71028   1.098   7.287   0.761 -0.6995  0.1642  0.4276
  539MOL0     C71029   0.972   7.360   0.826  0.2721  0.5901  0.0557
  539MOL0     C71030   0.994   7.518   0.848 -0.6289  0.1347  0.0379
  539MOL0     C71031   0.857   7.577   0.868 -0.1463 -0.3676  0.2851
  539MOL0     C71032   0.871   7.733   0.834 -1.3132 -0.3660 -0.2115
  539MOL0     N71033   0.747   7.810   0.845  0.0857 -1.1846 -0.9677
  539MOL0     C71034   0.666   7.814   0.958 -0.5924  0.1954 -0.1550
  539MOL0     C71035   0.552   7.883   0.929  0.3035 -1.1329 -0.2413
  539MOL0     C71036   0.424   7.907   1.009 -0.6347  0.5570  0.2104
  539MOL0     C71037   0.441   8.040   1.088  0.4369 -0.2708  0.6982
  539MOL0     C71038   0.320   8.116   1.142  0.6101 -0.8034 -1.0137
  539MOL0     C71039   0.206   8.010   1.172 -0.6433 -0.4412 -0.4955
  539MOL0     O71040   0.097   8.064   1.231  0.3660 -0.0270  0.6537
  539MOL0     C71041  -0.019   8.067   1.155 -0.2336  0.5894  0.9091
  539MOL0     C71042  -0.032   8.101   1.012  0.1943 -0.1678 -0.1181
  539MOL0     C71043  -0.147   8.071   0.945  0.5225 -0.7069 -0.6371
  539MOL0     C71044  -0.259   8.032   1.022 -0.0303 -0.1500 -0.9937
  539MOL0     C71045  -0.381   8.001   0.961  1.4540  0.4990 -0.0085
  539MOL0     O71046  -0.498   8.001   1.030  0.0264 -0.1284 -0.1387
  539MOL0     C71047  -0.623   7.970   0.980  0.1825 -0.0738  0.4142
  539MOL0     C71048  -0.677   7.989   0.856  0.0897 -0.5784 -0.6308
  539MOL0     C71049  -0.813   7.963   0.833 -0.1062 -0.5717 -0.5452
  539MOL0     C71050  -0.902   7.909   0.925 -0.5818 -0.2995  0.6467
  539MOL0     O71051  -1.028   7.880   0.874  0.0795 -0.2732  0.6188
  539MOL0     C71052  -1.128   7.817   0.957 -1.2079  0.0588 -1.3128
  539MOL0     C71053  -1.262   7.845   0.908 -0.5718  0.6908 -0.0238
  539MOL0     C71054  -1.298   7.749   0.781  0.1898  0.0511 -0.1459
  539MOL0     C71055  -1.438   7.775   0.709 -0.1402 -0.0863 -0.3209
  539MOL0     C71056  -1.555   7.755   0.806 -0.3100  0.3479 -0.3017
  539MOL0     C71057  -1.691   7.764   0.743 -0.1156  0.0040  0.0978
  539MOL0     C71058  -1.800   7.702   0.835 -0.2706  0.7204  0.1106
  539MOL0     C71059  -1.937   7.708   0.773 -0.4314 -0.0047  0.1536
  539MOL0    Cl71060  -2.013   7.872   0.753  0.4562  0.0883  0.1683
  539MOL0     C71061  -0.846   7.880   1.052 -0.5612 -0.9495  0.1930
  539MOL0     C71062  -0.709   7.910   1.078 -0.6120  1.2224  1.3312
  539MOL0     O71063  -0.380   7.983   0.839  0.1135  0.1411 -0.2422
  539MOL0     C71064  -0.249   8.014   1.162  0.9021 -0.2056 -0.4852
  539MOL0     C71065  -0.129   8.031   1.227 -0.1567 -1.2044 -0.5094
  539MOL0     N71066   0.570   7.933   0.801 -0.5563 -0.1643 -1.4584
  539MOL0     N71067   0.683   7.889   0.752 -0.1210 -0.5563  0.8851
  539MOL0     C71068   1.704   7.260   0.989  0.2577  0.1263  0.1139
  539MOL0     C71069   1.840   7.270   0.992  0.3796 -0.1864 -0.1003
  539MOL0     C71070   2.219   7.291   1.078 -0.7298 -0.7136  0.1442
  539MOL0     C71071   2.245   7.179   0.991 -0.6146  0.1269  0.2358
  539MOL0     C71072   2.368   7.093   1.014 -0.2826 -0.9590  0.2739
  539MOL0     C71073   2.448   7.120   1.128  0.4376 -0.8254  1.0077
  539MOL0     O71074   2.562   7.057   1.175  0.5023  0.6114 -0.0402
  539MOL0     C71075   2.596   6.931   1.112  0.2245 -0.1298 -0.6502
  539MOL0     C71076   2.730   6.883   1.132 -0.4631  0.3977 -0.5025
  539MOL0     C71077   2.759   6.840   1.276 -0.1448 -0.1696  0.0087
  539MOL0     C71078   2.912   6.847   1.307  0.3615  0.1206  0.0219
  539MOL0     C71079   2.994   6.760   1.218 -0.3781  0.1032  0.1983
  539MOL0     C71080   3.048   6.697   1.134 -0.1917 -0.2113  0.2739
  539MOL0     C71081   2.408   7.228   1.219  0.2679  0.2868 -0.7037
  539MOL0     C71082   2.286   7.307   1.195 -0.2409  0.0906 -0.1878
  539MOL0     H71083   1.905   7.458   0.730  2.7004 -1.5171  0.2356
  539MOL0     H71084   1.629   7.465   0.743  0.2930  0.2288  0.8169
  539MOL0     H71085   1.419   7.179   0.997  0.7798  2.8236 -0.0182
  539MOL0     H71086   1.512   7.109   0.868 -2.9598 -1.2566  0.0156
  539MOL0     H71087   1.292   7.077   0.824  2.0567  0.0287  0.1951
  539MOL0     H71088   1.364   7.192   0.718  1.2668  3.1524  1.1214
  539MOL0     H71089   1.248   7.382   0.866 -2.2422  0.2672 -0.9070
  539MOL0     H71090   1.161   7.263   0.955  1.8816 -3.1839  0.1374
  539MOL0     H71091   1.112   7.332   0.663 -2.2193  2.2523  1.0960
  539MOL0     H71092   1.073   7.182   0.747  1.7073 -0.3572 -0.2528
  539MOL0     H71093   0.940   7.321   0.923 -1.0721  2.4207  0.4112
  539MOL0     H71094   0.889   7.344   0.757  0.2393 -0.1188  0.2599
  539MOL0     H71095   1.043   7.565   0.762  0.6840  1.7359  1.5950
  539MOL0     H71096   1.056   7.522   0.938  2.6410 -2.5723 -1.8522
  539MOL0     H71097   0.787   7.538   0.795  1.2787 -2.1907 -0.1909
  539MOL0     H71098   0.814   7.557   0.967 -1.0369  0.0162 -0.0203
  539MOL0     H71099   0.916   7.753   0.736 -2.0974 -2.1358 -0.9814
  539MOL0     H71100   0.940   7.774   0.909 -0.7584 -1.6797  0.0361
  539MOL0     H71101   0.686   7.756   1.047 -0.9235  1.5518  0.8382
  539MOL0     H71102   0.415   7.818   1.073  0.5953  2.1054  2.6803
  539MOL0     H71103   0.334   7.915   0.948 -0.2816 -0.1975 -0.4399
  539MOL0     H71104   0.489   8.111   1.020 -1.3422  0.4163  0.1310
  539MOL0     H71105   0.489   8.009   1.182 -1.3370  0.0042  1.7264
  539MOL0     H71106   0.338   8.177   1.231  2.0979  0.3826 -2.0592
  539MOL0     H71107   0.271   8.180   1.068 -1.7013 -1.6325 -0.2758
  539MOL0     H71108   0.245   7.934   1.240 -2.4125 -1.6137 -0.7187
  539MOL0     H71109   0.184   7.949   1.084 -1.0891  1.5828 -1.8499
  539MOL0     H71110   0.055   8.133   0.956  0.4837  2.6579  1.7078
  539MOL0     H71111  -0.152   8.092   0.839  1.4177 -0.1187 -0.5723
  539MOL0     H71112  -0.616   8.028   0.776  2.0625  0.3175  1.2056
  539MOL0     H71113  -0.850   8.008   0.741 -0.6837 -1.4713 -0.7619
  539MOL0     H71114  -1.119   7.858   1.058  2.0005 -1.0850 -1.0047
  539MOL0     H71115  -1.104   7.710   0.957 -2.5382 -0.2648 -2.1305
  539MOL0     H71116  -1.258   7.944   0.862  0.9238  0.0936 -1.2655
  539MOL0     H71117  -1.343   7.832   0.980 -1.2309 -2.3343 -1.1529
  539MOL0     H71118  -1.291   7.647   0.819 -1.0970  0.1199  0.3354
  539MOL0     H71119  -1.219   7.769   0.708  1.2812  3.6726  1.7483
  539MOL0     H71120  -1.431   7.881   0.683  0.7253 -0.2834 -0.9635
  539MOL0     H71121  -1.440   7.708   0.622 -0.2336 -1.4325  0.6764
  539MOL0     H71122  -1.560   7.821   0.894 -3.4714 -0.6761  0.4064
  539MOL0     H71123  -1.554   7.651   0.841  0.4896  0.9233  1.5279
  539MOL0     H71124  -1.690   7.715   0.645  0.3020  1.7809 -0.8161
  539MOL0     H71125  -1.714   7.868   0.718 -0.9026  0.3494  2.1049
  539MOL0     H71126  -1.776   7.600   0.865 -1.0243  0.4019 -0.3505
  539MOL0     H71127  -1.799   7.753   0.932 -2.4058 -0.9762  1.1069
  539MOL0     H71128  -2.017   7.658   0.828  0.9668  0.6195  2.9432
  539MOL0     H71129  -1.940   7.668   0.671 -1.8202 -1.1904  0.6170
  539MOL0     H71130  -0.908   7.840   1.132 -2.3688  1.7415  0.2743
  539MOL0     H71131  -0.652   7.872   1.162 -0.0783 -1.1213 -0.0005
  539MOL0     H71132  -0.331   7.986   1.227  0.4884  1.8019 -0.1076
  539MOL0     H71133  -0.129   8.008   1.333  0.1427 -4.6393 -1.1603
  539MOL0     H71134   1.657   7.199   1.065 -0.2042 -0.6551 -0.7735
  539MOL0     H71135   1.889   7.205   1.063  0.1754  0.7943  0.9690
  539MOL0     H71136   2.181   7.154   0.908 -2.2931 -3.9284  2.4449
  539MOL0     H71137   2.388   7.002   0.957 -0.1872 -0.7759  0.0099
  539MOL0     H71138   2.585   6.941   1.004  0.8740 -0.2390 -0.7330
  539MOL0     H71139   2.516   6.860   1.135  0.4128 -0.6986 -1.6785
  539MOL0     H71140   2.737   6.804   1.056 -1.9948  1.2179 -1.5566
  539MOL0     H71141   2.801   6.963   1.111  1.3569 -0.8843  0.4416
  539MOL0     H71142   2.721   6.737   1.282  0.4904 -0.3529  1.5245
  539MOL0     H71143   2.708   6.906   1.347 -0.9900  0.0519 -0.7878
  539MOL0     H71144   2.949   6.950   1.307 -2.2951  1.1478 -0.8648
  539MOL0     H71145   2.924   6.809   1.409 -2.2908 -1.7275 -0.2574
  539MOL0     H71146   3.090   6.640   1.053  0.0304 -0.8790  0.8484
  539MOL0     H71147   2.450   7.254   1.316 -0.5756 -0.2111 -0.1881
  539MOL0     H71148   2.259   7.373   1.277 -0.6102 -2.2643  1.6966
  540MOL0     O71149   1.776   9.471   7.079 -0.1330  0.4818 -0.2433
  540MOL0     C71150   1.829   9.546   7.160  0.2708 -0.8062 -0.0253
  540MOL0     O71151   1.764   9.579   7.275  0.2759  0.2304  0.2970
  540MOL0     C71152   1.659   9.506   7.305  0.4524  0.1586 -0.7743
  540MOL0     C71153   1.662   9.376   7.348 -0.6626 -1.1725  0.7525
  540MOL0     C71154   1.539   9.321   7.393  0.4834 -0.0102 -0.1679
  540MOL0     C71155   1.420   9.398   7.411  1.0567  0.2996 -0.6040
  540MOL0     O71156   1.308   9.349   7.481  0.6291 -0.2619 -0.2683
  540MOL0     C71157   1.350   9.349   7.618 -0.4417 -0.0820 -0.0421
  540MOL0     C71158   1.237   9.339   7.719 -0.0115 -0.7595  0.0082
  540MOL0     C71159   1.298   9.338   7.861 -0.0086  0.6635  0.3806
  540MOL0     C71160   1.181   9.355   7.966 -0.6010  0.0238 -0.0495
  540MOL0     C71161   1.233   9.379   8.103  0.0871  0.5608 -0.6780
  540MOL0     C71162   1.335   9.494   8.122  0.1199  0.0752 -0.2061
  540MOL0     C71163   1.357   9.522   8.271  0.9720  0.2459  0.8464
  540MOL0     C71164   1.396   9.670   8.293  0.0956  0.1309  0.1455
  540MOL0     N71165   1.284   9.752   8.261 -0.4834 -0.1668  0.7940
  540MOL0     C71166   1.153   9.756   8.297 -0.4292  0.5666 -0.3101
  540MOL0     C71167   1.098   9.864   8.242 -0.4347 -0.3409  0.1755
  540MOL0     C71168   0.965   9.910   8.272  0.5769 -1.2974  0.2544
  540MOL0     C71169   0.852   9.807   8.229 -0.7794 -0.7984  0.3228
  540MOL0     C71170   0.709   9.860   8.248  0.1856  0.2254  1.1284
  540MOL0     C71171   0.664   9.916   8.382 -0.7902 -0.4305  0.1031
  540MOL0     O71172   0.630   9.816   8.476 -0.1529 -0.3948 -0.6303
  540MOL0     C71173   0.509   9.759   8.467  0.5134  0.7874  1.2989
  540MOL0     C71174   0.479   9.659   8.563  0.1180  0.2534 -0.1554
  540MOL0     C71175   0.352   9.599   8.577  0.1805  0.1811  0.9501
  540MOL0     C71176   0.236   9.643   8.484 -0.3707  0.2098  0.3530
  540MOL0     C71177   0.097   9.578   8.491  0.2187 -0.4016  0.3402
  540MOL0     O71178   0.086   9.476   8.586 -0.1889 -0.6533 -0.0765
  540MOL0     C71179  -0.028   9.410   8.581 -0.5856  1.4479  0.5374
  540MOL0     C71180  -0.017   9.268   8.558  0.2204  0.7052  0.1179
  540MOL0     C71181  -0.134   9.181   8.550 -0.3031  0.6581  0.0711
  540MOL0     C71182  -0.263   9.242   8.557 -0.2565  1.3720  0.2984
  540MOL0     O71183  -0.382   9.175   8.546 -0.1875  0.0202 -0.2231
  540MOL0     C71184  -0.379   9.040   8.568  0.9848 -0.3186 -0.0577
  540MOL0     C71185  -0.524   8.975   8.599  0.8932 -0.3883 -0.1133
  540MOL0     C71186  -0.625   8.991   8.474  0.6303  0.4941 -0.1983
  540MOL0     C71187  -0.736   8.882   8.483  0.2998 -0.4994 -0.0208
  540MOL0     C71188  -0.835   8.900   8.364  0.6132 -0.4128  0.0306
  540MOL0     C71189  -0.937   8.791   8.361 -0.3377  0.0974  0.4645
  540MOL0     C71190  -1.044   8.814   8.250  0.5255  0.6951  0.2287
  540MOL0     C71191  -1.167   8.721   8.271  0.2707  0.7739  0.5108
  540MOL0    Cl71192  -1.268   8.688   8.135  0.0121  0.0516  0.3693
  540MOL0     C71193  -0.264   9.381   8.584  0.1167 -0.0934 -0.3441
  540MOL0     C71194  -0.158   9.458   8.606  0.6263 -0.6420 -0.0055
  540MOL0     O71195   0.018   9.615   8.403  0.7556  0.5318  0.2102
  540MOL0     C71196   0.266   9.741   8.395  0.7003 -0.4409 -0.5915
  540MOL0     C71197   0.395   9.794   8.381  0.1604 -0.0909 -0.1434
  540MOL0     N71198   1.179   9.911   8.143 -0.2690  0.6345  0.2403
  540MOL0     N71199   1.294   9.854   8.166 -0.9065 -0.3234 -0.6755
  540MOL0     C71200   1.422   9.526   7.367 -0.6516 -1.2894  1.2841
  540MOL0     C71201   1.540   9.578   7.313 -0.1774 -0.1180  0.4814
  540MOL0     C71202   1.956   9.614   7.133 -0.3899 -0.2163 -0.2869
  540MOL0     C71203   2.018   9.704   7.219  0.1971 -0.1947  0.1155
  540MOL0     C71204   2.136   9.770   7.178  0.4087 -0.2891  0.4569
  540MOL0     C71205   2.196   9.748   7.050 -0.8428 -0.1329  0.0692
  540MOL0     O71206   2.302   9.813   7.002  0.6008  0.2937  0.4221
  540MOL0     C71207   2.319   9.939   7.057 -0.3406  0.0995 -0.9177
  540MOL0     C71208   2.381  10.036   6.961 -0.1251  0.6989  0.6077
  540MOL0     C71209   2.542  10.008   6.957 -0.4750  0.0953  0.0103
  540MOL0     C71210   2.574   9.921   6.830  0.8442  0.5204 -0.3464
  540MOL0     C71211   2.719   9.928   6.808 -0.1895 -0.3515 -0.5869
  540MOL0     C71212   2.839   9.934   6.782 -0.3876 -0.0174 -0.1582
  540MOL0     C71213   2.136   9.652   6.968 -0.3523 -0.3142  0.2583
  540MOL0     C71214   2.020   9.586   7.011  0.3949  0.2777 -0.8237
  540MOL0     H71215   1.758   9.327   7.337  1.2783  2.2612  0.8341
  540MOL0     H71216   1.522   9.215   7.413  2.0107 -0.2055  0.2172
  540MOL0     H71217   1.398   9.445   7.640  3.2985 -2.0268  1.3114
  540MOL0     H71218   1.424   9.268   7.627 -0.1718  0.1646 -0.0409
  540MOL0     H71219   1.183   9.245   7.701 -0.7712 -0.3821  0.2990
  540MOL0     H71220   1.178   9.431   7.717 -0.9301 -1.0294  4.3124
  540MOL0     H71221   1.366   9.424   7.863  0.6258  0.3001 -2.0751
  540MOL0     H71222   1.361   9.251   7.880 -0.3600 -0.2313 -2.1514
  540MOL0     H71223   1.111   9.435   7.939 -2.1284 -0.5369  2.0314
  540MOL0     H71224   1.121   9.263   7.962 -2.5721  1.2467  0.0533
  540MOL0     H71225   1.286   9.289   8.135  2.0420  1.4074 -1.4277
  540MOL0     H71226   1.144   9.396   8.164 -0.8758  0.4349 -2.0023
  540MOL0     H71227   1.297   9.587   8.079  0.7037  0.8243  0.8456
  540MOL0     H71228   1.432   9.468   8.079 -0.2853 -2.1788  0.0973
  540MOL0     H71229   1.269   9.499   8.331 -0.7338  1.9840 -0.8292
  540MOL0     H71230   1.440   9.468   8.317  0.9577  0.8430  1.5737
  540MOL0     H71231   1.477   9.690   8.222  0.7738 -0.2419  0.7964
  540MOL0     H71232   1.423   9.688   8.398 -2.4154  0.8780  0.7276
  540MOL0     H71233   1.109   9.684   8.365  0.3635 -2.5432 -2.8433
  540MOL0     H71234   0.947  10.007   8.225  2.5392  0.8001  3.4279
  540MOL0     H71235   0.963   9.935   8.379 -2.3060 -0.2022  0.0383
  540MOL0     H71236   0.862   9.715   8.287 -1.4309 -1.5291 -0.6868
  540MOL0     H71237   0.874   9.784   8.124 -2.2381 -0.5257 -0.0616
  540MOL0     H71238   0.704   9.940   8.173  0.1502 -0.0070  0.8815
  540MOL0     H71239   0.642   9.778   8.223 -1.0677  2.0422 -2.2287
  540MOL0     H71240   0.595  10.000   8.378  2.9510  2.8844 -1.3145
  540MOL0     H71241   0.752   9.965   8.424  0.6251 -2.0746 -0.7909
  540MOL0     H71242   0.563   9.638   8.629  0.8337 -0.7516 -1.3616
  540MOL0     H71243   0.336   9.522   8.652 -1.2754 -1.3518 -0.8235
  540MOL0     H71244   0.080   9.221   8.545 -1.0725 -2.2107  0.0603
  540MOL0     H71245  -0.111   9.078   8.527  0.9879  1.3835 -2.1915
  540MOL0     H71246  -0.326   9.021   8.662  2.0743  0.0094 -0.5819
  540MOL0     H71247  -0.332   8.982   8.487  0.7726 -0.1659 -0.2933
  540MOL0     H71248  -0.581   9.016   8.683 -2.4880 -1.0389 -1.9047
  540MOL0     H71249  -0.495   8.873   8.626  1.7732  0.9934  5.3417
  540MOL0     H71250  -0.575   8.972   8.378 -1.3046 -0.5214 -1.0706
  540MOL0     H71251  -0.662   9.094   8.469 -2.3975 -0.5227 -0.4973
  540MOL0     H71252  -0.677   8.790   8.477  1.8648  0.3051  1.7585
  540MOL0     H71253  -0.784   8.886   8.581  4.3089  1.5163  2.1349
  540MOL0     H71254  -0.782   8.902   8.269  1.2943  1.2273  0.3968
  540MOL0     H71255  -0.881   8.997   8.384  1.7974 -0.2083  2.0928
  540MOL0     H71256  -0.981   8.794   8.461  1.4308  1.3177  1.2736
  540MOL0     H71257  -0.885   8.695   8.355 -2.8085 -1.3759  1.3321
  540MOL0     H71258  -1.080   8.914   8.229 -2.2671 -0.7854 -2.8502
  540MOL0     H71259  -1.005   8.787   8.152  0.2635  1.1736 -0.0070
  540MOL0     H71260  -1.234   8.743   8.355  2.4431 -1.6626  3.0893
  540MOL0     H71261  -1.121   8.628   8.304 -1.0169 -0.5962 -1.4029
  540MOL0     H71262  -0.360   9.429   8.603  0.6116 -0.4419  4.0970
  540MOL0     H71263  -0.167   9.564   8.627 -0.6787 -0.2589 -2.1502
  540MOL0     H71264   0.190   9.782   8.329  0.2788 -1.8024 -0.9782
  540MOL0     H71265   0.414   9.872   8.307  1.6359  0.6341  0.9431
  540MOL0     H71266   1.332   9.585   7.378  0.1308  0.1651  0.0996
  540MOL0     H71267   1.536   9.683   7.286 -0.2425 -0.8129 -2.6494
  540MOL0     H71268   1.991   9.731   7.321  0.8843  0.4447  0.1422
  540MOL0     H71269   2.171   9.848   7.246 -2.3921 -0.6090  2.4484
  540MOL0     H71270   2.395   9.926   7.135 -0.7272  0.3521 -0.5025
  540MOL0     H71271   2.232   9.989   7.100 -0.2131  3.8803 -4.4200
  540MOL0     H71272   2.333  10.032   6.863 -1.8777 -0.4065  1.4515
  540MOL0     H71273   2.368  10.137   7.001  0.0940  0.5311  1.1103
  540MOL0     H71274   2.575   9.951   7.044 -1.3601  0.5843  0.6864
  540MOL0     H71275   2.603  10.099   6.953  0.1600 -0.2874  0.6241
  540MOL0     H71276   2.536   9.821   6.850 -0.6056  1.1911  0.3953
  540MOL0     H71277   2.528   9.960   6.739  2.0384 -0.5685 -1.4691
  540MOL0     H71278   2.944   9.944   6.763 -0.4795  0.8332 -0.2749
  540MOL0     H71279   2.177   9.615   6.875  1.0282  1.2706  0.1773
  540MOL0     H71280   1.978   9.514   6.941 -0.0958  1.3769 -1.6983
  541MOL0     O71281  10.479   5.571   3.981  0.3068 -0.0533 -1.2663
  541MOL0     C71282  10.511   5.599   4.100  0.8409 -0.5425  0.2326
  541MOL0     O71283  10.422   5.605   4.204 -0.5314  0.2845 -0.0563
  541MOL0     C71284  10.294   5.618   4.164 -0.2478 -0.2644 -0.1308
  541MOL0     C71285  10.251   5.745   4.120  0.5252 -0.0842  0.6451
  541MOL0     C71286  10.118   5.766   4.102  0.2787 -0.4512 -0.1727
  541MOL0     C71287  10.018   5.661   4.114  0.5074 -0.0748 -0.4115
  541MOL0     O71288   9.885   5.698   4.091 -0.1527 -0.3422  0.3981
  541MOL0     C71289   9.792   5.682   4.192  0.4128  0.0895  0.7995
  541MOL0     C71290   9.678   5.785   4.168  0.2096 -0.3951 -0.4299
  541MOL0     C71291   9.730   5.925   4.185  0.2059 -1.4790  0.3994
  541MOL0     C71292   9.616   6.034   4.184  0.0463 -0.5567  0.3028
  541MOL0     C71293   9.546   6.044   4.323 -0.0400 -0.4798  0.3769
  541MOL0     C71294   9.466   6.179   4.341  0.3941  0.5255  0.2152
  541MOL0     C71295   9.439   6.221   4.489  0.0725 -0.0248  0.4758
  541MOL0     C71296   9.306   6.288   4.506  0.4010 -0.6900  0.1269
  541MOL0     N71297   9.188   6.210   4.480  0.0395 -0.4897  0.2095
  541MOL0     C71298   9.105   6.222   4.371 -0.7891  0.2567 -0.0649
  541MOL0     C71299   9.020   6.122   4.389 -0.6212 -0.0773  0.5009
  541MOL0     C71300   8.911   6.070   4.299 -0.6187  0.6986  0.1425
  541MOL0     C71301   8.774   6.130   4.340  0.6097 -0.4060 -0.0857
  541MOL0     C71302   8.757   6.266   4.270 -0.7709  0.0950 -0.5667
  541MOL0     C71303   8.622   6.340   4.294  0.4579  0.4665  0.2194
  541MOL0     O71304   8.557   6.333   4.168 -0.4368 -0.0484  0.7046
  541MOL0     C71305   8.435   6.395   4.145 -0.0553  0.1338 -1.3825
  541MOL0     C71306   8.381   6.400   4.015  0.2140 -0.2033 -0.1807
  541MOL0     C71307   8.258   6.450   3.981 -0.8317 -0.0555  0.2793
  541MOL0     C71308   8.168   6.488   4.076 -0.0440 -0.2104 -0.5915
  541MOL0     C71309   8.039   6.548   4.042  0.0838  0.5387  0.0066
  541MOL0     O71310   8.017   6.550   3.908 -0.2220 -0.1406  0.5379
  541MOL0     C71311   7.929   6.646   3.861  0.3123 -0.6451  0.2004
  541MOL0     C71312   7.983   6.746   3.786 -0.4152 -0.1922  1.0646
  541MOL0     C71313   7.899   6.827   3.709  0.6713 -0.6787 -0.0630
  541MOL0     C71314   7.762   6.809   3.709 -0.0278  0.3009  0.2172
  541MOL0     O71315   7.677   6.879   3.622  0.5869  0.6066 -0.1896
  541MOL0     C71316   7.728   6.996   3.553  1.0551  1.0414  1.1076
  541MOL0     C71317   7.611   7.062   3.470  0.9065 -0.7533 -0.2919
  541MOL0     C71318   7.497   7.126   3.539 -0.0525  0.0988  0.2137
  541MOL0     C71319   7.537   7.235   3.642  0.5517  0.3737 -0.1467
  541MOL0     C71320   7.584   7.375   3.591 -0.5575  0.5538  1.2234
  541MOL0     C71321   7.457   7.455   3.574  0.6104 -0.0489 -0.1879
  541MOL0     C71322   7.480   7.604   3.546 -0.3546 -0.1580 -0.0422
  541MOL0     C71323   7.547   7.629   3.405 -0.6718  0.0356 -0.0887
  541MOL0    Cl71324   7.452   7.582   3.269  0.2335  0.2979 -0.4661
  541MOL0     C71325   7.702   6.702   3.787  0.2733 -1.1305  1.7133
  541MOL0     C71326   7.786   6.621   3.869  0.4866 -0.6856  0.1694
  541MOL0     O71327   7.960   6.575   4.128 -0.6902  0.0776  0.0450
  541MOL0     C71328   8.220   6.484   4.209 -0.4977 -0.1414  0.9191
  541MOL0     C71329   8.348   6.445   4.242 -0.4149 -0.1362  0.3752
  541MOL0     N71330   9.058   6.043   4.497 -0.3591 -0.3662  0.7991
  541MOL0     N71331   9.160   6.104   4.555  0.9948 -0.6051 -0.1078
  541MOL0     C71332  10.067   5.528   4.150  0.0416  0.3004  0.5488
  541MOL0     C71333  10.198   5.512   4.175  0.1208 -0.0296  0.0379
  541MOL0     C71334  10.651   5.628   4.135  0.5574  0.1473  0.5715
  541MOL0     C71335  10.754   5.596   4.043 -0.1310 -0.1134  0.0043
  541MOL0     C71336  10.889   5.633   4.074  0.6465  0.4203 -0.6214
  541MOL0     C71337  10.928   5.692   4.204  0.8262  0.4233 -0.1693
  541MOL0     O71338  11.052   5.720   4.243 -0.8208 -0.4751  0.4562
  541MOL0     C71339  11.149   5.718   4.147 -0.1094 -0.2537  0.4853
  541MOL0     C71340  11.280   5.795   4.190  0.1654 -0.0869 -0.5236
  541MOL0     C71341  11.254   5.948   4.212 -0.2907  0.0730 -0.5822
  541MOL0     C71342  11.355   6.013   4.308  0.4545 -0.3716  0.4198
  541MOL0     C71343  11.487   6.039   4.255  0.2723 -0.3084  0.3339
  541MOL0     C71344  11.597   6.069   4.213 -0.2879 -0.1434  0.0415
  541MOL0     C71345  10.822   5.711   4.295  0.4122 -0.0180  0.2442
  541MOL0     C71346  10.686   5.682   4.259  0.3391  0.1304 -0.2960
  541MOL0     H71347  10.331   5.817   4.130  0.2946  0.2506  0.1158
  541MOL0     H71348  10.072   5.863   4.085  0.0044 -0.3706  0.9321
  541MOL0     H71349   9.833   5.709   4.290 -1.4221 -2.3750  2.3571
  541MOL0     H71350   9.751   5.581   4.195 -0.5681  0.3433 -1.9138
  541MOL0     H71351   9.598   5.763   4.240 -0.2744 -0.8204 -1.0820
  541MOL0     H71352   9.610   5.775   4.083 -2.7390 -0.4154  1.7570
  541MOL0     H71353   9.798   5.951   4.103 -0.0632  1.0320  0.8921
  541MOL0     H71354   9.777   5.928   4.284  0.3441 -4.9769  0.5386
  541MOL0     H71355   9.657   6.132   4.161 -0.6700 -0.0098  1.2753
  541MOL0     H71356   9.535   6.011   4.114 -0.4882 -2.2382  1.3886
  541MOL0     H71357   9.622   6.036   4.401  0.5532 -2.3558 -0.3462
  541MOL0     H71358   9.467   5.969   4.328 -1.6953  1.2761  2.2388
  541MOL0     H71359   9.366   6.163   4.301 -0.9859  1.5713  2.9683
  541MOL0     H71360   9.525   6.254   4.289  0.0138  0.5117 -0.2401
  541MOL0     H71361   9.450   6.133   4.553  2.1072  0.3450  0.7177
  541MOL0     H71362   9.511   6.300   4.514 -1.3270  1.0764  1.1319
  541MOL0     H71363   9.302   6.376   4.442 -2.5303 -0.8067  0.0006
  541MOL0     H71364   9.294   6.324   4.609 -1.4962 -2.8221  0.7420
  541MOL0     H71365   9.122   6.298   4.295 -1.8626 -0.4746 -1.0789
  541MOL0     H71366   8.906   5.962   4.313  1.5245  0.2187 -2.1675
  541MOL0     H71367   8.941   6.083   4.195 -0.0213  0.4619  0.2806
  541MOL0     H71368   8.751   6.147   4.445  0.7596 -0.9669  0.0400
  541MOL0     H71369   8.695   6.075   4.288  1.4334 -0.1337 -1.6895
  541MOL0     H71370   8.838   6.328   4.310 -0.5440  1.0764 -2.4055
  541MOL0     H71371   8.769   6.253   4.162 -0.3626  0.0855 -0.5211
  541MOL0     H71372   8.626   6.446   4.319 -1.4767  0.4332  0.8218
  541MOL0     H71373   8.554   6.293   4.365 -3.9835  3.5115 -1.5896
  541MOL0     H71374   8.452   6.366   3.940 -0.5995 -0.5655 -0.8074
  541MOL0     H71375   8.237   6.452   3.875 -0.3117 -2.7715  0.0500
  541MOL0     H71376   8.091   6.758   3.783 -0.4811  0.2831 -1.6234
  541MOL0     H71377   7.940   6.915   3.660  0.5481 -0.2928  0.5140
  541MOL0     H71378   7.813   6.953   3.500 -0.5747 -0.0858 -0.7310
  541MOL0     H71379   7.772   7.073   3.617  0.8746  1.4516  0.7469
  541MOL0     H71380   7.567   6.989   3.401 -0.4097 -0.0698 -0.2041
  541MOL0     H71381   7.652   7.135   3.400  0.0927  2.3269  2.2162
  541MOL0     H71382   7.427   7.059   3.591 -0.4890  0.4027  0.0254
  541MOL0     H71383   7.445   7.177   3.458 -0.1737 -0.8047 -0.2949
  541MOL0     H71384   7.456   7.256   3.713  0.9130  2.5510 -0.3133
  541MOL0     H71385   7.623   7.196   3.697  1.3890 -0.5209 -2.0110
  541MOL0     H71386   7.632   7.356   3.494 -3.0409 -1.2107  0.2091
  541MOL0     H71387   7.646   7.416   3.671  0.8486 -1.3361  1.1716
  541MOL0     H71388   7.413   7.467   3.674 -1.4235  1.1696 -1.1630
  541MOL0     H71389   7.394   7.403   3.500  0.8173 -0.9520  0.2521
  541MOL0     H71390   7.386   7.659   3.542 -1.4552 -2.0209 -1.2112
  541MOL0     H71391   7.547   7.653   3.617 -3.2293  3.6424  0.3378
  541MOL0     H71392   7.642   7.574   3.406 -0.0906  1.0039  1.0896
  541MOL0     H71393   7.578   7.733   3.399 -0.5941  0.1621  1.8698
  541MOL0     H71394   7.596   6.679   3.777  0.6697 -2.0500 -0.9185
  541MOL0     H71395   7.738   6.542   3.925 -0.0454  0.6766  1.7143
  541MOL0     H71396   8.161   6.501   4.299 -1.5592 -0.2008  0.2410
  541MOL0     H71397   8.383   6.440   4.345 -0.0917 -1.8797  0.2121
  541MOL0     H71398   9.994   5.449   4.166  0.6392 -1.2002 -3.1390
  541MOL0     H71399  10.225   5.413   4.212  0.5132 -0.1026 -0.4340
  541MOL0     H71400  10.738   5.539   3.952  0.9597  1.7816 -1.4386
  541MOL0     H71401  10.957   5.593   4.000 -0.2725 -1.8567 -0.3259
  541MOL0     H71402  11.114   5.771   4.058  1.9847 -0.7950 -0.7251
  541MOL0     H71403  11.174   5.614   4.125 -1.5475 -0.5287  0.1230
  541MOL0     H71404  11.305   5.748   4.285 -1.1960 -1.8008 -0.9595
  541MOL0     H71405  11.368   5.774   4.128  1.0991 -0.5283  0.9098
  541MOL0     H71406  11.156   5.949   4.261 -0.0829 -2.5491  0.0261
  541MOL0     H71407  11.246   5.998   4.115  2.3935 -0.0324 -0.9362
  541MOL0     H71408  11.303   6.107   4.328 -1.4671 -1.0763 -0.9694
  541MOL0     H71409  11.358   5.950   4.397 -1.3326 -0.4278  0.4674
  541MOL0     H71410  11.699   6.089   4.187 -0.2255 -2.1104 -1.4197
  541MOL0     H71411  10.844   5.746   4.395 -0.2841 -2.2718  1.2522
  541MOL0     H71412  10.609   5.711   4.330  0.4665  1.0955 -0.5447
  542MOL0     O71413   1.130   5.597   7.629 -0.4742 -0.1986 -1.2372
  542MOL0     C71414   1.087   5.527   7.544 -0.3869  0.2920  0.3227
  542MOL0     O71415   1.168   5.436   7.471 -0.0002 -0.0749 -0.2668
  542MOL0     C71416   1.298   5.446   7.486 -0.8389  0.1176 -0.2752
  542MOL0     C71417   1.389   5.554   7.498 -0.1761  0.4331  0.0952
  542MOL0     C71418   1.523   5.537   7.534  0.0507 -0.1591  0.6161
  542MOL0     C71419   1.577   5.407   7.539 -0.1509 -0.0184 -0.4458
  542MOL0     O71420   1.705   5.374   7.567 -0.0901 -0.2701  0.0409
  542MOL0     C71421   1.790   5.489   7.557  0.3993  0.2767  0.6440
  542MOL0     C71422   1.939   5.467   7.584 -0.0885 -0.7648 -0.2240
  542MOL0     C71423   1.969   5.483   7.734  0.4116  0.7216  0.5191
  542MOL0     C71424   2.108   5.433   7.774  0.5209  0.1893  0.0398
  542MOL0     C71425   2.112   5.407   7.928  1.0787  0.3750 -0.3041
  542MOL0     C71426   2.242   5.352   7.974  0.1801 -1.0664 -0.4496
  542MOL0     C71427   2.359   5.444   7.940  0.0497  0.4095  0.3126
  542MOL0     C71428   2.500   5.403   8.005  0.1191 -0.6808  0.1216
  542MOL0     N71429   2.509   5.436   8.146  0.8086  0.6141 -0.1632
  542MOL0     C71430   2.477   5.352   8.257 -1.0220 -0.8085  0.1626
  542MOL0     C71431   2.519   5.434   8.367  0.5613  0.2749  0.0969
  542MOL0     C71432   2.510   5.395   8.513 -0.4250 -0.1645  0.9725
  542MOL0     C71433   2.367   5.424   8.553  0.4628 -0.3640 -0.5198
  542MOL0     C71434   2.354   5.414   8.711 -0.3016 -0.4598 -0.0945
  542MOL0     C71435   2.204   5.455   8.761  0.7462 -0.1614  0.2280
  542MOL0     O71436   2.118   5.361   8.705  0.2487 -0.5201  0.5087
  542MOL0     C71437   1.980   5.378   8.701 -0.1423  0.1068  0.5802
  542MOL0     C71438   1.910   5.490   8.754  0.7736 -0.7473 -0.0867
  542MOL0     C71439   1.768   5.491   8.750 -0.3657  0.2107  0.0019
  542MOL0     C71440   1.699   5.392   8.675 -0.0754  0.3189 -0.4440
  542MOL0     C71441   1.547   5.423   8.672 -0.1653 -0.2125  0.1146
  542MOL0     O71442   1.494   5.524   8.740 -0.5128 -0.0086 -0.1816
  542MOL0     C71443   1.361   5.516   8.762  0.1828 -0.4679 -0.7264
  542MOL0     C71444   1.283   5.628   8.747  0.0208 -1.1718 -0.3835
  542MOL0     C71445   1.149   5.635   8.773 -0.7735 -0.7107 -0.2306
  542MOL0     C71446   1.089   5.515   8.819  0.2940  0.2458  0.8069
  542MOL0     O71447   0.952   5.490   8.814 -0.2380 -0.3235  0.3206
  542MOL0     C71448   0.869   5.604   8.846 -0.3127 -0.6826  0.4258
  542MOL0     C71449   0.722   5.590   8.885 -0.4972 -0.0546  0.0307
  542MOL0     C71450   0.638   5.489   8.806 -0.1211  1.1847  0.3080
  542MOL0     C71451   0.510   5.446   8.881  0.0894 -0.3613 -0.3805
  542MOL0     C71452   0.407   5.557   8.873  0.1285 -1.0712  0.4341
  542MOL0     C71453   0.288   5.509   8.953 -0.0420  0.0256 -0.1619
  542MOL0     C71454   0.166   5.607   8.955  0.5746  0.2504 -0.4563
  542MOL0     C71455   0.209   5.733   9.034 -0.0110 -0.2296  0.0922
  542MOL0    Cl71456   0.068   5.838   9.046 -0.0602 -0.1852  0.0282
  542MOL0     C71457   1.174   5.413   8.858 -0.1973  0.2049  0.0960
  542MOL0     C71458   1.308   5.404   8.830  0.1978  0.7898  0.3659
  542MOL0     O71459   1.483   5.348   8.598 -0.0710 -0.1958  0.0499
  542MOL0     C71460   1.768   5.283   8.621 -0.0264 -0.0388  0.5220
  542MOL0     C71461   1.905   5.280   8.633 -0.7940  0.7750 -1.2908
  542MOL0     N71462   2.561   5.553   8.315 -0.7148  0.6934 -0.2704
  542MOL0     N71463   2.556   5.557   8.187 -0.5816 -0.3466  0.4551
  542MOL0     C71464   1.496   5.296   7.542  0.4770  0.6749  1.1855
  542MOL0     C71465   1.359   5.317   7.511  0.6875  0.5470  0.2559
  542MOL0     C71466   0.942   5.532   7.523  0.4901  0.3219 -0.6061
  542MOL0     C71467   0.891   5.447   7.432  0.0603  0.4945  0.1244
  542MOL0     C71468   0.761   5.437   7.397 -0.1471 -0.6794 -0.4446
  542MOL0     C71469   0.666   5.521   7.461 -0.3318  1.4437 -0.0966
  542MOL0     O71470   0.528   5.512   7.439 -0.1063 -0.2810 -0.6629
  542MOL0     C71471   0.461   5.439   7.334  0.1732  0.1881  0.1015
  542MOL0     C71472   0.334   5.511   7.294  1.1520 -0.1798 -0.0224
  542MOL0     C71473   0.229   5.542   7.403 -0.0697 -0.0734  0.4433
  542MOL0     C71474   0.183   5.694   7.420 -0.5117  0.7150 -0.0502
  542MOL0     C71475   0.052   5.696   7.472  0.3458 -0.5003 -0.4678
  542MOL0     C71476  -0.060   5.718   7.519  0.3493 -0.7755  0.1104
  542MOL0     C71477   0.711   5.606   7.556 -0.0429 -0.6228 -0.0830
  542MOL0     C71478   0.850   5.621   7.582 -0.2811  0.0406 -0.5128
  542MOL0     H71479   1.354   5.656   7.486 -0.2171  0.4103  0.0244
  542MOL0     H71480   1.567   5.635   7.550 -0.8080  0.0485  1.8207
  542MOL0     H71481   1.761   5.561   7.634  0.7633  0.8639  0.2438
  542MOL0     H71482   1.784   5.532   7.456 -2.0387 -2.0130 -0.3081
  542MOL0     H71483   1.992   5.551   7.538  2.4157  0.0116  3.6000
  542MOL0     H71484   1.965   5.369   7.543  2.2380  0.2795 -1.4019
  542MOL0     H71485   1.897   5.429   7.797  0.8716  1.7717  2.0041
  542MOL0     H71486   1.966   5.588   7.764  1.0465  0.9292 -0.1367
  542MOL0     H71487   2.134   5.337   7.728 -1.4456 -0.9974  1.2695
  542MOL0     H71488   2.186   5.507   7.753 -0.6620  1.6500  0.5691
  542MOL0     H71489   2.037   5.328   7.939 -0.7149  2.0773  0.2247
  542MOL0     H71490   2.082   5.496   7.984  1.7762 -0.0402  0.7463
  542MOL0     H71491   2.268   5.259   7.923  0.1146 -0.1867 -2.1846
  542MOL0     H71492   2.227   5.340   8.081 -1.2087 -0.0696 -0.4971
  542MOL0     H71493   2.370   5.439   7.831 -1.4484 -1.2094  0.1780
  542MOL0     H71494   2.333   5.545   7.972 -0.9384  0.6103 -0.9968
  542MOL0     H71495   2.583   5.459   7.961  1.4790 -1.6202  1.4198
  542MOL0     H71496   2.515   5.295   8.000 -0.2176 -0.6930 -0.7925
  542MOL0     H71497   2.427   5.256   8.258 -1.0818 -0.8068 -1.1494
  542MOL0     H71498   2.579   5.452   8.575 -0.8649 -0.1462  1.4511
  542MOL0     H71499   2.530   5.288   8.521 -3.3702 -0.7784  1.1016
  542MOL0     H71500   2.298   5.352   8.507  1.4450 -1.3953 -0.4332
  542MOL0     H71501   2.349   5.526   8.518  0.3222 -0.2241 -0.0485
  542MOL0     H71502   2.390   5.321   8.755  3.9160  1.5804  1.3754
  542MOL0     H71503   2.418   5.496   8.746  0.4422 -1.8432  2.0203
  542MOL0     H71504   2.174   5.556   8.731 -3.2533 -0.1516  3.3290
  542MOL0     H71505   2.212   5.453   8.870  1.2573  1.0510  0.2271
  542MOL0     H71506   1.958   5.578   8.797  0.2336 -0.0438 -0.8938
  542MOL0     H71507   1.714   5.572   8.799 -2.2324 -0.1188 -1.3896
  542MOL0     H71508   1.324   5.713   8.695 -0.0921  0.0130  1.3921
  542MOL0     H71509   1.088   5.722   8.748 -2.0088 -2.1513 -2.6656
  542MOL0     H71510   0.883   5.678   8.766  2.9185 -1.2475  0.3234
  542MOL0     H71511   0.923   5.651   8.928  0.9702  0.2522 -0.9006
  542MOL0     H71512   0.680   5.689   8.863 -1.6916 -0.0641  1.9822
  542MOL0     H71513   0.722   5.577   8.994  1.3061  0.8003  0.1625
  542MOL0     H71514   0.702   5.400   8.806 -0.6628  0.7909  0.0175
  542MOL0     H71515   0.615   5.518   8.703 -0.0361  1.2429  0.3059
  542MOL0     H71516   0.485   5.360   8.818  0.4874  1.0264 -2.5784
  542MOL0     H71517   0.518   5.413   8.985 -4.8330 -0.8028  0.0932
  542MOL0     H71518   0.364   5.588   8.777 -0.6258  3.5075  2.0004
  542MOL0     H71519   0.455   5.649   8.907 -0.8195  0.0875 -1.1874
  542MOL0     H71520   0.320   5.485   9.054  2.5662 -0.9511 -1.1394
  542MOL0     H71521   0.259   5.415   8.906 -2.1115  1.3691 -1.7699
  542MOL0     H71522   0.122   5.636   8.858 -1.9131 -0.6253  0.3460
  542MOL0     H71523   0.091   5.569   9.024 -0.3490  2.8304  0.0835
  542MOL0     H71524   0.285   5.792   8.981 -1.5715 -0.5139 -2.6330
  542MOL0     H71525   0.245   5.702   9.133  0.7200  1.0695  0.2515
  542MOL0     H71526   1.134   5.332   8.918 -2.1770  0.4470 -0.8267
  542MOL0     H71527   1.368   5.321   8.863 -0.1951 -0.3803 -1.6714
  542MOL0     H71528   1.714   5.198   8.580 -3.5246  1.7559  1.0085
  542MOL0     H71529   1.955   5.199   8.580 -1.1679  0.3350 -0.9818
  542MOL0     H71530   1.545   5.199   7.545  1.2105  0.7829 -2.4648
  542MOL0     H71531   1.301   5.225   7.502  3.4114 -1.6709  3.1946
  542MOL0     H71532   0.955   5.382   7.373 -0.4458 -1.3799  1.5305
  542MOL0     H71533   0.731   5.368   7.319 -1.9846 -0.5106  0.0575
  542MOL0     H71534   0.435   5.341   7.376 -1.2500  1.0744  1.3882
  542MOL0     H71535   0.530   5.441   7.249 -0.9438 -0.9290 -0.8713
  542MOL0     H71536   0.369   5.611   7.264  0.7394  0.0989  0.4106
  542MOL0     H71537   0.303   5.473   7.196  2.2044 -0.1574 -0.3746
  542MOL0     H71538   0.269   5.511   7.499  1.8083  2.4758  0.5897
  542MOL0     H71539   0.135   5.490   7.383 -0.8337  0.6915  1.8566
  542MOL0     H71540   0.258   5.744   7.482  0.2665 -0.2720 -0.1823
  542MOL0     H71541   0.168   5.750   7.327 -1.8638  1.2593  0.4647
  542MOL0     H71542  -0.155   5.734   7.567  0.9099  1.7713  0.5156
  542MOL0     H71543   0.639   5.674   7.598 -0.0209 -0.5257 -0.2017
  542MOL0     H71544   0.894   5.700   7.642  2.5442 -2.0775  0.4369
  543MOL0     O71545   4.593  10.979   5.396 -0.2182  0.6248  0.1383
  543MOL0     C71546   4.595  10.865   5.428 -0.3156  0.5833  0.3038
  543MOL0     O71547   4.681  10.811   5.519 -0.1711  1.0914  0.3071
  543MOL0     C71548   4.768  10.899   5.571  1.0137  0.1621  0.3914
  543MOL0     C71549   4.904  10.894   5.540  0.8499  0.1890 -0.2548
  543MOL0     C71550   4.997  10.981   5.592 -0.8781  0.2426 -0.1324
  543MOL0     C71551   4.957  11.082   5.686  0.1656 -0.1979 -0.1766
  543MOL0     O71552   5.039  11.168   5.746  1.1803 -0.0042 -0.5091
  543MOL0     C71553   5.178  11.156   5.715  0.3734 -0.0506 -0.0637
  543MOL0     C71554   5.244  11.265   5.803  0.3085  0.0264 -0.0881
  543MOL0     C71555   5.194  11.406   5.763  0.0400  0.9110  0.6236
  543MOL0     C71556   5.270  11.515   5.842  0.0740  0.2235 -0.2135
  543MOL0     C71557   5.224  11.654   5.804  0.2489 -0.9476  0.6789
  543MOL0     C71558   5.270  11.775   5.895 -1.0415 -0.2841 -0.1746
  543MOL0     C71559   5.426  11.808   5.885  1.0338  0.2225  0.7885
  543MOL0     C71560   5.447  11.949   5.825 -1.0111 -0.3162 -0.0733
  543MOL0     N71561   5.582  12.000   5.829 -0.5931  0.9897 -0.6517
  543MOL0     C71562   5.676  11.953   5.917 -0.6657  0.2410  0.1660
  543MOL0     C71563   5.787  12.020   5.883 -0.3110  1.0752  0.4792
  543MOL0     C71564   5.916  12.004   5.949 -0.0477 -0.4080  0.7522
  543MOL0     C71565   6.033  12.091   5.897  0.7836 -0.3506  0.5430
  543MOL0     C71566   6.154  12.065   5.986  0.1863 -0.8836 -0.8059
  543MOL0     C71567   6.280  12.109   5.929 -0.3799  0.0358 -0.3039
  543MOL0     O71568   6.391  12.082   6.025  0.8881 -0.2921 -0.2776
  543MOL0     C71569   6.508  12.147   5.991 -0.0004 -0.6427  0.2455
  543MOL0     C71570   6.623  12.113   6.069  0.0269  0.1421  0.7336
  543MOL0     C71571   6.752  12.138   6.029 -0.9963 -1.2313 -0.0337
  543MOL0     C71572   6.781  12.216   5.920  0.2782 -0.4013 -0.2036
  543MOL0     C71573   6.912  12.247   5.860  0.3121  0.6774  0.2392
  543MOL0     O71574   7.013  12.232   5.939  0.0786  0.4154 -0.6522
  543MOL0     C71575   7.144  12.229   5.900 -0.4521  0.7106 -0.1979
  543MOL0     C71576   7.240  12.290   5.987 -0.1785 -0.3869  0.4854
  543MOL0     C71577   7.378  12.279   5.962 -0.3917 -0.0049 -1.3023
  543MOL0     C71578   7.430  12.202   5.856 -0.3341  0.6001 -0.4135
  543MOL0     O71579   7.554  12.171   5.832 -1.2058 -0.6009  0.7907
  543MOL0     C71580   7.664  12.251   5.893  0.4401 -0.3215 -0.0269
  543MOL0     C71581   7.811  12.224   5.846  0.1752 -0.4032  0.0155
  543MOL0     C71582   7.907  12.308   5.933 -0.5637  0.3020  0.9475
  543MOL0     C71583   8.064  12.277   5.912 -0.2681 -0.4038 -0.8738
  543MOL0     C71584   8.140  12.323   6.045 -0.6654  0.5572  0.3595
  543MOL0     C71585   8.136  12.479   6.076  0.3729 -0.4623 -0.7577
  543MOL0     C71586   8.186  12.514   6.220  0.4010 -0.4262  1.0245
  543MOL0     C71587   8.329  12.467   6.248  0.0488 -0.5903  0.1593
  543MOL0    Cl71588   8.459  12.545   6.154 -0.4518  0.1006 -0.4443
  543MOL0     C71589   7.339  12.160   5.758  0.8463  0.6191 -0.4919
  543MOL0     C71590   7.197  12.186   5.778  0.7094  0.0598  0.3439
  543MOL0     O71591   6.915  12.279   5.743 -0.1904 -0.6472 -0.2079
  543MOL0     C71592   6.663  12.263   5.844  0.2685  0.7633  0.7012
  543MOL0     C71593   6.530  12.228   5.875  0.4492  0.3318  0.3909
  543MOL0     N71594   5.756  12.104   5.778 -0.3303 -0.0020 -1.1639
  543MOL0     N71595   5.630  12.098   5.754 -0.1648  0.2306 -0.2109
  543MOL0     C71596   4.820  11.086   5.717  0.9774  0.3375 -1.1928
  543MOL0     C71597   4.724  11.005   5.654  0.0241  0.1702  0.3627
  543MOL0     C71598   4.498  10.774   5.370 -1.0022 -0.2476  0.3292
  543MOL0     C71599   4.409  10.817   5.269  0.2832 -0.1325 -0.0770
  543MOL0     C71600   4.307  10.724   5.230  0.2626 -0.1850  0.7236
  543MOL0     C71601   4.304  10.594   5.266 -0.2152  0.6569 -0.1279
  543MOL0     O71602   4.207  10.511   5.203 -0.0988  0.1969  0.4129
  543MOL0     C71603   4.219  10.371   5.215  1.3883  0.5646  0.0305
  543MOL0     C71604   4.105  10.295   5.143 -0.3056  0.4965 -0.4702
  543MOL0     C71605   4.100  10.138   5.141  0.0897  0.5209  0.8112
  543MOL0     C71606   3.964  10.091   5.082  0.1662 -0.9296 -0.0589
  543MOL0     C71607   3.963   9.950   5.052 -0.1367 -0.4117  0.5969
  543MOL0     C71608   3.980   9.839   5.008  0.6646 -0.3744 -0.2094
  543MOL0     C71609   4.401  10.549   5.357  0.2656 -0.4884  0.3762
  543MOL0     C71610   4.496  10.640   5.411  0.0140 -0.2195  0.6461
  543MOL0     H71611   4.937  10.820   5.468 -2.7942  0.2071 -2.1753
  543MOL0     H71612   5.097  10.960   5.557 -0.0841  3.3756 -0.0833
  543MOL0     H71613   5.205  11.178   5.612 -2.6413  2.5942 -0.4487
  543MOL0     H71614   5.224  11.064   5.752  1.5784  0.7418  0.4769
  543MOL0     H71615   5.353  11.261   5.794  0.5249  0.0363  1.9216
  543MOL0     H71616   5.204  11.266   5.905 -1.7719  1.8683 -0.8553
  543MOL0     H71617   5.086  11.411   5.781 -0.3322 -1.9902 -0.2427
  543MOL0     H71618   5.205  11.427   5.657  1.1387  0.1273  0.5564
  543MOL0     H71619   5.245  11.498   5.947 -3.1755  0.2199 -0.8981
  543MOL0     H71620   5.378  11.506   5.824 -0.2974 -0.8836 -2.0773
  543MOL0     H71621   5.115  11.664   5.807  0.3381  3.9638 -2.0177
  543MOL0     H71622   5.241  11.682   5.700  0.2010  0.5003  1.0342
  543MOL0     H71623   5.250  11.757   6.001 -0.0351 -1.0115 -0.1028
  543MOL0     H71624   5.218  11.867   5.864  0.7105  0.4849 -0.9660
  543MOL0     H71625   5.472  11.816   5.984  0.3326  0.8543  1.0688
  543MOL0     H71626   5.467  11.724   5.829 -1.3782  0.6666 -1.8498
  543MOL0     H71627   5.385  12.016   5.886 -1.3816 -0.4698 -0.2817
  543MOL0     H71628   5.409  11.958   5.723 -0.9466 -0.2694 -0.0936
  543MOL0     H71629   5.669  11.888   6.004 -0.6830  2.0808  1.6242
  543MOL0     H71630   5.951  11.900   5.940  2.3382  0.4544 -0.9801
  543MOL0     H71631   5.901  12.035   6.053  0.0082 -0.2375  0.7087
  543MOL0     H71632   6.009  12.196   5.912  0.5952 -0.4426  0.9062
  543MOL0     H71633   6.049  12.086   5.789 -0.8905  0.8515  0.2041
  543MOL0     H71634   6.128  12.126   6.073 -0.4374 -0.5316 -1.2368
  543MOL0     H71635   6.149  11.958   6.007 -1.7926 -1.0177 -1.7486
  543MOL0     H71636   6.267  12.216   5.911  0.0129 -0.0831 -1.4148
  543MOL0     H71637   6.297  12.071   5.828  1.9860  1.5221 -0.5248
  543MOL0     H71638   6.611  12.038   6.146  2.3860 -0.1715  0.8627
  543MOL0     H71639   6.832  12.095   6.087 -1.8160  0.1262  2.2451
  543MOL0     H71640   7.201  12.325   6.082  1.1950 -1.6562  1.5583
  543MOL0     H71641   7.443  12.314   6.041  0.8101 -4.0035 -0.3185
  543MOL0     H71642   7.651  12.244   6.001  1.5260  0.5221  0.1701
  543MOL0     H71643   7.636  12.350   5.855  0.9575 -0.1256  0.1012
  543MOL0     H71644   7.830  12.238   5.739  1.4546 -1.2350  0.1148
  543MOL0     H71645   7.829  12.119   5.870  1.5054 -0.6948 -2.0458
  543MOL0     H71646   7.882  12.271   6.033 -0.6474 -0.8880  0.5069
  543MOL0     H71647   7.894  12.416   5.922  0.3135  0.3864  0.6002
  543MOL0     H71648   8.077  12.170   5.892  1.0030 -0.6833  1.2141
  543MOL0     H71649   8.103  12.341   5.832 -0.0309  0.8706  0.2301
  543MOL0     H71650   8.241  12.280   6.043 -1.0512 -0.3538  0.2754
  543MOL0     H71651   8.096  12.274   6.132 -0.9003  1.6384  0.8625
  543MOL0     H71652   8.036  12.517   6.054  0.5352 -1.5042 -3.7091
  543MOL0     H71653   8.199  12.535   6.006 -0.7103  1.1915 -0.4647
  543MOL0     H71654   8.174  12.621   6.244 -1.7451  0.1669 -2.0947
  543MOL0     H71655   8.124  12.466   6.296  0.3282 -2.3394 -0.1781
  543MOL0     H71656   8.341  12.365   6.210 -1.8532 -0.6708 -0.3136
  543MOL0     H71657   8.357  12.485   6.352 -1.8481  0.7109  0.4951
  543MOL0     H71658   7.379  12.110   5.670 -1.6545  0.3052 -1.5397
  543MOL0     H71659   7.136  12.148   5.697  1.5895  0.9287 -0.7695
  543MOL0     H71660   6.688  12.318   5.754 -0.0899  2.2283  1.4650
  543MOL0     H71661   6.452  12.258   5.807  0.2330 -2.2387 -0.6002
  543MOL0     H71662   4.773  11.155   5.786 -0.1267 -0.8377 -0.7373
  543MOL0     H71663   4.617  11.013   5.671 -0.1082  0.1431 -0.4362
  543MOL0     H71664   4.415  10.918   5.231  2.6444  0.3701  1.4033
  543MOL0     H71665   4.238  10.770   5.160  0.8011 -3.1155 -1.9490
  543MOL0     H71666   4.209  10.346   5.321 -2.8142  3.7662  0.6540
  543MOL0     H71667   4.320  10.342   5.184  0.6843  2.6948 -5.3134
  543MOL0     H71668   4.007  10.320   5.184  0.9195 -0.7327  3.6869
  543MOL0     H71669   4.116  10.337   5.042  0.8542  1.8074  0.1727
  543MOL0     H71670   4.100  10.099   5.243 -0.6802 -2.0013 -0.0703
  543MOL0     H71671   4.184  10.097   5.084  2.5755  2.1139  3.0794
  543MOL0     H71672   3.883  10.107   5.153  0.3707  2.9526 -0.4902
  543MOL0     H71673   3.942  10.155   4.996  1.8696  1.2094  0.9893
  543MOL0     H71674   3.964   9.738   4.976 -1.6398 -0.6693  1.5851
  543MOL0     H71675   4.419  10.446   5.386  2.4416 -0.6023 -1.1573
  543MOL0     H71676   4.566  10.600   5.484  1.1569 -0.9227 -0.7797
  544MOL0     O71677   9.349   2.035   3.490 -0.1092  0.9375  0.0273
  544MOL0     C71678   9.363   2.153   3.515  0.5580  0.4996 -0.3748
  544MOL0     O71679   9.248   2.232   3.552  0.1735  0.0317  0.8995
  544MOL0     C71680   9.127   2.173   3.533  0.9299 -0.3481  0.1450
  544MOL0     C71681   9.039   2.228   3.446  0.7213 -0.1380  1.1074
  544MOL0     C71682   8.912   2.185   3.417 -0.0106 -0.9640  0.1932
  544MOL0     C71683   8.867   2.074   3.490  0.0184 -0.6839 -0.9445
  544MOL0     O71684   8.741   2.044   3.466  0.1738  0.5529  0.5253
  544MOL0     C71685   8.682   1.940   3.545  0.3932  0.0347  0.4915
  544MOL0     C71686   8.535   1.930   3.498  0.5402 -0.6509  0.5986
  544MOL0     C71687   8.466   2.078   3.481  1.0182 -0.0978 -0.6700
  544MOL0     C71688   8.318   2.061   3.526  0.1463 -0.1251  0.7937
  544MOL0     C71689   8.231   2.180   3.497 -0.7278 -0.2386  0.1637
  544MOL0     C71690   8.087   2.176   3.553  0.4667  0.0376  0.6693
  544MOL0     C71691   8.022   2.046   3.486  0.5946  0.0478  0.8111
  544MOL0     C71692   7.873   2.049   3.486 -0.3114  0.0054  0.2220
  544MOL0     N71693   7.828   2.132   3.368 -0.1627 -0.3468 -0.6032
  544MOL0     C71694   7.784   2.256   3.369 -0.4171 -0.4290 -0.5159
  544MOL0     C71695   7.726   2.271   3.249  0.1620 -0.4480 -0.2762
  544MOL0     C71696   7.645   2.389   3.201 -0.4250 -1.2944  0.0035
  544MOL0     C71697   7.516   2.379   3.269  0.6242  0.3379  0.4120
  544MOL0     C71698   7.426   2.482   3.209  0.0441 -0.0622 -0.3495
  544MOL0     C71699   7.286   2.504   3.277 -0.1718  0.2115 -0.1726
  544MOL0     O71700   7.203   2.389   3.231 -0.0503 -0.3658  0.0446
  544MOL0     C71701   7.079   2.365   3.290 -0.5728 -0.3667  0.7392
  544MOL0     C71702   7.027   2.249   3.243 -0.7342 -0.1067 -0.2622
  544MOL0     C71703   6.903   2.205   3.286  0.0530 -0.0329  0.2728
  544MOL0     C71704   6.813   2.285   3.365 -0.0649  0.0039 -0.5089
  544MOL0     C71705   6.679   2.235   3.418  0.5431  0.1804  0.0836
  544MOL0     O71706   6.596   2.322   3.480 -0.4221  0.7855  0.1911
  544MOL0     C71707   6.463   2.288   3.514 -1.4876 -0.8044  0.4688
  544MOL0     C71708   6.378   2.398   3.526  0.2820  0.8506 -0.9218
  544MOL0     C71709   6.250   2.384   3.587 -0.0787  0.0803  0.2473
  544MOL0     C71710   6.205   2.254   3.621 -0.3994  0.3496  0.2497
  544MOL0     O71711   6.084   2.221   3.684  0.1298  0.3316 -0.0244
  544MOL0     C71712   5.996   2.328   3.716  0.0217 -0.6401 -0.5596
  544MOL0     C71713   5.883   2.266   3.804  0.1956  0.2235 -0.2927
  544MOL0     C71714   5.780   2.208   3.709 -0.0623  0.0695  0.0087
  544MOL0     C71715   5.662   2.148   3.783 -0.4384  0.6924  0.0575
  544MOL0     C71716   5.542   2.109   3.692  0.0795  0.4394  0.8878
  544MOL0     C71717   5.431   2.036   3.791  0.3472  0.1689  1.1291
  544MOL0     C71718   5.294   2.010   3.727  0.1659  0.2340  0.0440
  544MOL0     C71719   5.293   1.919   3.602 -0.3273 -0.5464 -0.2737
  544MOL0    Cl71720   5.352   1.753   3.649  0.4025 -0.1997  0.3329
  544MOL0     C71721   6.291   2.145   3.603 -0.5080  0.8626 -0.4587
  544MOL0     C71722   6.418   2.162   3.545  0.2421 -0.0019  0.1433
  544MOL0     O71723   6.646   2.118   3.385 -0.2485 -0.1376 -0.4852
  544MOL0     C71724   6.869   2.408   3.407 -1.1754  0.3139  0.2412
  544MOL0     C71725   6.998   2.448   3.375  0.1232 -0.9154  0.5312
  544MOL0     N71726   7.752   2.165   3.168 -0.5515  0.6935 -0.2816
  544MOL0     N71727   7.819   2.082   3.245 -0.1779 -0.3463  0.3163
  544MOL0     C71728   8.952   2.017   3.587 -0.5666  0.0276  0.3993
  544MOL0     C71729   9.083   2.064   3.602 -0.3256  0.2106  0.6583
  544MOL0     C71730   9.495   2.215   3.505  0.1773 -0.2932  0.0857
  544MOL0     C71731   9.507   2.355   3.518  0.3736 -0.8367  0.2144
  544MOL0     C71732   9.635   2.411   3.502  0.0252 -0.4610 -0.1331
  544MOL0     C71733   9.752   2.339   3.468  0.2533 -0.6020 -0.3101
  544MOL0     O71734   9.868   2.407   3.469  0.4649  0.4735 -0.6577
  544MOL0     C71735   9.987   2.328   3.507 -0.3838 -0.3823 -0.3159
  544MOL0     C71736   9.987   2.315   3.656 -0.2269  0.6939  0.1890
  544MOL0     C71737  10.115   2.248   3.717 -0.6825  0.0041 -0.6371
  544MOL0     C71738  10.142   2.302   3.859 -0.5502 -0.0580 -0.2851
  544MOL0     C71739  10.265   2.244   3.905  0.7891  0.4660  1.0948
  544MOL0     C71740  10.355   2.192   3.949  0.9518  0.2369 -0.9818
  544MOL0     C71741   9.735   2.201   3.463  0.2151  0.0625  0.3107
  544MOL0     C71742   9.610   2.139   3.473  0.9396 -0.3518  0.3638
  544MOL0     H71743   9.074   2.302   3.375  1.2862  0.0362  1.5634
  544MOL0     H71744   8.857   2.225   3.333 -0.4435 -0.4669  0.7004
  544MOL0     H71745   8.682   1.970   3.650  1.5424 -1.9026  1.1077
  544MOL0     H71746   8.737   1.845   3.539 -0.0704 -0.2604  0.8928
  544MOL0     H71747   8.491   1.868   3.576  3.5988 -1.6267  1.6996
  544MOL0     H71748   8.527   1.892   3.396 -1.8616  1.8316 -0.2616
  544MOL0     H71749   8.477   2.114   3.378 -2.4240 -1.5317 -1.6924
  544MOL0     H71750   8.511   2.155   3.544  0.2795  0.2160 -0.5152
  544MOL0     H71751   8.280   1.978   3.465 -2.5319  1.4274  0.1491
  544MOL0     H71752   8.313   2.026   3.629 -1.3165 -3.4284 -0.2604
  544MOL0     H71753   8.217   2.191   3.389 -1.7413 -1.9681  0.0778
  544MOL0     H71754   8.292   2.269   3.515 -1.6663  0.4671 -0.0380
  544MOL0     H71755   8.026   2.262   3.521  2.5985  1.1770 -0.5647
  544MOL0     H71756   8.096   2.181   3.661  1.7125  3.3167  0.5343
  544MOL0     H71757   8.055   2.032   3.382  2.3933  1.7138  1.0924
  544MOL0     H71758   8.062   1.967   3.550 -0.1660  0.2141  1.5130
  544MOL0     H71759   7.845   2.094   3.582 -1.5972  0.3781 -0.3072
  544MOL0     H71760   7.826   1.950   3.482  0.4185 -0.4166  1.5512
  544MOL0     H71761   7.780   2.327   3.452 -0.4791  0.2901 -1.1257
  544MOL0     H71762   7.629   2.394   3.093  1.0142  4.0700 -0.2787
  544MOL0     H71763   7.704   2.479   3.225  2.2253 -2.6434 -1.0271
  544MOL0     H71764   7.517   2.387   3.378  0.5857 -0.2937  0.4636
  544MOL0     H71765   7.474   2.278   3.262  0.6034  0.2894  1.1532
  544MOL0     H71766   7.485   2.573   3.222 -0.2124  0.1492 -0.6686
  544MOL0     H71767   7.397   2.467   3.105  0.8854 -1.5350 -0.3995
  544MOL0     H71768   7.248   2.601   3.244  0.6238 -0.1009 -2.1535
  544MOL0     H71769   7.300   2.516   3.385 -0.0374 -2.3532  0.1552
  544MOL0     H71770   7.085   2.181   3.182  0.9638 -1.4735  2.6338
  544MOL0     H71771   6.868   2.110   3.245  1.0547  0.0995 -0.9520
  544MOL0     H71772   6.401   2.497   3.488  3.6969  0.0003 -1.4497
  544MOL0     H71773   6.193   2.476   3.594 -0.0857 -0.0713  3.6313
  544MOL0     H71774   5.960   2.388   3.632 -1.2302  0.7426  0.8922
  544MOL0     H71775   6.047   2.399   3.782  0.0603  0.0519 -1.3347
  544MOL0     H71776   5.832   2.350   3.853  0.7924  0.1486  0.4843
  544MOL0     H71777   5.914   2.201   3.887  1.0228 -0.1715 -0.8973
  544MOL0     H71778   5.835   2.137   3.646  0.0869  0.2885 -0.1063
  544MOL0     H71779   5.753   2.287   3.639 -0.1230 -0.9032 -1.1051
  544MOL0     H71780   5.678   2.052   3.833 -3.9444  0.4084  0.9055
  544MOL0     H71781   5.624   2.222   3.854  0.6979  3.1925 -1.7943
  544MOL0     H71782   5.581   2.040   3.616 -0.7382  0.7941  0.1287
  544MOL0     H71783   5.495   2.186   3.631  0.6616  0.1392  0.0440
  544MOL0     H71784   5.411   2.105   3.874  0.4899 -0.4281  1.6752
  544MOL0     H71785   5.468   1.940   3.829 -3.4144 -2.0115 -0.1906
  544MOL0     H71786   5.240   1.941   3.793  0.6149  0.1925  0.3718
  544MOL0     H71787   5.236   2.101   3.709  0.8320  0.9368  1.2751
  544MOL0     H71788   5.363   1.952   3.524  0.2594 -0.3565  0.3257
  544MOL0     H71789   5.191   1.921   3.562 -0.6046 -1.0972  0.3876
  544MOL0     H71790   6.250   2.054   3.644  2.0658 -0.6082 -0.9014
  544MOL0     H71791   6.479   2.073   3.562 -1.2772 -1.1952 -0.4293
  544MOL0     H71792   6.807   2.478   3.462 -1.2995  0.5174 -0.1538
  544MOL0     H71793   7.050   2.533   3.418  2.8901 -2.2926  0.1981
  544MOL0     H71794   8.927   1.926   3.641 -0.8922 -0.5569 -0.7223
  544MOL0     H71795   9.140   2.011   3.677 -0.6256 -0.7889  0.1915
  544MOL0     H71796   9.431   2.428   3.543  0.8705  0.5588 -2.0000
  544MOL0     H71797   9.654   2.517   3.520 -2.6534 -0.2896  2.3644
  544MOL0     H71798  10.077   2.375   3.466 -0.9000  1.4744  0.5469
  544MOL0     H71799   9.985   2.228   3.464  0.2292  0.4882 -2.5235
  544MOL0     H71800   9.955   2.416   3.686 -0.8984  2.6487 -5.7619
  544MOL0     H71801   9.911   2.241   3.678  1.3239 -1.1953 -0.5205
  544MOL0     H71802  10.197   2.290   3.657  0.6211 -0.8404  0.4886
  544MOL0     H71803  10.123   2.141   3.695  0.4455  0.6844 -4.2599
  544MOL0     H71804  10.146   2.412   3.857 -0.1654 -0.0744 -1.3667
  544MOL0     H71805  10.059   2.273   3.923 -0.3930  2.9466  1.4964
  544MOL0     H71806  10.433   2.151   4.011  1.9675  3.8515  0.4091
  544MOL0     H71807   9.814   2.127   3.451 -0.4034 -0.5442 -0.0417
  544MOL0     H71808   9.609   2.033   3.448  1.4901  0.0295 -1.4766
  545MOL0     O71809   7.404  10.801   6.679  0.3277  0.0009 -0.1124
  545MOL0     C71810   7.281  10.786   6.672 -0.1486  1.4127 -0.2276
  545MOL0     O71811   7.219  10.782   6.551  0.2335 -0.0269  0.0663
  545MOL0     C71812   7.293  10.791   6.434 -0.4175  0.1619 -1.0805
  545MOL0     C71813   7.306  10.913   6.362  0.3283 -0.1879  0.5217
  545MOL0     C71814   7.365  10.916   6.235  1.1683  0.1872 -0.4203
  545MOL0     C71815   7.415  10.799   6.187 -0.0706  0.0933 -0.7952
  545MOL0     O71816   7.458  10.794   6.060  0.3059  0.4562 -1.0846
  545MOL0     C71817   7.587  10.735   6.050  0.2343 -0.2306 -0.1063
  545MOL0     C71818   7.580  10.674   5.904 -0.4037 -0.4513  0.2268
  545MOL0     C71819   7.712  10.616   5.872 -1.0251  0.0322  0.2428
  545MOL0     C71820   7.827  10.727   5.862 -0.0187 -0.6134 -0.1805
  545MOL0     C71821   7.949  10.673   5.799  0.8803 -0.0584 -1.1902
  545MOL0     C71822   8.006  10.554   5.878  0.0304 -0.2675 -0.0294
  545MOL0     C71823   8.126  10.506   5.803 -1.0817  0.0847 -0.4102
  545MOL0     C71824   8.203  10.399   5.878  0.2280 -0.6527 -0.0789
  545MOL0     N71825   8.338  10.381   5.827  0.3003 -0.8491  0.4475
  545MOL0     C71826   8.375  10.302   5.725  0.5299  0.6297  0.0111
  545MOL0     C71827   8.503  10.318   5.718 -0.6688  0.5560  0.3056
  545MOL0     C71828   8.599  10.252   5.624 -0.1790  0.1614  0.2097
  545MOL0     C71829   8.609  10.291   5.476  0.7602 -0.2432  1.0998
  545MOL0     C71830   8.621  10.439   5.429 -0.3510 -0.1566  0.2710
  545MOL0     C71831   8.500  10.512   5.467  0.7366  1.0064  0.0305
  545MOL0     O71832   8.473  10.623   5.383 -0.1074 -0.4573  0.2979
  545MOL0     C71833   8.343  10.667   5.374  0.2462  0.1565  0.0800
  545MOL0     C71834   8.305  10.733   5.257  0.4755 -0.8311 -0.9005
  545MOL0     C71835   8.183  10.785   5.238 -0.3712  0.2296  0.5022
  545MOL0     C71836   8.083  10.751   5.326  0.3992 -0.3445  0.0525
  545MOL0     C71837   7.948  10.816   5.319 -0.0859 -0.9586  0.0925
  545MOL0     O71838   7.837  10.759   5.373 -0.3006  0.0403 -0.4194
  545MOL0     C71839   7.713  10.812   5.357  0.5656 -0.0765  0.3575
  545MOL0     C71840   7.631  10.808   5.471  0.0768  0.1301 -0.4806
  545MOL0     C71841   7.503  10.865   5.460  0.0475 -0.6668 -0.4816
  545MOL0     C71842   7.459  10.933   5.340  0.1671  0.5483 -0.2814
  545MOL0     O71843   7.346  11.006   5.312  0.5428  0.3213  0.0729
  545MOL0     C71844   7.248  11.011   5.418  0.0487  0.2676  0.2952
  545MOL0     C71845   7.121  11.073   5.364  0.6566 -0.9977 -0.1718
  545MOL0     C71846   7.139  11.221   5.319 -0.9002  0.0055 -0.4971
  545MOL0     C71847   7.011  11.283   5.266 -0.2866 -0.3464 -0.3504
  545MOL0     C71848   7.006  11.439   5.283 -0.4999 -0.1791 -0.3086
  545MOL0     C71849   7.103  11.513   5.181 -0.0360 -0.8643  0.0536
  545MOL0     C71850   7.242  11.541   5.249  0.1654  0.0664  0.2622
  545MOL0     C71851   7.329  11.611   5.146 -0.2651  1.0122  0.2195
  545MOL0    Cl71852   7.329  11.519   4.998 -0.5596 -0.1585 -0.1499
  545MOL0     C71853   7.550  10.936   5.231 -0.0309  0.1432  0.4251
  545MOL0     C71854   7.672  10.869   5.232  0.1749 -0.7288  0.3197
  545MOL0     O71855   7.946  10.914   5.239 -0.5882 -0.3557 -0.3755
  545MOL0     C71856   8.117  10.666   5.436 -0.2496  0.2970  0.0066
  545MOL0     C71857   8.247  10.630   5.471 -0.6497  0.0734 -0.1326
  545MOL0     N71858   8.542  10.413   5.813 -0.0204 -0.3332  0.8269
  545MOL0     N71859   8.444  10.447   5.880 -0.1108  0.9460 -0.0171
  545MOL0     C71860   7.407  10.678   6.265  0.0044 -0.7490 -0.0603
  545MOL0     C71861   7.346  10.675   6.388 -0.4403  0.3702 -0.6815
  545MOL0     C71862   7.218  10.767   6.802  0.7414 -0.3667 -0.7113
  545MOL0     C71863   7.083  10.812   6.810 -0.2083 -0.1694  0.8897
  545MOL0     C71864   7.005  10.797   6.929 -0.0826 -0.2502  0.5078
  545MOL0     C71865   7.071  10.753   7.042 -0.3467  0.3994  0.8722
  545MOL0     O71866   6.986  10.732   7.143  0.4971 -0.5260 -0.4945
  545MOL0     C71867   7.029  10.678   7.268  0.0940  0.6569 -0.7430
  545MOL0     C71868   7.017  10.518   7.242  0.1970 -0.0469  0.5171
  545MOL0     C71869   7.072  10.448   7.361 -1.0716 -0.0948 -1.1221
  545MOL0     C71870   7.038  10.301   7.367  0.3253  1.0493 -0.4964
  545MOL0     C71871   7.116  10.245   7.474  0.8398 -0.9547  0.2666
  545MOL0     C71872   7.172  10.187   7.570 -0.5539 -0.0234  0.6070
  545MOL0     C71873   7.216  10.731   7.048  0.9871  0.4200 -0.0947
  545MOL0     C71874   7.284  10.726   6.922 -0.4109  0.0223  0.5448
  545MOL0     H71875   7.250  11.000   6.395  0.9005  0.1700  0.5552
  545MOL0     H71876   7.381  11.007   6.179 -3.9826  0.9869 -1.0502
  545MOL0     H71877   7.601  10.659   6.127 -1.6911 -1.6989 -1.1082
  545MOL0     H71878   7.666  10.811   6.054 -0.0544  0.3745 -3.1992
  545MOL0     H71879   7.537  10.744   5.832 -1.5302  0.2823  1.5873
  545MOL0     H71880   7.519  10.584   5.895  1.1518 -1.3396 -5.5472
  545MOL0     H71881   7.696  10.585   5.768 -1.9043  1.9890 -0.2526
  545MOL0     H71882   7.743  10.538   5.942 -0.0338  1.2527  1.2348
  545MOL0     H71883   7.785  10.812   5.808 -1.7156 -1.9111 -1.0201
  545MOL0     H71884   7.850  10.752   5.965 -1.0781  1.9906 -0.5033
  545MOL0     H71885   8.020  10.755   5.780 -1.0648  1.9154 -0.3890
  545MOL0     H71886   7.915  10.642   5.700  0.4965 -1.5656 -0.5985
  545MOL0     H71887   7.932  10.473   5.876 -0.1398 -0.1823  1.4044
  545MOL0     H71888   8.045  10.587   5.975  1.3237 -0.2338 -0.5379
  545MOL0     H71889   8.100  10.477   5.701  0.1938 -0.4567 -0.5990
  545MOL0     H71890   8.193  10.592   5.789 -0.0197 -0.8237 -1.0667
  545MOL0     H71891   8.143  10.308   5.876 -0.8200 -0.0687  1.6836
  545MOL0     H71892   8.207  10.430   5.983 -1.9045 -0.8329  0.0981
  545MOL0     H71893   8.319  10.240   5.656  1.7343  0.6991 -1.0808
  545MOL0     H71894   8.601  10.143   5.628  2.7514  0.1711  2.9434
  545MOL0     H71895   8.696  10.271   5.671 -0.2673 -1.1022  0.9376
  545MOL0     H71896   8.527  10.247   5.419  1.6957 -1.0707  0.3388
  545MOL0     H71897   8.694  10.244   5.425 -1.5498  0.2594 -3.8078
  545MOL0     H71898   8.699  10.478   5.496 -2.1545 -0.3852  2.6418
  545MOL0     H71899   8.650  10.450   5.324  1.8861  0.8962  0.9333
  545MOL0     H71900   8.507  10.561   5.565 -1.3381 -0.6718  1.1064
  545MOL0     H71901   8.421  10.437   5.473  0.7223  1.0826  5.3849
  545MOL0     H71902   8.386  10.754   5.188  0.8524 -1.0000 -0.5175
  545MOL0     H71903   8.176  10.859   5.159  1.2986 -0.9087 -0.7776
  545MOL0     H71904   7.663  10.765   5.566 -0.3064 -0.8069 -0.7630
  545MOL0     H71905   7.439  10.857   5.547 -1.0038  0.7935 -1.0707
  545MOL0     H71906   7.282  11.066   5.506  0.0204 -1.6232  1.5525
  545MOL0     H71907   7.220  10.911   5.454  0.2130 -0.8413 -2.4380
  545MOL0     H71908   7.044  11.062   5.441  1.1644  2.0247  0.9173
  545MOL0     H71909   7.096  11.014   5.275 -1.6408  0.2982 -0.4497
  545MOL0     H71910   7.226  11.231   5.252  0.3520  2.0639  1.3135
  545MOL0     H71911   7.172  11.253   5.418 -1.0455 -2.8570  0.5949
  545MOL0     H71912   7.000  11.267   5.158 -1.6995  3.8074 -0.9979
  545MOL0     H71913   6.923  11.239   5.313  0.1797 -1.5769 -0.6123
  545MOL0     H71914   7.011  11.461   5.390 -0.2806  0.0080 -0.3565
  545MOL0     H71915   6.904  11.466   5.255 -0.3548 -0.4257 -1.1009
  545MOL0     H71916   7.063  11.610   5.150 -0.9907 -0.8660  1.1985
  545MOL0     H71917   7.106  11.456   5.088 -4.1514  1.0335 -1.5196
  545MOL0     H71918   7.233  11.587   5.348 -2.7575  0.3502 -0.0579
  545MOL0     H71919   7.285  11.442   5.266 -2.1480 -0.8610  1.0310
  545MOL0     H71920   7.436  11.622   5.168  0.6571 -0.2534 -2.9671
  545MOL0     H71921   7.293  11.712   5.121  0.2506  0.3213 -4.2983
  545MOL0     H71922   7.527  10.999   5.146  0.6808  1.2549  1.0284
  545MOL0     H71923   7.732  10.866   5.141 -0.9300 -3.0975 -0.3984
  545MOL0     H71924   8.036  10.642   5.504  0.1810 -1.3629 -0.0304
  545MOL0     H71925   8.265  10.557   5.550  0.5030 -2.2288 -2.3342
  545MOL0     H71926   7.451  10.584   6.232  2.2532 -0.2520  1.3259
  545MOL0     H71927   7.348  10.583   6.445 -0.5347  1.1550  0.6283
  545MOL0     H71928   7.034  10.848   6.720  3.4030  3.4654  0.0886
  545MOL0     H71929   6.902  10.830   6.920  0.7462  3.1322  1.8277
  545MOL0     H71930   6.955  10.696   7.347 -0.9120 -1.7560 -1.0289
  545MOL0     H71931   7.127  10.715   7.296  0.8202 -0.3513 -1.8558
  545MOL0     H71932   6.912  10.487   7.233  0.5623 -0.9936 -0.7439
  545MOL0     H71933   7.078  10.487   7.157 -1.3407 -0.8514 -0.3513
  545MOL0     H71934   7.046  10.500   7.453  0.7237  1.0476 -1.2088
  545MOL0     H71935   7.180  10.463   7.350 -0.8107 -0.0060  1.1456
  545MOL0     H71936   6.932  10.278   7.384  0.5695 -1.3210 -1.7261
  545MOL0     H71937   7.059  10.255   7.270  0.4127 -0.4506  0.2015
  545MOL0     H71938   7.220  10.118   7.637  2.7625  0.5923 -0.9224
  545MOL0     H71939   7.275  10.681   7.123  0.1759  0.0344  0.3065
  545MOL0     H71940   7.385  10.688   6.920 -1.1956 -2.4234 -3.0451
  546MOL0     O71941   7.771   6.487   0.126 -0.1277  0.0037  0.7972
  546MOL0     C71942   7.859   6.574   0.101 -0.7457  0.3016  0.5293
  546MOL0     O71943   7.831   6.700   0.080  0.0521 -0.1980  0.0409
  546MOL0     C71944   7.710   6.739   0.126  1.2128  0.2117  0.3524
  546MOL0     C71945   7.696   6.758   0.269 -0.9585  0.6650 -0.7147
  546MOL0     C71946   7.580   6.810   0.315 -0.8296  0.0357 -0.1569
  546MOL0     C71947   7.469   6.837   0.228 -0.4130  0.5892 -0.1086
  546MOL0     O71948   7.347   6.890   0.259 -0.5382  0.7360  0.4101
  546MOL0     C71949   7.294   6.820   0.374  0.4022  0.3254  0.4220
  546MOL0     C71950   7.152   6.871   0.411  0.7926 -0.0668 -0.7078
  546MOL0     C71951   7.052   6.870   0.297  0.3305 -0.5627  0.6612
  546MOL0     C71952   6.931   6.961   0.336  0.0018  0.6973  0.5853
  546MOL0     C71953   6.819   6.961   0.232  0.3016 -0.6634 -0.4231
  546MOL0     C71954   6.688   7.026   0.293  0.1090 -0.0273  0.6100
  546MOL0     C71955   6.581   7.027   0.187 -1.0813  0.1831  0.2255
  546MOL0     C71956   6.435   7.037   0.231 -0.0121  1.5217 -0.2300
  546MOL0     N71957   6.354   6.906   0.227  0.4712 -0.0153  0.4955
  546MOL0     C71958   6.291   6.873   0.113  0.5288 -0.7608 -0.4997
  546MOL0     C71959   6.241   6.754   0.130  0.9674  0.3657  0.4522
  546MOL0     C71960   6.139   6.679   0.042 -0.1329 -0.3764 -0.3158
  546MOL0     C71961   5.999   6.729   0.057  0.3718 -0.6972  0.0260
  546MOL0     C71962   5.920   6.694   0.192 -0.2685 -0.5009 -0.2305
  546MOL0     C71963   5.775   6.753   0.169  0.2672  0.9603 -0.1583
  546MOL0     O71964   5.690   6.644   0.119 -0.4039 -0.3253 -0.4936
  546MOL0     C71965   5.562   6.669   0.096  1.7225 -0.0404 -0.6684
  546MOL0     C71966   5.495   6.786   0.110  0.0757 -0.6064 -0.5193
  546MOL0     C71967   5.361   6.797   0.088  0.5420  0.5706  0.6329
  546MOL0     C71968   5.289   6.701   0.026 -0.3952 -0.5532  0.7355
  546MOL0     C71969   5.145   6.720  -0.002 -0.3473  0.5355  0.0610
  546MOL0     O71970   5.063   6.608  -0.023 -0.0443 -0.2600  0.2001
  546MOL0     C71971   4.929   6.648  -0.037 -0.4018  1.0375 -0.0191
  546MOL0     C71972   4.862   6.615  -0.150 -0.1742 -0.2572  1.2021
  546MOL0     C71973   4.726   6.625  -0.164 -0.4013 -0.5256 -0.7101
  546MOL0     C71974   4.645   6.673  -0.057 -0.4599 -0.0236 -0.1087
  546MOL0     O71975   4.506   6.672  -0.040 -0.0810  0.0489  0.0786
  546MOL0     C71976   4.441   6.599  -0.144  0.2010 -0.1173 -0.0352
  546MOL0     C71977   4.299   6.590  -0.099 -1.2508 -0.1510 -0.0205
  546MOL0     C71978   4.235   6.468  -0.161  0.2367  0.0817  0.0477
  546MOL0     C71979   4.084   6.464  -0.137 -0.6586  0.3442 -0.9320
  546MOL0     C71980   4.032   6.326  -0.188 -0.1183  0.4827  0.0707
  546MOL0     C71981   3.879   6.323  -0.185 -0.3067  0.7957 -0.2095
  546MOL0     C71982   3.841   6.184  -0.250  0.0074 -0.4614 -0.0362
  546MOL0     C71983   3.701   6.148  -0.294  0.3125 -0.3569  0.4420
  546MOL0    Cl71984   3.635   6.275  -0.406 -0.3217  0.0947 -0.2970
  546MOL0     C71985   4.708   6.711   0.062 -0.3016 -0.6981  0.0567
  546MOL0     C71986   4.852   6.698   0.071  0.6963 -0.4154  0.5748
  546MOL0     O71987   5.102   6.832   0.006 -0.5873  0.1526  0.6685
  546MOL0     C71988   5.353   6.582  -0.000 -0.6768 -0.0883  0.2926
  546MOL0     C71989   5.490   6.564   0.027  0.0893  0.4387 -0.4442
  546MOL0     N71990   6.279   6.710   0.261 -0.2264  0.0935  0.0421
  546MOL0     N71991   6.355   6.796   0.309 -0.3015 -0.5210 -0.1865
  546MOL0     C71992   7.480   6.822   0.092 -0.1137  0.3547  0.0492
  546MOL0     C71993   7.603   6.774   0.039  0.3658  0.7435 -0.2744
  546MOL0     C71994   7.996   6.533   0.060  0.1519  0.3600  0.6269
  546MOL0     C71995   8.076   6.619  -0.020 -0.3199  0.6993 -0.5213
  546MOL0     C71996   8.208   6.578  -0.053 -0.0886 -0.2793  0.4835
  546MOL0     C71997   8.259   6.460  -0.008 -0.1852 -0.0083  0.3205
  546MOL0     O71998   8.378   6.423  -0.057 -0.4774 -0.2400  0.5644
  546MOL0     C71999   8.447   6.312   0.003  0.0395  1.0735  0.5974
  546MOL0     C72000   8.595   6.340  -0.022 -0.0491  0.3967 -0.2446
  546MOL0     C72001   8.692   6.219  -0.025 -0.6707  0.4562 -0.5123
  546MOL0     C72002   8.713   6.163  -0.160 -0.0609 -0.1975 -0.5198
  546MOL0     C72003   8.789   6.250  -0.244 -0.1133  0.2794 -0.2231
  546MOL0     C72004   8.837   6.306  -0.340 -0.8832 -0.2213 -0.1359
  546MOL0     C72005   8.176   6.381   0.069  0.4441 -0.8481 -0.9811
  546MOL0     C72006   8.052   6.419   0.114 -0.3157  0.9748  0.2672
  546MOL0     H72007   7.779   6.730   0.333 -2.0110  0.6446  0.6973
  546MOL0     H72008   7.581   6.836   0.420  4.6510  0.0090  0.0841
  546MOL0     H72009   7.357   6.834   0.462  1.0275  0.2972 -0.0158
  546MOL0     H72010   7.275   6.714   0.351 -2.6376  1.4112 -3.2100
  546MOL0     H72011   7.160   6.969   0.460 -2.3417 -0.7611  1.4891
  546MOL0     H72012   7.119   6.802   0.489  0.1182  0.5463 -0.4375
  546MOL0     H72013   7.024   6.768   0.270  2.2220 -0.7700 -0.6767
  546MOL0     H72014   7.092   6.908   0.203  2.6246 -2.1506  0.9301
  546MOL0     H72015   6.889   6.925   0.431 -0.8085  1.4213  0.5214
  546MOL0     H72016   6.964   7.064   0.351 -0.7210  0.8126  1.5166
  546MOL0     H72017   6.787   6.861   0.200 -2.7800 -0.1850  0.9166
  546MOL0     H72018   6.842   7.021   0.143 -1.4958  2.9341  1.3697
  546MOL0     H72019   6.706   7.126   0.335  0.1015 -1.3803  4.1933
  546MOL0     H72020   6.649   6.971   0.379 -2.1377  2.1270  1.1075
  546MOL0     H72021   6.607   7.106   0.115 -0.8314  0.4753  0.6351
  546MOL0     H72022   6.591   6.934   0.131  2.9890  0.6718 -0.1320
  546MOL0     H72023   6.390   7.095   0.150  0.0472 -0.9900 -2.1891
  546MOL0     H72024   6.426   7.083   0.330 -2.2141 -1.0038  0.8915
  546MOL0     H72025   6.259   6.931   0.027 -0.4932 -3.2780 -1.9346
  546MOL0     H72026   6.143   6.573   0.069 -1.4900 -0.3244  0.1597
  546MOL0     H72027   6.155   6.675  -0.066 -1.2845 -1.5095 -0.4691
  546MOL0     H72028   5.945   6.696  -0.032 -2.0509  3.3766 -0.2634
  546MOL0     H72029   6.006   6.838   0.060 -0.4771 -0.6413 -0.0092
  546MOL0     H72030   5.920   6.586   0.206 -0.7210 -0.4149  0.4949
  546MOL0     H72031   5.971   6.750   0.272 -1.0835  0.4209 -0.3341
  546MOL0     H72032   5.770   6.836   0.098  1.7581 -1.2439 -3.0577
  546MOL0     H72033   5.729   6.792   0.260 -0.5538  0.8506 -0.5189
  546MOL0     H72034   5.551   6.873   0.145  3.0006 -2.8038  0.6791
  546MOL0     H72035   5.318   6.897   0.099  0.8836  0.7281  0.5465
  546MOL0     H72036   4.925   6.576  -0.229 -1.7722  0.1985 -0.3592
  546MOL0     H72037   4.691   6.593  -0.262 -0.3200  1.7327 -1.5524
  546MOL0     H72038   4.483   6.498  -0.152  2.0712  0.5311  0.8513
  546MOL0     H72039   4.451   6.653  -0.238 -0.6463  0.6451  0.2970
  546MOL0     H72040   4.257   6.690  -0.113  0.8088  0.7206 -0.3750
  546MOL0     H72041   4.302   6.581   0.010 -0.6169  2.0917  0.1914
  546MOL0     H72042   4.285   6.379  -0.121 -2.6198 -1.8146 -0.3559
  546MOL0     H72043   4.243   6.475  -0.270 -1.1248  1.0344 -0.0140
  546MOL0     H72044   4.070   6.472  -0.029  1.3576 -0.5148 -0.5711
  546MOL0     H72045   4.030   6.547  -0.183 -1.2273 -0.0138 -0.9203
  546MOL0     H72046   4.075   6.237  -0.143  2.6929  1.7026 -0.0090
  546MOL0     H72047   4.066   6.320  -0.291 -1.7649 -0.3314 -0.4618
  546MOL0     H72048   3.837   6.414  -0.228  1.4443  1.5132 -0.5129
  546MOL0     H72049   3.844   6.331  -0.082  1.4204 -1.3505  0.6160
  546MOL0     H72050   3.911   6.188  -0.335  0.6914 -0.4432  0.5220
  546MOL0     H72051   3.878   6.104  -0.187 -0.4087  1.8695  3.4131
  546MOL0     H72052   3.659   6.133  -0.195  0.7135 -2.4949  0.3559
  546MOL0     H72053   3.709   6.047  -0.336  1.0965  0.4725 -1.5278
  546MOL0     H72054   4.666   6.763   0.148  2.7044  0.3421  0.9935
  546MOL0     H72055   4.899   6.740   0.160 -0.2377  3.9569 -0.7316
  546MOL0     H72056   5.300   6.500  -0.050  0.7347 -0.0145 -1.4335
  546MOL0     H72057   5.530   6.465   0.009  1.4620  1.2244 -1.9266
  546MOL0     H72058   7.402   6.841   0.020  0.4531  0.7282 -0.4807
  546MOL0     H72059   7.614   6.756  -0.068 -3.1045 -0.4213 -0.5563
  546MOL0     H72060   8.030   6.709  -0.059 -1.8180  1.0884  1.9196
  546MOL0     H72061   8.265   6.644  -0.117  2.2023 -1.2787  1.3981
  546MOL0     H72062   8.413   6.224  -0.052 -1.7285  0.8234  2.0211
  546MOL0     H72063   8.432   6.303   0.111  1.2272  1.0799  0.7796
  546MOL0     H72064   8.610   6.392  -0.117 -0.0529  1.2479  0.2078
  546MOL0     H72065   8.624   6.428   0.035  4.7087  1.3970 -3.5841
  546MOL0     H72066   8.633   6.146   0.032 -1.5152  1.6405  0.1840
  546MOL0     H72067   8.783   6.258   0.022 -0.3070  1.5409 -2.0636
  546MOL0     H72068   8.757   6.064  -0.150 -0.9419 -0.7379 -1.6635
  546MOL0     H72069   8.616   6.147  -0.208  0.3161  0.5590 -1.5946
  546MOL0     H72070   8.869   6.371  -0.419 -2.0664 -0.2322 -0.6463
  546MOL0     H72071   8.208   6.284   0.107 -2.2087 -0.8886  1.4855
  546MOL0     H72072   7.996   6.351   0.178 -1.4845  1.4571 -0.2076
  547MOL0     O72073   9.248  10.408  10.111  0.6911 -0.0512 -0.2619
  547MOL0     C72074   9.328  10.356  10.040 -0.6002  0.0240  0.4345
  547MOL0     O72075   9.400  10.234  10.062  0.1462  0.1919  1.0575
  547MOL0     C72076   9.353  10.144  10.154 -0.2779  0.1666  1.0329
  547MOL0     C72077   9.327  10.015  10.102  0.3040 -0.3696 -0.0775
  547MOL0     C72078   9.257   9.930  10.175  0.5406  0.1799 -0.3628
  547MOL0     C72079   9.230   9.945  10.311  0.0837 -0.1367 -0.3115
  547MOL0     O72080   9.183   9.845  10.397 -0.2476  0.1106 -0.3121
  547MOL0     C72081   9.156   9.707  10.347  0.1614  0.9304 -0.5338
  547MOL0     C72082   9.007   9.704  10.308 -0.7928 -0.2068  0.1976
  547MOL0     C72083   8.907   9.703  10.426  0.1616  0.1859  0.8529
  547MOL0     C72084   8.759   9.704  10.379  0.5405  0.4068  0.4638
  547MOL0     C72085   8.680   9.765  10.493  0.5127  0.5276 -0.0241
  547MOL0     C72086   8.540   9.772  10.462  1.0175 -0.5252  1.5024
  547MOL0     C72087   8.453   9.817  10.588 -0.0163 -0.1257  0.2167
  547MOL0     C72088   8.303   9.802  10.558  0.0275  0.0379 -0.0840
  547MOL0     N72089   8.213   9.851  10.663  0.8212 -0.4016 -0.2636
  547MOL0     C72090   8.203   9.976  10.711 -0.5474 -0.2239  0.6594
  547MOL0     C72091   8.104   9.985  10.800  0.4359  0.6222 -0.1861
  547MOL0     C72092   8.055  10.113  10.868 -0.6662 -0.1457 -0.2401
  547MOL0     C72093   8.061  10.113  11.020  0.3221  0.4645  0.3685
  547MOL0     C72094   7.987  10.002  11.091  0.5113 -0.0802  0.2736
  547MOL0     C72095   7.835  10.020  11.094  0.2592 -0.4483  0.2872
  547MOL0     O72096   7.764   9.965  10.982 -0.3636  0.7032  0.3525
  547MOL0     C72097   7.635   9.992  10.958  0.2775  0.1024 -0.1055
  547MOL0     C72098   7.582   9.933  10.853  0.1999 -0.7140  0.7823
  547MOL0     C72099   7.442   9.941  10.822  0.1309 -0.0321  0.4237
  547MOL0     C72100   7.352  10.020  10.906  0.5695  0.1072 -0.1207
  547MOL0     C72101   7.206  10.026  10.883 -0.0828  0.2918  0.9534
  547MOL0     O72102   7.147  10.125  10.953 -0.0995 -0.2582  0.7363
  547MOL0     C72103   7.013  10.151  10.937 -0.0105  0.0664 -0.6872
  547MOL0     C72104   6.927  10.123  10.829 -0.2262  0.6348 -0.7337
  547MOL0     C72105   6.796  10.154  10.848  0.7360 -0.5765  0.4731
  547MOL0     C72106   6.734  10.196  10.962 -0.1781 -0.4186 -0.3872
  547MOL0     O72107   6.597  10.216  10.983 -0.2386  0.3825 -0.1567
  547MOL0     C72108   6.541  10.298  10.877  0.0322  0.8134 -0.2203
  547MOL0     C72109   6.416  10.375  10.926  0.1636  0.6024 -0.0535
  547MOL0     C72110   6.370  10.489  10.829  0.0482 -0.2344  0.5070
  547MOL0     C72111   6.249  10.561  10.868 -1.0063  0.0058 -0.2789
  547MOL0     C72112   6.193  10.629  10.735  0.6158  0.1961  0.1072
  547MOL0     C72113   6.279  10.752  10.685 -0.1440  0.2831 -0.9075
  547MOL0     C72114   6.249  10.774  10.540 -0.9618 -0.2776  0.0155
  547MOL0     C72115   6.310  10.909  10.485  0.1242  0.4504  0.0320
  547MOL0    Cl72116   6.269  10.952  10.309 -0.5617 -0.5712  0.3464
  547MOL0     C72117   6.821  10.216  11.067 -0.0870 -0.1784  0.2862
  547MOL0     C72118   6.954  10.202  11.056 -0.4982 -0.5656  0.6839
  547MOL0     O72119   7.154   9.951  10.796 -0.1387  0.0962 -0.3393
  547MOL0     C72120   7.417  10.094  11.011 -0.0399 -0.5774  0.1792
  547MOL0     C72121   7.552  10.078  11.043 -0.1656  0.8994  0.0820
  547MOL0     N72122   8.049   9.861  10.806  0.1101 -0.0969 -0.7389
  547MOL0     N72123   8.117   9.785  10.730 -0.0838  0.7254 -0.1936
  547MOL0     C72124   9.268  10.071  10.373  0.0690  0.2265 -0.3350
  547MOL0     C72125   9.311  10.175  10.282  0.3106 -0.4041 -0.1199
  547MOL0     C72126   9.374  10.446   9.928  0.2444  0.0423  1.0587
  547MOL0     C72127   9.512  10.441   9.888  0.0011  0.2257 -0.3581
  547MOL0     C72128   9.563  10.526   9.784  0.5222  0.0488 -0.2676
  547MOL0     C72129   9.474  10.615   9.721 -0.3079  0.0180 -0.9691
  547MOL0     O72130   9.511  10.701   9.622  0.0040  0.2442 -0.2784
  547MOL0     C72131   9.647  10.722   9.576  0.0022  1.3131 -0.1204
  547MOL0     C72132   9.710  10.851   9.635 -0.2394  0.4783  0.3087
  547MOL0     C72133   9.844  10.899   9.576 -0.5465 -0.5864 -0.1292
  547MOL0     C72134   9.850  10.930   9.425  0.1016 -0.6327  0.5324
  547MOL0     C72135   9.983  10.981   9.388  0.2483  0.1398  0.4085
  547MOL0     C72136  10.092  11.025   9.353  0.6620 -0.8889  0.3712
  547MOL0     C72137   9.341  10.618   9.762 -0.0648  0.4358 -0.2339
  547MOL0     C72138   9.291  10.538   9.865 -0.4520  0.6767  0.4559
  547MOL0     H72139   9.345  10.003   9.995  2.8591  2.4459 -0.0982
  547MOL0     H72140   9.213   9.849  10.118 -0.6444 -0.1493  0.9679
  547MOL0     H72141   9.168   9.635  10.429 -1.6221  2.3832  1.1258
  547MOL0     H72142   9.217   9.682  10.260 -1.5338  0.6234 -1.6903
  547MOL0     H72143   8.992   9.617  10.244  0.7713  0.8504 -1.7199
  547MOL0     H72144   8.981   9.791  10.246  1.7056  0.6048  0.1609
  547MOL0     H72145   8.928   9.785  10.495  0.6828  2.3291 -1.7031
  547MOL0     H72146   8.920   9.613  10.488 -0.8235  0.4796  1.5178
  547MOL0     H72147   8.749   9.766  10.290  2.5140 -1.3916 -1.1018
  547MOL0     H72148   8.725   9.607  10.341  0.6610  0.2754  0.6912
  547MOL0     H72149   8.707   9.869  10.514 -3.3910  1.3857  1.5084
  547MOL0     H72150   8.694   9.692  10.574  1.6879  1.1210  0.3314
  547MOL0     H72151   8.499   9.679  10.421  0.4902  0.1378  0.4742
  547MOL0     H72152   8.517   9.835  10.376 -2.6105 -2.6683  0.6375
  547MOL0     H72153   8.472   9.742  10.665 -0.6876 -0.4050  0.1196
  547MOL0     H72154   8.493   9.911  10.626  0.0243 -1.2336  3.2009
  547MOL0     H72155   8.272   9.699  10.536 -2.8784  1.0905 -1.4920
  547MOL0     H72156   8.290   9.869  10.472  0.3082  2.3669  1.6229
  547MOL0     H72157   8.263  10.062  10.681 -1.9075  0.1117 -1.2809
  547MOL0     H72158   7.957  10.151  10.838 -0.5081 -0.0010 -0.5809
  547MOL0     H72159   8.118  10.195  10.830 -0.0734 -1.0658 -1.3168
  547MOL0     H72160   8.021  10.213  11.041 -0.7879  0.1257 -0.0941
  547MOL0     H72161   8.164  10.095  11.055 -0.9519 -2.3617  3.2015
  547MOL0     H72162   7.998   9.901  11.049 -5.4392 -1.0965  0.4014
  547MOL0     H72163   8.021  10.000  11.195 -0.2165 -1.5529  0.4973
  547MOL0     H72164   7.809  10.125  11.082 -0.0313 -0.7742 -3.0951
  547MOL0     H72165   7.785   9.991  11.187 -3.3676  1.0344 -1.0090
  547MOL0     H72166   7.647   9.881  10.784 -1.2075  1.1761 -2.1977
  547MOL0     H72167   7.397   9.886  10.739 -1.0733  4.0946 -1.9516
  547MOL0     H72168   6.962  10.090  10.731  2.6339  0.5179  0.2253
  547MOL0     H72169   6.730  10.138  10.763  3.2878 -0.1695 -1.7126
  547MOL0     H72170   6.522  10.240  10.786  0.5667  1.4512 -0.7512
  547MOL0     H72171   6.594  10.392  10.857 -1.5278  1.5603 -1.0397
  547MOL0     H72172   6.425  10.421  11.026  0.5284  0.8296 -0.1870
  547MOL0     H72173   6.338  10.299  10.929  0.9773 -0.2402  0.5179
  547MOL0     H72174   6.374  10.453  10.726 -1.0730  1.0896 -0.0343
  547MOL0     H72175   6.449  10.565  10.827 -1.3897  1.2921  0.0829
  547MOL0     H72176   6.181  10.492  10.919 -1.2555 -0.3322 -1.0674
  547MOL0     H72177   6.264  10.637  10.945  0.0294 -0.5892  0.1300
  547MOL0     H72178   6.094  10.671  10.757  0.2498 -0.8253  0.4410
  547MOL0     H72179   6.180  10.551  10.659  0.2522 -0.0391  0.4082
  547MOL0     H72180   6.387  10.739  10.701 -0.5418 -0.9835  1.2272
  547MOL0     H72181   6.238  10.832  10.749 -0.9432  0.3058 -1.4378
  547MOL0     H72182   6.287  10.685  10.489 -0.6582 -1.2726  1.8883
  547MOL0     H72183   6.142  10.796  10.532 -0.4247  2.4074 -0.8029
  547MOL0     H72184   6.419  10.906  10.494  0.0928  0.8160  0.5292
  547MOL0     H72185   6.283  10.991  10.552  3.9351  2.6096 -0.8114
  547MOL0     H72186   6.780  10.234  11.166 -1.2092  0.4263 -0.2643
  547MOL0     H72187   7.024  10.225  11.136  0.9720  0.8044 -0.9101
  547MOL0     H72188   7.349  10.156  11.069 -0.8697 -0.3946 -0.9632
  547MOL0     H72189   7.592  10.118  11.136 -1.0366  0.5865  0.6038
  547MOL0     H72190   9.250  10.090  10.479  2.5874 -0.6570  0.3149
  547MOL0     H72191   9.331  10.271  10.328  2.2413 -1.4930  1.5314
  547MOL0     H72192   9.575  10.376   9.948  2.6899  0.1338 -3.0357
  547MOL0     H72193   9.669  10.521   9.758 -0.4144 -0.9871 -4.6282
  547MOL0     H72194   9.629  10.737   9.469  1.4145  1.2648 -0.3795
  547MOL0     H72195   9.715  10.639   9.591 -3.1339 -1.0739  2.1251
  547MOL0     H72196   9.639  10.933   9.620 -0.2227  0.2020 -1.4553
  547MOL0     H72197   9.714  10.829   9.743 -0.7463  0.2685  0.2878
  547MOL0     H72198   9.920  10.822   9.591  3.5808  3.0377 -0.6030
  547MOL0     H72199   9.870  10.992   9.628 -2.3961 -0.9186  1.5096
  547MOL0     H72200   9.823  10.848   9.357 -0.6198 -0.1127  0.1760
  547MOL0     H72201   9.774  11.005   9.402 -0.2582 -0.7019  1.4464
  547MOL0     H72202  10.188  11.058   9.319  0.8491 -2.1691 -0.4130
  547MOL0     H72203   9.280  10.697   9.719  3.5679  3.9760  0.5578
  547MOL0     H72204   9.189  10.550   9.901 -0.9845  0.1801 -0.8411
  548MOL0     O72205   0.836   9.553   0.075  0.1702 -0.5790  0.5418
  548MOL0     C72206   0.869   9.673   0.088  0.2297  0.4395  0.5085
  548MOL0     O72207   0.779   9.780   0.099 -0.4488 -0.2477 -0.6727
  548MOL0     C72208   0.643   9.770   0.100  0.0416  0.7768 -0.0103
  548MOL0     C72209   0.572   9.681   0.029 -0.1407  0.0590 -0.0078
  548MOL0     C72210   0.435   9.680   0.043 -0.0359  0.2417  0.4133
  548MOL0     C72211   0.360   9.765   0.121 -0.4639 -0.0069  0.4949
  548MOL0     O72212   0.224   9.744   0.131  0.5903  0.8175  0.0148
  548MOL0     C72213   0.145   9.860   0.170  0.1930 -0.1450 -0.2255
  548MOL0     C72214  -0.002   9.831   0.123 -0.4435 -0.4074 -0.1170
  548MOL0     C72215  -0.095   9.950   0.136  0.3781  0.5216  0.0011
  548MOL0     C72216  -0.241   9.899   0.131 -0.8751 -0.1967 -0.3516
  548MOL0     C72217  -0.288   9.886  -0.017  0.7808 -0.3217 -0.1651
  548MOL0     C72218  -0.304  10.014  -0.097 -0.9754 -0.9366  0.0966
  548MOL0     C72219  -0.380   9.998  -0.233  0.3548 -0.4527 -0.0257
  548MOL0     C72220  -0.535  10.013  -0.220  0.1405 -0.4279  0.1880
  548MOL0     N72221  -0.608   9.927  -0.318 -0.7511 -0.6545 -0.9482
  548MOL0     C72222  -0.569   9.910  -0.452 -0.5832  0.2088 -1.0244
  548MOL0     C72223  -0.682   9.859  -0.507 -0.2624 -0.2463  0.6811
  548MOL0     C72224  -0.693   9.812  -0.655 -0.6157  0.5894 -0.2862
  548MOL0     C72225  -0.791   9.904  -0.727 -0.5189 -0.4909  0.1508
  548MOL0     C72226  -0.835   9.846  -0.864  0.1871  0.3744  0.7497
  548MOL0     C72227  -0.937   9.936  -0.939 -0.0770 -0.6839  1.0977
  548MOL0     O72228  -1.034  10.005  -0.864 -0.0007 -0.0252 -0.4402
  548MOL0     C72229  -1.140   9.947  -0.799 -0.4129  0.4034  0.3601
  548MOL0     C72230  -1.228  10.037  -0.740  0.3895 -0.2372  0.0046
  548MOL0     C72231  -1.342   9.991  -0.667  0.5836  0.9515 -0.5487
  548MOL0     C72232  -1.378   9.852  -0.667  0.0098 -0.7199 -0.5198
  548MOL0     C72233  -1.500   9.807  -0.590 -0.1362 -0.2717  0.2087
  548MOL0     O72234  -1.569   9.888  -0.510  0.3466 -0.3929 -0.1131
  548MOL0     C72235  -1.698   9.849  -0.487  0.4541  0.4097  0.6700
  548MOL0     C72236  -1.795   9.845  -0.585 -0.5059 -0.5539  0.2985
  548MOL0     C72237  -1.925   9.817  -0.542 -0.0514 -0.2851  0.2458
  548MOL0     C72238  -1.951   9.783  -0.408  0.7372  0.2863  0.6853
  548MOL0     O72239  -2.075   9.757  -0.359 -0.6818  0.4595  0.6181
  548MOL0     C72240  -2.152   9.672  -0.444  0.0617 -0.1010  0.8737
  548MOL0     C72241  -2.258   9.622  -0.346  0.7971  0.5166 -0.6303
  548MOL0     C72242  -2.369   9.543  -0.412  0.4068  0.6266  0.7910
  548MOL0     C72243  -2.455   9.473  -0.307  0.2508 -0.2134 -0.1998
  548MOL0     C72244  -2.571   9.422  -0.380  0.3673  0.3842  0.0977
  548MOL0     C72245  -2.662   9.340  -0.292  0.4868 -0.0321 -0.9386
  548MOL0     C72246  -2.777   9.306  -0.392  0.5639  0.4390 -0.7513
  548MOL0     C72247  -2.871   9.197  -0.342 -0.3145 -0.0191 -0.2913
  548MOL0    Cl72248  -3.024   9.189  -0.428  0.9160  0.1398 -0.1214
  548MOL0     C72249  -1.852   9.785  -0.314 -0.2513 -0.5374  0.9264
  548MOL0     C72250  -1.724   9.824  -0.350  0.5687  0.1747 -0.0385
  548MOL0     O72251  -1.529   9.693  -0.618 -0.1277 -0.3453  0.8893
  548MOL0     C72252  -1.296   9.766  -0.739 -0.0234 -0.2705 -0.7582
  548MOL0     C72253  -1.169   9.814  -0.785 -0.4335 -0.2902  0.7223
  548MOL0     N72254  -0.775   9.839  -0.406  0.0362 -0.6202  0.4724
  548MOL0     N72255  -0.739   9.888  -0.293  0.1305 -0.5035  1.0418
  548MOL0     C72256   0.434   9.861   0.187  0.9480 -0.1063  0.2069
  548MOL0     C72257   0.574   9.860   0.183  0.9816  0.0944  0.7198
  548MOL0     C72258   1.014   9.708   0.086  0.9200  0.1068 -0.2238
  548MOL0     C72259   1.102   9.599   0.100  0.8071 -1.0284  1.1216
  548MOL0     C72260   1.239   9.617   0.101  0.2235  0.5207  0.4728
  548MOL0     C72261   1.297   9.741   0.090 -0.9785 -0.9299  0.6623
  548MOL0     O72262   1.438   9.750   0.090 -0.5002 -0.2090  0.9170
  548MOL0     C72263   1.494   9.846   0.180  1.0687  0.5720  0.3999
  548MOL0     C72264   1.637   9.842   0.196 -0.2418  0.2117 -0.3599
  548MOL0     C72265   1.719   9.879   0.067 -0.7272  0.4425 -0.3704
  548MOL0     C72266   1.865   9.863   0.090  0.6531  0.4719 -0.0646
  548MOL0     C72267   1.933   9.889  -0.033  0.0043  0.6644 -0.8287
  548MOL0     C72268   1.972   9.908  -0.144  0.2990  0.5989 -0.2682
  548MOL0     C72269   1.208   9.855   0.092  0.4865  0.7015  0.2587
  548MOL0     C72270   1.073   9.837   0.083  0.3195  0.1428  0.3759
  548MOL0     H72271   0.626   9.615  -0.039 -0.7920  0.2972 -0.7712
  548MOL0     H72272   0.368   9.607  -0.001  2.2840 -2.2263  0.7521
  548MOL0     H72273   0.175   9.950   0.117 -0.0113  2.0122  3.0627
  548MOL0     H72274   0.161   9.874   0.278 -0.7333  0.5299 -0.1583
  548MOL0     H72275  -0.042   9.749   0.183 -1.3124  1.1442  1.4812
  548MOL0     H72276  -0.014   9.791   0.021 -1.2461  0.9687 -0.5791
  548MOL0     H72277  -0.077  10.020   0.053 -0.1269 -0.3839 -0.8958
  548MOL0     H72278  -0.068  10.001   0.229  2.7482 -1.9405  0.7845
  548MOL0     H72279  -0.251   9.797   0.170 -0.0885  0.3221  1.3175
  548MOL0     H72280  -0.309   9.958   0.194  0.2525  1.1804 -0.3577
  548MOL0     H72281  -0.389   9.845  -0.008  0.7463 -0.1728  0.1602
  548MOL0     H72282  -0.229   9.817  -0.079 -0.5560 -0.2348 -1.5769
  548MOL0     H72283  -0.203  10.043  -0.128 -0.8505  0.0768  1.3765
  548MOL0     H72284  -0.348  10.092  -0.036 -0.9985 -2.5865  2.2988
  548MOL0     H72285  -0.340  10.079  -0.295 -2.3655  0.3827 -0.8712
  548MOL0     H72286  -0.365   9.898  -0.275  0.1881 -1.2007  1.6075
  548MOL0     H72287  -0.568  10.114  -0.245 -2.1483 -1.1589 -0.0289
  548MOL0     H72288  -0.561   9.984  -0.117 -0.7628  1.3175  0.4924
  548MOL0     H72289  -0.479   9.949  -0.500  0.5269  0.3109  0.9871
  548MOL0     H72290  -0.729   9.709  -0.668  0.7583 -0.0269  0.6110
  548MOL0     H72291  -0.599   9.822  -0.710 -0.9750 -0.2387 -1.0762
  548MOL0     H72292  -0.749  10.005  -0.729  1.1859 -1.1830 -0.4375
  548MOL0     H72293  -0.871   9.925  -0.655  0.3133  0.4789  0.8066
  548MOL0     H72294  -0.742   9.833  -0.921 -0.6790  1.0079 -0.8591
  548MOL0     H72295  -0.869   9.743  -0.847  2.0243 -0.4001  0.0685
  548MOL0     H72296  -0.979   9.880  -1.024  1.7144  0.6943 -0.8146
  548MOL0     H72297  -0.871  10.006  -0.991 -1.2802 -0.7196 -0.5525
  548MOL0     H72298  -1.209  10.144  -0.735  1.5821 -0.4687  1.3908
  548MOL0     H72299  -1.407  10.058  -0.611 -0.4067 -0.3863 -0.0446
  548MOL0     H72300  -1.782   9.873  -0.689 -3.3011 -2.3847 -0.6352
  548MOL0     H72301  -2.007   9.819  -0.612  1.9548 -0.7465 -2.2694
  548MOL0     H72302  -2.105   9.577  -0.468  0.1471  0.0988  0.2252
  548MOL0     H72303  -2.200   9.720  -0.529 -2.3910 -1.4357  1.3927
  548MOL0     H72304  -2.304   9.703  -0.289  0.0177 -1.9260  2.5185
  548MOL0     H72305  -2.203   9.564  -0.272  0.6413  3.0310  1.6069
  548MOL0     H72306  -2.328   9.459  -0.470 -0.5805 -0.3016  1.3894
  548MOL0     H72307  -2.426   9.601  -0.485  2.3128 -0.0237 -1.3540
  548MOL0     H72308  -2.392   9.400  -0.256  0.3175  0.1410  0.2373
  548MOL0     H72309  -2.495   9.533  -0.225 -0.3428 -1.3502  0.3699
  548MOL0     H72310  -2.540   9.363  -0.466  1.5772  2.3437 -0.8756
  548MOL0     H72311  -2.634   9.506  -0.412 -3.1238 -1.9316  0.2761
  548MOL0     H72312  -2.684   9.396  -0.201 -0.2127 -0.5641 -0.7752
  548MOL0     H72313  -2.617   9.248  -0.254 -1.9253 -0.7448  0.3756
  548MOL0     H72314  -2.835   9.395  -0.417 -2.5102 -0.3771  2.5504
  548MOL0     H72315  -2.735   9.272  -0.487 -1.9845  0.8837 -2.1349
  548MOL0     H72316  -2.889   9.222  -0.237  0.5538  0.0202 -0.1481
  548MOL0     H72317  -2.830   9.096  -0.342  0.1337  0.1078  2.3193
  548MOL0     H72318  -1.879   9.770  -0.210 -0.1012  0.1831  1.0796
  548MOL0     H72319  -1.645   9.832  -0.275 -0.2695 -1.5954  1.0888
  548MOL0     H72320  -1.324   9.661  -0.745 -0.6561 -0.2626  1.3864
  548MOL0     H72321  -1.103   9.746  -0.837  3.0029  3.3575 -0.2038
  548MOL0     H72322   0.379   9.938   0.240  0.9182  1.2368 -1.6818
  548MOL0     H72323   0.629   9.924   0.252  0.6092 -0.4248  1.5105
  548MOL0     H72324   1.060   9.498   0.105 -1.0562 -0.3561  0.1049
  548MOL0     H72325   1.300   9.529   0.118 -0.1228  0.5592  2.0372
  548MOL0     H72326   1.457   9.832   0.282  1.8742 -4.5799  0.2569
  548MOL0     H72327   1.470   9.946   0.142  0.2442  0.7861  1.4290
  548MOL0     H72328   1.659   9.926   0.264  4.0934  0.8550 -2.1778
  548MOL0     H72329   1.670   9.749   0.242  0.2504  0.2290 -0.6693
  548MOL0     H72330   1.700   9.987   0.060  0.7071  0.9304  2.1617
  548MOL0     H72331   1.698   9.822  -0.023  1.6079 -0.1454 -0.6076
  548MOL0     H72332   1.897   9.939   0.162  1.2513 -2.2569  2.7806
  548MOL0     H72333   1.897   9.764   0.124  3.4715  0.3309 -2.7132
  548MOL0     H72334   2.019   9.916  -0.240  0.3141  0.1959 -0.2987
  548MOL0     H72335   1.252   9.954   0.097  1.0888  0.5057 -0.7802
  548MOL0     H72336   1.015   9.930   0.082 -0.5165 -0.3671  0.3363
  549MOL0     O72337   7.085   4.630   6.540  0.7991 -0.4335  0.6077
  549MOL0     C72338   7.123   4.697   6.442  0.3047 -0.2447  0.1258
  549MOL0     O72339   7.046   4.725   6.331 -0.6341  0.4147 -0.1277
  549MOL0     C72340   6.934   4.650   6.306 -1.3145  0.1154 -0.8423
  549MOL0     C72341   6.933   4.537   6.215  0.3221 -0.3948  0.0659
  549MOL0     C72342   6.805   4.474   6.187 -1.0229 -0.4737  0.2790
  549MOL0     C72343   6.694   4.524   6.244  0.8193  0.5982  0.1663
  549MOL0     O72344   6.581   4.446   6.241 -0.0099 -0.1259 -0.3727
  549MOL0     C72345   6.461   4.514   6.198 -0.3215  0.3573  0.5004
  549MOL0     C72346   6.350   4.422   6.187  0.2627  0.4596  0.1448
  549MOL0     C72347   6.235   4.517   6.169  0.4751  0.1676 -0.3371
  549MOL0     C72348   6.103   4.441   6.170  0.5742 -0.0257 -0.4096
  549MOL0     C72349   6.099   4.361   6.032  0.6073 -0.3034 -0.1804
  549MOL0     C72350   5.966   4.298   5.988 -0.3801 -0.8567 -0.6446
  549MOL0     C72351   5.838   4.391   6.018 -0.3098  0.1597  0.4155
  549MOL0     C72352   5.723   4.303   5.977  0.7210 -0.5749  0.3972
  549MOL0     N72353   5.718   4.261   5.834  0.3583 -0.4196  0.2558
  549MOL0     C72354   5.679   4.337   5.733  0.1296  1.3100  0.7231
  549MOL0     C72355   5.702   4.254   5.624  0.3694  0.0586 -0.3586
  549MOL0     C72356   5.691   4.298   5.475 -0.3459 -0.0299  0.4853
  549MOL0     C72357   5.548   4.355   5.446 -0.8810  0.2836  0.5931
  549MOL0     C72358   5.445   4.257   5.473 -0.1705 -0.7234  0.4378
  549MOL0     C72359   5.313   4.307   5.411  0.6169  0.2058 -0.3088
  549MOL0     O72360   5.233   4.369   5.513 -0.0897  0.3894 -0.6672
  549MOL0     C72361   5.094   4.383   5.496 -0.4644  0.2744  0.1353
  549MOL0     C72362   5.021   4.423   5.608  0.0340  0.1600 -1.2632
  549MOL0     C72363   4.884   4.443   5.599 -0.2838  0.9192  0.0039
  549MOL0     C72364   4.825   4.435   5.476 -0.6901  0.1485  0.0374
  549MOL0     C72365   4.682   4.450   5.473  0.5550 -1.3788 -0.5601
  549MOL0     O72366   4.634   4.532   5.372  0.4433 -0.4312  0.2269
  549MOL0     C72367   4.509   4.592   5.380 -0.6284  0.0822  0.1185
  549MOL0     C72368   4.457   4.642   5.497  0.3185  0.2166  0.2356
  549MOL0     C72369   4.333   4.700   5.506 -0.5088  0.3079 -0.5057
  549MOL0     C72370   4.260   4.717   5.388 -0.0464 -0.2631  0.7228
  549MOL0     O72371   4.131   4.763   5.380 -0.3297 -0.1815  0.6905
  549MOL0     C72372   4.036   4.740   5.487 -0.2760  0.5033 -0.6571
  549MOL0     C72373   3.904   4.797   5.435  0.7416  0.8576  0.2813
  549MOL0     C72374   3.788   4.803   5.531  0.0363 -0.7113 -0.0540
  549MOL0     C72375   3.671   4.893   5.476  0.8148 -0.2136  0.3300
  549MOL0     C72376   3.554   4.921   5.567 -0.0857  0.5790  0.2959
  549MOL0     C72377   3.458   4.794   5.554 -0.0813  0.1901  0.3483
  549MOL0     C72378   3.351   4.829   5.664  0.2991  0.1568  0.2326
  549MOL0     C72379   3.242   4.717   5.679 -0.8268 -0.2529 -0.9130
  549MOL0    Cl72380   3.127   4.781   5.797 -0.5035 -0.2944 -0.5731
  549MOL0     C72381   4.307   4.669   5.260  0.0120 -0.5631  0.5364
  549MOL0     C72382   4.438   4.615   5.258  1.3741 -0.4495 -0.2211
  549MOL0     O72383   4.618   4.396   5.567 -0.3909 -0.4683  0.6468
  549MOL0     C72384   4.897   4.397   5.353 -0.8565 -0.6300 -0.9255
  549MOL0     C72385   5.031   4.373   5.368 -0.0375 -0.0814 -0.9006
  549MOL0     N72386   5.750   4.128   5.665 -0.6178 -0.2643 -0.5937
  549MOL0     N72387   5.760   4.138   5.794 -0.3648 -0.8620 -0.4370
  549MOL0     C72388   6.698   4.626   6.348 -0.2805 -0.9899 -0.1114
  549MOL0     C72389   6.819   4.689   6.374  0.2835  0.8726 -1.0268
  549MOL0     C72390   7.251   4.753   6.453 -0.2751 -0.0996 -0.4134
  549MOL0     C72391   7.332   4.734   6.571  1.1116  0.1001  0.2299
  549MOL0     C72392   7.462   4.767   6.565 -0.4451 -0.3058  0.0014
  549MOL0     C72393   7.520   4.829   6.453  1.4234 -0.2774  0.2303
  549MOL0     O72394   7.650   4.861   6.466 -0.2487  0.4853 -0.8584
  549MOL0     C72395   7.726   4.895   6.349 -0.4927  0.4764 -0.0832
  549MOL0     C72396   7.864   4.875   6.375 -0.9084 -0.2458  0.1664
  549MOL0     C72397   7.937   5.010   6.398  0.2244 -0.2583 -0.4099
  549MOL0     C72398   8.073   5.007   6.458 -0.4269 -0.1893 -0.0033
  549MOL0     C72399   8.180   4.917   6.406  0.5222  0.2295  0.3592
  549MOL0     C72400   8.275   4.844   6.369 -0.8109 -0.3995  0.0095
  549MOL0     C72401   7.442   4.860   6.348 -0.5763 -0.0394  0.2834
  549MOL0     C72402   7.310   4.826   6.351  0.7612  0.4815  0.0707
  549MOL0     H72403   7.014   4.521   6.145  0.0493 -1.1398 -0.0858
  549MOL0     H72404   6.799   4.393   6.116  0.7412 -0.7604  0.3903
  549MOL0     H72405   6.481   4.551   6.096 -2.2164 -2.6452 -1.0928
  549MOL0     H72406   6.436   4.603   6.257 -1.8215  2.0470 -2.4361
  549MOL0     H72407   6.347   4.359   6.276  1.8645  1.5842  1.0502
  549MOL0     H72408   6.363   4.363   6.096  0.1248  1.3758 -0.4888
  549MOL0     H72409   6.257   4.576   6.080 -3.0603  2.7072  0.2758
  549MOL0     H72410   6.227   4.586   6.253 -1.1749  0.9913 -1.1177
  549MOL0     H72411   6.089   4.380   6.260  2.4001  1.0482  0.6745
  549MOL0     H72412   6.020   4.512   6.164  0.5318 -0.0838 -0.4975
  549MOL0     H72413   6.169   4.277   6.035 -0.8267 -1.5766 -0.7107
  549MOL0     H72414   6.131   4.435   5.959 -1.2986 -0.1869 -0.9466
  549MOL0     H72415   5.952   4.203   6.039  1.3926 -0.4013  0.7631
  549MOL0     H72416   5.972   4.285   5.879 -2.2663 -2.8344 -0.5660
  549MOL0     H72417   5.824   4.418   6.123 -1.3961 -2.5516  1.0707
  549MOL0     H72418   5.841   4.476   5.949 -0.2543 -1.0204 -1.1095
  549MOL0     H72419   5.628   4.355   5.996 -0.5071 -3.0341  1.4337
  549MOL0     H72420   5.722   4.208   6.032  0.2674 -1.3047 -0.8352
  549MOL0     H72421   5.644   4.439   5.743 -2.8448  0.4529 -0.0344
  549MOL0     H72422   5.709   4.218   5.403  2.2904  1.7299 -1.0071
  549MOL0     H72423   5.770   4.373   5.459  1.7622 -1.8296  1.8128
  549MOL0     H72424   5.543   4.377   5.339  0.9702 -1.0138  0.1905
  549MOL0     H72425   5.537   4.446   5.506  0.6363  1.4818 -0.8277
  549MOL0     H72426   5.474   4.162   5.427  2.1630  0.4427 -0.6817
  549MOL0     H72427   5.418   4.244   5.579 -1.4446  1.1077  0.3831
  549MOL0     H72428   5.255   4.220   5.381 -3.9295  2.8228 -0.1280
  549MOL0     H72429   5.325   4.364   5.318 -0.3696  2.3259  0.7703
  549MOL0     H72430   5.073   4.441   5.701 -1.0636  1.6222 -0.9067
  549MOL0     H72431   4.830   4.452   5.692 -0.2879  1.1488 -0.0215
  549MOL0     H72432   4.497   4.622   5.596 -3.1041 -2.5793  1.2662
  549MOL0     H72433   4.301   4.725   5.606  1.7572  0.7116  0.1832
  549MOL0     H72434   4.071   4.791   5.577 -0.6875  0.4765 -0.4807
  549MOL0     H72435   4.026   4.635   5.515  1.1398  0.8062  1.1625
  549MOL0     H72436   3.872   4.736   5.349  2.2045 -0.1491  0.4130
  549MOL0     H72437   3.925   4.897   5.397  0.2611  0.5378 -0.8698
  549MOL0     H72438   3.835   4.845   5.620  2.7053 -1.4046 -1.0423
  549MOL0     H72439   3.747   4.705   5.558 -4.0167  0.6790 -0.3826
  549MOL0     H72440   3.716   4.989   5.447 -0.1521 -0.6506 -2.9330
  549MOL0     H72441   3.631   4.855   5.382 -2.0037 -1.9316  2.0651
  549MOL0     H72442   3.501   5.007   5.526  0.0716  1.2618  1.4822
  549MOL0     H72443   3.588   4.936   5.670 -0.5130 -0.6667  0.6381
  549MOL0     H72444   3.517   4.703   5.568  0.6048  0.7212  1.0285
  549MOL0     H72445   3.419   4.791   5.452  4.8533  0.6805 -1.8509
  549MOL0     H72446   3.399   4.847   5.760  0.5804 -1.5792  0.4597
  549MOL0     H72447   3.303   4.922   5.633 -1.0429 -0.1384  1.3208
  549MOL0     H72448   3.292   4.628   5.717  1.5250  1.7750  1.0860
  549MOL0     H72449   3.197   4.696   5.581 -0.5638  2.5290 -1.7276
  549MOL0     H72450   4.238   4.679   5.177  1.4747  0.1968 -0.6362
  549MOL0     H72451   4.479   4.579   5.164 -0.7095 -1.8209 -0.6629
  549MOL0     H72452   4.858   4.379   5.254 -0.3559  0.9994 -1.4482
  549MOL0     H72453   5.095   4.349   5.284  0.5992  1.6364 -0.9429
  549MOL0     H72454   6.609   4.663   6.398  0.9141  3.3333 -0.7351
  549MOL0     H72455   6.832   4.777   6.435  2.0001 -0.4293  0.5938
  549MOL0     H72456   7.286   4.688   6.658 -1.1838  2.9095  0.6508
  549MOL0     H72457   7.527   4.747   6.649 -1.3031 -2.9979  0.1104
  549MOL0     H72458   7.692   4.996   6.321  0.1464  0.4898 -0.8524
  549MOL0     H72459   7.697   4.833   6.263  4.2020  0.4310 -1.9291
  549MOL0     H72460   7.879   4.814   6.465  0.4998  1.0507  0.8688
  549MOL0     H72461   7.916   4.816   6.299 -0.5852  1.1633 -0.7404
  549MOL0     H72462   7.878   5.074   6.465 -0.0214  0.6505 -1.4606
  549MOL0     H72463   7.947   5.069   6.307  0.9531  2.1596  1.1147
  549MOL0     H72464   8.118   5.106   6.447 -3.0057  1.1276  0.4868
  549MOL0     H72465   8.061   5.000   6.567 -1.5194 -0.7924 -0.1604
  549MOL0     H72466   8.366   4.799   6.333 -0.3892 -1.3870  2.1204
  549MOL0     H72467   7.463   4.932   6.270  2.1220 -0.0290  0.9407
  549MOL0     H72468   7.243   4.863   6.274 -2.5012  0.2364  2.5932
  550MOL0     O72469  10.178   3.157  10.109  0.2328  0.1545 -0.1067
  550MOL0     C72470  10.125   3.047  10.119  0.2666  0.1946  0.1278
  550MOL0     O72471   9.991   3.023  10.120  0.2713  0.7985  0.4272
  550MOL0     C72472   9.907   3.134  10.083 -0.4521 -0.5702  0.4917
  550MOL0     C72473   9.847   3.238  10.155 -0.5631 -0.7077 -0.2221
  550MOL0     C72474   9.766   3.330  10.090  0.5692 -1.1202  0.2761
  550MOL0     C72475   9.739   3.319   9.947  0.2076 -1.1960 -0.3159
  550MOL0     O72476   9.651   3.421   9.903 -0.3631  0.5424  0.0013
  550MOL0     C72477   9.606   3.422   9.765 -0.8640  0.0554 -0.5207
  550MOL0     C72478   9.492   3.325   9.732 -0.1045 -0.1462  0.2097
  550MOL0     C72479   9.346   3.373   9.767 -0.1744  0.4669  0.3215
  550MOL0     C72480   9.241   3.269   9.766 -0.5442 -0.1121 -0.3336
  550MOL0     C72481   9.111   3.299   9.843  0.0716 -0.2175  0.2503
  550MOL0     C72482   9.055   3.441   9.817 -0.1612 -0.5340  0.0944
  550MOL0     C72483   8.904   3.465   9.841 -0.4848 -0.2811  0.5787
  550MOL0     C72484   8.829   3.441   9.714  0.0310 -0.4191  0.1434
  550MOL0     N72485   8.692   3.461   9.756  0.0560  0.4949 -0.6549
  550MOL0     C72486   8.631   3.578   9.785 -0.0033  0.1844 -0.6039
  550MOL0     C72487   8.505   3.544   9.816 -0.6775  1.0098  0.5233
  550MOL0     C72488   8.397   3.624   9.864  0.9961 -0.3353 -0.0545
  550MOL0     C72489   8.285   3.645   9.761  0.1289 -0.7453  0.2578
  550MOL0     C72490   8.205   3.768   9.786  0.0639 -0.5347  0.6963
  550MOL0     C72491   8.084   3.800   9.695  0.7098 -0.0347  0.6560
  550MOL0     O72492   7.973   3.699   9.698 -0.2195  0.1739  0.1239
  550MOL0     C72493   7.851   3.728   9.635 -0.2732 -0.4867 -0.1890
  550MOL0     C72494   7.742   3.647   9.663 -0.8423 -0.1025 -0.0173
  550MOL0     C72495   7.618   3.677   9.623 -0.5757  0.1435 -0.2798
  550MOL0     C72496   7.589   3.784   9.542 -0.0777 -0.3697 -0.2028
  550MOL0     C72497   7.447   3.812   9.490 -0.8503  0.4753 -0.0284
  550MOL0     O72498   7.343   3.746   9.545  0.2338  0.2584  0.1090
  550MOL0     C72499   7.223   3.808   9.539 -0.1398  0.0470 -0.2408
  550MOL0     C72500   7.127   3.732   9.459  0.1822 -0.2023 -0.2760
  550MOL0     C72501   6.989   3.783   9.461  0.0782 -0.4074 -0.2344
  550MOL0     C72502   6.948   3.882   9.540  0.0805 -0.3847 -0.3516
  550MOL0     O72503   6.820   3.925   9.558 -0.0933 -0.0514 -0.0137
  550MOL0     C72504   6.729   3.893   9.452 -0.5986  0.3208  0.1463
  550MOL0     C72505   6.616   3.995   9.447  0.1339  0.1112  0.5982
  550MOL0     C72506   6.509   3.930   9.357  0.8044  0.0442 -0.2569
  550MOL0     C72507   6.374   4.010   9.345 -0.4720 -0.1301 -0.3288
  550MOL0     C72508   6.265   3.939   9.247  0.2418 -0.6187 -0.3947
  550MOL0     C72509   6.172   3.835   9.324 -0.5074  0.2950  1.1004
  550MOL0     C72510   6.064   3.808   9.217 -0.1883 -0.7522  0.6396
  550MOL0     C72511   5.925   3.827   9.247 -0.0953  0.1245 -0.4272
  550MOL0    Cl72512   5.890   4.000   9.236  0.0815  0.0467  0.1114
  550MOL0     C72513   7.048   3.938   9.628  0.7985 -0.5156  0.3881
  550MOL0     C72514   7.184   3.912   9.626  0.1737 -0.4265  0.0641
  550MOL0     O72515   7.448   3.895   9.399 -0.6160  0.1062  0.1811
  550MOL0     C72516   7.697   3.874   9.515 -0.4333 -0.8948 -0.0508
  550MOL0     C72517   7.827   3.841   9.560  0.0641 -0.1270  0.2879
  550MOL0     N72518   8.485   3.403   9.796 -0.6049 -0.4646  0.2373
  550MOL0     N72519   8.601   3.357   9.762  0.1972 -0.3751 -0.8803
  550MOL0     C72520   9.810   3.218   9.868  0.3128 -0.0121 -0.9273
  550MOL0     C72521   9.884   3.130   9.939 -1.1436  0.0125 -1.0886
  550MOL0     C72522  10.211   2.936  10.127 -0.6098 -0.2269  0.4279
  550MOL0     C72523  10.162   2.809  10.160  0.2837  0.1509 -0.9585
  550MOL0     C72524  10.241   2.697  10.176 -0.2650  1.4683  0.3769
  550MOL0     C72525  10.382   2.706  10.167 -0.1622 -0.3698 -0.6920
  550MOL0     O72526  10.449   2.593  10.198 -0.3432  0.3853 -0.0987
  550MOL0     C72527  10.589   2.584  10.171  0.1080 -0.1902 -0.3566
  550MOL0     C72528  10.652   2.447  10.167 -1.0674 -0.1432  0.0397
  550MOL0     C72529  10.635   2.373  10.301  0.9518  0.8393  0.3559
  550MOL0     C72530  10.709   2.439  10.424  0.1067  0.0614  0.7826
  550MOL0     C72531  10.849   2.454  10.389  0.6823 -1.0581 -0.5803
  550MOL0     C72532  10.963   2.469  10.364 -0.9678 -0.6338 -1.1985
  550MOL0     C72533  10.437   2.832  10.133 -0.2431 -0.4153 -0.1753
  550MOL0     C72534  10.358   2.946  10.103  0.5444 -0.1342  0.1151
  550MOL0     H72535   9.863   3.254  10.262  0.0998 -0.8838 -0.2908
  550MOL0     H72536   9.737   3.423  10.137  2.0922  1.2761 -3.0872
  550MOL0     H72537   9.693   3.404   9.701  0.0208  0.7346  0.4349
  550MOL0     H72538   9.579   3.527   9.749  1.5973  1.1535  1.7715
  550MOL0     H72539   9.507   3.230   9.785 -2.2277 -0.4044  0.4169
  550MOL0     H72540   9.487   3.313   9.624  1.1621 -0.4470  0.1660
  550MOL0     H72541   9.318   3.455   9.700 -0.4503  0.2552  0.1787
  550MOL0     H72542   9.350   3.411   9.870 -0.5079  0.1472  0.4560
  550MOL0     H72543   9.221   3.252   9.660  1.2552 -4.7690 -0.1514
  550MOL0     H72544   9.272   3.174   9.811  1.2053 -0.3491 -1.9365
  550MOL0     H72545   9.140   3.298   9.949  0.8743  0.5734  0.0553
  550MOL0     H72546   9.030   3.229   9.825 -0.2087  0.2507 -0.3484
  550MOL0     H72547   9.086   3.457   9.714  1.6698 -0.3505  0.6360
  550MOL0     H72548   9.102   3.518   9.878 -1.0991 -0.2099  0.4291
  550MOL0     H72549   8.867   3.407   9.927 -0.5384 -2.0674 -0.6007
  550MOL0     H72550   8.905   3.571   9.869 -0.0367  1.4001 -4.7770
  550MOL0     H72551   8.847   3.340   9.677 -2.8811 -0.5222 -1.2844
  550MOL0     H72552   8.854   3.511   9.634  1.1631 -1.0226 -0.0469
  550MOL0     H72553   8.672   3.679   9.787 -0.7834  0.5092  0.9795
  550MOL0     H72554   8.434   3.719   9.903 -2.9328  0.9791  0.9227
  550MOL0     H72555   8.355   3.573   9.952 -2.9926  2.4295 -0.0984
  550MOL0     H72556   8.216   3.559   9.760 -0.5515 -0.1996 -0.4450
  550MOL0     H72557   8.337   3.653   9.665 -1.0707  2.2529 -0.2445
  550MOL0     H72558   8.180   3.762   9.892 -0.9150  1.1052  0.5902
  550MOL0     H72559   8.272   3.855   9.779  0.1505 -0.6766 -0.6864
  550MOL0     H72560   8.121   3.806   9.593  2.4352 -0.7589  1.1921
  550MOL0     H72561   8.036   3.893   9.725 -1.2014 -0.0847 -1.9398
  550MOL0     H72562   7.778   3.560   9.718  3.0951  0.1955 -1.8160
  550MOL0     H72563   7.539   3.604   9.635  1.5797 -1.9714  2.1956
  550MOL0     H72564   7.163   3.645   9.405  1.1370  1.6097 -2.7982
  550MOL0     H72565   6.906   3.736   9.411  0.0656 -0.1699 -0.4375
  550MOL0     H72566   6.707   3.788   9.474  3.1765 -0.2687  1.8767
  550MOL0     H72567   6.779   3.901   9.355  3.8168  0.5099  2.1951
  550MOL0     H72568   6.650   4.091   9.407  0.5260 -0.8806 -1.6013
  550MOL0     H72569   6.574   4.008   9.547 -2.3720  1.4607 -0.5327
  550MOL0     H72570   6.482   3.832   9.397 -0.7299 -0.1432 -1.6923
  550MOL0     H72571   6.553   3.918   9.257  0.5589 -2.4202 -0.1220
  550MOL0     H72572   6.330   4.028   9.444  1.5949 -1.6426  0.9556
  550MOL0     H72573   6.399   4.111   9.311  1.7000 -0.4031  0.2602
  550MOL0     H72574   6.320   3.894   9.163  2.6272  3.0721 -1.0776
  550MOL0     H72575   6.206   4.019   9.201  0.0809 -0.4778  0.0608
  550MOL0     H72576   6.141   3.879   9.420 -0.4495  0.4045  1.0686
  550MOL0     H72577   6.222   3.744   9.359  0.0964  0.2472  0.1234
  550MOL0     H72578   6.077   3.873   9.130 -3.1230 -1.0450 -0.1485
  550MOL0     H72579   6.077   3.706   9.181  0.1866 -0.1774 -0.9391
  550MOL0     H72580   5.903   3.798   9.351 -2.0750 -0.8515 -1.0748
  550MOL0     H72581   5.862   3.770   9.179  0.1541 -2.1695  1.1461
  550MOL0     H72582   7.015   4.011   9.702 -0.3710 -1.1268  0.5002
  550MOL0     H72583   7.257   3.969   9.683  0.9059 -1.1669 -0.1183
  550MOL0     H72584   7.680   3.959   9.449  0.0888 -1.4014 -0.8504
  550MOL0     H72585   7.908   3.911   9.542 -0.8517  0.8126 -0.2689
  550MOL0     H72586   9.794   3.216   9.761 -2.0256  0.8956 -0.6510
  550MOL0     H72587   9.942   3.052   9.890 -2.7831 -2.7001  1.0084
  550MOL0     H72588  10.055   2.795  10.159  0.4062 -1.1617  0.2247
  550MOL0     H72589  10.199   2.598  10.190  2.5443 -0.3939 -2.9694
  550MOL0     H72590  10.632   2.646  10.250 -2.5661 -0.5603  1.5335
  550MOL0     H72591  10.610   2.623  10.071 -0.7596  1.4046  0.0525
  550MOL0     H72592  10.610   2.388  10.085  1.3733  0.2141 -1.5758
  550MOL0     H72593  10.759   2.452  10.145 -1.0562  1.9969  0.3735
  550MOL0     H72594  10.680   2.275  10.283  2.5373  1.2281  1.8600
  550MOL0     H72595  10.529   2.368  10.327  0.4008 -1.6166 -1.9491
  550MOL0     H72596  10.669   2.536  10.453 -0.1305 -0.2327  1.4592
  550MOL0     H72597  10.697   2.373  10.511 -1.1896 -1.0387 -0.1889
  550MOL0     H72598  11.065   2.487  10.340  0.3000 -4.5193  0.5189
  550MOL0     H72599  10.544   2.846  10.135 -0.1667 -0.9026 -0.5651
  550MOL0     H72600  10.411   3.036  10.074  0.5204 -0.7643 -2.0880
  551MOL0     O72601   7.791   1.832   9.908  0.7133 -0.1126 -0.3072
  551MOL0     C72602   7.770   1.915   9.823  0.1843 -0.1121  0.7519
  551MOL0     O72603   7.664   2.001   9.821  0.9137 -0.8060  1.1331
  551MOL0     C72604   7.562   1.998   9.914  0.0611  0.5908 -0.0889
  551MOL0     C72605   7.506   2.120   9.950 -0.0437 -0.1391 -0.0828
  551MOL0     C72606   7.395   2.135  10.031 -0.4486  0.6409 -0.3272
  551MOL0     C72607   7.336   2.024  10.087  0.1708 -0.3522 -0.1515
  551MOL0     O72608   7.219   2.038  10.148  0.1327 -0.0505 -0.9035
  551MOL0     C72609   7.137   1.917  10.147  0.7704 -0.7734  0.2277
  551MOL0     C72610   7.008   1.956  10.215  0.1192  0.7754  0.6701
  551MOL0     C72611   6.914   1.833  10.228 -0.7283 -0.7812 -1.0919
  551MOL0     C72612   6.800   1.866  10.326  0.9983  0.9396  0.2092
  551MOL0     C72613   6.684   1.769  10.316  0.4321 -0.5517  0.1916
  551MOL0     C72614   6.559   1.803  10.391  0.5847 -0.3635  0.3679
  551MOL0     C72615   6.431   1.720  10.352 -0.5743  0.2170 -0.5104
  551MOL0     C72616   6.428   1.571  10.383  0.3481  0.2585  0.0031
  551MOL0     N72617   6.295   1.519  10.344  0.2045  0.8025 -0.1091
  551MOL0     C72618   6.267   1.446  10.232  0.6699 -0.6454 -0.3676
  551MOL0     C72619   6.151   1.376  10.264  0.3403  0.3081  0.5317
  551MOL0     C72620   6.069   1.281  10.188 -0.8829 -0.0210 -0.3452
  551MOL0     C72621   6.164   1.177  10.109  0.8788 -0.8162 -0.7913
  551MOL0     C72622   6.110   1.041  10.087 -0.5845 -0.1154 -0.0343
  551MOL0     C72623   5.987   1.034   9.993  0.4206 -0.2387  0.0131
  551MOL0     O72624   5.944   0.900   9.978 -0.4870  0.2851  0.5416
  551MOL0     C72625   5.832   0.872   9.906 -0.2568  0.9003 -0.4160
  551MOL0     C72626   5.754   0.968   9.851 -0.5816 -0.3490  0.0861
  551MOL0     C72627   5.643   0.927   9.775  0.9688  0.3422  0.1360
  551MOL0     C72628   5.598   0.797   9.766  0.7914 -0.2493 -0.4525
  551MOL0     C72629   5.467   0.754   9.714 -0.5396  0.1028 -0.7257
  551MOL0     O72630   5.397   0.854   9.656  0.8047 -0.0791  0.3667
  551MOL0     C72631   5.270   0.844   9.600 -1.4870 -0.3177 -0.8564
  551MOL0     C72632   5.228   0.737   9.530  1.1931  0.7361 -0.0166
  551MOL0     C72633   5.096   0.737   9.482 -0.4802 -0.1524 -0.5858
  551MOL0     C72634   5.014   0.843   9.498 -1.0878 -0.1021  0.0383
  551MOL0     O72635   4.887   0.831   9.453 -0.4205  0.2354  0.4707
  551MOL0     C72636   4.776   0.812   9.534  0.1289  0.9391 -0.1699
  551MOL0     C72637   4.659   0.751   9.451 -0.3283 -0.1162  0.5422
  551MOL0     C72638   4.534   0.719   9.535  0.1932 -0.3934  0.1164
  551MOL0     C72639   4.440   0.628   9.457 -0.9995 -0.9649  0.3719
  551MOL0     C72640   4.304   0.609   9.527  0.3882 -0.2337  0.9103
  551MOL0     C72641   4.208   0.719   9.491 -0.4363  0.2460  0.5881
  551MOL0     C72642   4.084   0.717   9.579 -0.3334  0.4649  0.0716
  551MOL0     C72643   4.002   0.588   9.601  0.0033 -0.1270  1.4659
  551MOL0    Cl72644   3.946   0.509   9.444  0.4119 -0.6105  0.9844
  551MOL0     C72645   5.059   0.962   9.567 -0.2549  0.6572  0.9611
  551MOL0     C72646   5.182   0.955   9.627 -0.1894 -0.3634 -1.2537
  551MOL0     O72647   5.429   0.639   9.734 -0.4659 -0.2867 -0.1397
  551MOL0     C72648   5.687   0.700   9.810 -0.2009  0.6494 -0.5456
  551MOL0     C72649   5.806   0.742   9.885  0.1376  0.0797  0.7686
  551MOL0     N72650   6.124   1.411  10.394  0.1916 -0.4329 -0.0139
  551MOL0     N72651   6.203   1.502  10.439  0.4622  0.0934  0.3069
  551MOL0     C72652   7.401   1.896  10.067  0.5840  0.6879  0.3972
  551MOL0     C72653   7.504   1.881   9.966 -0.1654  0.4341 -0.5811
  551MOL0     C72654   7.857   1.910   9.701  0.9856 -0.3075 -0.4631
  551MOL0     C72655   7.840   1.987   9.585 -0.2330  0.4820 -0.0490
  551MOL0     C72656   7.924   1.978   9.473 -0.1242  0.7558 -0.5394
  551MOL0     C72657   8.031   1.883   9.484 -0.4195 -0.7383  0.6483
  551MOL0     O72658   8.129   1.857   9.387 -0.5677  0.2799  0.0499
  551MOL0     C72659   8.217   1.961   9.344  0.9125  0.4031  0.4154
  551MOL0     C72660   8.360   1.888   9.329  0.1678 -0.2940 -0.0727
  551MOL0     C72661   8.457   1.966   9.247 -0.9261 -1.2720 -0.2333
  551MOL0     C72662   8.605   1.929   9.242  0.0377  0.5177  0.0288
  551MOL0     C72663   8.672   1.968   9.118 -0.3482 -0.1238  0.1189
  551MOL0     C72664   8.727   2.002   9.014  0.2854  0.7207  0.0964
  551MOL0     C72665   8.040   1.801   9.594  1.1315 -0.1009  0.1622
  551MOL0     C72666   7.954   1.813   9.695 -0.5377  0.2002  0.2189
  551MOL0     H72667   7.528   2.217   9.907  0.4022 -0.1743  0.0588
  551MOL0     H72668   7.352   2.229  10.063 -0.4554 -0.0340  1.7896
  551MOL0     H72669   7.182   1.841  10.211 -1.0134 -2.6815 -0.6679
  551MOL0     H72670   7.116   1.868  10.051  0.9916 -2.8469  1.1801
  551MOL0     H72671   6.951   2.028  10.156 -1.9449 -0.2377  1.3472
  551MOL0     H72672   7.033   1.997  10.314  1.1208  0.9508  0.3571
  551MOL0     H72673   6.966   1.750  10.276 -0.1592  1.2701  2.1987
  551MOL0     H72674   6.879   1.796  10.132 -0.2755 -2.2353 -0.7139
  551MOL0     H72675   6.836   1.875  10.429 -0.4952  2.0507  0.6671
  551MOL0     H72676   6.773   1.968  10.297  0.5056  0.3031 -1.6843
  551MOL0     H72677   6.710   1.669  10.353 -1.7905 -1.1741  0.2118
  551MOL0     H72678   6.650   1.768  10.212  0.3675 -1.7033  0.2126
  551MOL0     H72679   6.542   1.910  10.375 -1.8275 -0.3754  2.3645
  551MOL0     H72680   6.571   1.796  10.499  0.0450  1.8254  0.6216
  551MOL0     H72681   6.351   1.770  10.406  1.3677  2.4768  0.4549
  551MOL0     H72682   6.399   1.736  10.248  0.4485  2.0949 -0.5771
  551MOL0     H72683   6.452   1.544  10.487 -1.2798  1.8248  0.8267
  551MOL0     H72684   6.513   1.525  10.332  2.7184  0.3428  3.5393
  551MOL0     H72685   6.324   1.436  10.140  0.7819 -1.5046 -0.2072
  551MOL0     H72686   6.004   1.334  10.119 -1.6342 -1.8996 -1.1550
  551MOL0     H72687   5.999   1.232  10.257  1.1717 -1.2280  1.0052
  551MOL0     H72688   6.256   1.154  10.164 -0.6842 -2.9596  1.1203
  551MOL0     H72689   6.193   1.237  10.023  1.2666 -0.7513 -0.6188
  551MOL0     H72690   6.183   0.971  10.043 -0.6399 -2.4549  3.2237
  551MOL0     H72691   6.082   1.003  10.185 -1.4486 -0.9886 -0.6051
  551MOL0     H72692   6.011   1.078   9.896 -1.0484  1.4383  0.3582
  551MOL0     H72693   5.905   1.094  10.034 -0.2277 -0.5480 -0.8105
  551MOL0     H72694   5.792   1.069   9.854 -3.7983  0.9925  0.2261
  551MOL0     H72695   5.579   1.001   9.728  1.0439  0.2948 -0.0424
  551MOL0     H72696   5.272   0.638   9.539  2.9551  1.6185  2.0129
  551MOL0     H72697   5.058   0.653   9.426  2.7364 -0.0636 -3.1894
  551MOL0     H72698   4.739   0.910   9.565 -1.3035  1.2679 -2.6496
  551MOL0     H72699   4.796   0.745   9.618 -0.8384  0.8248 -0.0235
  551MOL0     H72700   4.696   0.659   9.405 -1.0325 -0.0741 -0.1407
  551MOL0     H72701   4.633   0.813   9.364  2.5238 -4.7719 -4.2013
  551MOL0     H72702   4.488   0.814   9.565  0.2116 -0.5486  0.6323
  551MOL0     H72703   4.563   0.664   9.625  1.4000 -2.0366 -1.2103
  551MOL0     H72704   4.424   0.679   9.362 -1.0080 -1.2163  0.2362
  551MOL0     H72705   4.494   0.535   9.438 -2.1103 -1.5337 -0.0814
  551MOL0     H72706   4.319   0.606   9.635  3.5961 -0.5114  0.5510
  551MOL0     H72707   4.269   0.514   9.487  2.1538 -0.2506 -0.7284
  551MOL0     H72708   4.178   0.698   9.388 -1.9628  0.3274  1.0035
  551MOL0     H72709   4.264   0.814   9.490  0.5931 -0.2601  2.8528
  551MOL0     H72710   4.130   0.747   9.673  0.6857 -0.3931 -0.1313
  551MOL0     H72711   4.015   0.792   9.540 -0.7990 -0.1286 -0.2767
  551MOL0     H72712   3.914   0.609   9.663 -1.3574  0.6845 -0.6473
  551MOL0     H72713   4.071   0.523   9.656 -1.7659 -1.9684  1.5824
  551MOL0     H72714   4.991   1.047   9.575 -0.2043  0.7501  0.4330
  551MOL0     H72715   5.220   1.049   9.668 -1.2191  0.1156 -1.3691
  551MOL0     H72716   5.662   0.595   9.804  4.1084 -0.8590  2.8848
  551MOL0     H72717   5.866   0.659   9.920 -2.9720 -2.8485 -0.3195
  551MOL0     H72718   7.357   1.818  10.129 -4.1799  3.3972  0.9426
  551MOL0     H72719   7.543   1.791   9.920 -0.3462  0.6978 -1.2681
  551MOL0     H72720   7.758   2.057   9.578 -3.4127 -2.9766 -0.2829
  551MOL0     H72721   7.919   2.052   9.394  1.5173  0.0983 -1.2966
  551MOL0     H72722   8.207   2.046   9.413 -0.1704  1.7716 -1.3096
  551MOL0     H72723   8.179   2.000   9.249  1.5041 -0.5661 -0.2233
  551MOL0     H72724   8.397   1.866   9.429 -0.0386 -2.3439 -0.4169
  551MOL0     H72725   8.350   1.796   9.272  0.5455 -0.3196 -0.1012
  551MOL0     H72726   8.465   2.069   9.283  2.4508 -1.5183  0.0352
  551MOL0     H72727   8.417   1.969   9.146 -1.9327  2.2148  0.1378
  551MOL0     H72728   8.658   1.974   9.326  1.0995  2.1338 -1.4186
  551MOL0     H72729   8.625   1.822   9.251 -0.0830  0.4227 -0.7698
  551MOL0     H72730   8.772   2.028   8.920 -2.5434 -0.3391 -1.7011
  551MOL0     H72731   8.116   1.724   9.600  0.8309 -0.6948 -2.4507
  551MOL0     H72732   7.967   1.745   9.779  1.7023  1.0488  0.6360
  552MOL0     O72733   2.284   2.311   3.840 -0.3287  0.8062  0.7059
  552MOL0     C72734   2.332   2.245   3.930  0.1009  0.4038  0.1104
  552MOL0     O72735   2.283   2.139   3.997  0.3513  0.2172  0.8157
  552MOL0     C72736   2.156   2.084   3.987 -0.1692  0.5694 -1.0660
  552MOL0     C72737   2.057   2.117   3.895  0.4635 -0.1343 -0.1482
  552MOL0     C72738   1.938   2.053   3.892 -0.1244 -0.3092 -0.3170
  552MOL0     C72739   1.920   1.937   3.974 -0.5276 -0.3362 -0.5486
  552MOL0     O72740   1.810   1.855   3.980 -0.7841 -1.3678 -0.5986
  552MOL0     C72741   1.702   1.892   3.888 -0.3468 -0.4404  0.7633
  552MOL0     C72742   1.614   1.774   3.883  0.5042  0.3266  0.3297
  552MOL0     C72743   1.484   1.797   3.810 -0.9322 -1.4153  0.2460
  552MOL0     C72744   1.412   1.668   3.791  0.6190 -0.0453 -0.0692
  552MOL0     C72745   1.277   1.702   3.759  0.2103 -1.1101  0.3489
  552MOL0     C72746   1.208   1.583   3.700  0.4812  0.6212 -0.4247
  552MOL0     C72747   1.056   1.610   3.704  0.6287  0.0126 -0.3039
  552MOL0     C72748   1.006   1.583   3.848  0.9436 -0.3089  1.0500
  552MOL0     N72749   0.856   1.626   3.847 -0.3886 -0.1888 -0.2337
  552MOL0     C72750   0.815   1.757   3.887 -1.0856  0.0022 -0.2358
  552MOL0     C72751   0.690   1.732   3.929 -0.0888  0.4571 -0.6091
  552MOL0     C72752   0.602   1.837   3.996  0.2351  0.2333  0.7220
  552MOL0     C72753   0.463   1.839   3.944 -0.3457 -0.4353 -0.2024
  552MOL0     C72754   0.361   1.760   4.027  0.2732  0.3329 -0.0608
  552MOL0     C72755   0.382   1.607   4.016  0.6678 -0.6586  0.3731
  552MOL0     O72756   0.268   1.537   4.066 -0.5989 -0.2603 -0.0252
  552MOL0     C72757   0.153   1.536   4.001 -0.6110  0.7493  0.2986
  552MOL0     C72758   0.054   1.454   4.055 -0.6274  0.5618 -0.2152
  552MOL0     C72759  -0.067   1.439   3.996  0.1830 -0.4921 -0.0273
  552MOL0     C72760  -0.107   1.519   3.884 -0.1265  0.6195 -1.1010
  552MOL0     C72761  -0.254   1.522   3.829  0.3310  0.7571  0.0579
  552MOL0     O72762  -0.335   1.407   3.857 -0.8754 -0.7004  0.5408
  552MOL0     C72763  -0.464   1.415   3.817  0.0446 -0.0727  0.4749
  552MOL0     C72764  -0.541   1.521   3.850  0.3443 -0.2468 -0.6526
  552MOL0     C72765  -0.679   1.520   3.825  1.1073 -0.4503  0.0653
  552MOL0     C72766  -0.739   1.421   3.756  0.2541  0.3686  0.9349
  552MOL0     O72767  -0.869   1.436   3.720  0.4235  0.6439 -0.7277
  552MOL0     C72768  -0.942   1.315   3.726 -0.7394 -0.2549 -0.4522
  552MOL0     C72769  -1.086   1.357   3.750  0.3381  0.1648 -0.4163
  552MOL0     C72770  -1.140   1.381   3.611 -0.0596  0.6035 -0.4190
  552MOL0     C72771  -1.293   1.387   3.622 -0.3526 -1.0177  0.2734
  552MOL0     C72772  -1.352   1.400   3.479  0.5885 -0.2014 -0.3861
  552MOL0     C72773  -1.498   1.369   3.480 -1.2067 -0.5383 -0.4460
  552MOL0     C72774  -1.541   1.376   3.334 -0.7929 -0.0184  0.4828
  552MOL0     C72775  -1.693   1.367   3.314 -0.1767 -0.2597  0.0074
  552MOL0    Cl72776  -1.749   1.200   3.352 -0.1159  0.1832  0.2361
  552MOL0     C72777  -0.665   1.311   3.720 -0.1457  0.6172 -0.4926
  552MOL0     C72778  -0.529   1.310   3.758 -0.1459  0.3030 -0.5278
  552MOL0     O72779  -0.291   1.620   3.765  0.6439 -0.0090  1.0063
  552MOL0     C72780  -0.012   1.602   3.831  0.4869 -0.3590  0.3748
  552MOL0     C72781   0.120   1.606   3.886  0.0284  0.0034  0.3706
  552MOL0     N72782   0.656   1.606   3.898  0.0715  0.3548 -0.0028
  552MOL0     N72783   0.751   1.540   3.849 -1.2203  0.5632 -0.7760
  552MOL0     C72784   2.021   1.886   4.059  0.0419  0.0253  0.3023
  552MOL0     C72785   2.139   1.961   4.060 -0.4783 -0.1123 -0.4076
  552MOL0     C72786   2.454   2.289   3.998 -0.5042 -0.7769 -0.0977
  552MOL0     C72787   2.505   2.416   3.953  0.4293 -0.0134 -0.1789
  552MOL0     C72788   2.611   2.474   4.015  0.4813  0.3312 -0.1547
  552MOL0     C72789   2.671   2.409   4.125 -0.2015 -0.2526 -0.3763
  552MOL0     O72790   2.784   2.460   4.187  0.3415  0.3329  0.1348
  552MOL0     C72791   2.804   2.595   4.177 -0.1566  0.3363  0.2341
  552MOL0     C72792   2.907   2.655   4.274 -0.3628  0.5242  1.1493
  552MOL0     C72793   2.841   2.652   4.409 -0.1296  0.5571  0.1817
  552MOL0     C72794   2.935   2.709   4.516  0.2475 -0.3505  0.0254
  552MOL0     C72795   2.948   2.851   4.501  0.4726  0.0487 -0.3744
  552MOL0     C72796   2.952   2.973   4.479 -0.0993  0.3560  0.1673
  552MOL0     C72797   2.621   2.284   4.170 -0.7989  0.6813  0.3816
  552MOL0     C72798   2.514   2.223   4.103 -1.0910 -0.1124 -0.8443
  552MOL0     H72799   2.072   2.195   3.821  4.5036 -1.3862 -0.8735
  552MOL0     H72800   1.870   2.094   3.819  0.5696 -2.7669 -2.5143
  552MOL0     H72801   1.732   1.927   3.789 -0.5475  2.1768  1.5489
  552MOL0     H72802   1.641   1.967   3.939 -0.5527  0.2479 -0.4588
  552MOL0     H72803   1.586   1.725   3.976  0.6120 -0.1518  0.1173
  552MOL0     H72804   1.676   1.710   3.819 -0.3003 -1.1955  1.0014
  552MOL0     H72805   1.502   1.855   3.719  2.0412  0.3845  1.8194
  552MOL0     H72806   1.427   1.869   3.871  0.9942  0.4718 -0.0600
  552MOL0     H72807   1.454   1.608   3.710  0.7698 -1.2952  0.9039
  552MOL0     H72808   1.414   1.613   3.885 -0.7010 -1.3779 -0.7729
  552MOL0     H72809   1.288   1.786   3.690 -0.9496 -1.3295 -0.1286
  552MOL0     H72810   1.214   1.738   3.841 -1.9213  0.1526 -1.6990
  552MOL0     H72811   1.228   1.496   3.763 -0.8272 -0.2193 -1.1315
  552MOL0     H72812   1.247   1.555   3.601  3.0946 -1.9957  1.1772
  552MOL0     H72813   1.030   1.714   3.682 -1.7878 -0.2971  0.8410
  552MOL0     H72814   1.005   1.552   3.626  2.4691  0.0570 -1.6236
  552MOL0     H72815   1.066   1.630   3.927  0.1910  1.4991  0.6013
  552MOL0     H72816   0.995   1.475   3.861 -1.3162 -1.1055 -4.4818
  552MOL0     H72817   0.868   1.852   3.886 -2.0373  0.5674 -2.2983
  552MOL0     H72818   0.633   1.941   3.979  1.0424 -0.0065  0.7091
  552MOL0     H72819   0.593   1.814   4.102 -2.0600  0.8179  0.7137
  552MOL0     H72820   0.465   1.794   3.845  2.2576  1.0666 -0.9127
  552MOL0     H72821   0.425   1.941   3.929  4.0969  1.6566  1.1726
  552MOL0     H72822   0.368   1.787   4.133 -2.8828 -1.7125  0.8227
  552MOL0     H72823   0.263   1.801   4.003 -1.0677 -0.8177  2.9574
  552MOL0     H72824   0.475   1.577   4.064  0.8187 -0.6244  0.1016
  552MOL0     H72825   0.385   1.594   3.908  0.8197  0.7176  0.1898
  552MOL0     H72826   0.090   1.404   4.145  2.2037  2.3679 -0.2022
  552MOL0     H72827  -0.141   1.375   4.043  0.2179 -0.3054  0.2882
  552MOL0     H72828  -0.502   1.599   3.914 -0.1301 -0.7067  0.2150
  552MOL0     H72829  -0.732   1.612   3.848  1.4081 -0.4314  0.6996
  552MOL0     H72830  -0.914   1.261   3.816 -0.5603  0.3144 -0.1623
  552MOL0     H72831  -0.928   1.261   3.632  1.1084  1.4754 -1.2440
  552MOL0     H72832  -1.088   1.451   3.806  0.8439 -0.6916  1.0687
  552MOL0     H72833  -1.132   1.269   3.795  1.3435 -0.9416 -1.4610
  552MOL0     H72834  -1.112   1.299   3.544 -0.7638  0.7961 -0.9602
  552MOL0     H72835  -1.100   1.477   3.576  1.9636  0.7350  1.9185
  552MOL0     H72836  -1.331   1.290   3.658 -1.7267  0.0438  1.8369
  552MOL0     H72837  -1.326   1.458   3.698 -0.4308  0.0427 -0.7321
  552MOL0     H72838  -1.300   1.336   3.407  1.9730 -1.8280  1.9271
  552MOL0     H72839  -1.341   1.508   3.463  1.1609  0.6100  4.2150
  552MOL0     H72840  -1.552   1.438   3.546 -2.5717 -0.7774 -1.2625
  552MOL0     H72841  -1.528   1.269   3.513 -0.4739  0.4472  3.9322
  552MOL0     H72842  -1.516   1.479   3.307 -0.1906 -0.4270 -0.5562
  552MOL0     H72843  -1.499   1.300   3.268 -1.2923  0.2414 -0.1442
  552MOL0     H72844  -1.721   1.389   3.210  0.5319 -2.4618 -0.7072
  552MOL0     H72845  -1.745   1.442   3.374  0.0973 -1.1857  1.4534
  552MOL0     H72846  -0.708   1.227   3.667 -1.7605 -1.3875  3.6080
  552MOL0     H72847  -0.480   1.216   3.732 -3.3822 -1.2997 -1.3972
  552MOL0     H72848  -0.039   1.671   3.751 -1.4093  1.0434  2.1032
  552MOL0     H72849   0.194   1.662   3.829 -0.8424  1.7348  0.8711
  552MOL0     H72850   2.003   1.796   4.117  0.0916  0.9734  1.8461
  552MOL0     H72851   2.215   1.911   4.120  0.0625 -0.2719 -1.2161
  552MOL0     H72852   2.453   2.472   3.875 -1.7390 -0.1102  1.0987
  552MOL0     H72853   2.643   2.570   3.973  2.3253 -0.1866  0.0163
  552MOL0     H72854   2.716   2.656   4.201  1.2838  3.0496 -0.9635
  552MOL0     H72855   2.833   2.617   4.074 -3.0699 -0.2692 -0.8163
  552MOL0     H72856   2.997   2.594   4.264 -0.9273 -0.0970 -0.5485
  552MOL0     H72857   2.936   2.758   4.251  0.9797  1.3925  5.7559
  552MOL0     H72858   2.825   2.549   4.441  1.9310 -0.3195 -1.3586
  552MOL0     H72859   2.744   2.702   4.401  0.4245  1.4049 -3.2472
  552MOL0     H72860   2.887   2.691   4.612  0.0333 -1.2803 -0.2513
  552MOL0     H72861   3.037   2.670   4.517 -0.1947 -1.6467 -1.1544
  552MOL0     H72862   2.947   3.079   4.468  1.3810  0.2365 -2.5593
  552MOL0     H72863   2.675   2.250   4.258  1.2893  0.3706 -0.9521
  552MOL0     H72864   2.482   2.127   4.143  0.6836 -0.2706  0.2648
  553MOL0     O72865   4.464   1.822   6.599  0.2202  0.0834  0.0782
  553MOL0     C72866   4.538   1.856   6.511  0.5266  0.6290 -0.2132
  553MOL0     O72867   4.506   1.855   6.382  0.7770  0.1235  0.1252
  553MOL0     C72868   4.382   1.805   6.354 -0.5146  0.1658  0.2480
  553MOL0     C72869   4.349   1.667   6.345 -0.8622 -0.2541 -0.1718
  553MOL0     C72870   4.225   1.624   6.306  0.4695  0.6161 -0.2243
  553MOL0     C72871   4.117   1.724   6.298 -0.4921  0.1152 -0.4447
  553MOL0     O72872   3.981   1.704   6.304 -0.7787 -0.8350  0.0683
  553MOL0     C72873   3.920   1.573   6.291 -0.2174  0.6078 -0.0681
  553MOL0     C72874   3.772   1.567   6.245 -0.8925  0.0736 -0.4261
  553MOL0     C72875   3.692   1.674   6.320 -0.0687  0.0916 -0.3731
  553MOL0     C72876   3.544   1.660   6.288 -0.0470 -1.2413 -0.1960
  553MOL0     C72877   3.456   1.765   6.363 -0.5224 -0.2242 -0.0557
  553MOL0     C72878   3.485   1.774   6.517  0.5686 -0.7136  0.5251
  553MOL0     C72879   3.362   1.824   6.589  0.5617  0.1026 -0.5082
  553MOL0     C72880   3.301   1.955   6.551  0.3749  0.0214  0.5169
  553MOL0     N72881   3.393   2.064   6.596  1.3660 -0.5917 -0.1861
  553MOL0     C72882   3.395   2.104   6.720 -0.4444 -0.6829  0.0732
  553MOL0     C72883   3.421   2.236   6.719  0.1281 -0.1815 -0.9475
  553MOL0     C72884   3.413   2.323   6.839  0.1732 -0.3269  0.3253
  553MOL0     C72885   3.549   2.343   6.911  0.6366  0.6605 -0.2541
  553MOL0     C72886   3.652   2.407   6.812 -1.2279 -0.4143  0.8951
  553MOL0     C72887   3.786   2.432   6.881 -1.1406  0.1557 -0.2886
  553MOL0     O72888   3.770   2.512   6.993  0.1231  0.0270 -0.6009
  553MOL0     C72889   3.879   2.553   7.065  0.1572 -0.7593  0.2608
  553MOL0     C72890   3.870   2.632   7.180 -0.4948  1.0850 -1.1438
  553MOL0     C72891   3.975   2.664   7.267 -0.5522  0.1706  0.4474
  553MOL0     C72892   4.109   2.627   7.242  0.5970 -0.7706  0.1291
  553MOL0     C72893   4.228   2.658   7.331 -0.5486 -0.4203 -0.2397
  553MOL0     O72894   4.354   2.643   7.277 -0.4917 -0.2903  0.6977
  553MOL0     C72895   4.465   2.675   7.359  0.1476 -0.2111  0.0626
  553MOL0     C72896   4.541   2.569   7.412 -1.1442  0.1981  0.5031
  553MOL0     C72897   4.658   2.595   7.494  0.5578 -0.3260 -0.3995
  553MOL0     C72898   4.696   2.729   7.516  0.0599 -0.1588  0.2221
  553MOL0     O72899   4.806   2.775   7.590 -1.0541  0.4554  0.1273
  553MOL0     C72900   4.931   2.701   7.579  0.7038 -0.3262 -0.5170
  553MOL0     C72901   5.054   2.786   7.605  1.3736 -0.0652  0.8631
  553MOL0     C72902   5.075   2.825   7.749 -0.4974  0.4722 -0.6225
  553MOL0     C72903   5.115   2.713   7.849  0.7416  0.8698  0.1942
  553MOL0     C72904   5.171   2.761   7.979  0.1084  0.8924  0.7614
  553MOL0     C72905   5.077   2.862   8.052  0.1886 -0.5643 -0.5747
  553MOL0     C72906   5.123   2.905   8.193 -0.9349  0.0112 -0.7471
  553MOL0     C72907   5.226   3.022   8.195 -1.2865  0.3758 -0.3832
  553MOL0    Cl72908   5.391   2.985   8.159 -0.4612 -0.1552  0.2012
  553MOL0     C72909   4.618   2.829   7.459 -0.0107 -0.6355  0.2136
  553MOL0     C72910   4.500   2.805   7.389 -0.2311  0.2930 -0.5093
  553MOL0     O72911   4.212   2.682   7.445  0.1451  0.1017 -0.2885
  553MOL0     C72912   4.114   2.541   7.132  0.0367 -1.3343  0.2720
  553MOL0     C72913   4.011   2.506   7.048  1.9154 -0.6967  0.8845
  553MOL0     N72914   3.463   2.267   6.597  0.2461 -0.0420  0.1790
  553MOL0     N72915   3.443   2.168   6.521  0.6402 -0.1780 -0.2081
  553MOL0     C72916   4.152   1.857   6.315 -0.1150 -0.0730  0.2788
  553MOL0     C72917   4.281   1.898   6.338 -0.3948 -0.2436  0.5583
  553MOL0     C72918   4.677   1.900   6.546 -0.2887  0.1141 -0.1502
  553MOL0     C72919   4.726   1.878   6.675  0.4572  0.1243  0.1365
  553MOL0     C72920   4.851   1.905   6.718  0.5722 -0.5965  0.5748
  553MOL0     C72921   4.940   1.964   6.623 -0.5315  0.2635 -0.4184
  553MOL0     O72922   5.071   1.976   6.663 -0.1357 -0.2597  0.2821
  553MOL0     C72923   5.165   2.013   6.557 -0.4028  0.5513  0.0542
  553MOL0     C72924   5.314   1.985   6.591 -0.5764 -0.1952  0.4389
  553MOL0     C72925   5.343   1.887   6.705 -0.7699  0.1927 -0.6434
  553MOL0     C72926   5.487   1.889   6.734  0.5547  0.6012 -0.4494
  553MOL0     C72927   5.517   1.802   6.840 -0.5803  0.7665 -0.4044
  553MOL0     C72928   5.561   1.746   6.940 -0.1467  0.4065  0.4008
  553MOL0     C72929   4.893   1.996   6.484 -0.5881  0.1757 -0.7829
  553MOL0     C72930   4.763   1.956   6.450 -0.4529  0.2185  0.0028
  553MOL0     H72931   4.429   1.595   6.354 -1.0707 -0.3023  1.7852
  553MOL0     H72932   4.202   1.518   6.303 -1.8270  1.0452  0.4936
  553MOL0     H72933   3.933   1.525   6.389 -0.7238 -0.0078 -0.2909
  553MOL0     H72934   3.988   1.520   6.223 -1.0281  0.3534 -0.6899
  553MOL0     H72935   3.731   1.472   6.281  1.8308 -1.2058 -0.3935
  553MOL0     H72936   3.770   1.586   6.137  0.4905  1.1942 -0.2777
  553MOL0     H72937   3.736   1.767   6.284  1.9605  0.1001  1.9216
  553MOL0     H72938   3.702   1.673   6.429 -2.5817  1.0737 -0.0662
  553MOL0     H72939   3.523   1.670   6.181 -0.5429  2.6816  0.0890
  553MOL0     H72940   3.511   1.561   6.320 -1.1794 -0.5917  0.7351
  553MOL0     H72941   3.354   1.735   6.337 -1.0141  0.4597  0.9961
  553MOL0     H72942   3.462   1.863   6.315 -2.3528 -0.4120 -0.7549
  553MOL0     H72943   3.568   1.844   6.527  1.6301 -1.5418 -1.8205
  553MOL0     H72944   3.522   1.677   6.552 -1.3475 -0.6219  3.1388
  553MOL0     H72945   3.290   1.742   6.596 -1.8853  2.2758  1.5735
  553MOL0     H72946   3.392   1.839   6.693 -2.4347  4.2893 -0.0363
  553MOL0     H72947   3.199   1.976   6.584 -0.2000  1.3302 -1.8577
  553MOL0     H72948   3.298   1.959   6.441  2.4538  1.5051  0.4501
  553MOL0     H72949   3.361   2.040   6.802 -2.3034 -2.2303 -1.7932
  553MOL0     H72950   3.353   2.279   6.919  0.0649 -1.4005 -0.3171
  553MOL0     H72951   3.371   2.420   6.811 -0.0233 -0.6790 -0.6597
  553MOL0     H72952   3.585   2.243   6.937  0.1804  0.6672  0.4378
  553MOL0     H72953   3.543   2.411   6.997  1.9445 -0.6973  0.9710
  553MOL0     H72954   3.665   2.343   6.724 -1.4032  0.7878 -0.0216
  553MOL0     H72955   3.613   2.501   6.773 -0.6876  0.7666  3.0288
  553MOL0     H72956   3.841   2.490   6.806 -1.1584  0.3602 -0.1441
  553MOL0     H72957   3.838   2.339   6.905 -2.8713 -1.0060 -0.8789
  553MOL0     H72958   3.778   2.674   7.218 -0.5508 -2.2512  3.2227
  553MOL0     H72959   3.933   2.719   7.350 -0.2082 -0.9973  1.4238
  553MOL0     H72960   4.513   2.464   7.404 -0.0662 -0.1546  1.1518
  553MOL0     H72961   4.720   2.508   7.516  0.3172 -0.2679  0.5419
  553MOL0     H72962   4.943   2.646   7.485 -0.8328 -1.7607  0.0647
  553MOL0     H72963   4.920   2.625   7.658 -0.1185 -0.4169 -0.7074
  553MOL0     H72964   5.048   2.873   7.539  1.0784 -2.6578 -2.7593
  553MOL0     H72965   5.145   2.734   7.572  0.4221 -0.3942 -1.3476
  553MOL0     H72966   4.997   2.894   7.784 -1.4203 -0.1303 -1.4511
  553MOL0     H72967   5.163   2.890   7.745  0.0324 -0.3104 -3.3495
  553MOL0     H72968   5.031   2.642   7.855  1.8714 -0.4698  0.8551
  553MOL0     H72969   5.197   2.656   7.805 -1.7371 -1.5577 -1.6611
  553MOL0     H72970   5.252   2.829   7.952 -0.3653  2.6906  3.4623
  553MOL0     H72971   5.208   2.674   8.034 -0.7517  0.2730  0.3857
  553MOL0     H72972   4.980   2.812   8.065  0.7446 -1.8709 -1.2201
  553MOL0     H72973   5.058   2.953   7.995  1.6877  0.4207  0.4421
  553MOL0     H72974   5.038   2.935   8.255 -0.1985  2.1588 -0.6736
  553MOL0     H72975   5.166   2.818   8.243 -1.4942 -0.2101 -0.6428
  553MOL0     H72976   5.232   3.043   8.302 -3.0409  0.9438 -0.3595
  553MOL0     H72977   5.196   3.109   8.135  2.1474  2.4425  0.6367
  553MOL0     H72978   4.652   2.932   7.466  0.3149 -0.3515 -3.6792
  553MOL0     H72979   4.433   2.889   7.372 -0.8928 -0.2301 -0.5431
  553MOL0     H72980   4.204   2.483   7.114  2.1262  0.9772  2.5853
  553MOL0     H72981   4.034   2.445   6.962 -2.5756  0.7503 -1.6596
  553MOL0     H72982   4.080   1.936   6.299 -0.7416 -0.5504  0.6736
  553MOL0     H72983   4.317   2.000   6.348 -1.2081 -0.0276  1.3697
  553MOL0     H72984   4.654   1.842   6.749  0.1317  0.7359  0.1212
  553MOL0     H72985   4.892   1.885   6.817 -0.3343  1.1569  1.3388
  553MOL0     H72986   5.154   2.119   6.535  1.1329  0.3806 -1.7221
  553MOL0     H72987   5.141   1.951   6.470  1.5113 -0.2176  0.0377
  553MOL0     H72988   5.358   1.941   6.502 -1.4120  0.3683 -0.2642
  553MOL0     H72989   5.368   2.080   6.601 -0.4225 -0.0008 -1.8620
  553MOL0     H72990   5.310   1.786   6.680 -2.7629  0.6749 -0.0905
  553MOL0     H72991   5.295   1.928   6.794 -0.6764 -0.3019 -0.3575
  553MOL0     H72992   5.551   1.865   6.649  3.6774  2.8439  1.0506
  553MOL0     H72993   5.513   1.992   6.762  0.3763  1.7866 -4.1045
  553MOL0     H72994   5.587   1.702   7.034 -2.7129  2.7964  2.3874
  553MOL0     H72995   4.964   2.040   6.416  0.3524  0.8674  0.5959
  553MOL0     H72996   4.729   1.968   6.348  0.2050  0.9225 -0.1376
  554MOL0     O72997   1.302   7.848   1.222 -0.7938 -0.0235  0.0067
  554MOL0     C72998   1.240   7.789   1.132 -0.2986  0.0575 -1.4701
  554MOL0     O72999   1.117   7.745   1.141  0.2893 -0.2676  0.5603
  554MOL0     C73000   1.042   7.768   1.255  0.6817  0.5254  0.0792
  554MOL0     C73001   1.080   7.749   1.390 -1.6773 -0.7008  0.6993
  554MOL0     C73002   0.984   7.781   1.475  0.8928 -0.0024 -0.3701
  554MOL0     C73003   0.856   7.832   1.451  1.3695  0.5059  0.4059
  554MOL0     O73004   0.763   7.851   1.549  0.8815 -0.4952  0.2607
  554MOL0     C73005   0.801   7.866   1.684  0.3221  0.5513  0.3816
  554MOL0     C73006   0.667   7.847   1.763 -0.4848 -0.4510 -0.6649
  554MOL0     C73007   0.561   7.951   1.732  0.1430 -0.9008  0.1763
  554MOL0     C73008   0.425   7.911   1.791  0.4396 -0.7428  0.9190
  554MOL0     C73009   0.319   8.013   1.748  0.4497 -0.6058 -0.0781
  554MOL0     C73010   0.305   8.041   1.596 -0.0394 -0.5379 -0.1501
  554MOL0     C73011   0.180   8.119   1.589  0.3030 -0.3134  0.3471
  554MOL0     C73012   0.054   8.030   1.563 -0.1811 -0.8798  0.4089
  554MOL0     N73013  -0.069   8.103   1.605  0.5448  0.6653  0.4390
  554MOL0     C73014  -0.116   8.213   1.538  0.2849  0.2701  0.7998
  554MOL0     C73015  -0.236   8.255   1.596  0.3001  1.1189 -0.1237
  554MOL0     C73016  -0.323   8.373   1.567 -0.5104 -0.3688 -0.2416
  554MOL0     C73017  -0.338   8.420   1.420  0.2518 -0.4151 -0.2540
  554MOL0     C73018  -0.389   8.314   1.329  0.8750 -0.8816  0.6487
  554MOL0     C73019  -0.490   8.217   1.377 -0.4116  0.3108  0.4888
  554MOL0     O73020  -0.612   8.273   1.441 -0.0165  0.1144 -0.0541
  554MOL0     C73021  -0.696   8.168   1.473  0.1929 -0.4994 -0.5863
  554MOL0     C73022  -0.814   8.171   1.402  0.0787 -0.0922  0.9893
  554MOL0     C73023  -0.901   8.057   1.397 -0.2641  0.7598  0.5247
  554MOL0     C73024  -0.868   7.940   1.472 -0.7400  0.0119  0.6644
  554MOL0     C73025  -0.945   7.812   1.459 -0.7320 -0.5942 -0.2592
  554MOL0     O73026  -1.050   7.822   1.371 -0.3219 -0.1482 -0.0330
  554MOL0     C73027  -1.132   7.726   1.327  0.1567  0.3662  1.1243
  554MOL0     C73028  -1.267   7.760   1.301  0.5213  0.3689 -0.4945
  554MOL0     C73029  -1.348   7.656   1.263 -0.5179 -0.1835  0.3009
  554MOL0     C73030  -1.298   7.527   1.237 -0.3251  0.1687 -0.0501
  554MOL0     O73031  -1.366   7.419   1.193  0.7281 -0.1137  0.3471
  554MOL0     C73032  -1.478   7.452   1.106 -0.1559  0.5161  0.5140
  554MOL0     C73033  -1.608   7.421   1.174 -0.2652 -0.4289 -0.2788
  554MOL0     C73034  -1.662   7.281   1.159  0.0794  0.1093 -1.1165
  554MOL0     C73035  -1.811   7.247   1.218 -0.4351  0.0479  0.8519
  554MOL0     C73036  -1.916   7.359   1.194  0.6520  0.3952  0.1509
  554MOL0     C73037  -1.948   7.378   1.052 -0.2970 -0.3737  0.9958
  554MOL0     C73038  -2.041   7.264   1.005 -0.7521 -0.3383  0.1307
  554MOL0     C73039  -2.175   7.302   0.942  0.4953 -0.7106  0.2663
  554MOL0    Cl73040  -2.287   7.388   1.059 -0.4275 -0.6593  0.1843
  554MOL0     C73041  -1.160   7.500   1.257  0.0488  0.3689 -0.2737
  554MOL0     C73042  -1.079   7.598   1.302  0.9446 -0.1175  0.0147
  554MOL0     O73043  -0.919   7.725   1.544 -0.3407 -0.0682  0.3015
  554MOL0     C73044  -0.753   7.942   1.551 -0.5820 -0.8286  0.5020
  554MOL0     C73045  -0.666   8.056   1.549 -0.0111 -0.1284 -0.7564
  554MOL0     N73046  -0.271   8.166   1.693  0.6351  0.2149  0.1055
  554MOL0     N73047  -0.172   8.075   1.692 -0.5637  0.2278  0.7188
  554MOL0     C73048   0.822   7.855   1.317  0.0310  0.0768 -1.3720
  554MOL0     C73049   0.914   7.812   1.221 -0.0669 -0.4684 -0.1075
  554MOL0     C73050   1.314   7.763   1.009  0.2635 -0.4879  0.4296
  554MOL0     C73051   1.298   7.656   0.933 -0.2562  0.4597 -0.8034
  554MOL0     C73052   1.382   7.630   0.822  0.1489  0.0921 -0.0807
  554MOL0     C73053   1.474   7.729   0.780 -1.1836  0.7593  0.6271
  554MOL0     O73054   1.547   7.718   0.661 -0.4336 -0.3338  0.3439
  554MOL0     C73055   1.652   7.813   0.627 -0.2758  0.0317  1.0312
  554MOL0     C73056   1.741   7.756   0.519  0.0668  0.4717 -0.1902
  554MOL0     C73057   1.808   7.871   0.442 -0.5882  0.5126  0.5896
  554MOL0     C73058   1.895   7.795   0.337 -0.7688  0.4345  0.2854
  554MOL0     C73059   2.015   7.709   0.380  0.6502 -0.1326  0.8402
  554MOL0     C73060   2.109   7.636   0.393  0.3208 -0.3718 -0.4267
  554MOL0     C73061   1.487   7.844   0.852  0.1726  0.0308 -0.1582
  554MOL0     C73062   1.405   7.863   0.964  0.1832  0.3472 -0.2130
  554MOL0     H73063   1.184   7.740   1.418 -1.6624  0.8235  1.2355
  554MOL0     H73064   1.013   7.764   1.578  2.3293 -2.6532 -1.1332
  554MOL0     H73065   0.863   7.952   1.710 -0.7836  0.8987  1.9999
  554MOL0     H73066   0.861   7.779   1.712  0.5834  0.7475  0.4339
  554MOL0     H73067   0.681   7.850   1.871 -0.4984  0.9709 -0.6875
  554MOL0     H73068   0.628   7.752   1.726 -2.1310 -0.2322  0.4262
  554MOL0     H73069   0.570   7.984   1.628  1.9386  1.0264  0.8769
  554MOL0     H73070   0.597   8.042   1.781  0.0093  0.0102 -1.3611
  554MOL0     H73071   0.394   7.810   1.761 -3.6058  0.5283  0.1552
  554MOL0     H73072   0.435   7.907   1.900  0.5034  1.8454  1.0654
  554MOL0     H73073   0.345   8.106   1.799  1.8101 -1.5281  0.9938
  554MOL0     H73074   0.226   7.973   1.789  1.0073 -3.2286 -1.1334
  554MOL0     H73075   0.301   7.948   1.537  0.1639 -0.3738 -0.4235
  554MOL0     H73076   0.386   8.105   1.561  0.0108  0.5293  1.7824
  554MOL0     H73077   0.162   8.168   1.686 -0.2482 -1.3350  0.7845
  554MOL0     H73078   0.183   8.194   1.510 -1.1745  0.9877  1.4417
  554MOL0     H73079   0.053   7.933   1.614 -1.2122 -0.2031  1.7330
  554MOL0     H73080   0.045   8.003   1.457 -2.8266  0.2807  0.2680
  554MOL0     H73081  -0.072   8.276   1.462 -1.3626  2.7040  1.7206
  554MOL0     H73082  -0.279   8.442   1.639 -1.8737 -0.6709  0.9213
  554MOL0     H73083  -0.418   8.349   1.615  1.2017  0.9158  4.2998
  554MOL0     H73084  -0.250   8.456   1.367 -0.9037 -0.1818 -2.1290
  554MOL0     H73085  -0.408   8.505   1.421  0.5316 -0.1841 -0.2349
  554MOL0     H73086  -0.442   8.376   1.256 -1.0060  1.0323  3.4258
  554MOL0     H73087  -0.313   8.259   1.273 -1.4826 -3.9452  0.1551
  554MOL0     H73088  -0.446   8.161   1.460 -2.8313  1.3291  2.5930
  554MOL0     H73089  -0.513   8.154   1.291  3.4664 -0.0320 -0.4675
  554MOL0     H73090  -0.840   8.259   1.344  1.2819  1.3607  2.5132
  554MOL0     H73091  -0.981   8.057   1.325  0.0385 -0.1130  0.1690
  554MOL0     H73092  -1.304   7.862   1.309  0.9247  0.3930  1.6242
  554MOL0     H73093  -1.451   7.679   1.240  0.1042  3.6501  0.6468
  554MOL0     H73094  -1.466   7.373   1.031 -3.9282  1.3097 -1.1829
  554MOL0     H73095  -1.489   7.554   1.068 -0.2040  0.0040 -0.9024
  554MOL0     H73096  -1.678   7.497   1.137 -0.6994 -0.8759 -0.3826
  554MOL0     H73097  -1.597   7.446   1.280 -0.0750  0.2405 -0.4523
  554MOL0     H73098  -1.585   7.217   1.204 -1.4091 -0.0095  1.4162
  554MOL0     H73099  -1.659   7.257   1.052  1.4248 -3.5316 -0.4413
  554MOL0     H73100  -1.849   7.150   1.185 -0.0557  0.7280 -1.7955
  554MOL0     H73101  -1.793   7.234   1.326  2.6861 -0.5943  0.3333
  554MOL0     H73102  -1.875   7.454   1.231  0.1239  0.3757  0.8067
  554MOL0     H73103  -2.015   7.340   1.238  0.2993  1.0645 -0.3342
  554MOL0     H73104  -1.860   7.392   0.989 -1.4338  0.9758 -0.3500
  554MOL0     H73105  -1.997   7.475   1.044  1.6348  0.9323  3.4361
  554MOL0     H73106  -1.983   7.216   0.926  4.4091  2.0021  2.0549
  554MOL0     H73107  -2.055   7.192   1.085  0.3581  0.5925  1.2088
  554MOL0     H73108  -2.220   7.207   0.912  1.0545 -1.4578  1.6896
  554MOL0     H73109  -2.170   7.361   0.850 -1.8473  0.5709  0.8844
  554MOL0     H73110  -1.130   7.397   1.235 -1.6603  0.4082 -3.3962
  554MOL0     H73111  -0.973   7.580   1.318  1.0668  0.5101 -0.0301
  554MOL0     H73112  -0.730   7.864   1.624 -0.9280 -2.6746 -1.2713
  554MOL0     H73113  -0.576   8.063   1.609 -0.5012 -1.2389  0.1467
  554MOL0     H73114   0.724   7.890   1.289 -1.0728 -0.3814  1.5071
  554MOL0     H73115   0.886   7.815   1.116 -4.1488 -1.7344  0.7615
  554MOL0     H73116   1.226   7.585   0.972 -1.1513  1.9782  0.4109
  554MOL0     H73117   1.362   7.542   0.761  1.2532 -0.8053  0.8060
  554MOL0     H73118   1.716   7.830   0.714 -2.9553 -0.4168  3.2346
  554MOL0     H73119   1.613   7.913   0.604  0.3303 -0.2614 -1.6214
  554MOL0     H73120   1.810   7.684   0.565 -1.1431  0.5751  1.8760
  554MOL0     H73121   1.671   7.704   0.453  0.6353  0.2956 -0.6628
  554MOL0     H73122   1.866   7.935   0.509 -1.4813  2.3814 -0.3362
  554MOL0     H73123   1.737   7.932   0.386 -1.5040  0.0446  1.2282
  554MOL0     H73124   1.824   7.722   0.298 -0.4790  1.4853 -2.4134
  554MOL0     H73125   1.911   7.868   0.257 -0.0659  0.2723  0.2729
  554MOL0     H73126   2.193   7.571   0.409 -0.5657 -1.0916  1.7072
  554MOL0     H73127   1.559   7.922   0.832  2.8812 -2.4300 -0.6449
  554MOL0     H73128   1.409   7.952   1.026  0.3642 -1.1349  2.0166
  555MOL0     O73129   3.078   4.386   6.516 -0.0168 -0.5309  0.0264
  555MOL0     C73130   3.044   4.432   6.405  0.6345 -0.4325  0.3249
  555MOL0     O73131   2.934   4.397   6.339  0.5209 -0.3648  0.7345
  555MOL0     C73132   2.821   4.360   6.407 -0.5052  0.3751  0.4542
  555MOL0     C73133   2.773   4.434   6.520  0.2430 -0.0947  0.1031
  555MOL0     C73134   2.659   4.401   6.590  0.4366  0.1779 -0.1314
  555MOL0     C73135   2.582   4.286   6.549 -1.1076  0.9142 -0.3073
  555MOL0     O73136   2.470   4.244   6.626 -0.6334 -1.1114 -0.1168
  555MOL0     C73137   2.358   4.327   6.657 -0.2470  0.4307 -0.2147
  555MOL0     C73138   2.237   4.291   6.574 -0.1266 -0.1614 -1.0360
  555MOL0     C73139   2.117   4.386   6.606 -0.1491 -0.3097 -0.1319
  555MOL0     C73140   2.002   4.326   6.528  0.6610 -0.1586 -0.3038
  555MOL0     C73141   1.880   4.414   6.561  0.9873  0.3130 -0.7378
  555MOL0     C73142   1.751   4.347   6.511  0.1950  0.5174  0.2116
  555MOL0     C73143   1.716   4.215   6.595  0.2681 -0.2179  0.2003
  555MOL0     C73144   1.570   4.169   6.562  0.0866 -0.4919 -0.3382
  555MOL0     N73145   1.468   4.240   6.642  0.3253  0.7410 -0.6859
  555MOL0     C73146   1.420   4.197   6.765  0.1217 -0.8476  0.6535
  555MOL0     C73147   1.312   4.275   6.791 -0.4894 -0.0420 -0.1850
  555MOL0     C73148   1.226   4.259   6.916  0.8313 -0.2325  0.2504
  555MOL0     C73149   1.079   4.246   6.861 -0.8660  0.7293 -0.3693
  555MOL0     C73150   0.983   4.259   6.972  0.3132 -0.7190 -0.6011
  555MOL0     C73151   0.843   4.273   6.920 -0.0897  0.3352 -0.3950
  555MOL0     O73152   0.749   4.266   7.024 -0.2678  0.2291 -1.1803
  555MOL0     C73153   0.631   4.320   6.994  1.7271  0.4024  0.4772
  555MOL0     C73154   0.563   4.305   6.870  1.3487  0.0953  0.2372
  555MOL0     C73155   0.438   4.365   6.843 -0.5701  0.4578  0.9598
  555MOL0     C73156   0.374   4.433   6.942  0.2390 -0.4024 -1.2229
  555MOL0     C73157   0.233   4.487   6.918  0.8001  0.0277 -0.0303
  555MOL0     O73158   0.189   4.474   6.800  0.4313 -0.0357  0.1632
  555MOL0     C73159   0.062   4.523   6.767 -0.4794  0.5316  0.2353
  555MOL0     C73160  -0.054   4.521   6.854  0.2382 -0.3167  0.6531
  555MOL0     C73161  -0.176   4.577   6.812 -0.0216  0.5770  0.5105
  555MOL0     C73162  -0.190   4.614   6.678 -0.7904 -0.9104  0.4674
  555MOL0     O73163  -0.322   4.648   6.635  0.4060  1.0173  0.5071
  555MOL0     C73164  -0.350   4.665   6.489  0.0439 -0.9335 -0.6299
  555MOL0     C73165  -0.493   4.714   6.469  0.7653  0.6668  0.3657
  555MOL0     C73166  -0.547   4.826   6.561 -0.2389 -0.5262 -0.5429
  555MOL0     C73167  -0.678   4.884   6.504  0.2940 -0.3795 -0.3158
  555MOL0     C73168  -0.734   5.005   6.592  0.0554  0.1315 -0.5633
  555MOL0     C73169  -0.865   5.063   6.523 -0.1041  0.0831  0.8360
  555MOL0     C73170  -0.948   5.173   6.598 -1.1030 -0.7369  0.5967
  555MOL0     C73171  -1.085   5.188   6.547 -0.2564  0.0118 -0.4783
  555MOL0    Cl73172  -1.071   5.259   6.384 -0.5822 -0.5496 -0.3522
  555MOL0     C73173  -0.079   4.600   6.583  0.5070  0.5401 -0.6649
  555MOL0     C73174   0.046   4.554   6.632  1.1583  0.4405 -0.0574
  555MOL0     O73175   0.177   4.544   7.014 -0.0072  0.4404  0.0250
  555MOL0     C73176   0.434   4.444   7.069 -0.4363  0.7490 -1.1691
  555MOL0     C73177   0.556   4.382   7.090  0.5949  0.0795 -0.4911
  555MOL0     N73178   1.299   4.370   6.688 -0.1467  0.5104  0.4372
  555MOL0     N73179   1.397   4.349   6.606  0.5482 -0.0878  0.2025
  555MOL0     C73180   2.639   4.207   6.448 -0.4581  0.4523 -0.2124
  555MOL0     C73181   2.749   4.251   6.365  0.2083  0.5144  0.5377
  555MOL0     C73182   3.136   4.524   6.339 -1.2694 -0.2039  0.1996
  555MOL0     C73183   3.277   4.516   6.358 -0.5698 -0.2903 -0.0831
  555MOL0     C73184   3.364   4.578   6.263  0.4047 -0.2555 -0.9164
  555MOL0     C73185   3.314   4.648   6.163  0.4719 -0.5426  0.3751
  555MOL0     O73186   3.407   4.717   6.082  0.1226 -0.1629 -0.6464
  555MOL0     C73187   3.483   4.642   5.985  0.0773  0.0282 -0.4228
  555MOL0     C73188   3.637   4.661   5.990  0.5290 -0.1400  0.1520
  555MOL0     C73189   3.696   4.616   5.848 -0.3173  0.2998 -0.2936
  555MOL0     C73190   3.845   4.596   5.850  0.0622  1.2376  0.4964
  555MOL0     C73191   3.916   4.725   5.872 -0.0131  0.1216 -0.0731
  555MOL0     C73192   3.972   4.825   5.900 -0.1861 -0.5334  0.0885
  555MOL0     C73193   3.174   4.660   6.143  0.0680  0.4311  0.2514
  555MOL0     C73194   3.082   4.600   6.236 -1.2530 -0.4692  0.2707
  555MOL0     H73195   2.828   4.522   6.553 -1.3366  1.6578 -1.6572
  555MOL0     H73196   2.636   4.453   6.682  0.9087  1.9587 -0.9841
  555MOL0     H73197   2.375   4.435   6.658  0.7159  0.2900  1.1071
  555MOL0     H73198   2.326   4.306   6.759  0.4354 -2.8138 -0.5469
  555MOL0     H73199   2.221   4.184   6.586  0.8545 -0.3841 -1.5994
  555MOL0     H73200   2.268   4.309   6.471  3.2145  0.0788 -0.1168
  555MOL0     H73201   2.139   4.485   6.567 -0.1316  0.5686  1.9912
  555MOL0     H73202   2.097   4.397   6.713  0.6985  1.2169 -0.1022
  555MOL0     H73203   2.034   4.339   6.424  0.7328 -0.6302 -0.3407
  555MOL0     H73204   1.994   4.218   6.540 -0.1552 -0.4045 -2.5429
  555MOL0     H73205   1.895   4.513   6.519 -1.9895  0.5739 -1.3844
  555MOL0     H73206   1.853   4.417   6.667 -3.0752  0.2745 -1.5847
  555MOL0     H73207   1.774   4.308   6.411  0.9959 -0.8500  0.8864
  555MOL0     H73208   1.670   4.420   6.503  0.9194  1.2844 -0.2294
  555MOL0     H73209   1.766   4.120   6.573 -0.9825 -1.2287  1.6131
  555MOL0     H73210   1.714   4.230   6.703  2.6784  0.1121  0.2635
  555MOL0     H73211   1.562   4.067   6.599  1.6861  0.2080  2.1070
  555MOL0     H73212   1.548   4.163   6.455  0.5396  2.0218 -0.6496
  555MOL0     H73213   1.458   4.116   6.827  1.2332 -1.2866 -0.5502
  555MOL0     H73214   1.231   4.339   6.990 -1.4051  0.4765 -0.2996
  555MOL0     H73215   1.240   4.160   6.960 -1.3038 -1.2987 -1.2780
  555MOL0     H73216   1.076   4.148   6.813  0.7013 -0.0123  0.9613
  555MOL0     H73217   1.061   4.327   6.790 -2.3075  0.2092 -0.6245
  555MOL0     H73218   0.994   4.166   7.029 -0.8917  1.0546  2.8042
  555MOL0     H73219   1.022   4.344   7.028  2.7762 -2.1008 -0.0316
  555MOL0     H73220   0.826   4.191   6.849 -0.8034  0.7084 -0.6745
  555MOL0     H73221   0.841   4.362   6.857  3.3236 -0.5192 -1.9182
  555MOL0     H73222   0.613   4.241   6.798 -1.6242 -2.4982  0.2687
  555MOL0     H73223   0.397   4.364   6.743 -0.2100  2.7736  0.7491
  555MOL0     H73224  -0.048   4.481   6.954  0.5273  1.3222  1.3224
  555MOL0     H73225  -0.266   4.569   6.872 -1.1776 -0.3837 -1.2708
  555MOL0     H73226  -0.321   4.572   6.438  3.3177 -0.5060  0.2091
  555MOL0     H73227  -0.289   4.743   6.443 -1.3098 -1.5156 -3.6594
  555MOL0     H73228  -0.563   4.630   6.469 -1.1746  2.2031  0.6659
  555MOL0     H73229  -0.507   4.736   6.363 -0.4663 -6.4280 -1.4657
  555MOL0     H73230  -0.474   4.907   6.569 -0.0487 -0.6009 -1.3943
  555MOL0     H73231  -0.569   4.787   6.661 -2.7909 -0.6985 -1.1150
  555MOL0     H73232  -0.665   4.917   6.401 -0.3514 -1.8226 -0.8894
  555MOL0     H73233  -0.745   4.797   6.505 -1.1419  0.6990  0.5061
  555MOL0     H73234  -0.648   5.069   6.616  2.2353 -2.3244 -1.3492
  555MOL0     H73235  -0.767   4.959   6.686 -0.8774 -3.2151 -2.3660
  555MOL0     H73236  -0.933   4.980   6.498 -1.5380  2.2831 -3.5912
  555MOL0     H73237  -0.837   5.102   6.425 -0.9430 -3.2679 -0.8844
  555MOL0     H73238  -0.953   5.144   6.703 -1.9733 -0.5502  0.6217
  555MOL0     H73239  -0.895   5.267   6.580  2.0844 -2.8078 -1.8509
  555MOL0     H73240  -1.136   5.260   6.612  0.6385  0.2557 -0.0315
  555MOL0     H73241  -1.138   5.093   6.542 -0.3505  0.1002 -1.3210
  555MOL0     H73242  -0.074   4.615   6.476 -2.0337  2.0202 -0.6466
  555MOL0     H73243   0.129   4.543   6.563  0.7096  1.1788 -0.7326
  555MOL0     H73244   0.391   4.506   7.146  1.8013  0.0941  0.7451
  555MOL0     H73245   0.604   4.377   7.187 -1.3530 -3.4319  0.4666
  555MOL0     H73246   2.584   4.117   6.421 -0.0928  0.6702 -1.7990
  555MOL0     H73247   2.798   4.182   6.296  1.5662 -0.3032  2.2222
  555MOL0     H73248   3.306   4.450   6.439 -3.0852  0.8037  1.8703
  555MOL0     H73249   3.471   4.589   6.274  0.2783  0.5162 -0.3894
  555MOL0     H73250   3.454   4.679   5.886  1.1082  0.1303 -0.6910
  555MOL0     H73251   3.462   4.535   6.001  3.5185 -0.6748  0.1598
  555MOL0     H73252   3.656   4.763   6.023  1.0588  0.5691 -2.1617
  555MOL0     H73253   3.669   4.586   6.063  0.3997 -0.4649 -0.1186
  555MOL0     H73254   3.665   4.684   5.769 -1.7428 -2.5385 -2.3890
  555MOL0     H73255   3.646   4.524   5.817 -0.3105  1.1265 -2.9668
  555MOL0     H73256   3.862   4.539   5.942 -3.7265  1.4221  1.4522
  555MOL0     H73257   3.883   4.539   5.764 -1.1664 -0.4162  1.0058
  555MOL0     H73258   4.004   4.920   5.938  0.8796 -0.5144 -0.8118
  555MOL0     H73259   3.137   4.705   6.052  1.5623 -0.4238 -0.8504
  555MOL0     H73260   2.977   4.611   6.213 -0.6270  1.6434 -2.0404
  556MOL0     O73261   2.822   3.458   0.695  0.4293  1.2220 -0.2514
  556MOL0     C73262   2.826   3.360   0.766 -0.0239  0.2984 -0.4354
  556MOL0     O73263   2.939   3.281   0.795  0.2411  0.4233 -0.3475
  556MOL0     C73264   3.068   3.332   0.777 -0.4101 -0.4016  0.4305
  556MOL0     C73265   3.112   3.463   0.808  0.0828 -0.0976  0.8601
  556MOL0     C73266   3.249   3.501   0.792  0.5372 -0.0270 -0.7789
  556MOL0     C73267   3.347   3.412   0.743 -0.6278  0.2384  0.0837
  556MOL0     O73268   3.472   3.469   0.727  0.0766  0.4646 -0.1099
  556MOL0     C73269   3.586   3.387   0.698 -1.1493 -0.6660  0.5280
  556MOL0     C73270   3.711   3.457   0.659 -0.4684  0.1415  0.0443
  556MOL0     C73271   3.839   3.370   0.655  0.6995  0.4166  0.0805
  556MOL0     C73272   3.955   3.451   0.598  0.2639 -0.0648 -0.4118
  556MOL0     C73273   4.088   3.381   0.602 -0.2770 -0.4555 -0.0112
  556MOL0     C73274   4.196   3.471   0.540 -0.5987  0.3012  0.0919
  556MOL0     C73275   4.327   3.394   0.554 -0.3572 -0.7146 -0.0428
  556MOL0     C73276   4.444   3.482   0.506 -0.4516  0.2176  0.3311
  556MOL0     N73277   4.577   3.424   0.541 -0.0551  0.0863  0.1921
  556MOL0     C73278   4.602   3.317   0.629 -0.7587  0.1036  1.1153
  556MOL0     C73279   4.726   3.276   0.598  0.1828  0.0117  1.0131
  556MOL0     C73280   4.783   3.157   0.678  0.8259 -1.1987 -0.2128
  556MOL0     C73281   4.919   3.145   0.635  0.2449  0.1390 -0.3331
  556MOL0     C73282   4.996   3.062   0.740  0.5831 -0.0940 -0.4519
  556MOL0     C73283   5.143   3.087   0.744  0.3062  0.2420 -0.2439
  556MOL0     O73284   5.211   3.022   0.637 -0.0495 -0.7055  0.6178
  556MOL0     C73285   5.333   3.061   0.609  0.7412  0.7338 -1.4180
  556MOL0     C73286   5.424   3.112   0.701  0.4493 -0.4459 -0.4797
  556MOL0     C73287   5.544   3.157   0.654 -0.3291  0.2088 -0.3951
  556MOL0     C73288   5.583   3.148   0.518  0.0078 -0.3326  0.1793
  556MOL0     C73289   5.723   3.178   0.481  0.1772  0.2782 -0.1973
  556MOL0     O73290   5.812   3.206   0.585 -0.1728  0.2070  0.0716
  556MOL0     C73291   5.943   3.193   0.544 -1.1158 -0.3857 -0.3559
  556MOL0     C73292   6.003   3.305   0.491 -0.3267 -0.7542  0.4077
  556MOL0     C73293   6.138   3.301   0.459 -0.6192  0.3368 -0.3041
  556MOL0     C73294   6.212   3.182   0.480  0.4657  0.0810 -0.1757
  556MOL0     O73295   6.342   3.157   0.449 -0.2852  0.0594 -0.6643
  556MOL0     C73296   6.452   3.250   0.458 -0.3877 -0.9475 -0.0642
  556MOL0     C73297   6.547   3.224   0.578 -0.7135  0.1862  0.2694
  556MOL0     C73298   6.612   3.079   0.559  0.4192  0.4606 -0.0910
  556MOL0     C73299   6.677   3.033   0.686 -0.1900  0.6889  0.3991
  556MOL0     C73300   6.787   3.117   0.742  0.1013 -0.0341  0.4834
  556MOL0     C73301   6.913   3.150   0.660  0.0733  0.1642  1.6186
  556MOL0     C73302   6.994   3.018   0.628 -0.7309 -0.0402  0.1452
  556MOL0     C73303   7.107   3.058   0.532 -0.6966 -0.1839  0.6317
  556MOL0    Cl73304   7.225   3.166   0.613 -0.2379  0.0574 -0.1070
  556MOL0     C73305   6.147   3.069   0.538  0.1415 -0.8499 -0.6498
  556MOL0     C73306   6.016   3.085   0.570  0.1038 -0.0811  1.0358
  556MOL0     O73307   5.749   3.181   0.363  0.4089  0.6550 -0.6133
  556MOL0     C73308   5.493   3.105   0.425  0.0484 -0.1986  0.1996
  556MOL0     C73309   5.372   3.067   0.467  1.0340  0.5927  0.2344
  556MOL0     N73310   4.780   3.350   0.492  0.8197  0.2284  0.0555
  556MOL0     N73311   4.681   3.427   0.451 -0.5809 -0.2268 -0.2286
  556MOL0     C73312   3.313   3.279   0.727 -0.2504 -0.4989  0.4908
  556MOL0     C73313   3.177   3.241   0.749 -0.1317  0.4890  0.1230
  556MOL0     C73314   2.695   3.315   0.828  0.9975 -0.2608  0.9703
  556MOL0     C73315   2.562   3.340   0.768 -0.8790  0.4396  0.6054
  556MOL0     C73316   2.453   3.269   0.818 -0.0248 -0.1121 -0.9386
  556MOL0     C73317   2.463   3.186   0.933 -0.3835 -0.5507  0.0472
  556MOL0     O73318   2.366   3.125   0.997  0.3384 -0.4551  0.6296
  556MOL0     C73319   2.226   3.126   0.940 -0.3380  0.1044 -0.0280
  556MOL0     C73320   2.145   3.011   0.992 -0.4517  0.0326  1.0003
  556MOL0     C73321   2.002   3.014   0.924 -0.7660  0.1346  0.3764
  556MOL0     C73322   1.923   3.139   0.984  0.0083  0.7148 -0.4764
  556MOL0     C73323   1.777   3.123   0.957 -0.9907 -0.1529 -0.0507
  556MOL0     C73324   1.656   3.108   0.962 -0.1682 -0.0165 -0.1238
  556MOL0     C73325   2.587   3.174   0.998  0.1846 -0.4749  0.0173
  556MOL0     C73326   2.700   3.231   0.940  0.0532 -0.2139  0.3906
  556MOL0     H73327   3.039   3.532   0.849 -0.4089  1.4222 -2.2922
  556MOL0     H73328   3.283   3.601   0.817 -1.2413  0.4758 -0.2721
  556MOL0     H73329   3.558   3.310   0.626 -1.4854 -0.8313  0.8302
  556MOL0     H73330   3.606   3.341   0.796  0.4430 -0.4628  0.3204
  556MOL0     H73331   3.731   3.539   0.729 -0.8908  1.4924 -1.3435
  556MOL0     H73332   3.699   3.513   0.566 -0.6889 -0.0502 -0.0441
  556MOL0     H73333   3.821   3.279   0.597 -0.7102  0.6413  0.1228
  556MOL0     H73334   3.860   3.336   0.757  3.8543 -1.2029 -0.9844
  556MOL0     H73335   3.933   3.477   0.494  0.3828  0.7693 -0.2368
  556MOL0     H73336   3.970   3.539   0.661  3.4035  0.8129 -2.2396
  556MOL0     H73337   4.068   3.285   0.553 -1.8611 -1.3394  2.2031
  556MOL0     H73338   4.119   3.373   0.707 -1.8344  0.6995  0.5582
  556MOL0     H73339   4.201   3.573   0.578 -3.1502  1.0053 -1.2207
  556MOL0     H73340   4.171   3.479   0.434 -0.4909  4.1360  0.2091
  556MOL0     H73341   4.331   3.373   0.662 -2.4702 -1.5407 -0.0657
  556MOL0     H73342   4.319   3.301   0.497  3.1136 -1.2021  0.0685
  556MOL0     H73343   4.421   3.580   0.547  1.3091  0.6022  0.4831
  556MOL0     H73344   4.430   3.482   0.397  0.4817 -0.4841  0.1970
  556MOL0     H73345   4.540   3.279   0.709 -3.9305  0.6673 -0.8952
  556MOL0     H73346   4.719   3.069   0.670 -2.0747  0.8344 -1.7319
  556MOL0     H73347   4.787   3.183   0.784 -0.8472 -0.0765 -0.3794
  556MOL0     H73348   4.957   3.247   0.633  2.2689 -0.4715  1.9337
  556MOL0     H73349   4.928   3.096   0.538 -0.9298 -2.7946  0.9262
  556MOL0     H73350   4.956   3.071   0.842 -0.6769 -1.8170 -0.7458
  556MOL0     H73351   4.983   2.955   0.720 -0.3648  0.5521 -3.8005
  556MOL0     H73352   5.177   3.041   0.837 -0.2125 -1.4405 -0.8514
  556MOL0     H73353   5.157   3.195   0.742 -2.2621  0.6202 -1.4118
  556MOL0     H73354   5.393   3.125   0.804 -2.4382 -0.7283 -1.2244
  556MOL0     H73355   5.620   3.186   0.726 -0.4554 -2.2401  0.8392
  556MOL0     H73356   5.947   3.398   0.488 -1.5579 -1.4101  1.8863
  556MOL0     H73357   6.181   3.392   0.418 -1.7121  2.0854  2.1828
  556MOL0     H73358   6.408   3.349   0.465  0.7024 -0.5818  4.1128
  556MOL0     H73359   6.516   3.235   0.370 -3.1701 -2.1847 -2.0456
  556MOL0     H73360   6.489   3.237   0.671 -2.1298  1.1609 -0.7116
  556MOL0     H73361   6.633   3.291   0.576 -0.7336  0.2163  0.3946
  556MOL0     H73362   6.675   3.073   0.470  0.8791  1.9511  0.1061
  556MOL0     H73363   6.524   3.015   0.550  2.6986 -3.2262  1.4970
  556MOL0     H73364   6.595   3.020   0.757  0.1644  2.4795  1.1914
  556MOL0     H73365   6.726   2.939   0.658 -2.5646  0.2909 -3.0712
  556MOL0     H73366   6.823   3.083   0.839  1.4212  1.8341  0.7056
  556MOL0     H73367   6.743   3.215   0.761 -2.0833 -1.6035  4.8563
  556MOL0     H73368   6.965   3.226   0.720 -0.7351  1.3284  0.8781
  556MOL0     H73369   6.888   3.197   0.565  0.5298 -0.8088  0.9942
  556MOL0     H73370   7.032   2.974   0.721  2.0579 -0.1773 -0.9491
  556MOL0     H73371   6.926   2.952   0.575 -1.4208  2.2491 -2.0244
  556MOL0     H73372   7.063   3.110   0.446  4.6314  0.0707 -2.4259
  556MOL0     H73373   7.160   2.968   0.501 -3.1722 -1.3938 -0.3316
  556MOL0     H73374   6.197   2.977   0.567  0.0724  0.0396  2.6325
  556MOL0     H73375   5.970   3.007   0.630  0.8528  0.3795  2.2537
  556MOL0     H73376   5.532   3.100   0.323 -0.6225  0.3946 -0.0922
  556MOL0     H73377   5.297   3.053   0.390  2.1526  1.5918 -1.0869
  556MOL0     H73378   3.382   3.214   0.676 -0.5095  0.6331 -1.3913
  556MOL0     H73379   3.141   3.138   0.742  0.4068 -0.3517  5.5278
  556MOL0     H73380   2.561   3.418   0.693  0.6550  2.5018  2.5926
  556MOL0     H73381   2.361   3.275   0.761 -0.0642  1.1424 -0.7628
  556MOL0     H73382   2.240   3.113   0.832  0.0925 -1.0940  0.1600
  556MOL0     H73383   2.181   3.221   0.972  1.8331  0.9498  0.7219
  556MOL0     H73384   2.196   2.917   0.966 -0.4002 -0.0293  1.3206
  556MOL0     H73385   2.137   3.022   1.101 -0.0272  1.7945  0.8765
  556MOL0     H73386   1.957   2.917   0.943 -0.9204  0.3718  1.2902
  556MOL0     H73387   2.008   3.023   0.815 -0.6807  2.1659  0.4988
  556MOL0     H73388   1.953   3.143   1.089  2.5393 -1.5885 -1.0099
  556MOL0     H73389   1.961   3.234   0.945 -1.9823  0.8499 -2.2605
  556MOL0     H73390   1.551   3.104   0.979 -0.3861 -0.4447 -1.4136
  556MOL0     H73391   2.578   3.093   1.069 -0.8170  0.3396  0.8514
  556MOL0     H73392   2.788   3.208   0.998 -0.2291 -1.8377  0.2344
  557MOL0     O73393   7.882   9.028   7.807  0.5499  0.2968 -0.6253
  557MOL0     C73394   7.910   8.970   7.912 -1.0898 -0.5081 -0.7288
  557MOL0     O73395   7.811   8.922   8.001  0.2556 -0.1492  0.1410
  557MOL0     C73396   7.683   8.970   7.995 -0.3773 -0.1321 -0.0397
  557MOL0     C73397   7.575   8.882   8.036  0.1984  0.7188  0.5231
  557MOL0     C73398   7.440   8.924   8.031 -0.6246  0.4704 -0.2915
  557MOL0     C73399   7.406   9.051   7.982  0.5680  0.1127 -0.2844
  557MOL0     O73400   7.271   9.082   7.965  0.3939 -0.0585  0.7050
  557MOL0     C73401   7.230   9.186   7.882 -0.0884 -1.0131  0.1568
  557MOL0     C73402   7.072   9.202   7.898 -0.4935 -0.1858 -0.9448
  557MOL0     C73403   7.008   9.270   7.779 -0.6781  0.4239 -0.4156
  557MOL0     C73404   6.847   9.256   7.760  0.3144 -0.2671 -0.1833
  557MOL0     C73405   6.804   9.098   7.765 -0.3001 -0.6848 -0.3599
  557MOL0     C73406   6.650   9.081   7.729  1.1248  0.5307 -0.5067
  557MOL0     C73407   6.605   8.950   7.667  0.3014 -0.0605  0.2006
  557MOL0     C73408   6.451   8.934   7.673  0.3742 -0.7464  0.4216
  557MOL0     N73409   6.383   8.947   7.543  0.3746 -0.0334 -0.4466
  557MOL0     C73410   6.287   8.851   7.507  0.5062 -0.3579  0.8617
  557MOL0     C73411   6.223   8.907   7.399 -0.6460 -0.4133 -0.3450
  557MOL0     C73412   6.118   8.849   7.302  0.0483 -0.2601  0.3751
  557MOL0     C73413   6.025   8.957   7.235  0.1246  0.6172 -0.6418
  557MOL0     C73414   5.951   9.046   7.334 -0.1434 -0.8159  1.2289
  557MOL0     C73415   5.821   9.118   7.281  0.3834  0.0360  0.3649
  557MOL0     O73416   5.747   9.017   7.205 -0.5756 -0.5471 -1.0667
  557MOL0     C73417   5.619   9.064   7.171 -0.1492  1.0649 -0.2230
  557MOL0     C73418   5.578   9.057   7.035  0.1353  0.0752  0.8655
  557MOL0     C73419   5.442   9.071   7.009 -0.7659  0.0788  0.5337
  557MOL0     C73420   5.352   9.093   7.111 -0.1389  0.6239 -0.0400
  557MOL0     C73421   5.208   9.104   7.069 -0.2077  0.4338 -0.5206
  557MOL0     O73422   5.181   9.133   6.938  0.6007 -1.2210 -0.2213
  557MOL0     C73423   5.050   9.140   6.884 -0.5493  0.4771 -0.4389
  557MOL0     C73424   4.965   9.033   6.895  0.6239 -0.2490 -0.1362
  557MOL0     C73425   4.842   9.029   6.841  0.6988 -0.0851 -0.8021
  557MOL0     C73426   4.787   9.150   6.788  0.9383 -0.1217  0.5071
  557MOL0     O73427   4.668   9.163   6.719 -0.2608 -0.2700  0.3811
  557MOL0     C73428   4.590   9.040   6.717 -0.7149  0.1206 -0.0207
  557MOL0     C73429   4.459   9.047   6.649  0.9746 -0.9379  0.7916
  557MOL0     C73430   4.362   8.931   6.687  0.8108  0.3936 -0.8951
  557MOL0     C73431   4.218   8.950   6.643 -0.5806  0.4962  0.1586
  557MOL0     C73432   4.148   8.814   6.668 -0.1747 -0.1622  0.1871
  557MOL0     C73433   3.995   8.824   6.655 -0.3155 -0.4631  0.1583
  557MOL0     C73434   3.932   8.693   6.614 -0.0756  0.0517 -0.3447
  557MOL0     C73435   3.784   8.691   6.637  0.6341 -0.4906  0.7684
  557MOL0    Cl73436   3.712   8.530   6.603 -0.1475 -0.2063  0.1691
  557MOL0     C73437   4.875   9.253   6.766 -0.0481  0.2020  0.1967
  557MOL0     C73438   5.005   9.250   6.816 -0.1779  0.0157  0.3694
  557MOL0     O73439   5.126   9.108   7.160  0.5955 -0.1408 -0.3525
  557MOL0     C73440   5.396   9.089   7.245 -0.5849 -0.3477  0.0567
  557MOL0     C73441   5.525   9.083   7.270  0.2447  0.3496 -0.7643
  557MOL0     N73442   6.269   9.040   7.386 -0.1701  0.4294  0.8809
  557MOL0     N73443   6.366   9.058   7.467  0.0458 -0.5317 -0.0239
  557MOL0     C73444   7.509   9.127   7.939  0.0232 -0.4223 -0.4946
  557MOL0     C73445   7.648   9.095   7.954 -0.0688 -0.1959  0.0680
  557MOL0     C73446   8.057   8.929   7.935  0.3670 -0.2655 -0.6880
  557MOL0     C73447   8.093   8.853   8.046  0.4720  0.2380 -0.6270
  557MOL0     C73448   8.227   8.814   8.068  0.0050 -1.0146  0.7191
  557MOL0     C73449   8.324   8.842   7.974  0.6879  0.9723 -0.4109
  557MOL0     O73450   8.460   8.823   7.994 -0.0890  0.0471 -0.7649
  557MOL0     C73451   8.524   8.879   8.116  0.2895  0.5096 -0.2282
  557MOL0     C73452   8.519   9.033   8.118 -0.1503  0.2683 -0.0806
  557MOL0     C73453   8.633   9.082   8.027  0.8673 -1.0422 -0.3026
  557MOL0     C73454   8.595   9.117   7.878  0.0315 -0.0117 -0.6346
  557MOL0     C73455   8.712   9.156   7.801  0.4538 -0.9314  0.4582
  557MOL0     C73456   8.813   9.175   7.745 -0.1802  0.3656 -0.0596
  557MOL0     C73457   8.282   8.898   7.858  0.1817 -0.3426  0.4637
  557MOL0     C73458   8.156   8.946   7.840  0.5117 -0.1300 -0.1247
  557MOL0     H73459   7.599   8.788   8.083 -1.7154 -0.9916 -1.6663
  557MOL0     H73460   7.365   8.857   8.071  0.7526 -0.6341  0.5329
  557MOL0     H73461   7.250   9.140   7.785  1.6299 -0.3597  0.1782
  557MOL0     H73462   7.280   9.282   7.898  0.9034 -1.5393  0.3150
  557MOL0     H73463   7.046   9.263   7.985  1.0188 -0.1340 -0.5030
  557MOL0     H73464   7.032   9.102   7.916  3.0656 -1.5936 -0.0041
  557MOL0     H73465   7.046   9.228   7.686 -0.8367 -1.0488  0.1644
  557MOL0     H73466   7.028   9.377   7.790 -2.0572  0.4783  3.0502
  557MOL0     H73467   6.801   9.302   7.848 -2.0305  1.0374 -1.9777
  557MOL0     H73468   6.818   9.302   7.665  0.4440  0.1507 -0.0209
  557MOL0     H73469   6.823   9.061   7.866 -2.6482  0.3463  0.5265
  557MOL0     H73470   6.867   9.036   7.700  0.7178  0.5872 -0.6419
  557MOL0     H73471   6.613   9.150   7.653 -1.7574  0.6730  0.8769
  557MOL0     H73472   6.593   9.092   7.821 -0.2849  0.9303 -1.3963
  557MOL0     H73473   6.646   8.962   7.566 -1.9238  2.7025 -0.5039
  557MOL0     H73474   6.648   8.865   7.720  0.3130 -0.2887 -0.1687
  557MOL0     H73475   6.412   9.019   7.728 -2.7899 -1.5139 -0.4485
  557MOL0     H73476   6.427   8.840   7.725  1.2877 -1.6575 -0.7404
  557MOL0     H73477   6.281   8.748   7.540 -0.1264 -0.9377 -0.9160
  557MOL0     H73478   6.061   8.777   7.361  0.8126 -0.4032  0.9607
  557MOL0     H73479   6.173   8.802   7.219 -0.0574  0.3575 -0.0517
  557MOL0     H73480   5.954   8.907   7.169 -1.2317 -1.1751  1.9920
  557MOL0     H73481   6.082   9.030   7.176 -1.9945  1.5636 -1.6070
  557MOL0     H73482   5.908   8.988   7.417 -2.3503  0.1205  0.8102
  557MOL0     H73483   6.017   9.124   7.372 -1.2818  0.0368  1.4951
  557MOL0     H73484   5.846   9.197   7.211  0.0611  1.2487  1.5745
  557MOL0     H73485   5.757   9.148   7.365 -2.1324 -2.3611 -0.5294
  557MOL0     H73486   5.638   9.031   6.949 -2.6088 -0.3776 -1.0280
  557MOL0     H73487   5.409   9.059   6.906 -0.4590  0.2479  0.4130
  557MOL0     H73488   5.013   8.941   6.929  2.4064 -0.1693 -2.2025
  557MOL0     H73489   4.791   8.933   6.835 -1.2155  0.8806 -0.6326
  557MOL0     H73490   4.575   9.020   6.824  1.3319  1.8043  0.6542
  557MOL0     H73491   4.647   8.957   6.673 -1.4011 -1.0424  1.1974
  557MOL0     H73492   4.474   9.050   6.541 -0.9457 -2.0396  0.4556
  557MOL0     H73493   4.413   9.139   6.686  4.9871  1.7731 -0.2279
  557MOL0     H73494   4.373   8.901   6.791 -1.0935 -0.5921 -0.9402
  557MOL0     H73495   4.398   8.849   6.623  0.7573  0.8077 -1.4680
  557MOL0     H73496   4.172   9.036   6.692 -0.3501 -0.1158  1.4902
  557MOL0     H73497   4.209   8.966   6.535  0.4675 -1.4853 -0.2633
  557MOL0     H73498   4.177   8.793   6.772  2.7206 -0.8624 -0.6474
  557MOL0     H73499   4.189   8.732   6.608  0.5547 -0.1033  0.5893
  557MOL0     H73500   3.961   8.907   6.593 -0.6910  0.5323  1.6377
  557MOL0     H73501   3.959   8.861   6.751 -0.4428  1.7959 -0.7199
  557MOL0     H73502   3.943   8.671   6.507 -3.5933 -0.7081 -0.6788
  557MOL0     H73503   3.989   8.619   6.669 -0.0807  0.4450  0.1981
  557MOL0     H73504   3.735   8.766   6.575 -1.8499 -1.2054  1.7422
  557MOL0     H73505   3.757   8.710   6.742  1.7052  3.5916  0.4796
  557MOL0     H73506   4.845   9.334   6.700 -1.4204 -0.4097  0.0326
  557MOL0     H73507   5.074   9.326   6.782 -2.7580  1.3855 -2.2442
  557MOL0     H73508   5.337   9.088   7.336  2.4324  1.7363  2.2378
  557MOL0     H73509   5.555   9.095   7.373  0.0049 -2.5171 -0.2859
  557MOL0     H73510   7.491   9.215   7.877 -0.0097 -1.2016 -1.6137
  557MOL0     H73511   7.712   9.177   7.923 -0.6080  0.8119  1.5212
  557MOL0     H73512   8.026   8.814   8.122  0.8454  1.1764  0.2041
  557MOL0     H73513   8.258   8.771   8.162 -0.0135  0.5695  1.4958
  557MOL0     H73514   8.631   8.859   8.115 -0.0943 -1.8937  0.7076
  557MOL0     H73515   8.476   8.837   8.205 -3.4418  3.3214 -0.6735
  557MOL0     H73516   8.418   9.058   8.084  0.9065  3.5546 -1.1086
  557MOL0     H73517   8.527   9.065   8.223  1.4301  0.3312 -0.1914
  557MOL0     H73518   8.714   9.010   8.008  1.7066  0.1194 -1.3227
  557MOL0     H73519   8.676   9.165   8.084  1.0538 -3.6018  3.6786
  557MOL0     H73520   8.554   9.029   7.828  4.1645 -0.9325 -2.7752
  557MOL0     H73521   8.528   9.204   7.885  0.2113  0.2812 -2.2270
  557MOL0     H73522   8.907   9.198   7.700 -0.0382  0.8242  0.4711
  557MOL0     H73523   8.345   8.914   7.771  0.0864 -1.5020  0.1686
  557MOL0     H73524   8.123   8.987   7.745 -0.3650 -1.7920 -0.5643
  558MOL0     O73525   0.166   7.007   2.439  0.3372 -0.0879  0.1295
  558MOL0     C73526   0.103   6.902   2.427 -0.2640 -1.0595  0.3648
  558MOL0     O73527   0.144   6.779   2.471 -0.2009 -0.6203  0.6515
  558MOL0     C73528   0.268   6.770   2.530 -0.2585 -0.7253  0.9847
  558MOL0     C73529   0.287   6.822   2.653  0.1068  0.4293 -0.2391
  558MOL0     C73530   0.408   6.793   2.724 -0.0109 -0.7069  0.1342
  558MOL0     C73531   0.514   6.733   2.654 -0.0394  0.4366 -0.3448
  558MOL0     O73532   0.636   6.746   2.718 -0.8492  0.4249 -0.1347
  558MOL0     C73533   0.724   6.633   2.701  0.7995  0.0582 -0.3577
  558MOL0     C73534   0.820   6.651   2.600  0.0134 -0.8643  0.4208
  558MOL0     C73535   0.902   6.789   2.613  0.3660  0.0856 -0.3957
  558MOL0     C73536   1.042   6.814   2.556 -0.5713 -0.1581 -0.2149
  558MOL0     C73537   1.065   6.972   2.564  0.1759  0.0449 -0.2646
  558MOL0     C73538   1.187   7.005   2.474 -0.6936 -0.7289 -0.3680
  558MOL0     C73539   1.214   7.153   2.486  0.2267 -0.5806 -0.6791
  558MOL0     C73540   1.345   7.195   2.412 -0.0048  0.3575  0.2327
  558MOL0     N73541   1.364   7.339   2.434 -0.7326  0.7210 -0.2150
  558MOL0     C73542   1.447   7.414   2.357  0.8187  0.4902  0.4176
  558MOL0     C73543   1.450   7.532   2.421  0.1086 -0.5718 -0.7372
  558MOL0     C73544   1.510   7.663   2.375  0.0490  1.1243  0.3069
  558MOL0     C73545   1.412   7.767   2.330 -0.3372  1.0020 -0.6910
  558MOL0     C73546   1.353   7.715   2.197  0.7785 -0.4177  0.3234
  558MOL0     C73547   1.238   7.803   2.142  0.2523  0.3119 -0.4481
  558MOL0     O73548   1.118   7.822   2.231  0.6119 -0.3854  0.3866
  558MOL0     C73549   1.024   7.921   2.188  0.8292  0.9749  0.0367
  558MOL0     C73550   1.030   7.977   2.057 -0.1030 -0.3622  0.0844
  558MOL0     C73551   0.934   8.065   2.023  0.3782  0.1728  0.2242
  558MOL0     C73552   0.821   8.081   2.103 -0.5655  0.7565 -0.5108
  558MOL0     C73553   0.709   8.155   2.050  0.0177 -0.8623 -0.2214
  558MOL0     O73554   0.599   8.158   2.132  0.7353  0.3503  0.1372
  558MOL0     C73555   0.475   8.200   2.091 -0.2406  0.2472 -0.0487
  558MOL0     C73556   0.374   8.132   2.152 -0.1649  0.1221 -0.4545
  558MOL0     C73557   0.237   8.157   2.120  1.2014 -0.9582 -0.6740
  558MOL0     C73558   0.208   8.261   2.028  0.3539 -0.0966 -0.1602
  558MOL0     O73559   0.086   8.303   1.991 -0.2526 -0.1358 -0.2217
  558MOL0     C73560  -0.003   8.334   2.101  0.3226 -0.1350  0.0342
  558MOL0     C73561  -0.136   8.411   2.075 -0.6232 -0.5265 -0.3977
  558MOL0     C73562  -0.221   8.334   1.977 -0.1006  0.0418  0.3210
  558MOL0     C73563  -0.377   8.367   1.991  0.9108  0.3576  0.4684
  558MOL0     C73564  -0.405   8.509   1.952 -0.3888 -0.3164 -0.0394
  558MOL0     C73565  -0.557   8.527   1.927 -0.0214  0.0726  0.2736
  558MOL0     C73566  -0.587   8.668   1.861  0.3585 -0.0167 -0.1798
  558MOL0     C73567  -0.738   8.671   1.824 -0.4964 -0.2088 -0.3132
  558MOL0    Cl73568  -0.815   8.703   1.985  0.0695  0.1350  0.0497
  558MOL0     C73569   0.317   8.331   1.974  0.5147  0.4719  0.3280
  558MOL0     C73570   0.448   8.300   2.001  0.4980 -0.0566  0.0728
  558MOL0     O73571   0.715   8.189   1.933  0.2885 -0.0400 -0.5296
  558MOL0     C73572   0.804   8.028   2.230  0.2933  1.6028 -0.6366
  558MOL0     C73573   0.909   7.940   2.269  0.1604  0.0849  0.0384
  558MOL0     N73574   1.387   7.517   2.542  0.8577  0.4005 -0.3228
  558MOL0     N73575   1.332   7.402   2.545 -0.1549  0.3053  0.7813
  558MOL0     C73576   0.491   6.676   2.531 -0.0184 -1.4662  0.4944
  558MOL0     C73577   0.373   6.697   2.463  0.8008  0.0497 -0.2770
  558MOL0     C73578  -0.003   6.912   2.338 -0.2910  0.5083 -0.5079
  558MOL0     C73579  -0.043   6.795   2.276  0.4898  0.3065 -0.3088
  558MOL0     C73580  -0.161   6.801   2.191  0.3741  0.0201  0.1473
  558MOL0     C73581  -0.211   6.924   2.143  0.1824  0.5230 -0.7655
  558MOL0     O73582  -0.315   6.933   2.047 -0.8408  1.2722  0.0500
  558MOL0     C73583  -0.343   6.816   1.968 -0.4133  0.3890 -0.5053
  558MOL0     C73584  -0.460   6.740   2.019 -0.3185 -0.5082  0.2159
  558MOL0     C73585  -0.503   6.613   1.938  0.3137 -0.1590  0.1468
  558MOL0     C73586  -0.589   6.521   2.016  0.3331 -0.1638 -0.2408
  558MOL0     C73587  -0.638   6.410   1.940  0.4640  0.6045  0.1201
  558MOL0     C73588  -0.670   6.319   1.867  1.1229 -0.7041 -0.0551
  558MOL0     C73589  -0.168   7.036   2.215  0.1291  1.3753  0.2232
  558MOL0     C73590  -0.079   7.026   2.319 -0.6496 -0.3781 -0.0690
  558MOL0     H73591   0.209   6.883   2.698  0.4449  0.1635  0.7398
  558MOL0     H73592   0.427   6.842   2.819 -0.8257  2.0058 -1.0159
  558MOL0     H73593   0.670   6.540   2.681  3.2967 -0.9517 -3.1596
  558MOL0     H73594   0.787   6.616   2.789  0.7245 -3.0862 -0.7771
  558MOL0     H73595   0.774   6.637   2.502 -0.8150 -2.7118  1.0300
  558MOL0     H73596   0.899   6.575   2.606 -0.5999 -1.5818 -0.4632
  558MOL0     H73597   0.910   6.809   2.721  1.3676 -0.4265 -0.3621
  558MOL0     H73598   0.838   6.867   2.572  1.1317  2.3247  2.3313
  558MOL0     H73599   1.122   6.770   2.617 -1.2386  1.8820  2.3210
  558MOL0     H73600   1.046   6.778   2.453 -1.2240 -0.3491 -0.1787
  558MOL0     H73601   1.075   6.999   2.670  2.5608  1.9911 -0.8986
  558MOL0     H73602   0.988   7.035   2.519  2.5073  1.9565 -1.8207
  558MOL0     H73603   1.163   6.998   2.367  2.8330  1.6246 -1.5228
  558MOL0     H73604   1.270   6.937   2.496 -1.4326 -1.9641 -1.2786
  558MOL0     H73605   1.129   7.216   2.460  1.4130  0.7122 -1.5479
  558MOL0     H73606   1.223   7.169   2.594 -0.7048 -0.4746 -0.6065
  558MOL0     H73607   1.334   7.179   2.305  0.0864  0.2384  0.2409
  558MOL0     H73608   1.435   7.137   2.434  1.2526  1.8282 -0.8831
  558MOL0     H73609   1.491   7.394   2.259  1.9831  3.2171  0.2978
  558MOL0     H73610   1.575   7.653   2.288  0.1694  1.7328  0.3207
  558MOL0     H73611   1.576   7.704   2.453 -1.0239  0.7811  1.4372
  558MOL0     H73612   1.468   7.861   2.322 -1.0985  1.6265  0.9229
  558MOL0     H73613   1.336   7.787   2.406 -0.9820  0.7261 -1.2552
  558MOL0     H73614   1.439   7.710   2.130  0.1520 -0.8672 -0.4661
  558MOL0     H73615   1.302   7.621   2.218 -0.7078  0.2641 -0.0590
  558MOL0     H73616   1.211   7.756   2.047 -3.9651 -0.0458  0.7178
  558MOL0     H73617   1.292   7.895   2.122  3.1446 -0.7385  1.7113
  558MOL0     H73618   1.109   7.945   1.989  0.4932 -0.9522  1.0377
  558MOL0     H73619   0.934   8.115   1.926  2.1170  0.4111  0.3083
  558MOL0     H73620   0.394   8.060   2.231 -4.2223 -0.8012 -0.0527
  558MOL0     H73621   0.161   8.102   2.175  1.9945  0.2837  1.8062
  558MOL0     H73622   0.039   8.383   2.189  1.3523  1.1856 -1.1305
  558MOL0     H73623  -0.016   8.241   2.155  1.6102 -0.6459 -0.4864
  558MOL0     H73624  -0.129   8.515   2.043 -3.9285  0.9671  2.9309
  558MOL0     H73625  -0.184   8.396   2.173  1.6298 -2.2384  0.5356
  558MOL0     H73626  -0.197   8.230   1.997  1.8433  0.9827  3.7413
  558MOL0     H73627  -0.188   8.356   1.876  1.4645 -0.0995  0.7778
  558MOL0     H73628  -0.429   8.292   1.931 -0.4584 -0.4756  2.5735
  558MOL0     H73629  -0.415   8.349   2.092  0.6633 -0.4340  0.2380
  558MOL0     H73630  -0.347   8.545   1.866 -1.5191  2.4488  0.2670
  558MOL0     H73631  -0.379   8.583   2.028  0.9355  0.0708 -0.8464
  558MOL0     H73632  -0.610   8.520   2.022 -1.1063 -0.4161 -0.3429
  558MOL0     H73633  -0.595   8.452   1.856 -2.4891  2.0566 -0.6515
  558MOL0     H73634  -0.564   8.745   1.935  0.3668 -0.4961  0.3302
  558MOL0     H73635  -0.522   8.679   1.774 -0.5739 -0.4988 -0.9556
  558MOL0     H73636  -0.784   8.583   1.777  1.5738  0.9236 -5.0558
  558MOL0     H73637  -0.757   8.758   1.760 -1.6991 -1.3201 -1.5518
  558MOL0     H73638   0.310   8.400   1.890 -1.5356 -1.8781 -1.6283
  558MOL0     H73639   0.535   8.345   1.954  1.5618 -1.1984  0.8832
  558MOL0     H73640   0.715   8.025   2.291 -1.6596 -2.3316 -3.2549
  558MOL0     H73641   0.888   7.888   2.362 -1.9658 -0.1556 -0.5300
  558MOL0     H73642   0.576   6.633   2.480  4.0445  2.3908  3.1863
  558MOL0     H73643   0.365   6.668   2.359 -0.0760  0.2971 -0.2931
  558MOL0     H73644   0.012   6.703   2.295 -1.0859 -0.5201  0.3658
  558MOL0     H73645  -0.192   6.710   2.141  0.6230  1.3230 -2.5135
  558MOL0     H73646  -0.256   6.753   1.948 -1.0071 -0.3949 -0.6497
  558MOL0     H73647  -0.372   6.849   1.868  1.6305  0.5633 -1.0855
  558MOL0     H73648  -0.440   6.711   2.122  1.1416 -1.4364 -0.3022
  558MOL0     H73649  -0.531   6.823   2.014  2.7169  2.4248  2.0672
  558MOL0     H73650  -0.423   6.545   1.907 -1.1864 -2.8101  1.6994
  558MOL0     H73651  -0.554   6.652   1.850  3.5013  0.2708 -1.6518
  558MOL0     H73652  -0.537   6.488   2.107 -0.6137  1.5441  0.9639
  558MOL0     H73653  -0.678   6.577   2.047  0.5348  0.1527 -0.2364
  558MOL0     H73654  -0.714   6.247   1.802  1.1505  0.5507 -1.5213
  558MOL0     H73655  -0.214   7.128   2.181 -2.6645 -0.7056 -2.2001
  558MOL0     H73656  -0.049   7.115   2.373  0.7071  0.5781 -2.2261
  559MOL0     O73657   1.366   2.554   8.122 -0.0794  0.0690 -0.0416
  559MOL0     C73658   1.398   2.578   8.003 -0.4306  0.2339 -0.2165
  559MOL0     O73659   1.303   2.601   7.911  0.0527 -0.2830 -0.5563
  559MOL0     C73660   1.170   2.606   7.952 -0.5858 -1.3120 -0.4384
  559MOL0     C73661   1.121   2.688   8.055  0.8781 -0.2427  0.0193
  559MOL0     C73662   0.984   2.704   8.076 -0.2559 -0.9501 -0.1891
  559MOL0     C73663   0.893   2.630   8.000  0.2710 -0.1022 -0.9650
  559MOL0     O73664   0.762   2.636   8.047  0.3229  0.0416 -0.9250
  559MOL0     C73665   0.668   2.529   8.008  0.1565  0.1635 -0.6134
  559MOL0     C73666   0.606   2.555   7.876  0.5966 -1.0274  0.0341
  559MOL0     C73667   0.461   2.500   7.873 -0.0068 -0.0116 -0.1071
  559MOL0     C73668   0.363   2.570   7.768 -0.4275 -0.0317 -1.5700
  559MOL0     C73669   0.215   2.539   7.794  0.3797  0.1087 -0.7105
  559MOL0     C73670   0.120   2.612   7.699  1.2313 -0.1497 -0.6625
  559MOL0     C73671  -0.030   2.578   7.755 -1.2982  0.1639  0.6626
  559MOL0     C73672  -0.067   2.437   7.721  0.5775 -0.1936  0.5093
  559MOL0     N73673  -0.220   2.427   7.705  0.1462 -0.3941  0.4326
  559MOL0     C73674  -0.310   2.505   7.770  0.4072  0.3119  0.6999
  559MOL0     C73675  -0.425   2.478   7.699  1.0916 -0.4225 -0.6078
  559MOL0     C73676  -0.561   2.535   7.720  0.6564  0.4981  0.3438
  559MOL0     C73677  -0.670   2.440   7.721 -0.1849 -0.0771 -0.1291
  559MOL0     C73678  -0.801   2.501   7.759  0.2545 -0.2199 -0.4332
  559MOL0     C73679  -0.919   2.421   7.714 -0.2195 -0.4775  0.4459
  559MOL0     O73680  -1.032   2.503   7.744 -0.3846  0.6062 -0.7989
  559MOL0     C73681  -1.159   2.471   7.699  0.3980  0.2863 -0.1033
  559MOL0     C73682  -1.205   2.337   7.689  0.8947 -0.3506  0.5397
  559MOL0     C73683  -1.329   2.318   7.633  0.7182 -0.0782  0.3030
  559MOL0     C73684  -1.409   2.417   7.580  0.1064  0.2898  0.6584
  559MOL0     C73685  -1.545   2.394   7.528  0.1872  1.1989  0.8212
  559MOL0     O73686  -1.634   2.494   7.524  0.0311  0.1479  0.5927
  559MOL0     C73687  -1.763   2.470   7.495  0.1093  0.2128  0.2351
  559MOL0     C73688  -1.837   2.574   7.435  0.1541 -0.7145 -0.5198
  559MOL0     C73689  -1.975   2.557   7.411  0.7162 -0.2315  0.4298
  559MOL0     C73690  -2.040   2.437   7.437 -0.1463 -0.6981  0.0877
  559MOL0     O73691  -2.170   2.430   7.420  0.0050  0.1688  0.1802
  559MOL0     C73692  -2.251   2.532   7.490  0.2776 -1.4223  1.0811
  559MOL0     C73693  -2.377   2.464   7.544  0.5050  0.1321 -0.2904
  559MOL0     C73694  -2.457   2.392   7.417  0.5109 -0.0738 -0.2551
  559MOL0     C73695  -2.588   2.346   7.463  0.0094 -0.4193 -0.1218
  559MOL0     C73696  -2.675   2.282   7.348  0.5039 -0.5204 -1.0189
  559MOL0     C73697  -2.740   2.400   7.267 -0.8591  0.1289  0.3581
  559MOL0     C73698  -2.879   2.352   7.207  0.0450 -0.4792  0.3603
  559MOL0     C73699  -2.953   2.484   7.156  0.6994  0.5344 -0.5124
  559MOL0    Cl73700  -3.132   2.443   7.143  0.4789 -0.1410  0.4104
  559MOL0     C73701  -1.964   2.334   7.490  0.0638  0.4425 -0.2572
  559MOL0     C73702  -1.832   2.346   7.522  0.7536 -0.6929  0.1591
  559MOL0     O73703  -1.568   2.280   7.481 -0.2278 -0.0754  0.5971
  559MOL0     C73704  -1.362   2.551   7.589  0.0532 -0.1650  0.0715
  559MOL0     C73705  -1.239   2.580   7.645 -0.5034 -0.4860 -0.4940
  559MOL0     N73706  -0.397   2.387   7.596  0.0201 -0.1589  0.0631
  559MOL0     N73707  -0.272   2.360   7.601  0.0773  0.5976 -0.8736
  559MOL0     C73708   0.944   2.535   7.904 -0.9017 -0.8029  0.6347
  559MOL0     C73709   1.084   2.522   7.877 -0.2389 -0.6837 -0.3037
  559MOL0     C73710   1.550   2.615   7.975  0.0190  0.8186 -0.1872
  559MOL0     C73711   1.602   2.573   7.857  0.0165 -0.4806  0.2704
  559MOL0     C73712   1.741   2.578   7.823  0.5702 -0.0441 -0.6112
  559MOL0     C73713   1.831   2.629   7.921  1.1283  0.7155  0.0830
  559MOL0     O73714   1.961   2.630   7.883  0.1230  0.4620 -0.3598
  559MOL0     C73715   2.050   2.711   7.958 -0.1922 -0.6046  0.9726
  559MOL0     C73716   2.171   2.751   7.890 -0.1508 -0.0636  0.3476
  559MOL0     C73717   2.166   2.807   7.744  0.3238 -0.1524  1.1372
  559MOL0     C73718   2.306   2.855   7.704 -0.1463  0.2739  0.6689
  559MOL0     C73719   2.297   2.912   7.571  0.6848 -0.5491 -0.3836
  559MOL0     C73720   2.304   2.975   7.468 -0.3089 -0.8986 -0.1005
  559MOL0     C73721   1.778   2.672   8.047  0.7785 -0.2504  1.0335
  559MOL0     C73722   1.641   2.659   8.071 -0.1510 -1.3171 -0.1861
  559MOL0     H73723   1.197   2.733   8.118 -0.7480  1.1448  1.0604
  559MOL0     H73724   0.946   2.764   8.158 -1.1450 -0.8935 -0.6349
  559MOL0     H73725   0.589   2.519   8.083  0.8424 -1.8839 -0.1157
  559MOL0     H73726   0.716   2.431   8.010 -0.3669 -0.1209  2.4074
  559MOL0     H73727   0.659   2.502   7.796 -1.2367 -0.1313 -1.8295
  559MOL0     H73728   0.606   2.662   7.853  0.5291 -1.7418 -3.8245
  559MOL0     H73729   0.415   2.511   7.972 -1.1972  0.8331 -0.7352
  559MOL0     H73730   0.461   2.395   7.842  1.5852  0.0499 -0.4020
  559MOL0     H73731   0.374   2.679   7.766 -0.4378 -0.0287 -1.5050
  559MOL0     H73732   0.405   2.535   7.674  2.4212 -0.2624 -0.3075
  559MOL0     H73733   0.188   2.564   7.897 -2.5703 -0.3635 -1.2823
  559MOL0     H73734   0.196   2.431   7.788  1.5586 -0.2699  1.3336
  559MOL0     H73735   0.134   2.578   7.596 -3.3299 -2.7797 -0.6759
  559MOL0     H73736   0.130   2.721   7.704 -3.6240  0.5403 -1.3309
  559MOL0     H73737  -0.043   2.593   7.863 -2.9303 -0.3137  0.5577
  559MOL0     H73738  -0.090   2.652   7.701  1.1145  2.0181  0.3780
  559MOL0     H73739  -0.032   2.361   7.791 -1.4782 -2.9286 -1.2049
  559MOL0     H73740  -0.028   2.402   7.624 -1.8024 -1.3171 -0.1270
  559MOL0     H73741  -0.293   2.586   7.839  0.3950 -0.9585  2.2613
  559MOL0     H73742  -0.569   2.609   7.640 -0.3889  0.8355  0.7444
  559MOL0     H73743  -0.554   2.575   7.822 -1.4314 -3.3988  2.2054
  559MOL0     H73744  -0.649   2.353   7.783 -3.1716  0.5163  1.9384
  559MOL0     H73745  -0.672   2.404   7.617  2.0405  1.4475 -0.7883
  559MOL0     H73746  -0.793   2.517   7.867 -0.2244 -1.7731 -0.1386
  559MOL0     H73747  -0.806   2.594   7.701 -1.9052  0.7567  1.1944
  559MOL0     H73748  -0.927   2.334   7.780  1.4604  0.3965  1.8704
  559MOL0     H73749  -0.927   2.389   7.609  0.5851 -1.1007  0.5624
  559MOL0     H73750  -1.146   2.248   7.710 -2.0124 -2.9553 -1.4560
  559MOL0     H73751  -1.358   2.215   7.619 -6.2819  1.4096  0.0006
  559MOL0     H73752  -1.789   2.664   7.398  2.1550 -1.2668  0.5577
  559MOL0     H73753  -2.030   2.640   7.367 -0.0062  0.6623  2.8728
  559MOL0     H73754  -2.280   2.613   7.423  0.7630 -2.4184 -0.4058
  559MOL0     H73755  -2.195   2.567   7.577  4.5244 -1.1702 -1.4726
  559MOL0     H73756  -2.444   2.537   7.589 -0.7762  0.1904 -2.1537
  559MOL0     H73757  -2.355   2.393   7.624  0.2034  0.6901  0.2907
  559MOL0     H73758  -2.395   2.306   7.389  4.8011  2.3199  0.8321
  559MOL0     H73759  -2.460   2.469   7.339  0.5921  0.5783  0.3692
  559MOL0     H73760  -2.572   2.271   7.541  1.0259  0.8103  0.8957
  559MOL0     H73761  -2.629   2.434   7.513  0.4397 -1.3896  2.0205
  559MOL0     H73762  -2.753   2.221   7.396 -0.6296  2.1442  0.7900
  559MOL0     H73763  -2.625   2.226   7.269  0.0364  1.2464 -2.6456
  559MOL0     H73764  -2.661   2.440   7.203  0.3832  0.5060  2.0353
  559MOL0     H73765  -2.751   2.486   7.334  2.3967  0.9203  0.0443
  559MOL0     H73766  -2.852   2.282   7.126  1.7101 -1.0033  1.3265
  559MOL0     H73767  -2.943   2.305   7.282  0.2597 -1.0434  0.2022
  559MOL0     H73768  -2.910   2.516   7.061  1.7258  0.0240 -0.2394
  559MOL0     H73769  -2.950   2.562   7.232 -1.4072 -1.3751  1.7174
  559MOL0     H73770  -1.996   2.233   7.514  0.0030  0.0430 -1.9064
  559MOL0     H73771  -1.784   2.257   7.559  2.6642  0.8095  1.5134
  559MOL0     H73772  -1.437   2.618   7.547  0.1255  0.3033  0.6735
  559MOL0     H73773  -1.202   2.681   7.631  0.3388 -0.7307 -0.1074
  559MOL0     H73774   0.873   2.475   7.848 -1.0367  0.4322 -0.5718
  559MOL0     H73775   1.124   2.453   7.803 -0.2960  0.8357 -1.8070
  559MOL0     H73776   1.541   2.524   7.782 -1.1342  0.0949  0.7917
  559MOL0     H73777   1.769   2.555   7.721  0.5463 -0.1302 -0.5984
  559MOL0     H73778   2.067   2.670   8.057 -1.4538 -0.0113  1.4568
  559MOL0     H73779   1.999   2.808   7.969  3.0871  1.0626  3.3002
  559MOL0     H73780   2.209   2.824   7.963 -1.5141 -0.3531  1.4037
  559MOL0     H73781   2.247   2.674   7.901  1.0171  0.8278 -1.1178
  559MOL0     H73782   2.096   2.891   7.745 -1.7214 -1.7903  1.3313
  559MOL0     H73783   2.118   2.734   7.679 -3.1850  0.6127  2.6357
  559MOL0     H73784   2.349   2.922   7.779 -0.5068  0.3241  0.8366
  559MOL0     H73785   2.380   2.776   7.692  0.7235  1.0607  0.7800
  559MOL0     H73786   2.287   3.025   7.375 -1.8921  2.7240  1.9109
  559MOL0     H73787   1.841   2.716   8.123 -2.3435  0.0517  3.6728
  559MOL0     H73788   1.600   2.689   8.167 -1.1521 -1.3715 -0.5917
  560MOL0     O73789   6.368   9.569   9.095  0.4907 -0.3453 -0.7159
  560MOL0     C73790   6.450   9.595   9.002  0.5679 -0.1984  0.6183
  560MOL0     O73791   6.411   9.618   8.873  0.8760  0.2172 -0.0698
  560MOL0     C73792   6.275   9.601   8.834  0.4109 -0.1468 -0.0160
  560MOL0     C73793   6.226   9.680   8.732  0.2585  0.1964 -0.2048
  560MOL0     C73794   6.096   9.672   8.676 -0.4159  0.4160 -0.4501
  560MOL0     C73795   6.004   9.588   8.732 -0.3510  0.4132  0.2810
  560MOL0     O73796   5.875   9.570   8.695  0.7439  0.4900 -0.1506
  560MOL0     C73797   5.802   9.679   8.644  0.6219  0.0239  0.0164
  560MOL0     C73798   5.664   9.629   8.616 -0.5261  0.0867  0.6498
  560MOL0     C73799   5.670   9.504   8.534 -0.6795  1.1027  0.6674
  560MOL0     C73800   5.538   9.445   8.489 -0.1041 -0.4325 -0.1427
  560MOL0     C73801   5.532   9.334   8.381 -0.8185  0.3014  0.1199
  560MOL0     C73802   5.381   9.323   8.344 -0.4597  0.1943  0.3723
  560MOL0     C73803   5.379   9.199   8.250 -0.4451 -0.1960  0.3435
  560MOL0     C73804   5.247   9.176   8.173 -0.2680  0.3943  0.3490
  560MOL0     N73805   5.130   9.138   8.257 -0.6305 -0.0386  1.0937
  560MOL0     C73806   5.106   9.046   8.358 -0.2976 -0.4050 -0.2782
  560MOL0     C73807   4.973   9.056   8.391 -0.0349  0.3372 -0.1888
  560MOL0     C73808   4.888   8.992   8.498 -0.0440  0.6928  0.5828
  560MOL0     C73809   4.770   8.915   8.442 -0.5695  0.2017 -0.3642
  560MOL0     C73810   4.665   8.872   8.549 -0.6143  0.4760  0.9589
  560MOL0     C73811   4.560   8.784   8.477 -0.0739 -0.1463  0.0067
  560MOL0     O73812   4.495   8.855   8.372 -0.6360 -0.3646  1.3078
  560MOL0     C73813   4.377   8.922   8.386 -0.8512  0.0245 -0.2700
  560MOL0     C73814   4.328   8.979   8.262  0.2579 -0.1181 -0.2595
  560MOL0     C73815   4.195   9.020   8.257  0.4167  0.6838  0.1427
  560MOL0     C73816   4.131   9.047   8.386 -0.0092  0.0819  0.1603
  560MOL0     C73817   3.994   9.102   8.382 -0.6329 -0.0683 -0.3295
  560MOL0     O73818   3.929   9.129   8.502 -0.2255 -0.4370 -0.3337
  560MOL0     C73819   3.816   9.196   8.503 -0.7865 -0.1947  0.1183
  560MOL0     C73820   3.810   9.339   8.477  1.0220  0.8342  0.4737
  560MOL0     C73821   3.689   9.402   8.459  0.1708  0.3280  0.7599
  560MOL0     C73822   3.564   9.328   8.475 -0.9122 -0.8573 -0.2762
  560MOL0     O73823   3.443   9.399   8.463 -0.3347 -0.0471 -0.1439
  560MOL0     C73824   3.423   9.513   8.552 -0.3199 -0.1900  0.6038
  560MOL0     C73825   3.384   9.472   8.692 -0.4953 -0.2417  0.4358
  560MOL0     C73826   3.245   9.413   8.711  0.4329  0.3306 -0.2679
  560MOL0     C73827   3.125   9.483   8.644 -0.2179  0.3714  0.5700
  560MOL0     C73828   3.009   9.428   8.714  0.7883  0.4249  0.3764
  560MOL0     C73829   2.879   9.467   8.635  0.6020 -0.9004  0.5673
  560MOL0     C73830   2.757   9.382   8.677 -0.7558 -0.4103  0.0449
  560MOL0     C73831   2.715   9.399   8.825 -0.5970  0.0012  0.3549
  560MOL0    Cl73832   2.676   9.565   8.865  0.1455  0.0772  0.4327
  560MOL0     C73833   3.571   9.196   8.510 -0.1598 -1.1782 -0.2725
  560MOL0     C73834   3.699   9.130   8.519 -0.2100 -0.3202  0.0917
  560MOL0     O73835   3.945   9.122   8.271  0.2318  0.1420 -0.3656
  560MOL0     C73836   4.184   8.998   8.506  0.5135  0.9164 -0.4969
  560MOL0     C73837   4.306   8.926   8.505 -0.3112  0.1424  0.5036
  560MOL0     N73838   4.924   9.172   8.322 -0.6296  0.6521  0.0713
  560MOL0     N73839   5.011   9.206   8.233 -0.5147  0.2357 -0.0515
  560MOL0     C73840   6.048   9.505   8.837  0.3543 -0.7137  0.3175
  560MOL0     C73841   6.183   9.511   8.884  0.3382 -0.0824  0.2563
  560MOL0     C73842   6.596   9.595   9.017  0.9316  0.2647 -0.3193
  560MOL0     C73843   6.681   9.629   8.903  0.3781  1.1992  0.2819
  560MOL0     C73844   6.821   9.619   8.931  0.1147  0.2970  0.0808
  560MOL0     C73845   6.878   9.597   9.053 -1.0652 -0.2067  0.7140
  560MOL0     O73846   7.015   9.600   9.064 -0.6508  0.1147 -0.5338
  560MOL0     C73847   7.061   9.725   9.124  0.1332 -0.2966 -0.0461
  560MOL0     C73848   7.192   9.699   9.193 -0.1443 -0.3384 -1.0593
  560MOL0     C73849   7.300   9.638   9.098 -0.3134 -0.9853 -1.5644
  560MOL0     C73850   7.431   9.627   9.177  0.0854  0.8595 -0.6058
  560MOL0     C73851   7.526   9.564   9.085  0.2892 -0.4202 -0.0806
  560MOL0     C73852   7.605   9.518   9.008 -0.7117 -0.0315 -0.0240
  560MOL0     C73853   6.788   9.553   9.150  0.2362  0.4705 -0.9140
  560MOL0     C73854   6.649   9.556   9.137 -0.1323  0.5130  0.0349
  560MOL0     H73855   6.297   9.745   8.681  5.2063 -3.7927  0.7387
  560MOL0     H73856   6.069   9.738   8.594 -0.9450  0.2300 -0.4262
  560MOL0     H73857   5.841   9.711   8.547 -0.1387  2.0447  0.3235
  560MOL0     H73858   5.796   9.765   8.710 -0.3527 -0.7890  1.0264
  560MOL0     H73859   5.619   9.707   8.555 -1.3246 -1.2895 -0.6090
  560MOL0     H73860   5.598   9.626   8.703 -0.0582  0.3343  1.0184
  560MOL0     H73861   5.731   9.434   8.593  1.3098  3.3055  1.3866
  560MOL0     H73862   5.721   9.530   8.440 -1.1392 -2.8973 -0.9238
  560MOL0     H73863   5.495   9.403   8.580  0.4035 -1.2442 -0.2671
  560MOL0     H73864   5.481   9.529   8.449  1.1580  0.7229  0.4362
  560MOL0     H73865   5.552   9.244   8.439 -2.4083 -0.2248 -0.0979
  560MOL0     H73866   5.604   9.343   8.299 -1.6289 -0.5248 -0.7141
  560MOL0     H73867   5.356   9.419   8.297 -0.6566  1.0995  2.2354
  560MOL0     H73868   5.324   9.296   8.433  1.6570 -0.8028  1.5081
  560MOL0     H73869   5.465   9.198   8.182  0.1959  4.7060  0.7503
  560MOL0     H73870   5.395   9.123   8.327 -0.7925  0.1961  0.8055
  560MOL0     H73871   5.269   9.096   8.102 -0.5879 -0.5678  1.3035
  560MOL0     H73872   5.226   9.271   8.122 -0.6988  0.0425 -0.1332
  560MOL0     H73873   5.177   8.976   8.402 -2.0808 -3.0838 -1.3972
  560MOL0     H73874   4.852   9.072   8.563 -2.6661 -0.3053  0.5006
  560MOL0     H73875   4.946   8.917   8.554 -1.3664  0.2242  1.3728
  560MOL0     H73876   4.810   8.830   8.386 -2.0465  0.0029 -1.1810
  560MOL0     H73877   4.722   8.989   8.378 -1.5229  0.9627  1.1475
  560MOL0     H73878   4.725   8.804   8.610  3.1318  1.0659 -1.6619
  560MOL0     H73879   4.629   8.969   8.584  4.2470  2.8520  0.2973
  560MOL0     H73880   4.494   8.749   8.558  2.7630 -4.6693  0.6754
  560MOL0     H73881   4.607   8.693   8.439  2.8393  1.0546  0.5238
  560MOL0     H73882   4.387   8.971   8.171  2.5016 -1.1005  1.1874
  560MOL0     H73883   4.153   9.040   8.159 -3.2185  0.0273  1.4337
  560MOL0     H73884   3.898   9.400   8.459 -0.3379  3.0442  1.0367
  560MOL0     H73885   3.689   9.505   8.427  0.9426  0.1088  0.0202
  560MOL0     H73886   3.346   9.576   8.507 -0.8945 -0.0489  1.7457
  560MOL0     H73887   3.519   9.564   8.559  0.2415 -1.3364  1.8274
  560MOL0     H73888   3.390   9.568   8.743 -0.3349 -0.3468  0.6162
  560MOL0     H73889   3.448   9.404   8.750  1.9423  2.1582  0.7866
  560MOL0     H73890   3.222   9.410   8.818 -1.9632  2.0870 -0.6524
  560MOL0     H73891   3.243   9.312   8.669  1.2553  0.2825 -0.2152
  560MOL0     H73892   3.119   9.589   8.672  0.3370  0.5173  0.1541
  560MOL0     H73893   3.120   9.466   8.536  0.9218 -0.9775  0.7033
  560MOL0     H73894   3.007   9.451   8.821  1.5008  0.3634  0.4079
  560MOL0     H73895   3.014   9.319   8.713 -0.7547  0.2719 -2.4015
  560MOL0     H73896   2.899   9.471   8.528  3.5028 -0.3036  1.0460
  560MOL0     H73897   2.869   9.572   8.664  3.0913 -1.1836  2.8108
  560MOL0     H73898   2.670   9.413   8.618 -0.1673  1.6091  0.1687
  560MOL0     H73899   2.781   9.277   8.653  3.0131  0.3851 -0.2621
  560MOL0     H73900   2.796   9.362   8.889 -0.4394 -1.2792 -0.5314
  560MOL0     H73901   2.628   9.335   8.840  0.4812 -1.1843  1.7756
  560MOL0     H73902   3.485   9.136   8.535 -1.0215  0.8354  1.9653
  560MOL0     H73903   3.702   9.031   8.564 -1.6695 -0.1448  0.6332
  560MOL0     H73904   4.127   9.019   8.596 -0.7846  2.1741 -1.5652
  560MOL0     H73905   4.328   8.882   8.602  3.7281  2.2219  0.7024
  560MOL0     H73906   5.986   9.434   8.890  1.5096 -1.7991  0.2693
  560MOL0     H73907   6.213   9.436   8.956  1.0744 -2.1961 -2.1112
  560MOL0     H73908   6.642   9.659   8.806 -1.6241 -0.0790  0.6175
  560MOL0     H73909   6.897   9.639   8.856  1.3707  1.1844  1.5338
  560MOL0     H73910   6.990   9.772   9.193  1.5602  1.1679  0.5052
  560MOL0     H73911   7.070   9.797   9.042  0.0490 -0.1494  0.0734
  560MOL0     H73912   7.234   9.792   9.232  1.5455 -0.5715 -2.2279
  560MOL0     H73913   7.170   9.628   9.273 -3.3485  2.5495  0.9224
  560MOL0     H73914   7.316   9.712   9.019  0.0463  1.3531  0.5514
  560MOL0     H73915   7.264   9.542   9.061  1.0100 -1.3339 -1.9992
  560MOL0     H73916   7.466   9.724   9.214  2.0810 -1.0458  3.1371
  560MOL0     H73917   7.420   9.563   9.266 -1.3530  1.2260 -0.4920
  560MOL0     H73918   7.658   9.474   8.927 -0.2145 -0.9342  0.7681
  560MOL0     H73919   6.833   9.541   9.248  1.0575 -0.8550 -1.4159
  560MOL0     H73920   6.591   9.547   9.229  2.9214 -2.0681  1.9376
  561MOL0     O73921   4.781   7.844   4.981  0.2940 -0.8733  0.1025
  561MOL0     C73922   4.796   7.937   4.900 -0.2588 -0.3044  0.1494
  561MOL0     O73923   4.897   8.032   4.908 -0.4585 -0.5990 -0.4976
  561MOL0     C73924   4.974   8.041   5.021 -0.4410 -0.5580 -0.4242
  561MOL0     C73925   5.111   8.042   4.996  0.7548 -0.1198 -0.1122
  561MOL0     C73926   5.211   8.065   5.100 -0.7797 -0.0497 -0.2171
  561MOL0     C73927   5.165   8.091   5.230 -0.7323 -0.6101 -0.4888
  561MOL0     O73928   5.232   8.128   5.343  0.3580 -0.0022  0.4551
  561MOL0     C73929   5.361   8.186   5.328 -0.6285  0.0322  0.0492
  561MOL0     C73930   5.446   8.163   5.459  0.4321  0.7044  0.0639
  561MOL0     C73931   5.430   8.010   5.501  0.6855  0.0343 -0.0128
  561MOL0     C73932   5.538   7.963   5.604  0.4120 -0.2646  0.5775
  561MOL0     C73933   5.672   7.929   5.534  0.0487  0.4242  0.4792
  561MOL0     C73934   5.787   7.923   5.636  0.7464  0.4394  0.9775
  561MOL0     C73935   5.775   7.819   5.744  0.5981  0.5131 -0.0104
  561MOL0     C73936   5.913   7.766   5.797  0.0564 -0.0888  0.0372
  561MOL0     N73937   6.004   7.864   5.858 -0.2532 -0.5763 -0.3969
  561MOL0     C73938   6.024   7.900   5.985  0.4357  0.7664  0.3779
  561MOL0     C73939   6.134   7.969   5.990  0.2065 -0.9578 -0.0294
  561MOL0     C73940   6.216   8.020   6.105 -0.3129  0.1905  0.4191
  561MOL0     C73941   6.178   8.171   6.113 -0.4938  0.1578 -0.7255
  561MOL0     C73942   6.284   8.240   6.197 -0.1090  0.1153  0.2664
  561MOL0     C73943   6.341   8.170   6.311 -0.5717 -0.1243 -0.8537
  561MOL0     O73944   6.448   8.075   6.295 -0.9360  0.3578 -0.7174
  561MOL0     C73945   6.567   8.122   6.239 -0.5426 -0.1301  0.5025
  561MOL0     C73946   6.654   8.027   6.179  0.1512  1.4120  0.1260
  561MOL0     C73947   6.785   8.057   6.130  0.3438  0.4688 -0.1235
  561MOL0     C73948   6.827   8.188   6.143  0.5228 -0.1051 -0.6987
  561MOL0     C73949   6.955   8.235   6.098  0.4629  0.3430 -1.2579
  561MOL0     O73950   6.966   8.357   6.058 -0.0780 -0.3847 -0.0250
  561MOL0     C73951   7.092   8.408   6.030  0.2381  0.4447 -0.5766
  561MOL0     C73952   7.189   8.340   5.948 -0.9583  0.5023 -0.9371
  561MOL0     C73953   7.313   8.406   5.909  0.4198 -0.3982  0.0702
  561MOL0     C73954   7.340   8.537   5.952  0.6230 -0.2055 -0.7700
  561MOL0     O73955   7.449   8.600   5.908 -0.9046 -0.9338 -0.7525
  561MOL0     C73956   7.548   8.585   6.017  0.5430  0.4111 -0.2921
  561MOL0     C73957   7.685   8.639   5.988 -0.2367 -0.3795  0.5845
  561MOL0     C73958   7.766   8.558   5.884 -0.3709 -0.0366  0.6643
  561MOL0     C73959   7.902   8.639   5.877  0.0583 -0.0781 -0.1441
  561MOL0     C73960   7.993   8.555   5.798  0.2458  0.2464  1.2200
  561MOL0     C73961   8.112   8.635   5.745  0.5145  0.3852  0.8235
  561MOL0     C73962   8.209   8.546   5.663  0.5864  0.4677 -0.3852
  561MOL0     C73963   8.327   8.620   5.631 -0.1171  0.1411  0.1226
  561MOL0    Cl73964   8.465   8.612   5.749  0.7602  0.0543 -0.2248
  561MOL0     C73965   7.243   8.600   6.036 -0.3526  0.0048  0.2856
  561MOL0     C73966   7.118   8.532   6.070 -1.4591  0.2381  0.8366
  561MOL0     O73967   7.046   8.152   6.102  0.4687  0.5808  0.3909
  561MOL0     C73968   6.741   8.291   6.192 -1.0875 -0.0668  0.2057
  561MOL0     C73969   6.614   8.251   6.242 -0.8837 -0.3937  0.6319
  561MOL0     N73970   6.179   7.987   5.861 -0.3575  1.2778  0.1653
  561MOL0     N73971   6.100   7.926   5.781 -0.6453  0.6622  0.4180
  561MOL0     C73972   5.029   8.066   5.253  0.6331 -0.1050  0.0725
  561MOL0     C73973   4.932   8.048   5.152  0.2945 -1.1998 -0.2184
  561MOL0     C73974   4.707   7.949   4.784 -0.4732  0.1797  0.3984
  561MOL0     C73975   4.689   8.075   4.725 -0.1397  0.2069  0.1537
  561MOL0     C73976   4.610   8.096   4.618 -0.2656  0.0017  0.7239
  561MOL0     C73977   4.543   7.990   4.560  0.0393  1.7566  0.4073
  561MOL0     O73978   4.446   7.998   4.470  0.0953  0.4936  0.1814
  561MOL0     C73979   4.358   8.110   4.482  0.0375 -0.3250 -0.4347
  561MOL0     C73980   4.257   8.099   4.364 -0.2485 -0.5085  0.1420
  561MOL0     C73981   4.149   8.206   4.378 -0.0256  0.2505 -0.1586
  561MOL0     C73982   4.045   8.186   4.489  0.4203 -0.7031  0.3707
  561MOL0     C73983   3.919   8.149   4.427 -0.5151  0.0068  0.0151
  561MOL0     C73984   3.815   8.108   4.371  0.8223  0.1909  0.0146
  561MOL0     C73985   4.547   7.864   4.622  0.3631  0.3230 -1.1341
  561MOL0     C73986   4.633   7.835   4.736  0.3785  0.5307  0.7857
  561MOL0     H73987   5.131   8.015   4.893 -0.7859 -2.1959  0.0629
  561MOL0     H73988   5.314   8.080   5.069  0.0564 -1.7931  1.5273
  561MOL0     H73989   5.354   8.293   5.305  1.4594  0.7691  2.3790
  561MOL0     H73990   5.413   8.134   5.247 -0.2974  1.9550 -1.0472
  561MOL0     H73991   5.414   8.226   5.542  3.5964  2.5806  0.0070
  561MOL0     H73992   5.548   8.190   5.431  0.5287 -1.2848 -1.8528
  561MOL0     H73993   5.440   7.950   5.410  1.1033  0.9310 -0.5833
  561MOL0     H73994   5.331   7.987   5.541 -0.4969  1.6543 -1.7847
  561MOL0     H73995   5.549   8.030   5.690 -2.1350  0.9943  0.0231
  561MOL0     H73996   5.501   7.869   5.645  1.4856 -1.0951 -0.3066
  561MOL0     H73997   5.698   8.005   5.460  4.0174 -1.4024 -0.2888
  561MOL0     H73998   5.655   7.835   5.480 -1.6118  1.4662 -0.8998
  561MOL0     H73999   5.786   8.022   5.683 -0.4879  1.3947 -0.9293
  561MOL0     H74000   5.875   7.921   5.570 -1.1970  0.7595 -1.7731
  561MOL0     H74001   5.727   7.863   5.832  1.0417 -2.4702  1.8598
  561MOL0     H74002   5.717   7.732   5.712  2.0103  0.0481 -1.4327
  561MOL0     H74003   5.965   7.722   5.712 -2.7676 -1.1370 -1.2619
  561MOL0     H74004   5.900   7.682   5.865  0.4113  0.2146  0.4869
  561MOL0     H74005   5.974   7.860   6.073 -3.2284 -2.8465 -2.9294
  561MOL0     H74006   6.322   8.015   6.080 -0.4401  0.5600 -0.2052
  561MOL0     H74007   6.186   7.972   6.199 -2.1065 -0.3526 -0.3872
  561MOL0     H74008   6.088   8.184   6.174  0.5051  3.0166  0.3007
  561MOL0     H74009   6.161   8.214   6.013  0.2269 -2.6662 -2.1778
  561MOL0     H74010   6.361   8.263   6.123 -2.6937  0.9532 -2.3789
  561MOL0     H74011   6.238   8.333   6.233 -0.3898 -0.1615  0.6226
  561MOL0     H74012   6.258   8.124   6.366  0.2569  1.3193  1.7837
  561MOL0     H74013   6.381   8.250   6.373  1.1815 -1.3762 -0.3002
  561MOL0     H74014   6.632   7.921   6.167  1.4805  1.0859  0.3691
  561MOL0     H74015   6.851   7.986   6.081  0.6563  1.1469 -0.7021
  561MOL0     H74016   7.174   8.241   5.904 -0.9951  0.2976 -0.4654
  561MOL0     H74017   7.386   8.361   5.842  1.0167 -0.4345  0.7333
  561MOL0     H74018   7.539   8.486   6.063  0.8687  0.5877  0.1538
  561MOL0     H74019   7.519   8.656   6.095  1.4452 -1.8216  2.2628
  561MOL0     H74020   7.733   8.656   6.085  2.8404  2.2038 -1.1841
  561MOL0     H74021   7.668   8.738   5.945 -2.3613 -1.5688 -1.5177
  561MOL0     H74022   7.716   8.559   5.787  3.2444 -2.3252 -1.4508
  561MOL0     H74023   7.778   8.453   5.915 -1.8091 -0.0478  1.2825
  561MOL0     H74024   7.873   8.732   5.826  1.3237  0.2563 -0.2841
  561MOL0     H74025   7.937   8.655   5.980 -2.8652  2.3876  0.6136
  561MOL0     H74026   7.952   8.506   5.709  3.2564  1.5176 -1.0565
  561MOL0     H74027   8.028   8.476   5.864  2.5485 -1.1449 -1.4556
  561MOL0     H74028   8.153   8.691   5.829 -0.4590  3.0349 -0.3462
  561MOL0     H74029   8.071   8.716   5.683  1.2438  1.6911  1.9961
  561MOL0     H74030   8.240   8.461   5.724  5.0570  2.7178  0.9664
  561MOL0     H74031   8.158   8.504   5.577 -1.1261  2.8532 -0.6253
  561MOL0     H74032   8.305   8.725   5.611 -2.8065 -0.8112 -2.6551
  561MOL0     H74033   8.358   8.581   5.533 -2.1218  0.5812 -0.7332
  561MOL0     H74034   7.254   8.704   6.065 -3.7319  0.1639  1.4411
  561MOL0     H74035   7.047   8.590   6.128 -1.2145  0.2908  1.0890
  561MOL0     H74036   6.767   8.396   6.204 -0.3854 -0.4062  1.9743
  561MOL0     H74037   6.548   8.329   6.278  2.0403  3.0085 -0.6838
  561MOL0     H74038   4.994   8.084   5.354  0.7048  0.4635  0.0011
  561MOL0     H74039   4.830   8.054   5.189  1.3157  1.1745  2.6411
  561MOL0     H74040   4.737   8.162   4.768 -1.3949  2.1002 -2.0286
  561MOL0     H74041   4.611   8.196   4.577  1.5437  0.3063  1.4047
  561MOL0     H74042   4.402   8.208   4.465  0.9523 -0.6757 -0.1556
  561MOL0     H74043   4.308   8.114   4.579  3.3064  0.7818  1.3658
  561MOL0     H74044   4.313   8.106   4.271 -1.5464  0.8303 -0.5952
  561MOL0     H74045   4.204   8.003   4.362  0.8473 -1.1250  0.3158
  561MOL0     H74046   4.108   8.242   4.283  1.0553  3.1811  0.3821
  561MOL0     H74047   4.193   8.303   4.400  1.1532 -0.1537 -0.6223
  561MOL0     H74048   4.079   8.121   4.569 -0.8793 -0.4775  1.1264
  561MOL0     H74049   4.015   8.283   4.530 -0.0717 -1.0001  0.7284
  561MOL0     H74050   3.735   8.094   4.301 -0.4617  1.4301  1.1769
  561MOL0     H74051   4.479   7.789   4.585  0.7580 -0.7022  0.1382
  561MOL0     H74052   4.630   7.740   4.790  2.5633 -0.2704 -0.3722
  562MOL0     O74053  10.099   0.060   8.740 -0.1629  0.3845  0.0492
  562MOL0     C74054  10.150   0.146   8.668 -0.0489 -0.2225 -0.2267
  562MOL0     O74055  10.108   0.267   8.648 -0.1248  0.7841 -0.8036
  562MOL0     C74056   9.980   0.289   8.676 -0.3764  0.8532 -0.1637
  562MOL0     C74057   9.875   0.286   8.580  0.6002 -0.2288  0.3371
  562MOL0     C74058   9.746   0.338   8.610  0.4520  0.3186 -0.2119
  562MOL0     C74059   9.722   0.382   8.739  0.3354 -0.1308  0.1431
  562MOL0     O74060   9.599   0.402   8.794 -0.2721 -0.9517 -0.3135
  562MOL0     C74061   9.493   0.340   8.719 -0.3763  0.0052  0.7382
  562MOL0     C74062   9.364   0.369   8.789  0.1366 -0.0913  0.6024
  562MOL0     C74063   9.239   0.373   8.695 -0.0831 -0.2283 -0.8746
  562MOL0     C74064   9.224   0.242   8.633 -1.2643 -0.0057  0.6972
  562MOL0     C74065   9.106   0.222   8.540 -0.2242 -0.6856  0.2581
  562MOL0     C74066   9.116   0.311   8.414  0.4206  0.0956 -0.4551
  562MOL0     C74067   8.990   0.296   8.326 -0.5734 -0.5720 -0.4521
  562MOL0     C74068   8.999   0.379   8.197 -0.0427 -0.3177 -0.2228
  562MOL0     N74069   9.116   0.346   8.113  0.1882 -0.1093 -0.3057
  562MOL0     C74070   9.157   0.424   8.003  0.2634  0.1138  0.8009
  562MOL0     C74071   9.265   0.359   7.953  0.2357 -0.2191 -0.7004
  562MOL0     C74072   9.338   0.407   7.833 -0.6413  0.1248  0.2117
  562MOL0     C74073   9.426   0.517   7.860  0.6509 -0.0834  0.1561
  562MOL0     C74074   9.445   0.607   7.740 -0.1532  0.1271  0.4369
  562MOL0     C74075   9.526   0.741   7.757 -0.8637  0.3093  0.2694
  562MOL0     O74076   9.659   0.712   7.773 -0.0169 -0.3464 -0.6499
  562MOL0     C74077   9.739   0.683   7.667 -0.1594  0.2350  0.6756
  562MOL0     C74078   9.838   0.601   7.712 -0.3812  0.0853 -0.1679
  562MOL0     C74079   9.944   0.562   7.627  0.5895  0.7044 -0.7792
  562MOL0     C74080   9.939   0.590   7.489 -0.0092  0.1068  0.2256
  562MOL0     C74081  10.030   0.543   7.387 -0.1329  0.3177 -0.5788
  562MOL0     O74082  10.115   0.440   7.418 -0.3876  0.7629 -0.0481
  562MOL0     C74083  10.203   0.411   7.321  0.0647  0.9170 -0.2436
  562MOL0     C74084  10.310   0.494   7.288 -0.0867  0.0060  0.9397
  562MOL0     C74085  10.400   0.456   7.193  0.0272 -0.0799  0.7009
  562MOL0     C74086  10.393   0.336   7.126  0.8050 -0.6679 -0.6414
  562MOL0     O74087  10.493   0.323   7.035 -0.3630 -0.0304 -0.6429
  562MOL0     C74088  10.457   0.277   6.902 -1.0362 -0.2065  0.6792
  562MOL0     C74089  10.370   0.381   6.828 -0.3819  0.3380  0.0531
  562MOL0     C74090  10.442   0.510   6.784  0.4421 -0.2015  0.4500
  562MOL0     C74091  10.351   0.603   6.712 -0.6740 -0.2124 -0.1975
  562MOL0     C74092  10.369   0.743   6.772  0.2326 -0.7178  0.5803
  562MOL0     C74093  10.271   0.843   6.718  0.4967  0.3667  0.4440
  562MOL0     C74094  10.297   0.990   6.773  0.0449  1.3701 -0.3644
  562MOL0     C74095  10.187   1.076   6.724  1.5201 -1.1762  0.1328
  562MOL0    Cl74096  10.202   1.088   6.543 -0.1541  0.1482 -0.0627
  562MOL0     C74097  10.272   0.267   7.138 -0.6455  0.2256 -0.7450
  562MOL0     C74098  10.181   0.302   7.239 -0.6541 -0.6420 -0.7527
  562MOL0     O74099  10.021   0.595   7.279 -0.0213  0.6984  0.9974
  562MOL0     C74100   9.832   0.671   7.443 -0.7963 -0.7698  0.9488
  562MOL0     C74101   9.726   0.717   7.530 -0.7245  1.6442  0.7395
  562MOL0     N74102   9.282   0.253   8.028  0.5675  1.2961 -0.3158
  562MOL0     N74103   9.191   0.239   8.125 -0.4123 -0.3642 -0.1324
  562MOL0     C74104   9.829   0.401   8.823  1.4066 -0.2940  0.6699
  562MOL0     C74105   9.954   0.353   8.797 -0.0071  0.0622 -0.2014
  562MOL0     C74106  10.287   0.102   8.632  0.7157 -0.1688  0.7170
  562MOL0     C74107  10.324   0.125   8.491  0.5861  0.1658  0.5179
  562MOL0     C74108  10.450   0.084   8.442  0.3807 -0.5714 -0.2592
  562MOL0     C74109  10.539   0.020   8.528 -0.1458  0.0564  1.0270
  562MOL0     O74110  10.656  -0.032   8.492 -0.9276  0.6294  0.6488
  562MOL0     C74111  10.727   0.025   8.376  0.3365  0.9249 -0.5632
  562MOL0     C74112  10.850   0.092   8.422 -0.1473 -0.4626  1.0870
  562MOL0     C74113  10.944  -0.003   8.501 -0.3764 -0.1746  0.5401
  562MOL0     C74114  11.068   0.082   8.547  0.1649 -0.4985 -0.4512
  562MOL0     C74115  11.186  -0.005   8.537  1.0696  0.5255  0.2760
  562MOL0     C74116  11.276  -0.085   8.533 -0.5358  0.0033  0.1507
  562MOL0     C74117  10.500   0.000   8.657 -0.7865 -0.5723 -0.5005
  562MOL0     C74118  10.381   0.037   8.715 -0.4289  0.3062 -0.2545
  562MOL0     H74119   9.884   0.258   8.475 -2.0450 -0.7112  0.1663
  562MOL0     H74120   9.676   0.323   8.527  0.6849  0.0572 -0.3629
  562MOL0     H74121   9.510   0.232   8.714 -1.4643 -0.1353 -0.4915
  562MOL0     H74122   9.493   0.387   8.620  0.5222 -1.5925 -0.0723
  562MOL0     H74123   9.374   0.467   8.838 -4.2328  0.3935  0.8861
  562MOL0     H74124   9.357   0.293   8.868 -0.7186 -0.6747 -0.0244
  562MOL0     H74125   9.266   0.449   8.620  0.7442 -0.8502 -1.2255
  562MOL0     H74126   9.148   0.400   8.750  1.8347 -1.3200  3.2508
  562MOL0     H74127   9.323   0.220   8.592 -0.4159 -0.6709  2.9144
  562MOL0     H74128   9.211   0.168   8.713  0.9773  0.2000  1.3443
  562MOL0     H74129   9.019   0.249   8.599 -0.9833 -1.7201 -0.3454
  562MOL0     H74130   9.097   0.121   8.498 -1.3422  1.0720 -4.3107
  562MOL0     H74131   9.208   0.282   8.362 -0.3695  1.5539 -2.8002
  562MOL0     H74132   9.119   0.418   8.434 -0.4624 -0.2136  1.5443
  562MOL0     H74133   8.969   0.191   8.306 -0.1921 -0.6169 -0.6120
  562MOL0     H74134   8.903   0.337   8.379  0.8830  1.5721  0.4056
  562MOL0     H74135   9.008   0.486   8.219  3.9015  0.0152 -2.4640
  562MOL0     H74136   8.911   0.357   8.136  1.8884 -2.7040 -2.4004
  562MOL0     H74137   9.103   0.513   7.973 -2.7868 -1.4077  1.4208
  562MOL0     H74138   9.261   0.434   7.760 -2.4672  1.1052  2.3896
  562MOL0     H74139   9.388   0.319   7.793 -1.4378 -0.2949  0.1142
  562MOL0     H74140   9.525   0.473   7.875  1.7938  1.7231 -1.6395
  562MOL0     H74141   9.396   0.566   7.953  2.3526 -2.6625  2.2410
  562MOL0     H74142   9.490   0.550   7.658  0.9385  3.0446 -1.1536
  562MOL0     H74143   9.345   0.636   7.705 -0.7665 -0.6399  1.5343
  562MOL0     H74144   9.487   0.790   7.848 -0.7733 -0.6744  0.8485
  562MOL0     H74145   9.501   0.813   7.678  1.0322  0.5313 -0.1899
  562MOL0     H74146   9.844   0.582   7.818  1.9102  4.3179  0.6984
  562MOL0     H74147  10.033   0.508   7.657  2.8590  3.3583 -2.2548
  562MOL0     H74148  10.327   0.592   7.331  0.4486  0.8927 -1.1602
  562MOL0     H74149  10.489   0.512   7.167  0.8025 -1.3516  0.5257
  562MOL0     H74150  10.397   0.186   6.916  1.1408 -1.5402  2.0857
  562MOL0     H74151  10.549   0.255   6.847  0.7881 -0.4388  3.5982
  562MOL0     H74152  10.281   0.390   6.891 -1.4076 -2.7896 -0.7399
  562MOL0     H74153  10.343   0.342   6.729  1.5957 -0.3879 -0.2604
  562MOL0     H74154  10.533   0.495   6.725  0.2851  2.8452 -0.7065
  562MOL0     H74155  10.483   0.552   6.876 -1.1265 -0.2874  1.2058
  562MOL0     H74156  10.374   0.604   6.605 -1.6911  0.9091 -0.4186
  562MOL0     H74157  10.249   0.566   6.720  0.0941 -3.0714 -2.1004
  562MOL0     H74158  10.473   0.776   6.761  0.6012 -1.7498  0.8072
  562MOL0     H74159  10.347   0.743   6.879 -1.5603 -1.3598  0.2408
  562MOL0     H74160  10.169   0.816   6.746  0.6877  0.3079  1.0983
  562MOL0     H74161  10.283   0.845   6.609  1.4106 -3.4532  0.3140
  562MOL0     H74162  10.302   0.985   6.882  2.9913  1.7965 -0.4181
  562MOL0     H74163  10.398   1.027   6.754  0.9191 -0.1693  0.9959
  562MOL0     H74164  10.196   1.181   6.752  0.2647 -1.5196  1.9512
  562MOL0     H74165  10.084   1.050   6.753 -0.6130  3.9912 -1.5635
  562MOL0     H74166  10.252   0.183   7.073 -2.2643  0.8005 -1.0466
  562MOL0     H74167  10.086   0.253   7.255 -0.4824 -0.2779  1.6991
  562MOL0     H74168   9.828   0.693   7.337 -0.1811 -1.3718  0.7913
  562MOL0     H74169   9.643   0.773   7.488  1.5232  4.6261 -0.0956
  562MOL0     H74170   9.806   0.460   8.911 -2.3288 -0.3835 -0.0991
  562MOL0     H74171  10.035   0.382   8.863 -2.4418  4.4761  1.2529
  562MOL0     H74172  10.248   0.170   8.428  1.0484 -0.1433 -0.2682
  562MOL0     H74173  10.463   0.086   8.334  0.8042 -1.8291 -0.2550
  562MOL0     H74174  10.676   0.099   8.314 -2.4724 -0.6451 -0.2968
  562MOL0     H74175  10.764  -0.056   8.313  0.9045  2.1878 -1.9352
  562MOL0     H74176  10.901   0.117   8.329 -1.1926 -2.1713 -0.0167
  562MOL0     H74177  10.826   0.180   8.481  0.9097 -0.0171  0.8753
  562MOL0     H74178  10.972  -0.076   8.425 -0.2571 -0.8585  1.2333
  562MOL0     H74179  10.890  -0.057   8.579  0.0799  0.4041  1.2727
  562MOL0     H74180  11.080   0.166   8.479  0.5427  1.7121  2.1553
  562MOL0     H74181  11.043   0.117   8.648 -4.9883 -1.7849 -0.9687
  562MOL0     H74182  11.356  -0.156   8.542  0.0637  0.5033 -0.9602
  562MOL0     H74183  10.570  -0.040   8.730  0.3918  2.4952  0.2080
  562MOL0     H74184  10.372   0.026   8.822  1.3198  0.6039 -0.0413
  563MOL0     O74185   3.835   6.767   7.919  0.2608  0.4694 -0.0610
  563MOL0     C74186   3.817   6.696   7.820  0.5469  1.5839 -0.2645
  563MOL0     O74187   3.702   6.670   7.763 -0.2556 -1.2281  0.2256
  563MOL0     C74188   3.597   6.771   7.782 -0.6179  0.1952 -0.8390
  563MOL0     C74189   3.615   6.903   7.739  0.0382 -0.1617  0.1876
  563MOL0     C74190   3.510   6.991   7.757  0.0050  0.4290  0.2028
  563MOL0     C74191   3.384   6.949   7.807 -0.3691 -0.1610 -0.0524
  563MOL0     O74192   3.268   7.022   7.835  0.2370  0.0718 -0.8396
  563MOL0     C74193   3.289   7.160   7.861  0.0468 -0.0541 -0.4374
  563MOL0     C74194   3.161   7.225   7.924 -0.5590  0.6500 -0.2671
  563MOL0     C74195   3.040   7.231   7.829  1.2171 -0.3510 -0.3135
  563MOL0     C74196   2.925   7.238   7.921  0.6848  0.0451  0.6045
  563MOL0     C74197   2.795   7.250   7.843  0.7367  0.4403 -0.7429
  563MOL0     C74198   2.670   7.263   7.941  0.3299 -0.4979 -0.1697
  563MOL0     C74199   2.533   7.266   7.875  0.1937  0.0892  0.6318
  563MOL0     C74200   2.406   7.338   7.948  0.2463  0.4920  0.6520
  563MOL0     N74201   2.392   7.291   8.087 -0.8396 -0.3149 -0.4018
  563MOL0     C74202   2.471   7.320   8.195  0.9991 -0.4631 -0.9366
  563MOL0     C74203   2.446   7.215   8.277 -0.0368  0.3220  0.2360
  563MOL0     C74204   2.522   7.208   8.400 -0.2929 -0.0845  0.7054
  563MOL0     C74205   2.425   7.178   8.517 -0.8846 -0.0928  0.4063
  563MOL0     C74206   2.494   7.175   8.656 -0.7570 -0.3069  0.3559
  563MOL0     C74207   2.399   7.163   8.766 -0.1361 -0.3406  0.3797
  563MOL0     O74208   2.360   7.026   8.776  0.4751  0.3241 -0.1614
  563MOL0     C74209   2.269   6.977   8.870  1.2158  0.4692  0.2639
  563MOL0     C74210   2.185   7.065   8.939  0.0744 -0.9152  0.7711
  563MOL0     C74211   2.081   7.022   9.015 -0.6297 -0.8651 -0.2095
  563MOL0     C74212   2.069   6.888   9.037 -0.0497 -0.8978 -0.4686
  563MOL0     C74213   1.963   6.824   9.120 -0.9350  0.3723  0.4668
  563MOL0     O74214   1.984   6.691   9.151  0.4998 -0.2345  0.4513
  563MOL0     C74215   1.889   6.609   9.199  0.5105 -1.1260  0.8342
  563MOL0     C74216   1.924   6.475   9.185 -0.1735  0.2196 -0.2442
  563MOL0     C74217   1.836   6.380   9.234 -0.3265 -0.1354  0.3359
  563MOL0     C74218   1.711   6.410   9.289 -1.4622 -0.2808 -0.3273
  563MOL0     O74219   1.646   6.310   9.346 -0.0007 -0.7585 -0.6749
  563MOL0     C74220   1.537   6.340   9.437  0.0866 -0.3677 -0.3281
  563MOL0     C74221   1.460   6.227   9.484 -0.4809 -0.1932 -0.2766
  563MOL0     C74222   1.537   6.140   9.575  0.3905  0.1792 -0.0035
  563MOL0     C74223   1.472   6.006   9.580 -0.0700  0.1745  0.4129
  563MOL0     C74224   1.349   5.990   9.679 -0.1579 -0.1086 -0.9119
  563MOL0     C74225   1.288   5.847   9.703  0.5869 -0.0547  0.0512
  563MOL0     C74226   1.158   5.866   9.773  0.5884  0.0662 -0.5535
  563MOL0     C74227   1.161   5.920   9.920  0.0263  0.1268  0.1937
  563MOL0    Cl74228   1.217   5.792  10.022 -0.0040  0.1427 -0.0309
  563MOL0     C74229   1.668   6.541   9.276 -0.0799 -0.1232 -0.0165
  563MOL0     C74230   1.759   6.643   9.242 -0.3526 -0.1469 -0.4328
  563MOL0     O74231   1.861   6.891   9.141  0.4986  0.1068  0.8035
  563MOL0     C74232   2.158   6.794   8.974 -0.1831 -1.1614 -0.2736
  563MOL0     C74233   2.251   6.841   8.887  0.0755 -0.6890 -0.6680
  563MOL0     N74234   2.344   7.137   8.233  0.3890  0.0509  0.0228
  563MOL0     N74235   2.324   7.177   8.121 -0.6626 -0.3259  0.8795
  563MOL0     C74236   3.374   6.818   7.852  0.3585  0.1694  0.2918
  563MOL0     C74237   3.477   6.726   7.831 -0.2189  0.5760 -0.0348
  563MOL0     C74238   3.938   6.610   7.788  0.5769 -0.3799 -0.4797
  563MOL0     C74239   4.065   6.634   7.846  0.0341 -0.5835  0.2164
  563MOL0     C74240   4.178   6.559   7.819 -1.0606 -0.7278 -0.2931
  563MOL0     C74241   4.166   6.455   7.727 -0.8981 -0.5049 -0.1468
  563MOL0     O74242   4.283   6.383   7.699  0.0732 -0.1453  0.3390
  563MOL0     C74243   4.280   6.309   7.575 -0.4488  0.2768 -0.2469
  563MOL0     C74244   4.421   6.267   7.542 -0.4933 -0.0672 -0.4714
  563MOL0     C74245   4.501   6.389   7.485  0.6133  0.0426 -0.3949
  563MOL0     C74246   4.638   6.401   7.562  0.0803  0.9904 -0.2982
  563MOL0     C74247   4.631   6.449   7.689 -0.6485 -0.5677  0.0631
  563MOL0     C74248   4.613   6.493   7.803  0.7977 -0.0016 -0.2239
  563MOL0     C74249   4.046   6.438   7.665 -0.3363  1.1344 -0.3430
  563MOL0     C74250   3.928   6.508   7.698  0.3595  0.1596  0.1489
  563MOL0     H74251   3.713   6.934   7.706 -0.0595  1.6511  1.4277
  563MOL0     H74252   3.540   7.095   7.746  2.3792  0.1788  3.0304
  563MOL0     H74253   3.304   7.212   7.766 -1.1833  0.8448 -0.1754
  563MOL0     H74254   3.379   7.172   7.922 -1.4152 -0.5948  1.9533
  563MOL0     H74255   3.184   7.324   7.964 -1.3757  0.8782 -0.3586
  563MOL0     H74256   3.140   7.151   8.003 -2.8210  0.4800 -0.9591
  563MOL0     H74257   3.036   7.145   7.761  0.4664  1.8438 -3.2665
  563MOL0     H74258   3.068   7.309   7.757  1.7923  0.0654  0.3550
  563MOL0     H74259   2.911   7.143   7.975  1.8111 -0.4145  0.1289
  563MOL0     H74260   2.934   7.321   7.992 -2.6010  1.3163 -0.3014
  563MOL0     H74261   2.797   7.166   7.773  2.3928  1.4747 -1.9961
  563MOL0     H74262   2.791   7.345   7.790  0.7903  1.7351  1.4322
  563MOL0     H74263   2.670   7.359   7.995  2.6518 -0.1165 -0.7732
  563MOL0     H74264   2.675   7.176   8.007  2.7166  0.9776  1.7406
  563MOL0     H74265   2.535   7.322   7.781 -1.6759 -0.0030  0.4864
  563MOL0     H74266   2.504   7.164   7.848  1.3567  0.1376 -0.9240
  563MOL0     H74267   2.320   7.314   7.884 -0.9865  1.2878  1.9501
  563MOL0     H74268   2.415   7.447   7.942 -0.6126  0.7707  3.0447
  563MOL0     H74269   2.532   7.407   8.214 -0.7599  0.7058 -0.3711
  563MOL0     H74270   2.574   7.304   8.403  1.4385 -0.8911 -1.3505
  563MOL0     H74271   2.595   7.127   8.391  2.0355  1.7249  2.1095
  563MOL0     H74272   2.384   7.078   8.502 -0.1566 -0.4761  0.8976
  563MOL0     H74273   2.341   7.248   8.514 -1.7696 -1.1490 -1.3657
  563MOL0     H74274   2.568   7.094   8.654  0.1939  0.5412 -0.9576
  563MOL0     H74275   2.556   7.263   8.675 -1.6578  0.3697  0.1825
  563MOL0     H74276   2.312   7.224   8.741  1.2922  1.3195 -0.8171
  563MOL0     H74277   2.441   7.204   8.858 -0.2270 -0.2872  0.3985
  563MOL0     H74278   2.192   7.173   8.931 -0.2124 -0.8966  0.7648
  563MOL0     H74279   2.006   7.082   9.064 -0.4147 -0.3487 -0.5093
  563MOL0     H74280   2.019   6.445   9.142 -1.7245 -2.5898 -2.0829
  563MOL0     H74281   1.865   6.275   9.231 -1.3288 -0.4332  0.5337
  563MOL0     H74282   1.464   6.385   9.368  0.3454 -2.6329 -2.1942
  563MOL0     H74283   1.563   6.417   9.511 -1.3278  1.0151 -1.1867
  563MOL0     H74284   1.433   6.174   9.392  0.4701  0.2721 -0.8382
  563MOL0     H74285   1.363   6.256   9.526  0.1113  1.1927  0.1847
  563MOL0     H74286   1.535   6.190   9.672  0.3544 -1.5666  0.9423
  563MOL0     H74287   1.643   6.132   9.549  1.1576 -0.1301  2.9273
  563MOL0     H74288   1.429   5.976   9.484 -1.2329  0.3531  0.8686
  563MOL0     H74289   1.552   5.937   9.607 -0.8121 -1.4510 -1.3475
  563MOL0     H74290   1.270   6.061   9.651  1.1790  1.5271 -0.7238
  563MOL0     H74291   1.378   6.022   9.780  0.2874 -3.7067  0.2425
  563MOL0     H74292   1.365   5.797   9.762  1.3632  0.9636 -0.0766
  563MOL0     H74293   1.285   5.801   9.603  0.9771  2.0456 -0.9924
  563MOL0     H74294   1.100   5.928   9.704  0.1543  0.0206 -0.2345
  563MOL0     H74295   1.094   5.778   9.766  0.6288  0.0111 -0.2057
  563MOL0     H74296   1.056   5.951   9.930  0.5729  2.1759 -0.0118
  563MOL0     H74297   1.212   6.016   9.930 -1.1459  1.2221 -2.9843
  563MOL0     H74298   1.570   6.561   9.320  1.5447 -1.6293  4.9162
  563MOL0     H74299   1.718   6.742   9.253  0.2933  0.4722 -2.9260
  563MOL0     H74300   2.151   6.686   8.986 -2.8999 -1.0404 -0.1609
  563MOL0     H74301   2.315   6.779   8.824 -1.3133 -2.0868 -0.7458
  563MOL0     H74302   3.275   6.792   7.888  0.0881  4.1125  3.0396
  563MOL0     H74303   3.466   6.619   7.843 -1.7528  0.4374 -2.0787
  563MOL0     H74304   4.082   6.708   7.924  1.8827 -1.1228  0.3840
  563MOL0     H74305   4.269   6.586   7.871 -1.8681  0.3236  0.6351
  563MOL0     H74306   4.237   6.365   7.492 -3.0292 -1.3047 -0.0707
  563MOL0     H74307   4.216   6.222   7.590  0.1969 -0.0495  0.7562
  563MOL0     H74308   4.464   6.229   7.635  0.8513  1.8977 -0.2248
  563MOL0     H74309   4.424   6.194   7.461  0.9461 -0.9146  0.3003
  563MOL0     H74310   4.458   6.488   7.503  2.9701  1.2128 -0.8284
  563MOL0     H74311   4.515   6.377   7.377 -0.2988 -1.1240 -0.4042
  563MOL0     H74312   4.679   6.299   7.563 -0.3197  0.8131 -1.1059
  563MOL0     H74313   4.711   6.466   7.512 -0.1332  2.8530  1.6675
  563MOL0     H74314   4.597   6.530   7.902 -1.5803  0.8622 -0.8671
  563MOL0     H74315   4.038   6.361   7.588 -1.6665  0.8580  0.0388
  563MOL0     H74316   3.833   6.492   7.648 -1.3454 -2.2179  3.6715
  564MOL0     O74317   3.200   6.457   1.475 -0.6387  0.5363  0.0657
  564MOL0     C74318   3.190   6.341   1.513 -0.1431  0.0915  0.3679
  564MOL0     O74319   3.102   6.236   1.463 -0.5723 -0.1084  0.1098
  564MOL0     C74320   3.002   6.262   1.376 -0.0483 -0.6588  0.0798
  564MOL0     C74321   2.913   6.153   1.362 -0.7679  0.2672 -0.0537
  564MOL0     C74322   2.790   6.152   1.301  0.5019 -0.1223  0.9579
  564MOL0     C74323   2.756   6.274   1.230 -0.8477  0.2797 -0.9750
  564MOL0     O74324   2.658   6.292   1.141  0.7122 -0.4978  0.4017
  564MOL0     C74325   2.546   6.206   1.152 -0.9060 -0.4163  0.3838
  564MOL0     C74326   2.436   6.252   1.062  0.6874  0.3050  1.4531
  564MOL0     C74327   2.332   6.144   1.029 -0.2079 -0.3529 -1.1769
  564MOL0     C74328   2.279   6.149   0.886  0.4593 -0.0795 -0.6114
  564MOL0     C74329   2.163   6.047   0.866  0.7879  0.1172 -0.5554
  564MOL0     C74330   2.111   6.041   0.723  0.1321  0.3860  0.3194
  564MOL0     C74331   2.008   5.923   0.713 -0.3692  0.0336 -0.1101
  564MOL0     C74332   1.871   5.952   0.761 -0.3865  0.8445  1.1472
  564MOL0     N74333   1.796   6.046   0.677 -0.0654 -0.4822  0.0578
  564MOL0     C74334   1.675   6.092   0.727  0.2855  0.1345  0.2999
  564MOL0     C74335   1.650   6.201   0.648  1.1222 -0.1644  0.0391
  564MOL0     C74336   1.527   6.296   0.639  0.0771  0.3888 -0.0567
  564MOL0     C74337   1.408   6.229   0.560  0.3765  0.0216  0.1120
  564MOL0     C74338   1.290   6.325   0.527 -0.0095  0.1966  0.3052
  564MOL0     C74339   1.165   6.250   0.486  0.7587  0.6791 -0.3269
  564MOL0     O74340   1.064   6.345   0.440 -0.2205 -0.4039 -0.1388
  564MOL0     C74341   0.929   6.320   0.422 -0.3985  0.1259  1.1174
  564MOL0     C74342   0.852   6.412   0.353  0.2311  0.5191  0.0302
  564MOL0     C74343   0.717   6.395   0.335 -1.0088  0.0648 -0.1826
  564MOL0     C74344   0.645   6.293   0.398 -0.5619 -0.0179  0.3709
  564MOL0     C74345   0.503   6.283   0.396 -0.2683 -0.8073 -0.5578
  564MOL0     O74346   0.438   6.192   0.470  0.3378  0.0513 -0.6155
  564MOL0     C74347   0.304   6.162   0.448  0.1971  0.1036 -0.0353
  564MOL0     C74348   0.237   6.175   0.328 -0.3006  0.0291  0.8455
  564MOL0     C74349   0.099   6.143   0.308 -1.3622 -0.4537 -0.0292
  564MOL0     C74350   0.028   6.084   0.415  0.1283 -0.0005  0.0562
  564MOL0     O74351  -0.108   6.049   0.404  0.2056 -0.6753 -0.0177
  564MOL0     C74352  -0.182   5.983   0.512  0.3298  0.0319  0.0432
  564MOL0     C74353  -0.335   5.981   0.480 -0.1948  0.6041  0.3633
  564MOL0     C74354  -0.412   5.875   0.563 -0.4252  0.2018 -0.5841
  564MOL0     C74355  -0.440   5.937   0.705 -0.0882 -0.3028 -0.2675
  564MOL0     C74356  -0.535   5.852   0.794  0.0295  0.4336  1.1748
  564MOL0     C74357  -0.521   5.696   0.781  0.4887 -0.6833  0.2063
  564MOL0     C74358  -0.602   5.604   0.874 -0.3793 -0.4323 -0.1928
  564MOL0     C74359  -0.544   5.607   1.015  0.0221 -0.7675 -0.2972
  564MOL0    Cl74360  -0.643   5.502   1.120  0.3287  0.1837 -0.7852
  564MOL0     C74361   0.094   6.067   0.537 -0.3930  0.7372 -0.1768
  564MOL0     C74362   0.230   6.108   0.548  0.6679 -0.6300 -0.3612
  564MOL0     O74363   0.450   6.366   0.317 -0.1612  0.1997  0.4529
  564MOL0     C74364   0.720   6.196   0.461  0.4372  0.1998 -0.2801
  564MOL0     C74365   0.861   6.210   0.468  0.7086  0.4015 -0.1904
  564MOL0     N74366   1.757   6.223   0.559  0.2661 -0.2119 -0.1159
  564MOL0     N74367   1.844   6.132   0.582 -0.0007 -0.0538  0.4270
  564MOL0     C74368   2.844   6.381   1.233 -0.3223 -0.1693 -0.1354
  564MOL0     C74369   2.966   6.380   1.303 -0.3934  0.9429 -0.1007
  564MOL0     C74370   3.295   6.304   1.605  0.6303  0.7674 -0.6602
  564MOL0     C74371   3.294   6.181   1.658 -0.1816  0.8645 -0.1087
  564MOL0     C74372   3.407   6.125   1.730  0.3325 -0.3540  0.9652
  564MOL0     C74373   3.505   6.211   1.764 -0.3599 -0.4165 -0.2062
  564MOL0     O74374   3.610   6.170   1.834 -0.7988 -0.2664  0.5074
  564MOL0     C74375   3.705   6.087   1.762  0.5425  0.1654 -0.3824
  564MOL0     C74376   3.732   5.971   1.845  0.2034  0.2900 -0.2332
  564MOL0     C74377   3.773   6.009   1.996  0.4342  0.2809  0.5890
  564MOL0     C74378   3.836   5.890   2.082 -0.1359 -0.8484 -0.2075
  564MOL0     C74379   3.772   5.755   2.070  1.0010 -0.0720 -0.6346
  564MOL0     C74380   3.716   5.642   2.069  0.0277 -0.6512  0.3486
  564MOL0     C74381   3.492   6.352   1.743  0.0083 -0.2226  0.2078
  564MOL0     C74382   3.397   6.387   1.645 -0.3349 -1.0729  0.8512
  564MOL0     H74383   2.943   6.076   1.431  0.0213 -0.0538 -0.7331
  564MOL0     H74384   2.713   6.076   1.296  2.5368 -2.2275 -0.8633
  564MOL0     H74385   2.501   6.208   1.251 -1.3800 -1.2998  0.1933
  564MOL0     H74386   2.577   6.103   1.128  1.5830 -0.2785  2.5263
  564MOL0     H74387   2.469   6.274   0.960 -3.3787 -2.9874 -0.8650
  564MOL0     H74388   2.397   6.343   1.109  0.2513  3.9154 -4.8567
  564MOL0     H74389   2.250   6.158   1.100 -1.3393  2.3792 -2.8482
  564MOL0     H74390   2.376   6.044   1.038 -2.3466 -1.1500  2.7668
  564MOL0     H74391   2.241   6.245   0.852 -3.9306 -1.6087 -0.7141
  564MOL0     H74392   2.367   6.112   0.833  0.7096 -0.9862  0.3779
  564MOL0     H74393   2.080   6.064   0.935  0.3060  1.7964 -1.4981
  564MOL0     H74394   2.207   5.951   0.894 -0.2446 -0.1642  0.1686
  564MOL0     H74395   2.193   6.035   0.652 -1.3303  1.9875 -1.6320
  564MOL0     H74396   2.064   6.139   0.712 -0.1221 -0.0611 -3.9880
  564MOL0     H74397   1.998   5.889   0.610 -1.0549 -1.3479  0.3879
  564MOL0     H74398   2.050   5.842   0.774 -3.6212 -1.0457  0.8627
  564MOL0     H74399   1.872   5.973   0.868 -0.4834  2.3032  0.8775
  564MOL0     H74400   1.809   5.863   0.747 -0.0363  0.4978  1.7705
  564MOL0     H74401   1.613   6.046   0.803  1.0008 -2.0482 -0.3618
  564MOL0     H74402   1.546   6.398   0.605  0.8144 -0.5297 -2.6740
  564MOL0     H74403   1.496   6.306   0.743  0.4580 -1.3858  0.2590
  564MOL0     H74404   1.380   6.137   0.612  2.4655 -0.7387  0.0023
  564MOL0     H74405   1.459   6.195   0.469 -2.2253  0.2495 -1.5247
  564MOL0     H74406   1.260   6.377   0.619 -0.3412 -2.6225  1.9382
  564MOL0     H74407   1.328   6.388   0.447  1.1402 -1.0864 -0.2009
  564MOL0     H74408   1.125   6.195   0.571 -1.7497  3.7622  0.6959
  564MOL0     H74409   1.185   6.178   0.406  0.0768 -2.4947  2.1392
  564MOL0     H74410   0.901   6.496   0.305  1.0543  0.7153  1.1619
  564MOL0     H74411   0.658   6.460   0.270 -0.7373  0.1299 -0.3639
  564MOL0     H74412   0.283   6.221   0.241 -1.8710  0.4004  0.1698
  564MOL0     H74413   0.049   6.158   0.213 -1.3665  1.9117  0.3035
  564MOL0     H74414  -0.168   6.028   0.611  0.2526 -0.6819  0.3793
  564MOL0     H74415  -0.148   5.880   0.504  1.7861  0.6225 -2.8173
  564MOL0     H74416  -0.358   5.947   0.379 -1.2563 -2.5563  1.5456
  564MOL0     H74417  -0.368   6.084   0.494 -2.6396 -0.2727  1.7244
  564MOL0     H74418  -0.359   5.781   0.581 -0.0378  0.4171 -0.5981
  564MOL0     H74419  -0.505   5.855   0.508  1.3560 -2.8859 -2.7921
  564MOL0     H74420  -0.350   5.947   0.765  0.6988  0.4968 -1.5464
  564MOL0     H74421  -0.480   6.038   0.692 -0.3438 -0.3622  0.0296
  564MOL0     H74422  -0.639   5.877   0.769  0.4712  1.1464 -0.0906
  564MOL0     H74423  -0.510   5.879   0.897 -0.7531  2.4795  0.8793
  564MOL0     H74424  -0.413   5.677   0.784  0.7593 -0.1387 -2.9304
  564MOL0     H74425  -0.560   5.663   0.684  0.2823  0.0976  0.0206
  564MOL0     H74426  -0.704   5.642   0.878 -0.1845  0.2798 -1.4670
  564MOL0     H74427  -0.610   5.502   0.835 -3.4626  0.6623 -2.8976
  564MOL0     H74428  -0.569   5.708   1.050 -0.4892 -0.9924  0.0073
  564MOL0     H74429  -0.440   5.576   1.025 -0.3779 -2.1120 -0.1607
  564MOL0     H74430   0.049   6.025   0.626  0.1802  0.8049  0.1451
  564MOL0     H74431   0.274   6.117   0.647 -1.2104 -0.3689  0.4930
  564MOL0     H74432   0.654   6.122   0.506  0.0025 -0.4149 -1.8750
  564MOL0     H74433   0.917   6.135   0.522 -0.6774 -0.9037 -0.4841
  564MOL0     H74434   2.819   6.471   1.177 -4.1917  0.6440  2.4816
  564MOL0     H74435   3.025   6.471   1.298 -0.1010  0.9156  1.9759
  564MOL0     H74436   3.223   6.105   1.627  2.0069 -0.5786 -1.9497
  564MOL0     H74437   3.421   6.020   1.753  1.9073 -0.2026  0.8059
  564MOL0     H74438   3.801   6.135   1.745 -0.1491  2.4440  1.5261
  564MOL0     H74439   3.659   6.053   1.669 -0.2028 -0.4470  0.1935
  564MOL0     H74440   3.662   5.887   1.840  0.3483  0.0659  1.0653
  564MOL0     H74441   3.820   5.920   1.805 -0.7070 -0.6516 -1.0988
  564MOL0     H74442   3.682   6.036   2.052 -0.0321  1.7195 -0.7747
  564MOL0     H74443   3.839   6.096   1.995  0.5014  0.2665  1.8521
  564MOL0     H74444   3.942   5.874   2.060 -0.7031 -3.8965 -1.2517
  564MOL0     H74445   3.830   5.911   2.190 -3.0613 -2.2413 -0.0168
  564MOL0     H74446   3.672   5.545   2.063 -1.8598  0.1643  0.1368
  564MOL0     H74447   3.571   6.417   1.778  0.5440 -0.3989 -0.6583
  564MOL0     H74448   3.391   6.484   1.598 -0.6668 -1.1765  0.6775
  565MOL0     O74449   9.857   3.755   4.420 -0.2304 -0.9452 -0.0583
  565MOL0     C74450   9.955   3.687   4.414 -0.5344  0.6926 -0.7119
  565MOL0     O74451   9.974   3.557   4.350  0.3951 -0.7072 -0.0881
  565MOL0     C74452   9.857   3.499   4.304  0.5061  0.1603  0.8585
  565MOL0     C74453   9.778   3.429   4.392 -0.1619  0.4670  1.0238
  565MOL0     C74454   9.658   3.364   4.348 -0.2865 -0.5472  0.4899
  565MOL0     C74455   9.613   3.375   4.217  0.1542  0.4622 -0.0325
  565MOL0     O74456   9.508   3.300   4.181  0.2834  0.5453  0.3954
  565MOL0     C74457   9.544   3.160   4.180 -0.3600 -0.4665 -0.0534
  565MOL0     C74458   9.462   3.083   4.078  0.0568  0.3924  0.5463
  565MOL0     C74459   9.308   3.069   4.101  0.5023 -0.4690 -0.9736
  565MOL0     C74460   9.270   3.018   4.244  0.8771  0.9504 -0.4491
  565MOL0     C74461   9.110   3.030   4.270  0.5809 -0.5410 -0.2287
  565MOL0     C74462   9.075   2.987   4.419 -0.2516 -0.8822  0.8494
  565MOL0     C74463   8.959   3.070   4.474  0.0944 -0.4895  0.3803
  565MOL0     C74464   8.923   3.035   4.617 -0.5851  0.0502 -1.3237
  565MOL0     N74465   8.831   3.123   4.685  0.9683  0.5237 -0.2122
  565MOL0     C74466   8.705   3.161   4.629 -0.6036  0.3914 -0.3692
  565MOL0     C74467   8.645   3.245   4.720  0.2726 -0.5053  0.7115
  565MOL0     C74468   8.513   3.314   4.693 -0.1931 -0.7339  0.1401
  565MOL0     C74469   8.446   3.352   4.834  0.5345  1.0358  0.7343
  565MOL0     C74470   8.493   3.483   4.895 -0.3782 -0.5809  0.1243
  565MOL0     C74471   8.415   3.525   5.020 -0.6263  0.6906 -0.4224
  565MOL0     O74472   8.277   3.549   4.993  0.1264  0.8897  0.1625
  565MOL0     C74473   8.182   3.564   5.094  0.6109  0.9115 -0.1923
  565MOL0     C74474   8.070   3.613   5.040  0.4590 -0.7956  0.4978
  565MOL0     C74475   7.954   3.628   5.122  0.4235  0.7526  1.4715
  565MOL0     C74476   7.966   3.605   5.261  0.4761 -0.0119  0.3185
  565MOL0     C74477   7.840   3.628   5.341  0.0515 -0.1958 -0.0780
  565MOL0     O74478   7.736   3.684   5.275  0.3916  0.2199 -0.0406
  565MOL0     C74479   7.650   3.772   5.339  0.4124 -1.4879  0.1731
  565MOL0     C74480   7.518   3.767   5.289 -1.0813 -0.4096  0.2323
  565MOL0     C74481   7.414   3.828   5.354 -0.8867 -0.7023 -0.2101
  565MOL0     C74482   7.436   3.906   5.469 -0.7641 -0.0511  0.2288
  565MOL0     O74483   7.324   3.948   5.534  0.0074  0.4002 -0.2251
  565MOL0     C74484   7.361   4.022   5.650 -0.3230  0.4450 -0.7196
  565MOL0     C74485   7.232   4.097   5.692  0.5721 -0.1364 -0.5856
  565MOL0     C74486   7.127   3.982   5.718  0.2273  0.3264  0.2406
  565MOL0     C74487   7.002   4.051   5.778 -0.1460  0.2461  0.3144
  565MOL0     C74488   6.891   3.949   5.803  0.9784  0.0547 -0.5951
  565MOL0     C74489   6.772   3.995   5.897  0.7516 -0.5217 -0.0867
  565MOL0     C74490   6.675   4.086   5.817 -1.2861 -0.2741 -0.0092
  565MOL0     C74491   6.619   4.199   5.915  0.5309 -0.7458  0.9217
  565MOL0    Cl74492   6.517   4.315   5.822  0.1180  0.0243  0.1083
  565MOL0     C74493   7.568   3.919   5.509  0.1404 -0.3467  0.0401
  565MOL0     C74494   7.677   3.852   5.451 -0.1717  0.0059  0.3197
  565MOL0     O74495   7.832   3.585   5.455  0.2848 -0.2860  0.4713
  565MOL0     C74496   8.084   3.555   5.311  0.3184  0.2155 -0.5141
  565MOL0     C74497   8.193   3.538   5.230  0.0056 -0.7590 -0.2425
  565MOL0     N74498   8.728   3.242   4.833 -0.3666  0.0970  1.1695
  565MOL0     N74499   8.839   3.179   4.811 -0.5848 -0.2462  0.6623
  565MOL0     C74500   9.686   3.456   4.134  0.5715  0.0277 -0.6241
  565MOL0     C74501   9.807   3.521   4.176 -1.1062  1.1603 -0.3698
  565MOL0     C74502  10.080   3.745   4.481  0.4708 -0.1789  0.6074
  565MOL0     C74503  10.199   3.680   4.491 -0.4328 -0.0845 -0.5580
  565MOL0     C74504  10.317   3.725   4.545 -0.4701  0.1316 -1.5260
  565MOL0     C74505  10.317   3.858   4.599  0.0266 -0.7362  0.4156
  565MOL0     O74506  10.424   3.927   4.658  0.1524  0.6195  0.5577
  565MOL0     C74507  10.534   3.954   4.569  0.8657  0.9910  0.8929
  565MOL0     C74508  10.630   4.060   4.630  0.6218 -0.0039 -0.1184
  565MOL0     C74509  10.770   4.021   4.591 -0.3433  0.6402  0.8902
  565MOL0     C74510  10.877   4.074   4.685 -0.3126  0.0978  0.3050
  565MOL0     C74511  10.894   3.990   4.802 -0.8463 -0.5815  0.0791
  565MOL0     C74512  10.912   3.931   4.908 -0.3602  0.3201  0.1240
  565MOL0     C74513  10.188   3.936   4.593 -0.6720  0.1488  0.7745
  565MOL0     C74514  10.080   3.878   4.529  0.2720  0.3711  0.7086
  565MOL0     H74515   9.812   3.439   4.494 -2.5126  1.3387  1.7615
  565MOL0     H74516   9.606   3.296   4.414  0.0381 -0.8388  0.4528
  565MOL0     H74517   9.526   3.129   4.283 -1.4287  3.0577  0.9745
  565MOL0     H74518   9.651   3.152   4.156  0.0962  3.6640 -0.1156
  565MOL0     H74519   9.503   2.982   4.075 -2.7041 -0.7866 -1.0026
  565MOL0     H74520   9.478   3.130   3.980 -0.4574  2.2643  1.3103
  565MOL0     H74521   9.266   3.000   4.027  1.4148  0.7944 -2.7467
  565MOL0     H74522   9.262   3.166   4.077  0.1605 -0.7373 -1.4118
  565MOL0     H74523   9.306   2.915   4.247 -1.7027 -0.0649 -1.7430
  565MOL0     H74524   9.327   3.071   4.321  1.6198  1.3006 -1.2194
  565MOL0     H74525   9.053   2.966   4.202 -0.3573 -2.4790  2.2519
  565MOL0     H74526   9.077   3.133   4.254 -1.9210 -1.2683 -0.0132
  565MOL0     H74527   9.158   2.996   4.490 -0.4049  1.1988  0.8412
  565MOL0     H74528   9.047   2.882   4.417 -0.9501 -0.7305  1.9765
  565MOL0     H74529   8.980   3.178   4.469  0.8163 -0.6566 -0.5316
  565MOL0     H74530   8.874   3.060   4.406  0.2471 -0.7070  0.2192
  565MOL0     H74531   9.017   3.039   4.673 -0.5134 -0.1376 -1.4314
  565MOL0     H74532   8.887   2.933   4.632 -0.7929  0.4017  0.8949
  565MOL0     H74533   8.670   3.148   4.528 -0.4116 -1.2169 -0.2636
  565MOL0     H74534   8.439   3.253   4.640 -1.0178  1.0041 -0.7751
  565MOL0     H74535   8.537   3.398   4.628 -1.2839  0.6194  1.4434
  565MOL0     H74536   8.468   3.279   4.913 -2.5106  1.8560  2.4904
  565MOL0     H74537   8.338   3.354   4.818  0.6664  1.1866 -0.2255
  565MOL0     H74538   8.598   3.469   4.923 -1.0230 -1.6472  2.2471
  565MOL0     H74539   8.480   3.562   4.821 -0.9117 -1.2594 -0.5241
  565MOL0     H74540   8.465   3.613   5.062  0.1438  1.1706 -2.2710
  565MOL0     H74541   8.427   3.449   5.098  2.0629 -0.2304 -1.6278
  565MOL0     H74542   8.072   3.657   4.941  3.8503 -0.8573  0.4078
  565MOL0     H74543   7.860   3.657   5.075  1.1223 -1.3412 -1.5175
  565MOL0     H74544   7.511   3.702   5.202 -0.4252  0.2800 -0.3481
  565MOL0     H74545   7.310   3.815   5.327 -1.2140  2.1262 -0.6446
  565MOL0     H74546   7.438   4.098   5.637  0.1687 -0.0454 -0.7327
  565MOL0     H74547   7.394   3.957   5.732 -0.4123  1.0964 -0.1567
  565MOL0     H74548   7.186   4.164   5.617 -2.2723 -1.6682 -0.3685
  565MOL0     H74549   7.248   4.152   5.786  2.1667  1.6553 -1.8205
  565MOL0     H74550   7.163   3.903   5.785 -0.6336  1.6210  2.3502
  565MOL0     H74551   7.100   3.934   5.624 -0.7587  1.0263  0.1487
  565MOL0     H74552   7.024   4.092   5.877  1.0706 -0.3813  0.3221
  565MOL0     H74553   6.980   4.132   5.708  0.0398  0.1364  0.1275
  565MOL0     H74554   6.931   3.859   5.851  0.1021 -1.1805 -2.0772
  565MOL0     H74555   6.846   3.925   5.706 -2.4811 -2.9467  1.4854
  565MOL0     H74556   6.809   4.048   5.985  0.7042 -1.0286  0.2457
  565MOL0     H74557   6.714   3.908   5.929  1.0929 -0.9865 -0.7207
  565MOL0     H74558   6.739   4.138   5.745  0.8176 -0.7117  1.4600
  565MOL0     H74559   6.593   4.032   5.769 -2.4401  1.1019  0.3585
  565MOL0     H74560   6.708   4.249   5.953  1.8441 -1.2706 -1.2365
  565MOL0     H74561   6.546   4.150   5.981 -0.8104  0.9362  0.7580
  565MOL0     H74562   7.614   3.980   5.587  0.4652  2.9151 -2.4554
  565MOL0     H74563   7.779   3.847   5.487 -0.9055 -1.7717  2.3523
  565MOL0     H74564   8.096   3.529   5.416  0.8019  2.4667  0.0580
  565MOL0     H74565   8.282   3.501   5.280 -0.5390  1.6483  2.8191
  565MOL0     H74566   9.640   3.471   4.037 -0.8525  2.7512  0.3623
  565MOL0     H74567   9.867   3.582   4.109  2.9899 -0.2779  1.6801
  565MOL0     H74568  10.192   3.577   4.457 -0.7214 -0.4706  0.6127
  565MOL0     H74569  10.399   3.655   4.556 -2.2187 -2.0950 -1.9234
  565MOL0     H74570  10.500   3.989   4.471  2.8015  2.7128  0.7596
  565MOL0     H74571  10.587   3.859   4.555  0.3707  1.0807 -2.4392
  565MOL0     H74572  10.596   4.150   4.578 -3.9057 -2.2778 -1.6552
  565MOL0     H74573  10.618   4.077   4.737  1.2100 -2.4040  0.3940
  565MOL0     H74574  10.793   4.057   4.490  0.8560 -0.4630  0.7446
  565MOL0     H74575  10.784   3.913   4.591  0.8829  0.7758 -0.0374
  565MOL0     H74576  10.975   4.069   4.637 -0.4926 -0.4509 -0.0168
  565MOL0     H74577  10.860   4.179   4.709  0.6156  0.8738 -2.1426
  565MOL0     H74578  10.924   3.874   4.997  2.2076 -1.4212 -1.2044
  565MOL0     H74579  10.190   4.040   4.621  1.5211  0.3620  0.0188
  565MOL0     H74580   9.988   3.937   4.526  0.5404  0.7992 -1.8015
  566MOL0     O74581   6.695   4.395  11.075  0.3786  0.0749  1.0164
  566MOL0     C74582   6.693   4.297  11.147  0.7601  0.1938 -0.5478
  566MOL0     O74583   6.584   4.241  11.214 -0.5516 -0.2669 -0.9322
  566MOL0     C74584   6.456   4.282  11.180  0.4662 -0.5708  0.3630
  566MOL0     C74585   6.377   4.189  11.103 -0.0780  0.0824 -0.3220
  566MOL0     C74586   6.251   4.228  11.055  0.0671  0.3152 -0.7403
  566MOL0     C74587   6.200   4.355  11.073 -0.5468 -0.1265  0.6748
  566MOL0     O74588   6.075   4.403  11.029 -0.4484 -0.5282 -0.5704
  566MOL0     C74589   5.984   4.320  10.961 -0.5766 -0.4007  0.3938
  566MOL0     C74590   5.918   4.213  11.053  0.2588 -0.0298 -0.0144
  566MOL0     C74591   5.807   4.270  11.147 -0.0345 -0.1741 -0.5038
  566MOL0     C74592   5.670   4.304  11.078 -0.5583  0.5008 -0.7145
  566MOL0     C74593   5.552   4.302  11.169 -0.0714  0.1853  0.8049
  566MOL0     C74594   5.419   4.325  11.079  0.8266 -0.1732 -0.4589
  566MOL0     C74595   5.292   4.330  11.162 -1.3742 -0.9240  0.6280
  566MOL0     C74596   5.190   4.412  11.089 -0.0033 -0.2478 -0.1063
  566MOL0     N74597   5.056   4.414  11.150 -0.0512 -0.6168  0.6285
  566MOL0     C74598   5.003   4.330  11.236  0.8363  0.2913 -0.0045
  566MOL0     C74599   4.890   4.391  11.277  0.3153 -0.2180  0.1827
  566MOL0     C74600   4.786   4.339  11.371 -0.2800  0.8246 -0.4077
  566MOL0     C74601   4.655   4.413  11.370  0.0360 -0.5096 -0.3655
  566MOL0     C74602   4.563   4.378  11.253 -1.4623 -0.1616 -0.3420
  566MOL0     C74603   4.447   4.463  11.252  0.0762 -0.0526 -0.4657
  566MOL0     O74604   4.381   4.415  11.130  0.2195 -0.2696  0.6278
  566MOL0     C74605   4.274   4.489  11.075 -0.5839 -0.3444 -0.2040
  566MOL0     C74606   4.206   4.437  10.964 -0.4632 -0.0472 -0.1800
  566MOL0     C74607   4.106   4.503  10.897  1.2704  0.1178  0.3098
  566MOL0     C74608   4.052   4.626  10.937  0.1427  0.6785 -0.3443
  566MOL0     C74609   3.935   4.692  10.873  0.7609 -0.5573  0.6266
  566MOL0     O74610   3.895   4.626  10.753 -0.1903 -0.4471 -0.6549
  566MOL0     C74611   3.771   4.655  10.686 -0.1088  0.1495  0.6082
  566MOL0     C74612   3.743   4.780  10.624  0.3480 -0.3859  0.0874
  566MOL0     C74613   3.620   4.795  10.553  0.3465  0.4472 -0.1146
  566MOL0     C74614   3.534   4.682  10.532 -0.6024 -0.5046  0.0755
  566MOL0     O74615   3.432   4.692  10.448  0.1253  0.3450 -0.1489
  566MOL0     C74616   3.439   4.764  10.325 -0.3582 -0.0234  1.5366
  566MOL0     C74617   3.297   4.791  10.276 -0.3936  0.2353  1.1882
  566MOL0     C74618   3.310   4.858  10.137  0.4146  0.0632 -0.1645
  566MOL0     C74619   3.171   4.868  10.074  0.3184 -0.0850  0.2987
  566MOL0     C74620   3.191   4.942   9.942 -0.3402 -0.7216 -0.0897
  566MOL0     C74621   3.063   4.971   9.864 -0.6430 -0.1304 -0.4081
  566MOL0     C74622   3.090   5.055   9.746 -0.7047 -0.8540  0.7398
  566MOL0     C74623   2.960   5.062   9.657 -0.2426 -0.1765  0.2247
  566MOL0    Cl74624   2.831   5.160   9.744  0.3684 -0.1274 -0.0102
  566MOL0     C74625   3.561   4.563  10.602  0.0923 -0.2020  0.0830
  566MOL0     C74626   3.683   4.549  10.673  0.0743  0.0674  0.1873
  566MOL0     O74627   3.890   4.798  10.917  0.1878  0.7563  0.0905
  566MOL0     C74628   4.116   4.678  11.054  0.9099 -0.2359 -0.1747
  566MOL0     C74629   4.215   4.610  11.122 -0.1754 -0.5777 -0.2849
  566MOL0     N74630   4.884   4.516  11.202 -0.4955 -0.4681  0.2419
  566MOL0     N74631   4.984   4.523  11.126  0.5835 -0.3724 -0.4721
  566MOL0     C74632   6.272   4.449  11.143  0.5649  0.8128  0.7019
  566MOL0     C74633   6.400   4.409  11.202  0.2946 -0.0094 -0.0626
  566MOL0     C74634   6.807   4.219  11.147 -0.8803  0.4323 -0.9197
  566MOL0     C74635   6.814   4.093  11.210  0.0638 -0.3312 -0.3433
  566MOL0     C74636   6.936   4.027  11.213  0.2109 -0.4353 -0.0441
  566MOL0     C74637   7.059   4.089  11.167  0.1303  0.6131 -0.6713
  566MOL0     O74638   7.177   4.021  11.168  0.0326  0.2183  0.1747
  566MOL0     C74639   7.194   3.898  11.250 -0.1288  0.0580  0.0067
  566MOL0     C74640   7.153   3.764  11.186 -0.0519 -1.0397  0.2525
  566MOL0     C74641   7.158   3.781  11.037  1.4725 -0.5405 -0.4519
  566MOL0     C74642   7.149   3.645  10.964 -0.6272 -0.9902 -0.3299
  566MOL0     C74643   7.035   3.563  10.992 -0.4489  0.3289 -0.1616
  566MOL0     C74644   6.932   3.506  11.013 -0.6445  0.3770 -1.2438
  566MOL0     C74645   7.051   4.211  11.098  0.0385  0.3127  0.5898
  566MOL0     C74646   6.924   4.264  11.083 -0.4178 -0.3807  0.5640
  566MOL0     H74647   6.419   4.090  11.086  1.0523  0.6717 -1.1584
  566MOL0     H74648   6.188   4.160  10.999 -0.9037 -0.6676  1.4201
  566MOL0     H74649   6.041   4.266  10.885  0.9010 -1.2190  2.0003
  566MOL0     H74650   5.911   4.385  10.913  0.5354 -0.6981 -1.8112
  566MOL0     H74651   5.997   4.162  11.109  2.0668  0.7226 -1.7803
  566MOL0     H74652   5.876   4.139  10.985 -1.4254 -0.3258  1.2636
  566MOL0     H74653   5.843   4.367  11.181 -0.6095  0.1481 -0.7977
  566MOL0     H74654   5.791   4.193  11.224 -0.1228 -1.1769 -1.4987
  566MOL0     H74655   5.678   4.405  11.036  0.5834 -0.1836 -2.2468
  566MOL0     H74656   5.654   4.244  10.988  0.5984 -2.3035  0.8130
  566MOL0     H74657   5.568   4.387  11.236  0.4962  1.4551 -0.8889
  566MOL0     H74658   5.545   4.206  11.223  2.4717 -0.9360 -0.6738
  566MOL0     H74659   5.409   4.245  11.005 -1.1326 -0.6178  0.2409
  566MOL0     H74660   5.440   4.414  11.019  1.9417  0.4057  0.7294
  566MOL0     H74661   5.258   4.227  11.171 -1.1481 -0.9243  1.5095
  566MOL0     H74662   5.334   4.361  11.258 -2.0043 -2.0672  1.2975
  566MOL0     H74663   5.186   4.365  10.990 -0.1072  0.1280 -0.2814
  566MOL0     H74664   5.240   4.509  11.083  2.6402 -1.5529 -0.3779
  566MOL0     H74665   5.031   4.231  11.272 -4.4104 -1.8366 -0.8957
  566MOL0     H74666   4.826   4.351  11.472 -0.0515  0.9743 -0.5138
  566MOL0     H74667   4.773   4.232  11.354  0.9434  0.7634 -1.1316
  566MOL0     H74668   4.670   4.521  11.364 -0.6484 -0.2973  1.2348
  566MOL0     H74669   4.603   4.407  11.465 -0.7339  2.4600 -0.4917
  566MOL0     H74670   4.613   4.403  11.159  0.5271  0.0135  0.7050
  566MOL0     H74671   4.536   4.272  11.257  0.1582 -0.5980  3.1414
  566MOL0     H74672   4.479   4.567  11.239  2.3183 -0.5299  0.7133
  566MOL0     H74673   4.384   4.447  11.340 -0.9585 -4.2297 -1.7525
  566MOL0     H74674   4.234   4.341  10.924  0.0728 -0.6476  1.5231
  566MOL0     H74675   4.081   4.470  10.797  3.8108  1.2149 -0.7871
  566MOL0     H74676   3.807   4.865  10.639  0.6564 -0.1123 -2.4417
  566MOL0     H74677   3.605   4.885  10.494  1.4922  0.4619 -0.4078
  566MOL0     H74678   3.496   4.697  10.260  1.2487  0.6690  2.1636
  566MOL0     H74679   3.489   4.860  10.335 -0.2398 -0.0042  0.8202
  566MOL0     H74680   3.245   4.854  10.348  0.8331 -0.6336  2.8994
  566MOL0     H74681   3.249   4.693  10.268 -2.6211  1.2600  1.3040
  566MOL0     H74682   3.374   4.798  10.071  0.5262 -0.0137  0.0120
  566MOL0     H74683   3.359   4.952  10.162  0.7520 -0.2416  0.3188
  566MOL0     H74684   3.131   4.767  10.061 -1.5677  0.4188  1.8235
  566MOL0     H74685   3.094   4.929  10.122  0.4213  1.7370 -1.6707
  566MOL0     H74686   3.250   4.882   9.873  0.0120  0.1754 -0.5848
  566MOL0     H74687   3.249   5.033   9.960 -0.1327 -1.1067  1.3010
  566MOL0     H74688   3.008   5.031   9.937 -0.6239 -2.1403  1.3334
  566MOL0     H74689   3.002   4.886   9.833 -0.6798  0.3520 -1.7147
  566MOL0     H74690   3.130   5.154   9.773 -0.8377 -1.7412  4.8586
  566MOL0     H74691   3.168   5.000   9.693 -2.7757 -3.5499  0.3055
  566MOL0     H74692   2.917   4.963   9.637  3.0661 -2.1386  1.9338
  566MOL0     H74693   2.992   5.102   9.560 -1.5128  1.6423  0.5119
  566MOL0     H74694   3.494   4.479  10.585  3.3500 -3.0612  0.1941
  566MOL0     H74695   3.717   4.461  10.725 -1.4343 -1.9178 -1.9680
  566MOL0     H74696   4.088   4.776  11.092  1.1556  0.0999 -0.8339
  566MOL0     H74697   4.269   4.661  11.202 -0.4411 -0.0119 -0.4627
  566MOL0     H74698   6.221   4.544  11.158 -1.5315 -0.2832  0.8534
  566MOL0     H74699   6.457   4.484  11.255  0.4191  0.6461 -1.0991
  566MOL0     H74700   6.731   4.053  11.266 -0.3175 -0.6074 -1.0834
  566MOL0     H74701   6.943   3.939  11.277 -1.2937  0.4301  1.4023
  566MOL0     H74702   7.152   3.912  11.350  1.7243  0.1110  0.8276
  566MOL0     H74703   7.301   3.891  11.273 -0.2445  3.1817  2.1247
  566MOL0     H74704   7.216   3.687  11.231  0.6660 -0.1850  0.7188
  566MOL0     H74705   7.046   3.747  11.205 -0.2507 -1.3629 -1.0448
  566MOL0     H74706   7.249   3.829  10.998  1.2614 -0.3424 -0.7010
  566MOL0     H74707   7.075   3.845  11.007  0.2941 -1.2738  1.1218
  566MOL0     H74708   7.145   3.662  10.856 -3.5465 -1.3863 -0.3453
  566MOL0     H74709   7.243   3.590  10.979  0.2656  0.4011 -0.6009
  566MOL0     H74710   6.836   3.461  11.032 -1.1658  1.8679 -0.1310
  566MOL0     H74711   7.135   4.236  11.033  0.8227  1.2308  1.8946
  566MOL0     H74712   6.914   4.357  11.027 -0.7962  1.3953  3.3962
  567MOL0     O74713   2.213   2.869   6.723  0.2030  0.4028  0.0388
  567MOL0     C74714   2.282   2.946   6.652 -0.1426 -0.2977 -0.1061
  567MOL0     O74715   2.245   2.988   6.531 -0.4508 -0.0489  0.6326
  567MOL0     C74716   2.123   2.956   6.489  0.0892 -0.2579 -0.3506
  567MOL0     C74717   2.118   2.867   6.377 -0.1858 -1.2397  0.2378
  567MOL0     C74718   1.996   2.837   6.315  0.5665  0.7999  0.2026
  567MOL0     C74719   1.876   2.887   6.365  0.0935  0.4624  0.3009
  567MOL0     O74720   1.756   2.851   6.302 -0.4165  0.0981 -0.0285
  567MOL0     C74721   1.757   2.855   6.163  0.2087  0.1782  0.7563
  567MOL0     C74722   1.619   2.821   6.111 -0.6130  1.0935 -0.4569
  567MOL0     C74723   1.505   2.919   6.127  0.2517  0.1912  0.0768
  567MOL0     C74724   1.452   2.930   6.268  0.6479 -0.2122 -0.4976
  567MOL0     C74725   1.347   3.033   6.296  0.4204  0.0746 -0.1858
  567MOL0     C74726   1.215   2.994   6.226 -0.3756  0.1312 -0.3355
  567MOL0     C74727   1.097   3.092   6.252 -1.1051  0.4881 -0.7759
  567MOL0     C74728   0.990   3.057   6.143  0.7134 -0.6708 -0.4533
  567MOL0     N74729   0.867   3.116   6.177  0.6888  0.0868 -0.6111
  567MOL0     C74730   0.845   3.233   6.250  0.3119 -0.5903 -1.2454
  567MOL0     C74731   0.709   3.238   6.272 -0.7389 -0.7114 -0.9988
  567MOL0     C74732   0.629   3.342   6.342 -0.7830 -0.2592 -0.3590
  567MOL0     C74733   0.587   3.439   6.227  0.3263  1.3840 -0.0311
  567MOL0     C74734   0.498   3.544   6.291  0.0975  0.1922 -0.4446
  567MOL0     C74735   0.356   3.483   6.315 -1.1574 -0.8970  0.5003
  567MOL0     O74736   0.283   3.601   6.360  0.3075  0.1268 -0.3496
  567MOL0     C74737   0.144   3.592   6.369  0.1007 -1.0190 -0.1807
  567MOL0     C74738   0.073   3.472   6.411 -0.0636 -0.9344  0.3097
  567MOL0     C74739  -0.067   3.477   6.434 -0.1864  0.1680  0.9910
  567MOL0     C74740  -0.150   3.590   6.405 -0.7513 -0.1956  0.5467
  567MOL0     C74741  -0.295   3.600   6.421 -0.2978 -0.2566 -0.2707
  567MOL0     O74742  -0.350   3.727   6.418 -0.1225  0.0466  0.6737
  567MOL0     C74743  -0.480   3.751   6.446 -0.3864 -0.3208  0.8463
  567MOL0     C74744  -0.544   3.700   6.562  0.1429 -1.0465  0.2416
  567MOL0     C74745  -0.678   3.740   6.591  0.1139  0.8646  0.5092
  567MOL0     C74746  -0.741   3.824   6.502  0.4624 -0.7020 -1.6261
  567MOL0     O74747  -0.867   3.854   6.554  0.3640 -0.4222  0.4065
  567MOL0     C74748  -0.958   3.909   6.460  0.3445  0.0233 -0.2920
  567MOL0     C74749  -1.088   3.944   6.539 -0.2903 -1.6962  0.2304
  567MOL0     C74750  -1.175   3.818   6.578 -0.3772  0.2494 -0.3284
  567MOL0     C74751  -1.233   3.743   6.459  0.7618 -0.8339  0.1076
  567MOL0     C74752  -1.372   3.690   6.477 -0.0827 -0.2333 -0.2229
  567MOL0     C74753  -1.365   3.573   6.578  1.4826 -0.3282  0.2545
  567MOL0     C74754  -1.479   3.468   6.550 -0.6341 -0.4084 -0.5125
  567MOL0     C74755  -1.470   3.371   6.671  0.1140 -0.4246  0.1608
  567MOL0    Cl74756  -1.633   3.298   6.676 -0.4353 -1.1236 -0.2178
  567MOL0     C74757  -0.681   3.866   6.379 -0.3627  0.6732 -0.1772
  567MOL0     C74758  -0.543   3.831   6.353 -0.2668  0.3359  0.4627
  567MOL0     O74759  -0.353   3.491   6.437  0.2612 -0.4051 -0.0148
  567MOL0     C74760  -0.071   3.705   6.371  0.1076 -0.3781  0.7670
  567MOL0     C74761   0.065   3.712   6.352 -0.2617 -0.2089 -0.7834
  567MOL0     N74762   0.656   3.125   6.207  0.8609  0.0036 -0.0414
  567MOL0     N74763   0.746   3.061   6.133 -0.3191  0.0238  0.0473
  567MOL0     C74764   1.879   2.972   6.475  0.2763  0.1138 -0.1451
  567MOL0     C74765   2.002   3.015   6.536  0.6701  0.1468 -0.0578
  567MOL0     C74766   2.395   3.014   6.711 -0.5281  0.1812 -1.2078
  567MOL0     C74767   2.458   3.116   6.640 -0.5779 -0.1041 -0.0724
  567MOL0     C74768   2.557   3.187   6.705  0.1804 -0.2842 -0.3056
  567MOL0     C74769   2.590   3.170   6.842 -0.5184  0.8851  0.0511
  567MOL0     O74770   2.687   3.260   6.880 -0.3744  0.1760  0.6520
  567MOL0     C74771   2.643   3.347   6.979 -0.3657 -0.4234  0.1531
  567MOL0     C74772   2.596   3.476   6.911 -0.0631  0.1053 -1.0075
  567MOL0     C74773   2.493   3.545   6.996  0.0743  0.0610  0.7579
  567MOL0     C74774   2.489   3.691   6.952  0.2772  0.5131  0.3582
  567MOL0     C74775   2.412   3.754   7.057 -0.2719 -0.4420  0.0490
  567MOL0     C74776   2.342   3.803   7.148 -0.1765 -0.7338 -0.6032
  567MOL0     C74777   2.529   3.068   6.914  0.6312  0.0299  0.5233
  567MOL0     C74778   2.429   2.988   6.850 -0.0531  0.0035  0.5462
  567MOL0     H74779   2.216   2.833   6.344  0.0263 -2.6092  2.0851
  567MOL0     H74780   2.004   2.773   6.228  2.1018  0.1487  0.7963
  567MOL0     H74781   1.823   2.777   6.124 -0.6179 -1.1777  1.9332
  567MOL0     H74782   1.780   2.955   6.128 -1.2559 -0.9124 -4.0266
  567MOL0     H74783   1.594   2.724   6.155  1.5170 -0.8849 -3.2211
  567MOL0     H74784   1.624   2.809   6.002  0.9962  1.1958 -0.4194
  567MOL0     H74785   1.419   2.874   6.076  0.6839  1.5185 -1.9502
  567MOL0     H74786   1.539   3.014   6.084  0.3071  0.1014 -0.0732
  567MOL0     H74787   1.404   2.836   6.297 -1.3568  1.0332  0.4412
  567MOL0     H74788   1.527   2.947   6.346  0.8543  2.9136 -1.2465
  567MOL0     H74789   1.379   3.134   6.267  3.0312 -0.1027  1.7227
  567MOL0     H74790   1.331   3.053   6.403  1.5626 -1.0443  0.2158
  567MOL0     H74791   1.173   2.904   6.274 -4.0245  2.1820  0.7156
  567MOL0     H74792   1.229   2.982   6.118 -0.0343  0.6187 -0.3473
  567MOL0     H74793   1.058   3.081   6.353  0.8557 -3.8272 -0.2432
  567MOL0     H74794   1.137   3.191   6.229  0.7538  0.5583  2.1695
  567MOL0     H74795   0.984   2.947   6.141  0.4535 -0.6573 -0.4588
  567MOL0     H74796   1.030   3.091   6.047  2.6737  0.7069  0.7765
  567MOL0     H74797   0.914   3.310   6.284  0.8422 -1.4102 -0.4173
  567MOL0     H74798   0.683   3.388   6.426  0.6651 -3.1687  0.4110
  567MOL0     H74799   0.548   3.292   6.396 -1.0432 -2.4312 -2.6107
  567MOL0     H74800   0.539   3.388   6.143 -2.7153  1.4174  1.5349
  567MOL0     H74801   0.678   3.488   6.192  0.7021  1.4546  1.0034
  567MOL0     H74802   0.552   3.581   6.378  2.1347 -0.4651 -1.3849
  567MOL0     H74803   0.490   3.639   6.236 -0.7980 -0.6191 -1.7794
  567MOL0     H74804   0.347   3.389   6.369 -1.9253  0.3073  2.5952
  567MOL0     H74805   0.317   3.466   6.214  0.5803  1.9688 -0.7905
  567MOL0     H74806   0.137   3.385   6.424  1.6085  0.0286 -1.0581
  567MOL0     H74807  -0.127   3.399   6.479 -1.3861  1.6028  2.0010
  567MOL0     H74808  -0.496   3.633   6.633 -1.2843 -0.7375  1.5589
  567MOL0     H74809  -0.725   3.695   6.677  1.5486 -2.8805 -0.4882
  567MOL0     H74810  -0.996   3.846   6.379 -0.7541 -0.5607  0.6424
  567MOL0     H74811  -0.911   3.993   6.409 -3.6858  2.5546 -0.2832
  567MOL0     H74812  -1.148   4.006   6.473  1.0585  0.2232  0.7345
  567MOL0     H74813  -1.071   3.995   6.634  0.6560 -0.1088 -0.7580
  567MOL0     H74814  -1.255   3.856   6.642  1.2204  2.3816  0.5280
  567MOL0     H74815  -1.113   3.744   6.630  4.5809  0.7094 -4.7066
  567MOL0     H74816  -1.247   3.803   6.369 -1.8158  1.8887  2.1428
  567MOL0     H74817  -1.163   3.663   6.433  1.6914 -0.7216  2.0966
  567MOL0     H74818  -1.405   3.651   6.380 -2.6882  0.3510  0.3484
  567MOL0     H74819  -1.437   3.772   6.511  0.0613 -0.1738 -0.0887
  567MOL0     H74820  -1.380   3.617   6.677 -2.0602 -1.3635  0.3120
  567MOL0     H74821  -1.268   3.522   6.575  1.2996 -0.6891  0.3926
  567MOL0     H74822  -1.566   3.535   6.549  1.5850  2.7718  0.4211
  567MOL0     H74823  -1.471   3.415   6.455  0.3941  1.0840 -1.3017
  567MOL0     H74824  -1.457   3.426   6.764  0.4750 -1.7398  0.9178
  567MOL0     H74825  -1.382   3.306   6.662  1.5339  1.5443 -0.7641
  567MOL0     H74826  -0.720   3.944   6.314 -1.9304  0.2370  0.1795
  567MOL0     H74827  -0.484   3.866   6.269 -2.1263 -2.1397 -2.0558
  567MOL0     H74828  -0.124   3.797   6.350 -1.8342 -1.5429  0.2939
  567MOL0     H74829   0.109   3.806   6.322 -1.9109  1.0801  0.6056
  567MOL0     H74830   1.785   3.018   6.505  0.7058  1.6458 -1.0548
  567MOL0     H74831   1.990   3.089   6.615 -3.1742  0.7363 -0.9792
  567MOL0     H74832   2.427   3.140   6.539  0.1039  3.0259  0.3781
  567MOL0     H74833   2.605   3.262   6.643 -2.6905  3.7157  1.8076
  567MOL0     H74834   2.712   3.375   7.059  0.2859 -3.4160  0.7530
  567MOL0     H74835   2.563   3.303   7.040  1.9721 -0.6203  3.3235
  567MOL0     H74836   2.685   3.540   6.906 -0.8388  1.3036 -0.1103
  567MOL0     H74837   2.567   3.473   6.806 -2.3370  0.3277 -0.4284
  567MOL0     H74838   2.507   3.534   7.104 -0.6336  1.2556  0.9937
  567MOL0     H74839   2.402   3.488   6.974  0.1295  0.0390  0.5863
  567MOL0     H74840   2.582   3.746   6.943  0.9900 -0.5407  1.1016
  567MOL0     H74841   2.445   3.691   6.851  4.2993  1.9081 -1.6087
  567MOL0     H74842   2.276   3.858   7.213  0.0391  0.4835 -1.3790
  567MOL0     H74843   2.562   3.037   7.013 -1.0018  1.1185  1.4676
  567MOL0     H74844   2.378   2.912   6.908  1.2809 -0.8352  0.6456
  568MOL0     O74845   2.322   2.885   3.446 -0.0075  0.3028 -0.5780
  568MOL0     C74846   2.328   2.783   3.514  0.3253  1.0271 -0.0351
  568MOL0     O74847   2.241   2.673   3.517 -0.3075 -0.1123  0.8090
  568MOL0     C74848   2.136   2.672   3.442 -0.1081  0.6676  0.0498
  568MOL0     C74849   2.096   2.741   3.322 -0.1853  0.4306  0.5020
  568MOL0     C74850   1.976   2.713   3.260  1.0473 -0.6554  0.0573
  568MOL0     C74851   1.890   2.611   3.314  0.6951 -0.2998 -0.1122
  568MOL0     O74852   1.773   2.568   3.264  0.2288 -0.4629 -0.5027
  568MOL0     C74853   1.719   2.615   3.140 -0.4367 -0.5272  0.1785
  568MOL0     C74854   1.582   2.551   3.111 -1.2152 -0.7801 -0.1122
  568MOL0     C74855   1.472   2.585   3.203 -0.7749 -0.6616  0.8039
  568MOL0     C74856   1.339   2.498   3.184 -0.2114 -0.3867 -0.8578
  568MOL0     C74857   1.237   2.526   3.299  0.5597  0.2685  0.7365
  568MOL0     C74858   1.105   2.464   3.269 -0.4346  0.0801  0.0924
  568MOL0     C74859   1.094   2.312   3.270  0.3493  0.5086  0.1531
  568MOL0     C74860   1.083   2.267   3.420  0.3826  0.6780  0.2797
  568MOL0     N74861   1.053   2.118   3.410  0.8772 -0.2314 -1.5689
  568MOL0     C74862   0.935   2.056   3.378  0.0018 -0.6239 -0.3199
  568MOL0     C74863   0.942   1.931   3.426 -0.4901  0.1700  0.1792
  568MOL0     C74864   0.837   1.825   3.405  0.7658  0.4858 -0.4430
  568MOL0     C74865   0.708   1.882   3.469  0.4758  0.1915 -0.0514
  568MOL0     C74866   0.608   1.772   3.464 -0.4517 -1.2892  0.0141
  568MOL0     C74867   0.470   1.835   3.470  0.5960 -1.3730  0.4274
  568MOL0     O74868   0.373   1.737   3.525  0.1018 -0.5715 -0.2195
  568MOL0     C74869   0.242   1.765   3.507 -0.3263  0.1911 -0.7504
  568MOL0     C74870   0.180   1.859   3.585  0.6531 -0.2880  0.0871
  568MOL0     C74871   0.040   1.873   3.582  0.2362 -0.9203  0.1824
  568MOL0     C74872  -0.042   1.789   3.496  0.7481  0.4864  0.2517
  568MOL0     C74873  -0.190   1.799   3.482  0.4175 -0.0204  0.4132
  568MOL0     O74874  -0.247   1.701   3.421  0.6400  0.1552 -0.2222
  568MOL0     C74875  -0.379   1.692   3.406  0.2103 -0.2692  0.7763
  568MOL0     C74876  -0.437   1.781   3.303 -0.5421  0.6964 -1.0862
  568MOL0     C74877  -0.575   1.777   3.288  1.0217  0.6258 -0.3695
  568MOL0     C74878  -0.660   1.701   3.355 -0.5801 -1.1936 -0.0306
  568MOL0     O74879  -0.795   1.708   3.329 -0.2259 -0.4603  0.2868
  568MOL0     C74880  -0.885   1.606   3.385 -0.0659  0.1895 -0.8651
  568MOL0     C74881  -1.014   1.589   3.302 -0.9210  0.4212  0.5164
  568MOL0     C74882  -0.976   1.530   3.150 -0.5366 -0.4422 -0.4735
  568MOL0     C74883  -1.106   1.501   3.074 -0.4922 -0.7866 -0.6793
  568MOL0     C74884  -1.184   1.632   3.041  0.2189  0.4638 -0.0823
  568MOL0     C74885  -1.259   1.615   2.903 -0.2964 -0.1481 -0.3299
  568MOL0     C74886  -1.331   1.738   2.869 -0.9030 -0.2819 -0.1708
  568MOL0     C74887  -1.464   1.742   2.929 -0.0220  0.4560 -0.0299
  568MOL0    Cl74888  -1.572   1.586   2.910 -0.2939  0.0056  0.3208
  568MOL0     C74889  -0.606   1.629   3.468 -0.0017  0.3023  0.4959
  568MOL0     C74890  -0.465   1.630   3.496  0.3468  0.0851  1.1380
  568MOL0     O74891  -0.239   1.910   3.523 -0.6329  0.0869  0.1212
  568MOL0     C74892   0.023   1.697   3.416  0.6277  0.3130 -1.1401
  568MOL0     C74893   0.163   1.694   3.420 -0.6429  0.0506  0.0835
  568MOL0     N74894   1.064   1.911   3.498 -0.6553 -1.0233  0.2448
  568MOL0     N74895   1.126   2.019   3.468 -0.2953  0.1374 -0.9439
  568MOL0     C74896   1.923   2.549   3.431 -0.5214  0.3538  0.2931
  568MOL0     C74897   2.042   2.577   3.494 -0.5230 -0.5670  0.0266
  568MOL0     C74898   2.449   2.763   3.589  0.0932 -0.2090  0.2457
  568MOL0     C74899   2.527   2.872   3.637  0.2843  0.1904 -0.5938
  568MOL0     C74900   2.639   2.851   3.711 -0.1409  0.0687  0.7525
  568MOL0     C74901   2.699   2.730   3.728  0.3737 -0.7488  0.2332
  568MOL0     O74902   2.813   2.733   3.796 -0.6206  0.0560  0.6955
  568MOL0     C74903   2.925   2.664   3.733 -0.5202  0.7022  0.5114
  568MOL0     C74904   3.051   2.670   3.822  0.2821 -0.0349  0.6412
  568MOL0     C74905   3.126   2.811   3.822 -0.1445 -0.0776 -0.7310
  568MOL0     C74906   3.246   2.803   3.921 -0.2898 -0.9862 -0.2700
  568MOL0     C74907   3.347   2.707   3.859 -0.4556  0.0978  0.1657
  568MOL0     C74908   3.438   2.642   3.810  0.0391 -0.4115  1.1240
  568MOL0     C74909   2.631   2.621   3.676 -0.2145 -0.5276 -0.3251
  568MOL0     C74910   2.502   2.638   3.612  0.0307  0.4839 -0.3422
  568MOL0     H74911   2.157   2.819   3.277  0.0161 -0.8125 -1.4697
  568MOL0     H74912   1.939   2.756   3.168 -0.0028 -0.3189  0.6150
  568MOL0     H74913   1.787   2.595   3.057 -2.6219 -2.3110 -1.3050
  568MOL0     H74914   1.700   2.723   3.139  1.7346 -0.0988 -1.1688
  568MOL0     H74915   1.590   2.445   3.134 -1.2386 -0.4078  1.7389
  568MOL0     H74916   1.550   2.577   3.009  0.8769 -0.0094 -0.6222
  568MOL0     H74917   1.440   2.689   3.199  1.7914  0.1682 -0.7213
  568MOL0     H74918   1.509   2.563   3.304  2.5844 -1.9844 -0.5631
  568MOL0     H74919   1.303   2.524   3.085  1.1077 -1.2208 -1.5867
  568MOL0     H74920   1.362   2.391   3.178 -0.0031 -0.3063 -1.6074
  568MOL0     H74921   1.215   2.633   3.293  1.0192  0.2913 -1.4740
  568MOL0     H74922   1.281   2.490   3.393  0.4436 -1.2814  0.2256
  568MOL0     H74923   1.065   2.496   3.172  0.3095  2.4274  0.4817
  568MOL0     H74924   1.030   2.498   3.341 -0.2627 -1.5357  1.0687
  568MOL0     H74925   0.997   2.284   3.227 -0.3636 -0.2637  2.1492
  568MOL0     H74926   1.180   2.266   3.219 -1.7001  0.4713 -3.6654
  568MOL0     H74927   1.008   2.324   3.475 -1.4509  0.7149 -2.0868
  568MOL0     H74928   1.177   2.290   3.471 -0.3016  3.9322  0.2584
  568MOL0     H74929   0.850   2.092   3.321  0.3365  0.5360 -0.0965
  568MOL0     H74930   0.872   1.743   3.468 -0.6541  0.2347  0.0480
  568MOL0     H74931   0.824   1.787   3.303  0.3340  0.3975 -0.3561
  568MOL0     H74932   0.671   1.975   3.425 -0.1595  0.1316  0.3318
  568MOL0     H74933   0.725   1.915   3.572 -0.2854 -1.8109  0.7660
  568MOL0     H74934   0.612   1.709   3.374 -1.0398 -1.9725  0.4600
  568MOL0     H74935   0.614   1.719   3.559 -0.8718  0.4022  1.0119
  568MOL0     H74936   0.434   1.886   3.380  2.0061  2.0625  1.6338
  568MOL0     H74937   0.475   1.924   3.533  0.0639  1.0039 -2.6162
  568MOL0     H74938   0.244   1.927   3.640  0.7546 -0.0205 -0.3571
  568MOL0     H74939   0.012   1.960   3.641  2.9675 -1.8635  3.1916
  568MOL0     H74940  -0.370   1.838   3.240  2.1432  0.1544  1.0699
  568MOL0     H74941  -0.618   1.826   3.201 -2.3892  0.4329  1.0592
  568MOL0     H74942  -0.926   1.643   3.480 -0.8589 -0.3237 -0.9957
  568MOL0     H74943  -0.846   1.506   3.403 -1.7195 -0.2079  0.8704
  568MOL0     H74944  -1.076   1.678   3.285  0.0486  1.3706  1.8079
  568MOL0     H74945  -1.069   1.505   3.346 -0.4578  0.2550  0.7941
  568MOL0     H74946  -0.910   1.444   3.167 -0.4838 -0.9069 -2.7551
  568MOL0     H74947  -0.918   1.606   3.096 -1.6587  1.0896  0.4041
  568MOL0     H74948  -1.072   1.452   2.982  1.1940 -0.2518 -0.3631
  568MOL0     H74949  -1.174   1.434   3.128 -0.4980 -1.5350 -1.5811
  568MOL0     H74950  -1.112   1.712   3.027  0.8351 -0.0879 -0.1240
  568MOL0     H74951  -1.264   1.653   3.113 -2.4085 -3.2442 -1.5660
  568MOL0     H74952  -1.326   1.528   2.906  1.1033 -1.2509  0.0836
  568MOL0     H74953  -1.181   1.590   2.830  4.0951 -0.1571  3.8650
  568MOL0     H74954  -1.274   1.823   2.908 -3.9195  0.7687  2.3842
  568MOL0     H74955  -1.338   1.745   2.760  0.8373 -1.2919 -0.3861
  568MOL0     H74956  -1.507   1.834   2.888 -1.7035  0.0006  0.6319
  568MOL0     H74957  -1.468   1.750   3.038 -1.1076  2.2328 -0.1674
  568MOL0     H74958  -0.683   1.588   3.533  2.3038 -2.6346  1.5849
  568MOL0     H74959  -0.435   1.580   3.588 -0.1546  1.4454  2.0676
  568MOL0     H74960  -0.044   1.649   3.346 -2.7941  2.3712  0.4568
  568MOL0     H74961   0.216   1.641   3.341 -3.7311  0.1338 -2.2287
  568MOL0     H74962   1.865   2.474   3.483  1.0228 -0.4368  0.9513
  568MOL0     H74963   2.073   2.524   3.584  0.1423 -2.2507 -1.1513
  568MOL0     H74964   2.490   2.974   3.628 -1.1135 -0.2014  0.3815
  568MOL0     H74965   2.687   2.937   3.757 -0.6377  0.3805  0.7071
  568MOL0     H74966   2.945   2.696   3.630 -4.5513  0.8559 -0.3874
  568MOL0     H74967   2.902   2.558   3.747 -0.3607  0.7847  1.4060
  568MOL0     H74968   3.009   2.649   3.921  0.2074 -1.5538  0.3047
  568MOL0     H74969   3.128   2.596   3.803 -0.0067  0.3244 -2.3371
  568MOL0     H74970   3.060   2.892   3.855 -0.0268 -0.3270  0.1318
  568MOL0     H74971   3.161   2.837   3.722 -3.2044  0.5669 -1.7499
  568MOL0     H74972   3.299   2.894   3.950  1.6085 -2.3873  0.8568
  568MOL0     H74973   3.209   2.770   4.018  2.6739 -2.2572  0.5402
  568MOL0     H74974   3.518   2.588   3.762 -0.7701  0.9107 -1.9459
  568MOL0     H74975   2.669   2.520   3.682 -2.2064 -1.3970 -1.3439
  568MOL0     H74976   2.451   2.544   3.594 -1.8586  1.5536 -0.9041
  569MOL0     O74977   7.162   1.604   1.332  0.1879 -0.8282 -1.0464
  569MOL0     C74978   7.239   1.699   1.329 -0.3422  0.5104  0.4038
  569MOL0     O74979   7.204   1.829   1.342 -0.3180 -1.3746 -0.5149
  569MOL0     C74980   7.066   1.847   1.350 -0.2030  0.5783  0.4261
  569MOL0     C74981   6.990   1.891   1.240  0.2265  0.4457  0.6272
  569MOL0     C74982   6.847   1.914   1.252 -0.4894  0.4263  0.8317
  569MOL0     C74983   6.786   1.898   1.378 -0.0733  0.0750 -0.1166
  569MOL0     O74984   6.655   1.933   1.388  0.1331 -0.9483  0.2681
  569MOL0     C74985   6.575   1.858   1.480  0.3193  0.5879 -0.5827
  569MOL0     C74986   6.442   1.939   1.502  0.4172 -0.1683  0.3093
  569MOL0     C74987   6.321   1.867   1.444  0.4715 -0.2933  0.5638
  569MOL0     C74988   6.196   1.953   1.466 -0.8703 -0.3651  0.7435
  569MOL0     C74989   6.165   2.002   1.607  0.2224 -0.3658  1.0082
  569MOL0     C74990   6.020   2.052   1.599  0.9386 -0.5762 -0.2033
  569MOL0     C74991   5.987   2.126   1.731 -0.1792  0.1561  0.1924
  569MOL0     C74992   5.867   2.221   1.716 -0.2737 -0.5622 -0.1556
  569MOL0     N74993   5.729   2.172   1.698 -0.1633  1.0822 -0.5997
  569MOL0     C74994   5.676   2.121   1.582 -1.0427  0.3394 -0.0397
  569MOL0     C74995   5.549   2.105   1.610 -0.4227 -0.6174  0.1437
  569MOL0     C74996   5.438   2.083   1.518  0.3635  1.3798  0.0347
  569MOL0     C74997   5.375   2.211   1.474  0.1325 -0.4187 -0.3799
  569MOL0     C74998   5.281   2.190   1.358  0.1851 -0.7775 -0.2553
  569MOL0     C74999   5.147   2.262   1.376 -0.4593  0.1199 -1.2117
  569MOL0     O75000   5.061   2.215   1.278  0.0648 -0.0276 -0.4138
  569MOL0     C75001   4.939   2.285   1.262 -0.9018  0.5739  0.3151
  569MOL0     C75002   4.851   2.244   1.158 -0.1908  0.2646  0.6237
  569MOL0     C75003   4.733   2.304   1.140 -0.0871  0.1382  0.9710
  569MOL0     C75004   4.696   2.414   1.221 -0.0554 -0.5240 -0.7588
  569MOL0     C75005   4.562   2.477   1.199  0.2365 -0.6077 -0.2934
  569MOL0     O75006   4.473   2.405   1.126 -0.4408  0.0376  0.2064
  569MOL0     C75007   4.342   2.450   1.096 -0.0280 -0.3268  0.1258
  569MOL0     C75008   4.266   2.520   1.191  0.0706  0.4833 -0.2004
  569MOL0     C75009   4.131   2.559   1.161  0.8501  0.7738  0.5752
  569MOL0     C75010   4.076   2.520   1.038  0.0744  0.0358  0.3583
  569MOL0     O75011   3.951   2.564   1.025 -0.5022 -0.3080  0.3178
  569MOL0     C75012   3.883   2.495   0.920  0.7218 -1.0632  0.1602
  569MOL0     C75013   3.745   2.535   0.903 -0.1336  0.5181  0.2232
  569MOL0     C75014   3.671   2.546   1.043  0.2134 -0.3170  0.1021
  569MOL0     C75015   3.521   2.575   1.013 -0.9398  0.1317  0.0615
  569MOL0     C75016   3.455   2.452   0.951  0.4360  1.0272  0.3199
  569MOL0     C75017   3.312   2.488   0.972  0.9268 -0.5404 -0.5972
  569MOL0     C75018   3.204   2.387   0.934 -0.2288  0.3595 -0.3926
  569MOL0     C75019   3.079   2.463   0.875 -0.0862  0.0489  0.0890
  569MOL0    Cl75020   3.012   2.603   0.976 -0.1792  0.1274  0.6429
  569MOL0     C75021   4.149   2.435   0.954 -0.9214 -0.2378 -0.0226
  569MOL0     C75022   4.278   2.401   0.983 -0.3488 -0.4090  0.4192
  569MOL0     O75023   4.551   2.592   1.230  0.3343  0.5724 -0.5856
  569MOL0     C75024   4.780   2.459   1.328  0.8462 -0.7233 -0.0040
  569MOL0     C75025   4.903   2.399   1.346 -0.1338  0.2792  0.2048
  569MOL0     N75026   5.532   2.133   1.740  0.0050 -0.1039  0.5464
  569MOL0     N75027   5.638   2.157   1.794 -0.4552 -0.2197  0.4535
  569MOL0     C75028   6.865   1.839   1.477 -0.9811  0.8566 -0.6451
  569MOL0     C75029   6.997   1.818   1.465 -0.1860  1.0232 -0.0748
  569MOL0     C75030   7.376   1.663   1.277  0.0158 -0.4752  0.7125
  569MOL0     C75031   7.476   1.764   1.293  0.2497  0.5271 -0.4232
  569MOL0     C75032   7.606   1.739   1.255 -0.1380  0.6518 -0.9073
  569MOL0     C75033   7.638   1.621   1.185  0.1731  1.0778 -0.3090
  569MOL0     O75034   7.765   1.605   1.140  0.0166  0.4901  0.0124
  569MOL0     C75035   7.791   1.481   1.061  0.2041 -0.6244 -0.0397
  569MOL0     C75036   7.840   1.366   1.155  0.8699  0.0276 -0.0765
  569MOL0     C75037   7.853   1.227   1.086  1.0014  0.6464 -0.1410
  569MOL0     C75038   7.973   1.205   0.989  0.8469 -0.1164 -0.6416
  569MOL0     C75039   8.097   1.192   1.072  0.4315 -0.1692 -0.0077
  569MOL0     C75040   8.190   1.196   1.154 -0.5149  1.2601  0.4421
  569MOL0     C75041   7.529   1.526   1.165 -0.2174  0.2562  0.7763
  569MOL0     C75042   7.400   1.548   1.213  0.2767  0.4236  1.0381
  569MOL0     H75043   7.045   1.920   1.152 -1.5391  3.8468  0.5077
  569MOL0     H75044   6.791   1.958   1.171  3.6854  2.1021 -1.4872
  569MOL0     H75045   6.623   1.863   1.579 -0.2849  2.5979 -0.3597
  569MOL0     H75046   6.558   1.756   1.444 -0.2111  1.4765 -3.0464
  569MOL0     H75047   6.445   2.032   1.445 -0.6959  0.5876  1.4252
  569MOL0     H75048   6.436   1.964   1.609  0.7649 -2.9254  1.0638
  569MOL0     H75049   6.307   1.778   1.506 -1.3884 -2.1745 -2.3101
  569MOL0     H75050   6.332   1.836   1.340 -3.4815  1.7901 -0.6839
  569MOL0     H75051   6.221   2.045   1.413  1.1143 -0.2003  1.8439
  569MOL0     H75052   6.110   1.894   1.432  0.6264 -1.4243 -1.4733
  569MOL0     H75053   6.235   2.085   1.617 -0.7139  0.8989 -1.7315
  569MOL0     H75054   6.173   1.931   1.690 -1.4839  0.4277  1.8919
  569MOL0     H75055   5.942   1.978   1.577 -1.8802  1.6246  1.5186
  569MOL0     H75056   6.008   2.125   1.518 -0.1019  2.0808  2.1887
  569MOL0     H75057   5.974   2.041   1.798  0.5524 -1.2215 -1.3440
  569MOL0     H75058   6.074   2.187   1.758  1.3694 -1.5345 -0.7327
  569MOL0     H75059   5.893   2.295   1.640  1.8433  1.1066  2.0716
  569MOL0     H75060   5.856   2.278   1.809 -1.6612  0.8666 -1.1494
  569MOL0     H75061   5.732   2.108   1.490  0.6708 -2.5248  1.2622
  569MOL0     H75062   5.372   2.019   1.577  1.6096  0.8558  0.8740
  569MOL0     H75063   5.466   2.023   1.431 -1.6928 -0.7581  0.7368
  569MOL0     H75064   5.446   2.290   1.451  1.2358 -0.8197  1.4109
  569MOL0     H75065   5.333   2.254   1.566 -2.0507 -0.5391 -1.2612
  569MOL0     H75066   5.325   2.227   1.266 -2.0280 -3.1447 -2.4430
  569MOL0     H75067   5.264   2.082   1.349 -4.6778 -0.0923 -2.0196
  569MOL0     H75068   5.160   2.370   1.363 -1.3126  0.6391  1.6199
  569MOL0     H75069   5.101   2.244   1.473 -1.6243  1.8805 -1.3901
  569MOL0     H75070   4.868   2.158   1.094 -1.6646  1.3230 -1.3217
  569MOL0     H75071   4.666   2.276   1.060 -0.7487 -1.6736  2.1031
  569MOL0     H75072   4.309   2.563   1.281  0.5599 -1.2971  0.4617
  569MOL0     H75073   4.067   2.622   1.222 -0.0716 -0.8538  1.3250
  569MOL0     H75074   3.881   2.386   0.932  0.2801 -0.8575  2.5829
  569MOL0     H75075   3.932   2.519   0.826 -0.8816  0.7895 -0.2556
  569MOL0     H75076   3.703   2.457   0.839  1.3934 -1.8481  1.9578
  569MOL0     H75077   3.745   2.628   0.845 -0.5942 -0.3618 -1.2507
  569MOL0     H75078   3.719   2.625   1.101 -0.7926 -0.5746  1.3107
  569MOL0     H75079   3.673   2.451   1.096 -2.2453 -1.4578 -1.6392
  569MOL0     H75080   3.470   2.610   1.103  2.3709 -0.2046  2.2256
  569MOL0     H75081   3.509   2.651   0.934 -0.9013  0.0457 -0.0284
  569MOL0     H75082   3.470   2.357   1.004  0.5157 -0.4951 -2.2402
  569MOL0     H75083   3.480   2.441   0.845 -0.0382  1.6706  0.1395
  569MOL0     H75084   3.292   2.572   0.904 -3.3172 -0.9053 -0.0555
  569MOL0     H75085   3.288   2.519   1.074  0.7681 -0.4980 -0.6475
  569MOL0     H75086   3.228   2.306   0.865 -1.1755 -0.8975  0.6803
  569MOL0     H75087   3.170   2.337   1.025 -1.2081  1.7994  0.0830
  569MOL0     H75088   3.000   2.387   0.865 -0.0095 -0.0799  0.4144
  569MOL0     H75089   3.104   2.510   0.780 -1.0956 -1.5379 -1.0275
  569MOL0     H75090   4.105   2.403   0.860 -1.2016  1.7340 -0.6104
  569MOL0     H75091   4.338   2.334   0.923 -2.2816 -1.9651  0.0968
  569MOL0     H75092   4.748   2.545   1.385 -3.4779 -3.1242  1.6152
  569MOL0     H75093   4.970   2.430   1.426  3.2285  1.4411 -2.7642
  569MOL0     H75094   6.837   1.803   1.576  0.7746 -0.4832 -0.5920
  569MOL0     H75095   7.040   1.762   1.548 -2.7777  2.5577  2.5235
  569MOL0     H75096   7.454   1.849   1.356 -0.9017  0.1672 -0.3147
  569MOL0     H75097   7.692   1.802   1.274 -0.3614  1.4561 -2.3859
  569MOL0     H75098   7.873   1.506   0.993  0.5945  1.7704  1.2023
  569MOL0     H75099   7.704   1.453   1.000 -2.9090 -0.7396  4.0189
  569MOL0     H75100   7.938   1.391   1.197  0.9352  2.5616 -1.5393
  569MOL0     H75101   7.769   1.353   1.237 -1.5737  0.6343 -1.9623
  569MOL0     H75102   7.765   1.219   1.022  1.0944 -0.3660 -0.1645
  569MOL0     H75103   7.850   1.152   1.165 -1.4047  1.9422  1.1095
  569MOL0     H75104   7.948   1.126   0.918 -1.3575 -1.8644  1.8594
  569MOL0     H75105   7.985   1.289   0.920  1.1612 -1.7095 -2.6066
  569MOL0     H75106   8.283   1.207   1.206  1.2584 -1.3953 -1.9036
  569MOL0     H75107   7.552   1.432   1.115  0.4123  0.6002  0.3980
  569MOL0     H75108   7.330   1.466   1.199  2.4805 -1.0530 -3.1686
  570MOL0     O75109   4.857   8.102   2.346  0.6291 -0.3068 -0.4931
  570MOL0     C75110   4.833   8.216   2.323 -0.2453  0.2534  0.3584
  570MOL0     O75111   4.924   8.320   2.315  0.7411  0.7905  0.4660
  570MOL0     C75112   5.059   8.302   2.335 -0.0282 -0.2894  0.8670
  570MOL0     C75113   5.142   8.188   2.305  0.3076 -0.1180  0.3115
  570MOL0     C75114   5.284   8.191   2.320  0.6474 -0.5237 -1.1060
  570MOL0     C75115   5.348   8.302   2.382 -0.0972 -0.3975  0.1911
  570MOL0     O75116   5.484   8.310   2.410 -0.1177 -0.1510  0.1419
  570MOL0     C75117   5.552   8.437   2.416 -0.3949 -0.2223  0.6420
  570MOL0     C75118   5.709   8.424   2.435 -0.3802 -0.7936 -0.0060
  570MOL0     C75119   5.770   8.430   2.295 -0.1361 -0.3155 -0.4063
  570MOL0     C75120   5.927   8.428   2.280  0.7324  0.4301  0.5137
  570MOL0     C75121   5.991   8.566   2.276 -0.3370 -0.4797 -0.1199
  570MOL0     C75122   6.016   8.631   2.412  0.7224 -0.5200 -0.3746
  570MOL0     C75123   6.094   8.758   2.408  0.8686 -0.1245  0.3055
  570MOL0     C75124   6.017   8.863   2.326  0.1636  0.1282  0.5068
  570MOL0     N75125   5.877   8.898   2.361 -0.5423 -0.6363  0.0518
  570MOL0     C75126   5.826   8.937   2.482  0.6769  0.3507 -0.3756
  570MOL0     C75127   5.689   8.906   2.470  0.6086 -0.4941 -0.0093
  570MOL0     C75128   5.567   8.934   2.558 -0.7155 -0.2371  0.0225
  570MOL0     C75129   5.552   8.817   2.651 -0.2326  0.2715 -0.5479
  570MOL0     C75130   5.459   8.874   2.768  0.1042  0.3001  0.1743
  570MOL0     C75131   5.332   8.942   2.715  0.0251  0.1942  0.2392
  570MOL0     O75132   5.250   8.833   2.674  0.4370 -0.6841 -0.0941
  570MOL0     C75133   5.151   8.871   2.586  0.0610  0.4013 -0.1741
  570MOL0     C75134   5.160   8.920   2.453 -0.0986  0.6682 -0.6060
  570MOL0     C75135   5.044   8.925   2.367 -0.2135 -1.2187  0.0773
  570MOL0     C75136   4.914   8.909   2.411  0.2612 -0.5576  0.2668
  570MOL0     C75137   4.792   8.909   2.321 -0.4557 -0.1678 -0.2281
  570MOL0     O75138   4.709   8.807   2.342 -0.1025 -0.4958  0.1037
  570MOL0     C75139   4.591   8.809   2.274 -0.8738 -0.8308  0.0117
  570MOL0     C75140   4.470   8.830   2.344 -0.1799  0.1243  0.5849
  570MOL0     C75141   4.344   8.817   2.288  0.2959 -0.3117 -0.7388
  570MOL0     C75142   4.337   8.789   2.150  0.4214  0.0021 -0.3424
  570MOL0     O75143   4.208   8.762   2.088 -1.0275  0.1427 -0.0807
  570MOL0     C75144   4.089   8.769   2.159  0.2606  0.2278 -0.4117
  570MOL0     C75145   3.986   8.709   2.064  0.0409 -1.0187  0.0411
  570MOL0     C75146   3.842   8.717   2.125 -0.6389 -0.1640  0.4082
  570MOL0     C75147   3.755   8.605   2.075 -0.0212 -0.1909  0.1865
  570MOL0     C75148   3.604   8.623   2.094 -0.0391  0.6831 -0.4155
  570MOL0     C75149   3.556   8.612   2.237  0.1685 -0.2832 -0.5738
  570MOL0     C75150   3.400   8.614   2.251  0.0407 -0.2324 -0.3198
  570MOL0     C75151   3.371   8.595   2.404  0.7247 -0.5873 -0.4655
  570MOL0    Cl75152   3.194   8.610   2.441  0.0598  0.2447 -0.4048
  570MOL0     C75153   4.459   8.782   2.072  0.2149  0.4712 -0.7486
  570MOL0     C75154   4.586   8.788   2.138 -0.1621 -0.1168 -0.2027
  570MOL0     O75155   4.790   8.985   2.222  0.2900  0.2550 -0.2194
  570MOL0     C75156   4.901   8.863   2.547 -0.4288  0.3618  0.8725
  570MOL0     C75157   5.019   8.843   2.630  0.5597 -0.7508 -0.1442
  570MOL0     N75158   5.663   8.847   2.351 -0.6478  0.5770  0.1272
  570MOL0     N75159   5.780   8.837   2.284  0.0157  0.0818  0.4682
  570MOL0     C75160   5.260   8.408   2.412 -0.1511 -0.5723 -0.3690
  570MOL0     C75161   5.126   8.415   2.386 -0.1536 -0.0666 -0.7356
  570MOL0     C75162   4.693   8.251   2.284  0.4901  0.6500 -0.3274
  570MOL0     C75163   4.642   8.383   2.277  0.5195  0.1416  0.3543
  570MOL0     C75164   4.504   8.409   2.265  0.2137 -0.3068 -0.4239
  570MOL0     C75165   4.416   8.303   2.255 -0.2311  0.1389  0.4315
  570MOL0     O75166   4.287   8.333   2.244  0.7441  0.4425 -0.3458
  570MOL0     C75167   4.251   8.369   2.110  1.3131  0.8242  1.0038
  570MOL0     C75168   4.115   8.305   2.078 -0.6974 -0.0784  0.3902
  570MOL0     C75169   4.085   8.170   2.134 -0.3215 -0.2285  0.5688
  570MOL0     C75170   3.939   8.129   2.119  0.4074  0.0878 -0.0531
  570MOL0     C75171   3.844   8.182   2.216  0.6871  0.1961  0.1661
  570MOL0     C75172   3.771   8.242   2.290 -0.4767  0.9997 -0.5716
  570MOL0     C75173   4.461   8.167   2.257  0.3997  0.1317  0.3792
  570MOL0     C75174   4.601   8.144   2.263 -0.0198  0.2425 -0.0270
  570MOL0     H75175   5.096   8.092   2.281 -1.2573  0.3320  1.4023
  570MOL0     H75176   5.345   8.103   2.305  1.4936 -0.4018  1.1231
  570MOL0     H75177   5.512   8.491   2.503 -1.3069  1.1848 -0.6076
  570MOL0     H75178   5.525   8.495   2.327  2.5066  2.4845  1.3311
  570MOL0     H75179   5.735   8.339   2.498  1.5551 -0.0417  0.2719
  570MOL0     H75180   5.744   8.515   2.485  2.2556  0.1617 -3.2329
  570MOL0     H75181   5.735   8.522   2.248  2.0770  0.4525 -0.7140
  570MOL0     H75182   5.735   8.340   2.244 -2.0510 -1.2457  2.3329
  570MOL0     H75183   5.969   8.357   2.352 -2.0410 -2.8975 -0.8199
  570MOL0     H75184   5.947   8.381   2.183 -0.9273 -0.0582  0.3700
  570MOL0     H75185   5.930   8.634   2.216  1.5227  0.3367 -1.2006
  570MOL0     H75186   6.083   8.557   2.217 -0.3292 -1.6548  0.0429
  570MOL0     H75187   6.061   8.561   2.483 -2.2733  0.5620  2.9038
  570MOL0     H75188   5.917   8.651   2.455 -0.1902 -3.5801 -0.8518
  570MOL0     H75189   6.116   8.810   2.502 -1.9616  2.3069 -0.2282
  570MOL0     H75190   6.193   8.737   2.367  0.9218 -0.9758  0.8491
  570MOL0     H75191   6.011   8.841   2.219 -1.1292 -2.4361  1.0449
  570MOL0     H75192   6.081   8.952   2.334  2.5762 -1.5769  1.1357
  570MOL0     H75193   5.868   8.985   2.570 -0.6990  0.5050  0.2402
  570MOL0     H75194   5.475   8.951   2.501 -0.3615  0.9343 -0.2407
  570MOL0     H75195   5.588   9.032   2.603  0.4922  0.5247 -2.0531
  570MOL0     H75196   5.646   8.778   2.691 -0.6201  0.9894  1.1153
  570MOL0     H75197   5.491   8.741   2.600 -1.0399  1.5123 -1.4910
  570MOL0     H75198   5.436   8.790   2.836  1.6678  0.2303  0.6513
  570MOL0     H75199   5.512   8.948   2.828  0.5292  1.3206 -1.4054
  570MOL0     H75200   5.358   9.019   2.642  3.1989 -0.3570  0.6493
  570MOL0     H75201   5.281   8.992   2.798 -1.8216 -2.1568  0.6040
  570MOL0     H75202   5.259   8.911   2.408  0.4494 -1.1086  0.8693
  570MOL0     H75203   5.049   8.938   2.260  0.3681 -1.0661  0.1181
  570MOL0     H75204   4.480   8.841   2.452  1.7178 -2.5413  0.7715
  570MOL0     H75205   4.263   8.853   2.351 -0.7791 -0.9546 -1.7103
  570MOL0     H75206   4.063   8.869   2.192  2.3042 -0.6086  4.7025
  570MOL0     H75207   4.093   8.712   2.253  0.9805  0.9425  0.0008
  570MOL0     H75208   4.016   8.605   2.053  0.1501 -1.0813  0.8704
  570MOL0     H75209   3.991   8.764   1.969  2.4710 -1.1797  0.0172
  570MOL0     H75210   3.792   8.813   2.116  1.8376  1.1175 -0.5954
  570MOL0     H75211   3.849   8.721   2.234 -3.4538 -1.1128  0.7049
  570MOL0     H75212   3.771   8.581   1.969  0.2580  1.0455 -0.0594
  570MOL0     H75213   3.778   8.511   2.126 -1.8363 -0.4684  0.5492
  570MOL0     H75214   3.562   8.531   2.052 -0.0134 -0.2103  1.4366
  570MOL0     H75215   3.554   8.702   2.036 -0.9971  0.2302 -0.2222
  570MOL0     H75216   3.590   8.696   2.300 -2.6848  0.1820  0.5068
  570MOL0     H75217   3.592   8.517   2.278 -0.0784 -0.2983 -0.3865
  570MOL0     H75218   3.365   8.714   2.223 -0.5740  0.3045  2.0825
  570MOL0     H75219   3.351   8.533   2.197  2.1683 -1.5043 -0.4626
  570MOL0     H75220   3.422   8.677   2.455  1.3166 -1.1792 -0.0991
  570MOL0     H75221   3.402   8.500   2.447 -0.7519 -1.0418 -0.3530
  570MOL0     H75222   4.442   8.755   1.969 -1.3222 -0.5442 -0.2712
  570MOL0     H75223   4.678   8.776   2.083  0.1366  2.7166 -0.4668
  570MOL0     H75224   4.807   8.834   2.592 -1.9038  1.1219 -1.5386
  570MOL0     H75225   4.997   8.807   2.730 -0.0986  0.4492  0.1717
  570MOL0     H75226   5.310   8.493   2.457 -0.0951 -1.4506  1.2858
  570MOL0     H75227   5.078   8.509   2.413  1.9310  1.2267 -1.3274
  570MOL0     H75228   4.698   8.474   2.292  2.0161 -0.7495  0.4065
  570MOL0     H75229   4.463   8.510   2.270  1.7433  0.4473 -2.0984
  570MOL0     H75230   4.325   8.335   2.037 -0.3415  0.8462 -0.7533
  570MOL0     H75231   4.242   8.477   2.093 -0.8480  0.5799  0.3567
  570MOL0     H75232   4.042   8.377   2.117 -0.1314  0.5987  0.2290
  570MOL0     H75233   4.114   8.296   1.969  1.1137  0.0719  0.3380
  570MOL0     H75234   4.110   8.173   2.240 -0.9897 -0.4735  0.7403
  570MOL0     H75235   4.148   8.099   2.080 -0.3609  0.5117 -0.4830
  570MOL0     H75236   3.905   8.158   2.019  0.2864 -1.6764 -0.5600
  570MOL0     H75237   3.931   8.020   2.131  0.6080 -0.0272 -0.9301
  570MOL0     H75238   3.695   8.285   2.352 -0.6324 -0.2612  0.1570
  570MOL0     H75239   4.395   8.081   2.252  1.3107 -0.5403 -0.6495
  570MOL0     H75240   4.650   8.048   2.261  0.6718  0.5962 -1.1895
  571MOL0     O75241  10.760   9.530   7.582  0.2641 -0.5835  0.5768
  571MOL0     C75242  10.859   9.459   7.590  0.2947  0.3408  0.8923
  571MOL0     O75243  10.873   9.330   7.539 -0.2429 -0.3157  0.0028
  571MOL0     C75244  10.750   9.281   7.486 -0.3075  0.3478 -0.5132
  571MOL0     C75245  10.700   9.159   7.538  0.1831  0.5500  0.1028
  571MOL0     C75246  10.579   9.096   7.502 -0.1452 -0.4182  0.6798
  571MOL0     C75247  10.493   9.168   7.419  0.2957  1.4822  0.2022
  571MOL0     O75248  10.366   9.131   7.388  0.0623  0.0384 -0.5735
  571MOL0     C75249  10.326   8.998   7.432  1.0985  0.3710  0.1740
  571MOL0     C75250  10.186   8.951   7.352 -0.4688 -0.1036  0.4586
  571MOL0     C75251  10.074   9.036   7.396  0.5257 -0.4169 -0.2084
  571MOL0     C75252   9.953   9.000   7.321 -0.1811 -0.2211 -0.5138
  571MOL0     C75253   9.833   9.086   7.353  0.4778  0.3991  0.3305
  571MOL0     C75254   9.760   9.045   7.484  0.2599  0.3032 -0.3458
  571MOL0     C75255   9.618   9.103   7.511  0.6473  1.2469 -0.9366
  571MOL0     C75256   9.520   9.078   7.400 -0.0443 -0.2537  0.2224
  571MOL0     N75257   9.386   9.140   7.434 -0.2309  0.1396  0.0177
  571MOL0     C75258   9.367   9.269   7.463  0.3587  0.6895 -0.0645
  571MOL0     C75259   9.239   9.274   7.504 -0.1447  0.7532 -0.0698
  571MOL0     C75260   9.178   9.395   7.572 -0.2876  0.3117 -0.3726
  571MOL0     C75261   9.125   9.493   7.473  0.0110  1.1545 -0.0122
  571MOL0     C75262   9.001   9.438   7.398  1.0612  0.6159 -0.5336
  571MOL0     C75263   8.928   9.545   7.317 -0.9373 -0.1327  0.4110
  571MOL0     O75264   8.877   9.654   7.395  0.2424  0.1685 -0.2758
  571MOL0     C75265   8.782   9.630   7.489  0.1641 -0.9663 -0.4799
  571MOL0     C75266   8.793   9.698   7.616  0.1888  0.0165 -0.1447
  571MOL0     C75267   8.710   9.664   7.728 -0.1666  0.1946  0.2233
  571MOL0     C75268   8.607   9.570   7.711 -0.2545 -0.2718 -0.3506
  571MOL0     C75269   8.502   9.536   7.820  0.7896  0.1877  0.3496
  571MOL0     O75270   8.413   9.440   7.791 -0.2002 -0.1777 -0.5406
  571MOL0     C75271   8.326   9.393   7.884 -0.4510 -0.9764  0.4701
  571MOL0     C75272   8.193   9.369   7.846  0.4847 -0.4733  0.0718
  571MOL0     C75273   8.098   9.315   7.928  0.0997  0.7576  0.7486
  571MOL0     C75274   8.137   9.273   8.056  0.5747 -0.2284  0.2103
  571MOL0     O75275   8.031   9.222   8.129  0.0328  0.7639 -0.4632
  571MOL0     C75276   8.057   9.181   8.267  0.4149 -0.1361 -0.0755
  571MOL0     C75277   7.953   9.080   8.318  0.4712  0.5663  0.2074
  571MOL0     C75278   7.827   9.158   8.336  0.0673  0.4815  0.0552
  571MOL0     C75279   7.717   9.053   8.368 -0.0738  0.3217  0.5675
  571MOL0     C75280   7.582   9.111   8.348 -0.4023  0.5156  0.1543
  571MOL0     C75281   7.482   9.019   8.413 -0.4739 -0.3170 -0.9521
  571MOL0     C75282   7.343   9.079   8.373 -0.8295 -0.1236 -0.6274
  571MOL0     C75283   7.227   8.988   8.423  0.6682  0.4041 -0.2958
  571MOL0    Cl75284   7.245   8.820   8.375  0.4722  0.0658 -0.1392
  571MOL0     C75285   8.267   9.313   8.104 -0.7144 -0.5772 -0.2193
  571MOL0     C75286   8.365   9.361   8.008  0.2257 -0.3583  0.4629
  571MOL0     O75287   8.507   9.598   7.929  0.4054  1.1510 -0.9297
  571MOL0     C75288   8.589   9.511   7.581  0.1514 -0.2481  0.2626
  571MOL0     C75289   8.669   9.541   7.473  0.2656  0.1843  0.5810
  571MOL0     N75290   9.179   9.148   7.475 -0.4725 -0.7555 -0.1979
  571MOL0     N75291   9.267   9.070   7.438 -0.3480 -0.5102  0.1316
  571MOL0     C75292  10.550   9.281   7.356  0.3403 -0.0832  0.3153
  571MOL0     C75293  10.671   9.336   7.379 -0.4411  1.3132 -0.0135
  571MOL0     C75294  10.972   9.515   7.674 -0.8297 -0.9492 -0.4198
  571MOL0     C75295  11.097   9.455   7.689  0.2743 -0.9413  0.4193
  571MOL0     C75296  11.198   9.513   7.766 -0.1651  0.1388  0.2270
  571MOL0     C75297  11.180   9.621   7.848 -0.0187 -0.2917  0.4611
  571MOL0     O75298  11.294   9.668   7.915  0.4804 -0.3822 -0.6896
  571MOL0     C75299  11.287   9.750   8.037  0.1452 -0.4684 -0.2810
  571MOL0     C75300  11.300   9.902   8.006  0.3517  0.5758 -0.3134
  571MOL0     C75301  11.319   9.994   8.119 -0.3501  0.2810 -0.2086
  571MOL0     C75302  11.205   9.995   8.220  1.0939 -0.7333 -0.6352
  571MOL0     C75303  11.086  10.058   8.159  0.6905  0.2276  0.7248
  571MOL0     C75304  10.995  10.127   8.112  0.6414  0.1568  0.1557
  571MOL0     C75305  11.054   9.681   7.842 -1.0386 -0.5574 -0.2126
  571MOL0     C75306  10.952   9.624   7.751 -0.2326 -0.2049 -0.3105
  571MOL0     H75307  10.765   9.102   7.603  0.0519  0.0187 -0.2278
  571MOL0     H75308  10.558   9.002   7.553 -3.0660 -1.1329 -1.5457
  571MOL0     H75309  10.307   9.003   7.540  1.0501 -0.0438  0.1888
  571MOL0     H75310  10.405   8.923   7.421  2.8921  1.9195  1.9796
  571MOL0     H75311  10.167   8.845   7.368  2.5836 -0.5173  2.3472
  571MOL0     H75312  10.194   8.961   7.243 -2.3961  1.1401  0.3924
  571MOL0     H75313  10.100   9.139   7.368 -3.3035  0.3187 -1.6660
  571MOL0     H75314  10.066   9.032   7.505  3.4430 -3.9180  0.0730
  571MOL0     H75315   9.981   9.036   7.221 -3.1364  2.0525 -0.6558
  571MOL0     H75316   9.929   8.893   7.321 -0.3164 -0.1957  0.4405
  571MOL0     H75317   9.765   9.060   7.271  1.9379  0.4830 -0.9376
  571MOL0     H75318   9.849   9.194   7.347  1.4248  0.4469  2.7173
  571MOL0     H75319   9.824   9.079   7.566  1.9242 -0.3781 -1.3047
  571MOL0     H75320   9.756   8.937   7.493 -1.0716  0.2159 -1.6641
  571MOL0     H75321   9.576   9.056   7.600  1.9110  3.4551  0.9491
  571MOL0     H75322   9.623   9.212   7.524  2.8039  1.3196 -1.8821
  571MOL0     H75323   9.499   8.972   7.385 -2.4209 -0.0550  1.5945
  571MOL0     H75324   9.547   9.123   7.304  0.8815 -1.9813 -0.3705
  571MOL0     H75325   9.446   9.343   7.453  3.3902 -1.9809  2.1149
  571MOL0     H75326   9.257   9.449   7.626 -1.7260  0.4751  1.6926
  571MOL0     H75327   9.115   9.362   7.655  1.7829 -1.5829  0.5425
  571MOL0     H75328   9.215   9.510   7.413  1.1061 -3.1129  0.1460
  571MOL0     H75329   9.101   9.577   7.539 -1.0153 -1.3813  3.0452
  571MOL0     H75330   9.023   9.352   7.333  0.1110  1.1165 -1.5478
  571MOL0     H75331   8.934   9.391   7.471  0.4861  0.1990 -1.3112
  571MOL0     H75332   8.840   9.510   7.263 -1.3905 -1.2972  1.8569
  571MOL0     H75333   8.996   9.587   7.242 -1.5268 -3.3021 -2.1101
  571MOL0     H75334   8.876   9.767   7.629  0.7781 -0.5658 -0.7337
  571MOL0     H75335   8.733   9.706   7.825  0.6100 -1.7671  0.9446
  571MOL0     H75336   8.164   9.390   7.744 -1.0106  2.0672  0.9173
  571MOL0     H75337   8.003   9.280   7.890  0.3811 -1.1666  1.6903
  571MOL0     H75338   8.049   9.275   8.323  0.1457 -0.9285  1.2383
  571MOL0     H75339   8.155   9.134   8.276 -0.2756 -1.8172 -0.8423
  571MOL0     H75340   7.984   9.036   8.413 -0.5465  0.6262  0.5895
  571MOL0     H75341   7.946   8.996   8.250  0.3545  1.5513 -1.0322
  571MOL0     H75342   7.788   9.216   8.252  1.6031  0.6841 -0.5450
  571MOL0     H75343   7.839   9.223   8.424 -1.0798 -2.1265  2.2745
  571MOL0     H75344   7.727   8.966   8.303  0.0524 -0.1179  1.1705
  571MOL0     H75345   7.746   9.027   8.470 -0.4177  1.0127  0.8499
  571MOL0     H75346   7.551   9.123   8.244 -1.5099 -0.3047  0.3739
  571MOL0     H75347   7.574   9.214   8.384 -0.8660 -0.4706  3.1241
  571MOL0     H75348   7.489   9.034   8.522 -2.2591  4.8437 -1.2532
  571MOL0     H75349   7.500   8.915   8.386  0.9099  0.1183 -1.7938
  571MOL0     H75350   7.336   9.176   8.423 -0.1503  0.0976 -0.9438
  571MOL0     H75351   7.334   9.113   8.270  0.0609  0.4867 -0.5178
  571MOL0     H75352   7.128   9.024   8.392  2.0757  3.0211 -2.1720
  571MOL0     H75353   7.226   8.990   8.532  2.4854  1.2273 -0.2557
  571MOL0     H75354   8.315   9.283   8.197 -0.7441  0.9233  0.3079
  571MOL0     H75355   8.465   9.381   8.045 -0.4408  1.5019  1.3815
  571MOL0     H75356   8.514   9.432   7.573  0.6727 -0.6877 -0.4094
  571MOL0     H75357   8.649   9.486   7.382 -0.5510  0.2308  0.7225
  571MOL0     H75358  10.475   9.327   7.294 -1.0149  0.4369  2.2632
  571MOL0     H75359  10.683   9.430   7.325 -1.2696  0.9468 -0.8488
  571MOL0     H75360  11.130   9.365   7.638  1.8346 -0.4211  0.4623
  571MOL0     H75361  11.291   9.459   7.781  3.5839  5.5319 -0.4312
  571MOL0     H75362  11.367   9.721   8.106  0.8114 -1.1995 -1.3398
  571MOL0     H75363  11.189   9.746   8.087  0.0677  2.1049 -0.0817
  571MOL0     H75364  11.387   9.905   7.940  3.3032 -2.5200  3.0217
  571MOL0     H75365  11.210   9.936   7.954  0.4876  1.4099 -0.0210
  571MOL0     H75366  11.326  10.091   8.070  2.3105 -0.6115 -1.7827
  571MOL0     H75367  11.404   9.971   8.184 -1.7440  2.7089  2.7449
  571MOL0     H75368  11.189   9.899   8.269 -0.8538  0.1008  0.5021
  571MOL0     H75369  11.228  10.060   8.305  3.1000 -0.2693 -1.4912
  571MOL0     H75370  10.918  10.192   8.078 -0.9396 -1.8360 -0.2465
  571MOL0     H75371  11.033   9.777   7.888  0.8970  0.3746 -1.1778
  571MOL0     H75372  10.851   9.665   7.756 -1.2646 -2.7339  1.3872
  572MOL0     O75373   3.842   0.333   6.582  0.4694 -0.2083  0.3219
  572MOL0     C75374   3.857   0.259   6.680  0.4300 -0.5619  0.1496
  572MOL0     O75375   3.981   0.235   6.739  0.0825 -0.3238 -0.7355
  572MOL0     C75376   4.095   0.312   6.730  0.0225 -0.0488  0.5944
  572MOL0     C75377   4.112   0.445   6.674  0.7796 -0.3695 -0.6560
  572MOL0     C75378   4.239   0.502   6.691 -0.7891  0.0186 -0.0048
  572MOL0     C75379   4.343   0.437   6.751 -0.3126  0.9092 -0.5102
  572MOL0     O75380   4.455   0.508   6.755  0.1956  0.0918 -0.2936
  572MOL0     C75381   4.578   0.447   6.789 -0.1132  0.0084 -0.3520
  572MOL0     C75382   4.697   0.542   6.770 -0.6032 -0.4502  0.9241
  572MOL0     C75383   4.836   0.466   6.762 -0.2330 -1.3071  0.2312
  572MOL0     C75384   4.948   0.576   6.757 -0.6309 -0.6446  0.9031
  572MOL0     C75385   5.096   0.527   6.758  0.0897  0.3284 -0.0987
  572MOL0     C75386   5.117   0.423   6.642 -1.0635  0.1924  0.4494
  572MOL0     C75387   5.239   0.333   6.660  1.1225 -0.1814  0.2456
  572MOL0     C75388   5.219   0.250   6.789 -0.0816 -0.5415  0.0849
  572MOL0     N75389   5.309   0.134   6.796 -0.5563  0.2424 -0.2660
  572MOL0     C75390   5.313   0.033   6.706 -0.0785  0.1495 -0.5295
  572MOL0     C75391   5.409  -0.048   6.748  0.6366 -0.2603  0.6541
  572MOL0     C75392   5.457  -0.187   6.710  0.2115 -1.3346 -0.0257
  572MOL0     C75393   5.351  -0.285   6.753 -0.7354  0.2507  0.1940
  572MOL0     C75394   5.221  -0.290   6.667 -0.0346  0.7052 -0.0575
  572MOL0     C75395   5.116  -0.386   6.712  0.3195 -0.4759  0.4497
  572MOL0     O75396   5.004  -0.377   6.628  0.1151 -0.1489  0.5886
  572MOL0     C75397   4.888  -0.436   6.669 -0.6194 -0.2057 -0.1663
  572MOL0     C75398   4.875  -0.535   6.770 -0.6915 -0.5338 -0.1084
  572MOL0     C75399   4.751  -0.591   6.807  0.9758  0.5142  0.1099
  572MOL0     C75400   4.636  -0.539   6.752 -0.2360 -0.2062 -0.1005
  572MOL0     C75401   4.506  -0.609   6.771 -0.4907  0.1485  0.3226
  572MOL0     O75402   4.400  -0.535   6.733 -0.2797 -0.5614 -0.9023
  572MOL0     C75403   4.265  -0.587   6.740 -0.3542  0.1514 -0.9906
  572MOL0     C75404   4.201  -0.628   6.624 -0.5762  0.7011 -0.3527
  572MOL0     C75405   4.065  -0.665   6.627 -0.0984 -0.1790  0.2419
  572MOL0     C75406   3.987  -0.659   6.746 -0.2240 -0.0710  0.7362
  572MOL0     O75407   3.863  -0.706   6.754 -0.0088 -0.2472  0.2122
  572MOL0     C75408   3.790  -0.697   6.629  1.3038 -0.2082  0.8259
  572MOL0     C75409   3.642  -0.708   6.664  0.0405  1.2805 -0.0259
  572MOL0     C75410   3.571  -0.702   6.524 -0.3307 -0.6793 -0.5793
  572MOL0     C75411   3.426  -0.699   6.542  0.7002 -1.4435  0.2591
  572MOL0     C75412   3.369  -0.705   6.405  0.1310  0.3296  0.3096
  572MOL0     C75413   3.221  -0.682   6.422 -0.1516 -0.2311  0.3637
  572MOL0     C75414   3.146  -0.729   6.295  0.4831 -0.8823 -0.2115
  572MOL0     C75415   3.063  -0.608   6.247  0.4719  0.3998 -0.0791
  572MOL0    Cl75416   2.910  -0.620   6.330  0.2378  0.8184 -0.2373
  572MOL0     C75417   4.053  -0.617   6.867  0.9628  0.5427 -0.3732
  572MOL0     C75418   4.194  -0.586   6.859  0.6492 -0.6712  0.7146
  572MOL0     O75419   4.496  -0.712   6.841  0.3085 -0.9548  0.7230
  572MOL0     C75420   4.641  -0.438   6.654  0.4538  0.3668 -0.2957
  572MOL0     C75421   4.769  -0.385   6.617  0.1478  0.7615  0.8760
  572MOL0     N75422   5.479   0.015   6.851 -0.1497 -0.3640  0.2011
  572MOL0     N75423   5.413   0.123   6.878  0.2867  0.7286  0.5952
  572MOL0     C75424   4.325   0.310   6.800 -0.3649 -0.3133  0.6846
  572MOL0     C75425   4.205   0.245   6.787 -0.2852  0.5762  0.6762
  572MOL0     C75426   3.741   0.168   6.716 -0.7963 -0.3392  0.7232
  572MOL0     C75427   3.748   0.085   6.826  0.1758 -0.0672 -0.1902
  572MOL0     C75428   3.654  -0.015   6.857 -0.0197 -0.0321  0.1347
  572MOL0     C75429   3.534  -0.017   6.787 -0.0412 -0.9933  0.0162
  572MOL0     O75430   3.429  -0.103   6.811 -0.8495 -0.1137  0.3568
  572MOL0     C75431   3.354  -0.171   6.708 -0.5453 -1.0660  0.7905
  572MOL0     C75432   3.233  -0.227   6.776 -0.1704  0.5615  0.4452
  572MOL0     C75433   3.139  -0.297   6.679  0.2860  0.2734  0.7721
  572MOL0     C75434   3.017  -0.317   6.761  0.1892 -0.4522 -0.0778
  572MOL0     C75435   2.903  -0.374   6.677 -0.4419  0.6604 -0.4778
  572MOL0     C75436   2.825  -0.423   6.600  0.2711  0.1333 -0.1141
  572MOL0     C75437   3.514   0.085   6.693 -0.1690  0.0855  0.0622
  572MOL0     C75438   3.616   0.174   6.655  0.4707  0.1782 -0.3522
  572MOL0     H75439   4.038   0.511   6.630  1.1600  3.0805  3.2355
  572MOL0     H75440   4.267   0.600   6.652 -2.8446  0.1138 -1.4406
  572MOL0     H75441   4.591   0.357   6.728 -0.0336 -0.6991  0.6915
  572MOL0     H75442   4.573   0.429   6.897  3.1226  0.7039 -0.0019
  572MOL0     H75443   4.706   0.626   6.840  2.8815  1.3419 -1.4256
  572MOL0     H75444   4.682   0.582   6.670 -1.9195 -0.7991  0.9622
  572MOL0     H75445   4.835   0.411   6.667  2.9184 -0.9938 -0.0854
  572MOL0     H75446   4.851   0.390   6.839  2.7811 -1.8110 -0.7207
  572MOL0     H75447   4.919   0.631   6.667 -1.2314  1.3392  2.2470
  572MOL0     H75448   4.933   0.645   6.840 -2.5264 -0.6283  0.5894
  572MOL0     H75449   5.105   0.463   6.847 -1.1480  0.8142  0.3992
  572MOL0     H75450   5.174   0.604   6.754  0.9079 -0.5202 -0.9596
  572MOL0     H75451   5.122   0.467   6.542 -0.9196 -0.6114  0.1007
  572MOL0     H75452   5.032   0.354   6.639 -1.9303  1.2379  0.3238
  572MOL0     H75453   5.241   0.268   6.571 -0.8896  2.5377 -1.9761
  572MOL0     H75454   5.338   0.375   6.677  2.3834 -3.1019  0.6811
  572MOL0     H75455   5.113   0.224   6.801 -0.1960  0.6879  2.4756
  572MOL0     H75456   5.253   0.320   6.866 -1.8812  1.4286 -0.7951
  572MOL0     H75457   5.252   0.026   6.617 -0.1095 -0.9057 -0.4372
  572MOL0     H75458   5.556  -0.212   6.749  0.1735 -1.3584  0.0559
  572MOL0     H75459   5.463  -0.176   6.602  1.7380 -1.0298  0.0631
  572MOL0     H75460   5.325  -0.262   6.857 -3.0684  2.1916 -0.7108
  572MOL0     H75461   5.396  -0.385   6.752  0.7659  0.7762  3.1910
  572MOL0     H75462   5.177  -0.191   6.673 -2.1085 -0.2734  2.3293
  572MOL0     H75463   5.234  -0.320   6.562  1.8234  1.4139 -0.0730
  572MOL0     H75464   5.081  -0.362   6.812  1.4304  2.7770  0.1597
  572MOL0     H75465   5.162  -0.485   6.723 -0.7130 -0.7304  3.4868
  572MOL0     H75466   4.956  -0.595   6.809 -1.3688 -0.5882  1.2551
  572MOL0     H75467   4.753  -0.674   6.878 -2.3448  0.0680 -0.1734
  572MOL0     H75468   4.267  -0.632   6.537  0.2352 -0.1127  0.2719
  572MOL0     H75469   4.030  -0.717   6.538  1.1334 -1.3049  0.3962
  572MOL0     H75470   3.815  -0.783   6.566  3.4163  1.5692 -0.9282
  572MOL0     H75471   3.803  -0.602   6.577 -1.4125 -0.3780 -0.3734
  572MOL0     H75472   3.613  -0.629   6.734  3.2914  1.0074  1.8141
  572MOL0     H75473   3.614  -0.796   6.722 -4.6624  1.7618 -1.1766
  572MOL0     H75474   3.608  -0.783   6.461  0.0336 -1.8695  1.0831
  572MOL0     H75475   3.602  -0.609   6.475 -0.6862 -0.2698 -0.0407
  572MOL0     H75476   3.390  -0.783   6.603 -0.4488 -1.8770 -0.9706
  572MOL0     H75477   3.391  -0.601   6.575  1.4000 -1.7040  1.8506
  572MOL0     H75478   3.375  -0.805   6.361  0.3845 -0.1580  1.4236
  572MOL0     H75479   3.424  -0.640   6.336  2.2775 -1.7725 -0.1352
  572MOL0     H75480   3.204  -0.576   6.443  0.7229 -0.0557  0.2292
  572MOL0     H75481   3.180  -0.746   6.501 -1.5572 -1.3651 -1.2041
  572MOL0     H75482   3.218  -0.757   6.217 -0.2133  3.3562 -2.6774
  572MOL0     H75483   3.066  -0.802   6.308 -2.4636  1.9252 -1.4014
  572MOL0     H75484   3.046  -0.622   6.140 -1.2938 -1.7242  0.4239
  572MOL0     H75485   3.110  -0.510   6.263 -0.2284  0.8043 -0.4594
  572MOL0     H75486   3.987  -0.611   6.953  2.4987 -0.2428  0.9325
  572MOL0     H75487   4.240  -0.573   6.956  1.3592  0.2299  0.2762
  572MOL0     H75488   4.552  -0.412   6.597  0.0634 -1.2105 -0.4517
  572MOL0     H75489   4.760  -0.311   6.538  1.5902  0.3137  0.2416
  572MOL0     H75490   4.407   0.255   6.844 -0.0842 -0.5682 -0.1300
  572MOL0     H75491   4.203   0.140   6.816 -0.6457 -0.4281 -2.5803
  572MOL0     H75492   3.831   0.069   6.893  0.0013 -0.5295 -0.0813
  572MOL0     H75493   3.667  -0.094   6.930  0.1248 -1.6177 -1.5171
  572MOL0     H75494   3.408  -0.260   6.674  1.3867  0.0951  0.6686
  572MOL0     H75495   3.340  -0.105   6.622  2.5636  0.3155  1.2070
  572MOL0     H75496   3.270  -0.299   6.848 -1.1642  0.1024  0.5188
  572MOL0     H75497   3.186  -0.140   6.823 -1.5338 -0.5312  1.1823
  572MOL0     H75498   3.182  -0.394   6.653  4.3925  1.0843  3.4360
  572MOL0     H75499   3.132  -0.238   6.588  2.5686 -0.5164  0.0001
  572MOL0     H75500   3.032  -0.391   6.840  4.3534 -1.1511 -1.3076
  572MOL0     H75501   2.991  -0.225   6.813 -1.9124 -1.7331  1.2671
  572MOL0     H75502   2.746  -0.473   6.548  0.8480 -0.0476 -0.8388
  572MOL0     H75503   3.412   0.103   6.660 -0.6423 -0.9160  0.9156
  572MOL0     H75504   3.598   0.245   6.575  0.8084  2.0643  1.1859
  573MOL0     O75505   1.815   0.347  10.107 -0.1543 -0.4572 -0.3924
  573MOL0     C75506   1.897   0.254  10.129  0.4268 -0.1632 -0.3943
  573MOL0     O75507   1.869   0.150  10.211  0.8721  0.0918  0.4939
  573MOL0     C75508   1.744   0.148  10.256  0.5959  0.3160  0.0853
  573MOL0     C75509   1.654   0.065  10.193 -0.4238  0.2420  0.1862
  573MOL0     C75510   1.515   0.055  10.237 -0.5677 -0.0150 -0.0872
  573MOL0     C75511   1.477   0.133  10.344 -0.5278  1.0789 -0.0400
  573MOL0     O75512   1.349   0.125  10.375 -0.1948  0.3167  0.9663
  573MOL0     C75513   1.305   0.188  10.495  0.0460 -0.3859  0.5908
  573MOL0     C75514   1.166   0.141  10.545 -0.3534 -0.1849  0.6509
  573MOL0     C75515   1.058   0.106  10.435 -0.6410 -0.4406  0.2473
  573MOL0     C75516   0.930   0.037  10.480 -0.0700  0.1145  0.6332
  573MOL0     C75517   0.955  -0.119  10.476 -0.5457 -0.0569 -0.4425
  573MOL0     C75518   0.812  -0.186  10.478  0.5526  0.3483  0.8543
  573MOL0     C75519   0.815  -0.334  10.436  1.7240  0.3683 -0.9271
  573MOL0     C75520   0.675  -0.387  10.433  0.0681 -0.8534  1.0178
  573MOL0     N75521   0.666  -0.529  10.396 -0.0713 -0.3665  0.2336
  573MOL0     C75522   0.608  -0.576  10.286  1.4440  0.4089  0.3249
  573MOL0     C75523   0.592  -0.704  10.311 -0.0755  0.0650  0.0061
  573MOL0     C75524   0.536  -0.817  10.230  0.0554  0.7750 -0.1403
  573MOL0     C75525   0.396  -0.844  10.276  0.0212 -0.8337  0.2693
  573MOL0     C75526   0.314  -0.935  10.178 -0.4149 -0.1783 -0.2569
  573MOL0     C75527   0.187  -0.969  10.255 -0.0557 -0.0958  0.2965
  573MOL0     O75528   0.109  -1.067  10.175 -0.2112  0.0722 -0.0467
  573MOL0     C75529  -0.026  -1.065  10.191  0.1579 -0.1624  0.4470
  573MOL0     C75530  -0.103  -0.951  10.151  1.2616  0.2439  0.1265
  573MOL0     C75531  -0.251  -0.965  10.157 -0.9191 -0.6347  0.0343
  573MOL0     C75532  -0.313  -1.076  10.218 -0.2594 -0.2829 -0.5570
  573MOL0     C75533  -0.462  -1.065  10.237  0.2063 -1.0220  0.8252
  573MOL0     O75534  -0.524  -0.946  10.214 -0.0149  0.4015 -0.7338
  573MOL0     C75535  -0.665  -0.959  10.216 -1.7956 -0.2381  0.5758
  573MOL0     C75536  -0.734  -0.934  10.100  0.3049  0.1611  0.3003
  573MOL0     C75537  -0.868  -0.955  10.098  0.1721 -0.7889  0.4482
  573MOL0     C75538  -0.941  -0.973  10.213  0.7238  0.7149 -0.1892
  573MOL0     O75539  -1.080  -0.985  10.219  0.2622 -0.0737 -0.1614
  573MOL0     C75540  -1.159  -0.947  10.109  0.0967  0.1682 -0.4106
  573MOL0     C75541  -1.194  -1.072  10.016 -0.4867  0.3206 -0.4649
  573MOL0     C75542  -1.318  -1.127  10.062  0.3869 -0.1687 -0.6055
  573MOL0     C75543  -1.296  -1.196  10.206 -1.0650 -0.8568 -0.2727
  573MOL0     C75544  -1.395  -1.301  10.249  0.8889 -0.6054  0.9758
  573MOL0     C75545  -1.535  -1.239  10.250 -0.1908 -0.4510 -1.2250
  573MOL0     C75546  -1.644  -1.330  10.314  0.2925 -0.0619  0.5620
  573MOL0     C75547  -1.678  -1.451  10.242  0.6082  0.8824 -0.4067
  573MOL0    Cl75548  -1.810  -1.520  10.336  0.3212  0.0383  0.0708
  573MOL0     C75549  -0.879  -0.991  10.328 -0.6871 -0.5647 -0.4318
  573MOL0     C75550  -0.734  -0.996  10.327 -0.2439 -0.9943 -0.0210
  573MOL0     O75551  -0.515  -1.170  10.255  0.1553  1.0636  0.1634
  573MOL0     C75552  -0.236  -1.180  10.251 -0.3025 -0.1723 -0.3686
  573MOL0     C75553  -0.090  -1.185  10.231  0.0499  0.0544  0.2014
  573MOL0     N75554   0.637  -0.737  10.439 -0.5611 -1.1480 -0.6520
  573MOL0     N75555   0.683  -0.623  10.484  0.0556  0.2475 -0.5777
  573MOL0     C75556   1.576   0.213  10.415 -0.3734  0.1813 -0.1155
  573MOL0     C75557   1.708   0.208  10.370  0.4897  0.5333 -0.1240
  573MOL0     C75558   2.028   0.252  10.064 -0.9231 -0.2206 -0.1422
  573MOL0     C75559   2.119   0.144  10.094  0.5789  0.2436 -0.2330
  573MOL0     C75560   2.250   0.141  10.033  0.1559 -0.3554  0.2632
  573MOL0     C75561   2.294   0.245   9.951  0.3698  0.6113 -0.2900
  573MOL0     O75562   2.422   0.241   9.900 -0.7751 -0.3302  0.0601
  573MOL0     C75563   2.460   0.351   9.820 -0.2350  0.4405 -0.2155
  573MOL0     C75564   2.482   0.476   9.917 -0.3527  0.3312  0.6357
  573MOL0     C75565   2.529   0.597   9.833  0.0239  0.7133 -0.0038
  573MOL0     C75566   2.425   0.638   9.728  0.7538  0.4576  0.3147
  573MOL0     C75567   2.446   0.786   9.715  0.9836  0.4660  0.5546
  573MOL0     C75568   2.462   0.904   9.700 -0.3141  0.1027 -0.2613
  573MOL0     C75569   2.196   0.346   9.922 -0.3667 -1.1254 -0.1017
  573MOL0     C75570   2.072   0.353   9.985  0.5237 -1.0437  0.0406
  573MOL0     H75571   1.680   0.005  10.106 -1.6588 -0.2801  0.1597
  573MOL0     H75572   1.434   0.001  10.189 -1.8595  3.4648 -2.1810
  573MOL0     H75573   1.301   0.296  10.475  2.0903  0.0630  2.2594
  573MOL0     H75574   1.389   0.178  10.564  0.3983  0.5571  0.3177
  573MOL0     H75575   1.127   0.221  10.610  2.5444  1.7372  0.2078
  573MOL0     H75576   1.190   0.046  10.594 -1.3443 -0.4804  0.5903
  573MOL0     H75577   1.109   0.038  10.366 -0.3427 -1.3476  1.3350
  573MOL0     H75578   1.024   0.200  10.390 -2.8441 -1.6552 -0.8058
  573MOL0     H75579   0.907   0.068  10.582 -5.3953 -1.5440  0.2284
  573MOL0     H75580   0.849   0.074  10.417 -0.5565 -0.4696  0.9030
  573MOL0     H75581   1.021  -0.158  10.554 -1.1002 -2.1611 -0.9414
  573MOL0     H75582   1.001  -0.131  10.378 -0.4313  1.6475 -0.6151
  573MOL0     H75583   0.740  -0.126  10.421 -2.7597 -2.0114  2.2441
  573MOL0     H75584   0.770  -0.190  10.579 -2.9135 -0.2018 -0.4721
  573MOL0     H75585   0.863  -0.337  10.338  0.9547  0.5482 -1.3155
  573MOL0     H75586   0.869  -0.389  10.514  1.1449  2.4228  1.0660
  573MOL0     H75587   0.621  -0.329  10.358  2.5560 -0.5414 -0.6656
  573MOL0     H75588   0.624  -0.369  10.528 -1.4227  1.8785 -0.2099
  573MOL0     H75589   0.591  -0.516  10.197  1.7136  3.5732  2.2472
  573MOL0     H75590   0.603  -0.903  10.239 -0.3237  0.6151  1.5606
  573MOL0     H75591   0.535  -0.791  10.124 -0.8986 -0.6116 -0.5041
  573MOL0     H75592   0.346  -0.746  10.279 -0.5015 -1.0272 -1.1450
  573MOL0     H75593   0.391  -0.881  10.379  0.5893 -3.2240 -0.4985
  573MOL0     H75594   0.288  -0.891  10.081 -2.8642 -3.8102 -1.4248
  573MOL0     H75595   0.367  -1.027  10.153  4.2863  2.0041  0.6839
  573MOL0     H75596   0.130  -0.876  10.263 -0.0248  0.0373 -0.8639
  573MOL0     H75597   0.207  -1.015  10.352 -2.2025 -0.5864  0.5634
  573MOL0     H75598  -0.057  -0.869  10.097 -0.3536  0.2890 -1.2676
  573MOL0     H75599  -0.306  -0.877  10.126  0.5180 -0.1589 -1.2969
  573MOL0     H75600  -0.677  -0.906  10.012 -0.1214 -2.5113 -0.9249
  573MOL0     H75601  -0.914  -0.948  10.000  2.2016 -2.7986 -0.7522
  573MOL0     H75602  -1.105  -0.870  10.055  0.8562  0.7738  1.1447
  573MOL0     H75603  -1.258  -0.915  10.144 -0.8480 -4.0244  1.4991
  573MOL0     H75604  -1.115  -1.146  10.033 -0.6190  0.6941  2.2258
  573MOL0     H75605  -1.187  -1.045   9.910  2.1814  0.0177 -0.4314
  573MOL0     H75606  -1.330  -1.215   9.997 -2.3137  0.8341 -1.5976
  573MOL0     H75607  -1.406  -1.063  10.055  1.2101  1.5280  2.6676
  573MOL0     H75608  -1.197  -1.243  10.200 -0.3127  0.8624 -3.6033
  573MOL0     H75609  -1.294  -1.124  10.288  1.1200  0.6130 -1.5349
  573MOL0     H75610  -1.373  -1.335  10.350  0.4562 -2.8436  0.3769
  573MOL0     H75611  -1.394  -1.395  10.192  2.7286  1.4325 -2.7487
  573MOL0     H75612  -1.562  -1.213  10.147 -0.6512 -3.9551 -2.1035
  573MOL0     H75613  -1.530  -1.149  10.313 -1.1342 -2.6400  2.2403
  573MOL0     H75614  -1.605  -1.351  10.414  1.4733 -1.1298 -0.0965
  573MOL0     H75615  -1.735  -1.270  10.310  0.6487  0.4842  0.5621
  573MOL0     H75616  -1.593  -1.520  10.242  1.3077  1.5899  2.5457
  573MOL0     H75617  -1.700  -1.405  10.145  0.1002  0.2731 -0.5890
  573MOL0     H75618  -0.934  -1.009  10.420 -1.8475  4.9053  0.2923
  573MOL0     H75619  -0.682  -1.015  10.420  1.8663 -2.0121 -1.3467
  573MOL0     H75620  -0.282  -1.268  10.294  2.3591 -1.3682  0.2916
  573MOL0     H75621  -0.036  -1.277  10.250 -0.4435 -0.1501  0.6461
  573MOL0     H75622   1.565   0.286  10.495  1.2867  0.7765 -0.3892
  573MOL0     H75623   1.786   0.271  10.412 -0.3530  1.4765  0.0415
  573MOL0     H75624   2.093   0.067  10.167  0.8377 -0.2282 -0.6364
  573MOL0     H75625   2.323   0.063  10.051 -0.1816 -1.3269 -2.1207
  573MOL0     H75626   2.379   0.370   9.748 -1.5881 -1.2874  0.7866
  573MOL0     H75627   2.554   0.331   9.767 -0.3727  1.9174 -1.0815
  573MOL0     H75628   2.390   0.511   9.966 -0.2882  2.0277 -0.3638
  573MOL0     H75629   2.554   0.462   9.998  1.4651  1.5499 -0.6998
  573MOL0     H75630   2.630   0.587   9.791  0.5121  0.7463  1.1242
  573MOL0     H75631   2.544   0.677   9.906 -1.2697  1.3932 -0.4654
  573MOL0     H75632   2.448   0.585   9.635  0.6212  0.1646  0.4501
  573MOL0     H75633   2.319   0.632   9.754 -0.6588  0.5850 -4.4218
  573MOL0     H75634   2.470   1.008   9.678 -2.8362  0.2901 -0.4971
  573MOL0     H75635   2.216   0.421   9.846 -0.4124 -1.1301 -0.1177
  573MOL0     H75636   2.005   0.435   9.961 -2.0908 -3.6160 -2.1339
  574MOL0     O75637   5.954   2.645   1.324  0.6517  0.5389 -0.0880
  574MOL0     C75638   5.985   2.728   1.404  0.1283 -0.0901 -0.3401
  574MOL0     O75639   5.899   2.785   1.496 -0.1308  0.1001 -0.7389
  574MOL0     C75640   5.769   2.739   1.491  0.5098 -0.0794 -0.4849
  574MOL0     C75641   5.737   2.615   1.537 -0.4518  0.9353  0.4500
  574MOL0     C75642   5.612   2.561   1.528 -0.7278 -0.0315  0.0654
  574MOL0     C75643   5.513   2.636   1.465  0.9614  0.2197 -0.1326
  574MOL0     O75644   5.407   2.566   1.422 -0.1064  0.2761  0.1098
  574MOL0     C75645   5.292   2.644   1.387  0.6549 -0.3454  0.6301
  574MOL0     C75646   5.275   2.675   1.240  0.2730  0.0295 -0.0436
  574MOL0     C75647   5.143   2.735   1.209 -0.7562 -0.5259  0.5800
  574MOL0     C75648   5.116   2.714   1.054  0.0638 -0.7428 -0.1119
  574MOL0     C75649   4.978   2.775   1.003  0.1798 -0.0660  0.1360
  574MOL0     C75650   4.865   2.683   1.040 -0.0375 -0.1732  0.3716
  574MOL0     C75651   4.728   2.726   0.976  0.8690 -0.2854 -0.3682
  574MOL0     C75652   4.669   2.864   1.011  0.3257 -0.4449  0.7501
  574MOL0     N75653   4.541   2.894   0.949  0.2554  0.4030 -0.3128
  574MOL0     C75654   4.427   2.814   0.969  0.0818 -0.3179  0.9212
  574MOL0     C75655   4.330   2.864   0.880 -0.1054  0.1901 -0.3874
  574MOL0     C75656   4.184   2.806   0.859 -0.6554 -0.3735  0.6804
  574MOL0     C75657   4.070   2.891   0.921 -0.2053  0.4646 -0.3723
  574MOL0     C75658   4.090   3.041   0.884 -0.9405  0.4972  0.4926
  574MOL0     C75659   3.983   3.124   0.959  0.3258  0.2249  0.1366
  574MOL0     O75660   3.855   3.068   0.915 -0.0327  0.5061  0.5699
  574MOL0     C75661   3.731   3.094   0.973  0.2330 -0.4726  0.2612
  574MOL0     C75662   3.627   3.008   0.949  0.4167 -0.3305 -0.7950
  574MOL0     C75663   3.501   3.033   0.989  0.1031  0.4467  0.4406
  574MOL0     C75664   3.477   3.144   1.077 -0.2960 -1.4329  0.1928
  574MOL0     C75665   3.343   3.154   1.151 -0.8462  0.2756  0.5092
  574MOL0     O75666   3.260   3.045   1.138  0.3998 -0.4994 -0.3252
  574MOL0     C75667   3.133   3.051   1.192  0.3803 -0.4294 -0.1421
  574MOL0     C75668   3.019   3.037   1.116  0.4588 -0.1071  0.1421
  574MOL0     C75669   2.892   3.015   1.161 -0.1515 -0.3724 -0.6563
  574MOL0     C75670   2.876   3.013   1.298  0.5572 -0.3071  0.7412
  574MOL0     O75671   2.746   2.989   1.348 -0.6837  0.0945  0.5509
  574MOL0     C75672   2.712   3.037   1.477  0.2260  0.9943  0.3216
  574MOL0     C75673   2.558   3.016   1.513  0.3278  0.0633  0.0453
  574MOL0     C75674   2.484   3.129   1.437  0.2988 -0.1299  0.9371
  574MOL0     C75675   2.331   3.107   1.448 -0.5086  0.3051  0.9424
  574MOL0     C75676   2.245   3.217   1.376  1.2722 -0.2104 -0.5718
  574MOL0     C75677   2.098   3.199   1.413  0.5423 -0.1948  0.4549
  574MOL0     C75678   2.066   3.219   1.561 -0.3651 -0.1386 -0.3156
  574MOL0     C75679   1.927   3.270   1.594 -0.6503 -0.1890 -0.1376
  574MOL0    Cl75680   1.911   3.302   1.759 -0.2570  0.3172 -0.5530
  574MOL0     C75681   2.986   3.037   1.385  0.2789 -0.6845  0.2593
  574MOL0     C75682   3.113   3.047   1.331 -0.7551  0.2050 -0.2178
  574MOL0     O75683   3.322   3.249   1.224 -0.1628  0.1016 -0.1216
  574MOL0     C75684   3.585   3.220   1.117  0.1742 -0.9545 -0.0951
  574MOL0     C75685   3.711   3.200   1.066 -0.0661  0.2795  0.5803
  574MOL0     N75686   4.389   2.968   0.805  1.1893  0.1987  0.3582
  574MOL0     N75687   4.508   2.989   0.854 -0.1660  0.8090  0.0225
  574MOL0     C75688   5.534   2.769   1.437 -0.0454  0.6042 -0.9239
  574MOL0     C75689   5.668   2.825   1.444 -0.4026  0.4860 -0.9358
  574MOL0     C75690   6.131   2.756   1.412  0.2053  1.0945  0.5851
  574MOL0     C75691   6.222   2.691   1.319  0.3112  0.6873  0.2499
  574MOL0     C75692   6.359   2.714   1.336  0.6952 -0.4895  0.1808
  574MOL0     C75693   6.404   2.795   1.432 -0.0362  0.4723  0.0557
  574MOL0     O75694   6.544   2.799   1.443  0.3319  0.3632  0.3436
  574MOL0     C75695   6.607   2.913   1.494  0.2171  0.4641 -0.3860
  574MOL0     C75696   6.748   2.915   1.457 -0.2472  0.1842  0.8675
  574MOL0     C75697   6.847   2.816   1.530 -0.1197  0.0062 -0.0870
  574MOL0     C75698   6.957   2.746   1.447 -0.3055 -0.1393  0.1293
  574MOL0     C75699   7.064   2.834   1.387 -0.0477 -0.1503  0.0929
  574MOL0     C75700   7.155   2.884   1.329  0.7311 -0.4817 -0.3285
  574MOL0     C75701   6.314   2.859   1.522  0.1176 -0.2943 -0.4147
  574MOL0     C75702   6.180   2.853   1.504  0.3746 -0.6739  0.2643
  574MOL0     H75703   5.818   2.549   1.568  0.0017  1.1014 -0.3544
  574MOL0     H75704   5.602   2.459   1.563 -1.5499  1.0229  3.2673
  574MOL0     H75705   5.291   2.744   1.431 -4.5196  0.5965 -0.9182
  574MOL0     H75706   5.204   2.591   1.426  1.4722 -1.3822  1.1366
  574MOL0     H75707   5.281   2.577   1.192  3.6501  0.2436 -0.3180
  574MOL0     H75708   5.355   2.740   1.203  1.8471 -0.9290  1.5438
  574MOL0     H75709   5.152   2.839   1.243  0.6229 -1.1790  2.3737
  574MOL0     H75710   5.071   2.686   1.275 -0.8724  0.7407  1.4354
  574MOL0     H75711   5.187   2.772   0.994 -0.7750 -1.6607 -2.0868
  574MOL0     H75712   5.129   2.609   1.024  1.0594 -0.6466 -0.0680
  574MOL0     H75713   4.984   2.787   0.894  0.4986 -0.2766  0.1300
  574MOL0     H75714   4.964   2.876   1.042 -1.0597  1.5161 -3.8215
  574MOL0     H75715   4.863   2.675   1.149  3.9440 -1.8855  0.4802
  574MOL0     H75716   4.877   2.579   1.008  0.9931 -0.0267  0.2572
  574MOL0     H75717   4.739   2.716   0.868  1.6767 -2.3313 -0.1439
  574MOL0     H75718   4.648   2.656   0.998  1.6971 -1.0131  0.4390
  574MOL0     H75719   4.737   2.937   0.966  0.2554 -0.1635  1.1001
  574MOL0     H75720   4.664   2.880   1.119 -0.2827  0.1530  0.6388
  574MOL0     H75721   4.414   2.729   1.036 -0.1377 -1.0977 -0.0754
  574MOL0     H75722   4.182   2.708   0.909  0.7291  0.6276  2.8736
  574MOL0     H75723   4.155   2.805   0.754 -1.0932  1.1959  0.7750
  574MOL0     H75724   4.072   2.871   1.028  0.5467 -4.7138 -1.1084
  574MOL0     H75725   3.974   2.860   0.877  1.3646 -4.0439 -1.1119
  574MOL0     H75726   4.188   3.075   0.917 -0.9384  1.1794 -0.1943
  574MOL0     H75727   4.069   3.060   0.778 -0.1925  3.1773  0.7523
  574MOL0     H75728   3.988   3.231   0.935  3.2078  0.3493  0.9713
  574MOL0     H75729   3.990   3.136   1.068  2.1257  0.8285 -0.0184
  574MOL0     H75730   3.642   2.925   0.880 -0.0635  0.4397 -1.8532
  574MOL0     H75731   3.427   2.956   0.971 -0.8852  1.1741  1.2725
  574MOL0     H75732   3.039   3.043   1.009  0.6507 -0.2044  0.1706
  574MOL0     H75733   2.799   3.004   1.106 -1.7179  2.8871  1.0417
  574MOL0     H75734   2.753   3.137   1.492  3.1289 -0.4184  2.8242
  574MOL0     H75735   2.762   2.972   1.549  2.1923 -1.3008 -2.8254
  574MOL0     H75736   2.534   3.016   1.620  0.3635 -1.3030  0.0649
  574MOL0     H75737   2.517   2.918   1.487  1.4810 -0.1700 -0.9418
  574MOL0     H75738   2.514   3.133   1.332  0.6678  1.3007  1.0739
  574MOL0     H75739   2.516   3.224   1.481 -0.9195  1.6728 -1.7859
  574MOL0     H75740   2.308   3.005   1.417 -1.2311  0.4398  1.0218
  574MOL0     H75741   2.325   3.106   1.557 -1.2079 -4.9372  1.1065
  574MOL0     H75742   2.262   3.215   1.268  2.1164  0.7386 -0.4745
  574MOL0     H75743   2.295   3.308   1.412  0.9881 -0.3141  0.1021
  574MOL0     H75744   2.055   3.103   1.381  0.1932  0.3013 -0.6333
  574MOL0     H75745   2.038   3.269   1.354  2.0416 -0.5088 -1.5468
  574MOL0     H75746   2.092   3.128   1.617  0.1520 -1.3624 -2.4435
  574MOL0     H75747   2.146   3.290   1.585  3.0957 -3.4104 -1.0373
  574MOL0     H75748   1.844   3.202   1.569 -1.6326  1.2399 -0.8609
  574MOL0     H75749   1.914   3.366   1.544  1.9878 -0.3766 -1.3309
  574MOL0     H75750   2.976   3.025   1.493 -0.3263  0.8114  0.3835
  574MOL0     H75751   3.201   3.040   1.394 -1.5649 -0.9591  0.8449
  574MOL0     H75752   3.559   3.303   1.183 -2.0543  1.2882 -3.4482
  574MOL0     H75753   3.796   3.263   1.093  1.4418 -0.7884 -1.4473
  574MOL0     H75754   5.461   2.833   1.389 -0.4223  1.2427  0.4402
  574MOL0     H75755   5.677   2.930   1.419 -3.0529  0.4311 -2.5396
  574MOL0     H75756   6.189   2.623   1.241  1.9877 -0.3600  0.3972
  574MOL0     H75757   6.432   2.659   1.277  0.2660 -1.4812  0.5496
  574MOL0     H75758   6.592   2.909   1.603 -1.6680  1.5955 -0.5462
  574MOL0     H75759   6.552   2.998   1.453  0.7907  1.1918  0.2993
  574MOL0     H75760   6.751   2.885   1.352  1.5251  1.0788  0.6229
  574MOL0     H75761   6.789   3.016   1.457 -1.2664  0.7783 -2.9896
  574MOL0     H75762   6.780   2.743   1.578  1.0942 -0.9526  0.2089
  574MOL0     H75763   6.890   2.873   1.613 -1.1018  1.5271 -0.5809
  574MOL0     H75764   7.008   2.665   1.500 -1.8028 -2.0652 -1.2243
  574MOL0     H75765   6.909   2.690   1.366  6.4587 -4.2468 -1.8321
  574MOL0     H75766   7.236   2.941   1.290 -0.2129  0.5811 -0.7913
  574MOL0     H75767   6.358   2.931   1.590  1.8352 -0.0864 -1.7043
  574MOL0     H75768   6.109   2.909   1.563  0.0847 -0.7857  0.0252
  575MOL0     O75769   3.031   3.637   8.577 -0.2229  0.4969  0.3986
  575MOL0     C75770   3.095   3.651   8.682  0.0550  0.0019  0.2430
  575MOL0     O75771   3.036   3.673   8.801  0.6039  0.4750  0.0802
  575MOL0     C75772   2.903   3.637   8.803  0.7331 -0.4464  0.5866
  575MOL0     C75773   2.787   3.722   8.783 -0.4673 -0.5276 -0.3427
  575MOL0     C75774   2.655   3.667   8.769  0.0491 -0.2795  0.8511
  575MOL0     C75775   2.628   3.529   8.786 -0.0804 -0.2971 -0.3546
  575MOL0     O75776   2.494   3.493   8.793  0.3689  0.6018  0.6832
  575MOL0     C75777   2.481   3.355   8.784 -0.0398 -0.5413 -1.1539
  575MOL0     C75778   2.335   3.313   8.785 -0.7466  0.0345  0.0317
  575MOL0     C75779   2.267   3.362   8.908  1.1881  0.0996 -0.5233
  575MOL0     C75780   2.118   3.342   8.898  0.7441  0.5636  0.3736
  575MOL0     C75781   2.054   3.347   9.035  0.1375 -0.0422  0.4697
  575MOL0     C75782   1.910   3.303   9.023 -0.1539  0.5586  0.8257
  575MOL0     C75783   1.837   3.302   9.162  1.0727  0.8777  0.4198
  575MOL0     C75784   1.702   3.226   9.150  0.5731  0.0393 -0.4809
  575MOL0     N75785   1.586   3.301   9.117  0.0502 -1.3768  0.5404
  575MOL0     C75786   1.560   3.389   9.003 -0.0508 -0.4070  0.0707
  575MOL0     C75787   1.422   3.408   9.022 -0.1876  0.1388 -0.2509
  575MOL0     C75788   1.352   3.511   8.941  0.5492 -0.5398  0.2554
  575MOL0     C75789   1.206   3.470   8.905  0.1087 -0.2541 -0.4112
  575MOL0     C75790   1.195   3.347   8.818 -0.2067  0.0568  0.4336
  575MOL0     C75791   1.266   3.344   8.679 -1.1438 -0.2911 -0.0024
  575MOL0     O75792   1.407   3.308   8.706 -0.6625 -0.5166  0.1915
  575MOL0     C75793   1.501   3.341   8.614  0.1674 -0.6159  0.8030
  575MOL0     C75794   1.470   3.340   8.471  0.5695  0.3609 -0.4212
  575MOL0     C75795   1.558   3.374   8.377 -0.3339  0.9259  0.1823
  575MOL0     C75796   1.694   3.386   8.411  0.9691 -0.3751  0.1006
  575MOL0     C75797   1.779   3.441   8.307  0.4473 -0.6563 -0.3856
  575MOL0     O75798   1.907   3.469   8.350 -0.2896 -0.6441 -0.1755
  575MOL0     C75799   1.997   3.524   8.263 -0.1508  0.6645 -0.4760
  575MOL0     C75800   2.051   3.447   8.155  0.4663 -0.4375  0.3103
  575MOL0     C75801   2.149   3.502   8.075  0.5843  0.7480  0.2470
  575MOL0     C75802   2.197   3.629   8.094 -0.1626  0.9820  0.3557
  575MOL0     O75803   2.295   3.691   8.021  0.5306 -0.4577  0.3086
  575MOL0     C75804   2.391   3.599   7.960  0.4382 -0.0891  0.3837
  575MOL0     C75805   2.501   3.674   7.887  0.0411 -0.6076  0.2568
  575MOL0     C75806   2.570   3.787   7.959  0.7516 -0.2914 -0.0621
  575MOL0     C75807   2.681   3.853   7.878  1.3468  0.0948  0.4449
  575MOL0     C75808   2.793   3.754   7.839 -0.6055 -0.4204  0.2312
  575MOL0     C75809   2.912   3.835   7.795 -0.1049 -0.0892  0.4609
  575MOL0     C75810   3.030   3.746   7.757 -0.5568 -0.8316 -0.4487
  575MOL0     C75811   3.144   3.820   7.687  0.1196  0.6564 -0.9895
  575MOL0    Cl75812   3.087   3.896   7.540 -0.4678  0.0449  0.1786
  575MOL0     C75813   2.144   3.697   8.200  0.2619  0.0264  0.5996
  575MOL0     C75814   2.047   3.650   8.284 -0.6327 -0.0444 -0.6949
  575MOL0     O75815   1.733   3.471   8.200 -0.4493  0.0363 -0.0932
  575MOL0     C75816   1.734   3.382   8.546 -0.3148  0.8103  0.8672
  575MOL0     C75817   1.639   3.362   8.641 -0.1901 -0.7837  0.6968
  575MOL0     N75818   1.372   3.345   9.138 -0.2610 -0.6056  0.8481
  575MOL0     N75819   1.469   3.285   9.190 -0.0066 -0.8583 -0.3410
  575MOL0     C75820   2.745   3.457   8.829 -1.0175 -0.4578 -0.4788
  575MOL0     C75821   2.872   3.505   8.829 -0.1049 -0.2569 -0.1453
  575MOL0     C75822   3.240   3.655   8.669  0.8126 -0.0544  0.1439
  575MOL0     C75823   3.301   3.600   8.559 -0.4619 -0.5487 -0.3009
  575MOL0     C75824   3.433   3.588   8.551 -0.8892 -0.5589  0.2870
  575MOL0     C75825   3.513   3.644   8.646 -0.7161  0.0592 -0.9121
  575MOL0     O75826   3.649   3.637   8.638 -0.0072 -0.4913 -0.2974
  575MOL0     C75827   3.705   3.734   8.546  0.6463 -0.7533  0.5626
  575MOL0     C75828   3.796   3.832   8.625 -0.1182 -0.1637 -0.8916
  575MOL0     C75829   3.726   3.950   8.695 -0.2955 -0.3955  0.5864
  575MOL0     C75830   3.833   4.038   8.777 -0.2982  0.5057 -1.1808
  575MOL0     C75831   3.778   4.178   8.788 -0.6189 -0.2356 -0.1184
  575MOL0     C75832   3.738   4.294   8.800 -0.4230  0.6904  0.4856
  575MOL0     C75833   3.457   3.711   8.760  0.3499 -0.2427  0.5904
  575MOL0     C75834   3.318   3.709   8.776  0.1583 -0.0691 -0.1253
  575MOL0     H75835   2.802   3.828   8.770  0.7142 -0.8597 -1.8896
  575MOL0     H75836   2.565   3.725   8.754 -0.0615 -0.3541  1.2025
  575MOL0     H75837   2.529   3.322   8.877  3.6370  2.0472 -1.9280
  575MOL0     H75838   2.539   3.314   8.701  0.0678  4.5230 -3.9484
  575MOL0     H75839   2.319   3.206   8.772 -1.1734  0.1342 -0.2907
  575MOL0     H75840   2.290   3.360   8.697  2.2408 -1.8337 -2.6907
  575MOL0     H75841   2.280   3.465   8.945 -1.2792  0.5335 -0.6694
  575MOL0     H75842   2.307   3.295   8.984  0.0143  0.6419  0.6153
  575MOL0     H75843   2.083   3.423   8.832  0.7487  0.6210  0.4419
  575MOL0     H75844   2.096   3.246   8.850  1.1514  0.0534  1.1884
  575MOL0     H75845   2.066   3.444   9.085  2.8911  0.0127 -0.1370
  575MOL0     H75846   2.095   3.273   9.105 -2.5424 -1.9682  0.1704
  575MOL0     H75847   1.907   3.204   8.978  2.8594  0.2491  1.1173
  575MOL0     H75848   1.860   3.368   8.951 -1.4046 -2.5909 -1.3367
  575MOL0     H75849   1.893   3.245   9.236 -2.3396 -1.1579  1.6925
  575MOL0     H75850   1.830   3.404   9.199  1.6823  0.7846  0.7945
  575MOL0     H75851   1.681   3.185   9.250 -0.2180 -1.9668 -1.4203
  575MOL0     H75852   1.695   3.146   9.076 -1.3067 -0.8407  0.5673
  575MOL0     H75853   1.622   3.429   8.923 -0.7840 -1.6907 -1.1952
  575MOL0     H75854   1.394   3.556   8.850 -1.1301  1.5499  0.4478
  575MOL0     H75855   1.339   3.595   9.009  1.5180  0.4417 -0.7261
  575MOL0     H75856   1.177   3.555   8.842 -1.3795 -1.7444 -1.8563
  575MOL0     H75857   1.142   3.456   8.992 -1.2393 -0.5436 -1.4090
  575MOL0     H75858   1.221   3.258   8.875 -1.2750 -0.4614  0.1392
  575MOL0     H75859   1.089   3.327   8.800  0.0886 -1.4584  0.2905
  575MOL0     H75860   1.263   3.445   8.637 -1.5502  0.2184  1.1996
  575MOL0     H75861   1.228   3.269   8.610 -2.3135 -2.0988  2.4666
  575MOL0     H75862   1.371   3.319   8.432  1.5722 -2.6079 -1.6933
  575MOL0     H75863   1.519   3.375   8.275  0.1176 -0.2566 -0.0228
  575MOL0     H75864   2.005   3.349   8.149  0.6173 -0.4870 -0.0589
  575MOL0     H75865   2.175   3.430   7.999  2.5400  0.1400  1.4237
  575MOL0     H75866   2.343   3.532   7.888  1.6113  1.9090 -2.4367
  575MOL0     H75867   2.430   3.545   8.047 -4.1144 -1.7717  1.6376
  575MOL0     H75868   2.461   3.700   7.789 -0.8144 -2.1108  0.1738
  575MOL0     H75869   2.578   3.599   7.870 -2.1543 -3.2351  1.1067
  575MOL0     H75870   2.618   3.744   8.048  3.3017 -2.7175 -2.4136
  575MOL0     H75871   2.502   3.870   7.981 -0.2865 -1.6886  2.3845
  575MOL0     H75872   2.634   3.896   7.790 -0.0458 -2.8250 -0.3388
  575MOL0     H75873   2.734   3.925   7.942  2.4380  0.2003 -0.5320
  575MOL0     H75874   2.748   3.704   7.753  2.9935 -0.6815 -1.6706
  575MOL0     H75875   2.813   3.684   7.920 -2.6193 -1.4030 -0.0526
  575MOL0     H75876   2.959   3.899   7.870  1.0186 -0.6066  0.2265
  575MOL0     H75877   2.888   3.900   7.711 -3.5604 -1.3435  0.3216
  575MOL0     H75878   3.073   3.710   7.851  2.2266  1.5365 -0.6806
  575MOL0     H75879   2.998   3.662   7.694 -3.0722  1.2840 -2.2303
  575MOL0     H75880   3.230   3.757   7.664  1.1402 -0.2004  4.0567
  575MOL0     H75881   3.188   3.896   7.753  0.7502 -0.0667 -0.5665
  575MOL0     H75882   2.195   3.789   8.225 -0.6020  0.7095 -0.0889
  575MOL0     H75883   2.023   3.711   8.371 -0.8060 -0.3200 -0.5466
  575MOL0     H75884   1.840   3.397   8.565  0.8212 -2.2278 -2.0534
  575MOL0     H75885   1.673   3.361   8.744 -0.7571  1.1824  0.9452
  575MOL0     H75886   2.744   3.349   8.842  1.7291 -0.6626 -1.2491
  575MOL0     H75887   2.961   3.448   8.851  0.7390  1.1550  0.2442
  575MOL0     H75888   3.254   3.555   8.472 -0.5670 -2.2432  0.5965
  575MOL0     H75889   3.478   3.528   8.473 -1.2251  1.8129 -1.8806
  575MOL0     H75890   3.638   3.794   8.484  3.1637  1.7041  0.0245
  575MOL0     H75891   3.765   3.678   8.474 -2.2790 -0.2123 -2.5697
  575MOL0     H75892   3.849   3.774   8.700  4.0850  2.4991 -1.4659
  575MOL0     H75893   3.876   3.877   8.566  0.9939  0.2121  0.8208
  575MOL0     H75894   3.656   3.913   8.771  1.2549 -0.3124  2.1051
  575MOL0     H75895   3.675   4.018   8.626 -1.5753 -2.6484 -0.8339
  575MOL0     H75896   3.854   4.013   8.882  2.2860  1.2532 -1.4399
  575MOL0     H75897   3.933   4.028   8.735  0.0473 -1.7889  0.0164
  575MOL0     H75898   3.712   4.398   8.803 -1.5755  0.4300 -0.1634
  575MOL0     H75899   3.515   3.761   8.837  1.6639  3.3051 -2.3905
  575MOL0     H75900   3.271   3.733   8.870  1.3564 -0.1300  0.5154
  576MOL0     O75901   9.656   9.700   0.812  0.0122  0.1233  0.2965
  576MOL0     C75902   9.673   9.660   0.925  0.1866 -0.5979  0.4665
  576MOL0     O75903   9.572   9.616   1.007 -0.1109 -0.7177 -0.9628
  576MOL0     C75904   9.435   9.649   0.980  0.6713  0.6931 -0.3161
  576MOL0     C75905   9.368   9.708   0.870  0.1653  1.3505  0.5718
  576MOL0     C75906   9.227   9.717   0.876  0.8211  0.1877 -0.6611
  576MOL0     C75907   9.151   9.685   0.988 -0.0718  0.5657  0.2418
  576MOL0     O75908   9.019   9.720   0.973  0.7013  0.0966 -0.0920
  576MOL0     C75909   8.926   9.709   1.083 -0.4347 -0.2753 -0.2600
  576MOL0     C75910   8.791   9.773   1.048  0.0785  0.0575  0.5206
  576MOL0     C75911   8.668   9.720   1.136  0.1853 -0.7496 -0.0399
  576MOL0     C75912   8.546   9.804   1.116  0.2424 -0.2168 -2.0640
  576MOL0     C75913   8.438   9.785   1.227 -0.9139 -0.1186 -0.3444
  576MOL0     C75914   8.337   9.900   1.235 -0.3330  0.7274  0.3481
  576MOL0     C75915   8.213   9.862   1.308 -0.3785  0.4057  0.3221
  576MOL0     C75916   8.109   9.974   1.321  0.9330 -0.6366 -0.8909
  576MOL0     N75917   7.991   9.945   1.402 -0.0122  0.1695 -0.0469
  576MOL0     C75918   7.873  10.022   1.396  0.8965 -0.7818  1.1222
  576MOL0     C75919   7.778   9.952   1.451  1.2656 -0.8432 -0.3484
  576MOL0     C75920   7.641   9.994   1.489  0.1881 -0.0047  0.2594
  576MOL0     C75921   7.534   9.878   1.499 -0.4627  0.0223 -0.3174
  576MOL0     C75922   7.387   9.927   1.499  0.5865 -0.3991 -0.7382
  576MOL0     C75923   7.356   9.966   1.647 -0.4838  0.4170 -0.5235
  576MOL0     O75924   7.250  10.060   1.655 -0.5858 -0.4785  0.3506
  576MOL0     C75925   7.120  10.015   1.655  0.0792 -0.5122  0.2056
  576MOL0     C75926   7.081   9.883   1.663  0.2925 -0.2823  0.1007
  576MOL0     C75927   6.948   9.846   1.651  0.3241 -0.0562 -0.6932
  576MOL0     C75928   6.844   9.947   1.627  0.5180  0.0363 -0.0165
  576MOL0     C75929   6.701   9.920   1.634 -0.0146 -0.3497  0.2538
  576MOL0     O75930   6.675   9.801   1.688  0.0641  0.2941 -0.5087
  576MOL0     C75931   6.552   9.777   1.702  0.2705  0.0436 -0.5426
  576MOL0     C75932   6.468   9.832   1.802 -0.4768  0.5263  0.6760
  576MOL0     C75933   6.345   9.783   1.823 -0.0706 -0.7306  0.3322
  576MOL0     C75934   6.290   9.689   1.743 -0.0434 -0.0884 -0.1609
  576MOL0     O75935   6.167   9.643   1.771  0.1283  0.3016 -0.6443
  576MOL0     C75936   6.115   9.534   1.698 -0.1452  0.0409 -0.4841
  576MOL0     C75937   5.977   9.486   1.747  0.4304  0.4183  0.3052
  576MOL0     C75938   5.855   9.568   1.700  0.7031 -0.9412  0.3227
  576MOL0     C75939   5.726   9.506   1.758 -1.1143 -0.2063  0.4201
  576MOL0     C75940   5.605   9.591   1.711 -0.1296  0.0135  0.2474
  576MOL0     C75941   5.476   9.561   1.795  0.1369 -0.0138 -1.1182
  576MOL0     C75942   5.362   9.650   1.754  0.6437 -0.1895 -0.7716
  576MOL0     C75943   5.301   9.645   1.613 -0.1601 -0.1144 -0.8621
  576MOL0    Cl75944   5.171   9.764   1.611 -0.2087  0.2262  0.1109
  576MOL0     C75945   6.366   9.635   1.637  0.1682 -0.5728  0.2229
  576MOL0     C75946   6.496   9.674   1.621 -0.5114 -0.0604 -0.3159
  576MOL0     O75947   6.618  10.001   1.580  0.2270 -0.0642 -0.3865
  576MOL0     C75948   6.886  10.080   1.635 -0.0725 -0.9894  1.0280
  576MOL0     C75949   7.024  10.114   1.645 -0.7079 -0.2002  0.5113
  576MOL0     N75950   7.846   9.842   1.503 -1.0574 -0.6775 -0.4907
  576MOL0     N75951   7.971   9.838   1.484 -0.5424  0.2633 -0.4955
  576MOL0     C75952   9.225   9.629   1.093 -0.4504 -0.1323 -0.0206
  576MOL0     C75953   9.363   9.606   1.093 -0.0761  0.5089 -0.0028
  576MOL0     C75954   9.821   9.635   0.960  0.5509 -0.0587 -0.1335
  576MOL0     C75955   9.931   9.704   0.895  0.2835 -0.4148 -0.0730
  576MOL0     C75956  10.065   9.687   0.933  1.1542  0.1776  0.5950
  576MOL0     C75957  10.103   9.600   1.034  0.1020  0.9112  0.0911
  576MOL0     O75958  10.235   9.580   1.078 -0.2335  0.2681 -1.0715
  576MOL0     C75959  10.327   9.670   1.021 -0.0617 -0.0776 -0.6487
  576MOL0     C75960  10.466   9.633   1.073 -0.0795 -0.1917 -0.1625
  576MOL0     C75961  10.576   9.707   1.002  0.5585 -0.8694  0.7365
  576MOL0     C75962  10.710   9.697   1.075  0.7981  0.0694 -1.1308
  576MOL0     C75963  10.712   9.774   1.197 -0.7253 -0.1616  0.7050
  576MOL0     C75964  10.741   9.834   1.295 -0.0607 -0.2087 -0.0370
  576MOL0     C75965  10.003   9.532   1.094  0.0487  0.3281 -0.1368
  576MOL0     C75966   9.865   9.541   1.059  0.3795 -0.0247  0.3628
  576MOL0     H75967   9.420   9.711   0.775 -2.0282 -0.3060 -0.7875
  576MOL0     H75968   9.173   9.763   0.794  0.8939  1.0565 -0.2316
  576MOL0     H75969   8.979   9.760   1.164 -1.5787  1.0922 -0.3239
  576MOL0     H75970   8.908   9.604   1.109  1.0431 -0.4461  0.1454
  576MOL0     H75971   8.766   9.740   0.947 -1.7601  0.4434  0.8208
  576MOL0     H75972   8.791   9.881   1.063 -0.5880  0.1802 -0.2985
  576MOL0     H75973   8.699   9.730   1.240  0.6988 -3.4977  0.1272
  576MOL0     H75974   8.646   9.616   1.110  0.7623 -0.4245 -1.9894
  576MOL0     H75975   8.582   9.907   1.124 -0.9954  0.2836 -2.6580
  576MOL0     H75976   8.500   9.790   1.017 -1.2078 -0.9008 -1.3216
  576MOL0     H75977   8.484   9.773   1.325  0.5238  0.8813 -0.8594
  576MOL0     H75978   8.384   9.693   1.206  0.5712 -0.2479 -4.9691
  576MOL0     H75979   8.315   9.929   1.132  0.1859  0.0755  0.0462
  576MOL0     H75980   8.386   9.988   1.278  0.9926  1.2365 -2.0441
  576MOL0     H75981   8.168   9.778   1.254  3.0314 -1.3488 -0.0102
  576MOL0     H75982   8.246   9.831   1.408 -0.4856  2.7428  1.1511
  576MOL0     H75983   8.071   9.996   1.221  0.4349 -2.2854 -1.0942
  576MOL0     H75984   8.164  10.061   1.360 -0.2098  0.1329 -0.9688
  576MOL0     H75985   7.858  10.115   1.341 -2.3912 -2.2094 -0.6845
  576MOL0     H75986   7.607  10.058   1.407 -0.3463 -1.8164 -0.9831
  576MOL0     H75987   7.644  10.050   1.583  0.8303  1.4825 -0.6227
  576MOL0     H75988   7.557   9.818   1.588  3.3387 -2.1181 -2.4628
  576MOL0     H75989   7.550   9.812   1.413  0.7656 -0.5922  0.3548
  576MOL0     H75990   7.381  10.017   1.437  2.2933 -0.5534 -1.1782
  576MOL0     H75991   7.320   9.853   1.455  0.7431 -2.0668  1.6700
  576MOL0     H75992   7.444  10.012   1.693 -0.5819 -0.6002  0.7308
  576MOL0     H75993   7.343   9.872   1.702 -2.2112 -0.6227 -2.5590
  576MOL0     H75994   7.157   9.806   1.665 -2.0009 -2.6746 -0.1472
  576MOL0     H75995   6.924   9.741   1.664 -1.4925  0.6910  3.7903
  576MOL0     H75996   6.502   9.913   1.866  1.8224  0.6102 -0.5476
  576MOL0     H75997   6.290   9.832   1.903  0.3229 -0.6028  0.5236
  576MOL0     H75998   6.172   9.441   1.701 -1.5913 -0.8874 -0.7133
  576MOL0     H75999   6.102   9.565   1.594  0.4806  1.8660 -0.0552
  576MOL0     H76000   5.983   9.481   1.856 -1.3946  1.8304  0.5176
  576MOL0     H76001   5.951   9.383   1.721 -1.9455  0.9378  0.3717
  576MOL0     H76002   5.858   9.575   1.591 -2.1046 -4.0172 -0.1032
  576MOL0     H76003   5.857   9.668   1.744 -0.1758  0.4162 -2.4883
  576MOL0     H76004   5.711   9.412   1.704 -1.6790 -0.1581  0.4896
  576MOL0     H76005   5.736   9.485   1.865  2.4988  2.9535  0.9612
  576MOL0     H76006   5.596   9.560   1.607 -1.2563 -2.4290  0.9820
  576MOL0     H76007   5.618   9.699   1.722  2.6107 -0.2756  0.6988
  576MOL0     H76008   5.505   9.580   1.898 -1.7455  2.0756 -0.8870
  576MOL0     H76009   5.441   9.458   1.801 -1.6113  0.5882  4.8436
  576MOL0     H76010   5.282   9.637   1.827  0.8668  3.1015  0.2547
  576MOL0     H76011   5.395   9.751   1.783 -1.2154 -0.5877  3.4401
  576MOL0     H76012   5.256   9.549   1.585 -1.8680  0.3257  0.2589
  576MOL0     H76013   5.374   9.678   1.539  0.8164  1.3949  0.7211
  576MOL0     H76014   6.330   9.563   1.563 -2.4657  0.8379 -0.0082
  576MOL0     H76015   6.554   9.636   1.537  0.1564 -0.7445  0.4361
  576MOL0     H76016   6.814  10.160   1.630  3.0504  2.1143  1.9155
  576MOL0     H76017   7.054  10.217   1.661 -0.0959 -0.5027  1.4278
  576MOL0     H76018   9.166   9.601   1.179 -1.3874  0.0492 -0.5848
  576MOL0     H76019   9.414   9.542   1.164  2.2310  0.9881 -1.1246
  576MOL0     H76020   9.924   9.790   0.829  1.4920 -0.0978  0.1873
  576MOL0     H76021  10.141   9.748   0.885  1.5883 -0.5789  0.3047
  576MOL0     H76022  10.303   9.772   1.053 -0.1025 -0.6691  1.3504
  576MOL0     H76023  10.319   9.645   0.915 -3.6541 -0.1509 -0.4519
  576MOL0     H76024  10.466   9.665   1.178 -1.6001  1.6123 -0.6546
  576MOL0     H76025  10.478   9.525   1.066 -2.7277 -0.5986  0.8013
  576MOL0     H76026  10.545   9.809   0.975 -0.7082 -1.8797 -2.0009
  576MOL0     H76027  10.580   9.654   0.906 -1.0938 -2.1207  1.3093
  576MOL0     H76028  10.741   9.593   1.090 -1.1377 -0.3036  0.9508
  576MOL0     H76029  10.788   9.747   1.017  2.1323 -0.8216 -0.1654
  576MOL0     H76030  10.764   9.893   1.382 -2.3800  1.9174 -0.7391
  576MOL0     H76031  10.030   9.460   1.171 -1.5433 -1.1560 -0.8918
  576MOL0     H76032   9.799   9.493   1.130  1.5679  0.7500  2.0794
  577MOL0     O76033  10.617   4.185   6.641 -0.7277 -0.1729  0.1315
  577MOL0     C76034  10.594   4.247   6.537  0.1020 -0.5401  0.0315
  577MOL0     O76035  10.680   4.258   6.427  0.7586 -0.5299 -0.9584
  577MOL0     C76036  10.812   4.222   6.430 -0.5753 -0.5998  0.3836
  577MOL0     C76037  10.873   4.100   6.474  1.0220  0.6058  0.0916
  577MOL0     C76038  11.009   4.086   6.463 -0.9196  1.1418 -0.4130
  577MOL0     C76039  11.087   4.169   6.388 -0.2207  0.2438 -0.0031
  577MOL0     O76040  11.224   4.140   6.372 -0.0539  0.5596  0.3074
  577MOL0     C76041  11.319   4.247   6.344 -0.0582  0.3877 -0.0110
  577MOL0     C76042  11.461   4.224   6.396 -0.5615  0.3880 -0.0096
  577MOL0     C76043  11.516   4.083   6.368 -0.4935  0.0009 -0.8408
  577MOL0     C76044  11.651   4.045   6.436 -0.2998  0.4661  1.0134
  577MOL0     C76045  11.698   3.895   6.437  0.0229 -0.2025  0.7010
  577MOL0     C76046  11.846   3.876   6.463  0.4525 -0.0524  0.2697
  577MOL0     C76047  11.924   3.908   6.328 -0.9596 -0.1160  0.7359
  577MOL0     C76048  12.079   3.889   6.309  0.6989  0.0178 -0.0901
  577MOL0     N76049  12.132   3.755   6.336  0.3774 -0.5906 -0.1632
  577MOL0     C76050  12.126   3.693   6.460 -0.7143  0.0858  0.1343
  577MOL0     C76051  12.181   3.570   6.438 -0.3915  0.0499  0.2012
  577MOL0     C76052  12.221   3.476   6.552  0.0683  0.4104  0.1243
  577MOL0     C76053  12.368   3.485   6.575 -0.1282  0.2881 -0.5657
  577MOL0     C76054  12.438   3.408   6.686  0.0740 -0.6438  0.5545
  577MOL0     C76055  12.587   3.414   6.678  0.4521 -1.0834 -0.1490
  577MOL0     O76056  12.626   3.355   6.556 -0.3557  0.2859 -0.2060
  577MOL0     C76057  12.758   3.357   6.532 -0.8148 -0.8474 -0.1760
  577MOL0     C76058  12.862   3.345   6.631  0.0188  0.5501 -0.4534
  577MOL0     C76059  12.991   3.348   6.595  0.1017 -0.1780 -0.7567
  577MOL0     C76060  13.027   3.374   6.465  0.0566  0.4892 -0.3253
  577MOL0     C76061  13.164   3.389   6.433 -0.0166 -0.2446  0.7838
  577MOL0     O76062  13.262   3.330   6.510  0.2805  0.1307  0.3384
  577MOL0     C76063  13.385   3.354   6.467 -0.1657  0.3893 -1.0016
  577MOL0     C76064  13.458   3.457   6.535  0.3010 -0.4131 -0.2043
  577MOL0     C76065  13.594   3.475   6.510  1.1945 -0.1110  1.0403
  577MOL0     C76066  13.650   3.398   6.412 -0.3083  0.7748 -0.3108
  577MOL0     O76067  13.780   3.397   6.370  0.2599  0.1537  0.5614
  577MOL0     C76068  13.863   3.514   6.396  0.4662 -0.3593 -0.3280
  577MOL0     C76069  13.993   3.518   6.319 -0.0602  1.0313  0.3903
  577MOL0     C76070  14.078   3.393   6.350 -0.4231  0.0597 -0.2106
  577MOL0     C76071  14.200   3.398   6.243  0.7882  0.1437 -0.6448
  577MOL0     C76072  14.323   3.474   6.297 -0.6958 -0.6640  0.7112
  577MOL0     C76073  14.429   3.463   6.193  0.4591 -0.0200 -0.3946
  577MOL0     C76074  14.559   3.532   6.246  0.5062  0.3493  0.6118
  577MOL0     C76075  14.634   3.451   6.354 -0.4218 -0.2310 -0.0646
  577MOL0    Cl76076  14.682   3.297   6.299  0.1345 -0.0733 -0.0612
  577MOL0     C76077  13.578   3.299   6.338 -0.1061 -0.0255  0.0941
  577MOL0     C76078  13.449   3.272   6.372 -0.4749  0.2455  0.6129
  577MOL0     O76079  13.187   3.466   6.342 -0.4593  0.1659  0.2635
  577MOL0     C76080  12.918   3.394   6.368 -0.6246 -0.1354  1.1361
  577MOL0     C76081  12.785   3.383   6.397  0.5082  0.6152 -0.8037
  577MOL0     N76082  12.213   3.561   6.305  0.6593  0.7347  0.0050
  577MOL0     N76083  12.179   3.665   6.246 -0.2526  0.8580 -0.5369
  577MOL0     C76084  11.024   4.272   6.318 -0.4368  0.4385  0.3250
  577MOL0     C76085  10.888   4.304   6.347  0.1166 -0.2120 -0.3606
  577MOL0     C76086  10.458   4.290   6.529  0.5755 -0.3143  0.0110
  577MOL0     C76087  10.405   4.339   6.404 -0.4688  0.5787  0.3982
  577MOL0     C76088  10.271   4.377   6.394  0.3571  0.7101 -0.4179
  577MOL0     C76089  10.188   4.380   6.508  0.7348  0.2817  0.8207
  577MOL0     O76090  10.055   4.410   6.511  0.4196 -0.1685  0.3191
  577MOL0     C76091   9.978   4.424   6.387  0.5291 -0.9264  0.1599
  577MOL0     C76092   9.950   4.293   6.331  0.6747  0.3529  0.4619
  577MOL0     C76093   9.908   4.300   6.185 -0.0439  0.7599 -0.0678
  577MOL0     C76094   9.775   4.371   6.164 -0.3319  0.8078 -1.0410
  577MOL0     C76095   9.738   4.365   6.024 -0.1640  1.0350 -0.1785
  577MOL0     C76096   9.724   4.373   5.908  1.0232 -0.1267  0.1482
  577MOL0     C76097  10.234   4.319   6.625  0.6703 -0.0085  0.3753
  577MOL0     C76098  10.368   4.278   6.643  0.7239  0.8074  0.2001
  577MOL0     H76099  10.803   4.039   6.529  0.8475  1.2897  0.6465
  577MOL0     H76100  11.055   4.005   6.518  1.1814  0.6196 -2.7532
  577MOL0     H76101  11.275   4.338   6.385 -3.1688 -0.9343 -0.1201
  577MOL0     H76102  11.315   4.267   6.236  0.9031 -1.0571 -0.3492
  577MOL0     H76103  11.458   4.242   6.504  0.2288 -1.3643  0.3502
  577MOL0     H76104  11.529   4.291   6.343 -1.1447  1.8838  1.0696
  577MOL0     H76105  11.530   4.078   6.259  1.7957 -0.6352 -0.5633
  577MOL0     H76106  11.440   4.006   6.383 -1.3346  1.0895  0.6379
  577MOL0     H76107  11.730   4.100   6.384 -2.3710 -0.8207 -4.0618
  577MOL0     H76108  11.656   4.062   6.544  2.1316  3.0382  0.6068
  577MOL0     H76109  11.655   3.844   6.350 -1.6305 -1.5836  2.2455
  577MOL0     H76110  11.648   3.844   6.520  2.8557 -3.2113  0.7647
  577MOL0     H76111  11.857   3.773   6.496  0.2900 -0.2524 -0.2776
  577MOL0     H76112  11.876   3.938   6.548  3.2100 -0.1958 -0.4808
  577MOL0     H76113  11.877   3.844   6.253  1.2036 -0.5979 -0.2884
  577MOL0     H76114  11.903   4.011   6.299 -1.8989 -0.3878  0.4169
  577MOL0     H76115  12.140   3.950   6.377 -0.3417 -0.3543  1.2123
  577MOL0     H76116  12.112   3.911   6.207 -0.3898  0.6956 -0.3043
  577MOL0     H76117  12.094   3.731   6.556 -1.9572  0.7355 -0.5031
  577MOL0     H76118  12.189   3.375   6.525 -0.5640  0.4610  0.6652
  577MOL0     H76119  12.170   3.508   6.643  1.0074  3.6131 -0.3564
  577MOL0     H76120  12.375   3.587   6.616 -1.4929 -0.3526  1.4297
  577MOL0     H76121  12.420   3.487   6.479 -0.2980  0.3556 -0.6568
  577MOL0     H76122  12.409   3.457   6.780  0.4055  1.0815 -0.2005
  577MOL0     H76123  12.406   3.304   6.682 -1.3801 -0.1842 -1.6535
  577MOL0     H76124  12.635   3.366   6.764 -2.6076 -1.2241  1.6057
  577MOL0     H76125  12.615   3.519   6.681 -1.1257 -0.6261  3.2737
  577MOL0     H76126  12.839   3.321   6.734 -0.7446  3.3406  0.1039
  577MOL0     H76127  13.063   3.354   6.677  1.1471 -2.8028 -1.3961
  577MOL0     H76128  13.409   3.510   6.616 -0.6095  0.3337 -1.1933
  577MOL0     H76129  13.663   3.548   6.552  1.7374  0.9832 -1.5502
  577MOL0     H76130  13.884   3.525   6.502 -0.9449  0.6206 -0.1203
  577MOL0     H76131  13.820   3.603   6.350 -0.4358 -0.3435  0.5178
  577MOL0     H76132  14.046   3.609   6.349  1.7477 -1.0122  4.1962
  577MOL0     H76133  13.973   3.507   6.212 -0.9749 -0.7738  0.7042
  577MOL0     H76134  14.018   3.303   6.338  0.5529 -0.8777  1.5711
  577MOL0     H76135  14.116   3.397   6.453 -0.0393 -2.7031 -0.1674
  577MOL0     H76136  14.233   3.296   6.221  1.5535  0.7473 -2.4886
  577MOL0     H76137  14.163   3.440   6.149  2.7286  1.2155 -0.9803
  577MOL0     H76138  14.370   3.437   6.389  1.6079 -1.8503 -0.8570
  577MOL0     H76139  14.300   3.579   6.315 -0.5507 -0.4803 -0.1360
  577MOL0     H76140  14.394   3.510   6.101 -0.9063 -2.8865 -1.4548
  577MOL0     H76141  14.433   3.355   6.174 -2.8520 -0.0173 -1.8126
  577MOL0     H76142  14.633   3.542   6.166  1.4287 -1.2479  1.2211
  577MOL0     H76143  14.529   3.626   6.293 -0.8447  1.1193 -1.6379
  577MOL0     H76144  14.568   3.450   6.441 -0.1162  2.6264  0.2958
  577MOL0     H76145  14.723   3.507   6.383 -1.2986  1.5505 -0.6477
  577MOL0     H76146  13.624   3.224   6.275  2.7352  0.9979  0.7886
  577MOL0     H76147  13.395   3.189   6.328  1.7312 -0.6018 -0.6651
  577MOL0     H76148  12.945   3.438   6.273 -2.7912  0.2400  0.6598
  577MOL0     H76149  12.704   3.394   6.325 -1.3823 -1.6323  0.8486
  577MOL0     H76150  11.082   4.342   6.259 -1.9493  1.8713  0.4709
  577MOL0     H76151  10.839   4.389   6.299  0.0595 -0.4047 -0.6406
  577MOL0     H76152  10.474   4.341   6.320 -2.0795 -4.1847 -1.3850
  577MOL0     H76153  10.239   4.421   6.300 -5.5817 -2.3348 -0.2796
  577MOL0     H76154  10.043   4.477   6.316  1.8572 -1.4557  0.9362
  577MOL0     H76155   9.888   4.484   6.402  1.5939  0.4407  1.3730
  577MOL0     H76156  10.039   4.232   6.345  1.6191  2.1909  3.5588
  577MOL0     H76157   9.880   4.235   6.391  0.0963 -0.4230 -0.9056
  577MOL0     H76158   9.901   4.196   6.150 -1.3746  0.7145  0.2951
  577MOL0     H76159   9.980   4.354   6.123  0.7029  1.1469  1.0968
  577MOL0     H76160   9.699   4.322   6.225  0.4854  0.8732  0.0586
  577MOL0     H76161   9.791   4.474   6.196  2.6645  0.4330 -1.0260
  577MOL0     H76162   9.714   4.348   5.805 -0.5654  0.5050  0.1178
  577MOL0     H76163  10.172   4.306   6.713 -0.3891  0.1840 -0.3176
  577MOL0     H76164  10.399   4.233   6.736 -0.1070 -0.6780 -0.2141
  578MOL0     O76165   3.502   9.238   3.262  0.1044  0.1198  0.1802
  578MOL0     C76166   3.598   9.310   3.283  1.0966 -0.2540  0.2964
  578MOL0     O76167   3.588   9.451   3.305 -0.4508 -0.0005  0.1837
  578MOL0     C76168   3.466   9.497   3.323  0.6758 -0.2026 -0.7037
  578MOL0     C76169   3.397   9.582   3.249 -0.3544 -1.5392  0.6956
  578MOL0     C76170   3.273   9.637   3.284  0.1547 -0.0483  0.5875
  578MOL0     C76171   3.211   9.600   3.404 -0.1691  0.0626  0.0797
  578MOL0     O76172   3.099   9.671   3.449  0.4577  0.4995  0.1459
  578MOL0     C76173   2.991   9.587   3.468  0.1018 -1.0920 -0.2344
  578MOL0     C76174   2.912   9.562   3.341  0.1667 -0.4362 -0.0830
  578MOL0     C76175   2.843   9.684   3.281  0.0012  1.3499 -0.2412
  578MOL0     C76176   2.792   9.670   3.126  0.7334  0.2887  0.0034
  578MOL0     C76177   2.700   9.545   3.093  0.1551  0.2197  0.3761
  578MOL0     C76178   2.570   9.579   3.165  1.5677 -0.2764 -0.5731
  578MOL0     C76179   2.460   9.467   3.160 -0.1265  0.1175  0.2894
  578MOL0     C76180   2.322   9.510   3.215  0.3806  0.0089  0.3169
  578MOL0     N76181   2.231   9.399   3.230  0.7541  0.6165 -0.3052
  578MOL0     C76182   2.172   9.368   3.349  0.4991 -0.3329 -0.5712
  578MOL0     C76183   2.067   9.304   3.309 -0.1013 -0.8353  0.1388
  578MOL0     C76184   1.994   9.232   3.421  0.3316  0.5756 -0.0458
  578MOL0     C76185   1.897   9.327   3.492  0.5185 -0.0878 -0.6304
  578MOL0     C76186   1.781   9.361   3.398  0.5455 -0.7588 -0.2878
  578MOL0     C76187   1.705   9.482   3.449  0.3808  0.3346  0.4042
  578MOL0     O76188   1.653   9.449   3.575 -1.3211 -0.3246  0.0908
  578MOL0     C76189   1.528   9.389   3.555  0.6361 -0.2967  0.3929
  578MOL0     C76190   1.418   9.466   3.508  0.5163 -0.0036  0.1751
  578MOL0     C76191   1.287   9.404   3.508  0.2584  0.2049 -0.7383
  578MOL0     C76192   1.262   9.275   3.562  0.0871 -0.3861 -0.7498
  578MOL0     C76193   1.128   9.218   3.573  0.2333 -1.2923 -0.2216
  578MOL0     O76194   1.112   9.107   3.656  0.6175 -0.7207 -0.2499
  578MOL0     C76195   0.990   9.037   3.644 -0.0982 -0.0409  0.4092
  578MOL0     C76196   0.975   8.918   3.567 -0.0450 -0.0503 -1.5310
  578MOL0     C76197   0.854   8.845   3.572  0.9364  0.2677  0.5812
  578MOL0     C76198   0.742   8.908   3.616 -0.0445  0.0756  0.1405
  578MOL0     O76199   0.619   8.851   3.594 -0.3795  0.4793 -0.3873
  578MOL0     C76200   0.584   8.851   3.459 -0.8521  0.6458 -0.3379
  578MOL0     C76201   0.489   8.962   3.441  0.5713  0.1007  0.1681
  578MOL0     C76202   0.364   8.951   3.525 -0.2230  0.7242  0.5334
  578MOL0     C76203   0.258   9.042   3.470 -0.0023  0.1487 -0.3676
  578MOL0     C76204   0.115   9.005   3.515 -0.6040  0.1688 -0.1736
  578MOL0     C76205   0.014   9.109   3.472  0.1435  0.0502  0.2021
  578MOL0     C76206  -0.126   9.051   3.473  0.6171  0.1916  0.5353
  578MOL0     C76207  -0.229   9.136   3.412 -0.6286 -0.1544 -0.1441
  578MOL0    Cl76208  -0.347   9.038   3.335 -0.4903 -0.4440  0.1548
  578MOL0     C76209   0.749   9.032   3.684 -0.0539  0.5976  0.7304
  578MOL0     C76210   0.877   9.093   3.693  0.3601 -0.2907  0.5868
  578MOL0     O76211   1.042   9.272   3.500 -0.3868 -0.3447 -0.0475
  578MOL0     C76212   1.373   9.206   3.619 -0.6194  0.4723  0.4605
  578MOL0     C76213   1.501   9.263   3.611 -0.1910 -0.0768  0.9527
  578MOL0     N76214   2.056   9.297   3.170 -1.0180 -0.0733 -0.0911
  578MOL0     N76215   2.161   9.347   3.124 -0.0495  0.4121  0.6935
  578MOL0     C76216   3.274   9.509   3.482  0.6268  0.8822 -0.1483
  578MOL0     C76217   3.402   9.460   3.440  0.2467 -0.1651 -0.5075
  578MOL0     C76218   3.724   9.244   3.299 -0.8575  0.1260 -0.1901
  578MOL0     C76219   3.834   9.314   3.342 -0.6455 -0.4459 -0.0461
  578MOL0     C76220   3.949   9.251   3.384  0.5571  0.3146 -0.1640
  578MOL0     C76221   3.973   9.111   3.377  0.2755 -0.5976 -0.4875
  578MOL0     O76222   4.072   9.033   3.430  0.1671  0.2633 -0.8116
  578MOL0     C76223   4.161   9.092   3.523 -1.2266  0.3705 -0.4922
  578MOL0     C76224   4.268   8.994   3.576  0.4055  0.7111  0.2377
  578MOL0     C76225   4.376   8.944   3.479 -0.2404 -0.1219  0.3105
  578MOL0     C76226   4.464   9.061   3.432  0.2690  0.1246 -0.0696
  578MOL0     C76227   4.597   9.024   3.416 -0.4416  0.4320  0.3909
  578MOL0     C76228   4.713   8.989   3.396 -0.8865  0.8479  0.2206
  578MOL0     C76229   3.866   9.039   3.320  0.7858 -0.1785 -0.6132
  578MOL0     C76230   3.732   9.098   3.289 -0.7127  0.2878 -0.7596
  578MOL0     H76231   3.433   9.614   3.152  1.0285 -0.2674  1.5850
  578MOL0     H76232   3.225   9.713   3.224  1.5141  0.1145 -0.3395
  578MOL0     H76233   2.929   9.647   3.536  1.1608 -0.6086  0.3268
  578MOL0     H76234   3.017   9.502   3.531 -0.1808  0.8585  2.7309
  578MOL0     H76235   2.831   9.492   3.363  0.9769 -2.0423 -1.8671
  578MOL0     H76236   2.985   9.529   3.266 -0.0211 -1.9165  0.3554
  578MOL0     H76237   2.914   9.767   3.292 -1.3400  2.3819  1.1233
  578MOL0     H76238   2.758   9.708   3.345 -2.1000 -0.9292 -2.0015
  578MOL0     H76239   2.735   9.760   3.102 -1.2563 -1.0860 -0.6908
  578MOL0     H76240   2.881   9.647   3.069  1.5306 -0.4092  1.4721
  578MOL0     H76241   2.746   9.453   3.130  2.6793  1.2493 -0.0242
  578MOL0     H76242   2.686   9.529   2.985 -3.0556  0.6937  0.6159
  578MOL0     H76243   2.526   9.672   3.130  1.8142  0.3026  0.5981
  578MOL0     H76244   2.571   9.594   3.274 -2.2927  1.3452 -0.6048
  578MOL0     H76245   2.455   9.445   3.053 -0.9715 -1.4122  0.6170
  578MOL0     H76246   2.495   9.376   3.211  1.8744  0.7680  0.1738
  578MOL0     H76247   2.273   9.588   3.155 -0.7930 -1.6991 -1.0623
  578MOL0     H76248   2.330   9.555   3.314 -0.3630  0.0010  0.3919
  578MOL0     H76249   2.205   9.403   3.446 -1.1696  1.1238 -0.4862
  578MOL0     H76250   2.066   9.196   3.495 -3.7803 -5.1005  1.9596
  578MOL0     H76251   1.945   9.144   3.378  2.9058 -1.4854  0.9456
  578MOL0     H76252   1.963   9.409   3.521  0.1867  0.3347 -1.0424
  578MOL0     H76253   1.853   9.286   3.583 -0.3550 -2.7257 -2.1176
  578MOL0     H76254   1.815   9.384   3.296  2.4595  1.2555  0.7122
  578MOL0     H76255   1.716   9.273   3.395  1.4910 -1.5406  1.3012
  578MOL0     H76256   1.630   9.508   3.373 -0.8900  1.1223  1.8703
  578MOL0     H76257   1.769   9.570   3.447  1.5084 -0.4174 -2.7743
  578MOL0     H76258   1.439   9.567   3.476 -0.3210  0.3683  0.7870
  578MOL0     H76259   1.204   9.463   3.471 -0.5786  1.1960  2.3560
  578MOL0     H76260   1.065   8.871   3.526 -0.4851 -1.1414 -1.2912
  578MOL0     H76261   0.847   8.748   3.523  0.6326 -1.5469  3.8821
  578MOL0     H76262   0.536   8.755   3.438  1.8186 -1.3297  1.8571
  578MOL0     H76263   0.670   8.861   3.392 -0.6833  1.3760 -0.0149
  578MOL0     H76264   0.460   8.964   3.336 -1.4536 -1.8739  0.5926
  578MOL0     H76265   0.544   9.051   3.472  0.8823  0.3687 -1.0958
  578MOL0     H76266   0.380   8.969   3.632  1.1651  1.1455  0.2710
  578MOL0     H76267   0.326   8.849   3.515  2.5872 -0.5643  2.0014
  578MOL0     H76268   0.277   9.143   3.507 -0.2985  0.5184 -1.1963
  578MOL0     H76269   0.260   9.044   3.361 -2.0933 -2.1388 -0.5400
  578MOL0     H76270   0.113   8.984   3.622 -0.4658 -3.9631 -0.8205
  578MOL0     H76271   0.096   8.911   3.462 -0.3769  0.5100 -0.8771
  578MOL0     H76272   0.034   9.148   3.372 -0.2071 -0.6796 -0.1666
  578MOL0     H76273   0.024   9.194   3.540 -0.6938  0.6516 -0.4127
  578MOL0     H76274  -0.115   8.956   3.420  0.9038 -0.9058  2.4655
  578MOL0     H76275  -0.156   9.041   3.577  2.1117 -2.6778  0.7865
  578MOL0     H76276  -0.172   9.200   3.344  1.8436 -0.1719  1.7878
  578MOL0     H76277  -0.278   9.207   3.480  1.9024  1.5461  0.0496
  578MOL0     H76278   0.653   9.067   3.721 -1.7459 -0.5076 -2.2764
  578MOL0     H76279   0.879   9.196   3.725  1.9741 -0.3184  0.6643
  578MOL0     H76280   1.364   9.110   3.668 -0.3219  0.5993  0.7662
  578MOL0     H76281   1.594   9.222   3.649  0.4377  0.3732 -0.0867
  578MOL0     H76282   3.239   9.478   3.580 -1.3472  1.0979 -0.7434
  578MOL0     H76283   3.459   9.407   3.515  0.6471 -1.3234 -1.5967
  578MOL0     H76284   3.843   9.422   3.342 -2.5797 -0.2087 -1.9018
  578MOL0     H76285   4.018   9.325   3.425  0.6414 -0.1405  0.5310
  578MOL0     H76286   4.099   9.124   3.607  2.2826 -0.7409  2.8042
  578MOL0     H76287   4.198   9.184   3.478 -2.7663  0.6254 -1.3273
  578MOL0     H76288   4.317   9.050   3.656  0.4861 -1.9634  2.1695
  578MOL0     H76289   4.214   8.914   3.627  2.7117 -0.1269  1.4689
  578MOL0     H76290   4.323   8.907   3.391 -1.1049 -1.2084  1.2721
  578MOL0     H76291   4.435   8.862   3.521 -0.3497  0.1806  1.0554
  578MOL0     H76292   4.413   9.091   3.340 -0.8812 -0.3958  0.3806
  578MOL0     H76293   4.445   9.142   3.503 -0.0401  2.2498 -2.4095
  578MOL0     H76294   4.808   8.948   3.370 -1.7379  0.2954 -2.3099
  578MOL0     H76295   3.874   8.931   3.327 -0.0590 -0.2832 -1.1248
  578MOL0     H76296   3.644   9.034   3.282 -0.6440  0.2284 -1.0972
  579MOL0     O76297   5.570   8.841   4.395 -0.2488  0.0356 -0.0587
  579MOL0     C76298   5.691   8.814   4.417 -0.5481  0.6942  0.5794
  579MOL0     O76299   5.753   8.691   4.393 -0.3925 -0.2633  0.3381
  579MOL0     C76300   5.677   8.579   4.355  0.8435  0.0820  0.2327
  579MOL0     C76301   5.712   8.454   4.404 -0.0855  0.1702 -0.5096
  579MOL0     C76302   5.625   8.346   4.381  0.4646  0.2771 -0.6986
  579MOL0     C76303   5.515   8.356   4.293  0.2830 -0.2251 -0.2637
  579MOL0     O76304   5.445   8.238   4.262 -0.0015 -0.1685  0.7801
  579MOL0     C76305   5.422   8.213   4.125 -1.4343  0.5941 -0.1518
  579MOL0     C76306   5.276   8.166   4.096 -0.0520  0.8443 -0.0742
  579MOL0     C76307   5.244   8.170   3.946 -0.1018 -0.7705  0.3771
  579MOL0     C76308   5.300   8.061   3.859 -0.0322  0.3884 -0.2323
  579MOL0     C76309   5.217   7.933   3.864 -0.0962  0.2013 -0.1618
  579MOL0     C76310   5.265   7.832   3.760 -0.0734 -0.4235  0.0186
  579MOL0     C76311   5.170   7.703   3.767 -0.7369 -0.5397  0.1719
  579MOL0     C76312   5.236   7.571   3.719 -0.1396 -0.5099  0.0626
  579MOL0     N76313   5.155   7.462   3.761  0.2589 -0.0552 -0.2522
  579MOL0     C76314   5.149   7.423   3.892  0.3671 -0.8851 -0.2005
  579MOL0     C76315   5.078   7.307   3.889 -0.6461 -0.0644 -0.0683
  579MOL0     C76316   5.037   7.216   4.006  0.3944  0.6438 -0.2392
  579MOL0     C76317   4.971   7.077   3.976 -0.5576  0.2293  0.8348
  579MOL0     C76318   4.895   7.033   4.102 -0.1012  0.0369  1.2286
  579MOL0     C76319   4.848   6.886   4.098  0.2981  0.2381 -0.1380
  579MOL0     O76320   4.733   6.893   4.014  0.0326 -0.3275 -0.3666
  579MOL0     C76321   4.615   6.845   4.073  0.2513  0.2111  0.7947
  579MOL0     C76322   4.501   6.863   3.996 -0.1512  0.6524  0.2739
  579MOL0     C76323   4.374   6.834   4.039 -0.9399  0.7527  0.6907
  579MOL0     C76324   4.355   6.769   4.167 -1.5497 -0.3167 -0.2325
  579MOL0     C76325   4.219   6.749   4.221 -0.3440  0.6505  0.1589
  579MOL0     O76326   4.111   6.788   4.151 -0.0280  0.2546  0.3847
  579MOL0     C76327   3.987   6.753   4.192  0.0592  0.0174 -0.2863
  579MOL0     C76328   3.910   6.697   4.096  0.7494 -1.2488  0.5942
  579MOL0     C76329   3.775   6.667   4.129 -0.6354 -0.1235  0.5707
  579MOL0     C76330   3.732   6.676   4.258 -0.7025  0.6088  0.2524
  579MOL0     O76331   3.604   6.634   4.306 -0.0123 -0.5514 -0.0815
  579MOL0     C76332   3.510   6.592   4.213 -0.6934  0.2594  0.5036
  579MOL0     C76333   3.390   6.560   4.293  0.1078  0.4565 -0.8036
  579MOL0     C76334   3.262   6.534   4.203 -1.0908 -0.9908  0.5353
  579MOL0     C76335   3.137   6.549   4.285  1.1499 -0.6378 -0.3533
  579MOL0     C76336   3.012   6.552   4.193 -0.5959  0.2937  0.8543
  579MOL0     C76337   2.893   6.483   4.260 -0.0044 -0.0922 -0.3502
  579MOL0     C76338   2.837   6.556   4.387  0.8362  0.4026 -0.1210
  579MOL0     C76339   2.719   6.481   4.446 -0.6993 -0.2211 -0.3444
  579MOL0    Cl76340   2.566   6.508   4.354 -0.3466  0.0134 -0.1625
  579MOL0     C76341   3.813   6.736   4.359  0.0053  0.2795 -0.1714
  579MOL0     C76342   3.944   6.777   4.325  0.4209  0.1939 -0.1739
  579MOL0     O76343   4.216   6.710   4.337  0.3569 -0.5601 -0.5065
  579MOL0     C76344   4.468   6.744   4.244 -0.5290 -0.1468 -0.2911
  579MOL0     C76345   4.594   6.779   4.193 -0.8590  0.2556  0.0624
  579MOL0     N76346   5.039   7.280   3.757 -0.1910  0.7497 -0.4712
  579MOL0     N76347   5.069   7.388   3.685 -0.1324  0.6684 -1.0641
  579MOL0     C76348   5.490   8.483   4.234 -0.2426  0.2083 -0.4046
  579MOL0     C76349   5.563   8.589   4.267 -0.3749 -0.1857 -0.6869
  579MOL0     C76350   5.767   8.909   4.494  0.7090 -0.0174  0.3531
  579MOL0     C76351   5.723   9.030   4.534  0.6492 -0.6571 -0.4400
  579MOL0     C76352   5.798   9.125   4.605  0.1094 -0.3178  0.2492
  579MOL0     C76353   5.933   9.105   4.623  0.1395  0.6847  0.1343
  579MOL0     O76354   6.006   9.198   4.705  0.4720 -0.3849  0.9505
  579MOL0     C76355   6.125   9.161   4.761  0.7020 -0.3980 -0.8086
  579MOL0     C76356   6.191   9.274   4.836  0.0010 -0.5361  0.1219
  579MOL0     C76357   6.229   9.395   4.742  0.5775 -1.3466  0.6812
  579MOL0     C76358   6.349   9.380   4.646 -0.6574 -0.9184  0.5913
  579MOL0     C76359   6.479   9.377   4.713  0.2078  0.5764 -0.2935
  579MOL0     C76360   6.584   9.352   4.763  0.2572 -0.0647  0.3376
  579MOL0     C76361   5.985   8.980   4.581  0.3926  0.3858 -0.0648
  579MOL0     C76362   5.903   8.880   4.525 -0.1625  0.0216  0.2274
  579MOL0     H76363   5.796   8.457   4.472  1.1556  1.7663 -1.9922
  579MOL0     H76364   5.657   8.249   4.417  1.4443  0.2095 -1.6687
  579MOL0     H76365   5.494   8.146   4.079 -1.7652  1.8538 -2.6690
  579MOL0     H76366   5.433   8.301   4.061  0.9855 -0.6029 -1.4886
  579MOL0     H76367   5.205   8.227   4.153 -1.2631 -0.8816  0.3502
  579MOL0     H76368   5.252   8.070   4.144 -2.2744  1.0074 -0.7660
  579MOL0     H76369   5.284   8.265   3.909 -1.9493  0.8888  2.3877
  579MOL0     H76370   5.136   8.174   3.932 -0.3647 -1.2173  2.0799
  579MOL0     H76371   5.308   8.091   3.754  2.8674  0.9601  0.0624
  579MOL0     H76372   5.406   8.049   3.884  0.1729  1.9293 -0.2392
  579MOL0     H76373   5.117   7.965   3.835 -0.1908  2.0640  1.9518
  579MOL0     H76374   5.214   7.893   3.966 -1.3933 -1.8166 -0.9313
  579MOL0     H76375   5.365   7.797   3.790  1.0461  0.4837 -2.4049
  579MOL0     H76376   5.290   7.872   3.662  1.2812 -1.3810 -0.0649
  579MOL0     H76377   5.160   7.693   3.876  2.2554 -0.1235  0.5775
  579MOL0     H76378   5.071   7.724   3.726 -2.3985 -3.2642  2.4588
  579MOL0     H76379   5.331   7.559   3.772  1.4683 -2.4594 -2.9872
  579MOL0     H76380   5.257   7.565   3.612 -0.3307 -0.6820  0.0338
  579MOL0     H76381   5.202   7.475   3.971  1.4284  0.3230 -1.6472
  579MOL0     H76382   4.967   7.275   4.066 -0.6904 -0.0062 -0.8335
  579MOL0     H76383   5.121   7.203   4.075  1.0491  2.1706 -0.7229
  579MOL0     H76384   5.039   7.001   3.937 -1.0658  0.1457  0.0892
  579MOL0     H76385   4.910   7.103   3.889  1.4193 -0.5062 -0.8718
  579MOL0     H76386   4.957   7.053   4.190  1.9206  1.9996 -0.5218
  579MOL0     H76387   4.811   7.101   4.109  0.5740  0.9897  0.3347
  579MOL0     H76388   4.827   6.860   4.202  0.9936 -4.2543 -0.9046
  579MOL0     H76389   4.912   6.803   4.063  1.3318 -0.1733  2.5057
  579MOL0     H76390   4.507   6.919   3.904 -1.2235  0.5596  0.1389
  579MOL0     H76391   4.291   6.867   3.977 -0.6808  0.1812  0.0224
  579MOL0     H76392   3.942   6.677   3.994 -0.1745  1.2158 -0.2674
  579MOL0     H76393   3.711   6.622   4.054  0.6885 -2.2625  0.6167
  579MOL0     H76394   3.533   6.502   4.155 -1.7681  0.8954 -0.9652
  579MOL0     H76395   3.486   6.674   4.145  0.3091 -0.2230 -0.4640
  579MOL0     H76396   3.371   6.644   4.360  0.7445 -0.3272  0.3820
  579MOL0     H76397   3.400   6.481   4.368  0.3626  3.2253  2.3348
  579MOL0     H76398   3.267   6.434   4.158 -1.9295 -0.0242 -1.8896
  579MOL0     H76399   3.266   6.590   4.109 -0.2407 -4.2611 -1.5245
  579MOL0     H76400   3.115   6.469   4.356 -0.1205 -0.3135 -0.3569
  579MOL0     H76401   3.128   6.644   4.339 -3.3342 -0.9162 -0.2146
  579MOL0     H76402   3.032   6.479   4.114  0.9072  0.5929  0.9276
  579MOL0     H76403   2.979   6.651   4.159  0.2111  0.8180  1.5456
  579MOL0     H76404   2.933   6.387   4.294 -1.3993 -0.1232  1.3369
  579MOL0     H76405   2.807   6.477   4.193 -3.2544  0.1725  3.4247
  579MOL0     H76406   2.913   6.576   4.463 -1.1157  1.3092  1.7092
  579MOL0     H76407   2.791   6.650   4.355  0.4058 -0.0514 -0.8642
  579MOL0     H76408   2.702   6.523   4.546  0.9834 -1.9904  0.7618
  579MOL0     H76409   2.734   6.373   4.451  2.2411  0.1569  1.6073
  579MOL0     H76410   3.767   6.769   4.452 -1.5949  0.3725 -0.9621
  579MOL0     H76411   3.992   6.841   4.398 -2.0955 -1.4567  3.1725
  579MOL0     H76412   4.473   6.705   4.345  0.1590  2.8221  0.9482
  579MOL0     H76413   4.686   6.747   4.241  0.2404 -1.6780 -3.0234
  579MOL0     H76414   5.412   8.491   4.159  1.9759  2.6043 -2.6577
  579MOL0     H76415   5.542   8.686   4.223 -0.0765 -0.7075 -1.9994
  579MOL0     H76416   5.625   9.069   4.507  2.3372  4.3577 -0.2101
  579MOL0     H76417   5.749   9.216   4.636 -1.7147  0.0390 -3.2257
  579MOL0     H76418   6.201   9.129   4.689 -1.1416 -2.7582 -1.8450
  579MOL0     H76419   6.103   9.082   4.834  1.6619  1.6202  1.8565
  579MOL0     H76420   6.127   9.309   4.917  1.5762  1.7910  0.4777
  579MOL0     H76421   6.279   9.238   4.890 -1.1824 -2.2265  1.0006
  579MOL0     H76422   6.254   9.484   4.802  0.1529 -0.1946 -0.7761
  579MOL0     H76423   6.142   9.431   4.686  1.1562 -1.9348 -0.6163
  579MOL0     H76424   6.329   9.292   4.585  1.8286 -0.9570 -0.2957
  579MOL0     H76425   6.352   9.462   4.573 -1.3355 -2.0498 -0.7537
  579MOL0     H76426   6.676   9.324   4.810  0.2555  0.2805  0.5495
  579MOL0     H76427   6.091   8.961   4.580  0.2597 -0.6093 -2.6356
  579MOL0     H76428   5.965   8.798   4.491  1.3205  0.1783  2.3337
  580MOL0     O76429   0.241   4.230  10.864  0.2851 -0.2709 -0.3247
  580MOL0     C76430   0.195   4.136  10.804 -0.5341  0.5573 -0.2674
  580MOL0     O76431   0.080   4.076  10.833 -0.0014  0.0811  0.3360
  580MOL0     C76432  -0.003   4.122  10.937 -0.1812 -0.3669  0.4008
  580MOL0     C76433   0.042   4.144  11.068  0.2101 -0.0770  0.7800
  580MOL0     C76434  -0.045   4.184  11.165  0.3200 -0.1886 -0.1447
  580MOL0     C76435  -0.185   4.184  11.143  0.5429 -0.6702  0.2926
  580MOL0     O76436  -0.281   4.212  11.238  0.0496 -0.0840  0.4219
  580MOL0     C76437  -0.254   4.217  11.382  0.2754 -0.2684 -0.0912
  580MOL0     C76438  -0.247   4.365  11.421 -0.8000  0.2492  0.6081
  580MOL0     C76439  -0.379   4.419  11.455  1.2780  0.1814 -0.2659
  580MOL0     C76440  -0.487   4.442  11.345 -0.4245 -0.1146  0.2225
  580MOL0     C76441  -0.622   4.514  11.394 -0.0284 -0.4810 -0.6533
  580MOL0     C76442  -0.688   4.434  11.510  0.5294 -0.6536 -0.6649
  580MOL0     C76443  -0.813   4.514  11.552  0.8050 -0.5300  0.2742
  580MOL0     C76444  -0.881   4.476  11.682  0.6362  0.5554 -0.6156
  580MOL0     N76445  -0.916   4.334  11.690  0.2085  0.1424  0.2420
  580MOL0     C76446  -0.835   4.230  11.739  0.0535  0.2898 -0.0779
  580MOL0     C76447  -0.911   4.116  11.726 -0.3434  0.6059 -0.1816
  580MOL0     C76448  -0.872   3.977  11.754 -0.5403 -0.2818 -0.9401
  580MOL0     C76449  -0.911   3.959  11.905 -0.3790  0.3282 -0.5167
  580MOL0     C76450  -0.870   3.825  11.958  0.4224  0.7674 -0.1624
  580MOL0     C76451  -0.943   3.798  12.093  0.7371  0.3315  0.6321
  580MOL0     O76452  -0.952   3.658  12.107 -0.6768 -0.7589 -0.0634
  580MOL0     C76453  -0.998   3.593  12.218  0.1488  0.6160  1.0591
  580MOL0     C76454  -1.004   3.454  12.203  0.1168  0.3207 -1.3446
  580MOL0     C76455  -1.041   3.373  12.313 -0.0015  0.9010  0.1928
  580MOL0     C76456  -1.102   3.428  12.428  0.0877  0.2235  0.5323
  580MOL0     C76457  -1.157   3.346  12.532 -0.0267 -0.7481  0.2939
  580MOL0     O76458  -1.243   3.414  12.609 -0.3461 -0.2595 -0.1827
  580MOL0     C76459  -1.313   3.338  12.693 -0.2409 -0.2547 -0.8667
  580MOL0     C76460  -1.323   3.389  12.823  0.5369 -0.0651 -0.3239
  580MOL0     C76461  -1.388   3.318  12.917 -0.2327 -0.1463 -0.4961
  580MOL0     C76462  -1.469   3.207  12.898 -0.4637 -0.1759 -0.0559
  580MOL0     O76463  -1.538   3.159  13.009  0.4121  0.6088 -0.1434
  580MOL0     C76464  -1.664   3.082  12.988  0.0991  0.0115 -0.3583
  580MOL0     C76465  -1.767   3.165  12.910  0.5256  0.8997 -0.3325
  580MOL0     C76466  -1.882   3.066  12.867  0.6629  0.4029  0.4314
  580MOL0     C76467  -1.987   3.148  12.784  0.4544  0.6955  0.2891
  580MOL0     C76468  -2.130   3.073  12.782 -0.5720 -0.0649  0.4838
  580MOL0     C76469  -2.214   3.090  12.900 -1.4605 -0.7853  0.7260
  580MOL0     C76470  -2.348   3.028  12.864 -0.1089 -0.3997 -0.7954
  580MOL0     C76471  -2.452   3.057  12.969  1.0236 -0.2175 -0.1498
  580MOL0    Cl76472  -2.562   3.184  12.942  0.2044 -0.0993  0.0694
  580MOL0     C76473  -1.450   3.156  12.770 -0.5654 -0.1333 -1.1153
  580MOL0     C76474  -1.374   3.217  12.669 -0.1797 -0.0299  0.0178
  580MOL0     O76475  -1.110   3.234  12.548  0.8385  0.0446 -0.1830
  580MOL0     C76476  -1.109   3.571  12.434  0.1404 -0.5159  0.6997
  580MOL0     C76477  -1.045   3.651  12.337 -1.2193 -0.4326  0.6398
  580MOL0     N76478  -1.024   4.149  11.657  0.5084 -0.4628  0.3006
  580MOL0     N76479  -1.023   4.275  11.636  0.1156 -0.1294 -0.3465
  580MOL0     C76480  -0.227   4.147  11.017  0.6292  0.5450 -0.7928
  580MOL0     C76481  -0.136   4.106  10.919  0.9841  0.2155 -0.3129
  580MOL0     C76482   0.273   4.098  10.675  0.1242  0.0631 -0.1173
  580MOL0     C76483   0.207   4.010  10.588 -0.0228 -0.1277 -0.7113
  580MOL0     C76484   0.276   3.955  10.481 -0.2160 -0.3393  0.5918
  580MOL0     C76485   0.415   3.991  10.457  0.2883 -0.1448  0.1009
  580MOL0     O76486   0.489   3.945  10.349 -0.2780 -0.9001 -0.3231
  580MOL0     C76487   0.437   3.852  10.254 -1.0266 -0.4587  0.0425
  580MOL0     C76488   0.555   3.764  10.210 -0.1955  0.0509 -0.9723
  580MOL0     C76489   0.511   3.679  10.088 -0.0099  0.4374  0.4003
  580MOL0     C76490   0.566   3.537  10.085 -0.1123 -0.3499  0.0238
  580MOL0     C76491   0.717   3.530  10.075  0.3311 -0.7605 -0.1798
  580MOL0     C76492   0.844   3.510  10.066  0.2013  0.1089  0.5259
  580MOL0     C76493   0.468   4.089  10.538  0.3088 -0.3914 -0.4172
  580MOL0     C76494   0.404   4.137  10.655 -0.6770  0.6820 -0.0819
  580MOL0     H76495   0.148   4.136  11.090  0.5919  0.5100 -0.7716
  580MOL0     H76496  -0.003   4.212  11.261 -0.6860 -0.3797  0.3609
  580MOL0     H76497  -0.174   4.147  11.408  0.3123 -0.5180 -0.8464
  580MOL0     H76498  -0.338   4.170  11.433 -0.0625  1.5815  1.1682
  580MOL0     H76499  -0.209   4.426  11.339 -1.5300 -2.0702 -1.5698
  580MOL0     H76500  -0.198   4.366  11.519 -4.2857  1.7705  2.5420
  580MOL0     H76501  -0.353   4.520  11.490 -2.0560  0.7791  0.9376
  580MOL0     H76502  -0.423   4.366  11.540  4.9218 -0.4656  1.3944
  580MOL0     H76503  -0.442   4.505  11.268 -0.1550 -1.5449 -0.8405
  580MOL0     H76504  -0.511   4.350  11.289 -1.2437 -0.5718  1.2808
  580MOL0     H76505  -0.692   4.530  11.311 -1.5611 -0.0625  0.6707
  580MOL0     H76506  -0.586   4.610  11.432 -1.3446 -1.0053  2.1176
  580MOL0     H76507  -0.627   4.427  11.600  1.5642  0.2208 -1.2728
  580MOL0     H76508  -0.723   4.335  11.478  0.7587 -1.1330  0.5340
  580MOL0     H76509  -0.794   4.621  11.547 -3.2558  0.2841 -3.0920
  580MOL0     H76510  -0.892   4.498  11.479  0.0081  3.4719  0.0680
  580MOL0     H76511  -0.973   4.529  11.709  0.6152 -0.0761  0.6166
  580MOL0     H76512  -0.807   4.496  11.760  1.9706  1.6160 -2.0944
  580MOL0     H76513  -0.730   4.233  11.768 -0.8801 -0.6179  3.9083
  580MOL0     H76514  -0.765   3.959  11.742  0.2900  3.9359 -1.6176
  580MOL0     H76515  -0.928   3.907  11.691  0.5631  0.2719 -2.6137
  580MOL0     H76516  -1.017   3.969  11.930  0.0852 -0.1345  1.8872
  580MOL0     H76517  -0.862   4.040  11.961  3.2006 -1.4384 -0.7777
  580MOL0     H76518  -0.890   3.748  11.882  2.7304  3.6936 -4.1690
  580MOL0     H76519  -0.764   3.828  11.985  0.2309 -4.4093  2.4350
  580MOL0     H76520  -1.047   3.830  12.090  0.8138  0.5665  0.3790
  580MOL0     H76521  -0.901   3.855  12.177 -1.8637  0.2124  2.1143
  580MOL0     H76522  -0.976   3.408  12.109  0.3648  0.1133 -1.1737
  580MOL0     H76523  -1.033   3.265  12.305  0.0040  0.8238  1.0781
  580MOL0     H76524  -1.271   3.481  12.848  0.7058 -0.3485  0.3891
  580MOL0     H76525  -1.389   3.345  13.022 -0.8836 -1.1735 -0.2243
  580MOL0     H76526  -1.707   3.057  13.085 -0.2051 -4.6352 -1.4554
  580MOL0     H76527  -1.633   2.988  12.940  0.5481  0.7862 -1.6639
  580MOL0     H76528  -1.726   3.228  12.831  1.3246 -1.5365 -1.9518
  580MOL0     H76529  -1.816   3.237  12.976 -1.9387 -0.4352 -0.5897
  580MOL0     H76530  -1.935   3.018  12.949  0.0859  1.4296  0.6756
  580MOL0     H76531  -1.847   2.983  12.805 -3.6235 -0.9184 -0.5149
  580MOL0     H76532  -2.001   3.245  12.833 -0.3501  0.8336 -0.1950
  580MOL0     H76533  -1.953   3.160  12.681 -0.9856 -1.2365 -0.4886
  580MOL0     H76534  -2.119   2.965  12.764  3.2294  0.5421 -2.1525
  580MOL0     H76535  -2.189   3.115  12.700  0.5745 -0.3949 -0.5436
  580MOL0     H76536  -2.236   3.194  12.926 -2.5037 -1.3882  2.4161
  580MOL0     H76537  -2.169   3.049  12.990 -2.4613 -1.5233  0.9046
  580MOL0     H76538  -2.382   3.057  12.765  1.0413  0.1136 -1.0528
  580MOL0     H76539  -2.325   2.921  12.866 -1.5274 -0.7244 -0.7538
  580MOL0     H76540  -2.400   3.084  13.061 -2.1794  1.9523  1.1885
  580MOL0     H76541  -2.518   2.977  13.004 -1.5111  2.1987  0.8988
  580MOL0     H76542  -1.505   3.065  12.746  0.0599 -0.2794 -2.0449
  580MOL0     H76543  -1.388   3.175  12.570 -1.5291  0.7386 -0.1400
  580MOL0     H76544  -1.154   3.630  12.512 -2.0452 -1.1116 -0.0404
  580MOL0     H76545  -1.035   3.759  12.344 -0.4184 -0.3655 -0.9929
  580MOL0     H76546  -0.334   4.137  11.002  0.9401 -3.1030 -1.5261
  580MOL0     H76547  -0.182   4.067  10.829  1.0470 -0.9802  0.1558
  580MOL0     H76548   0.108   3.970  10.604  0.6024 -1.8702 -0.9158
  580MOL0     H76549   0.214   3.900  10.411  0.7746 -0.8957  0.1323
  580MOL0     H76550   0.401   3.900  10.163 -2.9989 -1.7499  0.0785
  580MOL0     H76551   0.354   3.790  10.290 -1.5473  0.4879  0.5144
  580MOL0     H76552   0.646   3.821  10.189  0.1501  0.6345  1.7378
  580MOL0     H76553   0.575   3.685  10.283  2.3215  1.5540  0.1055
  580MOL0     H76554   0.535   3.731   9.994 -1.5241  1.7199  0.6849
  580MOL0     H76555   0.402   3.681  10.082 -0.1658 -0.0477  2.2691
  580MOL0     H76556   0.532   3.487  10.176 -2.6798 -0.5710 -0.9596
  580MOL0     H76557   0.517   3.486  10.001  0.2076 -0.4494 -0.1043
  580MOL0     H76558   0.950   3.505  10.078  0.7734 -3.4467 -3.4946
  580MOL0     H76559   0.569   4.112  10.504  0.5108  0.1431  0.5255
  580MOL0     H76560   0.472   4.190  10.720  2.2720 -0.0982 -2.3054
  581MOL0     O76561   5.599   3.047   9.123  0.8144 -0.2295  0.4259
  581MOL0     C76562   5.565   3.038   9.240  0.2606 -0.2700 -0.0218
  581MOL0     O76563   5.438   3.075   9.293 -0.0864 -0.7455  0.1382
  581MOL0     C76564   5.323   3.118   9.225  0.5602  0.8151  0.3108
  581MOL0     C76565   5.320   3.135   9.085  1.0024 -0.2612 -0.1039
  581MOL0     C76566   5.209   3.191   9.028  0.4618  0.7416 -0.5936
  581MOL0     C76567   5.093   3.201   9.100  0.2314  0.3621 -0.8509
  581MOL0     O76568   4.980   3.249   9.041  0.3754  0.0743  0.1423
  581MOL0     C76569   4.905   3.340   9.133  0.3790 -0.0327 -0.4855
  581MOL0     C76570   4.814   3.424   9.038  1.2280 -0.1010 -1.1394
  581MOL0     C76571   4.735   3.542   9.104  0.6796 -0.5449 -0.1351
  581MOL0     C76572   4.645   3.602   9.003 -0.4209 -0.7360 -0.5109
  581MOL0     C76573   4.572   3.726   9.063  0.1559  0.2084 -1.2141
  581MOL0     C76574   4.467   3.679   9.161  0.0421  0.6294  0.0255
  581MOL0     C76575   4.341   3.772   9.167  0.3716 -1.1091 -0.4936
  581MOL0     C76576   4.269   3.776   9.308 -1.4690  0.1983 -0.2742
  581MOL0     N76577   4.177   3.661   9.336 -0.2477 -0.4259 -1.8693
  581MOL0     C76578   4.051   3.652   9.293 -0.2000  0.0928 -0.1777
  581MOL0     C76579   4.000   3.537   9.336  0.6361  0.6217  0.1113
  581MOL0     C76580   3.854   3.495   9.329 -0.6764 -0.3505 -0.7338
  581MOL0     C76581   3.829   3.379   9.231  0.2406 -0.3287  0.0982
  581MOL0     C76582   3.874   3.248   9.302  0.5022 -0.2674  0.4279
  581MOL0     C76583   3.769   3.179   9.396 -0.0306  0.4498 -0.0369
  581MOL0     O76584   3.690   3.098   9.302  0.0226  0.3618 -0.5597
  581MOL0     C76585   3.561   3.068   9.315 -0.3932  0.8913 -0.2186
  581MOL0     C76586   3.505   3.008   9.201  0.9869  1.8171 -0.1228
  581MOL0     C76587   3.370   2.973   9.201  0.1695  0.1805 -0.4240
  581MOL0     C76588   3.299   3.000   9.320  0.5142  0.4628 -0.7401
  581MOL0     C76589   3.152   2.983   9.321  0.2434  0.1736  0.3348
  581MOL0     O76590   3.096   2.896   9.239  0.6298 -0.4483 -0.3163
  581MOL0     C76591   2.974   2.836   9.244  0.1577 -0.1740 -0.2957
  581MOL0     C76592   2.969   2.719   9.174  0.8014 -0.6285  0.9415
  581MOL0     C76593   2.842   2.652   9.175 -0.2524  0.2089 -0.1346
  581MOL0     C76594   2.733   2.708   9.236 -1.0137  0.6262 -0.2272
  581MOL0     O76595   2.620   2.644   9.239 -0.1314 -0.4215  0.0672
  581MOL0     C76596   2.547   2.650   9.113 -0.2547  0.4770  0.5257
  581MOL0     C76597   2.441   2.537   9.103 -0.3655  0.2745  0.0353
  581MOL0     C76598   2.493   2.433   9.005  0.0061 -1.0122  1.0029
  581MOL0     C76599   2.387   2.322   9.006 -0.7806 -0.6976  0.3185
  581MOL0     C76600   2.384   2.240   8.872 -0.1238 -0.6276  0.5650
  581MOL0     C76601   2.526   2.184   8.837  0.4789 -0.4365  0.0720
  581MOL0     C76602   2.524   2.065   8.739  0.5339 -0.1840  0.5478
  581MOL0     C76603   2.665   2.043   8.675 -0.1345 -0.3030  0.0496
  581MOL0    Cl76604   2.678   2.144   8.529 -0.0440  0.3467 -0.1527
  581MOL0     C76605   2.737   2.831   9.302  0.0702 -0.7856 -0.1187
  581MOL0     C76606   2.862   2.893   9.298 -0.2999 -0.0218 -0.4198
  581MOL0     O76607   3.095   3.052   9.404 -0.4376 -0.4203 -0.3218
  581MOL0     C76608   3.357   3.051   9.438 -0.3609 -0.6985  0.3048
  581MOL0     C76609   3.493   3.083   9.432  0.6160  0.1177 -0.2155
  581MOL0     N76610   4.097   3.470   9.401  0.6751 -0.9419 -0.0769
  581MOL0     N76611   4.204   3.547   9.415  0.6869  0.7860 -0.2539
  581MOL0     C76612   5.089   3.172   9.238  0.1564 -0.3190  0.3316
  581MOL0     C76613   5.210   3.131   9.301 -0.3704 -0.1444 -0.3745
  581MOL0     C76614   5.656   2.969   9.324 -0.6550 -0.1117  0.7184
  581MOL0     C76615   5.794   2.955   9.287 -0.0466 -0.2195 -0.0235
  581MOL0     C76616   5.886   2.895   9.376 -0.3131 -0.4196  0.2604
  581MOL0     C76617   5.840   2.852   9.505 -0.9920  0.3364 -0.2820
  581MOL0     O76618   5.941   2.808   9.588  0.4067 -0.0404  0.0798
  581MOL0     C76619   5.934   2.665   9.595 -0.1230 -0.1485  0.7360
  581MOL0     C76620   6.016   2.616   9.712 -0.5173 -0.2419  0.0414
  581MOL0     C76621   6.007   2.464   9.705 -0.6221  0.1190  0.0095
  581MOL0     C76622   6.118   2.392   9.780  0.0237  0.1159 -0.1238
  581MOL0     C76623   6.085   2.245   9.793 -0.7667 -0.1374  0.3553
  581MOL0     C76624   6.061   2.126   9.800  0.4475  0.4798 -0.7749
  581MOL0     C76625   5.706   2.860   9.538  0.5759  0.3701 -0.1227
  581MOL0     C76626   5.622   2.917   9.450 -0.5030 -0.8163  0.4625
  581MOL0     H76627   5.400   3.121   9.013 -0.1750 -0.6352 -1.3825
  581MOL0     H76628   5.209   3.216   8.923  0.1432  0.0169 -0.7764
  581MOL0     H76629   4.980   3.403   9.183  1.8417 -2.6518  0.8614
  581MOL0     H76630   4.841   3.280   9.198 -0.0022  0.3401 -0.5145
  581MOL0     H76631   4.736   3.362   8.993 -0.9483 -0.7161  3.0091
  581MOL0     H76632   4.880   3.475   8.967 -0.5236  0.6016 -2.3164
  581MOL0     H76633   4.805   3.615   9.145  0.7802  1.0326 -2.8635
  581MOL0     H76634   4.666   3.512   9.184 -2.9734  0.6595 -2.5708
  581MOL0     H76635   4.705   3.632   8.917  1.7411 -1.9378  0.4717
  581MOL0     H76636   4.570   3.530   8.967 -0.2840  0.0583 -2.5168
  581MOL0     H76637   4.535   3.789   8.982  2.0908  1.3893 -1.2521
  581MOL0     H76638   4.643   3.790   9.117 -3.2705  2.3566  1.1554
  581MOL0     H76639   4.509   3.677   9.262  0.7447 -0.8421 -0.2644
  581MOL0     H76640   4.439   3.576   9.136 -0.1633  0.3947  1.1233
  581MOL0     H76641   4.357   3.878   9.144 -1.3091 -0.8520 -0.6210
  581MOL0     H76642   4.268   3.731   9.096  0.6185  0.6860 -1.8679
  581MOL0     H76643   4.215   3.872   9.308 -2.6630 -0.4371  1.2936
  581MOL0     H76644   4.344   3.782   9.387 -0.4824  0.8931 -1.2383
  581MOL0     H76645   3.996   3.724   9.235 -1.7389 -0.9882 -0.1252
  581MOL0     H76646   3.805   3.587   9.297  3.6989  2.6456  0.1481
  581MOL0     H76647   3.804   3.475   9.424  0.5436 -2.0681 -0.4019
  581MOL0     H76648   3.887   3.396   9.139 -0.7488  2.4805 -0.1036
  581MOL0     H76649   3.723   3.370   9.205  0.1160  1.4028 -0.1436
  581MOL0     H76650   3.907   3.178   9.225 -0.3044 -0.7301  0.4957
  581MOL0     H76651   3.975   3.255   9.345  0.9695 -0.6681 -0.5571
  581MOL0     H76652   3.711   3.246   9.460  1.9535 -0.2106  2.5920
  581MOL0     H76653   3.818   3.107   9.462 -1.8410 -0.4671  0.3489
  581MOL0     H76654   3.563   2.972   9.116 -0.9995  1.0090 -1.1857
  581MOL0     H76655   3.324   2.921   9.118 -1.2798 -1.4544  1.3223
  581MOL0     H76656   3.050   2.674   9.118  0.6255  0.4015 -0.1817
  581MOL0     H76657   2.832   2.557   9.123 -1.1294  1.6869 -2.8699
  581MOL0     H76658   2.610   2.652   9.023  0.4610 -5.1101  0.5436
  581MOL0     H76659   2.492   2.745   9.116 -0.9937  0.0436  0.8688
  581MOL0     H76660   2.350   2.576   9.055  1.6142  1.6940 -2.8955
  581MOL0     H76661   2.411   2.496   9.200 -0.0796 -0.0210 -0.0002
  581MOL0     H76662   2.596   2.398   9.021  0.5591  0.4220  0.7009
  581MOL0     H76663   2.505   2.485   8.909 -1.4086  1.3164  2.0223
  581MOL0     H76664   2.407   2.253   9.088 -0.8517 -0.1397  0.8175
  581MOL0     H76665   2.285   2.360   9.020 -1.9642 -1.9931 -3.4702
  581MOL0     H76666   2.334   2.291   8.789 -0.3986 -0.9230  0.5429
  581MOL0     H76667   2.324   2.149   8.885  4.0301 -3.4163  2.3774
  581MOL0     H76668   2.562   2.135   8.928 -3.0997 -2.0848  0.7594
  581MOL0     H76669   2.591   2.264   8.801  1.9944 -1.2113  0.9653
  581MOL0     H76670   2.495   1.972   8.788  0.7610  1.4367  4.0649
  581MOL0     H76671   2.442   2.092   8.672  0.8976 -0.9690 -0.2386
  581MOL0     H76672   2.685   1.945   8.631  2.1384  0.6374 -1.1865
  581MOL0     H76673   2.743   2.059   8.750 -0.1985 -1.4630  0.3808
  581MOL0     H76674   2.656   2.873   9.361 -1.0434 -0.6706 -1.6627
  581MOL0     H76675   2.864   2.980   9.362  0.6173 -0.7498  0.5732
  581MOL0     H76676   3.293   3.069   9.524 -2.6971  0.5846 -1.5668
  581MOL0     H76677   3.538   3.119   9.524  0.5958 -0.6548  0.1029
  581MOL0     H76678   5.006   3.187   9.306  0.8399 -0.1135  1.1407
  581MOL0     H76679   5.224   3.123   9.408  5.3208  0.3572 -0.7949
  581MOL0     H76680   5.828   3.004   9.196 -1.4845  1.1600  0.1343
  581MOL0     H76681   5.991   2.898   9.350 -0.1586  5.2890  0.3587
  581MOL0     H76682   5.991   2.634   9.507  0.6232 -0.6715  1.3864
  581MOL0     H76683   5.841   2.609   9.588 -0.1008 -0.3648  1.8971
  581MOL0     H76684   6.118   2.653   9.700 -1.3692  2.0649 -0.6490
  581MOL0     H76685   5.988   2.651   9.812  0.8275 -1.9566  1.0756
  581MOL0     H76686   6.029   2.446   9.600 -1.0120  3.2630 -0.7121
  581MOL0     H76687   5.908   2.429   9.736 -0.8127  2.1593  1.9091
  581MOL0     H76688   6.217   2.416   9.741  1.1305 -2.0628  1.1376
  581MOL0     H76689   6.108   2.435   9.880  0.1881  0.8428 -0.4140
  581MOL0     H76690   6.021   2.029   9.823  0.6716  0.7045  0.6702
  581MOL0     H76691   5.666   2.825   9.632  0.9313  0.1532 -0.0529
  581MOL0     H76692   5.518   2.932   9.477 -0.8431 -1.0629 -0.6829
  582MOL0     O76693   2.420   3.255   9.981  0.3209  0.2030 -0.5210
  582MOL0     C76694   2.475   3.179   9.905  0.2799 -0.0821 -0.1016
  582MOL0     O76695   2.418   3.059   9.863  0.1264  0.3007  0.3385
  582MOL0     C76696   2.323   3.006   9.945 -0.3252 -0.1903 -0.0788
  582MOL0     C76697   2.315   3.016  10.090 -0.0507 -0.4467  0.3139
  582MOL0     C76698   2.211   2.952  10.161 -0.5566 -0.7329  0.1061
  582MOL0     C76699   2.118   2.876  10.096 -0.5615  0.0520 -0.5734
  582MOL0     O76700   2.015   2.817  10.167 -0.2165 -0.1808  0.4277
  582MOL0     C76701   1.919   2.726  10.103 -0.6234  0.2097  1.1193
  582MOL0     C76702   1.803   2.793  10.026 -0.0618  0.4313  0.0851
  582MOL0     C76703   1.675   2.829  10.107  0.4147  0.7464  0.2436
  582MOL0     C76704   1.561   2.883  10.016 -1.6001  0.3784 -0.5029
  582MOL0     C76705   1.429   2.886  10.088 -0.1803 -0.1950 -0.6219
  582MOL0     C76706   1.317   2.927   9.992  0.2071  1.0391 -0.4945
  582MOL0     C76707   1.176   2.937  10.051 -0.3021  0.1045  0.4009
  582MOL0     C76708   1.156   3.074  10.124 -0.1856  0.3395  0.1682
  582MOL0     N76709   1.023   3.071  10.186 -0.5925 -0.5618 -0.4753
  582MOL0     C76710   0.916   3.147  10.144  0.5566 -0.3884  0.2833
  582MOL0     C76711   0.810   3.081  10.190  0.1560  0.8344 -0.1532
  582MOL0     C76712   0.672   3.127  10.167 -0.3942  0.2654  0.3586
  582MOL0     C76713   0.614   3.083  10.030  0.9248 -0.0786 -0.0947
  582MOL0     C76714   0.470   3.158  10.010  0.1066 -0.3093 -0.2011
  582MOL0     C76715   0.378   3.166  10.134 -0.4955  0.2412  0.8009
  582MOL0     O76716   0.409   3.285  10.219  0.5200  0.2142  0.0903
  582MOL0     C76717   0.332   3.290  10.333 -0.4330 -0.5403 -0.3621
  582MOL0     C76718   0.243   3.198  10.389 -0.9647  0.3563  0.1488
  582MOL0     C76719   0.165   3.228  10.498  0.0654  0.2036  0.1102
  582MOL0     C76720   0.171   3.353  10.557 -0.4517  0.3192  0.7487
  582MOL0     C76721   0.087   3.392  10.674 -0.6681 -0.1897  0.3366
  582MOL0     O76722   0.056   3.518  10.692  0.2145 -0.1456 -0.6717
  582MOL0     C76723  -0.030   3.558  10.790  0.3873  0.1853  0.2600
  582MOL0     C76724  -0.010   3.690  10.826  0.0973  0.1046 -0.3734
  582MOL0     C76725  -0.067   3.738  10.944 -0.5031 -0.0044 -0.6617
  582MOL0     C76726  -0.157   3.662  11.018  0.8351 -0.2737  0.1789
  582MOL0     O76727  -0.209   3.699  11.138 -0.0376 -0.0783 -0.0890
  582MOL0     C76728  -0.109   3.740  11.238  1.4136  0.5592 -0.0250
  582MOL0     C76729  -0.144   3.660  11.363 -0.8371 -0.2155  0.7263
  582MOL0     C76730  -0.273   3.717  11.419  0.3824  0.3782 -1.4018
  582MOL0     C76731  -0.316   3.622  11.539 -0.2539 -0.4844  0.4412
  582MOL0     C76732  -0.451   3.651  11.586  0.7592  0.4034  0.6687
  582MOL0     C76733  -0.490   3.564  11.709 -0.9070  0.1576 -0.2825
  582MOL0     C76734  -0.636   3.576  11.755 -0.8659 -0.1479 -0.5424
  582MOL0     C76735  -0.650   3.484  11.878  0.2918  0.4332 -0.1943
  582MOL0    Cl76736  -0.671   3.316  11.824 -0.3451  0.4819 -0.1682
  582MOL0     C76737  -0.186   3.535  10.974  0.9769  0.7597 -0.5184
  582MOL0     C76738  -0.124   3.485  10.860  0.2583 -1.0559 -0.2240
  582MOL0     O76739   0.065   3.292  10.748 -0.3877  0.0360  0.5621
  582MOL0     C76740   0.250   3.451  10.497 -0.0672  0.0606 -0.0957
  582MOL0     C76741   0.334   3.418  10.394  0.8201  0.9830 -0.1325
  582MOL0     N76742   0.848   2.982  10.277 -0.3112  0.1758  0.5161
  582MOL0     N76743   0.976   2.976  10.273  0.2880 -0.8173 -0.4359
  582MOL0     C76744   2.126   2.865   9.961 -0.1374 -0.4486  0.3852
  582MOL0     C76745   2.228   2.924   9.887  0.3566  0.1970 -0.0578
  582MOL0     C76746   2.590   3.240   9.835  0.0979  0.1325 -1.0116
  582MOL0     C76747   2.647   3.364   9.868  0.4366  0.1394 -0.1587
  582MOL0     C76748   2.756   3.423   9.805 -0.6455  0.2954  0.1011
  582MOL0     C76749   2.822   3.349   9.712  0.0610 -0.6750 -1.2970
  582MOL0     O76750   2.938   3.414   9.658 -0.5325  0.2526  0.2978
  582MOL0     C76751   3.000   3.353   9.549 -0.5296 -0.2097  0.2399
  582MOL0     C76752   3.120   3.445   9.508 -0.0608  0.8470 -0.0087
  582MOL0     C76753   3.212   3.375   9.403  0.4594  0.0524 -1.0532
  582MOL0     C76754   3.326   3.456   9.358  1.1411  0.6708  0.3767
  582MOL0     C76755   3.410   3.511   9.465 -0.2484  0.0604  0.2392
  582MOL0     C76756   3.484   3.546   9.554  0.4567  0.3701 -0.3580
  582MOL0     C76757   2.774   3.226   9.671  1.2618 -0.5026 -0.0966
  582MOL0     C76758   2.651   3.180   9.721 -0.3847  0.6493 -0.1567
  582MOL0     H76759   2.392   3.067  10.147  2.0288 -2.2075 -0.7864
  582MOL0     H76760   2.223   2.939  10.268  0.5913 -0.5345  0.0163
  582MOL0     H76761   1.872   2.677  10.189 -2.7392  0.7388  0.3233
  582MOL0     H76762   1.969   2.650  10.043 -0.2340  0.0077  1.6811
  582MOL0     H76763   1.778   2.733   9.938 -0.5287 -0.6414  0.9127
  582MOL0     H76764   1.844   2.887   9.990  2.1163  0.1365  1.5738
  582MOL0     H76765   1.696   2.910  10.178 -0.6927  2.2120 -1.0452
  582MOL0     H76766   1.637   2.742  10.161 -0.1304 -0.6150 -2.2227
  582MOL0     H76767   1.593   2.984   9.987 -0.4105  0.4212  0.8213
  582MOL0     H76768   1.561   2.826   9.923 -0.2915  0.2254 -0.4361
  582MOL0     H76769   1.436   2.959  10.169  1.5776  0.1039 -0.9857
  582MOL0     H76770   1.403   2.798  10.147 -0.3901  0.1365 -0.2097
  582MOL0     H76771   1.316   2.856   9.909  0.5420 -0.5688  0.8273
  582MOL0     H76772   1.338   3.023   9.945  0.8084  1.0400 -0.2332
  582MOL0     H76773   1.102   2.939   9.970  0.9873 -1.5812 -0.8720
  582MOL0     H76774   1.154   2.852  10.115  1.1334  1.0066  2.1895
  582MOL0     H76775   1.149   3.152  10.047 -3.9461  0.6847  0.6727
  582MOL0     H76776   1.238   3.089  10.194  0.6678  1.2822 -0.9844
  582MOL0     H76777   0.905   3.224  10.068 -1.3517 -0.7157  0.1684
  582MOL0     H76778   0.684   3.235  10.169  2.0147  0.0636  2.1757
  582MOL0     H76779   0.608   3.096  10.250  0.6670 -2.7318  0.1904
  582MOL0     H76780   0.595   2.977  10.015 -1.7886  0.5381 -1.6934
  582MOL0     H76781   0.690   3.115   9.958  1.7524  1.1389  1.2554
  582MOL0     H76782   0.491   3.259   9.973  1.4027  1.1342  3.9053
  582MOL0     H76783   0.415   3.091   9.943  0.3693 -0.0545 -0.6798
  582MOL0     H76784   0.378   3.070  10.187 -0.2795  1.2329  2.6956
  582MOL0     H76785   0.273   3.169  10.103 -0.6674  5.5528  1.0490
  582MOL0     H76786   0.239   3.099  10.343  1.8788  0.1728  0.1140
  582MOL0     H76787   0.101   3.151  10.540  0.9971 -0.7310 -0.1471
  582MOL0     H76788   0.058   3.749  10.767  0.0050  0.8554  0.2427
  582MOL0     H76789  -0.037   3.835  10.983  1.1678 -1.3790  1.7001
  582MOL0     H76790  -0.112   3.849  11.250  1.2954  0.5389  0.1295
  582MOL0     H76791  -0.003   3.720  11.217  1.6062 -1.3770  2.3978
  582MOL0     H76792  -0.064   3.659  11.436 -1.5730 -1.0140  1.5450
  582MOL0     H76793  -0.159   3.556  11.331  0.9846 -0.1982 -0.2978
  582MOL0     H76794  -0.350   3.708  11.342  0.7877 -2.1347 -1.5747
  582MOL0     H76795  -0.268   3.822  11.451 -0.4590  0.0569 -0.0966
  582MOL0     H76796  -0.327   3.518  11.508 -1.1179 -0.1180 -0.5521
  582MOL0     H76797  -0.243   3.640  11.618  0.5468  0.2692 -0.4493
  582MOL0     H76798  -0.525   3.641  11.505 -0.3154  2.3547  1.3354
  582MOL0     H76799  -0.452   3.757  11.614  0.3571  1.5978 -3.1546
  582MOL0     H76800  -0.420   3.580  11.791  2.1264 -2.3270 -2.1377
  582MOL0     H76801  -0.474   3.457  11.689 -1.2613  0.3573 -1.7852
  582MOL0     H76802  -0.655   3.675  11.796  0.7763 -1.9212  5.4896
  582MOL0     H76803  -0.692   3.530  11.673  1.0390 -3.6801 -0.0523
  582MOL0     H76804  -0.747   3.514  11.917 -0.8257  0.7046 -2.9837
  582MOL0     H76805  -0.578   3.500  11.959 -1.9389 -0.2194  2.0470
  582MOL0     H76806  -0.236   3.460  11.035  3.3726 -2.0866 -1.8004
  582MOL0     H76807  -0.150   3.390  10.813  2.8635 -2.7606  1.5526
  582MOL0     H76808   0.247   3.551  10.539  0.4609 -0.0695  0.2672
  582MOL0     H76809   0.403   3.485  10.343  4.3915 -1.8549  0.5340
  582MOL0     H76810   2.054   2.803   9.909 -1.3114  1.0097  0.1881
  582MOL0     H76811   2.221   2.939   9.780  0.8104 -0.7767 -0.2330
  582MOL0     H76812   2.602   3.419   9.951  1.2855 -0.3302  0.6322
  582MOL0     H76813   2.786   3.524   9.832 -0.8520  0.3575  0.1067
  582MOL0     H76814   2.931   3.347   9.464  3.0546 -0.0718 -2.9861
  582MOL0     H76815   3.027   3.252   9.583 -0.0793  0.1755  1.0433
  582MOL0     H76816   3.081   3.542   9.475 -1.7299 -0.0308 -0.7815
  582MOL0     H76817   3.181   3.456   9.598  0.1309  1.6814 -0.2356
  582MOL0     H76818   3.144   3.327   9.331 -1.0060  0.1305  0.2274
  582MOL0     H76819   3.261   3.298   9.463  0.5463  0.7142 -0.2602
  582MOL0     H76820   3.400   3.399   9.302  2.0211  1.0664  1.1164
  582MOL0     H76821   3.288   3.532   9.289  0.1842 -1.4514 -1.5589
  582MOL0     H76822   3.564   3.576   9.619  1.4704 -1.5432 -0.6399
  582MOL0     H76823   2.821   3.163   9.596  0.7100  1.3500 -2.0678
  582MOL0     H76824   2.607   3.092   9.674  0.0939 -0.1350  0.8302
  583MOL0     O76825   8.745   3.102   8.922  0.3898 -0.6860  0.6044
  583MOL0     C76826   8.832   3.043   8.982  0.5173 -1.2164 -1.2161
  583MOL0     O76827   8.817   3.001   9.110 -0.0222  0.1795  0.0680
  583MOL0     C76828   8.707   3.057   9.171  0.7487 -0.1561  0.0647
  583MOL0     C76829   8.582   3.002   9.176 -0.5568  0.1631 -0.6871
  583MOL0     C76830   8.479   3.068   9.239 -0.2935 -0.5423 -0.9298
  583MOL0     C76831   8.505   3.182   9.321  0.2824  0.2702 -0.5080
  583MOL0     O76832   8.393   3.238   9.393  0.4257 -0.4609 -0.1590
  583MOL0     C76833   8.383   3.357   9.458 -0.0014 -0.9910  0.1065
  583MOL0     C76834   8.234   3.401   9.485 -0.0604  0.5457  1.1613
  583MOL0     C76835   8.145   3.354   9.372 -0.1797 -0.2195 -0.0989
  583MOL0     C76836   8.018   3.426   9.395  0.4934  0.6144  0.2156
  583MOL0     C76837   7.916   3.408   9.276  0.0566 -0.4837 -0.0054
  583MOL0     C76838   7.781   3.472   9.321 -0.3066 -0.0664  0.3668
  583MOL0     C76839   7.657   3.436   9.231 -0.6224  0.0369 -1.0161
  583MOL0     C76840   7.529   3.492   9.292  0.8140 -0.6746  0.2372
  583MOL0     N76841   7.457   3.386   9.370  0.3386 -0.1793 -0.1663
  583MOL0     C76842   7.391   3.282   9.307 -0.6573  1.0835  0.9575
  583MOL0     C76843   7.319   3.229   9.403 -0.0905 -0.6724 -0.3378
  583MOL0     C76844   7.219   3.125   9.370 -0.8630  0.8946 -0.4418
  583MOL0     C76845   7.098   3.179   9.292  0.2295  1.0946 -0.0918
  583MOL0     C76846   7.007   3.256   9.380 -0.0273 -0.6952  0.3795
  583MOL0     C76847   6.872   3.264   9.322 -0.1008 -0.3111  0.3551
  583MOL0     O76848   6.781   3.162   9.373 -0.5217 -0.0405 -0.7011
  583MOL0     C76849   6.648   3.177   9.350 -0.1185 -1.1478 -0.0264
  583MOL0     C76850   6.593   3.286   9.283  0.1814  0.3527 -0.1495
  583MOL0     C76851   6.450   3.298   9.270 -0.6826 -0.7083  0.1030
  583MOL0     C76852   6.370   3.196   9.322  0.7460  0.3325 -0.1699
  583MOL0     C76853   6.223   3.201   9.300  0.0512 -0.3445 -0.0333
  583MOL0     O76854   6.169   3.302   9.232  0.2286 -0.3241  0.0030
  583MOL0     C76855   6.042   3.331   9.242 -0.4738  0.4505 -0.8702
  583MOL0     C76856   5.940   3.270   9.163 -0.6923 -1.1017 -0.4126
  583MOL0     C76857   5.808   3.306   9.184  0.0258 -0.5604  0.1080
  583MOL0     C76858   5.767   3.404   9.273 -1.0444 -0.1552  0.3524
  583MOL0     O76859   5.637   3.451   9.302 -0.0153  0.1752 -0.5430
  583MOL0     C76860   5.533   3.433   9.200 -0.4186  0.2951  0.3013
  583MOL0     C76861   5.446   3.553   9.195  0.3869 -0.3744 -0.3254
  583MOL0     C76862   5.331   3.552   9.098 -0.1859  0.0931  0.1478
  583MOL0     C76863   5.243   3.677   9.100 -0.0522  0.6806  0.4700
  583MOL0     C76864   5.164   3.687   8.972 -0.4375  0.2164  0.0477
  583MOL0     C76865   5.035   3.781   8.981  0.0478  0.4288  0.6797
  583MOL0     C76866   5.078   3.928   8.982 -0.0750 -0.6778  0.8196
  583MOL0     C76867   4.962   4.023   9.016  0.3446 -0.1481  0.2915
  583MOL0    Cl76868   4.823   3.977   8.915 -0.6158  0.1261  0.2939
  583MOL0     C76869   5.871   3.461   9.349 -0.5072  0.6952 -0.4284
  583MOL0     C76870   6.006   3.427   9.326 -0.0175 -0.4877 -0.9488
  583MOL0     O76871   6.162   3.106   9.356  0.1424  0.3926  0.0847
  583MOL0     C76872   6.428   3.087   9.391  0.8441 -0.0526  0.6676
  583MOL0     C76873   6.561   3.073   9.397  0.0472  0.2027 -0.1809
  583MOL0     N76874   7.361   3.280   9.525 -0.2700 -0.2827 -0.2047
  583MOL0     N76875   7.443   3.375   9.503 -0.0305 -0.4736 -1.1011
  583MOL0     C76876   8.635   3.226   9.327  0.4035 -0.3482 -0.0578
  583MOL0     C76877   8.734   3.169   9.246 -0.0758  0.4698 -0.0087
  583MOL0     C76878   8.960   3.019   8.927 -0.1671  0.0230 -0.5646
  583MOL0     C76879   9.075   2.982   9.006 -0.3424  0.8066  0.0030
  583MOL0     C76880   9.202   2.964   8.947  0.4629  0.9083  0.5513
  583MOL0     C76881   9.213   2.981   8.810  0.3147 -0.1567  0.9161
  583MOL0     O76882   9.343   2.963   8.761 -0.0890 -0.2488 -0.3694
  583MOL0     C76883   9.382   3.007   8.631 -0.0452  0.5473  0.6277
  583MOL0     C76884   9.523   2.951   8.605 -0.2080  0.7032  0.4671
  583MOL0     C76885   9.618   2.940   8.731 -0.1393 -0.1729 -1.6190
  583MOL0     C76886   9.765   2.919   8.683  0.6854  0.4018  0.4342
  583MOL0     C76887   9.836   3.050   8.695  0.0880  0.0705 -1.1136
  583MOL0     C76888   9.895   3.154   8.725 -0.0934  0.3100  0.4907
  583MOL0     C76889   9.097   3.013   8.727  0.4015 -0.9056 -0.9152
  583MOL0     C76890   8.968   3.023   8.789  0.2124 -0.4341  0.4821
  583MOL0     H76891   8.563   2.908   9.125 -1.0740  0.8262 -1.7472
  583MOL0     H76892   8.381   3.029   9.212  1.0010 -3.9996 -1.1151
  583MOL0     H76893   8.417   3.435   9.389 -0.9061  0.3271  1.1062
  583MOL0     H76894   8.447   3.357   9.547  0.4732 -2.4770 -0.2025
  583MOL0     H76895   8.228   3.510   9.489 -1.3816  0.4615  1.8842
  583MOL0     H76896   8.207   3.378   9.588  1.1599 -2.2718  0.9554
  583MOL0     H76897   8.149   3.245   9.364  0.4015 -0.0779 -2.8110
  583MOL0     H76898   8.181   3.399   9.279 -1.8686  0.5491 -0.4203
  583MOL0     H76899   7.973   3.389   9.488 -2.8367  0.1399 -1.4252
  583MOL0     H76900   8.022   3.534   9.406 -1.0616  0.7620 -0.3695
  583MOL0     H76901   7.896   3.304   9.249  0.4652 -0.2214 -1.4241
  583MOL0     H76902   7.946   3.456   9.182 -2.2271  0.2574 -0.4338
  583MOL0     H76903   7.799   3.579   9.329 -2.0589  0.3411 -0.5613
  583MOL0     H76904   7.766   3.441   9.424  0.0493 -0.0896  0.4134
  583MOL0     H76905   7.670   3.488   9.135  0.9985  4.6156  1.4059
  583MOL0     H76906   7.657   3.329   9.210  3.5954 -0.4452  0.4953
  583MOL0     H76907   7.464   3.529   9.213  1.3677  1.3742  0.6678
  583MOL0     H76908   7.552   3.567   9.368 -0.8503  1.5201 -1.3290
  583MOL0     H76909   7.389   3.264   9.200  0.3466  1.0359  0.9394
  583MOL0     H76910   7.186   3.080   9.464 -1.2226  0.0029 -0.9806
  583MOL0     H76911   7.265   3.043   9.313  0.4246  0.6377  0.8821
  583MOL0     H76912   7.039   3.087   9.282 -0.1303  0.8135  3.3881
  583MOL0     H76913   7.123   3.231   9.199 -0.4389  2.9926  0.7406
  583MOL0     H76914   7.002   3.210   9.479 -1.5410  0.1884  0.7520
  583MOL0     H76915   7.053   3.355   9.385 -0.2338 -0.4369 -1.7353
  583MOL0     H76916   6.863   3.239   9.216 -1.3827 -1.7941  0.7752
  583MOL0     H76917   6.827   3.363   9.341 -2.1132 -0.5432 -2.5480
  583MOL0     H76918   6.661   3.354   9.233 -0.1741 -0.3205 -1.6265
  583MOL0     H76919   6.408   3.387   9.223  1.8390 -0.3379 -1.6252
  583MOL0     H76920   5.959   3.193   9.090  0.0472 -2.7834  1.4460
  583MOL0     H76921   5.730   3.254   9.129 -0.1035  1.2036 -1.4979
  583MOL0     H76922   5.487   3.337   9.223  1.4660 -0.9685 -0.9041
  583MOL0     H76923   5.585   3.422   9.105  1.2963 -0.2453  1.2543
  583MOL0     H76924   5.519   3.634   9.182  1.0095 -0.9825 -0.7329
  583MOL0     H76925   5.417   3.570   9.298 -1.9322 -0.5091 -0.9119
  583MOL0     H76926   5.267   3.465   9.119  1.6856 -2.0479 -2.2678
  583MOL0     H76927   5.375   3.529   9.001 -4.2450 -0.9380 -1.6849
  583MOL0     H76928   5.184   3.674   9.192 -0.1505 -0.7689  0.3806
  583MOL0     H76929   5.313   3.761   9.106  0.1132  0.4698  1.6488
  583MOL0     H76930   5.121   3.592   8.939  2.4425 -0.8484 -0.9424
  583MOL0     H76931   5.232   3.732   8.899  1.3942  0.0175  1.5469
  583MOL0     H76932   4.981   3.757   9.073  0.4121 -0.7721  0.5897
  583MOL0     H76933   4.983   3.756   8.888 -2.3505 -0.4882  2.1584
  583MOL0     H76934   5.146   3.928   9.068 -1.5178 -3.4495  2.0960
  583MOL0     H76935   5.128   3.953   8.888  0.0941 -2.7425  0.3057
  583MOL0     H76936   4.998   4.126   9.005  3.2793 -1.3246 -2.3138
  583MOL0     H76937   4.922   4.008   9.117  0.4161 -0.4362  0.2764
  583MOL0     H76938   5.847   3.538   9.422 -0.6378  0.2223  0.0384
  583MOL0     H76939   6.091   3.481   9.368 -1.0947  2.3030 -2.1278
  583MOL0     H76940   6.367   3.007   9.433  1.8507 -0.5078  1.3133
  583MOL0     H76941   6.600   2.989   9.452  0.1797  0.0359 -0.5255
  583MOL0     H76942   8.650   3.304   9.401  0.2152 -0.8089  0.4652
  583MOL0     H76943   8.836   3.205   9.254  1.4654 -3.6072  1.3158
  583MOL0     H76944   9.063   2.967   9.112  0.9441  1.8334  0.3173
  583MOL0     H76945   9.280   2.924   9.011  0.3930 -0.6072 -0.2618
  583MOL0     H76946   9.382   3.117   8.631 -0.8499  0.5850  2.5110
  583MOL0     H76947   9.311   2.977   8.553 -1.7437  0.0040  2.3235
  583MOL0     H76948   9.521   2.851   8.561  1.8586  0.8481 -0.0389
  583MOL0     H76949   9.577   3.014   8.534  1.8779  0.4688  1.7747
  583MOL0     H76950   9.595   2.852   8.792  1.6866  0.0458 -0.5312
  583MOL0     H76951   9.609   3.034   8.787  0.5387 -1.1402  0.2076
  583MOL0     H76952   9.825   2.860   8.752 -0.1374  0.8056  1.5194
  583MOL0     H76953   9.774   2.870   8.585  1.8858  2.0590 -0.3252
  583MOL0     H76954   9.951   3.242   8.750  3.4902 -1.5779 -0.2044
  583MOL0     H76955   9.110   3.030   8.621 -0.1207  1.3953 -0.6520
  583MOL0     H76956   8.880   3.051   8.732  0.0608  1.7966  1.7068
  584MOL0     O76957   2.494   3.142   7.835 -0.6207 -0.8052  0.9425
  584MOL0     C76958   2.431   3.227   7.770  0.6335  0.7681 -0.2725
  584MOL0     O76959   2.295   3.243   7.770 -0.5191 -0.4155  0.6398
  584MOL0     C76960   2.212   3.189   7.867  0.3166  0.8420  0.3551
  584MOL0     C76961   2.092   3.157   7.817  0.5675 -0.4507 -0.7371
  584MOL0     C76962   1.987   3.127   7.904  0.3313  1.1197  0.3227
  584MOL0     C76963   2.017   3.099   8.037  0.3660  0.5474 -0.0817
  584MOL0     O76964   1.928   3.061   8.129  1.2015  0.2241 -0.0644
  584MOL0     C76965   1.794   3.026   8.089 -0.5198  0.6045 -0.2011
  584MOL0     C76966   1.708   3.003   8.217  0.0609 -0.0805 -0.4684
  584MOL0     C76967   1.560   2.993   8.176  0.1337 -0.9021  0.2237
  584MOL0     C76968   1.486   2.966   8.306  0.3715 -0.3366  0.4436
  584MOL0     C76969   1.351   2.890   8.270 -0.2517 -0.5004 -0.0719
  584MOL0     C76970   1.259   2.884   8.398 -0.2944 -0.2344  0.8050
  584MOL0     C76971   1.246   3.012   8.485 -0.1830  0.6655 -0.1974
  584MOL0     C76972   1.124   3.003   8.571  0.6643  0.5400 -0.6660
  584MOL0     N76973   0.997   3.004   8.496 -0.4319  0.2479 -0.4004
  584MOL0     C76974   0.942   3.117   8.444  0.0501 -0.4408 -0.3765
  584MOL0     C76975   0.826   3.075   8.383 -0.8096 -0.2288  0.3516
  584MOL0     C76976   0.721   3.171   8.329 -0.2402 -0.8030  0.1318
  584MOL0     C76977   0.651   3.248   8.451  0.6642 -0.5756 -0.4728
  584MOL0     C76978   0.596   3.130   8.541 -0.3104 -0.5525 -1.1013
  584MOL0     C76979   0.473   3.180   8.617 -0.1759  0.1538 -0.6221
  584MOL0     O76980   0.526   3.285   8.699 -0.2847  0.3200 -0.0069
  584MOL0     C76981   0.425   3.359   8.755 -0.5392 -0.0872  1.7042
  584MOL0     C76982   0.376   3.482   8.696 -0.2913 -0.0162 -0.5011
  584MOL0     C76983   0.282   3.559   8.775 -0.2530  0.3565  0.9829
  584MOL0     C76984   0.251   3.525   8.907  0.2600  0.9354  0.4124
  584MOL0     C76985   0.164   3.623   8.981  0.3000  0.2368  0.1903
  584MOL0     O76986   0.184   3.752   8.950 -0.2573 -0.1757  0.5058
  584MOL0     C76987   0.126   3.841   9.041 -0.0994 -0.1566  1.0868
  584MOL0     C76988   0.028   3.920   9.002 -0.0253 -0.3567 -0.0405
  584MOL0     C76989  -0.031   4.021   9.082  0.9875  0.7340 -0.4106
  584MOL0     C76990   0.023   4.029   9.206 -0.3234 -1.0270  0.0572
  584MOL0     O76991  -0.028   4.141   9.274 -0.0518 -0.0724 -0.4180
  584MOL0     C76992   0.021   4.171   9.404 -0.5932  0.1736  0.4014
  584MOL0     C76993  -0.067   4.268   9.482  0.6502  0.2554 -0.3979
  584MOL0     C76994  -0.013   4.411   9.446  0.7626  0.3778 -0.0287
  584MOL0     C76995  -0.094   4.505   9.530 -0.0837 -0.7757  0.2570
  584MOL0     C76996  -0.005   4.637   9.548  0.9683  0.6452  0.8759
  584MOL0     C76997  -0.095   4.726   9.637 -0.8889  0.5481  0.7671
  584MOL0     C76998  -0.009   4.850   9.666  0.5177  0.0509  0.0746
  584MOL0     C76999  -0.074   4.976   9.616  0.8356 -0.2801 -0.3814
  584MOL0    Cl77000  -0.043   4.984   9.448 -0.1740  0.7799  0.0310
  584MOL0     C77001   0.120   3.939   9.253 -0.1150  0.1733  0.0193
  584MOL0     C77002   0.182   3.858   9.165  0.3562  0.1767  0.5423
  584MOL0     O77003   0.095   3.578   9.069 -0.1840  0.7416 -0.2401
  584MOL0     C77004   0.290   3.399   8.954  0.2916 -0.0460  0.1998
  584MOL0     C77005   0.378   3.318   8.880 -0.0056 -1.2534  0.0271
  584MOL0     N77006   0.817   2.939   8.415  0.5747  0.2340  0.2286
  584MOL0     N77007   0.923   2.893   8.471 -0.1265 -0.9994 -0.4284
  584MOL0     C77008   2.146   3.115   8.080  1.0867 -0.1459 -0.6384
  584MOL0     C77009   2.249   3.157   8.001 -0.5779 -0.1052 -0.3040
  584MOL0     C77010   2.511   3.315   7.682 -0.3442  0.2985  0.1841
  584MOL0     C77011   2.442   3.420   7.619 -0.0765  0.1979 -0.2121
  584MOL0     C77012   2.506   3.519   7.549 -0.0184  0.1247 -0.2138
  584MOL0     C77013   2.645   3.509   7.539 -0.6000 -0.6341 -0.0480
  584MOL0     O77014   2.728   3.599   7.478 -0.3364 -0.2089  0.1882
  584MOL0     C77015   2.686   3.697   7.378  0.1790 -0.3856  0.0040
  584MOL0     C77016   2.810   3.748   7.301 -0.2952  0.3025  1.2215
  584MOL0     C77017   2.776   3.823   7.173  0.5410 -0.4972  0.1320
  584MOL0     C77018   2.895   3.836   7.070  0.4483  0.5186 -1.3367
  584MOL0     C77019   3.007   3.923   7.106  0.2107  0.5382 -0.8262
  584MOL0     C77020   3.098   4.000   7.137  0.2190  0.6151 -0.0583
  584MOL0     C77021   2.715   3.404   7.608  0.3303  0.2835 -0.6062
  584MOL0     C77022   2.655   3.299   7.672  0.3819 -0.6484 -0.7203
  584MOL0     H77023   2.077   3.171   7.710 -2.5539  4.8199  0.0576
  584MOL0     H77024   1.885   3.108   7.870  0.8591 -0.5935 -0.3989
  584MOL0     H77025   1.788   2.930   8.037  0.0574  0.8541 -0.7421
  584MOL0     H77026   1.755   3.105   8.024 -2.7924 -1.1269 -1.0805
  584MOL0     H77027   1.733   3.086   8.285  1.9626  0.2641 -1.5121
  584MOL0     H77028   1.752   2.913   8.259  1.7067  1.1888  0.6565
  584MOL0     H77029   1.542   2.907   8.112  1.7915 -0.1637 -1.3116
  584MOL0     H77030   1.520   3.084   8.130  0.0235 -0.8586  0.4023
  584MOL0     H77031   1.546   2.908   8.376 -0.2475 -0.9256  0.4999
  584MOL0     H77032   1.468   3.058   8.362  0.9484  0.6282 -0.8995
  584MOL0     H77033   1.380   2.792   8.232 -0.1337 -0.9297  1.0951
  584MOL0     H77034   1.299   2.953   8.197 -0.2268  1.3295  1.4172
  584MOL0     H77035   1.294   2.796   8.452  2.2127  0.2401  0.0664
  584MOL0     H77036   1.160   2.861   8.358 -0.8880  0.4204  1.8514
  584MOL0     H77037   1.338   3.024   8.542 -0.7183  0.4417  0.7463
  584MOL0     H77038   1.241   3.106   8.429  1.6218  2.3245  2.2339
  584MOL0     H77039   1.124   3.088   8.640 -0.4640  1.9950 -2.3395
  584MOL0     H77040   1.115   2.914   8.633 -1.3499 -0.8266 -2.7278
  584MOL0     H77041   0.982   3.217   8.456  0.0640 -0.5878  0.9394
  584MOL0     H77042   0.646   3.109   8.279  1.3513 -0.9615 -2.2081
  584MOL0     H77043   0.754   3.240   8.251 -0.4193  0.4209  1.0988
  584MOL0     H77044   0.567   3.294   8.399  0.5285 -2.3489 -1.9428
  584MOL0     H77045   0.703   3.330   8.502 -4.5621  2.1067  1.1865
  584MOL0     H77046   0.567   3.037   8.491 -0.5211 -1.0501 -0.0719
  584MOL0     H77047   0.674   3.108   8.614 -1.3799  0.4515  0.3928
  584MOL0     H77048   0.437   3.091   8.669 -0.1602 -1.0816 -2.6284
  584MOL0     H77049   0.394   3.220   8.553 -1.1344 -2.4153 -1.1404
  584MOL0     H77050   0.414   3.520   8.602 -0.1033 -0.0284 -0.4292
  584MOL0     H77051   0.255   3.655   8.731  0.1889  0.9278  1.9187
  584MOL0     H77052  -0.017   3.903   8.905 -1.2210  2.8095 -0.1614
  584MOL0     H77053  -0.114   4.075   9.039 -0.6449 -3.1979 -2.7912
  584MOL0     H77054   0.121   4.214   9.398 -0.6545  0.0953 -1.8309
  584MOL0     H77055   0.026   4.075   9.457  1.3551 -0.4986 -0.8909
  584MOL0     H77056  -0.044   4.253   9.588  0.1626 -0.1529 -0.3465
  584MOL0     H77057  -0.172   4.254   9.455  0.6841 -0.2772 -0.2499
  584MOL0     H77058  -0.039   4.433   9.342  0.1206  2.3656  0.5041
  584MOL0     H77059   0.091   4.437   9.470  0.2495  2.8642 -0.2445
  584MOL0     H77060  -0.188   4.516   9.474  1.1112 -0.5014 -1.7700
  584MOL0     H77061  -0.115   4.466   9.631  0.4702  1.1126  1.1339
  584MOL0     H77062   0.009   4.687   9.451 -3.2062 -3.7940 -2.4836
  584MOL0     H77063   0.087   4.605   9.598  4.3598  3.2571 -2.9797
  584MOL0     H77064  -0.126   4.677   9.730  0.4805  0.2444  1.0871
  584MOL0     H77065  -0.182   4.745   9.573  0.5185  1.2894 -1.0157
  584MOL0     H77066   0.004   4.862   9.774 -2.4179  0.6612  0.4371
  584MOL0     H77067   0.092   4.845   9.624  0.1754  0.6832 -0.8406
  584MOL0     H77068  -0.023   5.061   9.662  0.2010  1.1158 -2.1921
  584MOL0     H77069  -0.179   4.976   9.648  1.1082  0.5982  0.5847
  584MOL0     H77070   0.173   3.958   9.346 -0.0374  1.3853 -0.2576
  584MOL0     H77071   0.275   3.807   9.185  1.0836  0.2432 -2.2307
  584MOL0     H77072   0.254   3.378   9.054 -1.0259  0.4258 -0.1498
  584MOL0     H77073   0.403   3.220   8.920 -1.5989 -2.0132 -0.7413
  584MOL0     H77074   2.167   3.079   8.180  0.2520  1.6766  0.2502
  584MOL0     H77075   2.346   3.179   8.045 -0.2357  0.2096 -1.2033
  584MOL0     H77076   2.338   3.432   7.648  0.6118  0.1176  2.5325
  584MOL0     H77077   2.454   3.600   7.499 -1.5469 -0.1194  0.8991
  584MOL0     H77078   2.644   3.784   7.430 -0.7214 -0.8276  0.0423
  584MOL0     H77079   2.616   3.652   7.306  0.2205 -2.4126  1.1682
  584MOL0     H77080   2.879   3.812   7.358 -1.1597  3.1616 -0.7280
  584MOL0     H77081   2.862   3.656   7.272 -1.0407  0.6733 -1.5453
  584MOL0     H77082   2.740   3.915   7.221 -1.0685 -2.0747  2.1317
  584MOL0     H77083   2.690   3.779   7.122  2.3253 -0.5135 -3.1305
  584MOL0     H77084   2.947   3.743   7.044 -2.3452 -1.5034 -0.2182
  584MOL0     H77085   2.845   3.876   6.981  1.1467 -1.5018 -2.7063
  584MOL0     H77086   3.177   4.070   7.158  1.4300 -0.8104  0.2557
  584MOL0     H77087   2.822   3.405   7.593  0.4423  2.6488 -0.0333
  584MOL0     H77088   2.703   3.216   7.723 -1.7141  0.1186  2.8102
  585MOL0     O77089   9.913   9.110   1.902  0.0275  0.0898  0.1187
  585MOL0     C77090   9.966   9.022   1.972 -0.3426 -0.3701  1.1671
  585MOL0     O77091   9.932   8.891   1.983  0.1713 -0.0980 -0.5844
  585MOL0     C77092   9.816   8.866   1.909 -0.2823  0.3179 -0.3794
  585MOL0     C77093   9.828   8.827   1.777  0.2138 -0.0022  0.1706
  585MOL0     C77094   9.712   8.797   1.707  0.3803  0.1522  0.4840
  585MOL0     C77095   9.588   8.813   1.764 -0.0928  0.3142  0.4331
  585MOL0     O77096   9.462   8.791   1.706 -0.2052 -0.7377  0.5800
  585MOL0     C77097   9.464   8.727   1.577 -0.1426  0.1269 -0.7357
  585MOL0     C77098   9.321   8.670   1.542  0.8970 -0.3968 -0.5062
  585MOL0     C77099   9.216   8.773   1.522 -0.6571 -0.0411 -0.1672
  585MOL0     C77100   9.077   8.708   1.528 -0.2641 -0.1665 -1.0145
  585MOL0     C77101   8.972   8.815   1.487  0.0000  0.0043  0.7082
  585MOL0     C77102   8.835   8.777   1.548  0.6354  0.1570 -0.8039
  585MOL0     C77103   8.727   8.890   1.541 -0.1229 -0.6012  0.8078
  585MOL0     C77104   8.740   8.968   1.409  0.3714 -0.1461 -0.0452
  585MOL0     N77105   8.631   9.076   1.420  0.1699  0.2214  0.3730
  585MOL0     C77106   8.639   9.197   1.486 -0.5417  0.0894 -0.5136
  585MOL0     C77107   8.519   9.251   1.486  0.5449 -0.5858  1.3405
  585MOL0     C77108   8.480   9.374   1.556 -0.5873 -0.4560 -0.4174
  585MOL0     C77109   8.357   9.440   1.486  0.4808  0.1345  1.4160
  585MOL0     C77110   8.267   9.537   1.572  0.0996 -0.1885 -0.8576
  585MOL0     C77111   8.188   9.454   1.680  0.7900 -0.5567 -0.6700
  585MOL0     O77112   8.102   9.348   1.619  0.2849  0.3806 -1.0676
  585MOL0     C77113   7.977   9.381   1.594  0.8769  0.5306 -0.4079
  585MOL0     C77114   7.907   9.508   1.606 -0.4312 -0.2397  0.7343
  585MOL0     C77115   7.773   9.516   1.569 -1.0489  0.4812  0.0396
  585MOL0     C77116   7.698   9.406   1.532  0.1396  0.1690  0.5511
  585MOL0     C77117   7.544   9.416   1.527 -0.0993  0.1761  0.4924
  585MOL0     O77118   7.479   9.517   1.586 -0.3672  0.1022  0.1031
  585MOL0     C77119   7.345   9.494   1.594  0.6249  0.8294 -0.1502
  585MOL0     C77120   7.294   9.404   1.690  0.0656 -0.3828  0.0881
  585MOL0     C77121   7.154   9.398   1.702  0.4544  0.2672 -0.1652
  585MOL0     C77122   7.066   9.466   1.619 -0.0225 -0.5840 -0.3475
  585MOL0     O77123   6.937   9.446   1.641 -0.2537 -0.2590 -0.0656
  585MOL0     C77124   6.864   9.406   1.519  0.3176  0.2952  1.0749
  585MOL0     C77125   6.738   9.337   1.575  0.6353  0.0172  0.3739
  585MOL0     C77126   6.635   9.328   1.461 -0.7735  0.6037 -0.2848
  585MOL0     C77127   6.495   9.290   1.515 -0.9393 -1.7090 -0.3071
  585MOL0     C77128   6.398   9.280   1.402 -0.2975  0.1582 -0.5636
  585MOL0     C77129   6.258   9.251   1.460  0.1783  0.6485  0.0330
  585MOL0     C77130   6.163   9.213   1.339 -0.5301  0.7501 -0.1751
  585MOL0     C77131   6.027   9.187   1.405  0.2469  0.9500 -0.3590
  585MOL0    Cl77132   6.017   9.025   1.476  0.1634  0.1643 -0.5312
  585MOL0     C77133   7.120   9.554   1.527 -0.4176 -0.3283 -0.0560
  585MOL0     C77134   7.259   9.568   1.521 -0.1090  0.3344  0.1223
  585MOL0     O77135   7.495   9.338   1.446 -0.2067  0.1971  0.4327
  585MOL0     C77136   7.767   9.287   1.498 -0.4007  0.9466 -0.1546
  585MOL0     C77137   7.905   9.273   1.526 -0.7458 -0.2150  0.8403
  585MOL0     N77138   8.435   9.151   1.427  0.2614  0.1412  0.2989
  585MOL0     N77139   8.500   9.047   1.386  0.2883 -0.3674  0.1220
  585MOL0     C77140   9.584   8.853   1.890 -0.2140 -0.0330  1.0937
  585MOL0     C77141   9.689   8.880   1.963 -0.3010 -0.5652 -0.8135
  585MOL0     C77142  10.089   9.060   2.051  0.3367 -0.2310 -0.4740
  585MOL0     C77143  10.171   8.963   2.112 -0.1984  0.3531 -0.1589
  585MOL0     C77144  10.277   9.005   2.191 -0.1520 -0.0689  0.2970
  585MOL0     C77145  10.307   9.143   2.209  0.1792  1.1910  0.2253
  585MOL0     O77146  10.414   9.183   2.284 -0.5397  0.1285  0.1192
  585MOL0     C77147  10.490   9.303   2.247  0.1250 -0.5657 -0.5004
  585MOL0     C77148  10.621   9.329   2.321 -0.6389 -0.9566 -1.0902
  585MOL0     C77149  10.709   9.196   2.332  0.2285  0.2106 -0.2164
  585MOL0     C77150  10.786   9.161   2.201  0.0786  0.1575 -0.3842
  585MOL0     C77151  10.702   9.091   2.099 -0.2005 -0.3368 -0.3694
  585MOL0     C77152  10.632   9.029   2.025 -0.4742  0.0391  0.1374
  585MOL0     C77153  10.229   9.238   2.137  0.9593  0.8044  0.4766
  585MOL0     C77154  10.115   9.200   2.068  0.0560  0.2759 -0.8373
  585MOL0     H77155   9.930   8.827   1.738 -0.3058  0.4660 -1.2720
  585MOL0     H77156   9.714   8.762   1.604 -0.3328 -0.0118  0.5184
  585MOL0     H77157   9.526   8.639   1.592 -0.6423 -0.2008 -0.5605
  585MOL0     H77158   9.504   8.785   1.493  1.9350  4.6483  2.9224
  585MOL0     H77159   9.287   8.599   1.617 -3.2455  2.7783  1.0014
  585MOL0     H77160   9.329   8.615   1.448 -1.3431  1.4891 -1.9079
  585MOL0     H77161   9.224   8.814   1.420 -3.5303 -0.6687 -0.7208
  585MOL0     H77162   9.236   8.856   1.589 -0.1716  0.8703 -1.3981
  585MOL0     H77163   9.075   8.630   1.452 -0.1945  1.4033 -2.6927
  585MOL0     H77164   9.055   8.671   1.628  2.9480 -2.0828 -0.8842
  585MOL0     H77165   8.965   8.829   1.379 -2.0469 -6.5939 -0.4629
  585MOL0     H77166   9.007   8.908   1.532 -0.2741  0.4409  0.0333
  585MOL0     H77167   8.838   8.767   1.656 -0.6756  1.9932 -0.5540
  585MOL0     H77168   8.801   8.682   1.506  0.3694 -0.1658  0.1210
  585MOL0     H77169   8.628   8.843   1.549 -1.1547  0.4010 -3.4006
  585MOL0     H77170   8.749   8.969   1.613  2.5336 -0.0186 -0.5188
  585MOL0     H77171   8.714   8.894   1.333  0.4270 -0.9372  0.6879
  585MOL0     H77172   8.835   9.020   1.395 -0.0880  0.7891  0.2522
  585MOL0     H77173   8.731   9.224   1.537 -0.1422 -3.4427  0.8883
  585MOL0     H77174   8.561   9.447   1.566 -0.4688 -0.7135  0.6058
  585MOL0     H77175   8.447   9.359   1.660  0.3637  1.7406  0.2678
  585MOL0     H77176   8.296   9.359   1.445  1.0301  0.3921  0.0448
  585MOL0     H77177   8.392   9.486   1.393  2.3732 -3.6147  0.0715
  585MOL0     H77178   8.331   9.611   1.621 -0.0547 -0.9793  0.6012
  585MOL0     H77179   8.189   9.579   1.508 -2.5963 -2.2694  0.8273
  585MOL0     H77180   8.145   9.534   1.740  0.9452 -1.7913  1.1542
  585MOL0     H77181   8.252   9.405   1.754 -0.5474  2.5314  2.8385
  585MOL0     H77182   7.963   9.600   1.622  0.8152 -0.7938 -0.2354
  585MOL0     H77183   7.731   9.615   1.574  2.6812  2.2614  0.0304
  585MOL0     H77184   7.355   9.339   1.752  1.0301 -0.0711 -0.5208
  585MOL0     H77185   7.106   9.328   1.770 -1.3796  1.3196 -0.3080
  585MOL0     H77186   6.923   9.339   1.456  0.5974 -0.0017  1.6538
  585MOL0     H77187   6.840   9.493   1.457  1.4526 -2.8966 -4.6378
  585MOL0     H77188   6.686   9.401   1.647 -0.9521 -4.5794  3.8278
  585MOL0     H77189   6.752   9.241   1.626 -1.8416 -0.5173  0.1590
  585MOL0     H77190   6.675   9.261   1.385  1.7112  2.2892 -0.5824
  585MOL0     H77191   6.627   9.431   1.424  1.6205  0.0660 -2.6220
  585MOL0     H77192   6.508   9.199   1.575  2.1184  0.5042  2.7439
  585MOL0     H77193   6.462   9.371   1.581  1.2552 -0.8174 -0.1997
  585MOL0     H77194   6.434   9.201   1.336  1.6283 -0.7565  1.4456
  585MOL0     H77195   6.386   9.375   1.350 -1.1496  1.0372  1.1485
  585MOL0     H77196   6.222   9.346   1.500  1.4497  1.4631 -0.6693
  585MOL0     H77197   6.273   9.172   1.534  2.7647  2.1841  1.2920
  585MOL0     H77198   6.159   9.296   1.268 -2.2589 -0.9446 -2.2390
  585MOL0     H77199   6.204   9.124   1.291  2.4333  1.1242  1.4649
  585MOL0     H77200   5.948   9.191   1.329  1.7949  1.3071 -2.0278
  585MOL0     H77201   5.998   9.267   1.474 -1.5809  1.9371 -2.1367
  585MOL0     H77202   7.055   9.620   1.471 -0.1843  1.2649  1.4637
  585MOL0     H77203   7.307   9.643   1.459  0.3588  2.0448  2.4327
  585MOL0     H77204   7.710   9.206   1.453  2.0969 -1.2936  0.4967
  585MOL0     H77205   7.963   9.185   1.499  3.4860  2.4186  0.5216
  585MOL0     H77206   9.485   8.875   1.927 -0.7333  0.7726 -0.6451
  585MOL0     H77207   9.685   8.908   2.068  2.4468 -0.4515 -0.6539
  585MOL0     H77208  10.160   8.857   2.098  5.0947 -0.3847 -0.9030
  585MOL0     H77209  10.347   8.933   2.231  1.2060  0.8506 -0.2936
  585MOL0     H77210  10.424   9.386   2.271 -1.1291 -1.5416 -0.4639
  585MOL0     H77211  10.517   9.297   2.141  0.4040 -2.4061 -0.3577
  585MOL0     H77212  10.683   9.410   2.280 -3.3036  3.5248  2.7677
  585MOL0     H77213  10.589   9.356   2.422  1.0422 -4.1794  0.4436
  585MOL0     H77214  10.644   9.114   2.363 -1.5425  1.3289 -0.8020
  585MOL0     H77215  10.784   9.223   2.408 -0.3392  0.5749  0.2194
  585MOL0     H77216  10.820   9.255   2.158 -1.4259  0.9377  0.0832
  585MOL0     H77217  10.868   9.099   2.240  0.1106  0.7324  0.4925
  585MOL0     H77218  10.565   8.966   1.969  1.1911 -3.2142  1.5803
  585MOL0     H77219  10.245   9.344   2.154 -2.8016  1.6162 -0.2831
  585MOL0     H77220  10.046   9.271   2.023  0.1144  0.7750 -0.1632
  586MOL0     O77221   0.184  10.926   7.201  0.4226  0.4944 -0.0717
  586MOL0     C77222   0.198  10.818   7.256  0.5253  0.4938 -0.3060
  586MOL0     O77223   0.098  10.733   7.312 -0.2491  0.2802 -0.5164
  586MOL0     C77224  -0.030  10.767   7.306  0.5113 -0.0773 -0.3101
  586MOL0     C77225  -0.095  10.815   7.186 -0.6025 -0.1176 -0.7780
  586MOL0     C77226  -0.232  10.835   7.171  0.6819 -0.0435  0.2628
  586MOL0     C77227  -0.320  10.799   7.279  0.0681  0.3345 -0.0767
  586MOL0     O77228  -0.455  10.840   7.280 -0.3642 -0.2781 -0.4993
  586MOL0     C77229  -0.519  10.806   7.162  0.2414 -0.4119 -0.6158
  586MOL0     C77230  -0.545  10.659   7.153 -0.2164  0.8926 -0.1862
  586MOL0     C77231  -0.685  10.629   7.089 -0.7345 -1.0987 -0.5664
  586MOL0     C77232  -0.686  10.675   6.937 -0.1274 -0.3153  0.8084
  586MOL0     C77233  -0.821  10.628   6.866  0.3128 -0.5287 -0.8047
  586MOL0     C77234  -0.837  10.480   6.852  0.7138 -0.6034 -0.0200
  586MOL0     C77235  -0.735  10.419   6.752  0.1186 -0.8413 -0.7192
  586MOL0     C77236  -0.734  10.490   6.620  0.0295 -0.9425  0.4471
  586MOL0     N77237  -0.673  10.415   6.512 -0.0503  0.1721  0.2397
  586MOL0     C77238  -0.714  10.433   6.379  0.2284  0.0132  0.2340
  586MOL0     C77239  -0.620  10.359   6.307  0.2441 -0.5235  0.4547
  586MOL0     C77240  -0.610  10.357   6.154  0.2217 -0.6493 -0.2154
  586MOL0     C77241  -0.733  10.311   6.069  0.1233  0.5246 -0.8203
  586MOL0     C77242  -0.783  10.169   6.110 -0.0730 -0.6321 -0.1169
  586MOL0     C77243  -0.931  10.165   6.091  0.1952 -1.9203 -0.2033
  586MOL0     O77244  -0.981  10.227   6.211 -0.8338 -0.2560  0.7659
  586MOL0     C77245  -1.106  10.267   6.204  0.1673 -0.0117  0.2085
  586MOL0     C77246  -1.132  10.387   6.265 -0.2782 -0.8519 -0.0036
  586MOL0     C77247  -1.264  10.440   6.275  0.1972  0.0716 -0.0684
  586MOL0     C77248  -1.375  10.370   6.227 -1.1313  0.7787 -0.3902
  586MOL0     C77249  -1.518  10.405   6.240  0.2369 -1.6507 -0.5586
  586MOL0     O77250  -1.618  10.310   6.219  0.3167 -0.1727 -0.0322
  586MOL0     C77251  -1.744  10.319   6.273  0.4147  0.4550  0.3746
  586MOL0     C77252  -1.788  10.408   6.368  1.4358  0.0427 -0.6265
  586MOL0     C77253  -1.922  10.403   6.418 -0.3718 -0.7167  0.1225
  586MOL0     C77254  -2.004  10.300   6.383 -0.7748 -0.5266  0.4546
  586MOL0     O77255  -2.131  10.281   6.417 -0.5102  0.5357  0.1267
  586MOL0     C77256  -2.200  10.369   6.510 -0.3837 -0.1380  1.0058
  586MOL0     C77257  -2.345  10.338   6.514 -0.8641 -1.1961  0.2929
  586MOL0     C77258  -2.427  10.429   6.599  0.7420  0.6444 -0.5120
  586MOL0     C77259  -2.583  10.396   6.599  0.2803 -0.8163 -0.3097
  586MOL0     C77260  -2.637  10.388   6.742  0.3309 -0.1427 -0.4469
  586MOL0     C77261  -2.788  10.367   6.751  0.7979 -0.7844  0.4197
  586MOL0     C77262  -2.831  10.350   6.899 -0.9992 -0.7059 -0.2162
  586MOL0     C77263  -2.974  10.307   6.932  0.0012  0.3829  0.0624
  586MOL0    Cl77264  -3.097  10.425   6.894  0.2524  0.0497 -0.5842
  586MOL0     C77265  -1.958  10.204   6.294  0.2817  0.3005  0.1556
  586MOL0     C77266  -1.831  10.216   6.238  0.1192  0.0386  0.8631
  586MOL0     O77267  -1.533  10.522   6.285 -0.4943  0.2360  0.5198
  586MOL0     C77268  -1.351  10.246   6.162  0.2528  0.1980 -0.3003
  586MOL0     C77269  -1.218  10.193   6.161 -0.3031 -0.2928 -0.7118
  586MOL0     N77270  -0.526  10.296   6.389  0.7763 -0.4810  0.3872
  586MOL0     N77271  -0.552  10.336   6.514  0.6153 -0.0991 -0.2880
  586MOL0     C77272  -0.262  10.746   7.386  0.2787  0.6082 -0.2448
  586MOL0     C77273  -0.126  10.728   7.403 -0.3018  0.1974 -0.6558
  586MOL0     C77274   0.337  10.775   7.295 -0.6380 -0.1223  0.0783
  586MOL0     C77275   0.361  10.668   7.378 -0.6994 -0.3214  0.2951
  586MOL0     C77276   0.491  10.633   7.399 -0.9619  0.5139 -0.4246
  586MOL0     C77277   0.601  10.696   7.345  0.7307  0.8314 -0.5668
  586MOL0     O77278   0.721  10.639   7.366 -0.3980 -0.2099 -0.2903
  586MOL0     C77279   0.847  10.705   7.329  0.4984 -1.2242 -0.0630
  586MOL0     C77280   0.874  10.717   7.187  0.8124 -0.0568  1.1175
  586MOL0     C77281   1.030  10.747   7.183  0.2102 -0.7262 -0.4811
  586MOL0     C77282   1.086  10.729   7.041 -0.6533  0.2861 -0.2085
  586MOL0     C77283   1.229  10.770   7.027  0.3762  0.3771 -0.2612
  586MOL0     C77284   1.337  10.827   7.001  0.2137 -0.3699 -0.4506
  586MOL0     C77285   0.577  10.814   7.267  1.1970  0.7306 -0.9528
  586MOL0     C77286   0.446  10.841   7.233  0.9506  0.0998 -0.6257
  586MOL0     H77287  -0.027  10.838   7.104  1.1012  0.9828  0.8443
  586MOL0     H77288  -0.255  10.887   7.079  0.4302  0.9131  0.8430
  586MOL0     H77289  -0.472  10.839   7.069 -2.3511  1.3605 -1.4256
  586MOL0     H77290  -0.610  10.867   7.157  1.7326  2.0746  0.5074
  586MOL0     H77291  -0.543  10.616   7.253 -0.4463  1.2317 -0.0380
  586MOL0     H77292  -0.478  10.597   7.091  0.4867 -1.3291  2.6143
  586MOL0     H77293  -0.765  10.682   7.142  0.6334  0.9588 -0.4415
  586MOL0     H77294  -0.699  10.522   7.107  1.1275 -1.0688  1.6066
  586MOL0     H77295  -0.682  10.784   6.945 -0.5754 -0.0912 -1.3011
  586MOL0     H77296  -0.604  10.638   6.875  1.3998  0.5927  2.2344
  586MOL0     H77297  -0.838  10.674   6.769 -2.1021 -0.7694 -0.5431
  586MOL0     H77298  -0.904  10.652   6.933  1.8204 -2.2913  1.9415
  586MOL0     H77299  -0.933  10.468   6.801  1.7295 -0.3641 -2.1154
  586MOL0     H77300  -0.840  10.424   6.945  1.4634  1.3520  1.2481
  586MOL0     H77301  -0.634  10.425   6.795 -0.4060  0.3287  0.4401
  586MOL0     H77302  -0.765  10.314   6.744 -2.0012 -0.3603  0.2058
  586MOL0     H77303  -0.695  10.592   6.632 -2.5213  0.1289  0.1279
  586MOL0     H77304  -0.838  10.507   6.591 -0.2562  0.6153  2.1944
  586MOL0     H77305  -0.800  10.485   6.339 -0.5130 -2.0998 -1.1325
  586MOL0     H77306  -0.534  10.283   6.129  1.1215  0.5032 -0.9845
  586MOL0     H77307  -0.574  10.457   6.129  0.3996 -0.6171  0.1608
  586MOL0     H77308  -0.719  10.304   5.961  1.2862  2.0139 -0.7997
  586MOL0     H77309  -0.811  10.385   6.089  0.9114  2.0139 -2.9129
  586MOL0     H77310  -0.734  10.105   6.036 -0.8003 -2.1133  0.6406
  586MOL0     H77311  -0.757  10.134   6.210 -0.6418 -1.3360 -0.2048
  586MOL0     H77312  -0.980  10.068   6.077 -1.2917 -1.6995  2.5528
  586MOL0     H77313  -0.953  10.232   6.007 -1.1682 -1.4039  0.5324
  586MOL0     H77314  -1.046  10.432   6.313 -0.3329  0.3478 -1.0027
  586MOL0     H77315  -1.273  10.535   6.326  0.6818 -0.1202  0.3797
  586MOL0     H77316  -1.731  10.495   6.398 -0.9459  1.0031  1.4513
  586MOL0     H77317  -1.944  10.487   6.482  0.5264  0.7208 -1.3429
  586MOL0     H77318  -2.178  10.474   6.489  2.4380 -1.1482 -1.7786
  586MOL0     H77319  -2.156  10.359   6.610  0.2393 -3.1320  0.5333
  586MOL0     H77320  -2.353  10.236   6.553  0.6458 -0.5328  2.5025
  586MOL0     H77321  -2.389  10.348   6.414 -0.0771  1.2366  0.1393
  586MOL0     H77322  -2.422  10.532   6.562 -4.9013  1.8332  1.1274
  586MOL0     H77323  -2.385  10.427   6.700  3.1111 -3.4608 -1.3495
  586MOL0     H77324  -2.626  10.486   6.552  1.4504 -0.0073  0.1345
  586MOL0     H77325  -2.604  10.309   6.537  1.8822 -0.9646 -0.6919
  586MOL0     H77326  -2.606  10.475   6.802  1.6172 -0.6939 -0.2811
  586MOL0     H77327  -2.591  10.305   6.795 -1.0779 -1.0736 -0.6413
  586MOL0     H77328  -2.808  10.273   6.699 -5.2057 -0.9117  2.2557
  586MOL0     H77329  -2.844  10.444   6.698 -2.8424 -3.1128  0.5522
  586MOL0     H77330  -2.760  10.273   6.929 -1.1066 -1.3761 -1.6201
  586MOL0     H77331  -2.807  10.444   6.949 -2.7571 -1.3957  2.0922
  586MOL0     H77332  -2.979  10.278   7.038  1.3035 -0.3256 -0.0423
  586MOL0     H77333  -2.996  10.221   6.868  1.6182 -0.7029  0.8705
  586MOL0     H77334  -2.024  10.124   6.261  0.3607  0.3244 -0.0609
  586MOL0     H77335  -1.808  10.130   6.176  0.1385  0.6959 -0.0644
  586MOL0     H77336  -1.431  10.179   6.133  0.4873 -2.0752  3.5976
  586MOL0     H77337  -1.213  10.090   6.125  0.6508 -1.1775  1.7110
  586MOL0     H77338  -0.337  10.713   7.457  1.7868 -0.6010  0.8259
  586MOL0     H77339  -0.091  10.697   7.501 -0.8984  1.3604 -0.0608
  586MOL0     H77340   0.279  10.629   7.437 -1.3322 -1.9421 -1.5521
  586MOL0     H77341   0.509  10.545   7.459 -0.8873 -0.8645 -2.3633
  586MOL0     H77342   0.932  10.646   7.365  2.7628  1.8601  0.1397
  586MOL0     H77343   0.867  10.809   7.358  1.5761 -0.8975 -1.7929
  586MOL0     H77344   0.846  10.628   7.131 -0.4579  1.3208 -0.5738
  586MOL0     H77345   0.830  10.801   7.132 -3.0289 -1.3798  1.9078
  586MOL0     H77346   1.091  10.688   7.253 -0.5635 -0.7470  0.1904
  586MOL0     H77347   1.039  10.851   7.218  0.0743 -0.5972 -0.8280
  586MOL0     H77348   1.069  10.624   7.017 -0.9227  0.5175 -1.0445
  586MOL0     H77349   1.024  10.788   6.973 -0.8182  2.0910  1.3917
  586MOL0     H77350   1.431  10.878   6.987  1.6134 -2.0286  2.0689
  586MOL0     H77351   0.658  10.871   7.222  2.7753 -0.0384  0.7458
  586MOL0     H77352   0.417  10.935   7.188 -0.3169  2.0036  3.6424
  587MOL0     O77353   8.452   2.732   0.451  0.0909  0.6265  0.7861
  587MOL0     C77354   8.421   2.852   0.447 -0.3658 -0.3769 -1.0891
  587MOL0     O77355   8.508   2.955   0.439 -0.5909 -0.5112 -0.2761
  587MOL0     C77356   8.638   2.924   0.415 -0.8310  0.1557  0.3352
  587MOL0     C77357   8.691   2.816   0.339  0.6149 -0.5797 -0.3538
  587MOL0     C77358   8.833   2.801   0.325  0.0181  0.3621  0.0877
  587MOL0     C77359   8.918   2.884   0.395 -0.8595  0.5515  0.6413
  587MOL0     O77360   9.050   2.872   0.360 -0.0827  0.2523  0.1079
  587MOL0     C77361   9.147   2.928   0.445 -0.5669 -0.4423 -0.8511
  587MOL0     C77362   9.288   2.891   0.410  0.0293  0.1834  0.5675
  587MOL0     C77363   9.381   2.971   0.492 -0.4084 -0.0269 -0.0914
  587MOL0     C77364   9.531   2.965   0.433  0.6446 -0.0483  0.1642
  587MOL0     C77365   9.641   2.985   0.545  0.6285  0.0603  0.4450
  587MOL0     C77366   9.774   2.967   0.475  0.7998  0.3871  0.3168
  587MOL0     C77367   9.887   3.045   0.531 -1.1369  0.2210  0.0368
  587MOL0     C77368   9.955   2.974   0.651  0.2526 -0.5889  0.0010
  587MOL0     N77369  10.086   3.027   0.689 -0.4051 -0.3328 -0.3883
  587MOL0     C77370  10.197   2.950   0.705 -0.6650  0.0894  0.2763
  587MOL0     C77371  10.297   3.035   0.733 -0.1971 -0.2784 -0.6414
  587MOL0     C77372  10.437   3.005   0.791 -0.2137  0.2364 -0.0218
  587MOL0     C77373  10.458   2.889   0.889  0.2433  0.1457  0.2399
  587MOL0     C77374  10.427   2.925   1.032 -0.6605 -0.6786 -1.1615
  587MOL0     C77375  10.280   2.965   1.054 -0.0379 -0.1948  0.5237
  587MOL0     O77376  10.201   2.850   1.040 -0.0264  0.2571  0.0248
  587MOL0     C77377  10.066   2.871   1.019 -0.7442  0.0877  0.5647
  587MOL0     C77378   9.998   2.758   0.993  0.3040  0.1058  0.6531
  587MOL0     C77379   9.865   2.763   0.965 -0.1054 -0.1772  0.4972
  587MOL0     C77380   9.786   2.883   0.964 -0.1771 -0.5233 -0.1827
  587MOL0     C77381   9.640   2.881   0.926  0.2202 -0.1489 -0.2664
  587MOL0     O77382   9.584   2.760   0.919  0.3897  0.3404  0.0027
  587MOL0     C77383   9.455   2.722   0.896  0.0105 -0.4589 -0.0737
  587MOL0     C77384   9.426   2.587   0.921 -0.0045  0.0313 -0.8377
  587MOL0     C77385   9.294   2.540   0.899 -0.0669  0.6923 -1.0157
  587MOL0     C77386   9.196   2.624   0.845  0.8730 -0.5508  0.5204
  587MOL0     O77387   9.070   2.568   0.825 -0.7256  0.2331 -0.8794
  587MOL0     C77388   8.973   2.623   0.743 -0.3908 -0.9657 -0.0225
  587MOL0     C77389   8.843   2.547   0.732  0.2558 -0.0273  0.6685
  587MOL0     C77390   8.798   2.541   0.589  0.5145 -0.3588 -0.0947
  587MOL0     C77391   8.655   2.483   0.561 -0.3710  0.9162  0.3574
  587MOL0     C77392   8.643   2.337   0.596  0.9470  0.3026 -0.6972
  587MOL0     C77393   8.496   2.273   0.582  0.0704 -0.3615 -0.1065
  587MOL0     C77394   8.442   2.269   0.437 -0.6965 -0.1809 -0.5111
  587MOL0     C77395   8.305   2.211   0.424  0.4649 -0.5138  0.7057
  587MOL0    Cl77396   8.172   2.320   0.476 -0.1242 -0.1136 -0.0734
  587MOL0     C77397   9.223   2.767   0.825 -0.0519  0.5207 -0.2238
  587MOL0     C77398   9.356   2.808   0.848  0.1971 -0.5421  0.4188
  587MOL0     O77399   9.582   2.987   0.910 -0.8215 -0.1609 -0.1780
  587MOL0     C77400   9.859   3.002   0.989 -0.6880  0.2383  0.1407
  587MOL0     C77401   9.996   2.998   1.010 -1.3460  0.4424  0.1549
  587MOL0     N77402  10.242   3.160   0.721 -0.4055 -0.5734  0.4195
  587MOL0     N77403  10.115   3.161   0.706 -0.6816 -0.4289  0.2417
  587MOL0     C77404   8.862   2.975   0.482  0.8426 -0.5743 -0.1699
  587MOL0     C77405   8.725   2.991   0.495 -0.0387  0.4883  0.2002
  587MOL0     C77406   8.278   2.892   0.450  0.6201 -0.0719  0.0161
  587MOL0     C77407   8.175   2.795   0.489 -0.5449 -0.6078  0.3672
  587MOL0     C77408   8.044   2.828   0.482 -0.1619  0.3754  0.2683
  587MOL0     C77409   8.005   2.961   0.457 -0.8645  0.8824  0.1745
  587MOL0     O77410   7.876   2.998   0.436  0.7431  0.6449  0.8202
  587MOL0     C77411   7.808   3.015   0.559  0.4148  0.3392  0.0111
  587MOL0     C77412   7.668   3.047   0.500  0.3713 -0.4730  0.0393
  587MOL0     C77413   7.569   3.036   0.618 -0.2926  0.2839  0.1595
  587MOL0     C77414   7.537   2.885   0.650  0.5298  0.8022  0.0840
  587MOL0     C77415   7.446   2.885   0.763 -0.4279  0.7697 -1.0016
  587MOL0     C77416   7.355   2.889   0.843  0.0553  0.2520  0.3308
  587MOL0     C77417   8.109   3.058   0.427 -0.1187  0.4674  0.1663
  587MOL0     C77418   8.244   3.028   0.437  0.6100  0.0878  0.0155
  587MOL0     H77419   8.633   2.741   0.286 -1.4731 -1.9258  3.4730
  587MOL0     H77420   8.867   2.722   0.260 -0.6098  0.6320 -0.5862
  587MOL0     H77421   9.122   2.891   0.545 -1.4820 -0.8265 -1.2135
  587MOL0     H77422   9.129   3.035   0.440 -3.0732 -0.7536  0.3665
  587MOL0     H77423   9.306   2.917   0.305  1.1175  0.5098  0.8224
  587MOL0     H77424   9.302   2.783   0.420 -2.0719 -0.0674  1.2569
  587MOL0     H77425   9.387   2.932   0.594 -2.4928 -1.1833 -0.3383
  587MOL0     H77426   9.341   3.073   0.503 -0.4556 -0.0546 -0.0021
  587MOL0     H77427   9.555   2.864   0.399  2.4349 -0.1484  1.6024
  587MOL0     H77428   9.539   3.031   0.346 -2.1845  1.2536  0.7785
  587MOL0     H77429   9.618   2.911   0.622  0.5007 -1.8025 -1.2811
  587MOL0     H77430   9.624   3.086   0.582  1.7578  0.7096 -0.7038
  587MOL0     H77431   9.764   2.990   0.369  1.9983 -2.9077 -0.6243
  587MOL0     H77432   9.801   2.861   0.467  2.7942  0.9750 -1.8504
  587MOL0     H77433   9.968   3.062   0.460 -2.7514 -1.7982 -2.4301
  587MOL0     H77434   9.852   3.141   0.571  0.5623 -0.2371  2.9637
  587MOL0     H77435   9.960   2.872   0.613 -2.9526  0.7500 -5.0741
  587MOL0     H77436   9.892   2.964   0.740 -0.4030 -0.1641 -0.4089
  587MOL0     H77437  10.205   2.844   0.686 -3.4932 -0.0564 -0.6066
  587MOL0     H77438  10.486   3.100   0.817  1.6239  0.7564 -4.5496
  587MOL0     H77439  10.504   2.965   0.715 -0.1635 -0.0751  0.1838
  587MOL0     H77440  10.561   2.857   0.871  0.0187  0.0564 -0.9913
  587MOL0     H77441  10.400   2.799   0.866  5.1207 -2.8817 -1.7901
  587MOL0     H77442  10.431   2.849   1.110 -3.3334  0.4255  0.1760
  587MOL0     H77443  10.484   3.015   1.056 -3.0191  0.4241  0.8005
  587MOL0     H77444  10.260   3.057   0.997  1.5041  0.7672  1.4492
  587MOL0     H77445  10.265   3.008   1.153  1.6867 -0.1138  0.7792
  587MOL0     H77446  10.047   2.662   1.003  2.3350  1.1614  1.4307
  587MOL0     H77447   9.815   2.673   0.929  0.4444  0.4543 -2.0391
  587MOL0     H77448   9.515   2.530   0.941  0.4248 -0.5246 -3.8074
  587MOL0     H77449   9.284   2.432   0.897  0.7817  0.5482  0.4142
  587MOL0     H77450   9.019   2.655   0.649  1.8085  0.1426  1.3405
  587MOL0     H77451   8.945   2.716   0.792 -0.6639  0.6047 -2.9504
  587MOL0     H77452   8.764   2.594   0.793 -1.1160 -0.1123 -0.9548
  587MOL0     H77453   8.851   2.449   0.780  1.2613 -0.7124 -0.8257
  587MOL0     H77454   8.865   2.475   0.534  0.8433  0.0704 -0.2111
  587MOL0     H77455   8.810   2.644   0.553 -1.2626  0.6098  1.8465
  587MOL0     H77456   8.576   2.536   0.617  0.3464 -0.9911  3.3631
  587MOL0     H77457   8.634   2.489   0.454 -1.7286 -1.8389  0.3725
  587MOL0     H77458   8.661   2.326   0.703 -2.2148  2.8977  0.2630
  587MOL0     H77459   8.711   2.285   0.528 -0.4758 -0.6299 -1.4652
  587MOL0     H77460   8.421   2.328   0.641 -1.3735 -0.8119 -1.4658
  587MOL0     H77461   8.517   2.173   0.620  1.7866  0.1723  0.4534
  587MOL0     H77462   8.433   2.371   0.398  1.8546  0.0014 -0.8129
  587MOL0     H77463   8.504   2.211   0.368  5.1316  3.4131  0.9945
  587MOL0     H77464   8.311   2.123   0.488  0.3603 -1.9580 -1.2107
  587MOL0     H77465   8.283   2.183   0.321  0.9348  0.6959  0.2493
  587MOL0     H77466   9.153   2.837   0.783 -0.3293 -0.6156 -1.7245
  587MOL0     H77467   9.386   2.908   0.817 -0.3299 -1.0688 -2.0113
  587MOL0     H77468   9.804   3.096   0.992 -0.1626  0.5271  1.2725
  587MOL0     H77469  10.043   3.095   1.021  0.7809 -0.4679 -0.3663
  587MOL0     H77470   8.925   3.038   0.545  0.3760 -0.1130 -0.1560
  587MOL0     H77471   8.702   3.071   0.564 -0.0762  1.9198 -1.4135
  587MOL0     H77472   8.194   2.689   0.506  0.9265 -0.1416  1.8832
  587MOL0     H77473   7.963   2.758   0.498  0.9383 -1.0916 -0.3556
  587MOL0     H77474   7.847   3.101   0.614 -0.5852  0.3298  0.7647
  587MOL0     H77475   7.804   2.931   0.629 -1.2454 -0.8058 -1.3702
  587MOL0     H77476   7.662   3.148   0.460  0.7875 -0.4005  0.1531
  587MOL0     H77477   7.640   2.975   0.423 -1.0333 -1.5625  1.4902
  587MOL0     H77478   7.474   3.084   0.593 -1.7125 -1.6808  1.4887
  587MOL0     H77479   7.609   3.082   0.709 -1.4879 -2.2467  2.0948
  587MOL0     H77480   7.502   2.835   0.559  2.2002  0.4033 -0.3799
  587MOL0     H77481   7.622   2.829   0.688 -0.3220  0.9169  2.3247
  587MOL0     H77482   7.272   2.903   0.909  1.1125 -1.0822  2.0348
  587MOL0     H77483   8.081   3.157   0.392  0.9980  0.1475 -1.7277
  587MOL0     H77484   8.315   3.107   0.417  0.3504  0.8821  1.9407
  588MOL0     O77485   7.315   4.498   5.079  1.0024 -0.2059  0.0922
  588MOL0     C77486   7.300   4.615   5.079 -0.0296 -0.2499  0.4455
  588MOL0     O77487   7.181   4.682   5.039  0.1727  0.1320 -0.0120
  588MOL0     C77488   7.076   4.612   4.992 -0.5204 -0.4088  0.7239
  588MOL0     C77489   7.088   4.498   4.914  0.4053 -0.5208  0.9059
  588MOL0     C77490   6.966   4.440   4.859  0.3302 -0.4559  0.1955
  588MOL0     C77491   6.837   4.492   4.886 -0.0483 -0.0499 -0.3531
  588MOL0     O77492   6.720   4.433   4.847 -0.5688 -0.1248 -0.6917
  588MOL0     C77493   6.704   4.466   4.711  0.3388 -0.2217 -0.4239
  588MOL0     C77494   6.727   4.354   4.612  0.0912  0.1580  0.8670
  588MOL0     C77495   6.613   4.247   4.613  0.2477  0.4192 -0.5739
  588MOL0     C77496   6.531   4.212   4.742  0.4497 -0.4436  0.6847
  588MOL0     C77497   6.416   4.121   4.713 -0.0630  0.2313  0.4449
  588MOL0     C77498   6.334   4.054   4.829  0.3300 -0.2240  0.3983
  588MOL0     C77499   6.411   3.947   4.908  0.3419  0.3965  0.4652
  588MOL0     C77500   6.311   3.869   4.992  0.8509  0.4718  0.2999
  588MOL0     N77501   6.360   3.732   5.019 -0.0471 -0.9365 -0.1809
  588MOL0     C77502   6.331   3.624   4.949  0.2786  0.0711 -0.3345
  588MOL0     C77503   6.424   3.532   4.984 -0.2351  0.9817  0.5061
  588MOL0     C77504   6.445   3.391   4.928  0.5247 -0.1153  0.3699
  588MOL0     C77505   6.581   3.380   4.853  0.3881  0.4468  0.9564
  588MOL0     C77506   6.603   3.241   4.776 -0.5498 -0.2023  0.1466
  588MOL0     C77507   6.630   3.119   4.861  0.5925  0.5211 -0.1348
  588MOL0     O77508   6.762   3.127   4.916 -0.1633  0.1617  0.7437
  588MOL0     C77509   6.858   3.048   4.861 -0.1691  0.0770 -0.7542
  588MOL0     C77510   6.969   3.036   4.937 -0.7311 -0.1191  0.2719
  588MOL0     C77511   7.078   2.956   4.896 -0.3914 -0.1208  0.9002
  588MOL0     C77512   7.061   2.874   4.779 -0.6885 -0.3717 -0.2518
  588MOL0     C77513   7.162   2.781   4.751 -0.6740 -0.1283  0.4398
  588MOL0     O77514   7.128   2.681   4.668  0.8209  0.3054  0.2760
  588MOL0     C77515   7.190   2.567   4.667 -0.9192  0.1291 -0.2114
  588MOL0     C77516   7.214   2.491   4.783 -0.3502  0.1082  0.7105
  588MOL0     C77517   7.296   2.378   4.770  0.8848 -0.9438 -0.5174
  588MOL0     C77518   7.347   2.338   4.648  0.4460  0.2460  0.6430
  588MOL0     O77519   7.401   2.209   4.639  0.3896 -0.5917  0.3792
  588MOL0     C77520   7.441   2.159   4.511  0.3134 -0.2375  0.3750
  588MOL0     C77521   7.541   2.047   4.540  0.5091 -0.1584 -0.0156
  588MOL0     C77522   7.582   1.969   4.410 -0.6234  0.1513 -0.1489
  588MOL0     C77523   7.659   1.844   4.446  0.6811  0.0976 -1.3995
  588MOL0     C77524   7.712   1.770   4.330 -0.9743 -0.7171  0.8227
  588MOL0     C77525   7.793   1.656   4.380  0.3638 -0.0027 -0.3406
  588MOL0     C77526   7.885   1.601   4.275  0.1422 -0.5682 -0.3323
  588MOL0     C77527   7.962   1.493   4.336  0.7162  0.3307 -0.4216
  588MOL0    Cl77528   8.087   1.557   4.442 -0.2395 -0.2902 -0.7376
  588MOL0     C77529   7.327   2.425   4.533  1.2201 -0.6303 -0.0746
  588MOL0     C77530   7.237   2.533   4.543 -0.6687 -1.0435  0.3166
  588MOL0     O77531   7.256   2.774   4.826 -0.5765 -0.9588  0.9065
  588MOL0     C77532   6.941   2.885   4.704 -0.0806  0.6688 -0.0448
  588MOL0     C77533   6.847   2.975   4.742 -1.3595 -0.5691  0.5491
  588MOL0     N77534   6.503   3.589   5.079 -0.0622 -0.6083  0.9378
  588MOL0     N77535   6.465   3.708   5.092  0.6459 -0.4970 -0.2605
  588MOL0     C77536   6.835   4.601   4.967 -0.5518  0.2242 -0.5857
  588MOL0     C77537   6.951   4.660   5.020  0.0294  0.3369 -0.4965
  588MOL0     C77538   7.424   4.691   5.115 -1.3352 -0.6712  0.0293
  588MOL0     C77539   7.515   4.628   5.203 -0.1714  0.2032  0.5422
  588MOL0     C77540   7.623   4.699   5.247  1.1967 -0.5104 -0.9677
  588MOL0     C77541   7.635   4.836   5.216 -1.1448 -0.0339  0.3007
  588MOL0     O77542   7.732   4.914   5.275 -0.0837  0.2816 -0.2904
  588MOL0     C77543   7.831   4.960   5.181 -0.6322  0.0504 -0.2187
  588MOL0     C77544   7.970   4.892   5.199  0.8891 -0.2952 -0.1861
  588MOL0     C77545   8.071   4.937   5.090  0.1355 -0.4494 -0.4322
  588MOL0     C77546   8.174   4.835   5.058  1.2613 -0.3383 -0.1262
  588MOL0     C77547   8.252   4.833   5.175 -0.2862  0.1613  0.3780
  588MOL0     C77548   8.335   4.844   5.266 -0.0114  0.1917  0.0953
  588MOL0     C77549   7.538   4.900   5.149  0.0535  0.9845  0.7486
  588MOL0     C77550   7.437   4.831   5.090  0.3766  0.5461 -0.1321
  588MOL0     H77551   7.179   4.455   4.874 -0.5043 -1.2355 -0.5024
  588MOL0     H77552   6.973   4.351   4.798  0.4543  0.0845 -0.5941
  588MOL0     H77553   6.760   4.555   4.680  3.5784 -1.8261  0.3377
  588MOL0     H77554   6.598   4.491   4.705 -0.1946 -2.1258  0.2221
  588MOL0     H77555   6.821   4.300   4.623  0.0049 -0.0700  0.5050
  588MOL0     H77556   6.722   4.396   4.511 -1.5843 -1.6966  0.1075
  588MOL0     H77557   6.656   4.163   4.558  2.1117  0.7971  0.2191
  588MOL0     H77558   6.538   4.297   4.551 -0.7612  1.3658  1.3099
  588MOL0     H77559   6.593   4.158   4.814  0.5622  1.2400  1.9119
  588MOL0     H77560   6.495   4.298   4.799 -2.4635 -1.1498  0.0795
  588MOL0     H77561   6.454   4.043   4.647  0.7695 -2.9270  4.2951
  588MOL0     H77562   6.338   4.175   4.658  1.0839  2.3545  0.7685
  588MOL0     H77563   6.234   4.031   4.791 -0.5049  0.5444  2.0124
  588MOL0     H77564   6.309   4.134   4.900 -0.1932 -0.5783  0.6185
  588MOL0     H77565   6.460   3.887   4.831 -0.3325 -0.6204  0.8038
  588MOL0     H77566   6.485   3.999   4.968 -2.4205  2.2492  2.5229
  588MOL0     H77567   6.206   3.876   4.960  0.4242  1.3327  1.8156
  588MOL0     H77568   6.295   3.910   5.091  0.9927  1.3922 -0.0528
  588MOL0     H77569   6.256   3.602   4.874 -1.5599 -1.9788  1.9440
  588MOL0     H77570   6.364   3.360   4.861  2.2709 -4.4858 -0.0583
  588MOL0     H77571   6.439   3.322   5.013 -1.1096  1.9383  2.0522
  588MOL0     H77572   6.662   3.414   4.919  1.5170  1.4063 -0.8332
  588MOL0     H77573   6.565   3.458   4.777 -2.2466  1.6596  2.5982
  588MOL0     H77574   6.519   3.227   4.707  0.7383 -0.8984 -1.3356
  588MOL0     H77575   6.691   3.250   4.713 -0.0478  1.4402  1.0227
  588MOL0     H77576   6.612   3.025   4.808  0.4598  0.1890  0.4961
  588MOL0     H77577   6.568   3.125   4.951  2.8136  1.6341  1.4356
  588MOL0     H77578   6.973   3.090   5.030  1.4176 -0.6887  0.5713
  588MOL0     H77579   7.158   2.945   4.968 -0.6580  1.9806  1.5762
  588MOL0     H77580   7.173   2.533   4.874 -0.0327 -1.9641  1.8519
  588MOL0     H77581   7.305   2.318   4.860 -1.4870 -1.8603 -0.8100
  588MOL0     H77582   7.490   2.226   4.439  1.5110 -2.1157 -0.6773
  588MOL0     H77583   7.350   2.131   4.456  0.8487 -1.4565  0.0681
  588MOL0     H77584   7.491   1.970   4.600 -0.9614 -0.8899 -2.0766
  588MOL0     H77585   7.632   2.089   4.586  0.8333  0.3921 -1.1304
  588MOL0     H77586   7.643   2.034   4.348  0.1623 -0.1290  0.3055
  588MOL0     H77587   7.494   1.942   4.352  0.8279  0.1506 -2.4798
  588MOL0     H77588   7.730   1.885   4.518 -1.4378 -0.1068  0.9806
  588MOL0     H77589   7.596   1.778   4.507  0.7143  0.7353 -0.6656
  588MOL0     H77590   7.757   1.836   4.256 -1.3276 -0.2390  1.0281
  588MOL0     H77591   7.632   1.721   4.274  0.8048 -1.6077 -1.0729
  588MOL0     H77592   7.716   1.586   4.413 -0.8015  2.2164  2.0134
  588MOL0     H77593   7.839   1.684   4.475 -1.9548  1.7959  0.3470
  588MOL0     H77594   7.841   1.571   4.179 -0.5335 -0.7270  0.0124
  588MOL0     H77595   7.950   1.676   4.231 -0.5665 -1.8479 -3.8889
  588MOL0     H77596   8.008   1.432   4.258 -0.1256 -0.0250 -0.6494
  588MOL0     H77597   7.895   1.426   4.390  1.9918 -0.5966  0.0864
  588MOL0     H77598   7.370   2.406   4.436  1.1004  4.7618 -1.4923
  588MOL0     H77599   7.208   2.592   4.457 -0.2742 -0.9959  0.2144
  588MOL0     H77600   6.934   2.838   4.607 -1.6200  3.7722 -1.5727
  588MOL0     H77601   6.767   2.993   4.670 -0.2000 -1.4054 -1.0160
  588MOL0     H77602   6.736   4.643   4.982 -0.8016 -0.9274  1.4770
  588MOL0     H77603   6.943   4.741   5.091  1.6206 -0.6622  0.9088
  588MOL0     H77604   7.492   4.524   5.220  1.4927  0.1870  3.4766
  588MOL0     H77605   7.696   4.665   5.320  2.6558  1.1901 -1.5569
  588MOL0     H77606   7.843   5.068   5.180  1.2253 -0.1007  0.6153
  588MOL0     H77607   7.795   4.942   5.079 -2.1570  1.7210 -0.0115
  588MOL0     H77608   8.001   4.918   5.301  3.4695 -0.2157 -0.9314
  588MOL0     H77609   7.946   4.785   5.194  1.6562 -0.4854  0.1233
  588MOL0     H77610   8.119   5.033   5.111 -0.0434 -0.5859  0.6884
  588MOL0     H77611   8.020   4.945   4.993 -0.4805  1.7559  0.0128
  588MOL0     H77612   8.131   4.735   5.051  2.6001 -0.8198 -2.3788
  588MOL0     H77613   8.226   4.864   4.967 -2.5120  0.6381 -2.1979
  588MOL0     H77614   8.414   4.858   5.337  1.3793 -0.0682 -1.3159
  588MOL0     H77615   7.557   5.006   5.133 -0.2767  0.6711 -2.3867
  588MOL0     H77616   7.367   4.873   5.019  0.2215  0.2607 -0.1485
  589MOL0     O77617   5.704   7.085   3.433  0.7453 -0.5171  0.1296
  589MOL0     C77618   5.713   7.180   3.354 -0.8376 -0.2592 -0.5955
  589MOL0     O77619   5.614   7.240   3.280 -0.1031  0.8005 -0.6884
  589MOL0     C77620   5.491   7.182   3.294  0.3636  0.1726 -0.6763
  589MOL0     C77621   5.411   7.222   3.396 -0.1356 -0.1389  0.3503
  589MOL0     C77622   5.275   7.181   3.420 -0.4653 -0.4539  0.7057
  589MOL0     C77623   5.219   7.103   3.319  0.4577 -0.4373 -0.6262
  589MOL0     O77624   5.081   7.064   3.317 -0.3293 -0.0949 -0.7507
  589MOL0     C77625   4.990   7.120   3.414 -0.5942 -0.3836  0.2498
  589MOL0     C77626   4.952   7.266   3.380  0.3423  0.0419 -0.4582
  589MOL0     C77627   4.847   7.255   3.269  0.2518 -0.5659  0.3874
  589MOL0     C77628   4.782   7.389   3.219 -0.0196 -0.7562 -0.7921
  589MOL0     C77629   4.663   7.376   3.121 -1.3413 -0.0412 -0.1688
  589MOL0     C77630   4.609   7.523   3.089 -1.3204  1.8107  0.0920
  589MOL0     C77631   4.479   7.507   3.015  0.6125 -0.0935  0.4421
  589MOL0     C77632   4.434   7.652   2.963  0.6677 -0.1075 -0.9093
  589MOL0     N77633   4.303   7.656   2.898  0.4805  0.8002 -0.0940
  589MOL0     C77634   4.178   7.639   2.954 -0.4546 -0.1467 -0.9730
  589MOL0     C77635   4.089   7.626   2.855 -0.4606  0.1749  0.1705
  589MOL0     C77636   3.943   7.581   2.871  0.0237  0.9699 -1.1177
  589MOL0     C77637   3.935   7.442   2.944 -0.4362 -0.2200  0.0073
  589MOL0     C77638   4.033   7.335   2.891 -1.0648 -0.2603  0.1475
  589MOL0     C77639   3.990   7.190   2.937  0.2686  0.5598  0.6541
  589MOL0     O77640   3.869   7.156   2.851  0.1006 -0.0965  0.0122
  589MOL0     C77641   3.791   7.054   2.893  0.0009  0.4507  0.4755
  589MOL0     C77642   3.837   6.964   2.994 -0.2096 -1.1333 -0.2402
  589MOL0     C77643   3.744   6.870   3.044  0.0965 -0.0572  0.6509
  589MOL0     C77644   3.610   6.856   2.991 -0.3296 -0.5348 -0.0153
  589MOL0     C77645   3.516   6.762   3.042 -0.2502 -0.4200  0.2831
  589MOL0     O77646   3.408   6.735   2.966 -0.2712  0.6548  0.2339
  589MOL0     C77647   3.308   6.649   3.022 -0.0123  0.3942 -0.3818
  589MOL0     C77648   3.173   6.687   3.041  1.3274  0.7042 -0.0476
  589MOL0     C77649   3.076   6.601   3.094 -0.0326  0.9900  0.5954
  589MOL0     C77650   3.113   6.470   3.129  0.0324  0.0327  0.0135
  589MOL0     O77651   3.020   6.389   3.185  0.2736 -0.2911  0.4886
  589MOL0     C77652   3.015   6.252   3.148 -0.5136 -0.2764 -0.6231
  589MOL0     C77653   2.875   6.175   3.163 -0.5103 -0.7514  0.7283
  589MOL0     C77654   2.755   6.240   3.104  0.5214 -0.3431  0.4381
  589MOL0     C77655   2.628   6.158   3.122 -0.6517 -0.2606 -0.4975
  589MOL0     C77656   2.500   6.228   3.072 -0.4423  0.6764  0.7057
  589MOL0     C77657   2.388   6.128   3.069 -1.4716  0.2055 -0.4891
  589MOL0     C77658   2.256   6.181   3.023  0.0779  0.2815  0.6924
  589MOL0     C77659   2.217   6.312   3.083  0.7963 -0.0260 -1.1868
  589MOL0    Cl77660   2.038   6.328   3.035 -0.1751 -0.7801 -0.1068
  589MOL0     C77661   3.246   6.426   3.101  0.6540  0.2786 -0.3432
  589MOL0     C77662   3.340   6.515   3.048 -0.3649 -0.4534 -0.8030
  589MOL0     O77663   3.539   6.720   3.155  0.6233 -0.4086 -0.0093
  589MOL0     C77664   3.575   6.937   2.878 -0.0509 -0.0259  0.4321
  589MOL0     C77665   3.665   7.037   2.837  0.3491  0.4648 -0.0724
  589MOL0     N77666   4.160   7.633   2.741 -0.1302  0.7246  0.9392
  589MOL0     N77667   4.283   7.653   2.764  1.0869  0.3833 -0.1029
  589MOL0     C77668   5.296   7.072   3.208  0.5521  0.6368 -0.1797
  589MOL0     C77669   5.429   7.103   3.201 -0.4541 -0.6466  0.2299
  589MOL0     C77670   5.853   7.225   3.328 -0.5612  0.2615 -0.4307
  589MOL0     C77671   5.884   7.327   3.231  1.0444 -0.1111  0.1074
  589MOL0     C77672   6.015   7.374   3.204  0.6275 -0.2611 -0.5102
  589MOL0     C77673   6.118   7.310   3.259 -0.6429  0.6542  1.0600
  589MOL0     O77674   6.240   7.363   3.225 -0.0627  0.2176 -0.1548
  589MOL0     C77675   6.303   7.297   3.120 -0.5849 -0.3258 -0.4993
  589MOL0     C77676   6.418   7.389   3.078 -0.2463 -0.4587  0.3908
  589MOL0     C77677   6.529   7.399   3.195 -0.7746 -0.3123  0.8670
  589MOL0     C77678   6.619   7.276   3.187  0.5895  0.2445 -0.2614
  589MOL0     C77679   6.564   7.166   3.268 -0.0896 -0.8626  0.5658
  589MOL0     C77680   6.527   7.082   3.350 -0.3727 -0.2650  0.2773
  589MOL0     C77681   6.107   7.204   3.354  0.1113  0.4572 -0.3115
  589MOL0     C77682   5.970   7.171   3.392 -0.1409 -0.3861 -0.7392
  589MOL0     H77683   5.442   7.300   3.464  1.4674  0.7832 -1.3690
  589MOL0     H77684   5.239   7.204   3.520  0.3244 -0.2353  0.9494
  589MOL0     H77685   5.024   7.109   3.517 -1.7522 -1.1193  0.5745
  589MOL0     H77686   4.903   7.055   3.421 -0.6123 -0.7578 -2.4602
  589MOL0     H77687   5.032   7.334   3.352 -0.0719  1.6307  1.8990
  589MOL0     H77688   4.908   7.321   3.464  1.5595  0.2920  0.0471
  589MOL0     H77689   4.762   7.196   3.305  1.3153 -2.8413 -0.6214
  589MOL0     H77690   4.891   7.204   3.183 -0.8690 -1.2003  0.1730
  589MOL0     H77691   4.755   7.452   3.304  1.9753  1.1455 -1.4644
  589MOL0     H77692   4.856   7.452   3.169 -0.8694  1.6957  0.8345
  589MOL0     H77693   4.582   7.315   3.161 -0.9043 -0.8733 -0.5334
  589MOL0     H77694   4.703   7.334   3.028 -0.7296  1.6911 -0.7391
  589MOL0     H77695   4.691   7.577   3.042  0.1263 -0.8586 -0.6372
  589MOL0     H77696   4.600   7.571   3.187  3.2146  1.9912  0.6381
  589MOL0     H77697   4.498   7.444   2.927  2.2869 -1.2725  1.5709
  589MOL0     H77698   4.401   7.457   3.073  1.1671 -2.1962 -0.5065
  589MOL0     H77699   4.503   7.694   2.890  0.2529  1.9077 -0.1984
  589MOL0     H77700   4.421   7.723   3.045  3.8135 -1.8552  1.3385
  589MOL0     H77701   4.175   7.631   3.063  1.9202 -1.6295 -0.9481
  589MOL0     H77702   3.899   7.582   2.771 -1.1518  0.7604 -0.6110
  589MOL0     H77703   3.902   7.663   2.929  1.0172  0.0852  0.9357
  589MOL0     H77704   3.833   7.403   2.940  0.1091 -2.0967  2.0465
  589MOL0     H77705   3.958   7.453   3.051  0.8026  4.0875 -0.5343
  589MOL0     H77706   4.025   7.334   2.782 -1.3367 -1.1453  0.1653
  589MOL0     H77707   4.136   7.353   2.922  0.1875 -4.0147 -1.3294
  589MOL0     H77708   3.958   7.191   3.041  3.2435  1.0319  1.6542
  589MOL0     H77709   4.066   7.112   2.929 -2.1821 -2.0359  0.8433
  589MOL0     H77710   3.942   6.969   3.023 -0.4851  0.4541  0.5664
  589MOL0     H77711   3.779   6.806   3.124 -0.9809 -0.6976  0.6329
  589MOL0     H77712   3.151   6.792   3.024  0.0071  1.0719  3.1291
  589MOL0     H77713   2.972   6.627   3.113 -0.5905 -0.4202 -0.2695
  589MOL0     H77714   3.088   6.194   3.206 -0.1317  0.0309 -0.7893
  589MOL0     H77715   3.046   6.231   3.046 -0.4904  2.6620 -1.3041
  589MOL0     H77716   2.864   6.141   3.266  1.1356 -0.2283  1.1088
  589MOL0     H77717   2.888   6.080   3.111  0.8838  0.6596 -1.7137
  589MOL0     H77718   2.774   6.257   2.998 -3.6433 -2.0236 -0.7845
  589MOL0     H77719   2.741   6.337   3.151  3.7371  0.7780 -0.6446
  589MOL0     H77720   2.642   6.062   3.072  2.3105  0.5351 -1.3454
  589MOL0     H77721   2.619   6.141   3.230 -0.7820  1.6655 -0.1745
  589MOL0     H77722   2.519   6.261   2.969  0.5317 -3.1135 -0.5297
  589MOL0     H77723   2.470   6.316   3.129  2.2467  2.1870 -0.0166
  589MOL0     H77724   2.391   6.081   3.167  0.5686  2.4701  0.6198
  589MOL0     H77725   2.424   6.057   2.993  2.1615  1.7145 -0.3546
  589MOL0     H77726   2.269   6.194   2.915 -0.5591  2.6481  0.8543
  589MOL0     H77727   2.183   6.099   3.022  0.4658 -0.0920 -1.2842
  589MOL0     H77728   2.285   6.393   3.055 -0.4302  1.1952 -0.7196
  589MOL0     H77729   2.233   6.313   3.191 -1.0474  1.7817 -0.8692
  589MOL0     H77730   3.279   6.328   3.133  1.9108  0.5911 -0.6155
  589MOL0     H77731   3.443   6.484   3.031  0.5688  1.5305  0.7541
  589MOL0     H77732   3.477   6.918   2.835 -0.9502  0.9425  1.9587
  589MOL0     H77733   3.631   7.085   2.746 -0.0636  0.6811  0.1953
  589MOL0     H77734   5.253   6.999   3.140  2.9843 -1.2784  0.1697
  589MOL0     H77735   5.485   7.082   3.111 -2.1916  1.5465 -1.5053
  589MOL0     H77736   5.798   7.371   3.181  0.8167  1.7298  2.0089
  589MOL0     H77737   6.023   7.455   3.134  1.5000  1.4621  1.4642
  589MOL0     H77738   6.241   7.280   3.032 -1.0239  2.2776 -0.7760
  589MOL0     H77739   6.344   7.200   3.152 -1.3066 -0.5826 -0.3343
  589MOL0     H77740   6.466   7.356   2.985 -0.6348 -0.9796  0.3720
  589MOL0     H77741   6.374   7.485   3.050  0.0831 -1.1365 -2.9418
  589MOL0     H77742   6.480   7.394   3.293 -0.7474 -0.6772  0.8662
  589MOL0     H77743   6.587   7.492   3.189 -0.5339 -0.5138 -0.1580
  589MOL0     H77744   6.633   7.247   3.083 -0.4270 -0.4822 -0.2063
  589MOL0     H77745   6.714   7.303   3.235  0.2151 -1.9997  1.9602
  589MOL0     H77746   6.478   7.022   3.424 -1.3430  3.4049  2.8856
  589MOL0     H77747   6.197   7.160   3.395  0.0892 -0.7359 -1.4654
  589MOL0     H77748   5.971   7.091   3.465  0.0539 -0.0886 -0.4103
  590MOL0     O77749   9.327   5.363   5.449 -0.9867  0.0659 -0.6080
  590MOL0     C77750   9.389   5.408   5.550 -0.3209 -0.0241  0.2634
  590MOL0     O77751   9.364   5.529   5.605  0.7867 -0.1248 -0.4582
  590MOL0     C77752   9.259   5.600   5.558  0.4249 -0.2340 -0.5942
  590MOL0     C77753   9.279   5.731   5.514 -0.1117  0.2238 -0.1617
  590MOL0     C77754   9.176   5.810   5.459 -0.2283 -0.1264 -0.3121
  590MOL0     C77755   9.050   5.751   5.461  0.1534  0.0054  0.3573
  590MOL0     O77756   8.940   5.811   5.403  0.4637  0.2526 -0.2748
  590MOL0     C77757   8.925   5.957   5.409  0.7239 -0.2038 -0.2598
  590MOL0     C77758   8.950   6.012   5.550 -0.1158 -0.8173 -0.8709
  590MOL0     C77759   8.892   6.153   5.592 -0.1066  1.3819  0.1607
  590MOL0     C77760   8.937   6.189   5.734  1.2714  0.1494  0.0683
  590MOL0     C77761   8.868   6.321   5.777 -0.1526 -0.1455 -0.0028
  590MOL0     C77762   8.890   6.333   5.922 -0.1178  1.5687 -0.7277
  590MOL0     C77763   8.820   6.452   5.982 -0.1521  0.7016 -1.0117
  590MOL0     C77764   8.867   6.586   5.927 -0.1504  0.8688 -0.2496
  590MOL0     N77765   9.009   6.604   5.975 -0.3407 -0.5577 -0.0775
  590MOL0     C77766   9.129   6.559   5.921  0.5488 -1.1846 -1.2314
  590MOL0     C77767   9.228   6.585   6.015 -0.3323  0.0575 -0.3003
  590MOL0     C77768   9.378   6.556   6.001  0.3388 -0.3299 -0.2718
  590MOL0     C77769   9.427   6.424   6.049 -0.5140  0.0354 -0.2123
  590MOL0     C77770   9.558   6.385   5.988 -0.3811 -0.1277  0.5954
  590MOL0     C77771   9.666   6.486   6.022 -0.2339 -0.1203 -0.7128
  590MOL0     O77772   9.794   6.419   6.038  0.1716  0.3773  0.2383
  590MOL0     C77773   9.901   6.441   5.958  0.4563  0.0334  0.2110
  590MOL0     C77774  10.025   6.432   6.014  0.2819 -0.0687  0.2527
  590MOL0     C77775  10.140   6.468   5.940  0.4011  0.2470  0.0832
  590MOL0     C77776  10.127   6.516   5.809 -0.0135  0.4587  0.1139
  590MOL0     C77777  10.245   6.543   5.726  0.7186  0.3399 -0.1095
  590MOL0     O77778  10.359   6.510   5.774 -0.1903  1.0275  0.1929
  590MOL0     C77779  10.480   6.534   5.707 -0.2277  0.1500 -0.4693
  590MOL0     C77780  10.586   6.553   5.799  0.2729  0.4808  0.3786
  590MOL0     C77781  10.723   6.547   5.758 -0.2721  0.0016 -0.3704
  590MOL0     C77782  10.748   6.538   5.617  0.0116  0.6946 -0.0835
  590MOL0     O77783  10.882   6.526   5.589 -0.1771  0.2362  0.6238
  590MOL0     C77784  10.928   6.605   5.472  0.6230  0.8369 -0.0859
  590MOL0     C77785  10.978   6.513   5.368  0.3868  0.3355 -0.7593
  590MOL0     C77786  11.072   6.583   5.256  0.5147  0.3104  0.5237
  590MOL0     C77787  11.204   6.642   5.313 -0.2703  0.2374 -0.6573
  590MOL0     C77788  11.286   6.541   5.390 -0.5043 -0.4040 -0.2702
  590MOL0     C77789  11.411   6.606   5.443  0.0828  0.1444 -0.2789
  590MOL0     C77790  11.499   6.522   5.550  0.1873 -0.1715 -0.4031
  590MOL0     C77791  11.648   6.568   5.555 -0.4344  0.1609 -0.3294
  590MOL0    Cl77792  11.730   6.491   5.400  0.3680  0.1096 -0.2906
  590MOL0     C77793  10.645   6.530   5.526 -0.1732  0.4203 -0.1083
  590MOL0     C77794  10.511   6.522   5.571 -0.5919  0.6301  0.5992
  590MOL0     O77795  10.226   6.582   5.613 -0.0696  0.7655  0.3631
  590MOL0     C77796  10.000   6.528   5.754 -0.1869 -0.2522 -0.6672
  590MOL0     C77797   9.885   6.491   5.826  0.3053 -0.4688 -0.2398
  590MOL0     N77798   9.167   6.651   6.119 -0.4343 -0.5665  0.1859
  590MOL0     N77799   9.041   6.655   6.097  0.5943 -0.2976 -0.4325
  590MOL0     C77800   9.030   5.629   5.524  0.5111  0.2509 -0.0469
  590MOL0     C77801   9.132   5.549   5.564  1.8575 -0.0745 -0.7438
  590MOL0     C77802   9.487   5.325   5.620 -0.8563 -0.3185 -0.1649
  590MOL0     C77803   9.611   5.377   5.667 -0.0665  0.9357 -0.0801
  590MOL0     C77804   9.711   5.299   5.709  0.7590 -0.6918 -0.4876
  590MOL0     C77805   9.688   5.164   5.726  0.1396 -0.1785 -0.3514
  590MOL0     O77806   9.787   5.078   5.758 -0.1973 -0.1215  0.3097
  590MOL0     C77807   9.888   5.078   5.662 -0.4540 -0.1051 -0.4109
  590MOL0     C77808   9.957   4.942   5.656  0.0571  0.1859  0.0020
  590MOL0     C77809  10.054   4.928   5.774 -0.0270  0.0417  0.0311
  590MOL0     C77810  10.167   4.829   5.746 -0.3075 -0.1046  0.0250
  590MOL0     C77811  10.099   4.697   5.731 -0.0500 -0.5341  0.2859
  590MOL0     C77812  10.045   4.586   5.738 -0.4903  0.1819 -0.6099
  590MOL0     C77813   9.561   5.114   5.702  0.5144 -0.6036 -0.3142
  590MOL0     C77814   9.466   5.196   5.633 -0.0492 -0.1031  0.0227
  590MOL0     H77815   9.380   5.770   5.512  0.5343 -1.3306 -2.8622
  590MOL0     H77816   9.201   5.900   5.404 -1.4896  0.9622  0.8197
  590MOL0     H77817   8.822   5.975   5.378  0.6873 -1.5808 -1.0038
  590MOL0     H77818   8.996   5.990   5.333  2.0907 -3.0944 -0.3916
  590MOL0     H77819   9.058   6.004   5.565 -0.2763  0.4758  1.4044
  590MOL0     H77820   8.908   5.943   5.623 -0.9276 -1.4005 -1.8611
  590MOL0     H77821   8.783   6.146   5.592 -0.0639 -3.8127 -1.2122
  590MOL0     H77822   8.914   6.228   5.516 -1.8615  0.5071 -1.2967
  590MOL0     H77823   8.915   6.103   5.797 -3.4209 -0.8465 -2.4384
  590MOL0     H77824   9.044   6.207   5.746  0.9254  1.5100  1.4203
  590MOL0     H77825   8.760   6.314   5.763 -0.0650  0.8810 -1.4475
  590MOL0     H77826   8.894   6.411   5.720 -1.1047 -0.1816 -0.5314
  590MOL0     H77827   8.998   6.340   5.935 -0.0256 -0.4650 -0.1043
  590MOL0     H77828   8.852   6.245   5.975  0.3046  0.4227 -2.2735
  590MOL0     H77829   8.712   6.442   5.970 -0.5645 -0.3857  2.4914
  590MOL0     H77830   8.828   6.456   6.091 -2.9591  1.5171 -0.7622
  590MOL0     H77831   8.799   6.661   5.968  0.1588  2.4415 -2.4269
  590MOL0     H77832   8.853   6.580   5.819  0.2603 -3.3112 -0.2373
  590MOL0     H77833   9.139   6.500   5.831 -1.5370 -2.1735 -0.8872
  590MOL0     H77834   9.436   6.633   6.054  2.5598 -0.8941 -1.7184
  590MOL0     H77835   9.400   6.570   5.895  1.1936 -0.8281 -0.1692
  590MOL0     H77836   9.356   6.352   6.007  1.6153 -0.0507 -4.0675
  590MOL0     H77837   9.437   6.422   6.158 -2.2482 -0.2418 -0.0296
  590MOL0     H77838   9.596   6.292   6.030  0.4864  0.9834  2.4201
  590MOL0     H77839   9.555   6.367   5.880  1.0915 -0.9435  0.6749
  590MOL0     H77840   9.638   6.544   6.109 -1.7426  0.6688 -1.6779
  590MOL0     H77841   9.669   6.559   5.941  1.3847  0.5945 -0.0454
  590MOL0     H77842  10.032   6.396   6.117  0.2282 -1.9208 -0.3551
  590MOL0     H77843  10.242   6.457   5.977  1.0859  0.6914 -1.5709
  590MOL0     H77844  10.558   6.547   5.903  1.4627 -1.0477  0.6374
  590MOL0     H77845  10.810   6.561   5.821  1.0684 -1.3066 -1.8303
  590MOL0     H77846  11.012   6.664   5.510 -0.3289  1.7946  0.5851
  590MOL0     H77847  10.855   6.671   5.426 -0.4866 -2.1156 -2.9605
  590MOL0     H77848  10.888   6.485   5.312 -0.6369  3.5754 -0.9169
  590MOL0     H77849  11.036   6.426   5.402 -1.3789 -0.9215 -0.7942
  590MOL0     H77850  11.013   6.666   5.218 -1.7323 -0.8360  1.3150
  590MOL0     H77851  11.091   6.515   5.172 -3.9925 -0.5671 -0.0374
  590MOL0     H77852  11.257   6.680   5.226  1.5860 -1.2725 -0.2473
  590MOL0     H77853  11.176   6.727   5.376  2.8855  2.8302 -2.4525
  590MOL0     H77854  11.330   6.463   5.327  4.0269  0.8240  1.0040
  590MOL0     H77855  11.227   6.496   5.470 -1.1794 -1.1544 -1.1673
  590MOL0     H77856  11.388   6.704   5.487  1.2978  0.4619 -0.3131
  590MOL0     H77857  11.467   6.630   5.352 -1.3875  0.0816 -1.2295
  590MOL0     H77858  11.451   6.510   5.647 -0.4517  0.5794 -0.6241
  590MOL0     H77859  11.502   6.420   5.510 -0.5996 -0.2556 -0.2496
  590MOL0     H77860  11.696   6.545   5.650 -0.4899 -1.9717 -0.7693
  590MOL0     H77861  11.660   6.677   5.549  2.3798  0.0440  1.3700
  590MOL0     H77862  10.666   6.507   5.421 -0.8107  3.5456 -1.0321
  590MOL0     H77863  10.451   6.495   5.485  1.6996 -1.0013 -0.5972
  590MOL0     H77864   9.990   6.581   5.660 -0.6365  2.4188  0.7857
  590MOL0     H77865   9.795   6.513   5.769 -0.8855  0.6110  1.9539
  590MOL0     H77866   8.931   5.585   5.516  1.6939 -2.8039  0.9256
  590MOL0     H77867   9.118   5.450   5.606 -3.4769  0.3490 -0.8769
  590MOL0     H77868   9.637   5.483   5.669  1.2281  0.6414 -0.5674
  590MOL0     H77869   9.802   5.348   5.741  0.4437 -0.1885 -0.3503
  590MOL0     H77870   9.956   5.162   5.678 -1.6635  0.5836  1.3764
  590MOL0     H77871   9.848   5.098   5.563 -1.0370  2.2035  0.2394
  590MOL0     H77872   9.878   4.866   5.654  2.0226 -2.0567  1.6415
  590MOL0     H77873  10.018   4.940   5.566  2.7399  1.2730  1.6523
  590MOL0     H77874   9.991   4.915   5.862 -0.5950  4.0717  0.4476
  590MOL0     H77875  10.118   5.015   5.793  0.2316 -0.0153 -0.5429
  590MOL0     H77876  10.228   4.858   5.661  0.7594  1.7623  1.3531
  590MOL0     H77877  10.237   4.820   5.830  0.0725 -0.2424 -0.3053
  590MOL0     H77878  10.005   4.486   5.746  0.4809 -0.2170 -0.5665
  590MOL0     H77879   9.546   5.007   5.717  1.2173 -0.9063 -1.6429
  590MOL0     H77880   9.383   5.143   5.588 -1.8701  2.5247  0.0172
  591MOL0     O77881   5.267   8.499   3.274  0.6258 -0.4283  0.0067
  591MOL0     C77882   5.273   8.612   3.223  0.6891  0.7026 -0.1399
  591MOL0     O77883   5.172   8.685   3.177  0.6235 -0.5789 -0.0955
  591MOL0     C77884   5.044   8.644   3.197  0.2733 -0.2214  0.6057
  591MOL0     C77885   4.971   8.690   3.096  0.2615 -0.5413 -0.5423
  591MOL0     C77886   4.831   8.688   3.089  0.4404 -0.2369  0.1942
  591MOL0     C77887   4.771   8.611   3.198 -1.2509 -0.5153  0.2222
  591MOL0     O77888   4.635   8.604   3.201 -0.0620  0.0014 -0.4139
  591MOL0     C77889   4.558   8.693   3.126  0.3541 -0.4093 -0.0890
  591MOL0     C77890   4.406   8.697   3.168 -0.6361  0.0114  0.2291
  591MOL0     C77891   4.334   8.778   3.073  1.3115  0.0277  0.2528
  591MOL0     C77892   4.188   8.742   3.063  0.1982 -0.4477 -0.2321
  591MOL0     C77893   4.108   8.828   2.964 -0.7180 -0.2636 -0.7668
  591MOL0     C77894   3.963   8.804   2.971  0.3862  0.2653 -0.1153
  591MOL0     C77895   3.915   8.656   2.994  0.0043 -0.1292 -0.3141
  591MOL0     C77896   3.764   8.637   3.018  0.7152  0.3330  0.3050
  591MOL0     N77897   3.703   8.699   3.140 -0.2733 -0.5528  0.3902
  591MOL0     C77898   3.579   8.769   3.141  1.0704  0.8609 -1.2587
  591MOL0     C77899   3.537   8.767   3.274 -0.1962  1.2858 -0.1987
  591MOL0     C77900   3.408   8.841   3.324 -0.8060  0.3464 -0.8076
  591MOL0     C77901   3.290   8.750   3.280  0.1843 -0.0852 -0.0403
  591MOL0     C77902   3.156   8.823   3.267  0.3956 -0.4039 -0.0023
  591MOL0     C77903   3.044   8.713   3.251 -0.2879  1.0912  0.1323
  591MOL0     O77904   2.906   8.748   3.245 -0.1790 -0.4223  0.0653
  591MOL0     C77905   2.813   8.663   3.187  0.6027 -1.0909 -0.1708
  591MOL0     C77906   2.835   8.560   3.103 -0.1757 -0.1904 -0.3185
  591MOL0     C77907   2.727   8.480   3.049 -0.3235 -0.1075 -0.1437
  591MOL0     C77908   2.598   8.509   3.084 -0.3244  0.9488  0.7850
  591MOL0     C77909   2.497   8.436   3.011  0.5753 -0.6287 -0.7203
  591MOL0     O77910   2.371   8.483   3.025 -0.0633  0.4165  0.3422
  591MOL0     C77911   2.263   8.407   2.981  0.1208 -0.2495  0.1654
  591MOL0     C77912   2.152   8.472   2.927  0.2036 -0.0784 -1.1115
  591MOL0     C77913   2.041   8.403   2.882 -0.2312 -0.0495 -0.2367
  591MOL0     C77914   2.031   8.261   2.906 -0.7566 -0.2905 -0.2417
  591MOL0     O77915   1.917   8.203   2.869  0.3670  0.2990 -0.4461
  591MOL0     C77916   1.898   8.067   2.892 -0.6754  0.5300  0.2078
  591MOL0     C77917   1.741   8.036   2.871 -0.0879  0.3677  0.1330
  591MOL0     C77918   1.707   8.069   2.733 -0.8787 -0.0568 -0.1090
  591MOL0     C77919   1.785   7.991   2.623 -0.3956  0.0039  0.3117
  591MOL0     C77920   1.743   8.017   2.476 -0.1618  0.4611  0.6695
  591MOL0     C77921   1.771   8.160   2.427  0.1295  0.2952  0.0454
  591MOL0     C77922   1.914   8.200   2.456 -0.4854 -0.2016  0.1124
  591MOL0     C77923   1.937   8.351   2.423  0.1069 -0.0659 -0.2112
  591MOL0    Cl77924   1.842   8.469   2.518 -0.3866 -0.1298 -0.2385
  591MOL0     C77925   2.141   8.189   2.971  0.6531  1.1975 -0.0989
  591MOL0     C77926   2.252   8.264   3.004 -0.0638  0.3076 -0.3953
  591MOL0     O77927   2.529   8.343   2.946 -0.4019  0.3545 -0.1131
  591MOL0     C77928   2.576   8.613   3.174 -0.4055 -0.0515  0.2192
  591MOL0     C77929   2.679   8.687   3.230  0.1459  0.5597  0.2554
  591MOL0     N77930   3.640   8.705   3.352 -0.2398  0.4283  0.2219
  591MOL0     N77931   3.736   8.670   3.275 -0.3144  1.0001  0.4068
  591MOL0     C77932   4.847   8.572   3.306 -0.8877  0.1478  0.4114
  591MOL0     C77933   4.985   8.589   3.307 -0.1992 -0.7241 -0.0902
  591MOL0     C77934   5.406   8.663   3.187  0.7069  0.3264 -0.3379
  591MOL0     C77935   5.424   8.796   3.141 -0.0842  0.5468  0.0845
  591MOL0     C77936   5.551   8.828   3.099 -0.4155 -0.4346 -0.0152
  591MOL0     C77937   5.660   8.746   3.104 -0.3512  0.2788  0.1889
  591MOL0     O77938   5.789   8.774   3.071 -0.2455  0.9138  0.7182
  591MOL0     C77939   5.840   8.905   3.077  0.2597 -0.7600 -0.0548
  591MOL0     C77940   5.848   8.953   3.229 -0.5587 -0.0511  0.3200
  591MOL0     C77941   5.958   9.060   3.238 -0.3640 -0.2716 -0.2616
  591MOL0     C77942   5.952   9.137   3.367  0.0419 -0.0569 -0.2044
  591MOL0     C77943   6.067   9.229   3.379 -0.8736  0.7795 -0.7394
  591MOL0     C77944   6.169   9.295   3.385 -0.3567 -0.2171 -0.3856
  591MOL0     C77945   5.640   8.616   3.156  0.0841  0.0070 -0.6947
  591MOL0     C77946   5.511   8.571   3.183 -0.4060  0.5835  0.0040
  591MOL0     H77947   5.018   8.744   3.014 -0.8750  1.0729 -0.1872
  591MOL0     H77948   4.775   8.726   3.005  0.7292  1.8448  0.8907
  591MOL0     H77949   4.567   8.671   3.019  1.7051  3.2095 -0.8613
  591MOL0     H77950   4.590   8.796   3.146 -0.8652  0.1242 -0.7740
  591MOL0     H77951   4.401   8.743   3.267  2.1147 -1.0206  0.9607
  591MOL0     H77952   4.364   8.597   3.156 -1.2930  0.4494 -1.3977
  591MOL0     H77953   4.364   8.763   2.969  0.8140  0.7838 -0.0103
  591MOL0     H77954   4.340   8.881   3.109 -1.0028  0.6043 -0.8207
  591MOL0     H77955   4.188   8.638   3.030  3.4491 -0.5332 -0.2636
  591MOL0     H77956   4.146   8.757   3.163  0.6504 -0.8957  0.0292
  591MOL0     H77957   4.139   8.803   2.862 -1.5104  2.2885 -1.7042
  591MOL0     H77958   4.120   8.935   2.982  1.9799 -0.3850 -1.3319
  591MOL0     H77959   3.910   8.843   2.884  0.4890  3.1313  0.9850
  591MOL0     H77960   3.926   8.871   3.049  0.3132 -0.1422  0.2064
  591MOL0     H77961   3.937   8.597   2.905  0.8418  1.1291 -0.9723
  591MOL0     H77962   3.967   8.602   3.073  1.1614 -3.8368 -3.2874
  591MOL0     H77963   3.755   8.528   3.021  2.5538  0.0687 -1.2427
  591MOL0     H77964   3.711   8.675   2.930  1.7003 -0.0450 -0.4749
  591MOL0     H77965   3.545   8.820   3.050  3.4634  0.1964 -2.6057
  591MOL0     H77966   3.406   8.942   3.282  0.9479 -0.1510 -2.1970
  591MOL0     H77967   3.404   8.856   3.432 -0.3424  0.3441 -0.7905
  591MOL0     H77968   3.261   8.667   3.345 -1.7303  0.0350 -0.6784
  591MOL0     H77969   3.318   8.721   3.178  2.6629  1.4827  0.0985
  591MOL0     H77970   3.136   8.876   3.361  0.5319 -0.1671 -0.1070
  591MOL0     H77971   3.164   8.898   3.188 -3.1897  0.9381  0.7233
  591MOL0     H77972   3.064   8.631   3.321 -0.5142 -1.1191 -2.2259
  591MOL0     H77973   3.061   8.688   3.146 -1.6050  1.1153 -0.1013
  591MOL0     H77974   2.932   8.526   3.068  0.9574  3.6272 -1.3868
  591MOL0     H77975   2.744   8.405   2.973 -1.7005 -1.8152  1.1508
  591MOL0     H77976   2.149   8.580   2.934 -1.0490 -0.1889  1.1908
  591MOL0     H77977   1.958   8.455   2.837  0.2201  1.6705  0.7817
  591MOL0     H77978   1.923   8.038   2.995 -1.9641 -0.0039  0.3918
  591MOL0     H77979   1.957   8.007   2.823 -0.4507 -1.8934  2.3503
  591MOL0     H77980   1.691   8.096   2.948  0.8581 -0.0399  1.0964
  591MOL0     H77981   1.720   7.931   2.893 -3.9504  1.3117  1.7169
  591MOL0     H77982   1.721   8.174   2.706 -1.4280 -0.3983 -1.8918
  591MOL0     H77983   1.601   8.045   2.718 -0.2792 -3.2506  0.1407
  591MOL0     H77984   1.893   8.007   2.627 -0.5394  1.6399 -1.2410
  591MOL0     H77985   1.771   7.888   2.657  0.0104  0.0300  0.5706
  591MOL0     H77986   1.635   7.999   2.472 -0.0986  0.1381 -2.5460
  591MOL0     H77987   1.766   7.933   2.410 -3.6934 -1.0241  1.1233
  591MOL0     H77988   1.698   8.229   2.470 -0.4994 -1.7558  2.5413
  591MOL0     H77989   1.755   8.156   2.318  1.3443 -0.5552 -0.1230
  591MOL0     H77990   1.946   8.186   2.560  2.2616 -0.8656 -0.7471
  591MOL0     H77991   1.988   8.140   2.403 -2.2121 -1.5845 -0.8493
  591MOL0     H77992   1.889   8.369   2.327  0.0632 -2.6455 -0.7206
  591MOL0     H77993   2.045   8.368   2.420  1.0073 -4.0282  2.4954
  591MOL0     H77994   2.135   8.086   3.004 -0.4253  0.8636 -1.2897
  591MOL0     H77995   2.336   8.219   3.056 -0.4281 -0.7971 -0.7371
  591MOL0     H77996   2.476   8.650   3.198 -0.9004 -1.1762 -0.0463
  591MOL0     H77997   2.651   8.770   3.294 -0.6038 -1.2234  2.3537
  591MOL0     H77998   4.796   8.526   3.390  1.2319  1.6845  2.6624
  591MOL0     H77999   5.047   8.556   3.390 -0.2609  0.5401  0.4727
  591MOL0     H78000   5.346   8.872   3.137  2.0857  2.9047 -0.0146
  591MOL0     H78001   5.570   8.931   3.071 -0.5799  0.1912  1.9732
  591MOL0     H78002   5.779   8.974   3.017 -0.1015 -0.9629  0.0753
  591MOL0     H78003   5.941   8.906   3.035  0.0216 -1.2448 -0.6706
  591MOL0     H78004   5.748   8.992   3.251 -1.6088 -0.5086 -3.0311
  591MOL0     H78005   5.860   8.868   3.297 -6.0001 -1.3187  0.1785
  591MOL0     H78006   5.931   9.134   3.161 -0.6410  1.7808  1.6859
  591MOL0     H78007   6.058   9.021   3.219  0.3944  1.3421  0.2308
  591MOL0     H78008   5.858   9.191   3.379 -0.2897 -0.8436  0.8620
  591MOL0     H78009   5.972   9.082   3.459  3.1589 -1.0763 -1.3504
  591MOL0     H78010   6.253   9.361   3.378  1.8632 -2.5451  1.9374
  591MOL0     H78011   5.718   8.543   3.172 -1.3182 -1.3385  0.2981
  591MOL0     H78012   5.506   8.469   3.222 -3.2365  0.4913 -0.4063
  592MOL0     O78013   5.279   4.827   9.297 -0.4775  0.1965  0.5013
  592MOL0     C78014   5.401   4.870   9.276  0.4277  0.1661 -0.4728
  592MOL0     O78015   5.434   4.967   9.176 -0.0685  0.6781 -0.2620
  592MOL0     C78016   5.336   5.068   9.153  0.4082 -0.2231 -0.1872
  592MOL0     C78017   5.211   5.033   9.097  0.0614  0.0245  0.6063
  592MOL0     C78018   5.128   5.123   9.047  0.1798 -0.7661  0.1288
  592MOL0     C78019   5.160   5.258   9.039 -0.7304  0.0864 -0.2740
  592MOL0     O78020   5.072   5.337   8.975 -0.4890 -0.0229 -0.9986
  592MOL0     C78021   5.122   5.454   8.917  0.3562 -0.4362  0.7785
  592MOL0     C78022   5.022   5.504   8.814 -0.7613 -0.0948  0.9250
  592MOL0     C78023   5.071   5.632   8.741  0.0767  1.0457  0.3299
  592MOL0     C78024   4.973   5.687   8.632 -0.1792 -0.4823 -0.5134
  592MOL0     C78025   4.952   5.618   8.503 -1.0172 -1.1105  0.7045
  592MOL0     C78026   5.080   5.600   8.412  0.3310  0.2452 -0.5238
  592MOL0     C78027   5.137   5.730   8.371 -0.4737 -0.5837 -0.7378
  592MOL0     C78028   5.263   5.705   8.298 -0.3991 -0.3989  0.2594
  592MOL0     N78029   5.350   5.816   8.308  0.0826  0.4744 -0.5557
  592MOL0     C78030   5.456   5.824   8.393  0.4109  0.5182 -0.4736
  592MOL0     C78031   5.529   5.927   8.360 -0.0471 -0.3605  0.4225
  592MOL0     C78032   5.655   5.957   8.437 -0.9320 -1.0555  0.4765
  592MOL0     C78033   5.687   6.107   8.451 -0.7125  0.0775 -0.1188
  592MOL0     C78034   5.790   6.133   8.565 -0.4171  0.0114 -0.0763
  592MOL0     C78035   5.741   6.140   8.704  0.4084 -0.6502 -0.3417
  592MOL0     O78036   5.857   6.198   8.774  0.5396  0.0855  0.4158
  592MOL0     C78037   5.872   6.157   8.911 -0.0876  0.4105 -0.1785
  592MOL0     C78038   6.011   6.151   8.956 -0.1488  0.5354  0.1861
  592MOL0     C78039   6.032   6.086   9.079  0.8129  0.0454  0.4455
  592MOL0     C78040   5.926   6.039   9.160  0.5755 -0.4286 -0.6038
  592MOL0     C78041   5.949   5.989   9.306 -0.4603  0.9994  0.3477
  592MOL0     O78042   6.086   5.994   9.339 -0.0757  0.9029  0.1724
  592MOL0     C78043   6.126   5.924   9.452  0.0375 -0.4921 -1.5483
  592MOL0     C78044   6.159   5.989   9.570  0.4455  0.5542  0.1334
  592MOL0     C78045   6.195   5.920   9.690 -1.0021 -0.2408  0.0157
  592MOL0     C78046   6.207   5.784   9.690 -0.7098  0.5296  0.2685
  592MOL0     O78047   6.246   5.705   9.792 -0.8247 -0.7724 -0.2029
  592MOL0     C78048   6.335   5.762   9.885  0.4459  0.4569 -0.2318
  592MOL0     C78049   6.387   5.642   9.975  0.5402  0.0763 -0.4193
  592MOL0     C78050   6.490   5.681  10.079  0.0926  0.1060 -0.0653
  592MOL0     C78051   6.554   5.561  10.150 -0.1954  0.0623 -0.3302
  592MOL0     C78052   6.653   5.604  10.253  0.3625 -1.0903 -0.4017
  592MOL0     C78053   6.742   5.495  10.309  0.5858 -0.1335 -0.7403
  592MOL0     C78054   6.850   5.457  10.208  0.0095 -0.5831  0.0825
  592MOL0     C78055   6.918   5.320  10.252  0.9830 -0.1769  0.2116
  592MOL0    Cl78056   7.071   5.271  10.167  0.0751  0.2596 -0.2796
  592MOL0     C78057   6.181   5.715   9.571  0.5100  0.1996 -0.0984
  592MOL0     C78058   6.142   5.780   9.455  0.8706 -0.8073  0.2094
  592MOL0     O78059   5.861   5.949   9.382  0.0659 -1.2564  0.3777
  592MOL0     C78060   5.798   6.044   9.118 -0.1913  1.1387  0.3091
  592MOL0     C78061   5.772   6.113   8.999  0.2275 -0.3760  0.2764
  592MOL0     N78062   5.466   5.996   8.250 -0.1163 -0.4253 -0.7463
  592MOL0     N78063   5.355   5.920   8.221 -0.4293 -0.4048  0.4821
  592MOL0     C78064   5.295   5.292   9.091  1.1500 -0.1156  0.4642
  592MOL0     C78065   5.383   5.196   9.150  0.4363  0.0223 -0.2492
  592MOL0     C78066   5.511   4.834   9.364 -0.8611  0.1520 -1.2560
  592MOL0     C78067   5.648   4.838   9.330  0.5618  0.5498 -0.1408
  592MOL0     C78068   5.750   4.803   9.414 -1.0872 -0.0158  0.8607
  592MOL0     C78069   5.730   4.759   9.545  0.0640  0.2460  0.4339
  592MOL0     O78070   5.821   4.733   9.646 -0.3624  0.8102 -0.3402
  592MOL0     C78071   5.956   4.704   9.611 -0.9890 -0.2806 -0.7439
  592MOL0     C78072   6.015   4.634   9.733  0.4759 -0.4418 -0.7232
  592MOL0     C78073   6.056   4.729   9.838  0.0553  0.6844  0.2685
  592MOL0     C78074   6.131   4.856   9.809  0.0986  0.5644 -0.3788
  592MOL0     C78075   6.249   4.838   9.726  0.2720  1.2881  0.2222
  592MOL0     C78076   6.340   4.850   9.643  0.3082 -0.0581  1.0088
  592MOL0     C78077   5.597   4.757   9.588  0.2500  0.1635  0.6941
  592MOL0     C78078   5.493   4.796   9.499 -0.3351 -0.0235  0.6074
  592MOL0     H78079   5.163   4.935   9.094  0.2577 -0.4351  5.0316
  592MOL0     H78080   5.032   5.097   9.003 -0.6192 -0.1719  1.4496
  592MOL0     H78081   5.212   5.424   8.863 -0.2369  0.3886 -0.7387
  592MOL0     H78082   5.148   5.535   8.986 -0.8324  0.7636 -0.1345
  592MOL0     H78083   4.932   5.536   8.866 -2.0681 -0.5127 -0.9678
  592MOL0     H78084   4.986   5.422   8.751  1.8052  0.4087 -1.3698
  592MOL0     H78085   5.161   5.600   8.687 -2.4398  0.2442 -3.8249
  592MOL0     H78086   5.105   5.711   8.808  0.8862  3.7703 -3.0114
  592MOL0     H78087   4.869   5.696   8.666 -0.4891  0.7130 -1.6836
  592MOL0     H78088   5.010   5.788   8.613 -2.2175  0.2076 -1.1507
  592MOL0     H78089   4.886   5.687   8.451 -0.0791  0.3762  1.4352
  592MOL0     H78090   4.893   5.529   8.527 -1.9471  0.3132  4.4383
  592MOL0     H78091   5.052   5.534   8.330  1.7549 -1.6774  0.4610
  592MOL0     H78092   5.158   5.556   8.474  0.2943  1.6572  0.5899
  592MOL0     H78093   5.069   5.788   8.308 -2.6867 -0.7619  1.3632
  592MOL0     H78094   5.162   5.790   8.458  0.8974  2.4934 -3.0682
  592MOL0     H78095   5.236   5.686   8.194 -0.1884  1.3984 -0.1499
  592MOL0     H78096   5.323   5.625   8.343 -0.4930 -0.3333  0.5066
  592MOL0     H78097   5.484   5.741   8.457  3.6499  0.2270 -2.0527
  592MOL0     H78098   5.736   5.910   8.380  0.2841  1.7609 -0.2593
  592MOL0     H78099   5.649   5.913   8.537  1.8081  0.0831  1.2275
  592MOL0     H78100   5.598   6.166   8.477 -0.9601 -0.6694  0.7887
  592MOL0     H78101   5.729   6.136   8.354 -1.4231 -2.2275 -1.2079
  592MOL0     H78102   5.861   6.049   8.561 -1.8898 -1.2872 -0.0380
  592MOL0     H78103   5.844   6.224   8.536 -0.7929  0.0032 -0.8378
  592MOL0     H78104   5.729   6.034   8.729 -0.8116 -0.7238 -1.2063
  592MOL0     H78105   5.647   6.193   8.721 -1.1418 -3.5344  0.6166
  592MOL0     H78106   6.099   6.171   8.896  0.2386  1.8231  1.1483
  592MOL0     H78107   6.132   6.053   9.105  0.7986 -0.8259 -0.5474
  592MOL0     H78108   6.168   6.097   9.562 -1.8697  0.7160 -1.2155
  592MOL0     H78109   6.218   5.969   9.784 -1.4311  0.2913 -0.1469
  592MOL0     H78110   6.288   5.841   9.943  0.6565 -0.3845  1.1083
  592MOL0     H78111   6.417   5.802   9.824 -0.9774  1.2741 -1.7021
  592MOL0     H78112   6.433   5.569   9.908  1.9934  0.9446 -0.4152
  592MOL0     H78113   6.307   5.590  10.029  1.1630  0.5602  1.0293
  592MOL0     H78114   6.447   5.755  10.147  4.4241  0.8360  2.2377
  592MOL0     H78115   6.568   5.738  10.029 -0.6808  0.3909 -0.9636
  592MOL0     H78116   6.479   5.499  10.200 -0.0247 -0.9745 -1.3086
  592MOL0     H78117   6.607   5.504  10.073 -2.0849 -1.0446 -0.8860
  592MOL0     H78118   6.597   5.649  10.336  1.0518 -1.3296  0.2070
  592MOL0     H78119   6.717   5.682  10.211  0.5789 -0.1384  1.5832
  592MOL0     H78120   6.682   5.406  10.329  0.5406  0.1647  0.5069
  592MOL0     H78121   6.786   5.523  10.405  1.0083 -1.2532 -0.5892
  592MOL0     H78122   6.800   5.434  10.113 -3.2249 -0.5325  1.6214
  592MOL0     H78123   6.927   5.533  10.197 -1.0410  0.2531 -2.0773
  592MOL0     H78124   6.853   5.233  10.237  3.1498 -2.1459  1.6181
  592MOL0     H78125   6.937   5.329  10.359 -2.9563 -1.5345  1.1692
  592MOL0     H78126   6.202   5.609   9.571 -1.2591 -0.2215  2.2627
  592MOL0     H78127   6.109   5.737   9.362 -0.0877  1.1857 -0.4406
  592MOL0     H78128   5.717   6.007   9.180 -0.5769  1.0296 -0.2503
  592MOL0     H78129   5.674   6.140   8.962  0.3595  1.2144  1.0016
  592MOL0     H78130   5.319   5.398   9.091 -1.4629  0.5802 -1.3139
  592MOL0     H78131   5.479   5.221   9.194 -0.3294  1.7492  0.5446
  592MOL0     H78132   5.661   4.869   9.226  1.4969 -0.6388 -0.3948
  592MOL0     H78133   5.842   4.807   9.356 -1.7971  1.5492 -0.2158
  592MOL0     H78134   6.012   4.797   9.598  0.3733 -1.0133 -0.3844
  592MOL0     H78135   5.961   4.649   9.516 -1.3973 -1.5241 -0.0630
  592MOL0     H78136   5.941   4.561   9.766  0.5706 -0.5985 -0.8564
  592MOL0     H78137   6.106   4.581   9.704  1.5548  1.0541 -0.2243
  592MOL0     H78138   6.116   4.679   9.914  0.6319  1.7169  0.5161
  592MOL0     H78139   5.962   4.761   9.883  0.0048 -1.2482  1.6068
  592MOL0     H78140   6.058   4.919   9.756  1.2020  2.1633 -0.0629
  592MOL0     H78141   6.165   4.920   9.890 -0.3109 -0.6792  0.8021
  592MOL0     H78142   6.420   4.858   9.571  0.5690 -0.6081  1.2273
  592MOL0     H78143   5.570   4.731   9.690 -2.1441  1.2049  0.3954
  592MOL0     H78144   5.391   4.795   9.534  0.0468  1.6759  1.9359
  593MOL0     O78145   2.067   3.869   0.414 -1.0201 -0.4550 -0.1371
  593MOL0     C78146   2.018   3.973   0.370  0.0699  0.3746  0.6855
  593MOL0     O78147   2.082   4.072   0.298  0.2453  0.3971 -0.0046
  593MOL0     C78148   2.213   4.066   0.264  0.4018 -0.0876 -0.2425
  593MOL0     C78149   2.314   3.972   0.276 -0.8809  0.5920  0.9148
  593MOL0     C78150   2.437   3.998   0.219 -0.8320 -0.7030  0.1255
  593MOL0     C78151   2.471   4.121   0.159  0.8948  0.0667  0.0972
  593MOL0     O78152   2.598   4.138   0.121 -0.4053  0.2667  0.5376
  593MOL0     C78153   2.631   4.208   0.003  0.2825  0.0171  0.2138
  593MOL0     C78154   2.783   4.191  -0.023 -0.1411 -0.3225 -0.0511
  593MOL0     C78155   2.828   4.269  -0.145 -0.4521  0.4347 -0.6677
  593MOL0     C78156   2.983   4.239  -0.166 -0.0057 -0.1179  0.0769
  593MOL0     C78157   3.065   4.366  -0.162 -0.1035  0.4216  0.0315
  593MOL0     C78158   3.201   4.350  -0.228  0.3373 -0.3793 -0.0315
  593MOL0     C78159   3.289   4.236  -0.162 -0.2683 -1.4754  0.8935
  593MOL0     C78160   3.336   4.278  -0.020  0.2525  1.2939  0.1193
  593MOL0     N78161   3.226   4.234   0.070 -0.3829 -0.2299  0.0777
  593MOL0     C78162   3.168   4.313   0.171  0.6418  0.1044 -0.2697
  593MOL0     C78163   3.095   4.226   0.244  0.0361 -0.9645  0.2157
  593MOL0     C78164   3.036   4.248   0.381 -0.0609 -0.3199 -0.4154
  593MOL0     C78165   2.890   4.206   0.378  0.9426 -0.5219 -1.0688
  593MOL0     C78166   2.812   4.249   0.497 -0.5749 -0.3280  0.3240
  593MOL0     C78167   2.683   4.173   0.521  1.3207  0.6940  0.1704
  593MOL0     O78168   2.598   4.254   0.601  0.0524  0.0348 -0.0213
  593MOL0     C78169   2.477   4.196   0.637 -0.7242 -0.3740  0.2293
  593MOL0     C78170   2.370   4.178   0.559  0.1162  0.0090  1.0791
  593MOL0     C78171   2.246   4.131   0.607 -0.1006 -1.0082 -0.1835
  593MOL0     C78172   2.230   4.112   0.750 -0.4264  0.3409  0.6614
  593MOL0     C78173   2.098   4.081   0.801  1.0804  0.2253  0.7573
  593MOL0     O78174   2.010   4.031   0.716  0.2132 -0.3065 -0.5115
  593MOL0     C78175   1.881   4.019   0.772 -0.2554 -0.6722 -0.0505
  593MOL0     C78176   1.800   4.134   0.785  0.1394  0.4717  0.0979
  593MOL0     C78177   1.694   4.123   0.867 -0.3974 -0.2629  0.4255
  593MOL0     C78178   1.646   4.000   0.920 -1.2083  0.3173 -0.4084
  593MOL0     O78179   1.533   3.978   0.989 -0.4992 -0.2577 -0.4880
  593MOL0     C78180   1.422   3.980   0.901 -0.6711  0.3776 -0.1366
  593MOL0     C78181   1.297   3.991   0.992  0.7550 -0.3704 -0.2293
  593MOL0     C78182   1.238   4.124   1.007 -0.6584 -0.1034  0.8025
  593MOL0     C78183   1.151   4.132   1.125  0.4061 -0.2126 -0.3812
  593MOL0     C78184   1.092   4.276   1.132  0.1763  0.1846  0.0496
  593MOL0     C78185   0.983   4.292   1.245  0.5349  0.0085 -0.0697
  593MOL0     C78186   0.862   4.370   1.204 -0.5635 -0.5982 -0.6472
  593MOL0     C78187   0.751   4.364   1.304 -0.1398  0.1074  0.4883
  593MOL0    Cl78188   0.691   4.194   1.315  0.0530 -0.0521 -0.0034
  593MOL0     C78189   1.719   3.894   0.900  0.5115  0.1572  0.8656
  593MOL0     C78190   1.840   3.897   0.830  0.1287  0.7458  1.0112
  593MOL0     O78191   2.071   4.109   0.916 -0.3316 -0.4051 -0.4662
  593MOL0     C78192   2.345   4.135   0.838  0.3735  0.7087 -0.3227
  593MOL0     C78193   2.462   4.181   0.772 -1.0868  0.4380  0.0171
  593MOL0     N78194   3.110   4.099   0.192  0.2520  0.1171 -0.0285
  593MOL0     N78195   3.191   4.105   0.092  0.1794  0.0334 -0.8911
  593MOL0     C78196   2.364   4.208   0.139  0.5848  0.1002  0.2255
  593MOL0     C78197   2.237   4.180   0.185 -0.0118 -0.0016 -0.0395
  593MOL0     C78198   1.868   3.997   0.410 -0.6750  0.1782  0.6344
  593MOL0     C78199   1.798   4.117   0.399 -0.8029  0.1987  0.0891
  593MOL0     C78200   1.665   4.131   0.447  0.8612 -0.0099  0.2416
  593MOL0     C78201   1.597   4.024   0.520  0.2202 -0.5718  0.1904
  593MOL0     O78202   1.476   4.036   0.592 -0.3647 -0.2737  0.1594
  593MOL0     C78203   1.387   4.137   0.536  0.0692  1.2052 -0.0234
  593MOL0     C78204   1.242   4.112   0.570 -0.0410  0.1646 -0.7190
  593MOL0     C78205   1.149   4.238   0.552  0.0206  0.2988 -0.0908
  593MOL0     C78206   1.004   4.215   0.559  0.2779 -0.6601  0.1912
  593MOL0     C78207   0.956   4.208   0.699  0.1086 -0.3838  0.6422
  593MOL0     C78208   0.896   4.191   0.802  0.6189  0.4528  0.2049
  593MOL0     C78209   1.672   3.906   0.527 -0.1124 -0.3598 -0.2649
  593MOL0     C78210   1.802   3.890   0.475  0.6386  0.9123  0.2753
  593MOL0     H78211   2.290   3.880   0.328 -0.4927 -1.1163 -1.7303
  593MOL0     H78212   2.523   3.932   0.220 -0.7893 -0.6700 -0.6802
  593MOL0     H78213   2.607   4.314   0.012  0.6463 -0.0448  2.6527
  593MOL0     H78214   2.578   4.153  -0.075 -0.8245 -0.1298  1.0408
  593MOL0     H78215   2.811   4.088  -0.049 -0.5405 -1.2010  2.6083
  593MOL0     H78216   2.849   4.214   0.062  1.8564 -0.8323 -1.3778
  593MOL0     H78217   2.811   4.377  -0.133  3.2340  0.9162  2.7033
  593MOL0     H78218   2.778   4.227  -0.232 -0.2852 -1.7253  0.2364
  593MOL0     H78219   3.028   4.175  -0.089  0.0936  0.1208  0.2171
  593MOL0     H78220   2.998   4.196  -0.265 -0.6022  0.5776 -0.3272
  593MOL0     H78221   3.074   4.398  -0.058  0.4173 -2.1345  0.8430
  593MOL0     H78222   3.014   4.440  -0.223 -0.4071 -1.5211 -2.1997
  593MOL0     H78223   3.265   4.438  -0.214  0.0065 -0.1310 -0.0599
  593MOL0     H78224   3.189   4.327  -0.334 -0.2209  0.0001 -0.0551
  593MOL0     H78225   3.234   4.141  -0.165  0.4876 -1.8999 -1.4649
  593MOL0     H78226   3.381   4.226  -0.219 -2.2802 -2.4405 -2.4207
  593MOL0     H78227   3.348   4.386  -0.020  0.3974  1.2760 -0.0526
  593MOL0     H78228   3.416   4.208   0.004 -1.8916 -1.8455 -1.1564
  593MOL0     H78229   3.186   4.417   0.197  2.6263 -0.4370  0.7807
  593MOL0     H78230   3.052   4.350   0.415 -1.0704 -0.1597 -0.3836
  593MOL0     H78231   3.088   4.178   0.448 -0.0114 -1.2073 -1.3621
  593MOL0     H78232   2.884   4.099   0.357 -3.1321 -1.0173  1.5298
  593MOL0     H78233   2.838   4.253   0.294 -1.0072 -1.2751 -0.3562
  593MOL0     H78234   2.879   4.234   0.582  0.4721 -1.1611 -0.6092
  593MOL0     H78235   2.787   4.355   0.505 -0.3806 -0.1003 -1.6472
  593MOL0     H78236   2.700   4.076   0.570 -1.7213 -0.6317 -1.1791
  593MOL0     H78237   2.627   4.161   0.428  1.7230  2.4873 -0.3353
  593MOL0     H78238   2.389   4.202   0.455 -0.8334 -1.5541  0.4980
  593MOL0     H78239   2.173   4.106   0.531 -1.7522 -2.0391  1.6551
  593MOL0     H78240   1.845   4.231   0.763 -1.2424  1.4321  1.3414
  593MOL0     H78241   1.639   4.216   0.883 -1.0645 -0.9416  2.5258
  593MOL0     H78242   1.418   3.877   0.866 -1.6250  0.7544 -1.1696
  593MOL0     H78243   1.428   4.059   0.825 -1.0722  1.3302  0.7835
  593MOL0     H78244   1.315   3.952   1.093 -0.0427  0.5241  0.2677
  593MOL0     H78245   1.217   3.928   0.953 -2.4318  0.4008  4.2906
  593MOL0     H78246   1.192   4.154   0.913 -0.3715  0.4414  0.8316
  593MOL0     H78247   1.313   4.203   1.021  2.2407 -2.8285  1.9218
  593MOL0     H78248   1.067   4.067   1.100  0.5750  0.1386 -1.9316
  593MOL0     H78249   1.189   4.094   1.220 -2.1567  0.6507  1.1007
  593MOL0     H78250   1.066   4.301   1.028  2.2128 -1.4636 -0.9302
  593MOL0     H78251   1.168   4.348   1.160  3.4548 -3.4186  1.2845
  593MOL0     H78252   1.022   4.344   1.334  0.3259 -1.0372  0.6587
  593MOL0     H78253   0.942   4.195   1.275 -2.8293  2.0308  2.5551
  593MOL0     H78254   0.894   4.474   1.192 -2.5538  0.1032 -0.1380
  593MOL0     H78255   0.826   4.332   1.108  1.4933 -4.8895  0.0422
  593MOL0     H78256   0.663   4.423   1.278 -1.7869 -0.5996  3.8381
  593MOL0     H78257   0.792   4.397   1.400 -0.4920 -0.5394  0.8706
  593MOL0     H78258   1.684   3.792   0.913  1.3440  0.1005  3.0316
  593MOL0     H78259   1.895   3.803   0.826 -0.1557  0.1708  5.4676
  593MOL0     H78260   2.340   4.134   0.946  0.8231 -0.9543 -0.2864
  593MOL0     H78261   2.548   4.210   0.832 -0.8020  5.1694 -2.2128
  593MOL0     H78262   2.383   4.301   0.085 -0.2063 -1.0361 -2.1594
  593MOL0     H78263   2.171   4.260   0.153  0.9443 -0.6826 -4.3942
  593MOL0     H78264   1.857   4.194   0.351 -0.2021  0.0975  0.6408
  593MOL0     H78265   1.605   4.217   0.420 -0.3325 -1.6693 -2.9043
  593MOL0     H78266   1.402   4.144   0.428 -0.5566 -0.1680 -0.2219
  593MOL0     H78267   1.420   4.230   0.583  1.2451 -0.0445  1.8211
  593MOL0     H78268   1.211   4.022   0.516 -0.5742  1.0043 -1.8334
  593MOL0     H78269   1.246   4.091   0.678  2.9551 -1.2080 -0.9952
  593MOL0     H78270   1.162   4.287   0.455  0.2390 -2.3888 -1.5453
  593MOL0     H78271   1.188   4.312   0.622 -1.9470  1.2035  0.1205
  593MOL0     H78272   0.962   4.298   0.501 -2.9397 -1.6274  0.9197
  593MOL0     H78273   0.984   4.125   0.500  4.2926 -1.9278  0.4935
  593MOL0     H78274   0.839   4.172   0.890  0.7246 -0.5945  0.0615
  593MOL0     H78275   1.627   3.813   0.559  0.7102 -0.5289  0.4410
  593MOL0     H78276   1.856   3.797   0.492  2.8548  2.3801  1.8205
  594MOL0     O78277   9.610   7.566   0.046  1.0803 -0.4331 -0.2326
  594MOL0     C78278   9.628   7.615  -0.067  0.0038  0.2621  0.6234
  594MOL0     O78279   9.537   7.629  -0.170  0.8694  0.1833  0.2509
  594MOL0     C78280   9.404   7.639  -0.146 -0.1409 -0.4439 -0.1759
  594MOL0     C78281   9.323   7.651  -0.254  0.1947 -0.1818 -0.9240
  594MOL0     C78282   9.185   7.650  -0.252  0.3838  1.2963  0.1379
  594MOL0     C78283   9.117   7.661  -0.130 -0.3631  0.3838 -0.0542
  594MOL0     O78284   8.983   7.662  -0.132 -0.1136  0.0938 -0.7437
  594MOL0     C78285   8.918   7.690  -0.009 -0.9351 -0.1576  0.3093
  594MOL0     C78286   8.774   7.716  -0.025  0.0621  1.2897 -0.9782
  594MOL0     C78287   8.704   7.721   0.122  0.0182  0.5952 -0.5611
  594MOL0     C78288   8.565   7.776   0.096  0.2841  0.7280 -0.4908
  594MOL0     C78289   8.469   7.731   0.213  0.0972  0.3555 -0.1980
  594MOL0     C78290   8.319   7.738   0.164 -0.4265 -0.0324 -0.0719
  594MOL0     C78291   8.243   7.670   0.275  0.0431 -0.2637  0.2415
  594MOL0     C78292   8.099   7.676   0.238  1.2430 -0.0850  0.0369
  594MOL0     N78293   8.053   7.817   0.268  0.2887  0.0428 -0.2624
  594MOL0     C78294   8.039   7.853   0.401  0.4443 -0.5662  0.0966
  594MOL0     C78295   7.949   7.960   0.405 -0.7238  0.3062  0.0711
  594MOL0     C78296   7.900   8.032   0.528  0.0192 -0.7025  0.1729
  594MOL0     C78297   8.003   8.140   0.564 -0.1986  0.3337 -0.2643
  594MOL0     C78298   8.012   8.264   0.468 -0.1975  0.1599  0.7058
  594MOL0     C78299   7.887   8.347   0.453  0.6981 -0.4609  0.4065
  594MOL0     O78300   7.828   8.390   0.581  0.0275 -0.0163 -1.2154
  594MOL0     C78301   7.696   8.419   0.581 -0.3652 -0.1716 -0.6611
  594MOL0     C78302   7.612   8.388   0.689  0.0845  0.1882  0.1072
  594MOL0     C78303   7.482   8.434   0.699 -0.2010  0.3137 -0.9359
  594MOL0     C78304   7.425   8.521   0.596 -0.6686  0.6178 -0.3018
  594MOL0     C78305   7.285   8.560   0.598  0.6967 -0.8082 -0.5282
  594MOL0     O78306   7.215   8.549   0.713 -0.0960 -0.3118 -0.1308
  594MOL0     C78307   7.091   8.595   0.710  0.1552 -0.8347  0.4905
  594MOL0     C78308   7.056   8.722   0.772 -1.1441  0.1029 -0.0800
  594MOL0     C78309   6.925   8.764   0.768 -0.2057 -0.2444  0.9113
  594MOL0     C78310   6.830   8.702   0.696 -0.0098  0.7804 -0.0948
  594MOL0     O78311   6.707   8.759   0.685 -0.0423 -0.5082  0.4597
  594MOL0     C78312   6.594   8.677   0.690  0.0409 -0.0852  0.4224
  594MOL0     C78313   6.487   8.776   0.676  0.1295 -0.0694  0.4524
  594MOL0     C78314   6.473   8.838   0.532 -0.4935 -0.7590 -0.5023
  594MOL0     C78315   6.353   8.939   0.525 -0.0747 -0.0919 -0.1460
  594MOL0     C78316   6.351   9.015   0.400  0.4219  0.7634  0.1991
  594MOL0     C78317   6.365   8.933   0.274  0.2477 -0.4999 -0.5383
  594MOL0     C78318   6.338   9.002   0.139 -0.6273 -0.3121  0.0418
  594MOL0     C78319   6.427   8.946   0.029  0.7152  0.3727  0.2955
  594MOL0    Cl78320   6.407   8.996  -0.142 -0.3357 -0.0384  0.0531
  594MOL0     C78321   6.861   8.583   0.632 -0.3343 -0.3428 -0.2663
  594MOL0     C78322   6.987   8.523   0.650 -1.1772 -0.3958  0.3182
  594MOL0     O78323   7.235   8.610   0.492 -0.6519  0.3590  0.3911
  594MOL0     C78324   7.511   8.546   0.483 -0.3258 -0.4135 -0.4171
  594MOL0     C78325   7.646   8.506   0.477  1.2070 -0.1265  0.3124
  594MOL0     N78326   7.911   7.972   0.276  0.2951  0.0041 -0.6370
  594MOL0     N78327   7.969   7.891   0.196  0.2096  0.0272 -0.5828
  594MOL0     C78328   9.202   7.661  -0.012  0.2274  0.9923  0.3430
  594MOL0     C78329   9.344   7.654  -0.021 -0.0506  0.7156 -0.5913
  594MOL0     C78330   9.761   7.635  -0.106  0.0975 -0.1269  0.7897
  594MOL0     C78331   9.858   7.664  -0.006  0.9670 -0.1510  0.0247
  594MOL0     C78332   9.997   7.686  -0.040  0.1318 -0.1834 -1.2383
  594MOL0     C78333  10.037   7.676  -0.174 -0.9805  0.1437 -0.2378
  594MOL0     O78334  10.170   7.700  -0.210 -0.0393  0.7946 -0.7246
  594MOL0     C78335  10.193   7.715  -0.347 -0.1302  0.1850  0.6414
  594MOL0     C78336  10.342   7.756  -0.372 -0.3387 -0.9812 -0.7956
  594MOL0     C78337  10.373   7.899  -0.329 -1.1310 -0.1657 -0.8184
  594MOL0     C78338  10.528   7.911  -0.364 -0.0002  0.4251  1.4432
  594MOL0     C78339  10.585   8.034  -0.332 -0.2124  0.2920 -0.0162
  594MOL0     C78340  10.621   8.144  -0.323  0.4199  0.4871 -0.2662
  594MOL0     C78341   9.939   7.643  -0.270 -0.6419 -0.1814  0.8826
  594MOL0     C78342   9.803   7.629  -0.236 -0.0053 -0.7513 -0.0548
  594MOL0     H78343   9.365   7.641  -0.354 -0.4386  1.5605 -1.4027
  594MOL0     H78344   9.136   7.663  -0.348  2.0146  2.2999 -0.6234
  594MOL0     H78345   8.947   7.783   0.041 -2.0886  1.0543 -1.1736
  594MOL0     H78346   8.929   7.610   0.065 -0.4212  3.5842  4.7823
  594MOL0     H78347   8.720   7.641  -0.083 -1.7039 -0.9036  3.0333
  594MOL0     H78348   8.766   7.815  -0.072  2.1484  1.7942 -0.3503
  594MOL0     H78349   8.765   7.784   0.187  2.8386 -1.9398 -0.5529
  594MOL0     H78350   8.702   7.620   0.162 -2.2791 -0.3469 -2.7533
  594MOL0     H78351   8.561   7.885   0.090 -1.4399  0.9330  2.2411
  594MOL0     H78352   8.524   7.738   0.002  0.4656 -1.1001  0.1391
  594MOL0     H78353   8.486   7.805   0.292  0.6977 -1.0301  1.0139
  594MOL0     H78354   8.492   7.630   0.248  1.1952  0.4556 -0.6005
  594MOL0     H78355   8.303   7.687   0.069 -4.2548 -0.8253  0.8331
  594MOL0     H78356   8.291   7.843   0.156  0.2249  0.3392  1.7857
  594MOL0     H78357   8.269   7.564   0.280 -2.2394 -0.8328  1.5325
  594MOL0     H78358   8.264   7.715   0.373  3.5020  0.1180 -0.5413
  594MOL0     H78359   8.045   7.606   0.303 -1.9443  1.5700 -0.6127
  594MOL0     H78360   8.074   7.646   0.136 -0.8629 -0.6878  0.6796
  594MOL0     H78361   8.088   7.804   0.484  0.5546 -0.4115  0.1225
  594MOL0     H78362   7.899   7.954   0.604 -1.1240  0.9199  1.9161
  594MOL0     H78363   7.799   8.074   0.523  0.4135  0.1264 -1.3897
  594MOL0     H78364   8.102   8.094   0.569  0.1305  0.9396 -1.0433
  594MOL0     H78365   7.985   8.182   0.664 -0.2265  0.9049 -0.5049
  594MOL0     H78366   8.092   8.326   0.509  0.3043 -0.6097  0.9210
  594MOL0     H78367   8.037   8.236   0.366  0.7891  2.3607  0.2836
  594MOL0     H78368   7.826   8.280   0.392  2.3658  0.0822 -2.0287
  594MOL0     H78369   7.898   8.436   0.390  0.8240 -1.4420 -0.9891
  594MOL0     H78370   7.641   8.315   0.764 -1.9624 -0.5671  0.2219
  594MOL0     H78371   7.413   8.403   0.778  0.3859 -1.2960 -1.0056
  594MOL0     H78372   7.126   8.788   0.823  0.2453  1.2396 -3.2162
  594MOL0     H78373   6.901   8.855   0.822 -1.7871 -0.7877  1.2099
  594MOL0     H78374   6.587   8.615   0.780  0.2682 -0.3487  0.2603
  594MOL0     H78375   6.589   8.602   0.610 -0.9123  0.8742 -0.4612
  594MOL0     H78376   6.514   8.849   0.753  2.0238  0.3678 -0.5612
  594MOL0     H78377   6.391   8.733   0.706 -1.7585  1.1965 -3.1644
  594MOL0     H78378   6.474   8.756   0.459 -2.5615 -1.8221  0.5907
  594MOL0     H78379   6.560   8.904   0.522 -1.3500  0.5030  0.1458
  594MOL0     H78380   6.264   8.876   0.524 -0.3862  0.3068 -2.1195
  594MOL0     H78381   6.360   9.006   0.611 -0.6351 -1.5533  1.0721
  594MOL0     H78382   6.427   9.093   0.404 -0.4283  1.7553 -1.7956
  594MOL0     H78383   6.253   9.063   0.394 -1.6612 -2.9624  1.1057
  594MOL0     H78384   6.300   8.845   0.279 -0.6521  0.1410 -0.7889
  594MOL0     H78385   6.470   8.902   0.276  0.9835  1.6069  2.9217
  594MOL0     H78386   6.231   8.994   0.118 -0.9224 -1.1097  1.7249
  594MOL0     H78387   6.367   9.107   0.149 -0.4554 -0.2241 -1.1554
  594MOL0     H78388   6.411   8.838   0.034 -0.2082  0.4318 -0.9190
  594MOL0     H78389   6.533   8.956   0.055  0.6471  2.1313  0.0602
  594MOL0     H78390   6.789   8.529   0.571 -0.3874  0.1527 -0.6487
  594MOL0     H78391   7.018   8.439   0.589 -1.5086 -0.8938  0.8335
  594MOL0     H78392   7.470   8.599   0.398 -0.6018 -3.0168 -2.0085
  594MOL0     H78393   7.709   8.527   0.391  0.5690 -0.8211 -0.3342
  594MOL0     H78394   9.154   7.675   0.085 -3.9447  3.0356 -1.7339
  594MOL0     H78395   9.405   7.666   0.068  1.0667 -1.2364 -1.0314
  594MOL0     H78396   9.836   7.683   0.098  2.9707 -4.3970  1.4511
  594MOL0     H78397  10.068   7.710   0.038 -0.9115  0.8915 -0.5972
  594MOL0     H78398  10.129   7.790  -0.394  2.0521  0.6873 -1.7173
  594MOL0     H78399  10.179   7.620  -0.400  0.3353  0.0779  0.7087
  594MOL0     H78400  10.413   7.681  -0.337 -1.0855 -1.9949 -1.3961
  594MOL0     H78401  10.357   7.756  -0.480 -2.3202 -2.2884 -1.1386
  594MOL0     H78402  10.366   7.914  -0.221 -0.7067  2.4579 -1.0791
  594MOL0     H78403  10.320   7.978  -0.383  1.5508  2.3602 -0.0832
  594MOL0     H78404  10.587   7.836  -0.310  0.4234 -0.8098 -0.6205
  594MOL0     H78405  10.538   7.886  -0.470 -0.0677  0.6360  1.3877
  594MOL0     H78406  10.643   8.248  -0.311 -0.5487  0.6241  0.3739
  594MOL0     H78407   9.969   7.640  -0.374 -1.9905 -1.4263  0.4868
  594MOL0     H78408   9.725   7.620  -0.312 -0.0839 -1.4109  0.0998
  595MOL0     O78409  10.526   7.328   9.280 -0.3443  0.4162  0.0046
  595MOL0     C78410  10.561   7.329   9.402  0.7913  0.0733  0.5285
  595MOL0     O78411  10.471   7.319   9.515  0.2553 -0.1108 -0.5453
  595MOL0     C78412  10.333   7.309   9.488  0.4709  0.2194 -0.0581
  595MOL0     C78413  10.285   7.179   9.452  0.4740 -0.0902  0.1060
  595MOL0     C78414  10.149   7.170   9.430 -0.0216  0.0489  0.1669
  595MOL0     C78415  10.057   7.277   9.438 -0.7968  0.7310  0.7896
  595MOL0     O78416   9.922   7.266   9.425 -0.3191  0.7322  0.7960
  595MOL0     C78417   9.876   7.126   9.397 -0.7821 -0.4369 -0.4959
  595MOL0     C78418   9.728   7.134   9.422 -0.1908  0.0049 -1.2350
  595MOL0     C78419   9.706   7.134   9.572  0.2030 -0.1967 -0.0616
  595MOL0     C78420   9.559   7.156   9.609 -0.6362 -0.1431  0.4794
  595MOL0     C78421   9.521   7.140   9.764  0.0893 -0.0498  0.4862
  595MOL0     C78422   9.553   7.004   9.834  1.1908  0.1106 -0.4342
  595MOL0     C78423   9.480   6.990   9.968  0.0149  0.1081 -0.3201
  595MOL0     C78424   9.343   6.929   9.953 -1.1456 -0.1371  0.2926
  595MOL0     N78425   9.270   6.915  10.082 -0.5200 -0.0547 -0.0628
  595MOL0     C78426   9.239   7.019  10.163 -0.4580  0.6105  0.6279
  595MOL0     C78427   9.158   6.968  10.263  0.0294 -0.2343  0.0440
  595MOL0     C78428   9.138   7.066  10.377  0.3828 -0.0146 -1.5265
  595MOL0     C78429   9.160   6.987  10.507 -0.5970 -0.4598 -0.0966
  595MOL0     C78430   9.173   7.056  10.645 -0.3439 -0.8295 -0.8932
  595MOL0     C78431   9.028   7.107  10.675  0.5270 -1.0646  1.1028
  595MOL0     O78432   9.038   7.173  10.803 -0.5467 -0.0998  0.1771
  595MOL0     C78433   8.929   7.224  10.861 -0.1495  0.1990  1.0640
  595MOL0     C78434   8.925   7.357  10.909  0.1136 -0.1396  0.0749
  595MOL0     C78435   8.805   7.408  10.959 -0.0269 -0.8257  0.3593
  595MOL0     C78436   8.694   7.331  10.964  0.8852 -0.5410  0.1244
  595MOL0     C78437   8.565   7.402  11.011 -0.1880  0.0887  0.4279
  595MOL0     O78438   8.474   7.311  11.048 -0.2062 -0.8537  0.2956
  595MOL0     C78439   8.357   7.342  11.100 -0.5066 -1.1241  0.3780
  595MOL0     C78440   8.355   7.384  11.232 -0.0509 -0.6517  0.6287
  595MOL0     C78441   8.236   7.409  11.299  0.3101 -0.2206  0.0184
  595MOL0     C78442   8.119   7.392  11.233  0.1437  0.0217  0.3437
  595MOL0     O78443   8.008   7.430  11.297 -0.4547 -0.5768 -0.1203
  595MOL0     C78444   7.972   7.364  11.417 -0.6392 -0.2339  0.0832
  595MOL0     C78445   7.825   7.385  11.446 -0.3811 -0.5387 -0.3671
  595MOL0     C78446   7.780   7.325  11.577 -0.3359  0.6622  0.1629
  595MOL0     C78447   7.633   7.354  11.603  0.3260  0.0195  0.0747
  595MOL0     C78448   7.577   7.295  11.735 -0.0379 -0.3055 -0.8632
  595MOL0     C78449   7.416   7.273  11.733 -0.0141  0.0563 -0.2544
  595MOL0     C78450   7.337   7.401  11.710  0.7337  1.0746  1.1709
  595MOL0     C78451   7.197   7.383  11.668 -0.3489 -0.0243  0.3381
  595MOL0    Cl78452   7.121   7.296  11.794 -0.0408  0.2933  0.1349
  595MOL0     C78453   8.116   7.347  11.105 -0.0117  1.1003 -0.5402
  595MOL0     C78454   8.234   7.313  11.036 -0.2578 -0.0871  0.2605
  595MOL0     O78455   8.555   7.525  11.031 -0.0521 -0.0478  0.7443
  595MOL0     C78456   8.696   7.198  10.917  0.6895 -0.1932  0.1605
  595MOL0     C78457   8.811   7.146  10.862 -0.2749 -0.5750  0.1041
  595MOL0     N78458   9.138   6.830  10.249 -0.7952  0.2777  0.3210
  595MOL0     N78459   9.220   6.808  10.146  0.0999 -0.2153 -0.3143
  595MOL0     C78460  10.109   7.403   9.462 -0.1042  0.0955  0.4345
  595MOL0     C78461  10.252   7.418   9.485  0.2813  0.2087  0.8100
  595MOL0     C78462  10.713   7.334   9.432  1.0901 -0.8302  1.5299
  595MOL0     C78463  10.771   7.370   9.561 -0.1389 -0.4258  0.3228
  595MOL0     C78464  10.911   7.378   9.563 -0.3505  0.6008 -0.4508
  595MOL0     C78465  10.988   7.359   9.453 -0.4695 -0.3597 -0.3758
  595MOL0     O78466  11.122   7.380   9.458 -0.1414  0.5537  0.5752
  595MOL0     C78467  11.200   7.366   9.573  0.1493  0.1108 -0.2548
  595MOL0     C78468  11.344   7.345   9.529 -0.0732  0.6268 -0.0023
  595MOL0     C78469  11.349   7.220   9.435 -0.1747 -0.2349 -0.4289
  595MOL0     C78470  11.327   7.092   9.516  0.1787 -0.1606  0.3778
  595MOL0     C78471  11.323   6.981   9.420 -0.1589 -0.1088  0.2813
  595MOL0     C78472  11.318   6.906   9.322 -0.1462 -0.6846 -0.3146
  595MOL0     C78473  10.932   7.336   9.328 -1.0176  0.7376 -0.6861
  595MOL0     C78474  10.791   7.317   9.319  1.0199  0.9300 -1.0804
  595MOL0     H78475  10.351   7.095   9.468  0.0079  0.1182  4.4066
  595MOL0     H78476  10.112   7.068   9.423 -0.3709  0.1258  0.8073
  595MOL0     H78477   9.929   7.049   9.452  1.8022  1.1191 -0.6452
  595MOL0     H78478   9.890   7.102   9.291 -3.0913 -3.5818 -0.2219
  595MOL0     H78479   9.691   7.040   9.380  3.6235 -0.7680 -3.3175
  595MOL0     H78480   9.698   7.223   9.364  0.2808  2.4197  1.9475
  595MOL0     H78481   9.770   7.207   9.622 -0.3857 -1.6792  3.1930
  595MOL0     H78482   9.734   7.035   9.612  0.2316 -0.9883 -1.9519
  595MOL0     H78483   9.528   7.256   9.578 -0.0089  0.2168  0.9965
  595MOL0     H78484   9.513   7.076   9.550  2.8607 -0.3604 -2.3064
  595MOL0     H78485   9.413   7.155   9.759  0.4019  3.2445  1.4873
  595MOL0     H78486   9.575   7.223   9.811 -0.9563  0.3732  0.9661
  595MOL0     H78487   9.661   6.991   9.839  0.9791 -1.2958  1.9372
  595MOL0     H78488   9.514   6.925   9.769  2.2137  0.0294 -0.9742
  595MOL0     H78489   9.538   6.928  10.037  0.9681  0.9931 -0.2965
  595MOL0     H78490   9.474   7.078  10.032 -0.8580  0.8004 -1.3278
  595MOL0     H78491   9.355   6.829   9.910  1.9577  0.2209  0.1462
  595MOL0     H78492   9.281   7.001   9.898 -4.1145 -1.6655  1.4235
  595MOL0     H78493   9.275   7.121  10.149 -0.5931  0.3515 -2.4261
  595MOL0     H78494   9.032   7.089  10.387  0.3950  1.3481 -3.8418
  595MOL0     H78495   9.197   7.159  10.376  1.0014 -0.1695  2.6843
  595MOL0     H78496   9.261   6.945  10.501 -0.1086  0.5984  0.5643
  595MOL0     H78497   9.083   6.908  10.509 -1.3433  0.2524  1.9635
  595MOL0     H78498   9.205   6.989  10.725  2.4869  1.6762  0.3004
  595MOL0     H78499   9.237   7.145  10.642 -3.0350  1.2459 -4.0966
  595MOL0     H78500   8.959   7.022  10.675 -1.1944  0.2677  0.8459
  595MOL0     H78501   8.983   7.168  10.596  2.6451  0.5037  1.0232
  595MOL0     H78502   9.015   7.416  10.925 -1.8010  3.1103 -0.3820
  595MOL0     H78503   8.814   7.506  11.006  1.9877 -0.4637 -0.6933
  595MOL0     H78504   8.450   7.404  11.280  0.3384  1.1398 -0.7389
  595MOL0     H78505   8.241   7.445  11.401  2.5567 -2.6610  0.8813
  595MOL0     H78506   8.027   7.395  11.507 -1.9057  0.0224  0.8021
  595MOL0     H78507   7.992   7.258  11.405 -1.2546 -0.3715  0.2408
  595MOL0     H78508   7.761   7.356  11.362  1.1731 -0.2598 -1.7173
  595MOL0     H78509   7.810   7.493  11.455  1.6025 -0.3642  2.0754
  595MOL0     H78510   7.846   7.343  11.663  0.0487 -0.7743  0.1905
  595MOL0     H78511   7.787   7.217  11.565 -0.1046  0.7011 -0.0697
  595MOL0     H78512   7.615   7.460  11.624 -0.4502 -0.4081  1.6980
  595MOL0     H78513   7.570   7.318  11.521  0.2599  1.8261 -0.7213
  595MOL0     H78514   7.610   7.358  11.818 -1.7788 -1.5662  0.8846
  595MOL0     H78515   7.631   7.203  11.758 -3.2904 -1.7502  2.0168
  595MOL0     H78516   7.394   7.239  11.834 -0.7602  1.0955 -0.0516
  595MOL0     H78517   7.389   7.190  11.666 -1.1951  0.1106  0.1401
  595MOL0     H78518   7.335   7.464  11.800  1.3809  0.7205  1.4395
  595MOL0     H78519   7.380   7.456  11.626 -1.8972  2.0708  0.3742
  595MOL0     H78520   7.187   7.323  11.577  0.7343  0.4410 -0.1038
  595MOL0     H78521   7.149   7.480  11.653 -2.3284 -0.7606  1.5382
  595MOL0     H78522   8.018   7.332  11.061  0.3001 -1.1895 -0.5309
  595MOL0     H78523   8.226   7.260  10.942  0.1440 -0.4497  0.4306
  595MOL0     H78524   8.595   7.160  10.906  0.4957  0.5113 -0.5448
  595MOL0     H78525   8.804   7.042  10.831  2.8528  0.0730 -3.5642
  595MOL0     H78526  10.046   7.491   9.460 -1.7851 -0.9670  2.6945
  595MOL0     H78527  10.298   7.514   9.509 -0.7745  0.2617  2.8826
  595MOL0     H78528  10.719   7.402   9.651  3.4123  0.5713  2.2104
  595MOL0     H78529  10.952   7.400   9.662 -3.0951 -2.7368  1.6404
  595MOL0     H78530  11.159   7.283   9.631 -1.5406  0.5218 -0.7993
  595MOL0     H78531  11.193   7.450   9.642  1.0351 -0.7108  0.8688
  595MOL0     H78532  11.389   7.433   9.482  2.6894 -0.8874 -0.4439
  595MOL0     H78533  11.400   7.311   9.617 -0.5964 -4.5472 -1.3586
  595MOL0     H78534  11.453   7.214   9.400  0.0888  1.2661  0.0066
  595MOL0     H78535  11.293   7.234   9.343  1.3423  1.3187 -1.1616
  595MOL0     H78536  11.411   7.079   9.585 -0.2007 -3.6394  0.3614
  595MOL0     H78537  11.233   7.090   9.571  0.0036 -0.4375  0.0675
  595MOL0     H78538  11.321   6.853   9.229 -0.8731 -0.0696 -0.7030
  595MOL0     H78539  11.001   7.327   9.245  0.7521  0.7294  0.7119
  595MOL0     H78540  10.750   7.294   9.222  0.0606 -1.2598 -0.2005
  596MOL0     O78541   7.810   1.000   7.859 -0.1005 -0.3378  0.5722
  596MOL0     C78542   7.725   0.909   7.866  0.0522 -0.1296 -0.1563
  596MOL0     O78543   7.744   0.776   7.854  0.6046  0.6837  0.3442
  596MOL0     C78544   7.858   0.733   7.795  0.0877  0.0563  0.5770
  596MOL0     C78545   7.912   0.610   7.838  0.0830 -0.3181 -0.8043
  596MOL0     C78546   8.022   0.542   7.781 -0.9587 -0.1930 -0.3534
  596MOL0     C78547   8.087   0.609   7.674 -0.2769  0.2906 -0.2558
  596MOL0     O78548   8.188   0.542   7.608  0.7755 -0.2618 -0.5114
  596MOL0     C78549   8.263   0.601   7.503 -0.4109  0.4204  0.6462
  596MOL0     C78550   8.393   0.527   7.482  0.3365  0.1829 -0.3099
  596MOL0     C78551   8.466   0.573   7.347  0.5285  0.3764 -1.3073
  596MOL0     C78552   8.602   0.511   7.307  0.8798  0.2323  0.6289
  596MOL0     C78553   8.627   0.556   7.163  0.7026  0.4488  0.2640
  596MOL0     C78554   8.746   0.487   7.086 -0.0105  0.2705  0.3916
  596MOL0     C78555   8.879   0.478   7.163  0.0922  0.7851  0.9383
  596MOL0     C78556   8.984   0.404   7.076  0.6313 -0.0336 -0.2072
  596MOL0     N78557   9.009   0.480   6.960  0.1262 -0.2874  0.5059
  596MOL0     C78558   9.101   0.581   6.955  0.1800 -0.0729  0.5198
  596MOL0     C78559   9.109   0.610   6.829 -0.0630  0.6380  0.0834
  596MOL0     C78560   9.180   0.726   6.761 -0.3281  0.6078  0.3215
  596MOL0     C78561   9.138   0.859   6.826 -0.9394 -0.5424 -0.1635
  596MOL0     C78562   8.999   0.908   6.764 -0.2144 -0.1811  0.0920
  596MOL0     C78563   8.943   1.032   6.834  0.7031  0.4378  0.6023
  596MOL0     O78564   8.904   0.998   6.968 -0.1499  0.0343 -1.1968
  596MOL0     C78565   8.771   0.982   7.004  0.2406 -0.0138  0.2047
  596MOL0     C78566   8.748   0.980   7.139 -0.3786 -0.6506 -0.2544
  596MOL0     C78567   8.628   0.947   7.197 -0.2494 -0.6005  0.5425
  596MOL0     C78568   8.513   0.936   7.119  1.0929 -0.2133 -0.8727
  596MOL0     C78569   8.388   0.907   7.195 -0.1849  0.3791 -0.4874
  596MOL0     O78570   8.291   0.856   7.120 -0.1716  0.2481 -0.3726
  596MOL0     C78571   8.170   0.846   7.181 -0.7886 -0.0970 -0.8813
  596MOL0     C78572   8.118   0.717   7.203  0.7351 -0.3765  0.2473
  596MOL0     C78573   7.989   0.704   7.258 -0.3976 -0.2170 -0.2921
  596MOL0     C78574   7.921   0.824   7.297  0.0519  0.1398 -0.1385
  596MOL0     O78575   7.806   0.827   7.362 -0.1144 -0.2416 -0.2900
  596MOL0     C78576   7.730   0.709   7.392 -0.4421 -0.1136 -0.2910
  596MOL0     C78577   7.612   0.747   7.478 -1.0736  0.1606  0.6922
  596MOL0     C78578   7.506   0.833   7.408 -0.0873 -0.9419 -1.0130
  596MOL0     C78579   7.396   0.885   7.498 -0.2519 -0.4125 -1.1903
  596MOL0     C78580   7.261   0.907   7.424  0.2340  0.8052 -0.2512
  596MOL0     C78581   7.148   0.949   7.515 -0.2325  0.0161 -1.1047
  596MOL0     C78582   7.023   0.994   7.437 -0.3680  0.4713  0.5085
  596MOL0     C78583   7.039   1.134   7.372 -1.1193 -0.1348 -0.0762
  596MOL0    Cl78584   6.888   1.174   7.306 -0.1669  0.1050  0.1094
  596MOL0     C78585   7.974   0.952   7.273  0.1167 -0.5943  0.2802
  596MOL0     C78586   8.098   0.959   7.212  0.9434  0.1525  0.0602
  596MOL0     O78587   8.379   0.922   7.313  0.2279  1.0106  0.0865
  596MOL0     C78588   8.531   0.950   6.976  0.0822  1.3494  0.2059
  596MOL0     C78589   8.661   0.972   6.922 -0.1679 -0.1518  0.8283
  596MOL0     N78590   9.014   0.534   6.758 -0.1408  0.1567  0.0185
  596MOL0     N78591   8.952   0.446   6.836 -0.2402 -1.2170 -0.9045
  596MOL0     C78592   8.029   0.727   7.617  0.3627 -0.1232 -0.8499
  596MOL0     C78593   7.923   0.791   7.684 -0.3471  1.0052  0.2111
  596MOL0     C78594   7.588   0.950   7.872  0.5166  0.2258 -0.6777
  596MOL0     C78595   7.565   1.089   7.900 -0.7092  0.4895  0.4223
  596MOL0     C78596   7.435   1.128   7.916  0.1614  0.3045 -0.3982
  596MOL0     C78597   7.317   1.049   7.910 -0.5458 -0.3575  0.2649
  596MOL0     O78598   7.199   1.105   7.940 -0.6166 -0.4349 -0.1152
  596MOL0     C78599   7.090   1.059   7.869 -0.5014  1.0241  0.2053
  596MOL0     C78600   7.003   1.179   7.811  0.0490  0.6864  0.1590
  596MOL0     C78601   6.856   1.121   7.772 -0.6208  0.4347 -0.6360
  596MOL0     C78602   6.776   1.226   7.705  0.4515 -0.5946  1.4559
  596MOL0     C78603   6.653   1.182   7.643  0.0523  0.0504  0.6587
  596MOL0     C78604   6.542   1.140   7.611  0.1824 -0.4380  0.6815
  596MOL0     C78605   7.340   0.912   7.887  0.4840 -0.0753  0.3035
  596MOL0     C78606   7.476   0.864   7.862  0.3650 -0.0525 -0.1148
  596MOL0     H78607   7.867   0.565   7.926  0.6422  2.9078  1.3089
  596MOL0     H78608   8.056   0.440   7.797 -0.2600 -0.2313 -1.9407
  596MOL0     H78609   8.289   0.703   7.530  3.0655 -0.1661 -0.0437
  596MOL0     H78610   8.204   0.591   7.411  3.8214 -1.7206 -2.1684
  596MOL0     H78611   8.381   0.419   7.489  1.1708 -0.2674 -3.9062
  596MOL0     H78612   8.460   0.564   7.561 -1.0441  1.8470  0.1349
  596MOL0     H78613   8.481   0.680   7.362  0.8310  0.0991  0.7067
  596MOL0     H78614   8.393   0.549   7.270 -0.9565  2.5963 -0.6772
  596MOL0     H78615   8.678   0.549   7.375 -0.7987  1.1966  2.0738
  596MOL0     H78616   8.604   0.402   7.308 -0.2229  0.1498 -1.0325
  596MOL0     H78617   8.638   0.665   7.160  2.5113  0.3306  0.9765
  596MOL0     H78618   8.534   0.543   7.108  0.7246  0.5941  0.1908
  596MOL0     H78619   8.758   0.547   6.996  0.8325 -0.5642 -0.0695
  596MOL0     H78620   8.713   0.386   7.060 -0.9874 -0.2018  3.1677
  596MOL0     H78621   8.917   0.579   7.181  0.6330  1.9351 -4.7479
  596MOL0     H78622   8.870   0.419   7.255  0.9716 -0.8425  0.0231
  596MOL0     H78623   8.929   0.322   7.029 -1.4837  1.1606  0.0275
  596MOL0     H78624   9.074   0.387   7.135  2.4931  1.0732 -2.6021
  596MOL0     H78625   9.146   0.640   7.035 -2.0384  0.3091  1.5725
  596MOL0     H78626   9.161   0.723   6.654 -1.7783 -0.7360  0.5883
  596MOL0     H78627   9.285   0.716   6.792 -0.4619 -0.0550  0.5757
  596MOL0     H78628   9.220   0.928   6.806  0.5037 -1.1619  2.9839
  596MOL0     H78629   9.121   0.852   6.934 -2.1045 -1.0115 -0.3701
  596MOL0     H78630   8.998   0.938   6.659  1.3874  1.7996  0.5767
  596MOL0     H78631   8.924   0.828   6.772 -2.5820  1.9165  0.1564
  596MOL0     H78632   8.862   1.069   6.770  3.8128  1.9359 -2.8911
  596MOL0     H78633   9.011   1.118   6.829  0.6807  0.5440  1.7726
  596MOL0     H78634   8.820   1.014   7.213  0.0465  2.4091 -1.9183
  596MOL0     H78635   8.610   0.936   7.303 -0.6378  5.1211  1.3914
  596MOL0     H78636   8.155   0.621   7.166 -3.3564 -1.5253 -1.4214
  596MOL0     H78637   7.957   0.603   7.283  1.1422 -0.1449  2.2481
  596MOL0     H78638   7.791   0.629   7.435  1.5800  1.9219  0.7895
  596MOL0     H78639   7.687   0.667   7.300  1.5158 -0.0131 -1.3040
  596MOL0     H78640   7.645   0.791   7.572  4.4447 -2.1080  0.1670
  596MOL0     H78641   7.558   0.655   7.502 -1.7776  0.0617 -1.1217
  596MOL0     H78642   7.461   0.777   7.325 -1.8403  1.9097 -2.1364
  596MOL0     H78643   7.558   0.923   7.373  0.7561 -0.8725  0.3304
  596MOL0     H78644   7.380   0.821   7.585  1.1197  1.1530  0.2851
  596MOL0     H78645   7.427   0.983   7.535  2.2819 -1.0860 -1.2894
  596MOL0     H78646   7.240   0.809   7.380  1.1670 -0.4292  1.8958
  596MOL0     H78647   7.285   0.992   7.359  1.6784  1.7415  1.4342
  596MOL0     H78648   7.180   1.038   7.570 -2.8594  0.5530 -0.3505
  596MOL0     H78649   7.121   0.873   7.588 -1.7714 -0.2931 -1.9580
  596MOL0     H78650   7.006   0.914   7.364  2.7845  0.5512 -0.4534
  596MOL0     H78651   6.931   0.998   7.496 -2.3228  2.0706 -2.3713
  596MOL0     H78652   7.111   1.128   7.290  1.0051  2.8862  1.3718
  596MOL0     H78653   7.090   1.192   7.450  2.9209 -5.3306  1.8220
  596MOL0     H78654   7.921   1.039   7.310  0.8763 -0.0932  0.1917
  596MOL0     H78655   8.145   1.057   7.211  1.7790 -0.2375 -0.4939
  596MOL0     H78656   8.440   0.950   6.917 -0.3130  1.6512  0.8065
  596MOL0     H78657   8.685   0.980   6.816 -1.8516 -0.9034  0.3567
  596MOL0     H78658   8.071   0.771   7.527  1.6342 -0.5805 -0.5026
  596MOL0     H78659   7.896   0.885   7.638  1.2417  1.6638  0.5663
  596MOL0     H78660   7.643   1.163   7.919 -0.3794 -0.1747  1.8144
  596MOL0     H78661   7.420   1.228   7.954  0.7093  1.3735 -2.8483
  596MOL0     H78662   7.038   0.997   7.942  2.2569  0.3232  1.7341
  596MOL0     H78663   7.122   0.995   7.786  0.7372  0.3749  1.1577
  596MOL0     H78664   6.994   1.259   7.884  2.2125  0.0351  1.2464
  596MOL0     H78665   7.047   1.216   7.718 -3.4029 -0.6462 -2.2133
  596MOL0     H78666   6.802   1.093   7.862 -1.6988  0.1480 -1.3549
  596MOL0     H78667   6.863   1.031   7.710  3.0846 -0.3028  0.6213
  596MOL0     H78668   6.754   1.299   7.784  0.2572  1.8159 -0.6946
  596MOL0     H78669   6.835   1.283   7.632  1.9159 -1.9267  1.5631
  596MOL0     H78670   6.442   1.111   7.586  0.6768 -1.1393 -0.5479
  596MOL0     H78671   7.260   0.839   7.886 -1.0956  1.5887  0.2355
  596MOL0     H78672   7.501   0.759   7.847  1.5893 -0.1262  2.1810
  597MOL0     O78673   7.391   2.521  11.181 -0.5972 -0.1914  0.5162
  597MOL0     C78674   7.452   2.554  11.080 -0.9509  0.2661 -0.5071
  597MOL0     O78675   7.398   2.630  10.979  0.2242  0.4427  0.4104
  597MOL0     C78676   7.266   2.652  10.987  0.3739 -0.8976 -0.2040
  597MOL0     C78677   7.229   2.784  10.984  0.2776  0.0623  0.0329
  597MOL0     C78678   7.095   2.822  10.967  0.2171  0.4953  0.8130
  597MOL0     C78679   6.993   2.718  10.983  0.5203 -0.4618  0.1476
  597MOL0     O78680   6.871   2.780  11.007  0.2726  0.4407 -0.4083
  597MOL0     C78681   6.763   2.688  11.015  0.4388  0.6575  0.0838
  597MOL0     C78682   6.630   2.775  11.017  0.1321 -0.4118 -0.4327
  597MOL0     C78683   6.503   2.690  11.039 -0.1789 -0.0193  0.5275
  597MOL0     C78684   6.377   2.750  10.982  0.7313  1.4440  0.3775
  597MOL0     C78685   6.267   2.645  11.013 -0.1507 -0.8659 -0.9694
  597MOL0     C78686   6.136   2.710  10.987  0.3814  0.5006  0.1271
  597MOL0     C78687   6.022   2.635  11.032  0.4221 -0.5461  0.2595
  597MOL0     C78688   5.893   2.722  11.036 -0.2539  0.4618 -0.2115
  597MOL0     N78689   5.821   2.712  10.913 -0.6045 -0.8315  0.0822
  597MOL0     C78690   5.871   2.773  10.799 -0.6231  0.4120  0.0587
  597MOL0     C78691   5.818   2.710  10.689 -0.1336  0.2943 -0.1806
  597MOL0     C78692   5.837   2.761  10.554 -0.3238 -0.2542 -0.1762
  597MOL0     C78693   5.698   2.769  10.481  1.4555 -0.7027  0.4255
  597MOL0     C78694   5.667   2.651  10.386 -0.7021 -0.5440 -0.9856
  597MOL0     C78695   5.525   2.662  10.328 -0.5558  0.8167 -0.0068
  597MOL0     O78696   5.435   2.643  10.425  0.0935 -0.3871  0.0679
  597MOL0     C78697   5.307   2.698  10.403 -0.8125 -0.1139 -0.2122
  597MOL0     C78698   5.266   2.766  10.284 -0.6495 -0.1819 -0.3744
  597MOL0     C78699   5.135   2.809  10.268 -0.3291 -0.1116 -0.4725
  597MOL0     C78700   5.058   2.806  10.383  1.4125  0.2014  0.5246
  597MOL0     C78701   4.927   2.856  10.374 -0.4889 -0.2243 -0.3619
  597MOL0     O78702   4.841   2.835  10.465  0.1254 -0.0441 -0.0654
  597MOL0     C78703   4.708   2.859  10.442 -0.1593 -0.1395  0.2531
  597MOL0     C78704   4.651   2.980  10.488  0.6653  0.0444 -0.5450
  597MOL0     C78705   4.515   3.007  10.474  0.7855  0.1158 -0.3495
  597MOL0     C78706   4.440   2.918  10.401 -0.1659 -0.4303  0.0948
  597MOL0     O78707   4.311   2.940  10.397  0.0442  0.2097  0.0947
  597MOL0     C78708   4.261   3.060  10.333 -0.4312 -0.1745  0.2329
  597MOL0     C78709   4.150   3.124  10.413 -0.0717 -1.1216 -0.0259
  597MOL0     C78710   4.021   3.051  10.431 -0.3158  0.0195  0.9667
  597MOL0     C78711   3.924   3.074  10.315  0.1978  0.2648  0.0814
  597MOL0     C78712   3.781   3.049  10.370  0.5762  0.5077  0.5500
  597MOL0     C78713   3.684   3.113  10.272  0.4851  1.0182  0.1413
  597MOL0     C78714   3.541   3.096  10.328 -0.5278  0.0537 -0.0942
  597MOL0     C78715   3.443   3.167  10.229 -0.8617  0.3931  0.5532
  597MOL0    Cl78716   3.274   3.138  10.292 -0.3301  0.2766  0.4110
  597MOL0     C78717   4.495   2.799  10.353 -0.0626 -0.1888  0.5140
  597MOL0     C78718   4.627   2.773  10.367  0.9629  0.0487  0.5595
  597MOL0     O78719   4.903   2.937  10.275  0.1385  0.4613 -0.0057
  597MOL0     C78720   5.094   2.729  10.495 -0.5917  0.4093 -1.1785
  597MOL0     C78721   5.220   2.674  10.507  0.0025  0.2897  0.2780
  597MOL0     N78722   5.725   2.620  10.740 -0.3667  0.0220 -0.2653
  597MOL0     N78723   5.728   2.623  10.876  0.0699 -0.1067  0.9294
  597MOL0     C78724   7.035   2.577  10.990  0.0773 -0.0746 -0.0552
  597MOL0     C78725   7.174   2.550  10.975 -0.0329 -0.2988  0.0015
  597MOL0     C78726   7.584   2.488  11.070  0.4515  0.1351 -0.2434
  597MOL0     C78727   7.652   2.492  10.949 -0.6461  0.0949  0.3471
  597MOL0     C78728   7.775   2.424  10.947 -0.3598 -0.0952  0.5984
  597MOL0     C78729   7.832   2.343  11.047 -0.3397  0.3734 -0.4929
  597MOL0     O78730   7.953   2.280  11.020 -0.1808  0.0501  0.2350
  597MOL0     C78731   8.023   2.224  11.120 -0.2208 -0.0363  0.3448
  597MOL0     C78732   8.139   2.137  11.059  0.0395  0.6784  0.1008
  597MOL0     C78733   8.233   2.094  11.168  0.9947  0.0485  0.2225
  597MOL0     C78734   8.352   2.006  11.127  0.6203  0.1500 -0.3521
  597MOL0     C78735   8.316   1.877  11.057  0.4220  0.1953 -0.4817
  597MOL0     C78736   8.271   1.770  11.014  0.4718 -0.1369  0.0944
  597MOL0     C78737   7.763   2.342  11.169  0.0084 -1.0077  0.1109
  597MOL0     C78738   7.648   2.427  11.185  0.1894  0.0839 -0.2643
  597MOL0     H78739   7.307   2.859  10.983 -0.5678  1.0904  2.5440
  597MOL0     H78740   7.067   2.925  10.949 -0.1903 -0.0628 -2.4636
  597MOL0     H78741   6.771   2.623  11.103  1.5703  1.8096  0.8511
  597MOL0     H78742   6.765   2.619  10.929 -2.4239 -0.6521  0.9390
  597MOL0     H78743   6.623   2.834  10.926  1.3938 -0.2009 -0.4044
  597MOL0     H78744   6.627   2.842  11.103  1.4096  1.8951 -2.0776
  597MOL0     H78745   6.490   2.678  11.147 -0.1079  2.6145  0.8953
  597MOL0     H78746   6.521   2.597  10.984 -1.6089  0.8878 -1.6341
  597MOL0     H78747   6.361   2.838  11.046  0.0765  1.1045  0.6848
  597MOL0     H78748   6.382   2.777  10.876 -1.9507 -2.5621 -0.9687
  597MOL0     H78749   6.288   2.606  11.113  1.6978  2.4200  0.0912
  597MOL0     H78750   6.295   2.570  10.939 -2.2865 -0.0066 -2.7305
  597MOL0     H78751   6.127   2.724  10.879 -0.5009 -0.5954  0.0332
  597MOL0     H78752   6.137   2.810  11.032  0.7248  1.1649 -1.3066
  597MOL0     H78753   5.996   2.549  10.970  1.8742  0.7699 -2.3546
  597MOL0     H78754   6.052   2.600  11.131  1.7896  0.7493  0.3308
  597MOL0     H78755   5.926   2.826  11.049 -0.9663  0.6694 -0.0172
  597MOL0     H78756   5.835   2.693  11.123  2.3891 -0.7360  1.2768
  597MOL0     H78757   5.946   2.852  10.794 -0.4933  0.2348 -3.6147
  597MOL0     H78758   5.908   2.697  10.501  2.2837  0.3015  2.4040
  597MOL0     H78759   5.872   2.864  10.559 -0.1824 -0.3602  2.0706
  597MOL0     H78760   5.690   2.856  10.414  1.0916 -0.7245  0.4364
  597MOL0     H78761   5.619   2.783  10.556  2.9481  2.5015  1.6090
  597MOL0     H78762   5.743   2.652  10.308 -1.0057 -0.6680 -1.2814
  597MOL0     H78763   5.689   2.559  10.441  3.7268  0.2519 -1.0582
  597MOL0     H78764   5.527   2.590  10.246  0.2279 -0.1845  0.8513
  597MOL0     H78765   5.507   2.762  10.288 -3.1022  1.1324  1.6434
  597MOL0     H78766   5.319   2.770  10.189 -0.8797 -1.6967 -0.5852
  597MOL0     H78767   5.117   2.852  10.170  0.6813  0.1929 -0.5439
  597MOL0     H78768   4.705   3.051  10.549  0.8593  1.1690 -1.9800
  597MOL0     H78769   4.464   3.090  10.521 -1.4905 -1.7294  0.7093
  597MOL0     H78770   4.221   3.046  10.233 -1.7498 -3.7999  1.1265
  597MOL0     H78771   4.344   3.131  10.334 -1.1330  0.6655 -0.1026
  597MOL0     H78772   4.140   3.223  10.369  1.4549 -1.8715 -2.2092
  597MOL0     H78773   4.185   3.130  10.517 -1.8142  1.0884  0.5163
  597MOL0     H78774   3.967   3.088  10.518 -2.0341  0.8171 -0.3698
  597MOL0     H78775   4.035   2.943  10.441 -0.8859  0.0759  2.5585
  597MOL0     H78776   3.932   3.167  10.258 -1.7406  1.0126  0.9329
  597MOL0     H78777   3.947   2.989  10.250 -0.4101 -1.8134  2.4234
  597MOL0     H78778   3.766   3.099  10.466  0.6058 -0.3727  1.0235
  597MOL0     H78779   3.758   2.943  10.376  1.5316  0.2867  0.4795
  597MOL0     H78780   3.706   3.067  10.175  3.2937 -1.3412  1.7530
  597MOL0     H78781   3.717   3.217  10.282 -1.7303  1.7560  0.4483
  597MOL0     H78782   3.512   2.993  10.352 -1.2033  0.9536  3.5393
  597MOL0     H78783   3.539   3.153  10.421 -2.6491  0.1952 -0.1901
  597MOL0     H78784   3.459   3.131  10.127  1.4381  0.0094  0.9976
  597MOL0     H78785   3.480   3.270  10.238  2.0466 -0.4512 -0.5585
  597MOL0     H78786   4.431   2.731  10.298 -0.0125  0.8885 -0.9142
  597MOL0     H78787   4.671   2.683  10.326 -0.2386 -1.9014  3.2555
  597MOL0     H78788   5.024   2.710  10.575  1.3417 -3.7660 -0.1664
  597MOL0     H78789   5.246   2.631  10.603  0.6472  2.0612  0.9463
  597MOL0     H78790   6.958   2.500  10.986  1.2337 -1.1851 -2.1788
  597MOL0     H78791   7.216   2.450  10.974 -0.1805 -0.3614 -1.6501
  597MOL0     H78792   7.621   2.540  10.858 -0.5873  1.0485  0.8238
  597MOL0     H78793   7.820   2.430  10.849  2.1286  1.1547  1.7188
  597MOL0     H78794   7.954   2.157  11.172  0.7493 -0.4789  1.0926
  597MOL0     H78795   8.059   2.298  11.192  0.7695  0.6667 -0.8259
  597MOL0     H78796   8.086   2.046  11.030 -1.1264  2.1152 -2.6760
  597MOL0     H78797   8.190   2.190  10.978  2.1306 -0.2516  0.7395
  597MOL0     H78798   8.173   2.046  11.245  1.3612  1.1945  1.2431
  597MOL0     H78799   8.257   2.185  11.222 -2.1175  1.0082  0.1839
  597MOL0     H78800   8.434   2.051  11.070  2.8224 -3.4768 -0.3410
  597MOL0     H78801   8.388   1.982  11.227  1.5100 -1.4667 -1.0303
  597MOL0     H78802   8.221   1.682  10.978  0.2188  0.0320  0.0330
  597MOL0     H78803   7.798   2.293  11.260 -1.6068  0.7024  1.7411
  597MOL0     H78804   7.603   2.433  11.284 -2.3069  0.1784 -1.3190
  598MOL0     O78805   1.492   5.985   7.562  0.1282 -0.3899 -0.3876
  598MOL0     C78806   1.431   6.090   7.539  1.2572  0.0781  0.4795
  598MOL0     O78807   1.481   6.221   7.526 -0.4442  0.4563  0.3450
  598MOL0     C78808   1.615   6.240   7.523 -0.5062  0.6906  0.8909
  598MOL0     C78809   1.694   6.188   7.625 -0.7480  0.4478 -0.7006
  598MOL0     C78810   1.834   6.198   7.620 -0.0391 -0.0479  0.4547
  598MOL0     C78811   1.892   6.252   7.500  0.3743 -0.0960  0.3537
  598MOL0     O78812   2.031   6.271   7.467 -0.6219  0.4759  0.0472
  598MOL0     C78813   2.123   6.286   7.581 -0.4292 -0.4421 -0.6485
  598MOL0     C78814   2.268   6.320   7.536  0.1817  0.1614 -0.2790
  598MOL0     C78815   2.366   6.214   7.572 -0.0636  0.6813 -0.2794
  598MOL0     C78816   2.490   6.215   7.494  0.0731  0.5020 -0.0678
  598MOL0     C78817   2.580   6.110   7.558 -0.4796  0.9548  0.2159
  598MOL0     C78818   2.702   6.077   7.485 -0.5325  0.4403  0.0937
  598MOL0     C78819   2.803   6.021   7.578  0.7556 -0.2008  0.6283
  598MOL0     C78820   2.898   6.116   7.645  0.6846 -0.0940 -0.9037
  598MOL0     N78821   2.975   6.194   7.546  0.7516 -0.0049 -0.2038
  598MOL0     C78822   3.083   6.155   7.468 -1.6203  1.1672 -0.7090
  598MOL0     C78823   3.114   6.253   7.386  0.3211 -0.2861  0.2887
  598MOL0     C78824   3.234   6.244   7.297 -0.1398  0.0442 -0.1310
  598MOL0     C78825   3.219   6.142   7.181 -0.2444  0.9401  0.6428
  598MOL0     C78826   3.105   6.176   7.089  0.5349  0.1073 -1.1856
  598MOL0     C78827   2.979   6.094   7.113  1.0759  0.1656 -0.5147
  598MOL0     O78828   2.883   6.145   7.021 -0.2412  0.1118 -0.1100
  598MOL0     C78829   2.747   6.103   7.026  0.5881 -0.3728  0.6776
  598MOL0     C78830   2.667   6.151   6.925 -0.7672 -0.1574 -0.1441
  598MOL0     C78831   2.528   6.128   6.925 -0.3063 -0.0836  0.3322
  598MOL0     C78832   2.470   6.046   7.023  0.9180 -0.7268 -0.1306
  598MOL0     C78833   2.325   6.013   7.009 -0.3561 -0.4442 -1.1278
  598MOL0     O78834   2.254   6.080   6.913 -0.5285 -0.0323  0.4752
  598MOL0     C78835   2.125   6.047   6.887 -0.5374 -0.5063 -0.4707
  598MOL0     C78836   2.013   6.080   6.973  0.8038  1.3064  0.0743
  598MOL0     C78837   1.885   6.030   6.958 -0.4487 -0.4892 -0.4875
  598MOL0     C78838   1.860   5.974   6.839 -0.4966 -0.1424  0.2040
  598MOL0     O78839   1.734   5.938   6.794  0.1662  0.2030 -0.6482
  598MOL0     C78840   1.645   5.892   6.893 -0.3390 -0.1728 -1.0759
  598MOL0     C78841   1.530   5.825   6.830  0.2871  0.2596 -0.0821
  598MOL0     C78842   1.404   5.915   6.832  0.7694  0.0076  0.3040
  598MOL0     C78843   1.286   5.843   6.768  0.5920  0.7809 -0.2885
  598MOL0     C78844   1.170   5.943   6.759 -1.2002 -0.0366  0.1849
  598MOL0     C78845   1.041   5.885   6.706  0.4702 -1.3208 -0.7222
  598MOL0     C78846   0.932   5.989   6.694  0.2827  0.1469  0.2393
  598MOL0     C78847   0.963   6.072   6.565  0.1907  0.0902 -0.4086
  598MOL0    Cl78848   0.982   5.981   6.411  0.8014 -0.0762 -0.0677
  598MOL0     C78849   1.970   5.953   6.749 -0.2269  0.4400  0.0565
  598MOL0     C78850   2.101   5.990   6.766  0.3174  0.6983 -0.3198
  598MOL0     O78851   2.269   5.926   7.081  0.2085  0.1509 -0.1580
  598MOL0     C78852   2.553   5.983   7.110 -0.4211 -0.0227 -0.5049
  598MOL0     C78853   2.691   6.014   7.114  0.0682  0.6693  0.9106
  598MOL0     N78854   3.013   6.347   7.397  0.1831 -0.3751 -0.4953
  598MOL0     N78855   2.939   6.318   7.497 -0.1860 -0.5752 -0.2787
  598MOL0     C78856   1.811   6.306   7.396  0.3872  0.4956 -1.1260
  598MOL0     C78857   1.671   6.308   7.412  0.8550 -0.0041 -1.1571
  598MOL0     C78858   1.284   6.081   7.541  0.8636  0.2343 -1.1189
  598MOL0     C78859   1.211   5.964   7.568 -0.1390  0.3237  0.3951
  598MOL0     C78860   1.071   5.958   7.554 -0.4879 -0.4266 -0.6846
  598MOL0     C78861   1.003   6.077   7.503 -1.1685  1.1906  0.5671
  598MOL0     O78862   0.865   6.072   7.479 -0.4420 -0.6586  0.1281
  598MOL0     C78863   0.796   5.950   7.520  0.8692  0.1584 -0.8206
  598MOL0     C78864   0.649   5.985   7.529 -0.6111  0.6119 -0.6454
  598MOL0     C78865   0.599   6.043   7.390  0.1738 -0.5772  0.4098
  598MOL0     C78866   0.452   6.067   7.369 -0.0725  0.2792  1.1667
  598MOL0     C78867   0.396   6.165   7.463 -0.4437 -0.0340  0.8746
  598MOL0     C78868   0.386   6.265   7.533  0.5065  0.1019 -0.1389
  598MOL0     C78869   1.079   6.197   7.479 -0.0809  0.7966  0.4785
  598MOL0     C78870   1.212   6.196   7.509 -0.6895 -0.4977 -0.1743
  598MOL0     H78871   1.641   6.131   7.701  1.4917 -0.4621  0.2671
  598MOL0     H78872   1.882   6.160   7.709  3.2636  0.5359 -0.9137
  598MOL0     H78873   2.112   6.195   7.640  0.8199 -0.4312 -0.3599
  598MOL0     H78874   2.090   6.363   7.651  1.5746 -1.2351  1.2939
  598MOL0     H78875   2.314   6.414   7.570  2.4375 -0.3588 -1.6850
  598MOL0     H78876   2.262   6.332   7.427 -0.0550  1.8274 -0.1101
  598MOL0     H78877   2.328   6.113   7.557  0.1480  0.1666  2.2057
  598MOL0     H78878   2.390   6.205   7.679 -0.0512  1.1659 -0.2375
  598MOL0     H78879   2.479   6.191   7.388  1.7357  1.8292 -0.5820
  598MOL0     H78880   2.523   6.319   7.493 -0.5614  0.7069 -0.2482
  598MOL0     H78881   2.537   6.011   7.572  0.7572  0.1291 -1.4948
  598MOL0     H78882   2.603   6.144   7.660 -0.5400  1.2844  0.1194
  598MOL0     H78883   2.750   6.165   7.441  0.8229  0.3873  1.4149
  598MOL0     H78884   2.681   6.004   7.406  1.7044  0.3744 -0.5016
  598MOL0     H78885   2.747   5.958   7.649 -2.2658  0.9581 -0.5621
  598MOL0     H78886   2.865   5.956   7.516  2.0065  0.7167  0.8751
  598MOL0     H78887   2.970   6.069   7.713  1.0902  4.6330  2.4052
  598MOL0     H78888   2.846   6.186   7.711 -2.4943 -4.3087  1.6365
  598MOL0     H78889   3.142   6.064   7.473 -1.8043  1.1179  0.8394
  598MOL0     H78890   3.330   6.228   7.346  1.1229  0.2130 -2.4034
  598MOL0     H78891   3.250   6.342   7.252 -1.2617  0.6949  0.8222
  598MOL0     H78892   3.221   6.043   7.228  3.2294  2.5110  4.4772
  598MOL0     H78893   3.310   6.149   7.120 -0.9905  0.3586 -0.5744
  598MOL0     H78894   3.079   6.282   7.092  1.5566  0.3735 -1.1190
  598MOL0     H78895   3.140   6.164   6.986 -2.2787 -1.1080 -2.1034
  598MOL0     H78896   2.936   6.104   7.213  0.8654 -0.9215 -0.4793
  598MOL0     H78897   2.985   5.986   7.096 -2.3179  0.0925 -2.2324
  598MOL0     H78898   2.714   6.216   6.851  0.3677  0.7408  1.3097
  598MOL0     H78899   2.467   6.182   6.853  0.1156 -0.5804 -0.4038
  598MOL0     H78900   2.040   6.117   7.071 -2.5978  0.8586  1.2986
  598MOL0     H78901   1.814   6.041   7.040 -0.9797 -1.3327 -0.8199
  598MOL0     H78902   1.607   5.971   6.958 -0.3492  0.2849 -1.6321
  598MOL0     H78903   1.705   5.819   6.949 -1.7112 -0.1624  0.4806
  598MOL0     H78904   1.504   5.732   6.880 -2.8333  0.7839 -0.5264
  598MOL0     H78905   1.541   5.798   6.725  0.4811  0.7043 -0.1807
  598MOL0     H78906   1.419   6.008   6.777 -1.3378  0.2647  0.1132
  598MOL0     H78907   1.382   5.954   6.932  0.9697  2.9858 -0.7222
  598MOL0     H78908   1.313   5.790   6.677 -1.6439 -3.8115  1.3865
  598MOL0     H78909   1.256   5.768   6.843  0.1606  1.5960  0.3719
  598MOL0     H78910   1.196   6.030   6.698  0.1209 -0.7536 -0.3027
  598MOL0     H78911   1.140   5.979   6.858 -1.7319 -2.1946  0.8758
  598MOL0     H78912   1.003   5.814   6.780 -4.1519  1.2782 -0.2348
  598MOL0     H78913   1.055   5.831   6.612 -2.7151 -0.7634 -1.6336
  598MOL0     H78914   0.832   5.945   6.694  1.0452 -1.6737 -0.3135
  598MOL0     H78915   0.931   6.041   6.790  0.5706 -3.2476  2.2145
  598MOL0     H78916   1.049   6.137   6.579 -0.3596  1.0056 -1.0985
  598MOL0     H78917   0.876   6.139   6.562  0.8793  1.0238 -0.0558
  598MOL0     H78918   1.938   5.895   6.663 -1.4180 -0.5559  1.1483
  598MOL0     H78919   2.177   5.976   6.690  0.6969  2.2816 -0.2739
  598MOL0     H78920   2.514   5.917   7.186  0.6236 -0.8256 -0.6395
  598MOL0     H78921   2.751   5.984   7.199  2.3598  1.2753 -0.4108
  598MOL0     H78922   1.862   6.351   7.311  1.0659  2.3228  0.1753
  598MOL0     H78923   1.605   6.358   7.342  1.6060  3.5139  0.4065
  598MOL0     H78924   1.266   5.879   7.607 -0.1163  0.9943  1.9287
  598MOL0     H78925   1.014   5.871   7.585 -1.3232  0.1212 -0.6454
  598MOL0     H78926   0.807   5.916   7.624 -2.1662  1.6459  0.0857
  598MOL0     H78927   0.832   5.870   7.454  1.7624 -1.9446  1.9987
  598MOL0     H78928   0.580   5.907   7.561 -2.1750  1.3516 -2.0650
  598MOL0     H78929   0.636   6.058   7.610 -0.7950 -0.0056 -0.1129
  598MOL0     H78930   0.633   5.974   7.313  1.3959  0.7111 -0.2567
  598MOL0     H78931   0.638   6.142   7.364 -3.1832  0.8723  0.3596
  598MOL0     H78932   0.440   6.104   7.267  0.3000 -2.8040 -0.1055
  598MOL0     H78933   0.396   5.974   7.369 -0.0622  0.2243 -1.0751
  598MOL0     H78934   0.388   6.359   7.583 -1.5492  1.2851 -2.1048
  598MOL0     H78935   1.025   6.289   7.460 -3.7384 -1.3029 -0.2171
  598MOL0     H78936   1.260   6.292   7.489  1.2372 -2.0927 -4.2778
  599MOL0     O78937   3.557   0.027   6.171  0.3132  0.2086  0.4139
  599MOL0     C78938   3.644   0.026   6.083  0.1396 -0.6135 -0.8149
  599MOL0     O78939   3.617  -0.008   5.961  0.0108 -0.3582 -0.0486
  599MOL0     C78940   3.484  -0.020   5.933  0.7011  0.0966  0.1952
  599MOL0     C78941   3.377   0.066   5.958  0.1264  0.1436 -0.4333
  599MOL0     C78942   3.246   0.035   5.907  0.0265 -0.8610  0.4675
  599MOL0     C78943   3.228  -0.075   5.833 -0.6584  0.1718  0.7858
  599MOL0     O78944   3.094  -0.109   5.819 -0.1147  0.1165  0.4263
  599MOL0     C78945   3.063  -0.246   5.813 -0.3157 -0.1195 -0.0577
  599MOL0     C78946   2.916  -0.266   5.845 -0.0025  0.5235 -0.1814
  599MOL0     C78947   2.879  -0.411   5.840 -0.2276 -0.4875  0.3932
  599MOL0     C78948   2.730  -0.427   5.860 -1.0340  0.2850 -0.3513
  599MOL0     C78949   2.718  -0.459   6.011 -0.3851 -0.2741 -0.4408
  599MOL0     C78950   2.579  -0.504   6.042  0.4230  0.6492  0.5303
  599MOL0     C78951   2.563  -0.493   6.189 -0.2214 -0.0206 -0.3380
  599MOL0     C78952   2.413  -0.506   6.215  0.7154 -0.4741 -0.3961
  599MOL0     N78953   2.368  -0.640   6.177 -0.0719 -0.1702  0.2406
  599MOL0     C78954   2.337  -0.730   6.279 -0.1501 -0.5094 -0.0987
  599MOL0     C78955   2.277  -0.833   6.217 -0.6016  1.4027  1.0697
  599MOL0     C78956   2.221  -0.953   6.288 -0.1113  0.5212 -0.8798
  599MOL0     C78957   2.330  -1.028   6.372 -0.4360  0.3951  1.3439
  599MOL0     C78958   2.300  -1.159   6.445 -0.1961 -0.7987 -0.4375
  599MOL0     C78959   2.174  -1.127   6.534 -0.3114 -0.4596 -0.4417
  599MOL0     O78960   2.065  -1.154   6.455 -0.3570 -0.3624  0.7245
  599MOL0     C78961   1.943  -1.157   6.508  0.1080 -0.2818 -0.2523
  599MOL0     C78962   1.901  -1.102   6.633 -0.8140  0.6601  0.1841
  599MOL0     C78963   1.766  -1.099   6.665  0.1842 -1.0692  0.0112
  599MOL0     C78964   1.671  -1.151   6.576  0.7163  1.2032  0.1015
  599MOL0     C78965   1.527  -1.158   6.612  0.9492 -0.2976  0.7307
  599MOL0     O78966   1.486  -1.067   6.706 -0.4819  0.8119  0.9133
  599MOL0     C78967   1.351  -1.054   6.731 -0.5716  0.6213  0.5803
  599MOL0     C78968   1.292  -0.925   6.718 -0.6577 -0.3448  0.7928
  599MOL0     C78969   1.163  -0.910   6.771 -0.1517  0.2818 -1.3038
  599MOL0     C78970   1.101  -1.014   6.848 -1.1534  1.2412 -0.1231
  599MOL0     O78971   0.981  -0.977   6.895 -0.6360  1.0506 -0.7098
  599MOL0     C78972   0.897  -1.082   6.941  0.0803 -0.2289 -0.0858
  599MOL0     C78973   0.785  -1.004   7.003  0.6078  0.6368  0.2975
  599MOL0     C78974   0.692  -1.105   7.061  0.5139 -0.1761 -0.5068
  599MOL0     C78975   0.569  -1.030   7.110  0.5710  0.4767 -0.2398
  599MOL0     C78976   0.471  -1.129   7.179 -0.0192 -0.3561  0.0900
  599MOL0     C78977   0.340  -1.060   7.219  1.0094  0.4876 -0.0596
  599MOL0     C78978   0.265  -1.025   7.095 -0.1822 -0.7930  0.0695
  599MOL0     C78979   0.125  -0.987   7.132 -0.1360 -0.4068  0.1730
  599MOL0    Cl78980   0.107  -0.857   7.254  0.1423  0.0916  0.3298
  599MOL0     C78981   1.165  -1.137   6.858  0.3973 -0.0817 -0.7565
  599MOL0     C78982   1.284  -1.165   6.791  0.4299 -0.7866  0.5462
  599MOL0     O78983   1.453  -1.210   6.528  0.1359 -0.6372  0.2094
  599MOL0     C78984   1.711  -1.212   6.459  0.7583  0.6677  1.4231
  599MOL0     C78985   1.846  -1.207   6.420 -0.0023 -0.3979  0.4997
  599MOL0     N78986   2.256  -0.810   6.080 -0.4660  0.5100  0.2511
  599MOL0     N78987   2.303  -0.694   6.065  0.0306 -0.0268 -0.5459
  599MOL0     C78988   3.343  -0.155   5.801  0.4245 -0.3417 -0.3248
  599MOL0     C78989   3.472  -0.128   5.843 -0.3423 -0.4113  0.4893
  599MOL0     C78990   3.778   0.061   6.112 -0.9026 -0.4230  0.6497
  599MOL0     C78991   3.817   0.117   6.234  0.0179  1.1155  0.0757
  599MOL0     C78992   3.952   0.141   6.253 -0.0792  0.1993 -0.1357
  599MOL0     C78993   4.052   0.109   6.152  0.1861 -0.6255  0.2501
  599MOL0     O78994   4.182   0.149   6.166 -0.0814  0.3525 -0.1686
  599MOL0     C78995   4.241   0.219   6.278 -0.2223  0.2468 -0.5188
  599MOL0     C78996   4.389   0.235   6.251  1.4428  0.5859 -0.2678
  599MOL0     C78997   4.464   0.320   6.353  0.4130  0.0535  0.1435
  599MOL0     C78998   4.599   0.285   6.335 -1.3638  1.1850  0.1154
  599MOL0     C78999   4.678   0.400   6.378 -0.5775 -0.6618 -0.4944
  599MOL0     C79000   4.751   0.493   6.409  0.0555  0.0311 -0.3512
  599MOL0     C79001   4.014   0.052   6.034  0.5156 -1.3756  0.3653
  599MOL0     C79002   3.878   0.039   6.013  0.7733 -0.4616  0.0671
  599MOL0     H79003   3.382   0.156   6.019  1.8939  0.3839 -0.8797
  599MOL0     H79004   3.159   0.099   5.924 -1.1714 -2.0904 -0.7676
  599MOL0     H79005   3.128  -0.300   5.882  3.9073  2.3411 -1.6909
  599MOL0     H79006   3.088  -0.285   5.713  1.6608  1.2266 -0.1466
  599MOL0     H79007   2.854  -0.220   5.767  0.9431  1.1722 -0.5711
  599MOL0     H79008   2.890  -0.225   5.943 -2.4674 -1.5456  0.1311
  599MOL0     H79009   2.932  -0.472   5.914  0.0165 -0.0284  0.6019
  599MOL0     H79010   2.902  -0.462   5.746  0.9249 -4.0001  2.3940
  599MOL0     H79011   2.664  -0.350   5.819 -0.1107  0.1288 -2.2155
  599MOL0     H79012   2.706  -0.521   5.809  1.3911 -0.4730 -0.2199
  599MOL0     H79013   2.732  -0.363   6.061 -2.1929  0.5006 -1.3188
  599MOL0     H79014   2.797  -0.524   6.048  1.8365  1.6510 -1.5689
  599MOL0     H79015   2.577  -0.607   6.005  2.7213  1.0072 -0.8497
  599MOL0     H79016   2.505  -0.438   5.995 -1.0759  0.6133  2.6735
  599MOL0     H79017   2.626  -0.576   6.224 -1.4052 -1.3850 -1.3369
  599MOL0     H79018   2.602  -0.395   6.219  1.1015  0.5905 -3.5610
  599MOL0     H79019   2.353  -0.433   6.161  0.8865 -0.4285 -0.5247
  599MOL0     H79020   2.400  -0.494   6.323  3.1967  0.2919 -0.1273
  599MOL0     H79021   2.377  -0.712   6.378 -1.6884  3.2646  0.0147
  599MOL0     H79022   2.162  -1.016   6.221 -3.4184  1.9250  0.5181
  599MOL0     H79023   2.137  -0.917   6.348  0.5550  1.4472 -0.4812
  599MOL0     H79024   2.389  -0.970   6.444  0.4302  0.3706  0.6725
  599MOL0     H79025   2.414  -1.051   6.306 -0.4422  0.2099  1.3980
  599MOL0     H79026   2.276  -1.226   6.361  0.2066 -1.0791 -0.3320
  599MOL0     H79027   2.387  -1.193   6.502 -0.4942 -2.0538 -0.6939
  599MOL0     H79028   2.187  -1.021   6.558 -0.5527  0.4856 -3.9886
  599MOL0     H79029   2.168  -1.186   6.626  0.6187  0.4648  0.2484
  599MOL0     H79030   1.966  -1.043   6.696  0.0094 -0.6462  0.5879
  599MOL0     H79031   1.733  -1.055   6.758  0.7418  1.4824 -0.9176
  599MOL0     H79032   1.340  -0.842   6.668  4.2093  0.5408  5.9549
  599MOL0     H79033   1.121  -0.810   6.760  2.7788  1.7652 -0.3145
  599MOL0     H79034   0.943  -1.144   7.018  2.6661 -0.3945 -1.6318
  599MOL0     H79035   0.859  -1.144   6.859 -1.5764  0.5558  0.0664
  599MOL0     H79036   0.733  -0.950   6.924 -1.5019 -1.0603  0.4331
  599MOL0     H79037   0.820  -0.942   7.086 -1.1585  2.1031  0.0046
  599MOL0     H79038   0.738  -1.161   7.143 -0.3279  0.3330  0.3280
  599MOL0     H79039   0.654  -1.183   6.995 -0.2831 -0.6952  0.5332
  599MOL0     H79040   0.581  -0.950   7.183  3.1413  1.1047 -1.2312
  599MOL0     H79041   0.518  -0.989   7.022 -3.2281  1.1002  2.0214
  599MOL0     H79042   0.508  -1.151   7.280 -1.6274  0.4868  0.9167
  599MOL0     H79043   0.457  -1.225   7.128 -0.9604  0.5762 -1.4751
  599MOL0     H79044   0.355  -0.971   7.282 -0.0190  0.7154 -0.1169
  599MOL0     H79045   0.279  -1.126   7.282  1.2818  2.7250  2.7791
  599MOL0     H79046   0.306  -0.930   7.060  0.7588 -0.9183  0.7890
  599MOL0     H79047   0.272  -1.097   7.013 -1.0941 -0.6786 -0.1187
  599MOL0     H79048   0.078  -1.083   7.156  0.1880 -0.3776  0.9558
  599MOL0     H79049   0.075  -0.945   7.045 -1.7226  2.2858  2.2295
  599MOL0     H79050   1.124  -1.219   6.915 -0.0651  0.0228 -0.9293
  599MOL0     H79051   1.324  -1.264   6.812 -1.8549 -2.5566 -2.6226
  599MOL0     H79052   1.643  -1.238   6.378  1.3662  2.2178  0.3720
  599MOL0     H79053   1.871  -1.225   6.316  0.7857  0.5693  0.5102
  599MOL0     H79054   3.320  -0.235   5.731  0.9111 -0.0387 -0.8390
  599MOL0     H79055   3.550  -0.201   5.819  0.0587  0.1509  0.0488
  599MOL0     H79056   3.737   0.114   6.308 -0.5017 -1.1237 -0.4782
  599MOL0     H79057   3.976   0.186   6.349  1.6946 -1.6183  0.3259
  599MOL0     H79058   4.215   0.170   6.373  2.3031  3.1264  1.8455
  599MOL0     H79059   4.195   0.318   6.270 -0.2557  0.2719 -0.0481
  599MOL0     H79060   4.435   0.137   6.236 -0.1459 -0.1609 -0.4327
  599MOL0     H79061   4.402   0.271   6.149 -0.7427 -2.8352 -1.9366
  599MOL0     H79062   4.424   0.293   6.451 -3.2577 -0.1343 -1.2349
  599MOL0     H79063   4.433   0.419   6.320 -1.3457 -1.1945 -2.3489
  599MOL0     H79064   4.635   0.195   6.386 -0.3315  0.2671 -2.1216
  599MOL0     H79065   4.623   0.275   6.229  0.3617  0.8814  0.5057
  599MOL0     H79066   4.816   0.573   6.435  1.4815 -1.4209  0.7756
  599MOL0     H79067   4.096   0.023   5.968  0.3581 -1.2185  0.0949
  599MOL0     H79068   3.847   0.012   5.912 -0.5690 -1.3855  0.6927
  600MOL0     O79069   5.482   2.284   8.584  0.2031 -0.4657  0.2266
  600MOL0     C79070   5.490   2.204   8.679 -0.3258 -0.4208  0.3270
  600MOL0     O79071   5.396   2.114   8.718  0.3345 -0.2505  0.0382
  600MOL0     C79072   5.273   2.122   8.655  0.0215 -0.2929 -0.5392
  600MOL0     C79073   5.235   2.010   8.580 -0.6465  0.8925 -0.2603
  600MOL0     C79074   5.106   2.013   8.522 -0.2943 -0.4453  0.1218
  600MOL0     C79075   5.027   2.126   8.528 -0.2827 -0.1245  0.1319
  600MOL0     O79076   4.913   2.133   8.454 -0.9749  0.1718  0.0778
  600MOL0     C79077   4.916   2.199   8.329  0.3986  0.0600 -0.2182
  600MOL0     C79078   5.006   2.131   8.224  0.4969 -0.9168  0.7813
  600MOL0     C79079   5.020   2.222   8.103  0.1788 -0.0453  0.1664
  600MOL0     C79080   5.098   2.161   7.990  0.9738 -0.4419  0.1479
  600MOL0     C79081   5.115   2.259   7.871 -0.3500 -0.3426  0.1908
  600MOL0     C79082   5.178   2.188   7.753 -0.0098  0.2943 -0.0085
  600MOL0     C79083   5.086   2.076   7.689  0.3138 -0.8385  0.3311
  600MOL0     C79084   4.960   2.134   7.634 -0.3704 -0.9923  0.2718
  600MOL0     N79085   4.980   2.238   7.531 -0.2328  0.7239 -0.2844
  600MOL0     C79086   5.078   2.221   7.431  1.5246 -0.7776 -0.1293
  600MOL0     C79087   5.081   2.339   7.365 -0.3358  0.5023 -0.2707
  600MOL0     C79088   5.143   2.378   7.232  0.5767  0.0465  0.6310
  600MOL0     C79089   5.282   2.443   7.264 -0.8833  0.0625 -0.4919
  600MOL0     C79090   5.356   2.488   7.137 -0.5105  0.6564 -0.3741
  600MOL0     C79091   5.463   2.385   7.096 -0.6413  1.0202  0.0926
  600MOL0     O79092   5.586   2.397   7.176  0.8715  1.1541  0.3332
  600MOL0     C79093   5.676   2.301   7.133 -0.6614 -0.0398  0.0104
  600MOL0     C79094   5.700   2.186   7.198 -0.2139 -1.0947 -0.5104
  600MOL0     C79095   5.782   2.091   7.147  0.1584  0.6890 -0.1555
  600MOL0     C79096   5.841   2.110   7.025  0.3955 -0.1139 -0.2121
  600MOL0     C79097   5.940   2.010   6.981 -0.3674  0.0748  0.2607
  600MOL0     O79098   6.009   1.940   7.084  0.1739 -0.6144 -0.3962
  600MOL0     C79099   6.110   1.863   7.035 -0.3702  0.6041  0.3958
  600MOL0     C79100   6.231   1.914   7.020  0.2598 -0.0863 -0.3772
  600MOL0     C79101   6.337   1.851   6.959  1.3206  0.6464  0.5479
  600MOL0     C79102   6.320   1.708   6.935 -0.0443  0.0140 -0.0392
  600MOL0     O79103   6.415   1.636   6.879  0.0654  1.0321 -0.6225
  600MOL0     C79104   6.551   1.671   6.897 -1.0658 -0.1053 -0.3475
  600MOL0     C79105   6.645   1.545   6.890 -0.3011 -0.2565  0.2438
  600MOL0     C79106   6.602   1.420   6.965  0.2148  0.1147 -0.4038
  600MOL0     C79107   6.580   1.456   7.112 -0.0116 -0.3617  0.4937
  600MOL0     C79108   6.600   1.329   7.188 -0.4385 -0.1185  0.2134
  600MOL0     C79109   6.510   1.210   7.144  0.6812  0.1084 -0.1377
  600MOL0     C79110   6.366   1.244   7.105 -0.1127  0.5812 -0.8497
  600MOL0     C79111   6.293   1.250   7.236 -0.0677  0.3548  0.4350
  600MOL0    Cl79112   6.128   1.297   7.182  0.4380  0.5086 -0.2243
  600MOL0     C79113   6.193   1.648   6.951 -0.6004  0.7041 -0.5865
  600MOL0     C79114   6.090   1.724   7.002  0.0338 -0.1486  0.3438
  600MOL0     O79115   5.948   1.990   6.861  0.4360 -0.1267 -0.5848
  600MOL0     C79116   5.818   2.231   6.959 -0.0495 -0.4484  0.1026
  600MOL0     C79117   5.737   2.322   7.011  0.9720 -1.2758 -0.7527
  600MOL0     N79118   5.014   2.430   7.436  0.3604  0.6041 -0.0970
  600MOL0     N79119   4.950   2.371   7.537 -0.3457  0.6217 -0.2952
  600MOL0     C79120   5.072   2.235   8.596 -0.8502  0.2677  0.2940
  600MOL0     C79121   5.197   2.236   8.660  0.7699 -0.1223  0.1244
  600MOL0     C79122   5.602   2.219   8.770 -0.6712 -0.2750  0.3716
  600MOL0     C79123   5.679   2.337   8.773  0.4256 -0.8708 -0.4978
  600MOL0     C79124   5.784   2.360   8.854 -0.6140  0.1711  0.0533
  600MOL0     C79125   5.831   2.258   8.931  0.5697 -0.3713 -0.1378
  600MOL0     O79126   5.947   2.277   9.005 -0.2749 -0.7084 -0.4479
  600MOL0     C79127   5.987   2.176   9.104 -0.9013 -0.7085  0.0235
  600MOL0     C79128   6.088   2.227   9.208  0.5598  0.0473  0.3937
  600MOL0     C79129   6.136   2.112   9.298 -0.0444  0.2879  0.6792
  600MOL0     C79130   6.024   2.055   9.387  0.6156 -0.9321  0.0276
  600MOL0     C79131   6.081   1.963   9.482  0.3394 -0.4774 -0.8255
  600MOL0     C79132   6.121   1.884   9.561 -0.4247  0.9928  0.2214
  600MOL0     C79133   5.756   2.141   8.930 -0.1918 -0.1241 -0.5225
  600MOL0     C79134   5.645   2.119   8.852  0.0639 -0.8886  0.1974
  600MOL0     H79135   5.306   1.927   8.574 -3.2582 -1.4012 -2.5331
  600MOL0     H79136   5.055   1.937   8.464 -1.5753  0.2881  0.2401
  600MOL0     H79137   4.954   2.300   8.344  1.5217 -0.1968 -1.1090
  600MOL0     H79138   4.816   2.196   8.285  0.3028 -1.0544  0.0565
  600MOL0     H79139   4.979   2.030   8.191  0.2737 -1.5396  2.7552
  600MOL0     H79140   5.110   2.140   8.258  1.6943  2.4482 -2.9889
  600MOL0     H79141   5.069   2.317   8.128 -0.3933  0.4497 -0.5708
  600MOL0     H79142   4.918   2.224   8.064  0.3985  0.9216 -0.3904
  600MOL0     H79143   5.200   2.140   8.024  0.4673  0.7203  2.6210
  600MOL0     H79144   5.042   2.069   7.968 -1.2182  0.6298  0.8673
  600MOL0     H79145   5.180   2.338   7.911 -1.2028 -0.2704  1.4783
  600MOL0     H79146   5.018   2.298   7.839 -0.9185 -2.3154 -0.6449
  600MOL0     H79147   5.269   2.143   7.795  1.6198  3.4376  0.0787
  600MOL0     H79148   5.201   2.260   7.674 -1.3636 -0.3101 -0.9969
  600MOL0     H79149   5.123   2.017   7.604  1.3306  1.2110 -0.7021
  600MOL0     H79150   5.059   2.001   7.764 -0.4360 -0.3776  0.5228
  600MOL0     H79151   4.905   2.178   7.718 -0.7806  3.4183 -2.0117
  600MOL0     H79152   4.894   2.057   7.592 -0.0379  0.7881 -4.0265
  600MOL0     H79153   5.110   2.128   7.386  2.0640 -0.0869 -1.2394
  600MOL0     H79154   5.075   2.452   7.188  0.1247 -0.1131  1.0648
  600MOL0     H79155   5.149   2.292   7.164  0.7699  0.9661 -0.5555
  600MOL0     H79156   5.349   2.370   7.310 -0.4766  1.8087  1.8270
  600MOL0     H79157   5.281   2.528   7.333  4.6636 -0.4612  0.7266
  600MOL0     H79158   5.285   2.482   7.054  1.5239 -1.3463 -2.0765
  600MOL0     H79159   5.395   2.589   7.151 -1.2526  0.7227  1.6666
  600MOL0     H79160   5.483   2.411   6.991  0.5790  0.1120  0.0812
  600MOL0     H79161   5.416   2.286   7.102  0.2579  0.4725 -1.2564
  600MOL0     H79162   5.643   2.164   7.288 -1.3605 -2.7271 -1.5707
  600MOL0     H79163   5.795   1.998   7.202  0.1993  1.1626  0.6479
  600MOL0     H79164   6.238   2.021   7.036 -2.3510  0.2343 -0.9623
  600MOL0     H79165   6.419   1.913   6.927  0.1696  1.3349 -1.2025
  600MOL0     H79166   6.571   1.720   6.993 -0.7515 -0.9904  0.0589
  600MOL0     H79167   6.574   1.735   6.811  0.2130 -0.1197 -0.0355
  600MOL0     H79168   6.747   1.571   6.920  0.7714  0.0157 -3.2103
  600MOL0     H79169   6.645   1.523   6.783 -3.0553  0.3619  0.0677
  600MOL0     H79170   6.673   1.342   6.936  1.0808  0.9501 -0.5890
  600MOL0     H79171   6.505   1.393   6.922 -0.5347  3.6198 -1.2004
  600MOL0     H79172   6.655   1.521   7.157  0.3552 -1.5225  1.6210
  600MOL0     H79173   6.486   1.506   7.140 -0.5462 -0.1974 -1.4406
  600MOL0     H79174   6.582   1.359   7.292  1.4248  2.4991 -0.1391
  600MOL0     H79175   6.709   1.314   7.192 -0.1473  1.8542  2.9575
  600MOL0     H79176   6.522   1.133   7.220 -1.3264 -1.4774 -1.3195
  600MOL0     H79177   6.552   1.147   7.064  2.7953 -0.6068  1.4624
  600MOL0     H79178   6.356   1.337   7.048 -0.2061  1.8573  1.1171
  600MOL0     H79179   6.311   1.167   7.051 -2.0522  2.4332 -1.7032
  600MOL0     H79180   6.319   1.329   7.307 -0.2689  1.3091 -0.5299
  600MOL0     H79181   6.288   1.154   7.288  0.4865  0.0849 -0.0091
  600MOL0     H79182   6.168   1.549   6.915  0.5430  1.0862 -2.5480
  600MOL0     H79183   5.991   1.681   7.016  0.2115 -1.0744 -1.0359
  600MOL0     H79184   5.864   2.258   6.864 -0.6770  1.1827  0.2200
  600MOL0     H79185   5.709   2.411   6.954  0.0720 -0.3096  1.0946
  600MOL0     H79186   5.009   2.322   8.615 -1.5072 -0.4382  1.4869
  600MOL0     H79187   5.239   2.317   8.719  4.8227  0.2689 -2.8552
  600MOL0     H79188   5.663   2.421   8.706 -0.1632  0.1836  0.9137
  600MOL0     H79189   5.835   2.455   8.855 -0.1773  0.0156 -2.3787
  600MOL0     H79190   6.034   2.096   9.046 -0.9166  0.7386 -2.0820
  600MOL0     H79191   5.893   2.147   9.152 -1.5518 -1.8007 -1.8044
  600MOL0     H79192   6.163   2.268   9.140 -0.2934  0.2958 -0.4142
  600MOL0     H79193   6.055   2.304   9.278 -1.5415 -1.4566  1.1608
  600MOL0     H79194   6.211   2.157   9.363  2.3189 -3.0882  0.5341
  600MOL0     H79195   6.181   2.037   9.232 -2.7564  0.6962 -1.8584
  600MOL0     H79196   5.985   2.145   9.436  2.2079 -1.2582  2.0090
  600MOL0     H79197   5.946   2.005   9.329 -2.5735  2.2661  1.1647
  600MOL0     H79198   6.147   1.794   9.614  2.6956  1.5342 -0.2134
  600MOL0     H79199   5.796   2.054   8.983  1.1549  1.3111  0.9249
  600MOL0     H79200   5.592   2.024   8.856  1.6940 -1.8253  0.1818
  601MOL0     O79201   3.507   8.471  11.142 -0.1815 -0.1761 -0.0677
  601MOL0     C79202   3.483   8.545  11.233 -0.2964 -0.8988 -0.7661
  601MOL0     O79203   3.367   8.567  11.281 -0.0912 -0.2842 -0.1035
  601MOL0     C79204   3.254   8.502  11.233 -0.7234  0.4722  0.0493
  601MOL0     C79205   3.161   8.580  11.175 -0.2239  0.0666  0.3879
  601MOL0     C79206   3.047   8.519  11.114  0.1045  0.0887 -0.0094
  601MOL0     C79207   3.019   8.383  11.133  0.2197  0.1946  0.3587
  601MOL0     O79208   2.917   8.327  11.063 -0.2873  0.2106 -0.5134
  601MOL0     C79209   2.837   8.232  11.131 -0.5787  0.8159  0.1341
  601MOL0     C79210   2.695   8.280  11.160  0.4323 -0.8288  0.5536
  601MOL0     C79211   2.638   8.349  11.030 -0.8014  0.0164  0.6231
  601MOL0     C79212   2.492   8.367  11.037 -0.0486  1.0212 -0.8236
  601MOL0     C79213   2.427   8.452  10.927  0.0290  1.2261  0.3769
  601MOL0     C79214   2.440   8.372  10.796  0.3583  0.8383 -0.4647
  601MOL0     C79215   2.342   8.418  10.689 -0.1251  0.1532 -0.2084
  601MOL0     C79216   2.332   8.316  10.579  0.1808  0.1990  1.2248
  601MOL0     N79217   2.242   8.370  10.472  0.5645  0.6711 -0.3195
  601MOL0     C79218   2.120   8.319  10.434 -0.2203 -0.2380 -0.0273
  601MOL0     C79219   2.060   8.417  10.351  0.0796  0.3188  0.5472
  601MOL0     C79220   1.928   8.431  10.293 -0.2485  0.0157 -0.9609
  601MOL0     C79221   1.817   8.369  10.384 -1.3237  0.6353 -0.4017
  601MOL0     C79222   1.680   8.373  10.334 -0.4909 -0.0807  0.3843
  601MOL0     C79223   1.619   8.516  10.372  1.1876  0.1787  0.3922
  601MOL0     O79224   1.493   8.533  10.310 -0.5031  0.1802 -0.6856
  601MOL0     C79225   1.387   8.459  10.350 -0.3026 -0.2414  0.3689
  601MOL0     C79226   1.277   8.453  10.259  0.0127  0.3442  0.2538
  601MOL0     C79227   1.153   8.407  10.297  0.3660  0.0523  0.3066
  601MOL0     C79228   1.131   8.354  10.426  0.8195 -0.2062 -0.0835
  601MOL0     C79229   1.000   8.301  10.480  0.4142  0.5737  0.0524
  601MOL0     O79230   0.906   8.273  10.388  0.3031 -0.2219 -0.5941
  601MOL0     C79231   0.777   8.226  10.412 -0.5265 -0.2323  0.3404
  601MOL0     C79232   0.757   8.101  10.464  0.2817 -0.7202 -0.5887
  601MOL0     C79233   0.620   8.054  10.479 -0.6490 -0.2975  0.1580
  601MOL0     C79234   0.510   8.122  10.431 -0.3731  0.1998 -0.3776
  601MOL0     O79235   0.391   8.060  10.436 -0.8611 -0.0322  0.3713
  601MOL0     C79236   0.275   8.126  10.377 -0.8047 -0.6372  0.2526
  601MOL0     C79237   0.165   8.020  10.366  0.1773 -0.6152 -0.2715
  601MOL0     C79238   0.081   8.005  10.497 -0.4951  1.1624 -0.3009
  601MOL0     C79239  -0.044   7.914  10.476 -0.0098 -0.3564  0.2943
  601MOL0     C79240  -0.135   7.897  10.602 -0.1023  0.6508  0.1615
  601MOL0     C79241  -0.266   7.832  10.571  1.3503  0.2386 -0.1838
  601MOL0     C79242  -0.364   7.838  10.689 -0.0330 -0.4335  0.3907
  601MOL0     C79243  -0.450   7.968  10.687 -0.6724  0.3798 -0.4080
  601MOL0    Cl79244  -0.530   8.015  10.535 -0.4723  0.6269  0.1629
  601MOL0     C79245   0.533   8.252  10.379 -0.3339 -0.0291 -0.4671
  601MOL0     C79246   0.666   8.300  10.364 -0.2868  0.2517 -0.0265
  601MOL0     O79247   0.993   8.282  10.602 -0.0822  0.2581  0.0114
  601MOL0     C79248   1.243   8.346  10.507  0.0167  0.8709 -0.4252
  601MOL0     C79249   1.371   8.394  10.472  0.3969  0.2123  0.6174
  601MOL0     N79250   2.151   8.512  10.329  0.9345  0.3113  1.0549
  601MOL0     N79251   2.252   8.486  10.405 -0.2852  0.2653  0.0636
  601MOL0     C79252   3.114   8.311  11.203 -0.4560  0.1573 -0.0240
  601MOL0     C79253   3.238   8.368  11.245  0.3746 -0.5006 -0.2779
  601MOL0     C79254   3.589   8.619  11.295  0.0083 -0.5514 -0.0902
  601MOL0     C79255   3.567   8.732  11.391  0.1470  0.1032 -0.1672
  601MOL0     C79256   3.666   8.798  11.455 -0.1712 -0.0397 -0.1526
  601MOL0     C79257   3.798   8.760  11.431  0.3287  0.1327  0.7521
  601MOL0     O79258   3.882   8.830  11.503  0.4382 -0.9831  0.0087
  601MOL0     C79259   4.019   8.799  11.518 -0.2509  0.0712  0.1556
  601MOL0     C79260   4.122   8.839  11.414  0.0257  0.1239  0.3460
  601MOL0     C79261   4.190   8.976  11.431  0.2687 -0.1470 -0.0598
  601MOL0     C79262   4.258   9.035  11.301  0.3397  0.0309  0.6077
  601MOL0     C79263   4.398   9.067  11.326  0.7741  0.0711 -0.2954
  601MOL0     C79264   4.503   9.113  11.361 -0.1946  0.1855  0.5562
  601MOL0     C79265   3.829   8.650  11.338  0.5286 -1.2360 -0.0779
  601MOL0     C79266   3.724   8.577  11.285  0.9313  0.1880  0.2919
  601MOL0     H79267   3.176   8.687  11.166  2.3762 -0.3502 -1.5258
  601MOL0     H79268   2.978   8.574  11.050  0.7715 -2.3598 -3.1184
  601MOL0     H79269   2.864   8.205  11.234  0.1976  2.5123  0.4128
  601MOL0     H79270   2.841   8.138  11.075  1.2235  0.8949  0.0826
  601MOL0     H79271   2.684   8.352  11.241 -0.5820 -1.3892  0.9356
  601MOL0     H79272   2.628   8.198  11.187  1.6812 -1.6341  1.3126
  601MOL0     H79273   2.663   8.292  10.940  2.1264  1.7056  0.2317
  601MOL0     H79274   2.687   8.446  11.017  0.9510 -1.1454 -2.5522
  601MOL0     H79275   2.449   8.266  11.046  0.5609  0.9361  1.8778
  601MOL0     H79276   2.469   8.414  11.133  0.2415 -2.0002  0.8694
  601MOL0     H79277   2.482   8.547  10.921 -1.3432  2.0315 -0.0321
  601MOL0     H79278   2.324   8.479  10.954  0.0615  1.2024  0.5241
  601MOL0     H79279   2.425   8.266  10.820 -0.3743  0.7561 -1.2385
  601MOL0     H79280   2.544   8.375  10.763  0.4393  3.4296 -0.1540
  601MOL0     H79281   2.244   8.428  10.736 -0.6511 -1.4722 -0.8915
  601MOL0     H79282   2.384   8.513  10.656 -0.5810  1.6392  3.1074
  601MOL0     H79283   2.288   8.224  10.620  1.3825 -0.8390  0.2899
  601MOL0     H79284   2.434   8.286  10.550 -0.3556  0.7530 -1.5076
  601MOL0     H79285   2.086   8.222  10.470  2.4745 -1.1922  0.1057
  601MOL0     H79286   1.921   8.379  10.197 -1.1442  1.9630 -2.0093
  601MOL0     H79287   1.897   8.534  10.276  0.8303  0.7288  1.0232
  601MOL0     H79288   1.830   8.404  10.487  0.1247 -1.1762  0.0795
  601MOL0     H79289   1.832   8.264  10.410 -2.9497  1.1873  3.3833
  601MOL0     H79290   1.663   8.359  10.227 -3.0809 -1.3485  0.8914
  601MOL0     H79291   1.619   8.294  10.378 -2.1056  2.6580  3.4797
  601MOL0     H79292   1.675   8.596  10.323 -0.9230  1.1261 -0.6097
  601MOL0     H79293   1.608   8.533  10.480  1.8476  1.1583  0.3150
  601MOL0     H79294   1.287   8.487  10.156 -3.1525  0.1133 -0.2218
  601MOL0     H79295   1.070   8.413  10.227  0.1435 -3.1388  0.1367
  601MOL0     H79296   0.842   8.045  10.500  1.1795  1.1527  0.3547
  601MOL0     H79297   0.592   7.958  10.521 -0.2832 -0.0942  0.8901
  601MOL0     H79298   0.294   8.165  10.277 -2.8806 -0.5164 -0.1345
  601MOL0     H79299   0.245   8.214  10.435  0.4773 -1.4014  2.1719
  601MOL0     H79300   0.205   7.931  10.318  0.9881 -0.2161 -0.3500
  601MOL0     H79301   0.087   8.061  10.300 -1.2333 -0.0165  1.6714
  601MOL0     H79302   0.050   8.104  10.533  0.7911  1.1079  1.0709
  601MOL0     H79303   0.147   7.978  10.580 -0.5156  3.7046  0.6216
  601MOL0     H79304  -0.100   7.955  10.392 -0.2551  3.3723  2.0612
  601MOL0     H79305  -0.012   7.811  10.457 -0.8735 -0.4172 -0.8897
  601MOL0     H79306  -0.172   7.994  10.636 -2.6743  0.9119 -2.9591
  601MOL0     H79307  -0.082   7.846  10.683  2.5820 -0.0421 -1.8603
  601MOL0     H79308  -0.252   7.726  10.544  0.7207 -0.1398  0.9180
  601MOL0     H79309  -0.323   7.873  10.486 -1.1825 -1.4932  0.5575
  601MOL0     H79310  -0.430   7.751  10.682 -0.7273 -0.0196  1.5457
  601MOL0     H79311  -0.305   7.838  10.781  1.2079  1.5631 -0.3445
  601MOL0     H79312  -0.379   8.048  10.712 -1.3290  0.4495  1.4050
  601MOL0     H79313  -0.523   7.965  10.768  1.1676 -0.9932  1.3045
  601MOL0     H79314   0.448   8.315  10.356  0.6575  0.5413 -2.9336
  601MOL0     H79315   0.668   8.398  10.317 -1.0816  0.3961  0.2117
  601MOL0     H79316   1.234   8.291  10.600  1.2323 -1.5360 -1.6673
  601MOL0     H79317   1.447   8.403  10.549 -0.5461  4.4004  1.3033
  601MOL0     H79318   3.110   8.203  11.215  1.1230  0.1632  0.8626
  601MOL0     H79319   3.315   8.302  11.283 -0.1305 -1.9381 -1.6584
  601MOL0     H79320   3.467   8.764  11.417 -0.2970 -0.3120 -1.2938
  601MOL0     H79321   3.649   8.877  11.527  0.7596  1.2884 -1.3380
  601MOL0     H79322   4.043   8.693  11.525  0.7789  0.2477 -0.4442
  601MOL0     H79323   4.052   8.840  11.614  0.6334  1.3461 -0.6500
  601MOL0     H79324   4.203   8.766  11.413 -0.9577 -1.0145  0.4178
  601MOL0     H79325   4.077   8.834  11.314  2.9622  0.2590 -1.0681
  601MOL0     H79326   4.272   8.960  11.502 -0.3548  0.7348  0.8699
  601MOL0     H79327   4.110   9.039  11.470  0.1695 -1.2853  1.6432
  601MOL0     H79328   4.240   8.974  11.212  2.6213  0.3175 -0.1241
  601MOL0     H79329   4.211   9.130  11.274 -0.4265 -1.4188 -4.0442
  601MOL0     H79330   4.604   9.147  11.374 -0.6122  1.6433  0.2568
  601MOL0     H79331   3.931   8.615  11.329  0.6510 -1.5166  1.9531
  601MOL0     H79332   3.745   8.507  11.205  1.5771  3.1662 -2.3494
  602MOL0     O79333   8.177   0.790  10.192 -0.1287  0.5272 -0.2823
  602MOL0     C79334   8.228   0.873  10.121 -0.1336 -0.0562 -0.1706
  602MOL0     O79335   8.198   1.003  10.122 -0.0575  0.5242  0.1918
  602MOL0     C79336   8.122   1.049  10.230  0.0412 -0.1146 -0.2011
  602MOL0     C79337   7.988   1.008  10.258 -0.1763  0.4344  0.3050
  602MOL0     C79338   7.917   1.069  10.361 -0.4175  0.0001  0.0807
  602MOL0     C79339   7.969   1.177  10.432  0.2977 -0.6278 -0.3437
  602MOL0     O79340   7.882   1.228  10.526  0.3119 -0.4412  0.9069
  602MOL0     C79341   7.931   1.263  10.651  0.5241 -0.8428  0.5749
  602MOL0     C79342   7.978   1.153  10.734 -0.8847  0.3442 -0.1492
  602MOL0     C79343   7.866   1.076  10.804  0.5282 -0.7757 -0.0834
  602MOL0     C79344   7.927   1.005  10.934 -0.2836  0.7011  0.0419
  602MOL0     C79345   7.812   0.966  11.028 -0.6265  0.4785 -0.1253
  602MOL0     C79346   7.781   1.077  11.135 -1.0792  0.2901 -0.4503
  602MOL0     C79347   7.652   1.067  11.212  0.1445  0.2349 -0.7923
  602MOL0     C79348   7.524   1.091  11.125  0.0678  0.4450 -0.5112
  602MOL0     N79349   7.404   1.103  11.203 -0.6970  0.0121  0.6920
  602MOL0     C79350   7.326   1.208  11.207 -0.2190  0.2401 -0.3566
  602MOL0     C79351   7.223   1.178  11.290  0.5171 -0.7211  0.5847
  602MOL0     C79352   7.112   1.274  11.319  0.0329  0.4648  0.7547
  602MOL0     C79353   7.008   1.221  11.417 -0.2003  0.9030 -0.5221
  602MOL0     C79354   6.899   1.319  11.444  0.0473  0.4370  0.0331
  602MOL0     C79355   6.781   1.237  11.497 -0.8743  0.3467  0.0554
  602MOL0     O79356   6.686   1.333  11.558 -1.0234  0.4370  0.0206
  602MOL0     C79357   6.588   1.285  11.626 -0.8326  0.3339  0.3992
  602MOL0     C79358   6.525   1.378  11.711 -0.4861 -0.4701 -0.4569
  602MOL0     C79359   6.413   1.348  11.782  0.6416  0.0735 -0.7698
  602MOL0     C79360   6.361   1.211  11.788  0.2214 -0.5261 -0.2234
  602MOL0     C79361   6.232   1.178  11.863 -0.4855 -0.6302  1.1857
  602MOL0     O79362   6.192   1.278  11.951  0.9258 -0.3724 -0.7260
  602MOL0     C79363   6.111   1.263  12.062 -0.0572 -0.3965 -0.1816
  602MOL0     C79364   6.105   1.375  12.148 -0.3887  0.3010 -0.0052
  602MOL0     C79365   6.015   1.390  12.258 -0.8010 -0.6652  0.4873
  602MOL0     C79366   5.933   1.281  12.295 -0.1530  0.5734  0.1436
  602MOL0     O79367   5.830   1.297  12.386  0.0669  0.3183  0.3048
  602MOL0     C79368   5.797   1.429  12.437  0.2546 -0.4212 -0.5489
  602MOL0     C79369   5.664   1.427  12.505 -0.1258 -0.3895  0.6343
  602MOL0     C79370   5.638   1.559  12.590  0.2644 -0.4232  0.0857
  602MOL0     C79371   5.497   1.536  12.637  0.5413 -0.2648 -0.3291
  602MOL0     C79372   5.421   1.650  12.712 -1.0027  1.0977  0.7218
  602MOL0     C79373   5.374   1.767  12.631 -0.1770 -0.6221  0.0990
  602MOL0     C79374   5.277   1.730  12.522  0.6093 -0.7434  0.9336
  602MOL0     C79375   5.176   1.833  12.468 -0.5656 -0.0832 -0.3341
  602MOL0    Cl79376   5.263   1.961  12.378  0.2231  0.0797  0.5363
  602MOL0     C79377   5.948   1.154  12.220  0.0038 -0.7503 -0.4372
  602MOL0     C79378   6.026   1.155  12.098 -0.1936 -0.0338 -1.1850
  602MOL0     O79379   6.185   1.070  11.847 -0.7222 -0.0625 -0.8161
  602MOL0     C79380   6.431   1.123  11.700 -0.8919  0.1294 -0.9780
  602MOL0     C79381   6.552   1.153  11.637 -0.5002 -0.7476  0.2133
  602MOL0     N79382   7.232   1.053  11.330 -0.2693  0.4408  0.3141
  602MOL0     N79383   7.341   1.003  11.270  0.1842  0.4836  0.7481
  602MOL0     C79384   8.104   1.199  10.417  0.7338 -0.0714  0.2848
  602MOL0     C79385   8.181   1.148  10.312 -0.3894  1.5887  0.3042
  602MOL0     C79386   8.341   0.833  10.029  0.3111 -0.0230  0.0236
  602MOL0     C79387   8.403   0.930   9.952 -0.5621  0.4167 -0.2237
  602MOL0     C79388   8.514   0.898   9.874 -0.1244 -0.0005 -0.9860
  602MOL0     C79389   8.579   0.780   9.879  0.2426  0.5567 -0.1924
  602MOL0     O79390   8.684   0.747   9.807  0.4055  0.3722 -0.7378
  602MOL0     C79391   8.798   0.834   9.813 -0.5199 -0.1826 -0.0161
  602MOL0     C79392   8.916   0.769   9.740  0.1668  0.3443  0.1552
  602MOL0     C79393   8.999   0.680   9.832  1.0133 -0.2628 -0.6523
  602MOL0     C79394   9.139   0.659   9.789 -0.4541 -0.1079  0.1120
  602MOL0     C79395   9.125   0.595   9.657 -0.1904  0.1720  0.6251
  602MOL0     C79396   9.120   0.547   9.546  0.4454  0.1939 -0.0919
  602MOL0     C79397   8.521   0.676   9.953 -0.4397 -0.5517  0.9010
  602MOL0     C79398   8.407   0.709  10.023  0.1173  0.3363 -0.6221
  602MOL0     H79399   7.939   0.934  10.195  1.4142  0.0334 -0.5034
  602MOL0     H79400   7.828   1.024  10.404  0.8051 -2.6707  0.0448
  602MOL0     H79401   7.848   1.321  10.694  1.2821  1.8041 -1.3058
  602MOL0     H79402   8.011   1.337  10.644  2.3346 -2.7940 -0.4660
  602MOL0     H79403   8.051   1.189  10.807  0.4431 -2.0313 -0.1912
  602MOL0     H79404   8.030   1.077  10.675  1.0175  1.0689  0.5314
  602MOL0     H79405   7.821   1.005  10.733 -1.9735  0.0705  0.5389
  602MOL0     H79406   7.791   1.145  10.843  0.5258  0.4963 -2.1940
  602MOL0     H79407   7.986   0.920  10.898 -0.7306  0.7967 -0.9439
  602MOL0     H79408   8.000   1.061  10.993  1.1010  0.1551 -1.0948
  602MOL0     H79409   7.850   0.883  11.088  0.0573  2.0964  1.8055
  602MOL0     H79410   7.724   0.931  10.973 -0.2986  1.3013 -1.2110
  602MOL0     H79411   7.787   1.181  11.101 -1.2347  0.3726 -0.2281
  602MOL0     H79412   7.860   1.063  11.210  0.5251  2.2425 -1.6711
  602MOL0     H79413   7.650   0.981  11.279 -0.4246  1.0155  0.2294
  602MOL0     H79414   7.658   1.138  11.294  2.0180 -1.6787  0.8443
  602MOL0     H79415   7.512   1.019  11.043 -3.0185 -0.1152  0.3245
  602MOL0     H79416   7.536   1.182  11.065  0.6235  0.8564  0.2048
  602MOL0     H79417   7.341   1.299  11.150 -0.9083  0.6028  0.0299
  602MOL0     H79418   7.063   1.303  11.225  0.0522  1.0058  0.9052
  602MOL0     H79419   7.161   1.362  11.363 -0.3431  2.9461 -3.2438
  602MOL0     H79420   7.057   1.189  11.510 -0.2784 -0.8888 -1.0759
  602MOL0     H79421   6.956   1.133  11.378  1.9061 -1.8984  2.4867
  602MOL0     H79422   6.922   1.395  11.519  0.0076 -0.8166  1.3761
  602MOL0     H79423   6.865   1.367  11.352  0.6484 -0.9053 -0.9257
  602MOL0     H79424   6.825   1.169  11.570  2.4509 -0.0477 -2.0825
  602MOL0     H79425   6.731   1.179  11.419 -1.0566 -2.1779  1.9548
  602MOL0     H79426   6.555   1.482  11.722  1.2855 -1.1033  1.3283
  602MOL0     H79427   6.357   1.417  11.844 -2.1290 -0.7260 -2.2057
  602MOL0     H79428   6.164   1.458  12.110 -2.3634  1.4478 -0.7524
  602MOL0     H79429   6.025   1.489  12.301  0.3194 -0.1885 -0.7671
  602MOL0     H79430   5.791   1.492  12.348  2.6526 -3.3751 -3.0233
  602MOL0     H79431   5.872   1.465  12.509 -0.4955  0.8702 -0.3781
  602MOL0     H79432   5.669   1.340  12.571  0.0691 -0.3491  0.6732
  602MOL0     H79433   5.588   1.424  12.426 -0.5951  2.8382  0.8380
  602MOL0     H79434   5.637   1.641  12.518 -1.3119 -1.6699 -1.4182
  602MOL0     H79435   5.705   1.569  12.675  1.5594 -0.1037 -0.9380
  602MOL0     H79436   5.436   1.508  12.550 -3.5701  4.5350  0.5848
  602MOL0     H79437   5.492   1.454  12.710 -2.3196  0.0552 -0.0545
  602MOL0     H79438   5.490   1.678  12.792 -1.0957 -0.5612  1.4237
  602MOL0     H79439   5.333   1.614  12.767  0.4053  2.2793  3.9880
  602MOL0     H79440   5.457   1.820  12.585  0.9625 -2.9861 -0.7125
  602MOL0     H79441   5.321   1.832  12.702 -1.7157  2.5884 -3.5957
  602MOL0     H79442   5.337   1.686  12.441 -0.0910  1.9365 -1.1969
  602MOL0     H79443   5.211   1.654  12.564 -2.2608  0.0523 -1.7612
  602MOL0     H79444   5.114   1.873  12.549 -1.9621 -0.3218 -1.2741
  602MOL0     H79445   5.105   1.788  12.399 -2.7822  0.7718  1.2833
  602MOL0     H79446   5.885   1.070  12.248 -0.4262 -0.3534 -0.1897
  602MOL0     H79447   6.027   1.070  12.030 -0.6310 -0.5539 -0.5666
  602MOL0     H79448   6.374   1.031  11.697  1.1387 -1.2832  0.8692
  602MOL0     H79449   6.601   1.087  11.566 -1.9392 -0.5044 -1.0635
  602MOL0     H79450   8.156   1.265  10.486 -0.2370  1.7136 -0.6376
  602MOL0     H79451   8.285   1.175  10.296 -0.5999  1.6914 -0.9884
  602MOL0     H79452   8.370   1.033   9.954  0.7550  0.8596  1.2575
  602MOL0     H79453   8.556   0.983   9.822  1.1560 -0.2429 -0.3679
  602MOL0     H79454   8.835   0.847   9.915  1.6831  1.7773 -0.9580
  602MOL0     H79455   8.788   0.930   9.761  1.0079  0.9819  1.7157
  602MOL0     H79456   8.882   0.719   9.648  1.7570 -0.0187 -0.2623
  602MOL0     H79457   8.977   0.851   9.702 -0.1595 -0.8217 -3.2251
  602MOL0     H79458   8.944   0.587   9.848  0.0429  0.1251 -1.5802
  602MOL0     H79459   9.016   0.720   9.932 -0.0339 -4.3668  1.4142
  602MOL0     H79460   9.198   0.751   9.792 -4.1015  2.4165  1.9376
  602MOL0     H79461   9.190   0.593   9.860  2.2054  0.6656 -0.9730
  602MOL0     H79462   9.113   0.496   9.452 -0.1221 -0.0373  0.0705
  602MOL0     H79463   8.571   0.582   9.972 -2.4909 -1.3486  2.7970
  602MOL0     H79464   8.364   0.639  10.093  0.6924 -0.9152 -1.4660
  603MOL0     O79465   7.010   5.472   0.436  0.2777 -0.1397 -0.7650
  603MOL0     C79466   6.960   5.517   0.545  0.3073  0.6010  1.1604
  603MOL0     O79467   7.021   5.530   0.662 -0.1951  0.8718  0.1798
  603MOL0     C79468   7.152   5.491   0.677 -0.7805 -0.2071 -0.6278
  603MOL0     C79469   7.182   5.419   0.794  0.1767  0.5239  0.1546
  603MOL0     C79470   7.306   5.371   0.814 -0.3717  0.2377  0.0942
  603MOL0     C79471   7.410   5.387   0.718 -1.2718 -0.3119 -0.3408
  603MOL0     O79472   7.527   5.318   0.721 -0.4465 -0.3068  0.3273
  603MOL0     C79473   7.625   5.382   0.807  0.0770 -0.3139  0.1181
  603MOL0     C79474   7.755   5.425   0.747  0.1267 -0.1481 -1.0827
  603MOL0     C79475   7.754   5.520   0.632  0.7961 -0.0722 -0.6099
  603MOL0     C79476   7.888   5.550   0.561  0.8272  0.3757  0.4551
  603MOL0     C79477   7.875   5.643   0.435  0.5898 -0.7572 -1.2834
  603MOL0     C79478   7.772   5.585   0.342 -0.1029  0.3052 -0.2145
  603MOL0     C79479   7.783   5.660   0.208 -0.3954 -0.1075 -0.1536
  603MOL0     C79480   7.711   5.588   0.098  0.4411  0.2497 -0.0458
  603MOL0     N79481   7.578   5.543   0.135  0.5402 -0.9411 -0.0831
  603MOL0     C79482   7.554   5.416   0.167  0.7096  0.6268  1.0742
  603MOL0     C79483   7.425   5.415   0.215 -0.2408  0.1866  1.1559
  603MOL0     C79484   7.353   5.300   0.274 -0.0192 -0.3654  0.2684
  603MOL0     C79485   7.306   5.185   0.182  0.8218  0.1444 -0.2666
  603MOL0     C79486   7.249   5.075   0.275 -1.1827  0.2051  0.6089
  603MOL0     C79487   7.170   5.111   0.397  0.4323 -0.2003 -0.6710
  603MOL0     O79488   7.090   5.005   0.454 -0.1893  0.1767 -0.9573
  603MOL0     C79489   6.992   5.046   0.537 -0.2063  0.2874 -0.1519
  603MOL0     C79490   6.866   4.979   0.523  0.7177  0.5767  0.1034
  603MOL0     C79491   6.754   5.021   0.601  0.3430 -0.3635 -0.2960
  603MOL0     C79492   6.759   5.142   0.673  0.5913 -0.3585  0.8333
  603MOL0     C79493   6.639   5.188   0.752  0.6410 -0.9097 -0.5975
  603MOL0     O79494   6.514   5.159   0.704  0.4521 -0.1731 -0.5105
  603MOL0     C79495   6.392   5.191   0.756 -0.5840  0.1300 -1.1347
  603MOL0     C79496   6.304   5.088   0.775  0.5341  0.0437 -0.5656
  603MOL0     C79497   6.172   5.115   0.821 -0.2012 -0.0335  0.1456
  603MOL0     C79498   6.140   5.240   0.868 -0.0532  0.4331  0.6624
  603MOL0     O79499   6.026   5.250   0.939 -0.2427 -0.3972 -0.1281
  603MOL0     C79500   5.906   5.258   0.860  0.6314  0.4146  0.1072
  603MOL0     C79501   5.851   5.400   0.846 -0.0282 -1.1718 -0.4395
  603MOL0     C79502   5.897   5.494   0.956  0.0816 -1.2141  0.1631
  603MOL0     C79503   5.849   5.639   0.937  0.1802 -0.0730 -0.4523
  603MOL0     C79504   5.887   5.707   1.071  0.8229 -0.3987 -0.0619
  603MOL0     C79505   5.892   5.857   1.057  0.0996  0.0388 -0.7180
  603MOL0     C79506   5.918   5.917   1.204  0.2325 -1.5498 -0.3851
  603MOL0     C79507   5.896   6.066   1.210 -1.2799  0.4912 -0.7619
  603MOL0    Cl79508   5.717   6.104   1.217 -0.1964  0.0684 -0.0402
  603MOL0     C79509   6.230   5.348   0.849 -0.4500 -0.3395  0.0129
  603MOL0     C79510   6.355   5.319   0.797  0.1448 -0.5055  0.4611
  603MOL0     O79511   6.660   5.246   0.862  0.1672  1.3184 -0.8651
  603MOL0     C79512   6.886   5.200   0.697 -0.3948  0.4606  0.4655
  603MOL0     C79513   7.006   5.150   0.630 -0.2645 -0.3830  0.7768
  603MOL0     N79514   7.375   5.542   0.202  0.4849  0.0341 -1.3324
  603MOL0     N79515   7.469   5.620   0.171 -0.3056 -0.4591 -0.1313
  603MOL0     C79516   7.379   5.463   0.605 -0.4267 -0.5635  0.6510
  603MOL0     C79517   7.250   5.510   0.584 -1.1238 -0.4892  0.6277
  603MOL0     C79518   6.816   5.543   0.551  0.4412 -0.5060  0.2634
  603MOL0     C79519   6.745   5.599   0.663 -0.9639  0.0321 -0.5529
  603MOL0     C79520   6.608   5.639   0.656  0.3614 -0.7466 -0.3397
  603MOL0     C79521   6.534   5.623   0.539  0.5689  0.8036 -0.0677
  603MOL0     O79522   6.396   5.655   0.549 -0.1210 -0.1565  0.3605
  603MOL0     C79523   6.313   5.562   0.492  0.8276 -0.0851 -0.2819
  603MOL0     C79524   6.173   5.593   0.533  1.1170  0.0323  0.4543
  603MOL0     C79525   6.071   5.473   0.506  0.2449  0.6739  0.9181
  603MOL0     C79526   6.071   5.419   0.361 -0.3726 -0.2172  0.9458
  603MOL0     C79527   6.045   5.530   0.268  0.2958 -0.6677  0.7671
  603MOL0     C79528   6.026   5.617   0.187 -0.2449  0.8953 -0.5521
  603MOL0     C79529   6.600   5.573   0.422  0.3911  0.2642 -0.1266
  603MOL0     C79530   6.735   5.533   0.432 -0.3403 -0.0603  0.9528
  603MOL0     H79531   7.107   5.392   0.868  1.1771 -4.0764 -0.2153
  603MOL0     H79532   7.317   5.312   0.904  2.7118  0.4140 -0.0690
  603MOL0     H79533   7.641   5.297   0.872 -0.6962  0.2141  1.0275
  603MOL0     H79534   7.577   5.457   0.871 -0.6689 -1.2932  0.7431
  603MOL0     H79535   7.797   5.329   0.716 -1.4062 -0.8094 -1.2064
  603MOL0     H79536   7.821   5.479   0.815  0.4749  1.0188 -2.3042
  603MOL0     H79537   7.722   5.618   0.667  1.2945 -1.0195  2.8759
  603MOL0     H79538   7.673   5.491   0.564  0.1839 -1.0645  0.4883
  603MOL0     H79539   7.958   5.599   0.629  1.4390  0.3341 -0.1263
  603MOL0     H79540   7.919   5.451   0.526 -2.4561  0.4243 -3.2531
  603MOL0     H79541   7.975   5.652   0.391  1.1847  0.9024  0.2907
  603MOL0     H79542   7.848   5.746   0.460  1.8708 -0.9058  0.9362
  603MOL0     H79543   7.669   5.585   0.379  0.4059  2.2146  1.3570
  603MOL0     H79544   7.801   5.481   0.320 -0.1246  0.2945 -0.1917
  603MOL0     H79545   7.738   5.758   0.223 -1.7059 -1.0571  3.1976
  603MOL0     H79546   7.885   5.690   0.185 -0.9729  0.9169 -1.5047
  603MOL0     H79547   7.764   5.500   0.060 -3.9960 -2.0522 -1.6254
  603MOL0     H79548   7.704   5.658   0.014  0.6501  0.8909  0.4634
  603MOL0     H79549   7.610   5.323   0.169 -0.8504 -0.4223 -0.8760
  603MOL0     H79550   7.270   5.340   0.332 -1.1454 -0.8375 -0.9753
  603MOL0     H79551   7.413   5.254   0.353  0.5265  1.2769  0.8597
  603MOL0     H79552   7.387   5.147   0.121  0.3437  2.6344 -2.6773
  603MOL0     H79553   7.235   5.215   0.104 -0.3587  0.5935  0.9140
  603MOL0     H79554   7.181   5.007   0.222 -0.7316 -1.8145  2.4653
  603MOL0     H79555   7.329   5.011   0.313 -1.6511 -0.9820 -0.3207
  603MOL0     H79556   7.102   5.195   0.385  0.2797 -0.3823 -1.1120
  603MOL0     H79557   7.247   5.118   0.475 -2.0035 -3.2070  2.3314
  603MOL0     H79558   6.856   4.888   0.464 -0.6731  0.6490  0.2005
  603MOL0     H79559   6.658   4.970   0.607  0.7937 -1.2205 -0.3122
  603MOL0     H79560   6.325   4.982   0.764  0.2801 -0.5343  3.0810
  603MOL0     H79561   6.095   5.040   0.837 -2.4991  2.3127  0.6798
  603MOL0     H79562   5.831   5.211   0.924 -2.5670  2.2481 -2.0197
  603MOL0     H79563   5.919   5.210   0.763  0.0470  0.5538 -0.0392
  603MOL0     H79564   5.743   5.397   0.831 -0.0380  1.0670 -1.2185
  603MOL0     H79565   5.888   5.440   0.751 -2.1777  1.0096 -0.4440
  603MOL0     H79566   6.006   5.495   0.958  0.2202  3.3848  1.3931
  603MOL0     H79567   5.857   5.459   1.052  1.1436  0.3556  1.2155
  603MOL0     H79568   5.895   5.688   0.851 -1.3564  0.0414 -1.2391
  603MOL0     H79569   5.741   5.647   0.924  0.3463  1.7042 -0.9731
  603MOL0     H79570   5.990   5.681   1.096  0.6631 -3.0545 -1.7233
  603MOL0     H79571   5.818   5.692   1.155  0.5675  2.6459  0.3926
  603MOL0     H79572   5.793   5.895   1.030 -1.2234 -0.7852  2.5452
  603MOL0     H79573   5.970   5.894   0.989  1.7083 -2.2227 -0.2257
  603MOL0     H79574   5.853   5.868   1.278 -0.0556 -1.3302 -0.4872
  603MOL0     H79575   6.014   5.900   1.253 -0.0194  0.5860  0.9794
  603MOL0     H79576   5.938   6.103   1.117 -0.4267  0.1556 -0.5180
  603MOL0     H79577   5.952   6.115   1.290  0.4154  1.1061 -2.2620
  603MOL0     H79578   6.212   5.451   0.878 -0.7532  0.0765 -1.5306
  603MOL0     H79579   6.425   5.403   0.793 -0.4584  0.2380  3.4372
  603MOL0     H79580   6.893   5.296   0.748 -1.6575 -0.3138  2.2257
  603MOL0     H79581   7.099   5.205   0.627 -1.2025  1.2252 -1.4427
  603MOL0     H79582   7.452   5.471   0.525  0.0758 -2.2634  0.8934
  603MOL0     H79583   7.223   5.583   0.508  1.8624 -2.2250 -2.3655
  603MOL0     H79584   6.799   5.606   0.757  1.0220  0.8053 -1.6884
  603MOL0     H79585   6.567   5.687   0.744  2.1078  2.5196 -1.1346
  603MOL0     H79586   6.322   5.460   0.532 -1.2335  0.3439  1.4469
  603MOL0     H79587   6.312   5.551   0.383 -1.6259  1.1454 -0.4561
  603MOL0     H79588   6.159   5.620   0.638 -4.2290 -0.4884  0.1558
  603MOL0     H79589   6.135   5.682   0.481 -1.9816 -1.2594  0.2711
  603MOL0     H79590   5.967   5.503   0.516 -0.3980 -1.4561  1.0981
  603MOL0     H79591   6.096   5.391   0.575  0.2934 -0.9683 -0.9666
  603MOL0     H79592   6.163   5.367   0.331 -0.0875 -0.0075  1.4340
  603MOL0     H79593   5.990   5.346   0.356  0.5235 -1.1407 -0.8497
  603MOL0     H79594   6.014   5.686   0.107 -0.9086 -0.8520 -2.0402
  603MOL0     H79595   6.560   5.567   0.321  3.8225 -0.4843 -1.5932
  603MOL0     H79596   6.791   5.497   0.347 -0.4960  0.4838  0.6141
  604MOL0     O79597   5.212   4.515  10.778  0.3394 -0.3829 -0.1226
  604MOL0     C79598   5.164   4.623  10.749  0.1732 -0.6450  0.8479
  604MOL0     O79599   5.087   4.653  10.647  0.0397 -0.3009  0.1583
  604MOL0     C79600   5.002   4.563  10.598  0.4925  0.6057 -0.5275
  604MOL0     C79601   4.991   4.567  10.459  1.4466 -0.8709 -0.2426
  604MOL0     C79602   4.907   4.475  10.396  0.2157  0.9970  0.3834
  604MOL0     C79603   4.832   4.372  10.465  0.1134 -0.5317  0.8178
  604MOL0     O79604   4.768   4.269  10.393  0.1409 -1.1393 -0.0954
  604MOL0     C79605   4.629   4.304  10.384 -0.2868  0.3789  0.9541
  604MOL0     C79606   4.613   4.314  10.229 -0.0217  0.0463 -0.4133
  604MOL0     C79607   4.469   4.352  10.194 -0.0281 -0.1025  0.5448
  604MOL0     C79608   4.450   4.343  10.046  0.4178 -0.5442  0.4486
  604MOL0     C79609   4.308   4.411  10.006  0.4943 -0.7654 -0.0191
  604MOL0     C79610   4.278   4.454   9.862 -0.1270  0.8779  0.1037
  604MOL0     C79611   4.240   4.341   9.766 -1.0932  0.0596 -0.2653
  604MOL0     C79612   4.112   4.266   9.796 -0.4162  0.0694  0.0832
  604MOL0     N79613   3.986   4.333   9.779  0.4019 -0.0183  0.7615
  604MOL0     C79614   3.861   4.273   9.793 -0.0350  0.2888  0.0968
  604MOL0     C79615   3.763   4.360   9.760  0.0594  0.8636 -0.6045
  604MOL0     C79616   3.619   4.347   9.781  0.8989  0.3240  0.3239
  604MOL0     C79617   3.548   4.257   9.680  0.4678  0.5272  0.5078
  604MOL0     C79618   3.597   4.112   9.659  0.7002 -0.4211 -0.2821
  604MOL0     C79619   3.541   4.044   9.528  0.4667  0.5516 -0.1674
  604MOL0     O79620   3.406   4.086   9.501 -0.0116  0.2726  0.1796
  604MOL0     C79621   3.309   4.025   9.580  0.5319  0.5320  0.0902
  604MOL0     C79622   3.221   4.102   9.656  0.8377  0.5022  0.3305
  604MOL0     C79623   3.138   4.049   9.758 -0.4088  0.7471 -0.3137
  604MOL0     C79624   3.131   3.909   9.767 -0.2072  0.9760  0.2096
  604MOL0     C79625   3.031   3.831   9.847  0.9185 -0.6654 -0.1113
  604MOL0     O79626   2.915   3.902   9.874 -0.4536  0.3725  0.1676
  604MOL0     C79627   2.821   3.850   9.954 -0.1080  0.7826  0.4725
  604MOL0     C79628   2.719   3.770   9.900  0.1135 -0.3409 -0.5286
  604MOL0     C79629   2.631   3.709   9.996  0.3022 -0.2819  0.2894
  604MOL0     C79630   2.649   3.727  10.135  0.3262  0.1241  0.9423
  604MOL0     O79631   2.580   3.661  10.234  0.2042  0.2817 -0.1128
  604MOL0     C79632   2.448   3.618  10.189  0.3310 -0.3797 -0.2318
  604MOL0     C79633   2.375   3.546  10.308  0.1652 -0.4944 -0.3313
  604MOL0     C79634   2.240   3.498  10.252  0.1565 -0.2651 -0.2991
  604MOL0     C79635   2.167   3.405  10.348  0.4576  0.3456 -0.4262
  604MOL0     C79636   2.020   3.378  10.307  0.3519 -0.6597 -0.3144
  604MOL0     C79637   1.955   3.272  10.387  0.0241  0.2387 -0.5287
  604MOL0     C79638   1.804   3.266  10.382 -0.2052  0.0709  0.5735
  604MOL0     C79639   1.737   3.153  10.463  0.4439  0.5284  0.3380
  604MOL0    Cl79640   1.570   3.174  10.431  0.1538  0.1638  0.0133
  604MOL0     C79641   2.757   3.801  10.178 -0.8066 -0.4231 -0.0519
  604MOL0     C79642   2.845   3.856  10.088 -0.2713 -0.3663  0.7350
  604MOL0     O79643   3.046   3.706   9.856 -0.2802 -0.1219  0.5644
  604MOL0     C79644   3.213   3.830   9.684  0.3138  0.4231  0.1215
  604MOL0     C79645   3.309   3.888   9.597  0.1926 -0.2346 -1.2322
  604MOL0     N79646   3.827   4.476   9.722  0.4308  0.0447  0.0336
  604MOL0     N79647   3.955   4.459   9.734 -0.1629  0.4920  0.2648
  604MOL0     C79648   4.842   4.382  10.606  0.2316 -0.3627  0.1887
  604MOL0     C79649   4.923   4.478  10.675 -0.0704  0.6077 -0.7342
  604MOL0     C79650   5.214   4.738  10.840  0.4550  0.1820  1.0938
  604MOL0     C79651   5.336   4.725  10.912 -0.0155  0.6394 -0.1239
  604MOL0     C79652   5.379   4.815  11.010  0.1047  0.7564  0.4174
  604MOL0     C79653   5.297   4.932  11.043  0.3461  0.4745  0.5540
  604MOL0     O79654   5.339   5.018  11.141  0.2945 -0.0157  0.3984
  604MOL0     C79655   5.252   5.108  11.216 -0.2484 -0.4324  0.4074
  604MOL0     C79656   5.336   5.158  11.333 -0.7442 -1.0822  0.1684
  604MOL0     C79657   5.278   5.271  11.426 -0.0802 -0.4148 -0.3929
  604MOL0     C79658   5.199   5.374  11.357 -0.3966 -0.6947  0.2545
  604MOL0     C79659   5.128   5.468  11.451 -0.1163 -0.9564  0.3145
  604MOL0     C79660   5.063   5.535  11.532 -0.2445  0.4223 -0.3745
  604MOL0     C79661   5.193   4.958  10.955 -0.2747  0.0994  0.3503
  604MOL0     C79662   5.146   4.855  10.869 -0.1625  0.3771 -1.0274
  604MOL0     H79663   5.048   4.646  10.412  0.8323  0.0940  0.5895
  604MOL0     H79664   4.906   4.473  10.287  0.8512 -0.6457  0.3945
  604MOL0     H79665   4.586   4.392  10.433 -1.4972  0.7946 -0.7739
  604MOL0     H79666   4.575   4.220  10.428 -3.9883  1.1988 -1.6087
  604MOL0     H79667   4.632   4.212  10.193  1.5139  0.4720 -0.8501
  604MOL0     H79668   4.688   4.387  10.199  0.0784 -0.0702 -0.4466
  604MOL0     H79669   4.438   4.452  10.225 -0.4463  0.4762 -1.5937
  604MOL0     H79670   4.406   4.279  10.247  0.7244 -3.1710 -2.4231
  604MOL0     H79671   4.531   4.400   9.999 -0.2914  0.9661  1.0245
  604MOL0     H79672   4.454   4.237  10.016 -2.7178 -0.5163 -0.4416
  604MOL0     H79673   4.309   4.506  10.060  0.9918 -0.3864 -0.6758
  604MOL0     H79674   4.233   4.337  10.036 -0.4617 -0.4321 -1.4675
  604MOL0     H79675   4.367   4.503   9.824  0.8573 -0.9662 -0.0984
  604MOL0     H79676   4.189   4.518   9.858 -1.5440 -0.9309  0.8032
  604MOL0     H79677   4.222   4.383   9.667 -0.4838  0.9900 -0.0042
  604MOL0     H79678   4.315   4.262   9.756 -0.5914  0.4177  0.4965
  604MOL0     H79679   4.114   4.209   9.889  1.5207  0.5737  0.3896
  604MOL0     H79680   4.107   4.183   9.725 -0.5905 -0.9439  1.2469
  604MOL0     H79681   3.853   4.170   9.826  1.0727  0.6102  1.4874
  604MOL0     H79682   3.573   4.446   9.779  0.2516  0.2035  3.6050
  604MOL0     H79683   3.593   4.308   9.880  0.6748  0.5975  0.3723
  604MOL0     H79684   3.564   4.304   9.583  0.3466 -0.9627 -0.2759
  604MOL0     H79685   3.440   4.265   9.697  0.2849 -2.7615  1.5915
  604MOL0     H79686   3.706   4.104   9.648  0.8283  0.3100  0.3795
  604MOL0     H79687   3.577   4.056   9.752  3.7007 -1.2500 -0.0322
  604MOL0     H79688   3.565   3.937   9.516 -0.2866  0.4288 -0.6530
  604MOL0     H79689   3.587   4.097   9.444 -0.4749  0.9839 -0.4184
  604MOL0     H79690   3.214   4.210   9.647 -0.7310  0.2730 -2.6512
  604MOL0     H79691   3.075   4.108   9.824 -0.2636  0.3850  0.1563
  604MOL0     H79692   2.690   3.762   9.796  1.3254 -0.1598 -0.8906
  604MOL0     H79693   2.541   3.659   9.961  0.2648 -0.3841  0.5285
  604MOL0     H79694   2.447   3.547  10.106  0.4358 -1.3283  0.5573
  604MOL0     H79695   2.384   3.696  10.147  0.3339 -0.2744 -0.0440
  604MOL0     H79696   2.364   3.617  10.391  0.8777 -1.4938  0.6465
  604MOL0     H79697   2.436   3.463  10.342  1.8089  1.9540  3.3846
  604MOL0     H79698   2.262   3.456  10.154  3.1398  0.6528 -0.1151
  604MOL0     H79699   2.169   3.580  10.237 -1.2119 -0.8892  2.1559
  604MOL0     H79700   2.220   3.309  10.349  0.7146  0.4744 -1.1457
  604MOL0     H79701   2.173   3.440  10.452  0.4781  0.9467 -0.6259
  604MOL0     H79702   2.019   3.348  10.201 -0.1903  0.4447 -0.6420
  604MOL0     H79703   1.970   3.475  10.318 -0.1849 -0.8447 -1.0119
  604MOL0     H79704   1.983   3.280  10.493 -1.3487  0.3056 -0.1470
  604MOL0     H79705   2.000   3.178  10.354 -1.1803 -1.1266  1.5164
  604MOL0     H79706   1.765   3.362  10.419 -1.4637 -0.5431  0.9230
  604MOL0     H79707   1.768   3.253  10.280 -1.7623 -0.2829  1.1324
  604MOL0     H79708   1.765   3.158  10.569 -1.3316 -4.0994  1.2743
  604MOL0     H79709   1.772   3.055  10.430  0.2625  0.9141 -1.0455
  604MOL0     H79710   2.778   3.817  10.283 -4.1350 -2.1119  1.0307
  604MOL0     H79711   2.936   3.901  10.127 -0.2001 -0.4091  0.6147
  604MOL0     H79712   3.215   3.722   9.686  3.2151  0.3730  3.2624
  604MOL0     H79713   3.380   3.821   9.548  3.0503 -1.2116  3.5606
  604MOL0     H79714   4.790   4.304  10.661 -1.5705 -0.8825 -2.0834
  604MOL0     H79715   4.931   4.475  10.783 -1.5630 -2.0712 -0.6160
  604MOL0     H79716   5.404   4.644  10.887  2.3725  1.8707  1.8922
  604MOL0     H79717   5.470   4.821  11.068 -0.7913 -0.1930  2.0057
  604MOL0     H79718   5.161   5.060  11.254  1.3735 -1.5362  3.1530
  604MOL0     H79719   5.230   5.184  11.141  0.0411 -1.7707 -1.0948
  604MOL0     H79720   5.366   5.078  11.402  0.0064  1.1097  2.5408
  604MOL0     H79721   5.429   5.203  11.299  0.1737 -0.5425  3.0577
  604MOL0     H79722   5.361   5.317  11.479  1.6278  0.2979 -3.4186
  604MOL0     H79723   5.218   5.222  11.503 -3.6243  2.5738 -0.9883
  604MOL0     H79724   5.254   5.440  11.289  2.1770 -1.6517  1.2866
  604MOL0     H79725   5.121   5.317  11.306 -1.8248 -0.2960  1.8667
  604MOL0     H79726   4.997   5.584  11.601  1.0594  1.2808  0.3146
  604MOL0     H79727   5.137   5.050  10.966  0.9777  0.6782  2.5307
  604MOL0     H79728   5.049   4.868  10.822 -1.5511 -3.0380  0.5578
  605MOL0     O79729   3.042   6.125   5.020 -0.0853 -0.0234 -0.0461
  605MOL0     C79730   3.119   6.055   4.956  0.0464 -0.3222  0.0031
  605MOL0     O79731   3.084   5.941   4.894 -0.8957  0.1908  0.8286
  605MOL0     C79732   2.974   5.866   4.928 -0.6825 -0.0942  0.8724
  605MOL0     C79733   2.843   5.900   4.971 -0.0092  0.5246 -0.4628
  605MOL0     C79734   2.749   5.792   4.986  0.5739 -0.2077  0.0242
  605MOL0     C79735   2.778   5.662   4.951 -0.4784 -1.0980 -0.1826
  605MOL0     O79736   2.683   5.566   4.948 -0.2680  0.0063 -0.3738
  605MOL0     C79737   2.566   5.597   5.033  0.3551  0.6557 -0.7800
  605MOL0     C79738   2.469   5.480   5.010  0.2511 -0.0659  0.0324
  605MOL0     C79739   2.339   5.502   5.081 -0.2905 -0.0051  0.7252
  605MOL0     C79740   2.232   5.395   5.054 -0.7415 -0.6450 -0.4553
  605MOL0     C79741   2.100   5.446   5.126 -0.4581  0.0404  0.0970
  605MOL0     C79742   1.984   5.348   5.126 -0.7760  1.0578  0.1504
  605MOL0     C79743   1.909   5.339   5.251  0.2123 -0.2333  0.6708
  605MOL0     C79744   1.807   5.224   5.271  0.6532  0.6413 -0.8234
  605MOL0     N79745   1.673   5.267   5.248  0.0966  0.1732  0.5425
  605MOL0     C79746   1.631   5.328   5.132 -0.7626 -0.1781 -0.1792
  605MOL0     C79747   1.503   5.345   5.143  0.1427 -0.1987 -0.1377
  605MOL0     C79748   1.403   5.383   5.036 -0.1613 -0.0501  0.0399
  605MOL0     C79749   1.251   5.350   5.072 -0.0368 -0.6683  0.2445
  605MOL0     C79750   1.216   5.202   5.066 -0.0287 -0.5388 -0.6349
  605MOL0     C79751   1.096   5.174   4.990 -0.1467 -0.5876  0.9680
  605MOL0     O79752   0.982   5.241   5.053 -0.2074  0.4168 -0.5356
  605MOL0     C79753   0.862   5.232   4.986 -0.4496  0.3462 -0.1564
  605MOL0     C79754   0.811   5.122   4.920 -0.3474 -0.3493 -0.2700
  605MOL0     C79755   0.689   5.130   4.858  0.7092  0.0902  0.5352
  605MOL0     C79756   0.606   5.246   4.868  0.2871  0.9947 -1.1991
  605MOL0     C79757   0.471   5.248   4.820 -0.2342  0.2382  0.0867
  605MOL0     O79758   0.402   5.360   4.847 -0.3602 -0.4364  0.3342
  605MOL0     C79759   0.270   5.369   4.799  0.2649  0.1957  0.2144
  605MOL0     C79760   0.161   5.312   4.869 -0.4125 -0.4987 -0.1114
  605MOL0     C79761   0.031   5.332   4.816 -0.0392  0.0330  0.0449
  605MOL0     C79762   0.010   5.410   4.696  0.5390  0.4908 -0.3541
  605MOL0     O79763  -0.105   5.437   4.639 -0.1393 -0.6053 -0.3746
  605MOL0     C79764  -0.227   5.451   4.727  0.6198 -0.7956  0.0257
  605MOL0     C79765  -0.342   5.448   4.623 -0.9801 -0.0806  0.2781
  605MOL0     C79766  -0.482   5.479   4.687  0.4376  0.7253 -0.1181
  605MOL0     C79767  -0.592   5.467   4.580  0.4913 -0.3537  0.5727
  605MOL0     C79768  -0.728   5.477   4.639  0.2577 -0.1510 -0.5431
  605MOL0     C79769  -0.823   5.524   4.544 -0.5715 -0.2202 -0.2622
  605MOL0     C79770  -0.969   5.513   4.587  0.6578 -0.1275  0.3089
  605MOL0     C79771  -1.058   5.608   4.513 -0.0971 -0.0251 -0.4153
  605MOL0    Cl79772  -1.213   5.586   4.604  0.2756  0.1732  0.6391
  605MOL0     C79773   0.125   5.459   4.625  0.7027  0.2442  0.5209
  605MOL0     C79774   0.247   5.434   4.678 -0.4521 -0.3514  0.1185
  605MOL0     O79775   0.425   5.150   4.751  0.0582 -0.4613 -0.1585
  605MOL0     C79776   0.653   5.349   4.942 -0.9054 -0.7414  0.6602
  605MOL0     C79777   0.780   5.345   4.998  0.2882 -0.9553 -0.3344
  605MOL0     N79778   1.467   5.284   5.264 -0.0315 -0.0578 -0.3058
  605MOL0     N79779   1.566   5.237   5.323 -0.4815 -1.0415 -0.0471
  605MOL0     C79780   2.910   5.628   4.912 -0.9839 -0.4100 -0.5947
  605MOL0     C79781   3.006   5.730   4.904  0.0272 -0.0047 -0.3877
  605MOL0     C79782   3.258   6.105   4.932  0.0933 -0.7818 -0.3270
  605MOL0     C79783   3.308   6.207   5.014  0.9288 -0.3413 -0.0814
  605MOL0     C79784   3.431   6.255   4.981 -0.1068 -0.0458 -0.6674
  605MOL0     C79785   3.517   6.206   4.892 -0.6687 -0.2203  0.5838
  605MOL0     O79786   3.648   6.257   4.878  0.2430 -0.5133  0.7423
  605MOL0     C79787   3.733   6.209   4.780  0.6210 -0.3699  0.0253
  605MOL0     C79788   3.856   6.300   4.773  0.4530  0.2025 -0.1416
  605MOL0     C79789   3.825   6.438   4.724  0.2572 -0.7528  0.6271
  605MOL0     C79790   3.932   6.543   4.757  0.2285 -0.1429 -0.5190
  605MOL0     C79791   4.056   6.517   4.678  0.0577  0.4990 -0.2129
  605MOL0     C79792   4.141   6.491   4.598 -0.1010 -0.4470  0.4893
  605MOL0     C79793   3.470   6.102   4.810 -0.4983 -0.3871 -0.6502
  605MOL0     C79794   3.341   6.056   4.832 -0.2757 -0.0956  0.9487
  605MOL0     H79795   2.815   6.003   4.989 -0.8257  0.5145 -1.4987
  605MOL0     H79796   2.655   5.823   5.031 -0.4629 -1.0401 -1.4725
  605MOL0     H79797   2.516   5.690   5.005  1.3299  1.1879 -0.7866
  605MOL0     H79798   2.601   5.602   5.137  1.9319 -1.5991 -1.1310
  605MOL0     H79799   2.524   5.388   5.034  0.3606 -0.1704 -0.5992
  605MOL0     H79800   2.447   5.474   4.903 -3.6357  0.1644  0.7051
  605MOL0     H79801   2.307   5.603   5.053 -0.3175 -0.3842 -0.6828
  605MOL0     H79802   2.347   5.497   5.190  1.6922 -0.9519  0.5688
  605MOL0     H79803   2.212   5.386   4.947 -2.2424 -0.5972 -0.2055
  605MOL0     H79804   2.271   5.302   5.096  2.5849  1.5254  1.7591
  605MOL0     H79805   2.064   5.538   5.079 -1.6874 -0.9980 -1.1156
  605MOL0     H79806   2.135   5.468   5.227  0.1973 -2.1208  0.3913
  605MOL0     H79807   2.018   5.250   5.090 -0.3886  1.8495 -1.7662
  605MOL0     H79808   1.915   5.381   5.048 -2.6400 -0.3991  1.1101
  605MOL0     H79809   1.989   5.339   5.327  0.3270  0.0825  0.5526
  605MOL0     H79810   1.854   5.433   5.251  0.3863 -0.0717 -2.0940
  605MOL0     H79811   1.819   5.200   5.377  0.0707  1.2850 -0.6029
  605MOL0     H79812   1.835   5.134   5.216  1.1251  0.6450 -0.5988
  605MOL0     H79813   1.685   5.346   5.040  1.2100  0.1220  0.9813
  605MOL0     H79814   1.437   5.323   4.951 -0.6048  0.3463 -0.4277
  605MOL0     H79815   1.412   5.490   5.014 -0.8539 -0.2707 -1.4070
  605MOL0     H79816   1.183   5.408   5.008  0.0217 -0.3703  0.4511
  605MOL0     H79817   1.231   5.392   5.171 -2.8569 -0.2092 -0.4466
  605MOL0     H79818   1.306   5.157   5.024  1.7783  3.3847 -1.4651
  605MOL0     H79819   1.198   5.170   5.169  5.0499  0.6278  0.9155
  605MOL0     H79820   1.073   5.069   4.969 -0.3757  0.1852 -3.7092
  605MOL0     H79821   1.113   5.220   4.893 -0.3406 -1.0485  0.7158
  605MOL0     H79822   0.858   5.025   4.934 -0.5346 -0.1461  2.1396
  605MOL0     H79823   0.651   5.038   4.815  0.6438 -0.4192  1.6500
  605MOL0     H79824   0.171   5.256   4.962 -4.3883 -3.3508 -1.1006
  605MOL0     H79825  -0.053   5.296   4.874  0.4363 -0.5989  0.3459
  605MOL0     H79826  -0.218   5.536   4.796 -0.5682 -0.1548 -0.5762
  605MOL0     H79827  -0.236   5.364   4.792 -0.6739 -0.0343  0.9237
  605MOL0     H79828  -0.330   5.354   4.569  0.3228  1.2481 -1.9058
  605MOL0     H79829  -0.322   5.529   4.552  0.2242 -1.5230 -1.1100
  605MOL0     H79830  -0.481   5.582   4.724  0.0666  0.1442  1.5556
  605MOL0     H79831  -0.500   5.415   4.773  1.6899 -1.2317 -1.2214
  605MOL0     H79832  -0.580   5.538   4.498  0.4249 -1.6285 -0.5680
  605MOL0     H79833  -0.581   5.373   4.526  0.9963  1.5531 -2.9777
  605MOL0     H79834  -0.731   5.537   4.730  1.5447 -0.4599 -0.2654
  605MOL0     H79835  -0.757   5.374   4.663 -0.8759  0.4651  0.8065
  605MOL0     H79836  -0.809   5.472   4.449  1.4018  1.2761 -0.8514
  605MOL0     H79837  -0.806   5.632   4.539 -1.5380  0.0237  1.1784
  605MOL0     H79838  -1.013   5.415   4.566 -0.3740  0.4734 -0.4050
  605MOL0     H79839  -0.974   5.531   4.695 -1.1864  0.7583  0.1146
  605MOL0     H79840  -1.063   5.589   4.405 -0.5563 -0.9146 -0.2509
  605MOL0     H79841  -1.012   5.705   4.533  3.2109 -2.0438  3.1742
  605MOL0     H79842   0.111   5.518   4.535 -1.1865  0.6248  1.0413
  605MOL0     H79843   0.333   5.486   4.635 -0.4868 -1.1172 -0.9195
  605MOL0     H79844   0.586   5.428   4.973 -1.4371 -0.1875 -1.7006
  605MOL0     H79845   0.812   5.434   5.052 -1.1429  0.0657 -1.0965
  605MOL0     H79846   2.938   5.525   4.896 -2.5523 -1.1823  1.2209
  605MOL0     H79847   3.106   5.709   4.869 -0.2096 -3.0332  0.4811
  605MOL0     H79848   3.245   6.249   5.091  0.2020  0.9303 -1.3154
  605MOL0     H79849   3.474   6.326   5.050 -0.4273 -0.0656 -0.4467
  605MOL0     H79850   3.689   6.213   4.680  2.3625 -0.4638 -0.7759
  605MOL0     H79851   3.748   6.104   4.805 -0.1866 -0.4698  0.1246
  605MOL0     H79852   3.918   6.294   4.863  0.5292 -2.3630 -0.3129
  605MOL0     H79853   3.921   6.259   4.696 -0.6204  0.7776 -1.4037
  605MOL0     H79854   3.722   6.463   4.752 -0.3261 -3.8995  1.6934
  605MOL0     H79855   3.816   6.438   4.615 -1.5988  1.0173  0.7105
  605MOL0     H79856   3.888   6.641   4.738 -0.7123 -0.0855  1.6683
  605MOL0     H79857   3.956   6.532   4.863 -2.3230 -1.9821 -0.0348
  605MOL0     H79858   4.228   6.467   4.540 -1.3576 -5.4448  0.2308
  605MOL0     H79859   3.537   6.057   4.737  0.0501 -0.2801 -0.2229
  605MOL0     H79860   3.311   5.972   4.770 -1.1559  1.7641 -1.3183
  606MOL0     O79861   5.265   2.388   3.927  0.8371  0.1753  0.2892
  606MOL0     C79862   5.306   2.431   3.819 -0.6579  0.7536  0.8360
  606MOL0     O79863   5.241   2.421   3.701 -0.2269 -0.0186  1.0017
  606MOL0     C79864   5.103   2.414   3.713  0.1621  0.6740  0.5951
  606MOL0     C79865   5.023   2.511   3.775 -0.2246  0.0545  0.3004
  606MOL0     C79866   4.882   2.498   3.770 -0.6783 -0.5526 -0.2515
  606MOL0     C79867   4.823   2.378   3.718 -1.0230 -0.9487 -0.7822
  606MOL0     O79868   4.687   2.361   3.736 -0.4171  0.2920 -0.1515
  606MOL0     C79869   4.631   2.233   3.746 -0.0280  0.5289  1.2220
  606MOL0     C79870   4.482   2.217   3.792  0.6866  0.6021  0.0077
  606MOL0     C79871   4.386   2.261   3.685 -0.2289 -0.6648 -0.3840
  606MOL0     C79872   4.241   2.270   3.744  0.3075  0.3286  0.5270
  606MOL0     C79873   4.139   2.295   3.641  0.2056 -0.1174 -0.4347
  606MOL0     C79874   4.002   2.321   3.701 -0.3561  0.5062 -0.6063
  606MOL0     C79875   3.888   2.338   3.595  0.0746  0.2697  1.2288
  606MOL0     C79876   3.755   2.390   3.650  0.4836 -0.3620  0.8540
  606MOL0     N79877   3.658   2.434   3.543 -0.3611  0.3099 -0.0405
  606MOL0     C79878   3.596   2.352   3.439 -0.0203  0.2115  0.1367
  606MOL0     C79879   3.513   2.446   3.383 -1.1623  0.0477  0.8992
  606MOL0     C79880   3.399   2.410   3.286 -0.2503  0.5767  0.2459
  606MOL0     C79881   3.313   2.530   3.239  0.5741 -0.1881 -0.0017
  606MOL0     C79882   3.227   2.492   3.115 -0.5423  0.2045  0.0377
  606MOL0     C79883   3.150   2.365   3.122 -0.5669  1.6469 -0.4711
  606MOL0     O79884   3.044   2.378   3.020  0.0952  0.0067  0.9825
  606MOL0     C79885   2.952   2.285   2.996  1.3134  0.9255 -0.2206
  606MOL0     C79886   2.976   2.148   3.001 -0.0731 -0.2655 -0.5980
  606MOL0     C79887   2.866   2.065   2.975  0.8082 -0.0915 -0.3636
  606MOL0     C79888   2.741   2.112   2.932  0.3623  0.1565 -0.3314
  606MOL0     C79889   2.627   2.020   2.908 -0.0670 -0.1710 -0.7326
  606MOL0     O79890   2.512   2.080   2.865  0.7198 -0.5456  0.9117
  606MOL0     C79891   2.394   2.008   2.871 -0.0822 -0.4453 -0.8150
  606MOL0     C79892   2.302   2.029   2.972 -0.4081  0.3300 -0.2514
  606MOL0     C79893   2.181   1.959   2.972  0.4822 -0.2271  0.6481
  606MOL0     C79894   2.144   1.882   2.861 -0.1792 -0.1324 -0.4781
  606MOL0     O79895   2.022   1.814   2.872  0.5533 -0.1818  0.2430
  606MOL0     C79896   1.999   1.697   2.793 -0.2477 -0.0208 -0.7636
  606MOL0     C79897   1.865   1.637   2.815 -0.0046  0.0241  0.1744
  606MOL0     C79898   1.877   1.521   2.925 -0.0374 -0.1706  0.1645
  606MOL0     C79899   1.738   1.449   2.925 -0.4947 -0.7160  0.2925
  606MOL0     C79900   1.726   1.337   3.031 -1.5442  0.3680 -0.2490
  606MOL0     C79901   1.797   1.205   2.970  0.1371  0.1633 -0.8208
  606MOL0     C79902   1.711   1.142   2.855  0.2858 -0.0020  0.4730
  606MOL0     C79903   1.789   1.023   2.807  0.9005 -0.9760 -0.6871
  606MOL0    Cl79904   1.723   0.965   2.648 -0.3779  0.0019  0.5798
  606MOL0     C79905   2.235   1.868   2.760 -0.0999 -0.1294  0.3043
  606MOL0     C79906   2.357   1.923   2.764  0.6146  0.7571  0.5712
  606MOL0     O79907   2.645   1.902   2.917 -0.9888  0.3103  0.4518
  606MOL0     C79908   2.723   2.246   2.908  0.2535 -0.0767 -0.0415
  606MOL0     C79909   2.825   2.337   2.941  0.1381  0.4453  0.2811
  606MOL0     N79910   3.537   2.572   3.441 -0.3729  0.5771 -0.5639
  606MOL0     N79911   3.628   2.561   3.526 -0.3538  0.2536  0.1714
  606MOL0     C79912   4.897   2.273   3.674  0.0578  0.0237 -0.5384
  606MOL0     C79913   5.033   2.298   3.659 -0.2527  0.7644  1.0877
  606MOL0     C79914   5.439   2.491   3.819  0.1654 -0.3888 -0.2719
  606MOL0     C79915   5.535   2.483   3.707 -0.1876  0.1419 -0.1422
  606MOL0     C79916   5.670   2.530   3.712  0.4782  0.6704  1.4487
  606MOL0     C79917   5.707   2.607   3.823  0.4689 -0.4144 -0.5639
  606MOL0     O79918   5.832   2.669   3.837  0.4776 -0.4163 -0.1659
  606MOL0     C79919   5.899   2.636   3.962 -0.0030  0.4265  0.1846
  606MOL0     C79920   6.039   2.685   3.945  0.6194  0.1791  0.2007
  606MOL0     C79921   6.040   2.841   3.939 -1.1954 -0.8958 -0.1705
  606MOL0     C79922   6.182   2.890   3.917 -1.0607 -0.8364 -0.7576
  606MOL0     C79923   6.276   2.849   4.021  0.4233  0.0510 -0.1214
  606MOL0     C79924   6.342   2.790   4.101 -0.3727  1.4238 -1.2004
  606MOL0     C79925   5.607   2.615   3.931 -0.4847 -0.0686 -0.3511
  606MOL0     C79926   5.480   2.567   3.930  0.0522 -0.4244  1.3438
  606MOL0     H79927   5.071   2.599   3.817 -0.6652 -0.9384  3.0358
  606MOL0     H79928   4.809   2.564   3.816  0.1128 -0.1359  0.4200
  606MOL0     H79929   4.691   2.158   3.799  0.2867 -0.6778 -0.7522
  606MOL0     H79930   4.638   2.191   3.646  3.1349 -0.6216  1.8120
  606MOL0     H79931   4.456   2.269   3.884  0.2366 -1.4698  1.0969
  606MOL0     H79932   4.464   2.110   3.802  1.5996  0.6691  4.1235
  606MOL0     H79933   4.383   2.197   3.596 -2.1704  1.6500 -2.1210
  606MOL0     H79934   4.410   2.364   3.656 -1.5673  0.7853  3.0948
  606MOL0     H79935   4.213   2.173   3.786 -0.2677 -0.6640 -1.9535
  606MOL0     H79936   4.242   2.361   3.803  0.5167  4.4298 -4.9811
  606MOL0     H79937   4.133   2.206   3.577  1.0994 -0.1718 -0.4593
  606MOL0     H79938   4.164   2.390   3.592 -1.7530  2.6564  3.4384
  606MOL0     H79939   3.998   2.418   3.751 -2.5002  0.2629 -0.1916
  606MOL0     H79940   3.973   2.243   3.772 -0.3244  0.3052 -0.8132
  606MOL0     H79941   3.916   2.394   3.506 -3.8645 -0.1581 -0.4988
  606MOL0     H79942   3.867   2.239   3.554  1.6773 -0.2170  1.5176
  606MOL0     H79943   3.790   2.485   3.693 -2.5403  1.5347 -0.5351
  606MOL0     H79944   3.708   2.331   3.728  0.4628  0.5475  1.5519
  606MOL0     H79945   3.615   2.247   3.420  2.2937  0.6036  0.0532
  606MOL0     H79946   3.339   2.339   3.343  2.0893  0.4155  2.7148
  606MOL0     H79947   3.446   2.372   3.194 -0.3463 -0.9785  0.8191
  606MOL0     H79948   3.362   2.625   3.217  3.2215 -1.5348 -0.2582
  606MOL0     H79949   3.248   2.547   3.326  0.8121 -3.1855  0.8748
  606MOL0     H79950   3.161   2.578   3.099 -0.0664  0.1541 -2.6075
  606MOL0     H79951   3.295   2.500   3.030  1.0086  2.2035  1.3886
  606MOL0     H79952   3.114   2.342   3.222  0.8518 -3.4760 -0.8857
  606MOL0     H79953   3.209   2.277   3.095 -3.1715  0.3477 -2.3027
  606MOL0     H79954   3.076   2.120   3.029  0.2210  0.7611 -0.5824
  606MOL0     H79955   2.898   1.961   2.980  2.7364  0.3881 -1.5755
  606MOL0     H79956   2.326   2.085   3.062  0.0263 -0.7585  0.3286
  606MOL0     H79957   2.121   1.972   3.061  0.3993 -2.8946  1.0535
  606MOL0     H79958   2.070   1.616   2.818 -4.5955 -3.1390  3.1915
  606MOL0     H79959   2.003   1.737   2.691  2.8027  5.7119  1.1840
  606MOL0     H79960   1.825   1.606   2.718 -1.2220 -1.2772  1.0537
  606MOL0     H79961   1.793   1.716   2.835  1.1410  1.7867 -2.1664
  606MOL0     H79962   1.901   1.548   3.029 -0.1136  1.6873 -0.2648
  606MOL0     H79963   1.958   1.452   2.903 -0.6146 -1.1826  1.1167
  606MOL0     H79964   1.658   1.523   2.939  0.6350  1.1573 -2.3101
  606MOL0     H79965   1.723   1.419   2.821 -2.0986  3.5853 -0.9757
  606MOL0     H79966   1.622   1.313   3.055 -0.9090 -1.6711  0.7640
  606MOL0     H79967   1.781   1.366   3.121  2.3567  1.7028 -2.7852
  606MOL0     H79968   1.793   1.131   3.051  0.2307 -0.2262 -1.1666
  606MOL0     H79969   1.899   1.230   2.939  0.2689  0.1025 -0.4404
  606MOL0     H79970   1.610   1.112   2.884  0.4781 -1.1648 -0.0052
  606MOL0     H79971   1.702   1.210   2.770  0.4429 -0.6468 -0.0695
  606MOL0     H79972   1.776   0.945   2.882 -3.0421  0.7703  0.7115
  606MOL0     H79973   1.896   1.047   2.796  0.3132  2.3995 -0.1223
  606MOL0     H79974   2.222   1.801   2.675 -0.0215  0.3702 -0.1103
  606MOL0     H79975   2.429   1.907   2.684  0.4259 -0.5874  0.6494
  606MOL0     H79976   2.632   2.291   2.869  0.1020 -0.7984 -0.5386
  606MOL0     H79977   2.815   2.444   2.933  1.9812  0.8902  2.7261
  606MOL0     H79978   4.857   2.181   3.634 -0.0840  0.9193 -2.5348
  606MOL0     H79979   5.095   2.235   3.596 -1.6154 -1.0051  1.4378
  606MOL0     H79980   5.492   2.434   3.621 -0.9584  2.4141 -1.1293
  606MOL0     H79981   5.734   2.502   3.630 -0.0218  0.9478  0.9583
  606MOL0     H79982   5.893   2.528   3.978 -1.7498  0.5948  0.8102
  606MOL0     H79983   5.857   2.676   4.054  1.0938 -0.8607  1.2898
  606MOL0     H79984   6.099   2.647   4.028  1.5194 -0.5696 -0.7568
  606MOL0     H79985   6.093   2.639   3.862  0.4466 -0.9877  0.7150
  606MOL0     H79986   6.008   2.887   4.033  2.3602 -0.8652  1.1672
  606MOL0     H79987   5.980   2.883   3.858 -2.4300  1.5693  1.8815
  606MOL0     H79988   6.222   2.856   3.821  2.6656 -0.7760  0.6047
  606MOL0     H79989   6.185   2.998   3.904 -1.3847 -0.7080  0.1224
  606MOL0     H79990   6.413   2.739   4.163 -1.2453  1.5131 -0.0938
  606MOL0     H79991   5.634   2.674   4.018 -0.3120  0.4589 -0.7548
  606MOL0     H79992   5.407   2.582   4.008 -1.9092 -0.8089 -0.3494
  607MOL0     O79993   4.418   9.929   2.656  0.0412 -0.2503 -0.4633
  607MOL0     C79994   4.505   9.968   2.585  0.8213 -0.3870 -0.0734
  607MOL0     O79995   4.492  10.001   2.450 -0.6318  0.3941 -0.2038
  607MOL0     C79996   4.365   9.986   2.403 -0.0874  0.1944  0.6696
  607MOL0     C79997   4.340   9.881   2.314 -0.2989 -0.3314 -0.1384
  607MOL0     C79998   4.218   9.856   2.271  0.1580 -0.5092  0.4411
  607MOL0     C79999   4.113   9.951   2.300 -0.3192 -0.1294 -0.0752
  607MOL0     O80000   3.986   9.946   2.254  0.2717  0.9680  0.8829
  607MOL0     C80001   3.948   9.846   2.155 -0.4648  0.5764  0.1081
  607MOL0     C80002   3.798   9.823   2.146  0.5864 -0.0712 -0.1056
  607MOL0     C80003   3.716   9.947   2.092  0.5490  0.4086 -0.8916
  607MOL0     C80004   3.566   9.933   2.105 -0.0389 -0.2503 -0.3756
  607MOL0     C80005   3.502   9.795   2.078 -0.2436 -0.3739 -0.4959
  607MOL0     C80006   3.507   9.739   1.938 -0.6355 -0.4476  0.3673
  607MOL0     C80007   3.434   9.819   1.827 -0.4636  0.4081 -0.5606
  607MOL0     C80008   3.283   9.837   1.852  0.9158  0.6677  0.7956
  607MOL0     N80009   3.213   9.720   1.905  0.3432  0.7040 -0.0782
  607MOL0     C80010   3.185   9.604   1.839  0.2343  0.3920 -0.1634
  607MOL0     C80011   3.126   9.531   1.931 -0.3807  0.2692  1.0094
  607MOL0     C80012   3.064   9.396   1.891 -0.7140  0.0830  0.6874
  607MOL0     C80013   2.999   9.394   1.751  0.8045 -0.1708 -0.6281
  607MOL0     C80014   2.933   9.257   1.718  0.2864 -0.1275  0.2093
  607MOL0     C80015   2.784   9.248   1.754 -0.1082 -0.2773 -0.0122
  607MOL0     O80016   2.752   9.116   1.727 -0.7085  0.1927  0.4792
  607MOL0     C80017   2.617   9.084   1.745  0.3254 -0.4860  0.1417
  607MOL0     C80018   2.518   9.185   1.748 -0.4956 -0.9052  0.8294
  607MOL0     C80019   2.382   9.160   1.777 -0.2654 -0.4269 -0.5454
  607MOL0     C80020   2.338   9.029   1.794 -0.1579 -0.6323  1.2363
  607MOL0     C80021   2.200   8.985   1.812 -0.0215 -0.3996 -0.3880
  607MOL0     O80022   2.186   8.871   1.873 -0.8510 -0.1060 -0.2845
  607MOL0     C80023   2.069   8.820   1.916 -0.7514 -0.5616  0.0478
  607MOL0     C80024   1.983   8.757   1.820 -0.1215 -0.0723 -0.8522
  607MOL0     C80025   1.867   8.688   1.860  0.1025  0.4409  1.0624
  607MOL0     C80026   1.834   8.668   1.983 -0.1315 -0.0876 -0.3036
  607MOL0     O80027   1.725   8.601   2.025  0.2809 -1.2210 -0.4383
  607MOL0     C80028   1.740   8.525   2.143  0.8627  0.0262 -0.4207
  607MOL0     C80029   1.669   8.394   2.116 -0.2911  0.3781 -0.0786
  607MOL0     C80030   1.533   8.398   2.047  0.0997 -0.0803  0.3916
  607MOL0     C80031   1.477   8.256   2.043  0.6728  0.9601  0.1815
  607MOL0     C80032   1.335   8.252   1.980 -0.1247  0.6377  1.0354
  607MOL0     C80033   1.327   8.313   1.834  0.2166  0.2014 -0.7631
  607MOL0     C80034   1.401   8.226   1.730  0.9196 -0.1840 -0.6741
  607MOL0     C80035   1.352   8.078   1.715  0.2933  0.8497  0.3300
  607MOL0    Cl80036   1.171   8.050   1.710 -0.0176  0.0011  0.0084
  607MOL0     C80037   1.912   8.737   2.078  0.1865  0.5445  0.2825
  607MOL0     C80038   2.029   8.814   2.045  1.0999  0.0369  0.6196
  607MOL0     O80039   2.106   9.050   1.761 -0.5452 -0.4927 -0.4180
  607MOL0     C80040   2.443   8.923   1.787  0.6505  0.9741 -0.8067
  607MOL0     C80041   2.575   8.958   1.769  0.5624  0.4821 -0.4785
  607MOL0     N80042   3.114   9.601   2.050  0.7227  0.1435  0.2572
  607MOL0     N80043   3.177   9.710   2.039  0.2158  0.3004 -0.9572
  607MOL0     C80044   4.144  10.062   2.375  0.5038 -0.0842  0.2568
  607MOL0     C80045   4.268  10.079   2.432  0.2619 -0.4860  0.5291
  607MOL0     C80046   4.627  10.011   2.650 -0.1822  0.4776  0.7301
  607MOL0     C80047   4.645  10.034   2.785 -0.2460  0.9266 -0.5589
  607MOL0     C80048   4.770  10.059   2.838  0.1960  0.1920  0.1989
  607MOL0     C80049   4.879  10.087   2.754  0.9596  0.0856  0.6049
  607MOL0     O80050   4.985  10.155   2.811  0.1950 -0.6329  0.3988
  607MOL0     C80051   5.087  10.211   2.725 -0.0332  0.1934  0.1484
  607MOL0     C80052   5.184  10.287   2.810 -0.7148 -0.9431  0.1938
  607MOL0     C80053   5.285  10.357   2.720 -0.2908  0.0256  0.3529
  607MOL0     C80054   5.390  10.436   2.803  0.2162  0.5750  0.8824
  607MOL0     C80055   5.505  10.357   2.834  1.0889  0.3686 -0.2319
  607MOL0     C80056   5.600  10.279   2.858 -0.1275  0.2319 -0.5390
  607MOL0     C80057   4.870  10.048   2.619  0.3344  0.2668  0.3416
  607MOL0     C80058   4.746   9.999   2.569  0.4450  0.0560 -0.0523
  607MOL0     H80059   4.424   9.820   2.282  0.6055  0.2406  1.0535
  607MOL0     H80060   4.208   9.764   2.215 -2.0246 -2.1075  3.1963
  607MOL0     H80061   3.981   9.748   2.190 -2.3383 -0.1286  0.0518
  607MOL0     H80062   3.997   9.874   2.061 -2.9534  2.1779 -0.8031
  607MOL0     H80063   3.768   9.790   2.246 -2.7085  0.4182 -0.7973
  607MOL0     H80064   3.772   9.746   2.072 -0.0672  2.8698 -3.1702
  607MOL0     H80065   3.742   9.944   1.986  0.3663 -2.9606 -0.9526
  607MOL0     H80066   3.746  10.043   2.136 -1.1099  0.6280 -0.1495
  607MOL0     H80067   3.552   9.964   2.208 -0.8412  1.2985 -0.9259
  607MOL0     H80068   3.518  10.005   2.039 -1.5753 -2.0302 -1.3113
  607MOL0     H80069   3.395   9.793   2.101 -0.6650 -2.9444 -2.2195
  607MOL0     H80070   3.550   9.726   2.148 -0.4328  2.3660  2.5560
  607MOL0     H80071   3.462   9.640   1.943 -1.2627 -0.1356  1.2127
  607MOL0     H80072   3.611   9.735   1.905 -0.1908  1.3279  1.3766
  607MOL0     H80073   3.484   9.915   1.813  1.9749 -0.6530  0.3327
  607MOL0     H80074   3.444   9.779   1.726 -1.3942 -0.0037 -0.4977
  607MOL0     H80075   3.235   9.876   1.762  2.6265  0.9561 -0.0321
  607MOL0     H80076   3.269   9.914   1.929  0.2045  0.4464  0.8977
  607MOL0     H80077   3.205   9.591   1.733 -2.1393  1.5946 -0.8250
  607MOL0     H80078   2.977   9.372   1.953 -0.4144  2.0686  1.9623
  607MOL0     H80079   3.141   9.319   1.895 -0.5941  0.2274  1.3697
  607MOL0     H80080   3.078   9.419   1.678 -0.3714  1.3676 -1.4355
  607MOL0     H80081   2.925   9.473   1.740  0.0477 -0.4626  1.8342
  607MOL0     H80082   2.943   9.240   1.611  0.7009  2.7046 -0.3038
  607MOL0     H80083   2.995   9.181   1.767  1.8826  3.1513  3.8513
  607MOL0     H80084   2.745   9.321   1.682  4.1293 -0.8366 -3.2595
  607MOL0     H80085   2.771   9.270   1.861 -1.1761  0.3272 -0.2473
  607MOL0     H80086   2.541   9.287   1.720 -2.4647 -0.3107  1.2051
  607MOL0     H80087   2.314   9.239   1.807  0.8057 -0.1971  1.4499
  607MOL0     H80088   2.017   8.766   1.717  1.6211 -1.1898 -0.4157
  607MOL0     H80089   1.813   8.653   1.773 -1.0536  2.4940  0.8797
  607MOL0     H80090   1.676   8.572   2.218  1.2958 -1.1613  0.7225
  607MOL0     H80091   1.838   8.504   2.186  0.7337  1.5794  0.7380
  607MOL0     H80092   1.657   8.341   2.211 -2.9072 -0.0942 -0.6117
  607MOL0     H80093   1.738   8.321   2.072 -0.0279 -0.1777  1.2047
  607MOL0     H80094   1.543   8.436   1.945  0.4460 -2.6720 -0.6383
  607MOL0     H80095   1.469   8.467   2.103 -2.5543 -1.7508 -0.3943
  607MOL0     H80096   1.535   8.190   1.978  0.4491  0.8226  0.1183
  607MOL0     H80097   1.468   8.226   2.148 -2.4930  1.8182  0.2830
  607MOL0     H80098   1.260   8.298   2.046 -1.8298 -3.4622  2.3331
  607MOL0     H80099   1.297   8.149   1.978  1.1345  0.1432  1.5486
  607MOL0     H80100   1.371   8.414   1.832 -2.0099  1.3743  2.4485
  607MOL0     H80101   1.223   8.334   1.807 -0.4446 -1.9840 -0.0713
  607MOL0     H80102   1.393   8.266   1.629  1.4499 -3.4507 -2.1376
  607MOL0     H80103   1.508   8.226   1.754  1.0411  0.5993 -1.1922
  607MOL0     H80104   1.391   8.021   1.800 -1.9699  0.0394  0.8903
  607MOL0     H80105   1.391   8.045   1.619 -1.1253  1.5087 -0.4995
  607MOL0     H80106   1.888   8.733   2.184  0.2239 -3.1243  0.2660
  607MOL0     H80107   2.090   8.861   2.122  1.8624 -0.0033  0.0584
  607MOL0     H80108   2.422   8.818   1.801  0.5443  1.1985  0.9679
  607MOL0     H80109   2.663   8.896   1.779  1.0365  1.0384 -1.0976
  607MOL0     H80110   4.069  10.137   2.400 -0.5380 -1.3591  1.1023
  607MOL0     H80111   4.291  10.155   2.506  1.0932 -1.1989  1.0138
  607MOL0     H80112   4.562  10.032   2.855 -0.8688  1.0967 -1.2858
  607MOL0     H80113   4.766  10.083   2.944 -1.7519  0.9110  0.0088
  607MOL0     H80114   5.030  10.271   2.654 -2.5558 -1.9891  0.1533
  607MOL0     H80115   5.142  10.149   2.655  1.8412  2.5763 -0.6134
  607MOL0     H80116   5.137  10.367   2.867  0.8942  0.3388 -0.2258
  607MOL0     H80117   5.231  10.219   2.882  2.3005  2.2458  1.4988
  607MOL0     H80118   5.225  10.426   2.660 -0.3432 -0.3590 -0.0435
  607MOL0     H80119   5.323  10.285   2.647 -1.3740  1.1115 -1.3257
  607MOL0     H80120   5.428  10.522   2.746  2.2565 -0.5181  0.5159
  607MOL0     H80121   5.358  10.486   2.895 -1.5942  0.7754  0.2030
  607MOL0     H80122   5.682  10.215   2.882  1.3568  1.7533 -1.3077
  607MOL0     H80123   4.958  10.059   2.558  1.6905  2.3829  2.4995
  607MOL0     H80124   4.725   9.965   2.468 -1.5078  3.6794 -1.0319
  608MOL0     O80125   3.118   2.768   5.677 -0.5689 -0.4764  0.2212
  608MOL0     C80126   3.195   2.865   5.677 -0.0043  0.4771  0.6483
  608MOL0     O80127   3.162   2.998   5.641  0.0038  0.5550 -0.1702
  608MOL0     C80128   3.031   3.019   5.606 -0.3277 -0.3369 -0.1841
  608MOL0     C80129   2.931   3.038   5.697 -0.3102 -0.6389  0.6090
  608MOL0     C80130   2.801   3.071   5.667  0.5692 -0.0088  0.7221
  608MOL0     C80131   2.768   3.089   5.539 -0.4610  0.4018  0.3983
  608MOL0     O80132   2.648   3.144   5.497  0.2392  0.4172 -0.2644
  608MOL0     C80133   2.584   3.077   5.397  0.2277  0.1398  0.6735
  608MOL0     C80134   2.438   3.047   5.437 -0.4909  0.3556  1.2157
  608MOL0     C80135   2.355   3.170   5.467 -0.7966 -0.1990 -0.8974
  608MOL0     C80136   2.213   3.109   5.484 -0.5051 -0.5308  0.0630
  608MOL0     C80137   2.103   3.220   5.522  0.3252 -0.1523  0.2266
  608MOL0     C80138   1.965   3.185   5.474  0.0608 -0.1436 -0.1155
  608MOL0     C80139   1.867   3.305   5.472 -1.0932 -0.0231  0.0445
  608MOL0     C80140   1.727   3.244   5.462  0.2200 -0.1347  0.5002
  608MOL0     N80141   1.627   3.340   5.476  1.1197 -0.0301 -0.0449
  608MOL0     C80142   1.551   3.380   5.589  0.2184 -0.0297 -0.3348
  608MOL0     C80143   1.478   3.479   5.539  0.6943  0.5556  0.2013
  608MOL0     C80144   1.382   3.574   5.604  0.4118 -1.0979 -0.0367
  608MOL0     C80145   1.258   3.602   5.522 -0.2839  0.6111  1.0433
  608MOL0     C80146   1.170   3.674   5.620 -0.5775  1.1615  0.3789
  608MOL0     C80147   1.034   3.706   5.562  0.3572 -0.3131  0.0602
  608MOL0     O80148   1.028   3.839   5.513  0.3043  0.5500 -0.5742
  608MOL0     C80149   0.913   3.910   5.501  0.0215  0.0782  0.7959
  608MOL0     C80150   0.927   4.050   5.457 -0.4634  0.4433 -0.4560
  608MOL0     C80151   0.819   4.140   5.453 -0.3747  0.5548 -0.6515
  608MOL0     C80152   0.690   4.085   5.489  1.6197  0.2576 -0.2974
  608MOL0     C80153   0.566   4.172   5.497 -0.3467  0.4013  0.1845
  608MOL0     O80154   0.450   4.112   5.452  0.8081 -0.6380  0.5013
  608MOL0     C80155   0.327   4.186   5.463 -0.6019 -0.2552 -0.4256
  608MOL0     C80156   0.255   4.152   5.575  0.3939  0.5370  0.5753
  608MOL0     C80157   0.134   4.214   5.602  0.5493 -1.1596 -0.1452
  608MOL0     C80158   0.079   4.314   5.516 -1.3836  0.1060 -0.4362
  608MOL0     O80159  -0.044   4.369   5.542 -1.0813  0.9275  0.1011
  608MOL0     C80160  -0.102   4.475   5.469 -0.0796 -0.8094 -0.3872
  608MOL0     C80161  -0.227   4.541   5.532  0.1097  0.4747 -0.3331
  608MOL0     C80162  -0.355   4.443   5.533 -0.6818  0.5337  0.1442
  608MOL0     C80163  -0.479   4.513   5.566  0.4145 -0.5858 -0.1904
  608MOL0     C80164  -0.588   4.401   5.597 -1.0525  0.0232  0.1249
  608MOL0     C80165  -0.729   4.450   5.570 -0.2755  0.3874  0.1209
  608MOL0     C80166  -0.852   4.356   5.596 -0.1329 -0.2608  0.5190
  608MOL0     C80167  -0.913   4.383   5.735  0.4473 -0.1292 -0.0870
  608MOL0    Cl80168  -1.058   4.281   5.760  0.0459  0.2165 -0.0022
  608MOL0     C80169   0.162   4.346   5.404 -0.4877  0.3590 -0.5309
  608MOL0     C80170   0.290   4.289   5.376  0.9714  0.4353  0.3508
  608MOL0     O80171   0.575   4.281   5.554  0.0594 -0.4418 -0.6696
  608MOL0     C80172   0.677   3.951   5.525  0.6547  0.2801  0.0883
  608MOL0     C80173   0.784   3.872   5.524 -1.0025  1.0780  0.4432
  608MOL0     N80174   1.495   3.488   5.405 -0.6976  0.1312 -0.8471
  608MOL0     N80175   1.586   3.406   5.361 -0.4901  0.4373 -0.5078
  608MOL0     C80176   2.868   3.072   5.438  0.3266  0.6817 -0.6501
  608MOL0     C80177   2.999   3.039   5.468 -0.3260  0.0676 -0.7028
  608MOL0     C80178   3.330   2.830   5.710 -0.0328  0.3008 -0.7264
  608MOL0     C80179   3.349   2.719   5.795 -0.8888 -0.3068 -0.7253
  608MOL0     C80180   3.474   2.678   5.848  0.4540  0.0456  0.3838
  608MOL0     C80181   3.581   2.744   5.792 -0.6056 -0.4337  0.7103
  608MOL0     O80182   3.712   2.710   5.823  0.2408  0.2406  0.1133
  608MOL0     C80183   3.735   2.579   5.883 -0.0655  0.2550  0.5349
  608MOL0     C80184   3.883   2.535   5.875 -0.1562  0.1728  0.0903
  608MOL0     C80185   3.993   2.605   5.962 -0.1886 -1.1698 -0.3721
  608MOL0     C80186   4.108   2.667   5.880 -0.7421  0.7815  0.5626
  608MOL0     C80187   4.210   2.724   5.970  0.2614  1.0123 -0.2804
  608MOL0     C80188   4.290   2.767   6.050 -0.6575  0.2980 -1.0329
  608MOL0     C80189   3.569   2.850   5.698  0.1823  1.2608 -1.2244
  608MOL0     C80190   3.444   2.894   5.660  0.2249  0.0561  0.1470
  608MOL0     H80191   2.948   2.997   5.796 -1.4095 -1.7910  0.3320
  608MOL0     H80192   2.728   3.080   5.746 -3.9950 -3.7806 -2.4971
  608MOL0     H80193   2.629   2.981   5.371  0.5699  0.5268 -0.1977
  608MOL0     H80194   2.572   3.140   5.308 -0.2650 -1.3856 -0.3694
  608MOL0     H80195   2.436   2.963   5.506 -0.5826  0.2321  1.0648
  608MOL0     H80196   2.402   2.999   5.345 -0.6470  1.3604  0.7294
  608MOL0     H80197   2.357   3.243   5.386 -3.3133  0.5904 -0.3344
  608MOL0     H80198   2.397   3.213   5.559  2.1311  1.2122 -2.7708
  608MOL0     H80199   2.176   3.073   5.388 -0.7244  2.2223 -0.9579
  608MOL0     H80200   2.206   3.027   5.557 -2.6848 -1.3666 -0.9878
  608MOL0     H80201   2.134   3.317   5.482  0.4986 -1.0342 -1.8979
  608MOL0     H80202   2.100   3.231   5.631 -1.7807  1.0179  0.0927
  608MOL0     H80203   1.923   3.104   5.535  0.1849 -0.0032  0.1593
  608MOL0     H80204   1.964   3.145   5.372 -0.3171 -1.7393  0.4803
  608MOL0     H80205   1.868   3.368   5.561 -1.7409 -1.0556  0.8005
  608MOL0     H80206   1.876   3.375   5.389  2.2487 -0.8859 -0.4746
  608MOL0     H80207   1.718   3.167   5.540 -2.0646  0.6642  1.0910
  608MOL0     H80208   1.715   3.185   5.371  0.1880  1.9603 -0.9158
  608MOL0     H80209   1.550   3.353   5.694  1.1090 -0.2565 -0.3720
  608MOL0     H80210   1.432   3.671   5.618 -2.6979  0.5028  0.8875
  608MOL0     H80211   1.359   3.552   5.709  4.3536  2.2788  1.8735
  608MOL0     H80212   1.218   3.508   5.482 -1.6258  1.4630  0.3529
  608MOL0     H80213   1.282   3.659   5.432  1.1514 -0.9658  0.3616
  608MOL0     H80214   1.142   3.609   5.703  0.2744  1.4247  0.8872
  608MOL0     H80215   1.212   3.771   5.645 -0.2605  0.4520  2.7979
  608MOL0     H80216   0.963   3.700   5.645 -0.4881  1.1770 -0.5002
  608MOL0     H80217   1.004   3.630   5.489  3.8870 -0.3146 -1.5682
  608MOL0     H80218   1.026   4.089   5.439  0.0306  0.5469  2.0444
  608MOL0     H80219   0.832   4.247   5.440  0.8070  0.5611  0.3815
  608MOL0     H80220   0.298   4.069   5.631 -0.1004  0.5882  1.0398
  608MOL0     H80221   0.072   4.180   5.684  4.9435 -1.5784  3.4014
  608MOL0     H80222  -0.144   4.451   5.371  2.9768 -0.5794 -1.8792
  608MOL0     H80223  -0.023   4.551   5.459  0.9789 -1.8434 -0.1224
  608MOL0     H80224  -0.242   4.634   5.476  3.1932 -0.4936 -3.1279
  608MOL0     H80225  -0.193   4.566   5.633 -0.0099  0.2408 -0.2346
  608MOL0     H80226  -0.330   4.366   5.606 -2.6811  0.7963  1.1869
  608MOL0     H80227  -0.368   4.393   5.437 -3.2827  0.6668  0.3696
  608MOL0     H80228  -0.472   4.582   5.651 -3.8674  1.2568 -1.0623
  608MOL0     H80229  -0.514   4.577   5.484 -2.5799 -0.1653  1.2915
  608MOL0     H80230  -0.580   4.366   5.700 -1.2543 -1.2724 -0.2802
  608MOL0     H80231  -0.575   4.311   5.535 -0.6142  1.8996 -2.7252
  608MOL0     H80232  -0.720   4.448   5.460  2.7946 -0.8853  0.2679
  608MOL0     H80233  -0.763   4.547   5.607 -3.3232 -0.1157 -1.0797
  608MOL0     H80234  -0.930   4.386   5.525  0.8085  2.1148  0.3929
  608MOL0     H80235  -0.811   4.254   5.593  1.1622  0.2421  0.3398
  608MOL0     H80236  -0.949   4.486   5.733  1.4947  0.3184 -3.8714
  608MOL0     H80237  -0.844   4.366   5.818 -0.8906 -0.0187  1.0708
  608MOL0     H80238   0.143   4.432   5.340 -0.3799 -0.2492 -1.3954
  608MOL0     H80239   0.340   4.320   5.285 -0.2285 -0.1603 -0.5407
  608MOL0     H80240   0.579   3.919   5.559  0.0700 -0.2279 -1.9509
  608MOL0     H80241   0.770   3.769   5.557 -1.5901  1.6977  2.2438
  608MOL0     H80242   2.850   3.107   5.337  1.6635 -0.5282 -1.3483
  608MOL0     H80243   3.075   3.015   5.394 -0.7696 -3.6372 -0.1618
  608MOL0     H80244   3.272   2.668   5.852  0.7662 -2.5659 -0.3266
  608MOL0     H80245   3.493   2.598   5.919  3.7015 -0.1669 -0.5832
  608MOL0     H80246   3.678   2.513   5.816 -2.4497  0.3200  2.3626
  608MOL0     H80247   3.689   2.572   5.983 -1.7894 -0.0972 -0.2327
  608MOL0     H80248   3.886   2.428   5.897 -0.3133  0.0491 -0.4723
  608MOL0     H80249   3.921   2.553   5.774 -0.0828  0.6172  0.1946
  608MOL0     H80250   4.032   2.537   6.038  0.9295 -1.1063 -0.8715
  608MOL0     H80251   3.945   2.686   6.016 -1.6904 -0.0690 -3.1293
  608MOL0     H80252   4.158   2.591   5.819  3.1536  1.8709  2.0558
  608MOL0     H80253   4.069   2.736   5.804 -1.0476 -2.8446 -2.8883
  608MOL0     H80254   4.379   2.793   6.104 -1.1392  1.8972 -0.9341
  608MOL0     H80255   3.649   2.918   5.674  0.5586  1.5179  0.6077
  608MOL0     H80256   3.440   2.991   5.612  3.4766  1.3915  2.1558
  609MOL0     O80257   0.021   9.196   9.811 -0.0655  0.2159  0.0037
  609MOL0     C80258   0.111   9.116   9.777 -1.1295  0.0202 -0.5874
  609MOL0     O80259   0.097   8.981   9.781 -0.5247  0.1966 -0.0779
  609MOL0     C80260  -0.026   8.929   9.809 -0.0168 -0.0959 -0.3468
  609MOL0     C80261  -0.144   8.983   9.761 -0.4640 -0.2907 -0.2260
  609MOL0     C80262  -0.259   8.913   9.795 -0.1709  0.9503  0.0311
  609MOL0     C80263  -0.260   8.795   9.877 -0.0860  0.2094  0.2282
  609MOL0     O80264  -0.373   8.734   9.896  0.5537  0.3304 -0.5847
  609MOL0     C80265  -0.372   8.593   9.896  0.4030 -0.2075  0.1021
  609MOL0     C80266  -0.519   8.532   9.871 -1.8043  0.1483 -0.7153
  609MOL0     C80267  -0.609   8.557   9.990  0.2767 -0.2040  0.0579
  609MOL0     C80268  -0.698   8.671   9.971 -0.1576 -0.3328  0.0204
  609MOL0     C80269  -0.810   8.678  10.083  0.3017 -1.0721 -0.0645
  609MOL0     C80270  -0.932   8.605  10.070  0.0387 -0.8016 -0.4001
  609MOL0     C80271  -1.032   8.661  10.182  0.0987 -0.2215 -0.2916
  609MOL0     C80272  -1.159   8.587  10.204 -0.8045 -0.6640 -0.0730
  609MOL0     N80273  -1.144   8.445  10.246  0.4691 -0.6300  0.1473
  609MOL0     C80274  -1.167   8.407  10.377 -0.5187  0.0140 -0.3330
  609MOL0     C80275  -1.171   8.268  10.363  0.1377 -1.2700 -0.8533
  609MOL0     C80276  -1.220   8.182  10.472 -0.0428 -0.8511 -0.3652
  609MOL0     C80277  -1.354   8.122  10.445  0.4380  1.3224  0.7927
  609MOL0     C80278  -1.414   8.031  10.555 -0.7554  0.1970  0.0628
  609MOL0     C80279  -1.553   7.971  10.518  0.0590 -0.9530  0.8302
  609MOL0     O80280  -1.603   7.885  10.616  0.5665  0.1369 -1.0984
  609MOL0     C80281  -1.744   7.883  10.633 -0.5489  0.5727 -1.0008
  609MOL0     C80282  -1.801   7.877  10.761 -0.0560 -0.2534 -0.3516
  609MOL0     C80283  -1.936   7.900  10.782  0.7250  0.0388 -0.4805
  609MOL0     C80284  -2.020   7.921  10.672  0.3330 -0.4834 -0.1159
  609MOL0     C80285  -2.169   7.936  10.698  0.5824 -0.8329  0.4287
  609MOL0     O80286  -2.203   7.948  10.831 -0.2308 -0.3054 -0.4170
  609MOL0     C80287  -2.334   7.962  10.858  0.6157  0.0919 -0.2684
  609MOL0     C80288  -2.404   7.845  10.893  0.7970  0.2855  0.4260
  609MOL0     C80289  -2.543   7.840  10.904 -0.2479 -0.1760  1.0038
  609MOL0     C80290  -2.624   7.956  10.865  1.1225  0.6061 -0.1748
  609MOL0     O80291  -2.758   7.967  10.870  0.4187  0.8313 -0.8007
  609MOL0     C80292  -2.836   7.877  10.964  0.7277 -0.2374 -0.7459
  609MOL0     C80293  -2.981   7.913  10.975 -0.5488  0.8614 -0.6691
  609MOL0     C80294  -3.052   7.836  11.091 -0.0093 -0.6828 -0.3144
  609MOL0     C80295  -3.201   7.851  11.053 -0.2773  0.2824 -0.6386
  609MOL0     C80296  -3.275   7.749  11.141  0.6509  0.6721 -0.9143
  609MOL0     C80297  -3.428   7.736  11.117 -0.0676  0.3548 -0.7125
  609MOL0     C80298  -3.514   7.866  11.143  0.0370  0.0025 -0.2748
  609MOL0     C80299  -3.664   7.842  11.138  0.2167  0.2246  0.6155
  609MOL0    Cl80300  -3.710   7.758  11.289  0.0883 -0.1475  0.3539
  609MOL0     C80301  -2.559   8.070  10.822  0.0140 -0.1596 -0.7762
  609MOL0     C80302  -2.412   8.082  10.831 -0.9823  0.1961  0.1526
  609MOL0     O80303  -2.249   7.943  10.601 -0.0649 -0.2975 -0.0097
  609MOL0     C80304  -1.968   7.921  10.544 -0.6238 -0.4835 -0.3106
  609MOL0     C80305  -1.831   7.896  10.524 -1.2951  0.7998  0.4062
  609MOL0     N80306  -1.151   8.224  10.235  0.3646 -0.4250  0.0483
  609MOL0     N80307  -1.137   8.335  10.166 -0.0135  0.3363 -0.7651
  609MOL0     C80308  -0.137   8.750   9.930 -0.6080 -0.7895 -0.0293
  609MOL0     C80309  -0.025   8.820   9.897  0.4851 -0.0039 -0.6943
  609MOL0     C80310   0.238   9.172   9.753 -0.4722 -0.2067  0.1094
  609MOL0     C80311   0.351   9.089   9.760 -0.3586  0.4179  0.8617
  609MOL0     C80312   0.480   9.130   9.748 -1.4791 -1.0410  0.5747
  609MOL0     C80313   0.499   9.261   9.712 -0.8585 -1.5222 -0.3635
  609MOL0     O80314   0.622   9.325   9.683  1.2342  0.4760  0.1165
  609MOL0     C80315   0.736   9.270   9.743  0.1844  0.9120  0.5481
  609MOL0     C80316   0.854   9.356   9.721  1.6410 -0.0884  0.6364
  609MOL0     C80317   0.983   9.283   9.737  0.4834  0.6898  0.2155
  609MOL0     C80318   1.106   9.380   9.758  0.2321 -0.7375  0.4032
  609MOL0     C80319   1.219   9.290   9.774  0.0217  0.0736 -0.3535
  609MOL0     C80320   1.320   9.226   9.774  0.0070  0.1497  0.0736
  609MOL0     C80321   0.389   9.345   9.695  0.8778 -0.9858 -0.2348
  609MOL0     C80322   0.256   9.304   9.712 -0.3759  0.5120 -1.0172
  609MOL0     H80323  -0.155   9.061   9.687 -2.0520 -1.6401 -1.4899
  609MOL0     H80324  -0.357   8.932   9.753  1.0944  3.0137 -2.2649
  609MOL0     H80325  -0.337   8.572   9.998 -2.3760  0.7603  1.3539
  609MOL0     H80326  -0.299   8.561   9.822 -1.8933 -1.0742 -1.8956
  609MOL0     H80327  -0.503   8.424   9.865  0.2632  0.3533  0.2125
  609MOL0     H80328  -0.556   8.577   9.778 -0.0313  1.2138 -0.9523
  609MOL0     H80329  -0.545   8.563  10.078 -1.1151 -2.2421  1.2939
  609MOL0     H80330  -0.679   8.474   9.998 -0.0922  0.0207 -0.7447
  609MOL0     H80331  -0.640   8.763   9.971 -0.1874 -0.2877 -1.5571
  609MOL0     H80332  -0.738   8.668   9.869  1.3310 -0.1709 -0.5876
  609MOL0     H80333  -0.843   8.782  10.093  1.6036 -0.6850  0.3326
  609MOL0     H80334  -0.771   8.635  10.175 -3.6266 -4.3022  0.3588
  609MOL0     H80335  -0.915   8.498  10.089 -1.4088 -0.7644  1.4264
  609MOL0     H80336  -0.982   8.603   9.973 -0.4332  0.9726 -0.2232
  609MOL0     H80337  -0.982   8.654  10.278 -0.0240 -0.8230 -0.2693
  609MOL0     H80338  -1.058   8.767  10.173 -1.1027 -0.3681  0.9814
  609MOL0     H80339  -1.208   8.598  10.106 -0.5253  0.8537 -0.0603
  609MOL0     H80340  -1.225   8.643  10.270  0.0004  0.9439 -0.5995
  609MOL0     H80341  -1.187   8.467  10.465  1.0003 -1.0526  0.7841
  609MOL0     H80342  -1.228   8.244  10.562  2.9153 -1.5277  0.4843
  609MOL0     H80343  -1.143   8.109  10.501  2.7321  2.0060  0.0561
  609MOL0     H80344  -1.335   8.060  10.357  2.0425  2.6142  0.1812
  609MOL0     H80345  -1.420   8.206  10.418  0.4586  1.9950  2.7009
  609MOL0     H80346  -1.341   7.952  10.574  0.1751  1.0732  0.1337
  609MOL0     H80347  -1.424   8.099  10.640  0.7888  1.1855 -0.5094
  609MOL0     H80348  -1.540   7.906  10.431 -0.8770  0.6381 -0.5630
  609MOL0     H80349  -1.630   8.045  10.493 -0.6025 -0.8738  2.9374
  609MOL0     H80350  -1.738   7.855  10.847  1.5175 -0.9197 -1.6150
  609MOL0     H80351  -1.957   7.892  10.888  1.6577 -2.7741 -0.4261
  609MOL0     H80352  -2.360   7.751  10.924  2.7064  0.3326 -1.8558
  609MOL0     H80353  -2.596   7.753  10.942 -2.6035  0.2495 -1.0428
  609MOL0     H80354  -2.787   7.894  11.060 -1.3938  5.0883 -0.2308
  609MOL0     H80355  -2.821   7.771  10.941 -0.9342 -1.6632  3.7122
  609MOL0     H80356  -3.011   7.878  10.876  2.3896 -0.7204 -1.1440
  609MOL0     H80357  -2.981   8.022  10.975  1.2743  0.8970 -0.7313
  609MOL0     H80358  -3.037   7.881  11.189 -0.8141 -1.5128  0.2053
  609MOL0     H80359  -3.023   7.731  11.088 -0.9013 -0.9268 -0.8940
  609MOL0     H80360  -3.235   7.955  11.062 -2.2212 -0.4526  1.6809
  609MOL0     H80361  -3.220   7.821  10.949 -2.4091  0.6995 -0.4276
  609MOL0     H80362  -3.256   7.784  11.243 -1.6556 -2.1958  0.6447
  609MOL0     H80363  -3.239   7.649  11.118 -1.5552  0.3247 -3.3861
  609MOL0     H80364  -3.462   7.651  11.178  2.0639 -1.3876 -1.7847
  609MOL0     H80365  -3.443   7.718  11.010  0.6774  2.3769 -1.2079
  609MOL0     H80366  -3.486   7.908  11.240 -0.2352  1.7884 -0.9321
  609MOL0     H80367  -3.488   7.938  11.065 -4.9765 -1.2771 -3.5435
  609MOL0     H80368  -3.681   7.772  11.055  2.5880 -0.8112  0.8986
  609MOL0     H80369  -3.711   7.939  11.123  0.1465  0.2627  1.0702
  609MOL0     H80370  -2.616   8.159  10.798  1.2531  0.8705 -0.0384
  609MOL0     H80371  -2.356   8.173  10.807 -2.5387  1.2432  0.3613
  609MOL0     H80372  -2.035   7.920  10.458 -0.9226 -0.2529 -0.0844
  609MOL0     H80373  -1.796   7.876  10.423 -0.0606 -1.0937  1.1510
  609MOL0     H80374  -0.138   8.667   9.999 -1.6861 -1.3868 -0.7392
  609MOL0     H80375   0.072   8.782   9.929 -0.8197 -2.8700  0.2710
  609MOL0     H80376   0.335   8.984   9.780 -1.6112  0.4875  0.3150
  609MOL0     H80377   0.563   9.059   9.753 -1.7543 -1.3206  1.2779
  609MOL0     H80378   0.746   9.172   9.694 -1.4481 -0.4782  2.8014
  609MOL0     H80379   0.720   9.252   9.850 -0.7856 -0.4209  0.2115
  609MOL0     H80380   0.844   9.393   9.619 -0.5325 -2.2380 -0.0442
  609MOL0     H80381   0.834   9.435   9.794 -3.2321  0.2138 -0.6468
  609MOL0     H80382   1.006   9.217   9.653  0.8029 -1.4363  1.8768
  609MOL0     H80383   0.982   9.224   9.830  0.5218  2.2331  1.2314
  609MOL0     H80384   1.125   9.444   9.672 -1.1177  2.8868  2.5596
  609MOL0     H80385   1.081   9.450   9.838 -1.0445  0.1081 -0.7107
  609MOL0     H80386   1.414   9.174   9.780  0.0811  0.1648 -0.7682
  609MOL0     H80387   0.408   9.447   9.663 -3.9793 -0.0410 -0.9052
  609MOL0     H80388   0.165   9.359   9.687 -2.6870 -1.8080  1.5851
  610MOL0     O80389   7.177   1.846   6.511 -0.0974  0.9288 -0.5930
  610MOL0     C80390   7.168   1.756   6.428  0.2606 -0.5131  0.7918
  610MOL0     O80391   7.050   1.685   6.403  0.3846  0.2633 -0.4945
  610MOL0     C80392   6.927   1.737   6.439  1.0210 -0.2462 -0.6232
  610MOL0     C80393   6.900   1.874   6.427  0.1290  0.0387 -0.0549
  610MOL0     C80394   6.772   1.927   6.469 -0.1048 -0.1930  0.3249
  610MOL0     C80395   6.679   1.834   6.517 -0.0505  0.2108  0.1929
  610MOL0     O80396   6.566   1.881   6.555  0.5374 -0.4482 -0.5481
  610MOL0     C80397   6.449   1.802   6.534 -1.0324  0.8591  0.8658
  610MOL0     C80398   6.320   1.881   6.538  0.5776  0.7732 -0.5465
  610MOL0     C80399   6.186   1.799   6.530  0.1529  0.6570  0.0473
  610MOL0     C80400   6.210   1.667   6.454  0.1992  0.6233 -0.4181
  610MOL0     C80401   6.089   1.576   6.440 -0.5711  0.8629  0.4125
  610MOL0     C80402   6.106   1.429   6.384  0.0018 -0.4089  0.3067
  610MOL0     C80403   6.166   1.412   6.240 -0.2048 -0.7814 -0.5648
  610MOL0     C80404   6.118   1.279   6.172  0.4177 -0.5068 -0.2976
  610MOL0     N80405   6.163   1.260   6.031  0.0194  0.4566 -0.0334
  610MOL0     C80406   6.090   1.290   5.921  0.7548 -0.5493 -0.1498
  610MOL0     C80407   6.173   1.264   5.811 -1.0703  0.4548  0.2133
  610MOL0     C80408   6.150   1.270   5.661 -0.4699 -0.0807  0.7850
  610MOL0     C80409   5.999   1.302   5.635 -0.4297  0.2857 -0.1274
  610MOL0     C80410   5.966   1.312   5.491 -0.3794 -0.1323  0.9096
  610MOL0     C80411   5.821   1.348   5.457  0.3865  0.4427  0.0094
  610MOL0     O80412   5.730   1.252   5.537 -0.6068 -0.4621  0.6278
  610MOL0     C80413   5.591   1.252   5.524 -0.6699 -0.7808  0.4219
  610MOL0     C80414   5.519   1.170   5.612  0.3132 -0.4043  0.4200
  610MOL0     C80415   5.374   1.153   5.605 -0.3886 -0.9711 -1.4336
  610MOL0     C80416   5.307   1.220   5.502  0.6652  0.3993  0.5978
  610MOL0     C80417   5.156   1.213   5.476 -0.2232 -0.3634  0.5109
  610MOL0     O80418   5.113   1.275   5.365  0.9316 -0.3345  0.1034
  610MOL0     C80419   4.990   1.234   5.321  0.0166 -0.6409 -0.0820
  610MOL0     C80420   4.940   1.100   5.318  0.3154 -0.8358  0.2323
  610MOL0     C80421   4.820   1.067   5.244  0.2766 -0.2818  0.4518
  610MOL0     C80422   4.748   1.165   5.176 -0.2703 -0.6016  0.0834
  610MOL0     O80423   4.637   1.135   5.109 -0.1274  0.1048  0.6220
  610MOL0     C80424   4.522   1.134   5.196 -0.5124 -0.4184 -0.5789
  610MOL0     C80425   4.484   0.992   5.223  0.6048  0.1539 -0.4901
  610MOL0     C80426   4.340   0.995   5.258  0.7055  1.0367  1.0018
  610MOL0     C80427   4.292   0.871   5.321 -0.6164  0.5769  0.2234
  610MOL0     C80428   4.146   0.860   5.291 -0.0907  0.2463  0.4099
  610MOL0     C80429   4.082   0.715   5.312  0.0921  0.1443 -0.1323
  610MOL0     C80430   3.962   0.697   5.410 -0.6706  0.4198  0.9492
  610MOL0     C80431   3.982   0.559   5.472 -0.3010 -0.2814 -0.0790
  610MOL0    Cl80432   3.973   0.429   5.337 -0.1200 -0.1232 -0.2648
  610MOL0     C80433   4.796   1.293   5.180  0.2775 -0.9950 -0.3874
  610MOL0     C80434   4.913   1.325   5.247  0.1430 -0.6681  0.1332
  610MOL0     O80435   5.088   1.150   5.555 -0.0400  0.3276 -0.0961
  610MOL0     C80436   5.382   1.310   5.420 -0.5870 -0.3770  1.0052
  610MOL0     C80437   5.522   1.327   5.425  0.5796  0.3391 -0.2786
  610MOL0     N80438   6.300   1.235   5.861  0.6653  0.6394 -0.4586
  610MOL0     N80439   6.296   1.224   5.987 -0.7304 -0.3072 -0.0584
  610MOL0     C80440   6.714   1.703   6.530  0.5232  0.0942  0.2084
  610MOL0     C80441   6.831   1.653   6.495 -0.9990  0.4377  0.0643
  610MOL0     C80442   7.299   1.714   6.370  0.9034 -0.5854 -0.0048
  610MOL0     C80443   7.305   1.606   6.290 -0.6603  0.4702  0.4469
  610MOL0     C80444   7.431   1.577   6.226 -0.0596  0.4928 -0.3246
  610MOL0     C80445   7.546   1.630   6.278 -0.7397 -0.0704  0.5047
  610MOL0     O80446   7.663   1.591   6.231 -0.5497 -0.2290  0.1026
  610MOL0     C80447   7.783   1.600   6.301 -0.4500  0.2939 -0.4821
  610MOL0     C80448   7.894   1.510   6.233  0.1878  0.4076  0.0022
  610MOL0     C80449   7.970   1.592   6.124  0.4365 -0.7264  0.0220
  610MOL0     C80450   8.073   1.698   6.179  1.2296  0.7340  0.7502
  610MOL0     C80451   8.201   1.644   6.193 -0.1699  0.4845  1.5449
  610MOL0     C80452   8.319   1.610   6.204 -0.2671  0.4128 -0.7837
  610MOL0     C80453   7.538   1.741   6.364 -0.0206 -0.7442 -0.4834
  610MOL0     C80454   7.415   1.785   6.403 -0.2646  0.4472 -0.4440
  610MOL0     H80455   6.970   1.945   6.385 -0.3022  0.8704  0.6140
  610MOL0     H80456   6.741   2.030   6.459 -2.9534 -0.8130  1.7215
  610MOL0     H80457   6.447   1.728   6.615  1.2129  1.9295  1.9935
  610MOL0     H80458   6.460   1.753   6.437  2.0974  1.4641  0.8213
  610MOL0     H80459   6.325   1.937   6.444  0.9558 -1.7888 -2.1179
  610MOL0     H80460   6.324   1.940   6.630  0.4946 -1.6470  1.0872
  610MOL0     H80461   6.098   1.852   6.492 -1.8099 -4.0345 -2.8887
  610MOL0     H80462   6.173   1.769   6.634  1.8006  0.8073  0.3229
  610MOL0     H80463   6.242   1.697   6.354 -0.4371  1.3875 -0.4073
  610MOL0     H80464   6.280   1.601   6.507 -2.0887 -0.1144  1.9394
  610MOL0     H80465   6.033   1.617   6.356 -0.6947 -1.6343 -0.8196
  610MOL0     H80466   6.033   1.561   6.533 -0.0340 -1.0533  0.4719
  610MOL0     H80467   6.010   1.378   6.391 -1.3477  2.1092  1.6194
  610MOL0     H80468   6.173   1.376   6.453  2.2465  1.1877 -0.5003
  610MOL0     H80469   6.123   1.491   6.177  0.6243  0.0986 -0.0523
  610MOL0     H80470   6.274   1.422   6.252 -0.6174  1.6279  2.2450
  610MOL0     H80471   6.010   1.293   6.162  0.5401  1.3821  0.7565
  610MOL0     H80472   6.126   1.191   6.236  2.1735 -0.1539  0.0140
  610MOL0     H80473   5.983   1.311   5.920  0.6979 -0.8260  0.2925
  610MOL0     H80474   6.181   1.175   5.618 -3.1772  0.1680 -2.1226
  610MOL0     H80475   6.213   1.349   5.618  1.1546 -1.4025  0.6464
  610MOL0     H80476   5.983   1.404   5.672  1.4383  0.7516 -0.5123
  610MOL0     H80477   5.942   1.226   5.689 -2.2025  0.7602 -1.2120
  610MOL0     H80478   6.033   1.389   5.453  0.7626 -1.4371  0.1586
  610MOL0     H80479   5.990   1.218   5.440 -2.3459 -0.3633  0.3530
  610MOL0     H80480   5.807   1.317   5.353  1.0223 -1.1556  0.3696
  610MOL0     H80481   5.785   1.449   5.479 -0.7429 -0.0064  0.3374
  610MOL0     H80482   5.571   1.102   5.678 -2.0820 -0.5236  2.3567
  610MOL0     H80483   5.314   1.090   5.670 -0.5493  0.1315 -0.4648
  610MOL0     H80484   4.996   1.025   5.373 -0.6500  0.9565  3.9491
  610MOL0     H80485   4.776   0.967   5.248  0.2309 -0.2322  1.2987
  610MOL0     H80486   4.443   1.191   5.145 -0.4705  1.5230  1.3597
  610MOL0     H80487   4.548   1.191   5.285 -1.5783  6.7668 -4.0983
  610MOL0     H80488   4.549   0.952   5.302  0.4450  1.0592  0.1160
  610MOL0     H80489   4.485   0.933   5.131  1.2660 -1.5960  0.5988
  610MOL0     H80490   4.278   1.014   5.170 -1.2692 -1.3713  1.7650
  610MOL0     H80491   4.309   1.077   5.323  3.1244  0.6737  2.7573
  610MOL0     H80492   4.341   0.782   5.280 -0.6246  0.2916  0.8145
  610MOL0     H80493   4.317   0.885   5.427  1.3728  0.1282 -0.1513
  610MOL0     H80494   4.109   0.887   5.192  2.7135 -2.0887 -1.4572
  610MOL0     H80495   4.100   0.930   5.361 -0.5665 -2.4677  3.0593
  610MOL0     H80496   4.162   0.645   5.338 -1.7667 -2.5551 -1.2792
  610MOL0     H80497   4.067   0.678   5.210  2.2027 -0.4310 -0.2909
  610MOL0     H80498   3.965   0.767   5.493 -0.3490  0.0358  1.2628
  610MOL0     H80499   3.865   0.707   5.360  0.3987  2.4177 -0.8931
  610MOL0     H80500   3.897   0.546   5.539 -0.6796  2.0389 -0.0327
  610MOL0     H80501   4.075   0.548   5.528 -0.3602  3.5641  1.0784
  610MOL0     H80502   4.734   1.367   5.130 -2.3338 -0.7208  2.9549
  610MOL0     H80503   4.945   1.429   5.243 -0.8953 -0.2719  1.4715
  610MOL0     H80504   5.332   1.372   5.346  0.9658  0.0177  0.2496
  610MOL0     H80505   5.566   1.397   5.354  0.4883  0.6455 -0.0386
  610MOL0     H80506   6.640   1.636   6.574  2.2235 -0.4453  2.4634
  610MOL0     H80507   6.850   1.550   6.524 -0.1801  1.0174  1.7482
  610MOL0     H80508   7.219   1.542   6.269  1.1846 -1.5205 -1.5041
  610MOL0     H80509   7.435   1.500   6.149  1.4736  1.4322 -1.2368
  610MOL0     H80510   7.768   1.579   6.407  1.8261 -0.4213 -0.2568
  610MOL0     H80511   7.811   1.706   6.303 -2.0674  0.7508  0.3607
  610MOL0     H80512   7.973   1.471   6.298  1.8563  1.1353 -1.5100
  610MOL0     H80513   7.854   1.418   6.191  1.5626 -0.4092  0.4194
  610MOL0     H80514   7.894   1.641   6.063  1.6680  1.5340  0.2006
  610MOL0     H80515   8.019   1.519   6.060 -2.4480 -0.1443 -3.1605
  610MOL0     H80516   8.081   1.783   6.111  0.0191  1.0503  0.9795
  610MOL0     H80517   8.030   1.719   6.278 -1.5689  1.0391 -0.4244
  610MOL0     H80518   8.420   1.574   6.211  1.2097  4.4705  2.7854
  610MOL0     H80519   7.629   1.793   6.393  1.0316 -2.8652  0.2550
  610MOL0     H80520   7.405   1.874   6.463 -1.5101  1.7964 -2.5351
  611MOL0     O80521   5.098   2.265   5.879 -0.3957  0.6983 -0.4599
  611MOL0     C80522   5.176   2.337   5.949 -0.3039  0.9734  0.1427
  611MOL0     O80523   5.131   2.423   6.045  0.4106  0.3061  0.1913
  611MOL0     C80524   4.995   2.422   6.060 -0.6881  0.1757 -0.0826
  611MOL0     C80525   4.919   2.310   6.125  0.5023 -0.2249  0.0526
  611MOL0     C80526   4.782   2.319   6.135  0.0696 -0.0708  0.1834
  611MOL0     C80527   4.721   2.432   6.092  0.1734  0.3245  0.0221
  611MOL0     O80528   4.582   2.437   6.092 -0.8595  0.2110 -0.8759
  611MOL0     C80529   4.503   2.326   6.147 -0.3782 -0.3175  0.4429
  611MOL0     C80530   4.362   2.375   6.161  0.1478 -1.3365 -0.5146
  611MOL0     C80531   4.268   2.273   6.218  0.9727 -0.4191 -0.7417
  611MOL0     C80532   4.147   2.331   6.279 -0.2522 -0.6075  0.3144
  611MOL0     C80533   4.055   2.227   6.343 -0.2650 -0.6802 -0.5462
  611MOL0     C80534   3.928   2.304   6.386  0.3568 -0.2384 -0.1958
  611MOL0     C80535   3.802   2.216   6.411  0.0679  0.8916  0.7405
  611MOL0     C80536   3.748   2.131   6.299  0.5994 -0.0923 -0.0987
  611MOL0     N80537   3.675   2.205   6.205  0.6756  0.3262 -0.5014
  611MOL0     C80538   3.539   2.232   6.219  1.4171  0.1096  0.3254
  611MOL0     C80539   3.508   2.305   6.109  0.3726 -0.5373 -0.7768
  611MOL0     C80540   3.365   2.342   6.058 -0.3508 -0.0890 -0.9487
  611MOL0     C80541   3.320   2.298   5.915 -0.2360 -0.2605  0.4450
  611MOL0     C80542   3.177   2.332   5.886  0.0477  0.4197  0.0055
  611MOL0     C80543   3.079   2.250   5.963 -0.0321  0.5688 -1.1846
  611MOL0     O80544   2.947   2.293   5.925 -0.4854 -0.0306 -0.3405
  611MOL0     C80545   2.847   2.226   5.996 -0.6337 -0.7596 -0.0421
  611MOL0     C80546   2.855   2.090   6.042 -0.4036  0.8677  0.0391
  611MOL0     C80547   2.740   2.033   6.095 -0.3228 -0.1010  0.3567
  611MOL0     C80548   2.623   2.103   6.120  0.4020 -0.1689  0.6521
  611MOL0     C80549   2.505   2.034   6.180  0.5639 -0.1448 -0.1837
  611MOL0     O80550   2.410   2.112   6.253  0.5972 -0.5684  1.5146
  611MOL0     C80551   2.284   2.047   6.266 -0.7327 -0.2311  0.4733
  611MOL0     C80552   2.169   2.077   6.190 -0.5794 -0.4171  0.3450
  611MOL0     C80553   2.043   2.035   6.230 -1.4283  0.9493  0.5234
  611MOL0     C80554   2.028   1.955   6.339  0.2251  0.0425 -0.4853
  611MOL0     O80555   1.913   1.908   6.384 -0.0155  0.4572 -0.4962
  611MOL0     C80556   1.794   1.979   6.363 -0.1558 -1.2388 -0.0789
  611MOL0     C80557   1.686   1.925   6.457  0.7845 -0.0848  0.0036
  611MOL0     C80558   1.636   1.790   6.424 -1.0373 -0.6086  0.2522
  611MOL0     C80559   1.555   1.731   6.538 -1.0673  0.3725 -0.0441
  611MOL0     C80560   1.415   1.789   6.549  0.3612  0.7792 -0.1305
  611MOL0     C80561   1.340   1.723   6.669 -0.6029 -0.7882  0.6400
  611MOL0     C80562   1.197   1.769   6.663  0.6492 -0.0094 -0.0464
  611MOL0     C80563   1.106   1.704   6.771 -0.2516 -0.3510 -0.9377
  611MOL0    Cl80564   0.934   1.761   6.747 -0.3830 -0.8926  0.1045
  611MOL0     C80565   2.138   1.927   6.414 -0.3510 -0.4096  0.7138
  611MOL0     C80566   2.257   1.966   6.377 -0.9621  0.7300 -0.4866
  611MOL0     O80567   2.501   1.914   6.158 -0.0184 -0.6077 -0.0535
  611MOL0     C80568   2.621   2.232   6.075 -0.3210  0.1888 -0.1599
  611MOL0     C80569   2.729   2.291   6.018  0.6849 -0.4498 -0.0303
  611MOL0     N80570   3.621   2.326   6.039 -0.3355 -0.3885  0.4638
  611MOL0     N80571   3.724   2.264   6.093 -0.1892  0.4182 -0.3772
  611MOL0     C80572   4.787   2.551   6.057 -0.0634 -0.1726  0.0819
  611MOL0     C80573   4.923   2.540   6.033  0.2336 -0.9045 -0.2235
  611MOL0     C80574   5.314   2.328   5.923 -0.1573  0.7057 -0.2393
  611MOL0     C80575   5.369   2.235   5.829 -0.3229 -0.1769 -0.4439
  611MOL0     C80576   5.508   2.227   5.793  0.1070  0.0664 -0.3486
  611MOL0     C80577   5.599   2.297   5.874 -0.0958 -0.7969  0.2011
  611MOL0     O80578   5.742   2.295   5.873  0.0184  0.2338 -0.6986
  611MOL0     C80579   5.801   2.187   5.799 -0.7895  0.0307 -0.8397
  611MOL0     C80580   5.789   2.070   5.895  0.5550  0.6045  1.6675
  611MOL0     C80581   5.857   1.949   5.831  0.1940  1.1054  0.3211
  611MOL0     C80582   5.805   1.892   5.695  0.1693 -0.8613  0.0816
  611MOL0     C80583   5.869   1.761   5.678  0.4385  0.3398 -0.1435
  611MOL0     C80584   5.944   1.671   5.667 -0.0387 -0.2531 -0.2382
  611MOL0     C80585   5.547   2.387   5.970  0.0802  0.7956  0.3375
  611MOL0     C80586   5.409   2.407   5.995  0.6637  1.0290  0.3475
  611MOL0     H80587   4.973   2.224   6.164  0.9743  0.8316  1.8289
  611MOL0     H80588   4.737   2.222   6.155 -0.8921  0.0850 -1.1648
  611MOL0     H80589   4.535   2.294   6.247 -1.2368 -0.0715  0.8069
  611MOL0     H80590   4.507   2.241   6.078 -1.5446 -0.3269  0.3678
  611MOL0     H80591   4.323   2.398   6.061  0.3913 -0.2571 -0.3727
  611MOL0     H80592   4.368   2.465   6.223 -1.3657 -0.8614 -0.9971
  611MOL0     H80593   4.312   2.221   6.303  1.1743  3.3006  1.6448
  611MOL0     H80594   4.236   2.206   6.137 -3.4417  3.0204 -2.2317
  611MOL0     H80595   4.175   2.409   6.351 -0.4186  0.2935 -0.5784
  611MOL0     H80596   4.111   2.393   6.197 -1.8941  0.1874  1.5614
  611MOL0     H80597   4.108   2.184   6.429  2.5218 -1.5981 -2.5990
  611MOL0     H80598   4.033   2.143   6.277  2.6551 -1.6074 -0.4746
  611MOL0     H80599   3.913   2.372   6.301  0.0826 -1.1964 -0.9391
  611MOL0     H80600   3.953   2.366   6.472  0.2248  0.6368 -0.7760
  611MOL0     H80601   3.836   2.155   6.495  1.2856  1.0067  0.3433
  611MOL0     H80602   3.725   2.281   6.454  2.1254  3.9181  0.1412
  611MOL0     H80603   3.685   2.053   6.343  0.4421 -0.2358 -0.5656
  611MOL0     H80604   3.837   2.090   6.251  1.4883 -0.1121  1.5212
  611MOL0     H80605   3.470   2.188   6.290 -0.8026 -0.0410 -1.7828
  611MOL0     H80606   3.352   2.450   6.065  4.1924  0.7311 -2.0875
  611MOL0     H80607   3.304   2.293   6.135  1.3773 -0.4322  0.2599
  611MOL0     H80608   3.340   2.190   5.909  2.6515  0.2292 -0.0080
  611MOL0     H80609   3.392   2.350   5.852  0.8753 -0.6294  1.3686
  611MOL0     H80610   3.161   2.437   5.911 -0.0339 -0.0319  2.0913
  611MOL0     H80611   3.157   2.318   5.780  0.4613  0.4268 -0.0739
  611MOL0     H80612   3.087   2.257   6.072 -0.2755  0.7236 -1.1768
  611MOL0     H80613   3.093   2.143   5.940  2.0130  0.9594 -1.9645
  611MOL0     H80614   2.948   2.034   6.045 -2.2302 -2.3859  0.4040
  611MOL0     H80615   2.748   1.927   6.118  2.2166 -0.9402 -3.3832
  611MOL0     H80616   2.177   2.138   6.100 -0.1737 -2.1720 -0.8470
  611MOL0     H80617   1.955   2.055   6.169 -1.7815  0.4003  0.8442
  611MOL0     H80618   1.760   1.972   6.259  0.6447  1.5546 -0.6080
  611MOL0     H80619   1.814   2.085   6.381 -1.2090 -0.3373 -3.3309
  611MOL0     H80620   1.605   1.999   6.454  1.8934  1.1602 -0.3663
  611MOL0     H80621   1.721   1.924   6.561  0.3046  0.0467  0.1712
  611MOL0     H80622   1.728   1.731   6.429 -0.6933  0.0078  2.0008
  611MOL0     H80623   1.590   1.784   6.325 -1.5704 -0.9552  0.5128
  611MOL0     H80624   1.553   1.622   6.532  0.1888  0.3808 -1.2339
  611MOL0     H80625   1.615   1.751   6.627  0.0631 -0.8349 -0.5017
  611MOL0     H80626   1.362   1.753   6.460  2.0946 -0.9264 -0.5328
  611MOL0     H80627   1.406   1.898   6.551 -2.4489  0.6297  0.4218
  611MOL0     H80628   1.382   1.757   6.764  0.3244 -0.7006  0.2191
  611MOL0     H80629   1.351   1.615   6.657 -0.6590 -0.7043 -0.2430
  611MOL0     H80630   1.193   1.879   6.665 -1.9113 -0.0390 -0.7293
  611MOL0     H80631   1.147   1.732   6.574 -3.7753  2.0155  1.3090
  611MOL0     H80632   1.143   1.731   6.871  1.8896 -1.7274 -1.2795
  611MOL0     H80633   1.112   1.595   6.773 -0.8005 -0.3821  0.0782
  611MOL0     H80634   2.135   1.857   6.497  1.6007  1.4463  2.4758
  611MOL0     H80635   2.350   1.942   6.428 -1.0626 -0.5237 -0.8523
  611MOL0     H80636   2.529   2.282   6.106  0.0154  0.8966 -0.2760
  611MOL0     H80637   2.724   2.399   6.006 -0.6676 -0.5326 -0.3645
  611MOL0     H80638   4.739   2.647   6.039  1.6103  1.4232  3.2617
  611MOL0     H80639   4.978   2.623   5.990 -2.2933  0.5928 -0.7546
  611MOL0     H80640   5.289   2.174   5.790 -2.0358  1.6435  0.0589
  611MOL0     H80641   5.529   2.160   5.710 -2.1950 -1.1168 -0.0529
  611MOL0     H80642   5.906   2.212   5.782 -0.5041 -1.5973 -1.6416
  611MOL0     H80643   5.748   2.163   5.707  0.1114  0.5272 -1.5078
  611MOL0     H80644   5.841   2.103   5.986  1.9550  2.6499  0.2161
  611MOL0     H80645   5.682   2.046   5.896 -0.0243  2.6650 -1.2761
  611MOL0     H80646   5.851   1.860   5.895  0.5754 -1.3025 -2.7545
  611MOL0     H80647   5.961   1.978   5.818  1.4961 -0.5404  5.1589
  611MOL0     H80648   5.698   1.872   5.694  0.3497 -2.9801  3.7666
  611MOL0     H80649   5.846   1.952   5.613 -2.4244 -0.3232 -0.8979
  611MOL0     H80650   6.035   1.616   5.664  1.1090  1.4682  0.9792
  611MOL0     H80651   5.626   2.441   6.021  0.4898  0.0520  0.4942
  611MOL0     H80652   5.374   2.468   6.078 -1.8554  0.0254  0.1210
  612MOL0     O80653  11.046   6.723   3.604  0.6221  0.1059  0.4458
  612MOL0     C80654  11.076   6.831   3.553  0.7346 -0.0374 -0.4350
  612MOL0     O80655  11.016   6.950   3.582 -0.5218  0.2133  0.2345
  612MOL0     C80656  10.890   6.963   3.644 -0.2443  0.7346 -1.1346
  612MOL0     C80657  10.786   6.862   3.639  0.0094  0.3095 -0.1204
  612MOL0     C80658  10.670   6.874   3.718  0.4677 -0.4062 -0.4192
  612MOL0     C80659  10.650   6.997   3.781  0.2432 -0.3222  1.0580
  612MOL0     O80660  10.536   7.033   3.841 -0.3211 -0.0449 -0.3883
  612MOL0     C80661  10.416   7.020   3.767  0.7151  0.8121 -0.3393
  612MOL0     C80662  10.326   7.127   3.842  0.1332  0.0018 -0.6663
  612MOL0     C80663  10.330   7.260   3.774 -0.2738 -0.9551 -0.6112
  612MOL0     C80664  10.246   7.362   3.851 -0.2669 -0.1022 -0.0440
  612MOL0     C80665  10.270   7.517   3.817  0.0829 -0.1788  0.4010
  612MOL0     C80666  10.213   7.610   3.917 -0.0204 -0.2917 -0.9368
  612MOL0     C80667  10.270   7.746   3.889  0.3109 -0.2175  0.6991
  612MOL0     C80668  10.236   7.852   3.996  0.3103 -0.0606  0.3628
  612MOL0     N80669  10.108   7.915   3.971 -0.0127  0.0949  0.1254
  612MOL0     C80670  10.031   7.964   4.071 -0.1488 -0.3776 -0.1199
  612MOL0     C80671   9.950   8.059   4.011 -1.5850 -0.5016 -0.3299
  612MOL0     C80672   9.856   8.149   4.079  0.2159 -0.6621  0.5733
  612MOL0     C80673   9.724   8.068   4.118  0.2973 -0.5701 -0.3504
  612MOL0     C80674   9.624   8.143   4.199 -0.0250 -0.7520 -0.0876
  612MOL0     C80675   9.531   8.247   4.133 -0.5818  0.1646  0.2135
  612MOL0     O80676   9.429   8.282   4.220  0.1033  0.1565 -0.0183
  612MOL0     C80677   9.322   8.354   4.186  0.3911  0.4394  0.9633
  612MOL0     C80678   9.224   8.360   4.279  0.4470  0.2326  0.4734
  612MOL0     C80679   9.099   8.432   4.253 -0.1992 -0.1524 -0.8002
  612MOL0     C80680   9.076   8.493   4.134 -0.5839  0.3365  0.5686
  612MOL0     C80681   8.946   8.556   4.112 -0.1030 -0.2645  1.1951
  612MOL0     O80682   8.859   8.553   4.215 -0.0628  0.3463 -0.2777
  612MOL0     C80683   8.743   8.614   4.196  0.2372  0.9293  0.1073
  612MOL0     C80684   8.732   8.760   4.182 -0.4190  0.0731  0.3217
  612MOL0     C80685   8.604   8.809   4.165  0.1999 -0.1116  0.4992
  612MOL0     C80686   8.488   8.735   4.147 -1.5071  0.5150  0.3804
  612MOL0     O80687   8.366   8.797   4.137  0.2397 -0.0585 -0.0379
  612MOL0     C80688   8.251   8.758   4.220 -0.6855  1.0546  0.0914
  612MOL0     C80689   8.265   8.760   4.373 -0.6869  0.0132 -0.1007
  612MOL0     C80690   8.128   8.763   4.444  0.1763  0.7899  0.1279
  612MOL0     C80691   8.057   8.625   4.430 -0.0427 -0.3863  0.1969
  612MOL0     C80692   7.914   8.637   4.472 -0.0321  0.8606  0.4974
  612MOL0     C80693   7.898   8.644   4.622  0.4022 -0.0744 -0.0757
  612MOL0     C80694   7.747   8.633   4.682 -0.0363 -0.0281 -0.3029
  612MOL0     C80695   7.695   8.500   4.632  0.7536 -0.1227  0.4090
  612MOL0    Cl80696   7.524   8.492   4.677 -0.1496 -0.4404  0.0534
  612MOL0     C80697   8.502   8.594   4.145  1.1479 -0.6042  0.0133
  612MOL0     C80698   8.626   8.538   4.178 -0.1980  0.0127  0.0730
  612MOL0     O80699   8.939   8.619   4.007  0.1824 -0.2540  0.6999
  612MOL0     C80700   9.180   8.479   4.038  0.5110 -0.4681  0.8535
  612MOL0     C80701   9.300   8.410   4.057  0.5187  0.7651  0.0200
  612MOL0     N80702   9.967   8.047   3.878  0.3214  0.4671  0.8473
  612MOL0     N80703  10.067   7.955   3.855 -0.0863 -0.3645  0.3844
  612MOL0     C80704  10.747   7.097   3.779  0.9262  0.4307  0.0758
  612MOL0     C80705  10.866   7.082   3.713 -0.3968  0.0034 -0.1999
  612MOL0     C80706  11.191   6.837   3.458  0.7497 -0.2264  0.4745
  612MOL0     C80707  11.219   6.958   3.383 -0.6277  0.6629 -0.4323
  612MOL0     C80708  11.338   6.965   3.311  0.0641  0.3022  0.1398
  612MOL0     C80709  11.416   6.850   3.289  0.4293 -0.4280  0.7896
  612MOL0     O80710  11.518   6.869   3.202  0.4712  0.4540  0.2226
  612MOL0     C80711  11.498   6.840   3.061  1.4977 -1.2082  0.3770
  612MOL0     C80712  11.518   6.690   3.029 -0.5081 -0.4287  0.0057
  612MOL0     C80713  11.651   6.652   3.100 -0.0408 -0.1108 -0.2485
  612MOL0     C80714  11.698   6.520   3.043 -0.9421 -1.1097  0.3406
  612MOL0     C80715  11.627   6.399   3.076  0.6089 -0.1325 -0.9195
  612MOL0     C80716  11.550   6.310   3.115 -0.3043  0.2348 -0.1529
  612MOL0     C80717  11.374   6.726   3.340 -0.0354  0.4749 -0.0026
  612MOL0     C80718  11.265   6.722   3.419  1.4273  0.9682  0.5599
  612MOL0     H80719  10.804   6.770   3.585  1.4483 -0.4355  1.5176
  612MOL0     H80720  10.605   6.788   3.733  1.6906 -1.3062 -0.0620
  612MOL0     H80721  10.374   6.920   3.773 -1.6201  1.5013 -3.2272
  612MOL0     H80722  10.434   7.052   3.664 -1.7224 -0.1020 -1.0942
  612MOL0     H80723  10.375   7.138   3.939  2.5237  3.9507 -2.0829
  612MOL0     H80724  10.226   7.085   3.856 -0.0792  0.7954  0.3270
  612MOL0     H80725  10.278   7.247   3.678 -0.9481 -1.3245 -0.2041
  612MOL0     H80726  10.436   7.284   3.761  0.2119 -2.1516  0.8918
  612MOL0     H80727  10.141   7.332   3.850  0.0004 -1.1030 -0.1360
  612MOL0     H80728  10.285   7.339   3.950 -0.7324 -3.1056 -0.4653
  612MOL0     H80729  10.214   7.540   3.726  0.3661  1.5501  0.6404
  612MOL0     H80730  10.378   7.527   3.800  0.3123 -0.0108  1.7667
  612MOL0     H80731  10.256   7.586   4.015  1.4710  1.9677 -0.9697
  612MOL0     H80732  10.104   7.602   3.926 -0.1200  1.1098 -0.8301
  612MOL0     H80733  10.379   7.733   3.887  0.2262 -2.7748  3.7292
  612MOL0     H80734  10.232   7.780   3.792 -0.6679 -2.0591  0.3754
  612MOL0     H80735  10.306   7.936   3.998  1.3820 -0.9487  1.9334
  612MOL0     H80736  10.245   7.811   4.097 -0.2542  2.0221  1.3030
  612MOL0     H80737  10.037   7.947   4.178  0.4948 -1.1449 -0.2690
  612MOL0     H80738   9.831   8.234   4.016  2.4950 -0.3636 -0.0109
  612MOL0     H80739   9.908   8.192   4.166  0.4140  2.1531 -0.8060
  612MOL0     H80740   9.751   7.979   4.175 -2.1294 -0.6165  0.8430
  612MOL0     H80741   9.664   8.033   4.033 -0.8659 -2.4703  1.1684
  612MOL0     H80742   9.560   8.067   4.244 -0.7521  1.1435  2.3192
  612MOL0     H80743   9.673   8.186   4.287 -1.6329  1.6779 -0.2865
  612MOL0     H80744   9.490   8.189   4.049  0.8606 -3.2855  1.6946
  612MOL0     H80745   9.581   8.339   4.103  0.3201  0.1480  1.5931
  612MOL0     H80746   9.248   8.320   4.377  1.9786  0.2968  0.1503
  612MOL0     H80747   9.031   8.436   4.338 -0.8166 -1.8655 -1.1640
  612MOL0     H80748   8.816   8.828   4.192  1.3433 -1.9808  0.1392
  612MOL0     H80749   8.591   8.917   4.166  3.5325  0.4176  0.4018
  612MOL0     H80750   8.226   8.657   4.186  2.1339 -0.4949  2.2044
  612MOL0     H80751   8.175   8.833   4.196  1.9234  3.6815 -0.5703
  612MOL0     H80752   8.321   8.853   4.385  2.3661 -1.9315  2.6847
  612MOL0     H80753   8.326   8.677   4.410  0.3275  0.9195  0.3135
  612MOL0     H80754   8.058   8.840   4.409 -0.4547  0.0535 -0.2637
  612MOL0     H80755   8.135   8.786   4.551 -0.9401  0.6289  0.2556
  612MOL0     H80756   8.048   8.575   4.333 -2.9195  0.7606 -0.2382
  612MOL0     H80757   8.108   8.553   4.494 -0.0577  0.7549  1.5614
  612MOL0     H80758   7.866   8.545   4.437 -2.1510  1.2992  2.0640
  612MOL0     H80759   7.859   8.723   4.434 -0.3120  2.1400  3.5094
  612MOL0     H80760   7.925   8.734   4.679  0.1890 -1.1700  1.8609
  612MOL0     H80761   7.956   8.560   4.660 -0.2052 -1.4384 -2.0068
  612MOL0     H80762   7.754   8.628   4.791 -1.3531  0.7532 -0.1632
  612MOL0     H80763   7.679   8.715   4.657  0.5166  0.5845  0.1485
  612MOL0     H80764   7.755   8.421   4.677  2.5385 -0.6863 -2.6984
  612MOL0     H80765   7.708   8.484   4.525 -2.2999 -2.4992  0.2416
  612MOL0     H80766   8.415   8.531   4.132  0.0303  0.7932  0.4869
  612MOL0     H80767   8.655   8.434   4.187  1.3728  0.4466  0.4700
  612MOL0     H80768   9.169   8.512   3.935 -0.6612  1.9194  1.6683
  612MOL0     H80769   9.360   8.400   3.967 -3.1746 -1.6137 -2.4721
  612MOL0     H80770  10.732   7.196   3.822  1.1741  0.5966 -0.2139
  612MOL0     H80771  10.950   7.151   3.722  0.1872 -0.2573 -2.7552
  612MOL0     H80772  11.163   7.049   3.400 -1.1414  0.2745  0.0330
  612MOL0     H80773  11.377   7.062   3.281  4.3739 -1.8108 -1.9927
  612MOL0     H80774  11.572   6.901   3.008  0.7384 -0.7125 -0.1347
  612MOL0     H80775  11.398   6.863   3.023  2.4212 -2.2670 -2.9853
  612MOL0     H80776  11.429   6.633   3.056 -2.0508  2.1222  0.6637
  612MOL0     H80777  11.532   6.686   2.921  0.5810  1.1576  0.0562
  612MOL0     H80778  11.638   6.635   3.207 -0.3336 -2.1700 -0.5791
  612MOL0     H80779  11.718   6.734   3.072  1.0600 -0.8272  0.2237
  612MOL0     H80780  11.714   6.522   2.935 -2.1943  0.8770  0.1263
  612MOL0     H80781  11.799   6.499   3.078 -0.7167 -2.0048 -0.8117
  612MOL0     H80782  11.473   6.242   3.147 -0.1163  0.5993  1.1595
  612MOL0     H80783  11.433   6.640   3.310 -2.1886 -1.8003  1.8104
  612MOL0     H80784  11.246   6.626   3.466  3.7840  0.5143  0.6768
  613MOL0     O80785   5.397   0.748   6.602  0.6693 -1.3673 -0.2668
  613MOL0     C80786   5.435   0.863   6.613  0.1086 -0.1208  1.1615
  613MOL0     O80787   5.351   0.973   6.594 -0.0283 -0.9405  0.1816
  613MOL0     C80788   5.217   0.936   6.577 -0.3412 -0.6825  0.1085
  613MOL0     C80789   5.163   0.981   6.456 -0.3907  0.4480  0.0377
  613MOL0     C80790   5.024   0.985   6.449 -0.1620  0.5650 -0.1576
  613MOL0     C80791   4.930   0.954   6.548 -0.6779 -0.2140 -0.6908
  613MOL0     O80792   4.800   0.957   6.515 -0.2348 -0.3696  0.1778
  613MOL0     C80793   4.714   0.869   6.599 -0.1486  0.2617 -0.0604
  613MOL0     C80794   4.563   0.872   6.555 -0.3090  0.0767  1.1410
  613MOL0     C80795   4.488   0.999   6.592  0.6126  0.1346 -0.2633
  613MOL0     C80796   4.345   1.000   6.551 -0.0698 -0.1301 -0.0387
  613MOL0     C80797   4.263   1.120   6.602  0.3293  0.7937  0.0322
  613MOL0     C80798   4.321   1.262   6.572 -0.4028  1.0461  0.0842
  613MOL0     C80799   4.224   1.378   6.569 -0.4089 -0.0593  1.0064
  613MOL0     C80800   4.162   1.386   6.694 -0.5443  0.4767  0.2691
  613MOL0     N80801   4.072   1.502   6.697  0.6292 -0.0311 -0.1083
  613MOL0     C80802   4.103   1.633   6.714  0.6993 -0.7104 -1.2213
  613MOL0     C80803   3.982   1.703   6.707 -0.8385  0.2958  1.0903
  613MOL0     C80804   3.971   1.846   6.715 -0.5414 -0.3183 -0.5454
  613MOL0     C80805   3.842   1.917   6.676 -0.8174 -0.5037 -0.0510
  613MOL0     C80806   3.722   1.880   6.758 -1.3652  0.6202  0.7725
  613MOL0     C80807   3.738   1.900   6.907 -0.2263 -0.2292 -0.0222
  613MOL0     O80808   3.616   1.891   6.985 -0.5216  0.3184  0.0950
  613MOL0     C80809   3.540   1.777   6.970  0.0367  0.0794 -0.5732
  613MOL0     C80810   3.411   1.794   7.018  0.3581 -0.0385 -0.7340
  613MOL0     C80811   3.326   1.680   7.034  0.0140  0.6175  0.3430
  613MOL0     C80812   3.369   1.552   6.991 -0.1253  0.7358 -0.1147
  613MOL0     C80813   3.269   1.442   6.992 -0.6826  0.1293 -0.2140
  613MOL0     O80814   3.167   1.465   7.076  0.5303  0.0407  0.2784
  613MOL0     C80815   3.059   1.378   7.089  0.1300  0.1074 -0.1959
  613MOL0     C80816   3.014   1.282   6.997 -0.2323 -1.0624  0.3662
  613MOL0     C80817   2.908   1.201   7.024  0.5043  0.5007 -0.1877
  613MOL0     C80818   2.840   1.211   7.147 -0.1613 -0.1493 -0.5472
  613MOL0     O80819   2.723   1.152   7.187 -0.2563 -0.4348  0.5659
  613MOL0     C80820   2.684   1.025   7.124  1.0083 -0.6436  0.0964
  613MOL0     C80821   2.583   0.943   7.207 -0.6948  0.1357  0.1075
  613MOL0     C80822   2.438   0.982   7.230 -0.2773  0.9347  0.6637
  613MOL0     C80823   2.337   0.889   7.297 -0.9134 -0.1353  0.1584
  613MOL0     C80824   2.194   0.945   7.343 -0.1884  0.6973  0.4788
  613MOL0     C80825   2.090   0.940   7.222 -0.2359 -0.3090  1.0165
  613MOL0     C80826   1.984   1.050   7.238 -0.7527 -0.2081 -0.0110
  613MOL0     C80827   1.911   1.055   7.372  0.5116  0.0700 -0.6026
  613MOL0    Cl80828   1.760   0.957   7.366 -0.4305 -0.3112 -0.3110
  613MOL0     C80829   2.889   1.302   7.242  0.6631  0.0979  0.8149
  613MOL0     C80830   2.992   1.392   7.212 -0.3225  0.5052 -0.6334
  613MOL0     O80831   3.292   1.339   6.927 -0.5023  0.2088  0.5550
  613MOL0     C80832   3.504   1.541   6.937 -0.7873 -0.5160  0.4990
  613MOL0     C80833   3.587   1.654   6.926 -0.1837  0.3382 -0.2000
  613MOL0     N80834   3.884   1.610   6.678 -0.0111  0.1925  0.0723
  613MOL0     N80835   3.939   1.487   6.677  0.2817 -0.1374  0.6237
  613MOL0     C80836   4.986   0.915   6.673  0.2276 -0.6229 -0.8449
  613MOL0     C80837   5.128   0.907   6.686  0.1252 -0.5031 -0.7434
  613MOL0     C80838   5.577   0.879   6.659 -0.1295 -0.5159 -0.2456
  613MOL0     C80839   5.676   0.790   6.622  0.7192  0.4215 -0.6678
  613MOL0     C80840   5.809   0.800   6.658 -0.1776  0.3329 -0.0950
  613MOL0     C80841   5.839   0.922   6.728 -0.0186 -0.9497  0.2216
  613MOL0     O80842   5.965   0.941   6.778 -0.4616  0.7100 -0.1226
  613MOL0     C80843   5.987   0.981   6.913 -0.4515  0.6663  0.5069
  613MOL0     C80844   6.139   0.989   6.933  0.2989  0.3796  0.0160
  613MOL0     C80845   6.214   1.053   6.819 -0.3996  0.7066  0.2226
  613MOL0     C80846   6.169   1.195   6.792  0.3709  0.3082 -0.7536
  613MOL0     C80847   6.266   1.272   6.714  1.2362 -0.3894 -0.5997
  613MOL0     C80848   6.353   1.334   6.650 -0.3626  0.1391 -0.2655
  613MOL0     C80849   5.744   1.027   6.753 -0.5093  0.3989 -0.0987
  613MOL0     C80850   5.616   1.000   6.718  0.9015 -0.2847  0.3892
  613MOL0     H80851   5.234   1.015   6.381  1.3047  0.6048  1.6414
  613MOL0     H80852   4.985   1.028   6.358 -0.3063 -0.7186 -0.7275
  613MOL0     H80853   4.721   0.906   6.701 -0.1778  2.1461 -0.6824
  613MOL0     H80854   4.752   0.767   6.598 -0.5459  0.0921  1.1622
  613MOL0     H80855   4.498   0.793   6.596 -1.8229  0.0863 -1.1044
  613MOL0     H80856   4.566   0.861   6.447 -3.2398 -1.1673  1.0778
  613MOL0     H80857   4.551   1.080   6.555  3.2498  0.5587  4.3724
  613MOL0     H80858   4.493   1.000   6.701  3.6804  1.9587 -0.3074
  613MOL0     H80859   4.347   1.016   6.443  0.5234  1.8309  0.2250
  613MOL0     H80860   4.289   0.912   6.583  3.0004 -1.8800  0.8937
  613MOL0     H80861   4.237   1.107   6.707  1.5423 -0.7392  0.1893
  613MOL0     H80862   4.168   1.113   6.548  0.3581 -2.2360  0.1603
  613MOL0     H80863   4.371   1.256   6.475  0.2783 -0.7108  0.4994
  613MOL0     H80864   4.400   1.281   6.645  0.5790  0.0403 -0.6860
  613MOL0     H80865   4.281   1.468   6.546  1.9485 -1.8414 -0.6154
  613MOL0     H80866   4.147   1.364   6.492 -0.5213  1.2469  0.8684
  613MOL0     H80867   4.239   1.393   6.772  1.2117  0.2755 -1.3657
  613MOL0     H80868   4.107   1.294   6.718  0.6388  0.0965  1.6581
  613MOL0     H80869   4.198   1.681   6.737 -0.0888  0.2999  0.0565
  613MOL0     H80870   4.054   1.887   6.656  0.1330  0.6179  0.9965
  613MOL0     H80871   3.997   1.873   6.817  0.0199 -0.9211 -0.5237
  613MOL0     H80872   3.819   1.900   6.570 -0.1163  2.5863 -0.7883
  613MOL0     H80873   3.865   2.023   6.689  1.7528 -0.6765 -2.2576
  613MOL0     H80874   3.643   1.949   6.725 -1.1536  0.8120  0.6657
  613MOL0     H80875   3.677   1.785   6.729  0.4345 -0.4593  1.3764
  613MOL0     H80876   3.781   2.000   6.922 -1.5371  0.4625 -0.6740
  613MOL0     H80877   3.817   1.833   6.942  0.4794 -0.0885 -1.2941
  613MOL0     H80878   3.391   1.897   7.049 -0.6788  0.2458 -2.2274
  613MOL0     H80879   3.234   1.692   7.090 -0.1358 -1.2966  0.5847
  613MOL0     H80880   3.059   1.270   6.898  0.4628 -2.4729  0.8211
  613MOL0     H80881   2.872   1.137   6.945 -1.1151 -0.5052  1.2979
  613MOL0     H80882   2.779   0.969   7.126  2.8455  2.2745  2.0535
  613MOL0     H80883   2.659   1.055   7.022  1.5125  3.9476  1.1082
  613MOL0     H80884   2.620   0.916   7.307  0.5354 -1.7752 -0.8043
  613MOL0     H80885   2.579   0.839   7.172  3.1592 -0.0477 -0.2231
  613MOL0     H80886   2.387   0.997   7.134 -0.3947 -1.3433  0.3047
  613MOL0     H80887   2.449   1.077   7.283 -0.1728  1.2544  0.0832
  613MOL0     H80888   2.324   0.803   7.231 -0.2722 -1.6548  1.9223
  613MOL0     H80889   2.388   0.859   7.389 -0.2569 -1.2931 -0.5655
  613MOL0     H80890   2.205   1.049   7.375  1.7992 -0.2519  3.2309
  613MOL0     H80891   2.156   0.888   7.428 -0.4675  1.4818  0.8870
  613MOL0     H80892   2.043   0.842   7.208  1.4003 -0.6904 -3.1295
  613MOL0     H80893   2.136   0.955   7.124 -0.2462 -1.1508  0.8767
  613MOL0     H80894   2.029   1.149   7.229 -1.1191  0.2281  2.4082
  613MOL0     H80895   1.923   1.046   7.147 -0.1449 -1.2142 -0.3907
  613MOL0     H80896   1.886   1.159   7.393  0.3289 -0.0063 -0.4361
  613MOL0     H80897   1.969   1.018   7.457 -0.2313  0.8232  0.2584
  613MOL0     H80898   2.836   1.317   7.336 -2.4929  1.2846 -1.0042
  613MOL0     H80899   3.012   1.470   7.285 -0.9775 -0.8081  1.0291
  613MOL0     H80900   3.537   1.442   6.910 -1.5345 -1.7481  3.6155
  613MOL0     H80901   3.688   1.646   6.887  0.6648  0.1093  1.9367
  613MOL0     H80902   4.933   0.870   6.755  0.4753 -1.0471 -0.9122
  613MOL0     H80903   5.176   0.872   6.776 -1.8540  2.5726  1.6936
  613MOL0     H80904   5.639   0.702   6.570 -2.0798  2.1149 -1.7460
  613MOL0     H80905   5.877   0.716   6.659 -1.8423 -1.0706  1.4671
  613MOL0     H80906   5.930   0.917   6.981 -2.7120  2.6006  0.5711
  613MOL0     H80907   5.948   1.081   6.935  0.8309  1.2370  0.2430
  613MOL0     H80908   6.146   1.048   7.025 -2.2699  0.1181  0.4496
  613MOL0     H80909   6.178   0.888   6.950 -0.5643  0.2053  1.0396
  613MOL0     H80910   6.198   1.000   6.724  1.5274  0.3575  0.0596
  613MOL0     H80911   6.321   1.054   6.840  0.1268  0.0337 -2.1264
  613MOL0     H80912   6.082   1.177   6.728 -1.6419 -0.1218  1.9196
  613MOL0     H80913   6.144   1.251   6.883 -1.7383 -3.2240  1.0534
  613MOL0     H80914   6.439   1.376   6.601  1.1793 -2.3852  0.0961
  613MOL0     H80915   5.773   1.122   6.797  0.5101  0.1206 -0.1531
  613MOL0     H80916   5.537   1.074   6.729 -0.0598 -1.3358  0.7612
  614MOL0     O80917   3.871  10.472   6.259 -0.7858  0.0190  0.1365
  614MOL0     C80918   3.938  10.386   6.316  0.6462 -0.2732  0.2285
  614MOL0     O80919   3.886  10.280   6.383 -0.2877  0.8350 -0.4090
  614MOL0     C80920   3.747  10.262   6.389 -0.3690  0.3594 -0.2330
  614MOL0     C80921   3.708  10.219   6.516  0.5596 -0.3872 -1.4676
  614MOL0     C80922   3.571  10.184   6.549 -0.6710  0.0271 -0.0728
  614MOL0     C80923   3.468  10.187   6.448 -1.2483 -0.7695  0.2623
  614MOL0     O80924   3.334  10.150   6.449  1.2967 -0.3157  0.5814
  614MOL0     C80925   3.293  10.065   6.565 -0.2397 -0.7160 -0.0925
  614MOL0     C80926   3.146  10.039   6.553  0.9326 -0.3813  0.0747
  614MOL0     C80927   3.055  10.169   6.590  0.1257  0.2006 -0.4288
  614MOL0     C80928   3.009  10.248   6.469 -0.1419 -0.3913  0.1425
  614MOL0     C80929   2.880  10.206   6.398 -0.4634  0.6538  0.2485
  614MOL0     C80930   2.748  10.172   6.475 -0.4152  0.1905  0.2489
  614MOL0     C80931   2.671  10.306   6.500 -0.2121 -0.4489  0.3141
  614MOL0     C80932   2.730  10.411   6.597  0.4645  0.8099 -0.1992
  614MOL0     N80933   2.633  10.525   6.619 -0.5110 -0.0287 -0.1664
  614MOL0     C80934   2.594  10.592   6.739  0.1724  0.0461  0.2648
  614MOL0     C80935   2.521  10.694   6.693 -0.5677  0.5101 -0.3239
  614MOL0     C80936   2.480  10.812   6.783 -0.2560  0.8668  1.0137
  614MOL0     C80937   2.470  10.947   6.702 -0.5527 -0.6894  0.5728
  614MOL0     C80938   2.435  11.057   6.808 -0.1140  0.7319 -0.2063
  614MOL0     C80939   2.466  11.199   6.740  0.1540 -0.5459 -0.6998
  614MOL0     O80940   2.528  11.301   6.838  0.9272 -0.5183 -0.2529
  614MOL0     C80941   2.659  11.322   6.816 -0.1289 -0.0810  0.0761
  614MOL0     C80942   2.753  11.258   6.731  0.1021  0.7026  0.1951
  614MOL0     C80943   2.883  11.306   6.732  0.6745  0.3205 -0.5187
  614MOL0     C80944   2.933  11.418   6.807 -0.5266 -0.1780  0.1031
  614MOL0     C80945   3.074  11.469   6.791  0.3032  0.0094  1.1156
  614MOL0     O80946   3.108  11.589   6.852 -0.4435  0.3275  0.0096
  614MOL0     C80947   3.229  11.640   6.822 -0.3344  0.0995  0.1227
  614MOL0     C80948   3.351  11.613   6.895  0.1758 -0.5872  0.2571
  614MOL0     C80949   3.471  11.681   6.872 -0.7515 -0.6478 -0.4567
  614MOL0     C80950   3.482  11.778   6.767  0.0671  0.9204 -0.0731
  614MOL0     O80951   3.606  11.835   6.743  0.6024 -0.3254  0.5520
  614MOL0     C80952   3.609  11.930   6.634  0.3468  0.7240 -1.0018
  614MOL0     C80953   3.744  11.994   6.607  0.2695 -0.2662  0.1505
  614MOL0     C80954   3.811  12.057   6.730  0.2014 -0.4405 -0.4131
  614MOL0     C80955   3.954  12.121   6.702 -0.1570 -1.0225  0.1806
  614MOL0     C80956   4.037  12.124   6.830  0.4076 -0.2414 -1.2530
  614MOL0     C80957   4.003  12.239   6.934  0.1478 -0.4805 -0.4152
  614MOL0     C80958   4.092  12.232   7.055  0.3522  0.5350 -0.8054
  614MOL0     C80959   4.238  12.261   7.046 -0.0608 -0.0946  0.4949
  614MOL0    Cl80960   4.261  12.425   6.976 -0.1032 -0.0406  0.0399
  614MOL0     C80961   3.364  11.802   6.691  0.2143  0.0125 -0.3738
  614MOL0     C80962   3.240  11.737   6.720  0.0834  0.3049 -0.0904
  614MOL0     O80963   3.150  11.404   6.715  0.2783  0.3647 -0.6231
  614MOL0     C80964   2.831  11.483   6.869  0.2396  0.2985  0.5499
  614MOL0     C80965   2.706  11.434   6.884  0.1659 -0.1389  0.2372
  614MOL0     N80966   2.519  10.689   6.550  0.4142  0.4089 -0.3416
  614MOL0     N80967   2.585  10.586   6.513  1.2059  0.0412 -0.9543
  614MOL0     C80968   3.508  10.240   6.319 -0.0009 -0.3300  0.5047
  614MOL0     C80969   3.647  10.275   6.285 -0.1436  0.1173  0.5279
  614MOL0     C80970   4.083  10.412   6.297  0.1604  0.2495 -1.1427
  614MOL0     C80971   4.180  10.338   6.368  0.2529  0.5576  0.3851
  614MOL0     C80972   4.313  10.362   6.342  0.2995 -0.1151  0.2112
  614MOL0     C80973   4.360  10.475   6.276  0.2600  0.4615 -0.2077
  614MOL0     O80974   4.486  10.474   6.228 -1.2138  0.3181  0.4696
  614MOL0     C80975   4.585  10.550   6.293  0.3061 -0.1905 -0.3870
  614MOL0     C80976   4.660  10.635   6.189  0.3036  0.3535 -0.3817
  614MOL0     C80977   4.755  10.544   6.105  0.7637  0.1887 -0.2745
  614MOL0     C80978   4.820  10.631   5.998 -0.1623  0.0981 -0.6958
  614MOL0     C80979   4.734  10.670   5.893 -0.0339 -0.2352 -0.6358
  614MOL0     C80980   4.641  10.715   5.828  0.2015 -0.2137  0.5480
  614MOL0     C80981   4.262  10.557   6.216  0.7763 -0.0703 -0.4337
  614MOL0     C80982   4.131  10.522   6.217  0.1749 -0.2097  0.6448
  614MOL0     H80983   3.769  10.232   6.605  0.4315  0.3513 -1.4770
  614MOL0     H80984   3.539  10.154   6.649 -0.4587 -1.6109 -0.4606
  614MOL0     H80985   3.299  10.118   6.660 -1.5357 -1.3111  0.3453
  614MOL0     H80986   3.335   9.965   6.573 -0.5681 -0.7943  0.7841
  614MOL0     H80987   3.122   9.956   6.621  1.0952  0.5459  1.3072
  614MOL0     H80988   3.124  10.009   6.451 -1.8331  2.9271 -0.4693
  614MOL0     H80989   3.117  10.227   6.658  1.9085 -1.8144 -0.1996
  614MOL0     H80990   2.971  10.143   6.654 -1.4921  2.7904 -1.3896
  614MOL0     H80991   3.006  10.349   6.510 -2.8754 -0.4379  0.2104
  614MOL0     H80992   3.088  10.247   6.393  0.3252 -0.2173  0.6134
  614MOL0     H80993   2.901  10.110   6.350 -0.1908  1.2866 -0.9525
  614MOL0     H80994   2.859  10.271   6.312 -1.2718  0.5522  0.3545
  614MOL0     H80995   2.777  10.131   6.572 -0.3803  1.2068  0.6840
  614MOL0     H80996   2.693  10.087   6.433  0.4154  0.7247 -2.0623
  614MOL0     H80997   2.672  10.360   6.404  2.0149  2.7715  1.9442
  614MOL0     H80998   2.571  10.279   6.534  0.5086 -5.4431 -0.6824
  614MOL0     H80999   2.820  10.449   6.548 -0.7886  0.0861 -3.2469
  614MOL0     H81000   2.756  10.363   6.692 -2.2697 -0.4592 -0.0019
  614MOL0     H81001   2.623  10.574   6.842  1.1713 -2.7691 -0.4037
  614MOL0     H81002   2.551  10.818   6.866  1.3043 -2.1689  0.0481
  614MOL0     H81003   2.383  10.796   6.832 -0.9461  2.2378  0.1586
  614MOL0     H81004   2.391  10.940   6.627 -2.3457  3.2822  1.8383
  614MOL0     H81005   2.569  10.953   6.657 -1.0153  0.1119 -0.3758
  614MOL0     H81006   2.327  11.043   6.817 -0.4374 -0.4022 -4.1599
  614MOL0     H81007   2.478  11.053   6.909 -3.9478  1.0990  1.5954
  614MOL0     H81008   2.363  11.231   6.718  0.0572 -0.9026 -0.7718
  614MOL0     H81009   2.520  11.191   6.646 -0.0805  0.1034 -0.8970
  614MOL0     H81010   2.721  11.168   6.678 -1.4707 -0.8424  3.4371
  614MOL0     H81011   2.951  11.245   6.673  1.4366 -1.4823  2.0036
  614MOL0     H81012   3.358  11.542   6.977 -0.9504  2.0339  2.7774
  614MOL0     H81013   3.547  11.659   6.947 -0.0511  1.9446 -0.2996
  614MOL0     H81014   3.535  12.006   6.660  0.6938  1.2876 -1.6345
  614MOL0     H81015   3.567  11.878   6.547 -1.8605  0.2935  0.2481
  614MOL0     H81016   3.730  12.070   6.529 -3.9608 -0.9379  0.0460
  614MOL0     H81017   3.817  11.919   6.574  4.7568  2.7603  2.1202
  614MOL0     H81018   3.819  11.983   6.810 -0.8293  0.1718  0.2718
  614MOL0     H81019   3.748  12.137   6.770  4.1232  2.5812  0.3580
  614MOL0     H81020   4.009  12.063   6.627 -0.7614 -3.0628  1.2280
  614MOL0     H81021   3.931  12.223   6.671 -3.1175 -0.9529  2.1743
  614MOL0     H81022   4.143  12.133   6.803  0.5327 -0.7869 -0.9432
  614MOL0     H81023   4.021  12.036   6.893 -0.4669  1.6332  1.3098
  614MOL0     H81024   3.901  12.228   6.970  1.1990 -0.0208  3.0722
  614MOL0     H81025   3.994  12.337   6.886  1.0994 -1.0486 -1.8022
  614MOL0     H81026   4.057  12.305   7.129  1.9823 -0.8851  1.4838
  614MOL0     H81027   4.090  12.133   7.101 -3.0963  0.9474  0.2974
  614MOL0     H81028   4.284  12.188   6.979  2.3555  1.6990  0.0607
  614MOL0     H81029   4.294  12.254   7.140  2.7991  0.9967 -1.0207
  614MOL0     H81030   3.369  11.877   6.612  1.8601  1.8364  1.3186
  614MOL0     H81031   3.154  11.772   6.664  2.2533  1.8699 -2.6887
  614MOL0     H81032   2.853  11.581   6.911  1.6867 -0.1750  0.9605
  614MOL0     H81033   2.634  11.504   6.924 -0.4754 -0.9875  0.5947
  614MOL0     H81034   3.439  10.242   6.235 -0.7100 -0.8856  1.0648
  614MOL0     H81035   3.680  10.303   6.186  0.8214 -0.6310  0.6218
  614MOL0     H81036   4.148  10.269   6.445  0.8017  0.2441  0.3409
  614MOL0     H81037   4.392  10.318   6.402 -0.0819  0.0427  0.8368
  614MOL0     H81038   4.656  10.480   6.339  0.2704 -0.5876 -0.9252
  614MOL0     H81039   4.538  10.597   6.380  0.3625 -5.4858  2.9903
  614MOL0     H81040   4.583  10.676   6.123  0.6327 -0.7521 -1.4685
  614MOL0     H81041   4.714  10.708   6.251 -0.7029 -0.4981  1.6116
  614MOL0     H81042   4.694  10.467   6.055  2.4546 -2.3457  1.3639
  614MOL0     H81043   4.827  10.491   6.167 -1.7755 -2.2744  0.7897
  614MOL0     H81044   4.862  10.729   6.025  2.6705  0.7844 -6.1065
  614MOL0     H81045   4.899  10.566   5.959  0.4848  0.2200  0.3768
  614MOL0     H81046   4.560  10.751   5.768 -1.9606 -1.0481  2.7799
  614MOL0     H81047   4.286  10.643   6.155  2.5578 -1.6605 -2.1509
  614MOL0     H81048   4.066  10.593   6.168  1.4385 -1.5691 -3.3885
  615MOL0     O81049   0.846   4.166  10.611 -0.0295 -0.3643 -0.4719
  615MOL0     C81050   0.884   4.261  10.676 -0.4356 -0.0914 -0.7015
  615MOL0     O81051   0.832   4.306  10.801 -0.1304  0.5130  0.6655
  615MOL0     C81052   0.738   4.236  10.866 -0.4629 -0.0479  0.5083
  615MOL0     C81053   0.670   4.314  10.953 -0.5851  0.1263  0.1781
  615MOL0     C81054   0.574   4.263  11.041 -0.0530 -0.4458  0.3332
  615MOL0     C81055   0.559   4.124  11.054 -0.3454 -0.1436 -0.8422
  615MOL0     O81056   0.471   4.080  11.152 -0.3809 -0.2572  0.4377
  615MOL0     C81057   0.427   3.940  11.155  0.1488  0.3738  1.2279
  615MOL0     C81058   0.402   3.902  11.303  0.2972 -0.3676 -0.1195
  615MOL0     C81059   0.279   3.963  11.364 -0.3064  0.3748  0.5583
  615MOL0     C81060   0.241   3.898  11.501  0.0072  0.6418  0.4253
  615MOL0     C81061   0.119   3.971  11.566 -0.0351  0.2139  0.2274
  615MOL0     C81062   0.058   3.890  11.683 -0.1288 -0.6192 -0.8685
  615MOL0     C81063  -0.061   3.968  11.748 -0.1789  0.0437  0.0328
  615MOL0     C81064  -0.197   3.949  11.677  0.1909 -0.1844 -1.2877
  615MOL0     N81065  -0.302   4.039  11.730  0.0492  0.0171  0.0362
  615MOL0     C81066  -0.298   4.149  11.815 -0.3040 -0.2603 -0.6513
  615MOL0     C81067  -0.429   4.183  11.831  0.1451 -0.0057  0.1455
  615MOL0     C81068  -0.475   4.308  11.906 -0.9223  0.2853 -0.0108
  615MOL0     C81069  -0.522   4.261  12.046  0.6153  0.5028 -0.4719
  615MOL0     C81070  -0.571   4.381  12.130 -0.2681  0.9105  0.2884
  615MOL0     C81071  -0.712   4.433  12.100 -0.5484  0.6883  0.4952
  615MOL0     O81072  -0.805   4.329  12.137 -0.3397 -0.2725  0.1875
  615MOL0     C81073  -0.940   4.348  12.116 -0.8907 -0.7864 -0.5921
  615MOL0     C81074  -1.000   4.474  12.091 -0.5193 -0.1794  0.3180
  615MOL0     C81075  -1.136   4.495  12.092 -0.3082  0.1336  0.2679
  615MOL0     C81076  -1.223   4.397  12.138  0.4816  0.6575  0.3097
  615MOL0     C81077  -1.364   4.431  12.169 -0.2401  0.0644  0.3360
  615MOL0     O81078  -1.410   4.555  12.137 -0.2852 -0.0647 -0.6108
  615MOL0     C81079  -1.517   4.612  12.195 -0.4703  0.1707 -0.3991
  615MOL0     C81080  -1.533   4.599  12.335  0.0891 -0.0648 -1.1202
  615MOL0     C81081  -1.650   4.651  12.390  1.1021  0.2082  0.1956
  615MOL0     C81082  -1.737   4.727  12.318 -0.2965 -0.9688 -0.0174
  615MOL0     O81083  -1.850   4.767  12.391  0.3751  0.8392  1.5398
  615MOL0     C81084  -1.908   4.892  12.356  0.2197 -0.7846  1.2937
  615MOL0     C81085  -1.998   4.952  12.467 -0.6459  0.1082  0.4844
  615MOL0     C81086  -2.143   4.944  12.436 -0.0615 -0.5272  0.6919
  615MOL0     C81087  -2.226   5.032  12.523 -0.5068 -0.9362 -0.5281
  615MOL0     C81088  -2.369   4.988  12.519  0.5996 -0.0542 -0.5786
  615MOL0     C81089  -2.474   5.084  12.583 -0.5012 -0.0443  0.1463
  615MOL0     C81090  -2.443   5.149  12.719 -0.1152  0.3737 -0.1740
  615MOL0     C81091  -2.519   5.281  12.754  0.6147  0.4496 -0.3581
  615MOL0    Cl81092  -2.685   5.285  12.706 -0.5578 -0.1256  0.4226
  615MOL0     C81093  -1.706   4.760  12.185  0.4708 -0.6776 -0.3097
  615MOL0     C81094  -1.593   4.699  12.128 -0.3945 -0.0399  1.1028
  615MOL0     O81095  -1.420   4.351  12.239 -0.4169  0.2300 -0.8057
  615MOL0     C81096  -1.166   4.265  12.153  0.1350 -0.2912 -0.4564
  615MOL0     C81097  -1.025   4.239  12.149  0.6712 -0.4711  0.0936
  615MOL0     N81098  -0.512   4.091  11.769  0.7054 -0.6065 -0.2256
  615MOL0     N81099  -0.438   4.010  11.700 -0.5943 -0.3093 -0.3728
  615MOL0     C81100   0.629   4.043  10.958 -0.8123 -0.7650 -0.1401
  615MOL0     C81101   0.721   4.100  10.864 -0.4307  0.4346  0.0005
  615MOL0     C81102   0.997   4.338  10.621  0.0372  0.1147  0.0805
  615MOL0     C81103   1.077   4.423  10.689 -0.1025  0.0487 -0.1476
  615MOL0     C81104   1.189   4.479  10.641 -0.3911  0.4501  0.0456
  615MOL0     C81105   1.218   4.467  10.504  0.0640 -0.2159 -0.7911
  615MOL0     O81106   1.319   4.539  10.446 -0.6943  0.5167 -0.1855
  615MOL0     C81107   1.453   4.480  10.457 -0.2621  0.9775  0.0797
  615MOL0     C81108   1.457   4.342  10.396  0.2653 -0.2604 -0.0002
  615MOL0     C81109   1.607   4.320  10.367 -0.2412  0.2905  0.0006
  615MOL0     C81110   1.655   4.380  10.242 -0.1688 -0.0424 -0.2249
  615MOL0     C81111   1.796   4.366  10.226 -0.5655  0.1551 -0.7506
  615MOL0     C81112   1.910   4.360  10.205 -0.1674 -0.3575  0.5604
  615MOL0     C81113   1.129   4.382  10.421 -0.4813  0.5129 -0.0003
  615MOL0     C81114   1.028   4.313  10.483 -0.7157 -0.7567 -0.6251
  615MOL0     H81115   0.692   4.421  10.954  1.4601 -0.1956 -1.8774
  615MOL0     H81116   0.521   4.331  11.108  1.9186  0.3130  1.2192
  615MOL0     H81117   0.488   3.865  11.103 -0.7394 -0.4271  1.3155
  615MOL0     H81118   0.331   3.931  11.103  0.4234 -2.6122  1.0666
  615MOL0     H81119   0.493   3.906  11.364  1.5817 -4.1837 -1.4888
  615MOL0     H81120   0.378   3.795  11.309 -0.9199 -0.2786 -2.3217
  615MOL0     H81121   0.187   3.949  11.307  0.9567 -1.4034 -1.1828
  615MOL0     H81122   0.307   4.069  11.372  0.7342  0.1010  0.7443
  615MOL0     H81123   0.217   3.792  11.493 -3.7901  1.1103  3.1738
  615MOL0     H81124   0.332   3.909  11.561  0.3494  1.7409 -0.2553
  615MOL0     H81125   0.044   3.996  11.491 -0.1077  2.4185  0.9888
  615MOL0     H81126   0.156   4.071  11.588  0.2858  1.3015 -4.3469
  615MOL0     H81127   0.137   3.875  11.757 -1.8205 -0.2135  1.0851
  615MOL0     H81128   0.015   3.793  11.659 -0.2370 -1.0780  1.0715
  615MOL0     H81129  -0.063   3.916  11.845  0.0492 -1.3390 -0.6795
  615MOL0     H81130  -0.030   4.073  11.757  0.0596  0.1183 -1.5131
  615MOL0     H81131  -0.217   3.843  11.698  3.3998 -0.5941  0.4986
  615MOL0     H81132  -0.193   3.964  11.569 -1.6248 -0.7360 -1.4578
  615MOL0     H81133  -0.207   4.194  11.854 -1.5334  0.7828  1.1620
  615MOL0     H81134  -0.561   4.350  11.851 -1.5933 -1.0486 -0.0201
  615MOL0     H81135  -0.394   4.382  11.913 -0.8661  0.4274 -1.7518
  615MOL0     H81136  -0.442   4.202  12.093  0.5242  1.2627  0.6676
  615MOL0     H81137  -0.603   4.188  12.032  1.5727 -0.4648 -1.1300
  615MOL0     H81138  -0.579   4.355  12.236  0.7295 -0.3357  0.0818
  615MOL0     H81139  -0.501   4.464  12.117 -0.6533  1.2966  0.6535
  615MOL0     H81140  -0.728   4.466  11.997  0.7616  0.2322  0.1239
  615MOL0     H81141  -0.732   4.516  12.168 -0.9885  0.1328  1.0556
  615MOL0     H81142  -0.939   4.561  12.071  0.8926 -1.1585  0.2020
  615MOL0     H81143  -1.177   4.591  12.060  0.8459  1.1818  1.7880
  615MOL0     H81144  -1.464   4.548  12.402 -1.1823 -1.2875 -0.6965
  615MOL0     H81145  -1.668   4.624  12.493  2.3049 -1.0343  0.1198
  615MOL0     H81146  -1.973   4.869  12.272  3.5899 -0.6511 -1.5788
  615MOL0     H81147  -1.844   4.972  12.316 -0.4539 -0.5706  0.6418
  615MOL0     H81148  -1.971   5.057  12.469  1.9047 -0.4554 -0.4584
  615MOL0     H81149  -1.977   4.910  12.566 -1.6065  1.7669  1.4289
  615MOL0     H81150  -2.187   4.844  12.449  1.1550 -1.1013  0.4652
  615MOL0     H81151  -2.160   4.970  12.331  2.1701  0.2506  0.4830
  615MOL0     H81152  -2.182   5.028  12.623  1.3446 -3.2534 -1.3545
  615MOL0     H81153  -2.224   5.136  12.486  0.9601 -0.6837  0.1721
  615MOL0     H81154  -2.369   4.895  12.577  2.7692  1.1464  1.5075
  615MOL0     H81155  -2.400   4.976  12.415  1.2535  2.0297 -1.0405
  615MOL0     H81156  -2.557   5.016  12.606 -0.3407  0.5790  2.9877
  615MOL0     H81157  -2.506   5.161  12.513  0.9115 -1.6111 -2.3494
  615MOL0     H81158  -2.473   5.077  12.795  2.8126  0.6503  1.3953
  615MOL0     H81159  -2.337   5.175  12.712  0.1945 -0.8614 -0.2384
  615MOL0     H81160  -2.463   5.362  12.706  0.9614 -1.1230 -2.7528
  615MOL0     H81161  -2.499   5.303  12.859 -0.3367  3.2185 -0.6686
  615MOL0     H81162  -1.775   4.818  12.124  1.1137 -0.0983 -0.5089
  615MOL0     H81163  -1.562   4.718  12.026  1.2267  1.6944  1.8667
  615MOL0     H81164  -1.229   4.183  12.186  0.2988 -1.1304 -2.1427
  615MOL0     H81165  -0.985   4.139  12.160 -1.0169 -1.3235 -0.9704
  615MOL0     H81166   0.617   3.935  10.955  0.7104 -1.0449  1.5615
  615MOL0     H81167   0.768   4.034  10.792  2.5775  0.4979  1.7308
  615MOL0     H81168   1.058   4.448  10.793  1.9295  0.0084  0.2800
  615MOL0     H81169   1.257   4.543  10.697  2.1110  0.5015 -2.7908
  615MOL0     H81170   1.481   4.486  10.563 -1.1641  1.7622  0.2940
  615MOL0     H81171   1.521   4.545  10.401  3.6058 -2.4006  0.4187
  615MOL0     H81172   1.404   4.262  10.450 -2.4312  2.7819  2.2729
  615MOL0     H81173   1.407   4.345  10.298  2.7735  0.5200 -1.3366
  615MOL0     H81174   1.625   4.214  10.349 -1.7224  0.2179 -1.2842
  615MOL0     H81175   1.661   4.355  10.456 -0.4419  3.0600 -0.8657
  615MOL0     H81176   1.609   4.346  10.149  4.4271  2.0613 -3.6634
  615MOL0     H81177   1.649   4.489  10.255  0.1971  0.0479 -0.8007
  615MOL0     H81178   2.016   4.362  10.186 -0.3949  1.4095 -0.8094
  615MOL0     H81179   1.148   4.364  10.316 -0.5676 -1.2920  0.2569
  615MOL0     H81180   0.975   4.243  10.419 -0.5488  0.8454 -2.6139
  616MOL0     O81181   4.638  10.022   1.611 -0.1963 -0.0284  0.4684
  616MOL0     C81182   4.706  10.091   1.532 -1.2231  0.1579  0.3935
  616MOL0     O81183   4.699  10.096   1.395  0.0656 -0.4365  0.9066
  616MOL0     C81184   4.584  10.042   1.348  0.1318 -0.7211  0.1887
  616MOL0     C81185   4.579   9.909   1.309  0.8742 -0.3894 -0.0119
  616MOL0     C81186   4.456   9.853   1.262 -1.4371 -0.0693  0.0301
  616MOL0     C81187   4.339   9.927   1.255  0.0116  0.5046 -0.0182
  616MOL0     O81188   4.223   9.852   1.239  1.1207  1.1058  0.0581
  616MOL0     C81189   4.094   9.904   1.283 -0.2512 -0.6246  0.0583
  616MOL0     C81190   3.976   9.849   1.198  0.4157  0.9338  0.1852
  616MOL0     C81191   3.848   9.941   1.211  0.1345 -0.1432 -0.4514
  616MOL0     C81192   3.777   9.947   1.338 -0.2414 -0.4145 -0.4196
  616MOL0     C81193   3.632   9.988   1.332  0.5745  0.6020  0.1723
  616MOL0     C81194   3.559   9.984   1.468 -0.0764  0.0752 -0.0126
  616MOL0     C81195   3.423  10.061   1.476 -0.9696  0.3206 -0.9841
  616MOL0     C81196   3.315  10.014   1.377  0.0153  0.3290  0.8636
  616MOL0     N81197   3.264   9.879   1.423  0.4678  0.8609 -0.0482
  616MOL0     C81198   3.296   9.752   1.366  0.0529  0.1224 -0.6606
  616MOL0     C81199   3.207   9.674   1.438 -0.5652  0.9162  0.8656
  616MOL0     C81200   3.211   9.525   1.414  0.4238  0.4089  0.9690
  616MOL0     C81201   3.244   9.482   1.272  0.6942  1.0643  0.2685
  616MOL0     C81202   3.134   9.495   1.173  0.1127  0.0971 -0.2575
  616MOL0     C81203   3.007   9.412   1.199  0.6686  0.1252 -0.4049
  616MOL0     O81204   2.929   9.485   1.295  0.4164 -0.0174 -0.2005
  616MOL0     C81205   2.820   9.422   1.333  0.2937  0.0659 -0.3840
  616MOL0     C81206   2.765   9.303   1.276 -0.4516 -0.3637  0.0679
  616MOL0     C81207   2.635   9.269   1.301 -0.4135  0.8134 -0.1580
  616MOL0     C81208   2.558   9.330   1.403 -0.2335 -0.4209  0.8690
  616MOL0     C81209   2.413   9.290   1.401  0.3727  0.7962  0.2988
  616MOL0     O81210   2.369   9.181   1.332  0.4833 -0.9197 -0.6607
  616MOL0     C81211   2.234   9.181   1.307  0.4979  0.5107  1.0304
  616MOL0     C81212   2.190   9.230   1.179  0.5243 -0.3621  0.1256
  616MOL0     C81213   2.053   9.218   1.140 -0.7768  0.0896  0.6684
  616MOL0     C81214   1.961   9.167   1.231 -0.0424  0.7409  0.4457
  616MOL0     O81215   1.829   9.156   1.186  0.6051  0.6822 -0.6095
  616MOL0     C81216   1.725   9.099   1.276  0.9193 -1.2117  0.3647
  616MOL0     C81217   1.582   9.091   1.207 -1.0997  0.0808 -0.2669
  616MOL0     C81218   1.539   8.960   1.160 -0.5880 -0.4983 -0.0218
  616MOL0     C81219   1.409   8.967   1.072 -0.5430 -0.3529  0.1293
  616MOL0     C81220   1.283   8.982   1.155  0.6807  0.1292 -0.3830
  616MOL0     C81221   1.150   8.986   1.073  0.1416 -0.0913 -0.2586
  616MOL0     C81222   1.159   9.069   0.946 -0.2134 -0.3498  0.6063
  616MOL0     C81223   1.019   9.075   0.884  0.3501  0.4141  0.1101
  616MOL0    Cl81224   1.025   8.946   0.757  0.0557 -0.5800 -0.6511
  616MOL0     C81225   2.002   9.123   1.358  0.3266  0.0460 -0.4498
  616MOL0     C81226   2.140   9.135   1.399 -0.3674  0.8234  0.3869
  616MOL0     O81227   2.341   9.368   1.463 -0.6129 -0.9862  0.1600
  616MOL0     C81228   2.614   9.442   1.467  0.6418  0.0481 -0.4668
  616MOL0     C81229   2.741   9.490   1.431 -1.2269  0.5430  0.7620
  616MOL0     N81230   3.134   9.746   1.529 -0.1955 -0.1253 -0.3274
  616MOL0     N81231   3.159   9.869   1.510 -0.0083 -0.8089 -0.5382
  616MOL0     C81232   4.353  10.066   1.272 -1.0649 -0.0221  0.0468
  616MOL0     C81233   4.472  10.123   1.321 -0.4299 -0.4258  0.4568
  616MOL0     C81234   4.831  10.152   1.588 -0.8381  1.0264  0.4896
  616MOL0     C81235   4.927  10.205   1.498 -0.4296  0.0851 -0.5279
  616MOL0     C81236   5.040  10.268   1.552 -1.0825  0.1861 -0.3234
  616MOL0     C81237   5.064  10.283   1.692 -1.1892  0.6811  0.7407
  616MOL0     O81238   5.174  10.350   1.749 -0.0726  0.3462 -0.8451
  616MOL0     C81239   5.297  10.366   1.675 -0.0853 -0.6942 -0.0373
  616MOL0     C81240   5.386  10.247   1.713 -0.5748  0.0929 -0.0580
  616MOL0     C81241   5.344  10.133   1.615  0.0169  0.1124  0.0228
  616MOL0     C81242   5.454  10.022   1.635 -0.8650  0.5286  0.3425
  616MOL0     C81243   5.594  10.063   1.619 -0.0177 -0.4159 -1.0534
  616MOL0     C81244   5.713  10.082   1.609  0.3841  0.1542  0.3852
  616MOL0     C81245   4.973  10.216   1.777 -1.2880 -0.4399 -0.1357
  616MOL0     C81246   4.867  10.141   1.726  0.2471  0.2328 -0.3840
  616MOL0     H81247   4.670   9.858   1.338  2.8584  1.8349 -1.9438
  616MOL0     H81248   4.438   9.748   1.241 -1.8320  0.0380 -0.1668
  616MOL0     H81249   4.098  10.011   1.265  2.6976 -0.0848  2.9764
  616MOL0     H81250   4.077   9.877   1.388  0.0009 -0.0718  0.2445
  616MOL0     H81251   3.945   9.749   1.229  0.2598  0.7336 -0.5955
  616MOL0     H81252   4.008   9.843   1.094 -2.3713 -0.1443 -0.7160
  616MOL0     H81253   3.770   9.897   1.147 -4.6104  2.8671  2.6241
  616MOL0     H81254   3.861  10.038   1.162 -0.0987 -1.6713 -3.8176
  616MOL0     H81255   3.769   9.846   1.379 -2.2907 -0.1336 -0.0476
  616MOL0     H81256   3.836  10.008   1.407 -1.1304 -1.2139  1.0860
  616MOL0     H81257   3.568   9.920   1.276 -2.0545  0.9505  2.5372
  616MOL0     H81258   3.614  10.088   1.292  0.0277 -0.7290 -3.2084
  616MOL0     H81259   3.631  10.020   1.541 -0.4880 -2.5272  1.8538
  616MOL0     H81260   3.534   9.879   1.491 -1.9415  0.2417 -1.1286
  616MOL0     H81261   3.375  10.059   1.574 -0.0103 -2.2733 -0.4621
  616MOL0     H81262   3.433  10.168   1.459 -2.5042  0.4322 -1.3461
  616MOL0     H81263   3.356  10.016   1.275 -0.6360  1.8938  0.5997
  616MOL0     H81264   3.234  10.087   1.366 -1.1744 -1.2239 -2.1130
  616MOL0     H81265   3.376   9.722   1.299  1.5895 -1.0785  1.5941
  616MOL0     H81266   3.116   9.479   1.441  0.0206 -1.0628 -2.4928
  616MOL0     H81267   3.289   9.490   1.483  0.4787  0.8632  1.1407
  616MOL0     H81268   3.280   9.379   1.267 -4.3407 -0.9657 -3.4114
  616MOL0     H81269   3.329   9.541   1.236 -0.7532  1.8080 -2.2066
  616MOL0     H81270   3.114   9.603   1.178  1.1466  0.2322  2.0277
  616MOL0     H81271   3.162   9.474   1.069  2.1619  2.8654 -0.3689
  616MOL0     H81272   3.032   9.316   1.246  1.6835  1.1821  1.3095
  616MOL0     H81273   2.951   9.392   1.107 -3.1289  0.0173  1.7046
  616MOL0     H81274   2.817   9.253   1.195 -0.3699  2.3847 -1.7131
  616MOL0     H81275   2.596   9.185   1.244 -0.4174 -2.2925  4.0192
  616MOL0     H81276   2.265   9.256   1.104  0.9570 -0.9705  0.3354
  616MOL0     H81277   2.027   9.233   1.036 -0.8563 -1.7995  0.3729
  616MOL0     H81278   1.721   9.159   1.368  1.4936 -0.1223 -0.2958
  616MOL0     H81279   1.743   8.999   1.317 -2.0725 -2.7097 -1.6408
  616MOL0     H81280   1.579   9.170   1.131 -2.7465  0.1123 -0.1979
  616MOL0     H81281   1.511   9.134   1.277  0.9656  0.2698  1.8460
  616MOL0     H81282   1.509   8.900   1.246  0.3976  0.4991  1.0610
  616MOL0     H81283   1.622   8.918   1.103  1.1074  1.0503  1.1781
  616MOL0     H81284   1.428   9.053   1.007  0.3669  0.0987  0.9570
  616MOL0     H81285   1.393   8.884   1.003 -2.3481 -0.5885  0.7736
  616MOL0     H81286   1.307   9.069   1.216 -0.0254 -0.1381  0.2915
  616MOL0     H81287   1.282   8.894   1.220 -1.0590  1.6396  1.7885
  616MOL0     H81288   1.067   9.007   1.142  0.8642 -2.1747  1.3435
  616MOL0     H81289   1.126   8.885   1.038 -0.6184  0.0430 -0.1538
  616MOL0     H81290   1.197   9.169   0.966 -1.1896  0.0756  0.3928
  616MOL0     H81291   1.227   9.024   0.873  0.3879 -0.3116  1.1410
  616MOL0     H81292   0.980   9.170   0.846 -0.7624  0.0904  0.3927
  616MOL0     H81293   0.936   9.047   0.949 -0.6222  1.5996 -0.5704
  616MOL0     H81294   1.929   9.085   1.428  0.0446 -0.0030 -0.7666
  616MOL0     H81295   2.183   9.099   1.491  2.1416  0.1349 -0.9586
  616MOL0     H81296   2.561   9.497   1.544 -1.7612 -1.9510 -0.5667
  616MOL0     H81297   2.787   9.569   1.491 -0.6085 -0.6283  1.8730
  616MOL0     H81298   4.276  10.140   1.254 -1.0382  0.6154  2.2145
  616MOL0     H81299   4.482  10.227   1.347  2.0731 -1.2247  3.2337
  616MOL0     H81300   4.918  10.217   1.391  0.1833  2.6487 -0.3710
  616MOL0     H81301   5.111  10.315   1.485 -0.1647 -0.5355  0.1248
  616MOL0     H81302   5.341  10.458   1.715  1.4502  0.3822 -3.7623
  616MOL0     H81303   5.279  10.387   1.570 -0.5671 -2.9356 -0.4430
  616MOL0     H81304   5.487  10.283   1.691  0.1200 -1.4479  0.5122
  616MOL0     H81305   5.365  10.217   1.816  0.4831 -0.3208  0.0427
  616MOL0     H81306   5.344  10.168   1.512 -1.0947  0.0067 -0.0201
  616MOL0     H81307   5.244  10.092   1.630  0.1085 -0.8845 -1.7834
  616MOL0     H81308   5.448   9.988   1.739 -2.9757 -1.8800 -0.4506
  616MOL0     H81309   5.446   9.933   1.572  0.2062 -0.3763  1.4271
  616MOL0     H81310   5.814  10.116   1.614  0.0275  1.2102  0.7227
  616MOL0     H81311   5.001  10.216   1.882  1.6396  0.4720 -0.8221
  616MOL0     H81312   4.811  10.076   1.792  4.5393 -2.9667  0.5704
  617MOL0     O81313   5.654   5.534   0.608  0.8255  0.0117 -0.3559
  617MOL0     C81314   5.622   5.650   0.582 -0.2438  0.1539 -0.4319
  617MOL0     O81315   5.502   5.705   0.576 -0.6909 -0.2290  0.0490
  617MOL0     C81316   5.389   5.624   0.594  0.0815 -0.7616  0.8930
  617MOL0     C81317   5.362   5.542   0.491  0.9804 -1.1203  0.8780
  617MOL0     C81318   5.254   5.450   0.501 -0.8084 -0.4384 -0.7758
  617MOL0     C81319   5.185   5.434   0.620 -0.3759 -0.9699  0.8104
  617MOL0     O81320   5.092   5.336   0.623  0.0789  0.1230  0.6608
  617MOL0     C81321   4.967   5.360   0.687  0.6176 -0.2341 -0.7683
  617MOL0     C81322   4.862   5.268   0.644  0.5121  0.2747 -0.0427
  617MOL0     C81323   4.866   5.236   0.502  0.4482  0.4205 -0.1639
  617MOL0     C81324   4.762   5.123   0.466 -0.4838 -0.2187 -0.2003
  617MOL0     C81325   4.793   5.074   0.324  0.0911 -0.7779  0.2439
  617MOL0     C81326   4.695   4.984   0.247 -0.2231 -0.3275  0.2693
  617MOL0     C81327   4.676   4.850   0.313  0.4063  0.3096 -0.8590
  617MOL0     C81328   4.605   4.754   0.220 -0.0849  0.2416  0.4783
  617MOL0     N81329   4.476   4.798   0.180 -0.5843  0.9081 -0.4602
  617MOL0     C81330   4.373   4.769   0.266  0.2881  0.2374  0.1731
  617MOL0     C81331   4.264   4.811   0.205  0.3237 -0.4900 -0.3942
  617MOL0     C81332   4.122   4.797   0.250  0.2265 -0.2223 -0.1848
  617MOL0     C81333   4.036   4.736   0.143 -0.3598  0.3595 -0.8896
  617MOL0     C81334   3.888   4.726   0.174  1.2691  0.8162  0.0124
  617MOL0     C81335   3.825   4.666   0.048 -0.4449  0.7565  0.1983
  617MOL0     O81336   3.876   4.536   0.005  0.1531 -0.0173  0.1640
  617MOL0     C81337   3.824   4.466  -0.107  0.0503 -0.0157  0.1884
  617MOL0     C81338   3.717   4.511  -0.187  0.6762  0.3893  0.7653
  617MOL0     C81339   3.651   4.423  -0.275 -0.3913  0.4252 -0.3835
  617MOL0     C81340   3.703   4.298  -0.302 -0.3019  1.0352 -0.7925
  617MOL0     C81341   3.622   4.196  -0.375  0.4674 -0.6285 -0.2424
  617MOL0     O81342   3.537   4.247  -0.463  0.3297  0.1163  0.2350
  617MOL0     C81343   3.497   4.166  -0.566 -0.4421  0.0605 -0.8463
  617MOL0     C81344   3.581   4.141  -0.679 -0.4085 -0.2519 -0.1443
  617MOL0     C81345   3.535   4.046  -0.779 -0.3393  0.0517  0.7048
  617MOL0     C81346   3.411   3.979  -0.760 -0.4382  0.2995  0.9523
  617MOL0     O81347   3.369   3.875  -0.840 -0.2949 -0.6906  0.4361
  617MOL0     C81348   3.375   3.910  -0.979  0.7014  0.4692  0.4557
  617MOL0     C81349   3.321   3.793  -1.060 -0.0107 -0.4155  0.7447
  617MOL0     C81350   3.163   3.784  -1.040 -0.7377 -0.3827  0.6879
  617MOL0     C81351   3.132   3.675  -0.924 -0.0715  0.3063 -0.2950
  617MOL0     C81352   3.161   3.527  -0.957  0.4515 -0.2090  0.8142
  617MOL0     C81353   3.109   3.471  -1.094 -0.0130  0.1825 -0.7298
  617MOL0     C81354   2.958   3.486  -1.126 -0.0702 -0.0493 -0.5571
  617MOL0     C81355   2.870   3.435  -1.009 -0.3175  0.4247 -0.0424
  617MOL0    Cl81356   2.929   3.278  -0.956  0.1620  0.1987 -0.1715
  617MOL0     C81357   3.352   4.007  -0.641  0.1178  0.2087  0.5540
  617MOL0     C81358   3.384   4.097  -0.546  0.0709  0.2445  0.2285
  617MOL0     O81359   3.658   4.077  -0.368 -0.4926 -0.0906  0.4436
  617MOL0     C81360   3.818   4.257  -0.233  0.7195 -0.4925 -0.5733
  617MOL0     C81361   3.877   4.341  -0.132 -0.0309 -0.2910 -0.4773
  617MOL0     N81362   4.307   4.856   0.077 -0.5242  0.3882  0.1273
  617MOL0     N81363   4.434   4.852   0.063 -0.7675  0.8855  0.0426
  617MOL0     C81364   5.209   5.515   0.730  0.1176 -1.2137 -0.7982
  617MOL0     C81365   5.317   5.611   0.713  0.0523  0.0315 -1.4702
  617MOL0     C81366   5.736   5.747   0.575  0.3850 -0.1137 -0.1276
  617MOL0     C81367   5.804   5.754   0.456  1.5811  0.3143  0.2170
  617MOL0     C81368   5.912   5.841   0.441 -0.0565  0.0955 -0.3498
  617MOL0     C81369   5.958   5.924   0.551  0.5958 -0.1172  0.2137
  617MOL0     O81370   6.063   6.001   0.510  0.3977 -0.5187 -0.5371
  617MOL0     C81371   6.123   6.087   0.608  0.1059 -0.1106  0.3475
  617MOL0     C81372   6.259   6.040   0.660  0.1572  0.5292  0.0446
  617MOL0     C81373   6.225   5.926   0.757  0.5324  0.8035 -0.3854
  617MOL0     C81374   6.348   5.871   0.825  0.1898 -0.0009  0.8340
  617MOL0     C81375   6.326   5.761   0.912  0.3317 -0.1456 -0.5796
  617MOL0     C81376   6.315   5.677   0.998 -0.3387 -0.5134 -0.8450
  617MOL0     C81377   5.886   5.924   0.665 -0.0175  0.8668  0.1623
  617MOL0     C81378   5.767   5.852   0.673 -0.7685 -0.1477 -0.4970
  617MOL0     H81379   5.427   5.550   0.405  1.7882 -0.1967  1.5645
  617MOL0     H81380   5.227   5.389   0.416 -0.9001 -1.2000 -0.2151
  617MOL0     H81381   4.931   5.460   0.658  0.0972 -0.7196 -1.8473
  617MOL0     H81382   4.986   5.358   0.795  0.0167  0.9767 -0.6142
  617MOL0     H81383   4.762   5.303   0.674  0.0979 -1.0143  0.1507
  617MOL0     H81384   4.882   5.174   0.696 -0.5100  1.6817  3.1983
  617MOL0     H81385   4.966   5.201   0.478 -0.2981 -0.6464 -1.9167
  617MOL0     H81386   4.842   5.321   0.437 -4.8746 -2.3016 -2.4704
  617MOL0     H81387   4.775   5.047   0.544 -0.4779  1.0925  1.1189
  617MOL0     H81388   4.663   5.169   0.475 -0.2150  0.0202  2.1526
  617MOL0     H81389   4.893   5.028   0.327  1.3207  1.7564  2.2220
  617MOL0     H81390   4.818   5.162   0.265  0.4334 -0.3974  0.9418
  617MOL0     H81391   4.741   4.975   0.148  1.4243  2.7937  0.6413
  617MOL0     H81392   4.595   5.029   0.240 -0.3334 -0.5436  0.4468
  617MOL0     H81393   4.775   4.810   0.337 -0.0969 -0.2588  0.4077
  617MOL0     H81394   4.626   4.850   0.410 -1.3485 -2.1734 -1.6637
  617MOL0     H81395   4.591   4.657   0.267 -2.7366  0.3742  0.1415
  617MOL0     H81396   4.667   4.742   0.130 -0.5748 -1.9088  0.3690
  617MOL0     H81397   4.373   4.721   0.364  2.2467 -2.7547 -1.1470
  617MOL0     H81398   4.093   4.901   0.264  0.5263 -0.3040  1.2098
  617MOL0     H81399   4.109   4.749   0.348 -0.7184 -2.5619 -1.3600
  617MOL0     H81400   4.082   4.639   0.123 -1.2645  0.1561 -2.0703
  617MOL0     H81401   4.045   4.796   0.052  3.6094 -0.5432 -1.2656
  617MOL0     H81402   3.866   4.657   0.256  0.1927  0.6820 -0.3786
  617MOL0     H81403   3.844   4.825   0.186 -2.6233 -0.6142 -1.0516
  617MOL0     H81404   3.853   4.729  -0.037  3.7568  2.8440  2.7543
  617MOL0     H81405   3.718   4.669   0.068 -0.8776  0.0696 -1.8532
  617MOL0     H81406   3.670   4.604  -0.157 -1.3524 -0.7802  1.3783
  617MOL0     H81407   3.555   4.447  -0.321 -0.9629 -2.5134 -0.9774
  617MOL0     H81408   3.670   4.203  -0.685  0.2724 -1.1855  0.1978
  617MOL0     H81409   3.592   4.042  -0.871 -3.2548  1.1886 -1.2966
  617MOL0     H81410   3.478   3.929  -1.012 -0.1175  1.4842 -1.7132
  617MOL0     H81411   3.318   3.999  -1.004 -1.3256 -0.4444  1.5521
  617MOL0     H81412   3.377   3.701  -1.040  3.7044  1.0820 -1.7661
  617MOL0     H81413   3.345   3.804  -1.166 -1.7733 -0.7709  0.2735
  617MOL0     H81414   3.119   3.767  -1.139  2.0922 -0.5396 -0.6488
  617MOL0     H81415   3.128   3.883  -1.009 -0.2393 -0.6954  2.3441
  617MOL0     H81416   3.178   3.708  -0.830 -0.0390  1.0176 -0.5566
  617MOL0     H81417   3.023   3.675  -0.913  0.1415 -0.8249  2.5479
  617MOL0     H81418   3.119   3.480  -0.868 -1.2169  0.4526  0.4171
  617MOL0     H81419   3.269   3.510  -0.953  0.5689  0.7988  3.0648
  617MOL0     H81420   3.136   3.365  -1.102 -1.1193 -0.5418  3.0056
  617MOL0     H81421   3.157   3.520  -1.178  1.8064 -1.5432 -0.7593
  617MOL0     H81422   2.936   3.591  -1.148 -1.4823 -0.5085 -1.5518
  617MOL0     H81423   2.929   3.429  -1.215 -3.2374 -0.6344  0.7057
  617MOL0     H81424   2.769   3.421  -1.050  1.0679 -0.0239 -3.6980
  617MOL0     H81425   2.866   3.515  -0.934  1.2187 -0.1088  0.6411
  617MOL0     H81426   3.261   3.950  -0.622  2.0340 -2.6849  1.6771
  617MOL0     H81427   3.325   4.111  -0.456  0.3484  3.4199  0.0549
  617MOL0     H81428   3.844   4.152  -0.245 -1.3819 -1.1934  0.5047
  617MOL0     H81429   3.954   4.309  -0.063 -0.3221  1.1404  0.5545
  617MOL0     H81430   5.145   5.526   0.817 -0.5586  0.5070 -1.4491
  617MOL0     H81431   5.340   5.661   0.807 -0.7101 -1.3360 -0.5210
  617MOL0     H81432   5.771   5.690   0.375  0.6032  1.4232 -0.2821
  617MOL0     H81433   5.958   5.848   0.343  0.6453 -0.2207 -0.0464
  617MOL0     H81434   6.067   6.107   0.700  1.1277 -0.8138  1.1497
  617MOL0     H81435   6.130   6.184   0.559 -0.1518 -0.3333 -0.1383
  617MOL0     H81436   6.325   5.999   0.583 -0.3682 -0.4829  0.1076
  617MOL0     H81437   6.306   6.129   0.703  1.4761  0.6957 -1.6488
  617MOL0     H81438   6.177   5.839   0.710  2.0426 -0.0599 -0.3868
  617MOL0     H81439   6.161   5.955   0.841  0.1890 -2.2707  0.5423
  617MOL0     H81440   6.420   5.846   0.747 -0.9471  2.1985 -1.0195
  617MOL0     H81441   6.393   5.947   0.889  2.2621 -1.0411  0.6838
  617MOL0     H81442   6.282   5.610   1.074  0.1116 -0.9486 -1.0207
  617MOL0     H81443   5.907   5.987   0.750  1.2418  0.2131  0.3517
  617MOL0     H81444   5.707   5.867   0.762  1.4225  1.5528  0.7946
  618MOL0     O81445  10.228   4.023   6.184 -0.1534 -0.2017 -0.1891
  618MOL0     C81446  10.265   3.998   6.069 -0.9242 -0.0149 -0.2453
  618MOL0     O81447  10.196   3.903   5.988  0.3501  0.0419 -0.3846
  618MOL0     C81448  10.093   3.821   6.038 -1.7588  0.7057  0.0362
  618MOL0     C81449   9.988   3.860   6.120 -0.2544  0.2259  0.7528
  618MOL0     C81450   9.876   3.772   6.145 -0.6227 -0.1674  0.1792
  618MOL0     C81451   9.885   3.641   6.111  0.4236 -0.0122 -0.5594
  618MOL0     O81452   9.784   3.569   6.154  0.4616  0.3698 -0.4266
  618MOL0     C81453   9.743   3.448   6.102 -0.3015  0.0726 -0.8491
  618MOL0     C81454   9.642   3.388   6.196 -0.6285 -0.7775  1.1706
  618MOL0     C81455   9.574   3.267   6.142  1.3306  0.7286 -0.6956
  618MOL0     C81456   9.477   3.214   6.264 -0.2661 -0.0763  0.6736
  618MOL0     C81457   9.416   3.070   6.220 -0.4899 -0.2409  0.4852
  618MOL0     C81458   9.311   3.021   6.329 -0.1278 -0.2469 -0.3070
  618MOL0     C81459   9.182   3.098   6.291  0.0953 -0.0036 -0.5712
  618MOL0     C81460   9.055   3.031   6.367 -0.3823  0.4855  0.1648
  618MOL0     N81461   8.989   2.918   6.301  0.1028 -0.8436 -0.5470
  618MOL0     C81462   8.919   2.929   6.180  0.8437  0.4327 -0.4820
  618MOL0     C81463   8.877   2.803   6.150  0.0045 -0.7529 -0.0885
  618MOL0     C81464   8.815   2.756   6.020  0.8959  0.3427  0.7044
  618MOL0     C81465   8.883   2.631   5.955 -1.0006 -0.0468 -0.0418
  618MOL0     C81466   9.013   2.682   5.899  0.4569  0.2786 -0.0006
  618MOL0     C81467   9.099   2.561   5.852 -0.3792 -0.7559  0.1878
  618MOL0     O81468   9.177   2.604   5.733 -0.4987  0.2649  0.3269
  618MOL0     C81469   9.308   2.657   5.741  0.2821  0.9239 -0.4099
  618MOL0     C81470   9.384   2.652   5.630  0.0801 -0.1135  0.6421
  618MOL0     C81471   9.506   2.708   5.618 -0.3210  0.9921  0.3839
  618MOL0     C81472   9.555   2.775   5.725 -0.3640  0.3587  0.4270
  618MOL0     C81473   9.695   2.831   5.716  0.1275  1.2572  0.3292
  618MOL0     O81474   9.754   2.826   5.595  0.0048  0.1059 -0.1867
  618MOL0     C81475   9.884   2.786   5.587 -0.0214 -0.0047  0.1901
  618MOL0     C81476   9.939   2.666   5.644  0.1801 -0.3580 -0.4382
  618MOL0     C81477  10.073   2.644   5.639 -0.5662 -0.3512  0.3708
  618MOL0     C81478  10.157   2.721   5.559  1.0657 -0.2255  0.5341
  618MOL0     O81479  10.277   2.667   5.553 -0.1261 -0.8415 -0.6803
  618MOL0     C81480  10.393   2.743   5.488  0.8094  0.1309  0.7183
  618MOL0     C81481  10.513   2.650   5.470 -0.2094 -0.0171 -0.2987
  618MOL0     C81482  10.481   2.522   5.399  0.3727  0.1986 -0.0579
  618MOL0     C81483  10.407   2.406   5.470 -0.1807 -0.1990  0.2960
  618MOL0     C81484  10.489   2.349   5.583 -0.7812  0.9865 -0.4312
  618MOL0     C81485  10.644   2.305   5.567  0.5317  1.4393 -0.7634
  618MOL0     C81486  10.666   2.207   5.444 -0.5730  0.0211 -0.6157
  618MOL0     C81487  10.799   2.123   5.449  0.6944 -0.4396  0.6839
  618MOL0    Cl81488  10.931   2.227   5.465  0.0795  0.6532  0.3821
  618MOL0     C81489  10.109   2.831   5.487 -0.4421 -0.0570 -0.0823
  618MOL0     C81490   9.976   2.867   5.505 -0.2633 -0.4038 -0.3366
  618MOL0     O81491   9.751   2.849   5.825 -0.0921 -0.3760  0.2147
  618MOL0     C81492   9.488   2.778   5.849 -0.6315  0.4156  0.3175
  618MOL0     C81493   9.360   2.716   5.858 -0.3535 -0.3277  0.6685
  618MOL0     N81494   8.910   2.731   6.261 -0.1565 -0.2676  0.3412
  618MOL0     N81495   8.986   2.792   6.343  0.0816 -0.3759  0.7666
  618MOL0     C81496   9.992   3.600   6.029 -0.0931  0.7552 -0.9841
  618MOL0     C81497  10.094   3.682   5.998 -0.7519 -0.4227  0.2097
  618MOL0     C81498  10.404   4.032   6.027 -0.3084 -0.2296 -0.3660
  618MOL0     C81499  10.440   3.997   5.893 -0.3017  1.0629 -0.5270
  618MOL0     C81500  10.579   4.036   5.857 -0.2445  0.5644  0.5560
  618MOL0     C81501  10.671   4.092   5.951 -0.0377  0.2927 -0.8003
  618MOL0     O81502  10.802   4.100   5.906  0.0431 -0.1756 -0.6744
  618MOL0     C81503  10.906   4.081   6.000 -0.8491 -0.4066  0.0558
  618MOL0     C81504  11.043   4.087   5.936 -0.4735  0.0191 -0.0263
  618MOL0     C81505  11.149   4.085   6.046  0.4314 -0.3132  0.6791
  618MOL0     C81506  11.281   4.034   5.989 -0.2578  0.0872  0.1620
  618MOL0     C81507  11.327   3.896   6.010  0.1876  0.4814  0.6241
  618MOL0     C81508  11.363   3.785   6.030 -0.2742 -0.0546 -0.5192
  618MOL0     C81509  10.621   4.114   6.080 -0.2775  0.6155 -0.2968
  618MOL0     C81510  10.489   4.091   6.116  0.7566 -0.8273  0.3447
  618MOL0     H81511   9.979   3.957   6.168 -1.3139 -1.3238  3.9919
  618MOL0     H81512   9.792   3.818   6.195 -0.1036  4.4653 -2.6181
  618MOL0     H81513   9.830   3.382   6.111 -0.6658 -0.4415 -1.0755
  618MOL0     H81514   9.715   3.450   5.996  0.8446 -0.7317 -1.1950
  618MOL0     H81515   9.566   3.461   6.224  2.6370  2.4799  2.3603
  618MOL0     H81516   9.703   3.364   6.283 -0.4347  0.0719  1.2860
  618MOL0     H81517   9.631   3.184   6.101  1.3582 -0.0784  0.8970
  618MOL0     H81518   9.504   3.306   6.068  0.1660  2.4471  1.1986
  618MOL0     H81519   9.536   3.200   6.355  0.6292  1.2305  0.3158
  618MOL0     H81520   9.403   3.292   6.282  0.0342 -0.0837  2.0383
  618MOL0     H81521   9.506   3.009   6.211 -0.3431 -0.3720  2.3284
  618MOL0     H81522   9.373   3.077   6.120  0.4738 -1.3105 -0.0240
  618MOL0     H81523   9.328   3.066   6.427  1.8724  0.9053 -1.1363
  618MOL0     H81524   9.296   2.912   6.325  0.3080 -0.3806  1.0545
  618MOL0     H81525   9.190   3.196   6.338  0.3705 -0.1439 -0.3259
  618MOL0     H81526   9.169   3.094   6.182 -0.3313  0.9112 -0.5631
  618MOL0     H81527   8.977   3.107   6.379  1.3013  2.4489 -0.6958
  618MOL0     H81528   9.084   2.994   6.465  1.1860 -2.4910 -1.2880
  618MOL0     H81529   8.909   3.006   6.104 -2.2520  2.4494  1.6776
  618MOL0     H81530   8.790   2.835   5.949 -0.9845  0.4051  1.3765
  618MOL0     H81531   8.716   2.720   6.051 -1.7141  2.9322 -3.5148
  618MOL0     H81532   8.826   2.590   5.871 -0.8659  0.8174 -0.5656
  618MOL0     H81533   8.898   2.555   6.032  1.3405  0.3124 -0.0513
  618MOL0     H81534   9.001   2.748   5.813  1.2097  1.9024  1.0596
  618MOL0     H81535   9.065   2.742   5.975 -3.1028  1.4839  1.6839
  618MOL0     H81536   9.050   2.466   5.827 -1.6009 -0.1521  0.2571
  618MOL0     H81537   9.173   2.537   5.929  0.6892  0.9390 -0.2670
  618MOL0     H81538   9.337   2.608   5.542 -0.5145 -0.3060  1.0538
  618MOL0     H81539   9.549   2.707   5.518  0.4250  0.2105  0.7006
  618MOL0     H81540   9.884   2.591   5.699  1.7143  0.0214  1.7191
  618MOL0     H81541  10.113   2.552   5.681 -0.7592 -0.4839  0.2687
  618MOL0     H81542  10.420   2.827   5.553 -0.9357  0.4934  1.0432
  618MOL0     H81543  10.366   2.781   5.389  1.9894 -2.1501 -0.5497
  618MOL0     H81544  10.566   2.620   5.561 -2.4797  0.3562  1.2450
  618MOL0     H81545  10.584   2.707   5.411 -0.4153  1.2439  0.6347
  618MOL0     H81546  10.578   2.480   5.371  0.5478 -1.9335  3.2372
  618MOL0     H81547  10.419   2.555   5.315 -0.2215  1.7591  0.9599
  618MOL0     H81548  10.306   2.426   5.508 -0.9929 -0.3867 -1.6330
  618MOL0     H81549  10.391   2.331   5.391  1.4464  0.9704 -1.2277
  618MOL0     H81550  10.437   2.262   5.623 -0.9408  2.2235  2.2750
  618MOL0     H81551  10.484   2.421   5.665  0.5213  0.4268  0.1764
  618MOL0     H81552  10.682   2.263   5.660  0.7556  0.6659 -1.1945
  618MOL0     H81553  10.707   2.392   5.544  1.9614  1.0126  1.2241
  618MOL0     H81554  10.576   2.145   5.448  0.4358 -1.4848 -0.1271
  618MOL0     H81555  10.667   2.256   5.347 -1.8982 -2.1145 -1.7753
  618MOL0     H81556  10.809   2.068   5.355 -1.0823  0.1413  0.1076
  618MOL0     H81557  10.800   2.056   5.536 -1.1572  2.1890  2.9216
  618MOL0     H81558  10.170   2.896   5.425 -1.5230  2.9134  1.7384
  618MOL0     H81559   9.933   2.944   5.442 -2.0387 -3.1267 -2.7630
  618MOL0     H81560   9.510   2.829   5.942 -0.8131  1.0129  0.0355
  618MOL0     H81561   9.305   2.722   5.952 -0.9320  1.0132  0.2818
  618MOL0     H81562  10.002   3.499   5.990  1.9738 -0.1784  1.6519
  618MOL0     H81563  10.182   3.661   5.939  0.7215  3.8903  0.5502
  618MOL0     H81564  10.369   3.957   5.820 -1.8957 -4.2595  3.3151
  618MOL0     H81565  10.609   4.001   5.759 -1.6730  0.4990  0.1279
  618MOL0     H81566  10.898   3.984   6.049 -0.3311 -0.2367  0.4833
  618MOL0     H81567  10.894   4.160   6.074  1.3691  0.0333 -0.0069
  618MOL0     H81568  11.058   3.995   5.879 -0.0837 -0.8964  1.4884
  618MOL0     H81569  11.055   4.176   5.874 -0.4847 -0.6749 -1.0509
  618MOL0     H81570  11.113   4.021   6.128  0.7184 -3.7074 -1.6555
  618MOL0     H81571  11.172   4.189   6.073  2.2091  0.1560 -2.1893
  618MOL0     H81572  11.287   4.055   5.882  0.3427 -1.1231 -0.0626
  618MOL0     H81573  11.357   4.099   6.032  1.8807 -2.6682  0.8060
  618MOL0     H81574  11.399   3.685   6.022  0.8524  0.3785 -0.9570
  618MOL0     H81575  10.690   4.158   6.152  2.0022  1.9381 -3.0579
  618MOL0     H81576  10.440   4.118   6.209 -1.9338  2.6744 -1.8465
  619MOL0     O81577   9.864   4.626   2.404 -0.2179 -0.2108 -0.0992
  619MOL0     C81578   9.852   4.744   2.383  0.2420 -0.5654  0.5732
  619MOL0     O81579   9.733   4.809   2.393 -0.1142  0.3415  0.2777
  619MOL0     C81580   9.620   4.732   2.430  0.0625  0.1959 -0.0388
  619MOL0     C81581   9.545   4.757   2.553  0.4906  1.0856 -0.2362
  619MOL0     C81582   9.438   4.684   2.600  0.6831  0.4940  0.1176
  619MOL0     C81583   9.395   4.579   2.513 -0.5187 -0.4025  0.7391
  619MOL0     O81584   9.284   4.497   2.538 -0.8771 -0.9353  0.4915
  619MOL0     C81585   9.165   4.546   2.605 -1.2440  0.7101  0.0921
  619MOL0     C81586   9.049   4.456   2.572  0.1512 -0.3912  0.6165
  619MOL0     C81587   8.928   4.471   2.662 -0.2725  0.2270  0.2960
  619MOL0     C81588   8.864   4.610   2.636 -0.0078 -0.1449  0.2828
  619MOL0     C81589   8.737   4.618   2.717  0.1095  0.2460 -0.9530
  619MOL0     C81590   8.610   4.530   2.691  0.2107 -0.1717 -0.3687
  619MOL0     C81591   8.566   4.511   2.553 -0.8850  0.1734 -0.1169
  619MOL0     C81592   8.533   4.640   2.476  0.2995  0.1435  0.6833
  619MOL0     N81593   8.427   4.722   2.529 -0.2050 -0.7042  0.0977
  619MOL0     C81594   8.319   4.678   2.590  0.2579  0.5634  0.2296
  619MOL0     C81595   8.259   4.786   2.648  0.4794 -0.0678  0.8385
  619MOL0     C81596   8.126   4.785   2.721  0.5423  0.6221 -0.5878
  619MOL0     C81597   8.005   4.806   2.622 -0.1521  0.1405  0.7535
  619MOL0     C81598   7.972   4.692   2.528  0.7313 -0.2960 -0.3556
  619MOL0     C81599   7.832   4.672   2.476 -0.8960 -0.3593  0.2031
  619MOL0     O81600   7.775   4.800   2.451 -0.8364 -0.1490  0.3583
  619MOL0     C81601   7.644   4.809   2.406  0.7792  0.0533  0.1539
  619MOL0     C81602   7.582   4.936   2.412  0.6279  0.6587  0.8850
  619MOL0     C81603   7.450   4.953   2.389  0.1683 -0.0717 -0.8705
  619MOL0     C81604   7.359   4.856   2.388 -0.1114 -0.4205  0.4193
  619MOL0     C81605   7.215   4.890   2.386  0.4358  0.0965  0.5022
  619MOL0     O81606   7.129   4.781   2.391  1.2183 -0.7589  0.0647
  619MOL0     C81607   6.992   4.789   2.364  0.5579 -0.0832 -0.3706
  619MOL0     C81608   6.918   4.882   2.280  0.2434 -0.4606 -0.7388
  619MOL0     C81609   6.776   4.885   2.278 -0.2623  0.0140 -0.2644
  619MOL0     C81610   6.710   4.780   2.351  0.2556  0.3089  0.2788
  619MOL0     O81611   6.574   4.769   2.343 -0.0796  0.2530 -0.2394
  619MOL0     C81612   6.499   4.889   2.363 -0.8702 -0.3537  0.3755
  619MOL0     C81613   6.356   4.845   2.394 -0.5419  0.4516  0.1523
  619MOL0     C81614   6.288   4.792   2.268 -0.0515  0.8644  0.6150
  619MOL0     C81615   6.142   4.783   2.293 -0.1320  0.5134 -1.3531
  619MOL0     C81616   6.068   4.736   2.174 -0.2360 -0.0798  0.7386
  619MOL0     C81617   5.912   4.725   2.198  0.2957 -0.3376  0.9071
  619MOL0     C81618   5.835   4.716   2.065 -0.8332  0.6971  0.3835
  619MOL0     C81619   5.842   4.849   1.988 -0.8552  0.0370 -0.5558
  619MOL0    Cl81620   5.726   4.819   1.857 -0.0965 -0.0729  0.4314
  619MOL0     C81621   6.777   4.687   2.428 -0.3541 -1.2422 -0.6775
  619MOL0     C81622   6.914   4.694   2.433  0.1013  0.4861 -0.4492
  619MOL0     O81623   7.183   5.007   2.365  0.0608  0.8231 -0.8815
  619MOL0     C81624   7.417   4.726   2.386 -0.2401  0.1542 -0.9781
  619MOL0     C81625   7.560   4.701   2.393  0.1808 -0.3302  0.3724
  619MOL0     N81626   8.332   4.900   2.624 -1.1615  0.4410 -0.1227
  619MOL0     N81627   8.434   4.855   2.551  0.4791  0.3098  0.2368
  619MOL0     C81628   9.464   4.542   2.402 -0.3631  0.3653  0.3279
  619MOL0     C81629   9.575   4.616   2.363  0.1386  0.7337  0.5638
  619MOL0     C81630   9.975   4.813   2.351 -0.3733 -0.4154 -0.6296
  619MOL0     C81631   9.984   4.955   2.339 -0.8294 -0.5954  0.3189
  619MOL0     C81632  10.098   5.013   2.281 -0.0062 -0.2747  0.6385
  619MOL0     C81633  10.210   4.937   2.250  0.2015  0.4746  0.2232
  619MOL0     O81634  10.313   5.002   2.193 -0.6964  0.4089  0.3031
  619MOL0     C81635  10.374   5.090   2.290 -0.1726 -0.0077  0.9830
  619MOL0     C81636  10.522   5.056   2.333  0.7029 -0.5196  0.3159
  619MOL0     C81637  10.622   5.069   2.221  0.9523 -0.6293  0.4811
  619MOL0     C81638  10.755   5.081   2.285 -1.3927  0.7629 -0.9933
  619MOL0     C81639  10.796   4.951   2.347 -0.4157 -0.1782  0.3905
  619MOL0     C81640  10.848   4.859   2.408 -0.1539  0.3600 -0.4801
  619MOL0     C81641  10.203   4.799   2.267  0.5407 -0.1110 -0.0881
  619MOL0     C81642  10.083   4.738   2.310 -0.6990  0.5774 -1.1270
  619MOL0     H81643   9.566   4.840   2.620  0.9512  0.5201  0.3297
  619MOL0     H81644   9.380   4.701   2.690  0.3929 -0.0318  0.0347
  619MOL0     H81645   9.155   4.650   2.572 -0.9729  0.2776 -1.4235
  619MOL0     H81646   9.177   4.549   2.713 -0.6575  2.5310  0.0035
  619MOL0     H81647   9.083   4.352   2.571 -3.4211 -1.7331 -1.3408
  619MOL0     H81648   9.025   4.474   2.467 -1.3571 -2.2684  0.5644
  619MOL0     H81649   8.968   4.464   2.764  2.3709  0.2641 -0.6580
  619MOL0     H81650   8.852   4.393   2.651  2.0784 -1.9125 -3.3031
  619MOL0     H81651   8.931   4.691   2.664 -3.1974  2.1259  2.0167
  619MOL0     H81652   8.829   4.617   2.533 -1.4344 -3.4934  0.4121
  619MOL0     H81653   8.700   4.721   2.716 -1.4072 -0.2659 -0.9656
  619MOL0     H81654   8.761   4.602   2.823  0.6648 -0.4627 -1.1799
  619MOL0     H81655   8.536   4.579   2.755 -0.8696 -1.2189 -0.7968
  619MOL0     H81656   8.629   4.429   2.727  1.6821  0.0129 -0.5411
  619MOL0     H81657   8.649   4.468   2.496 -0.1040  2.9137 -1.2511
  619MOL0     H81658   8.481   4.444   2.543  0.5586 -2.6860  4.0831
  619MOL0     H81659   8.510   4.609   2.374  1.5397  0.2199  0.3537
  619MOL0     H81660   8.621   4.706   2.467 -0.9582  1.7837 -0.2517
  619MOL0     H81661   8.275   4.578   2.592 -2.9175  1.8310  1.4218
  619MOL0     H81662   8.116   4.862   2.798  1.3194  0.3927 -0.2565
  619MOL0     H81663   8.119   4.686   2.766 -5.0736 -0.0866 -2.1795
  619MOL0     H81664   8.024   4.895   2.561 -1.2603  0.7583  1.3040
  619MOL0     H81665   7.916   4.824   2.681 -0.7683  0.3171 -0.2071
  619MOL0     H81666   8.036   4.691   2.440  0.5145  1.9158 -0.5860
  619MOL0     H81667   7.986   4.606   2.595 -4.0058 -2.0589 -1.2306
  619MOL0     H81668   7.780   4.609   2.549  1.2655 -2.6020 -0.0378
  619MOL0     H81669   7.833   4.620   2.380 -1.3721  1.8689 -1.0872
  619MOL0     H81670   7.652   5.019   2.415  0.6480  0.6775  0.1069
  619MOL0     H81671   7.417   5.057   2.380  0.7716  0.3419  1.1743
  619MOL0     H81672   6.975   4.956   2.225  1.3642 -0.4750  0.3489
  619MOL0     H81673   6.726   4.968   2.229 -1.1060 -1.2643 -1.6740
  619MOL0     H81674   6.495   4.954   2.275 -0.5897  0.3592  0.8820
  619MOL0     H81675   6.543   4.951   2.441 -0.0208 -1.5441  0.8824
  619MOL0     H81676   6.310   4.935   2.436  0.3592  0.1623  1.8465
  619MOL0     H81677   6.356   4.771   2.475 -1.9678 -0.1096 -0.3206
  619MOL0     H81678   6.329   4.692   2.250 -2.2205 -0.2328  1.3610
  619MOL0     H81679   6.302   4.856   2.180 -0.8090 -2.4362 -2.1245
  619MOL0     H81680   6.139   4.702   2.366  3.1608  0.6502 -0.8974
  619MOL0     H81681   6.100   4.873   2.341 -2.1421 -1.5431  1.0161
  619MOL0     H81682   6.105   4.637   2.146 -1.3709 -1.0260  2.4084
  619MOL0     H81683   6.085   4.798   2.085 -2.1136 -0.4173  0.1132
  619MOL0     H81684   5.882   4.812   2.256  1.0852  0.1832  0.5407
  619MOL0     H81685   5.904   4.632   2.256 -0.8426  0.1866  1.6296
  619MOL0     H81686   5.879   4.636   2.006  3.1632 -0.0120  3.9251
  619MOL0     H81687   5.732   4.690   2.093 -0.6924  0.7020  0.9038
  619MOL0     H81688   5.944   4.857   1.948 -0.8381 -0.1436 -0.5476
  619MOL0     H81689   5.811   4.930   2.055  0.7340 -2.1663  3.1314
  619MOL0     H81690   6.722   4.613   2.485 -1.1182  0.3192  0.6922
  619MOL0     H81691   6.965   4.619   2.493  0.7633  0.8567 -0.5408
  619MOL0     H81692   7.349   4.641   2.377 -0.2991  0.2271 -1.2446
  619MOL0     H81693   7.603   4.602   2.406  2.2818  0.3609 -0.8231
  619MOL0     H81694   9.425   4.458   2.345 -0.6339  0.0464  0.9782
  619MOL0     H81695   9.613   4.575   2.270 -1.7010 -0.2773  0.2142
  619MOL0     H81696   9.899   5.016   2.367  0.6310  2.4444 -1.3853
  619MOL0     H81697  10.098   5.120   2.265  0.3214 -0.4235 -0.4347
  619MOL0     H81698  10.327   5.074   2.388 -1.6488 -1.1976  0.1371
  619MOL0     H81699  10.361   5.193   2.255  0.4067 -0.6649 -1.3131
  619MOL0     H81700  10.533   5.124   2.419 -1.5842  3.1112 -1.9964
  619MOL0     H81701  10.518   4.953   2.367  0.9043 -0.5524  0.2424
  619MOL0     H81702  10.612   5.156   2.155  0.0410 -1.8500 -1.0845
  619MOL0     H81703  10.619   4.977   2.162  0.8925  0.1843 -0.8198
  619MOL0     H81704  10.826   5.102   2.204 -1.0117 -0.2060 -0.9314
  619MOL0     H81705  10.753   5.156   2.364 -1.5715 -0.1887 -0.0686
  619MOL0     H81706  10.895   4.780   2.463 -1.4140  1.4768  2.4049
  619MOL0     H81707  10.286   4.737   2.234  1.1289  0.3500  0.4927
  619MOL0     H81708  10.080   4.630   2.304  1.0175  0.5360 -1.9892
  620MOL0     O81709   1.563   3.292   4.250 -0.3657 -0.1763  0.4620
  620MOL0     C81710   1.628   3.190   4.214 -0.3599 -0.3074  0.1566
  620MOL0     O81711   1.584   3.065   4.206  0.1769 -0.0242 -0.4845
  620MOL0     C81712   1.462   3.038   4.250  0.1413 -0.1804 -0.0247
  620MOL0     C81713   1.357   3.055   4.164  0.4259  0.1438 -0.1256
  620MOL0     C81714   1.228   3.029   4.201  0.1892 -0.1236  0.0356
  620MOL0     C81715   1.196   2.987   4.332 -0.1085  0.2516 -0.2140
  620MOL0     O81716   1.065   2.975   4.355 -0.5117  0.5671  0.7433
  620MOL0     C81717   1.017   3.100   4.403  0.0619 -0.3252  1.0877
  620MOL0     C81718   0.882   3.157   4.356 -0.4345 -0.6683 -0.6406
  620MOL0     C81719   0.769   3.047   4.360  0.4573 -0.2978 -0.5731
  620MOL0     C81720   0.640   3.119   4.317  0.2147 -0.1462  0.2965
  620MOL0     C81721   0.519   3.089   4.408  0.2539 -0.3209 -0.3601
  620MOL0     C81722   0.462   2.957   4.366  0.0763  0.8866 -0.3585
  620MOL0     C81723   0.323   2.929   4.434 -0.8198 -0.2985  0.1339
  620MOL0     C81724   0.258   2.810   4.368 -0.8797 -1.1176 -0.1617
  620MOL0     N81725   0.120   2.809   4.406 -0.3565 -0.2237  0.5420
  620MOL0     C81726   0.066   2.792   4.530  1.0500  0.7844 -0.2613
  620MOL0     C81727  -0.067   2.795   4.507  0.8829 -0.8567 -0.0376
  620MOL0     C81728  -0.161   2.778   4.621  0.3168 -0.3871  0.7346
  620MOL0     C81729  -0.213   2.917   4.655  0.1484 -0.6730  0.5804
  620MOL0     C81730  -0.288   2.929   4.780 -0.8383  0.5791  0.0158
  620MOL0     C81731  -0.337   3.071   4.799 -0.5074 -0.7803 -1.5766
  620MOL0     O81732  -0.437   3.112   4.712  0.3289 -0.5974  0.1500
  620MOL0     C81733  -0.566   3.075   4.726  0.3572  0.1658 -0.7091
  620MOL0     C81734  -0.620   2.974   4.814 -0.0293  0.1665  0.2738
  620MOL0     C81735  -0.765   2.963   4.831 -0.7834 -0.3759  0.5003
  620MOL0     C81736  -0.852   3.054   4.765  0.2320 -0.7793  0.0130
  620MOL0     C81737  -0.999   3.041   4.775  0.3853  0.9810 -0.4026
  620MOL0     O81738  -1.061   2.966   4.870 -0.3877  0.7232 -0.5355
  620MOL0     C81739  -1.202   2.959   4.875  0.4060  0.9324 -0.0237
  620MOL0     C81740  -1.257   2.832   4.893 -0.0313 -0.1686 -0.5796
  620MOL0     C81741  -1.395   2.812   4.897  1.0510  0.0816  0.2568
  620MOL0     C81742  -1.480   2.928   4.908 -0.2953 -0.5409  0.2173
  620MOL0     O81743  -1.610   2.906   4.931  0.7476 -0.1535 -0.1480
  620MOL0     C81744  -1.633   2.850   5.063  0.1355  0.0490 -0.8344
  620MOL0     C81745  -1.595   2.946   5.179  1.1654  0.7756 -0.1770
  620MOL0     C81746  -1.673   3.078   5.178 -0.0871  0.1888  0.6489
  620MOL0     C81747  -1.819   3.065   5.173 -0.2845  0.5463 -0.0295
  620MOL0     C81748  -1.884   3.005   5.306  0.1150 -0.0685 -0.4171
  620MOL0     C81749  -2.035   2.981   5.283 -0.2074 -0.3756  0.5519
  620MOL0     C81750  -2.103   2.927   5.406 -0.7080  0.7302  0.8312
  620MOL0     C81751  -2.246   2.901   5.378 -1.4880 -0.6288 -0.0899
  620MOL0    Cl81752  -2.314   2.864   5.535  0.1576 -0.2982 -0.3187
  620MOL0     C81753  -1.428   3.059   4.901  0.9021 -0.2585 -0.0955
  620MOL0     C81754  -1.288   3.070   4.875  0.1764 -0.0375  0.2881
  620MOL0     O81755  -1.057   3.108   4.695  0.9099  0.0408 -0.5278
  620MOL0     C81756  -0.788   3.137   4.671 -0.4187 -0.3141  0.5004
  620MOL0     C81757  -0.654   3.149   4.657  0.2135 -0.1250  0.0934
  620MOL0     N81758  -0.098   2.813   4.376 -0.7026  0.8861  0.0240
  620MOL0     N81759   0.015   2.834   4.318 -0.2753 -0.3711  0.3357
  620MOL0     C81760   1.303   2.963   4.420 -0.0279  0.2001  0.5959
  620MOL0     C81761   1.435   2.976   4.373  0.3065 -0.7991 -0.1327
  620MOL0     C81762   1.771   3.214   4.182 -0.4089 -0.3967 -0.7784
  620MOL0     C81763   1.823   3.347   4.142  0.6247 -0.0012  0.4601
  620MOL0     C81764   1.950   3.363   4.097  0.7669 -0.5840  1.1045
  620MOL0     C81765   2.038   3.259   4.091 -0.7163  0.0554 -1.1943
  620MOL0     O81766   2.164   3.259   4.036  0.1158  0.2634 -0.8981
  620MOL0     C81767   2.230   3.384   4.012 -0.0940 -0.0273  0.5886
  620MOL0     C81768   2.357   3.370   3.925 -0.2597 -0.2787 -0.0801
  620MOL0     C81769   2.399   3.525   3.877 -0.2111  1.4584  0.3451
  620MOL0     C81770   2.469   3.600   3.983 -0.4785 -0.1055 -0.3711
  620MOL0     C81771   2.601   3.531   4.013  0.4155 -0.2993  0.4357
  620MOL0     C81772   2.709   3.477   4.031 -0.2676  0.3495 -0.3338
  620MOL0     C81773   1.998   3.131   4.139 -0.1088 -0.3842 -0.4012
  620MOL0     C81774   1.867   3.112   4.182  0.1443 -0.4515 -0.3941
  620MOL0     H81775   1.375   3.087   4.061 -0.0238 -1.2016 -0.6428
  620MOL0     H81776   1.148   3.055   4.133 -1.4164 -0.5302  1.6957
  620MOL0     H81777   1.078   3.188   4.377 -0.7818 -0.7994 -3.1070
  620MOL0     H81778   1.014   3.082   4.511 -1.1877 -4.2937  0.5429
  620MOL0     H81779   0.897   3.192   4.254 -2.0576  1.1605 -0.3202
  620MOL0     H81780   0.854   3.238   4.425  0.5593  1.3287 -2.4870
  620MOL0     H81781   0.766   3.009   4.462  0.2371  2.6832  0.6351
  620MOL0     H81782   0.791   2.963   4.293  0.6113 -0.4033 -0.3913
  620MOL0     H81783   0.649   3.227   4.306 -0.8887 -0.0900 -0.2070
  620MOL0     H81784   0.617   3.082   4.216 -0.6887  0.7735  0.1451
  620MOL0     H81785   0.448   3.172   4.404 -0.0865 -0.5498  0.5864
  620MOL0     H81786   0.551   3.077   4.512  0.7089 -0.3658 -0.5021
  620MOL0     H81787   0.528   2.879   4.403  1.7628  0.9315 -3.0180
  620MOL0     H81788   0.456   2.954   4.257 -1.3277 -1.2094 -0.2770
  620MOL0     H81789   0.335   2.906   4.540  0.2728 -0.0674  0.0676
  620MOL0     H81790   0.262   3.019   4.419  2.8330  2.6064  1.2317
  620MOL0     H81791   0.301   2.716   4.404 -5.6132 -2.4745  2.8899
  620MOL0     H81792   0.255   2.817   4.259 -2.0183 -2.6798 -0.2704
  620MOL0     H81793   0.106   2.772   4.629  1.9262  1.9960 -0.3431
  620MOL0     H81794  -0.099   2.739   4.702 -0.0962  0.4930  1.4895
  620MOL0     H81795  -0.242   2.709   4.598  0.1262  0.5358 -1.6609
  620MOL0     H81796  -0.283   2.945   4.576  1.6886 -1.7433 -1.2622
  620MOL0     H81797  -0.142   3.000   4.651 -1.9996  1.4078  2.6195
  620MOL0     H81798  -0.374   2.862   4.773 -0.1167 -0.2226 -3.1220
  620MOL0     H81799  -0.226   2.902   4.866 -1.0754  0.6382  0.2040
  620MOL0     H81800  -0.253   3.140   4.809  0.2947 -1.9156  0.2637
  620MOL0     H81801  -0.380   3.076   4.900  0.0452 -0.1732 -1.3604
  620MOL0     H81802  -0.562   2.907   4.877  1.0638  0.7038 -0.1422
  620MOL0     H81803  -0.808   2.896   4.905  0.0675  0.8619  2.1792
  620MOL0     H81804  -1.185   2.752   4.887  0.9067  0.6490 -0.4504
  620MOL0     H81805  -1.445   2.716   4.902  0.9678 -0.0651 -2.1298
  620MOL0     H81806  -1.584   2.754   5.080  0.4227  0.3262 -0.0630
  620MOL0     H81807  -1.737   2.819   5.081  0.5322  0.1226  2.0319
  620MOL0     H81808  -1.491   2.976   5.190  1.7145 -1.4153  1.2037
  620MOL0     H81809  -1.612   2.888   5.270 -0.8638 -2.2014 -2.2681
  620MOL0     H81810  -1.639   3.135   5.091  0.2230  1.3219  1.4773
  620MOL0     H81811  -1.637   3.144   5.258 -0.4565  1.0255  0.1358
  620MOL0     H81812  -1.854   3.162   5.138 -0.4065  0.5213  0.0222
  620MOL0     H81813  -1.848   2.995   5.094 -1.4009  0.4934  0.4047
  620MOL0     H81814  -1.876   3.075   5.389  3.1127 -0.9875  0.1815
  620MOL0     H81815  -1.839   2.914   5.346  1.2182 -0.6926 -2.8975
  620MOL0     H81816  -2.047   2.910   5.200 -1.7643  2.1470 -1.5675
  620MOL0     H81817  -2.083   3.078   5.261 -1.1828 -0.9520  0.0689
  620MOL0     H81818  -2.056   2.833   5.437 -1.9431  0.0431  0.6713
  620MOL0     H81819  -2.093   2.994   5.492 -1.4157  0.0483  1.4618
  620MOL0     H81820  -2.262   2.835   5.292 -0.7459  0.2325 -0.9114
  620MOL0     H81821  -2.291   2.994   5.342  0.1261 -0.8094 -2.9006
  620MOL0     H81822  -1.495   3.144   4.906 -0.5959 -1.4667  2.6742
  620MOL0     H81823  -1.244   3.169   4.879 -0.4741  0.2244  2.6705
  620MOL0     H81824  -0.843   3.200   4.602 -0.0371  0.3550  0.7910
  620MOL0     H81825  -0.614   3.237   4.608 -1.0899  1.4061  1.6289
  620MOL0     H81826   1.276   2.919   4.516 -2.9861  0.4519 -0.0370
  620MOL0     H81827   1.513   2.950   4.443  0.0705  0.1830  0.5132
  620MOL0     H81828   1.767   3.440   4.151  4.1076  2.2846  0.3873
  620MOL0     H81829   1.977   3.460   4.059 -0.0500 -1.3817 -1.7255
  620MOL0     H81830   2.259   3.415   4.113 -0.3951  3.2512 -0.2230
  620MOL0     H81831   2.162   3.455   3.964 -0.3314  0.4828  1.6405
  620MOL0     H81832   2.442   3.318   3.971  0.3745 -1.5906 -2.5619
  620MOL0     H81833   2.317   3.313   3.841 -0.5692 -3.0913  1.8547
  620MOL0     H81834   2.314   3.581   3.836 -0.3564  1.8345  1.1412
  620MOL0     H81835   2.466   3.513   3.792 -1.0927  2.2776 -0.4990
  620MOL0     H81836   2.494   3.701   3.948  2.3134 -0.2045  1.0056
  620MOL0     H81837   2.414   3.612   4.077  1.0909  2.2513  0.3378
  620MOL0     H81838   2.805   3.441   4.063 -0.4917 -1.0726 -1.1557
  620MOL0     H81839   2.064   3.045   4.134 -1.6815 -1.6418 -0.1518
  620MOL0     H81840   1.835   3.011   4.204 -1.1968  0.3114  1.4714
  621MOL0     O81841   5.528  10.525   8.862 -0.5166 -0.3809  0.0220
  621MOL0     C81842   5.532  10.440   8.952 -0.3643 -0.2117 -0.4923
  621MOL0     O81843   5.429  10.343   8.989  0.9171 -0.3566 -1.3812
  621MOL0     C81844   5.322  10.346   8.901  0.5252  0.5171 -0.0859
  621MOL0     C81845   5.339  10.291   8.772 -0.0568  0.1548  0.7786
  621MOL0     C81846   5.230  10.266   8.693 -0.4664 -1.0886  0.3986
  621MOL0     C81847   5.106  10.314   8.724  0.1628 -0.1494 -0.8992
  621MOL0     O81848   5.002  10.296   8.644  0.2087  0.1275  0.7947
  621MOL0     C81849   5.006  10.219   8.528 -0.5088  0.1701  0.2290
  621MOL0     C81850   4.866  10.249   8.458 -1.1052  0.6760 -0.1131
  621MOL0     C81851   4.865  10.393   8.414  0.4002 -0.5751 -0.4812
  621MOL0     C81852   4.949  10.419   8.286  0.5416 -0.2296  0.5447
  621MOL0     C81853   4.921  10.551   8.220 -0.3566 -0.0590  0.7637
  621MOL0     C81854   4.790  10.562   8.145  0.1741  0.2017  0.2273
  621MOL0     C81855   4.776  10.696   8.076  0.3409 -0.9404  0.4708
  621MOL0     C81856   4.638  10.694   8.010  0.3019  0.9437 -0.9604
  621MOL0     N81857   4.618  10.814   7.932 -0.7389  0.6381 -0.4082
  621MOL0     C81858   4.502  10.855   7.866 -0.5662  0.1295  0.4376
  621MOL0     C81859   4.524  10.980   7.812  0.9367 -0.8629 -0.3683
  621MOL0     C81860   4.425  11.060   7.735 -0.8513 -0.3778  0.1353
  621MOL0     C81861   4.289  11.067   7.813 -0.1292  0.3053 -0.7167
  621MOL0     C81862   4.191  11.159   7.750 -0.3626 -0.1142  0.6499
  621MOL0     C81863   4.077  11.194   7.844  0.9478 -0.8547  0.7491
  621MOL0     O81864   4.016  11.309   7.792 -0.1208  0.5492 -0.0719
  621MOL0     C81865   3.880  11.313   7.815  0.1344 -0.6048  0.7861
  621MOL0     C81866   3.775  11.315   7.724  0.1974  0.1480 -0.1338
  621MOL0     C81867   3.641  11.337   7.755 -0.0551  0.1736  0.3476
  621MOL0     C81868   3.603  11.361   7.883  0.3034 -0.2824  0.5536
  621MOL0     C81869   3.466  11.364   7.933 -0.6412  0.7734  0.2670
  621MOL0     O81870   3.366  11.340   7.840  0.0609  0.1687 -0.3776
  621MOL0     C81871   3.235  11.326   7.885 -1.0380 -0.2733 -0.9215
  621MOL0     C81872   3.150  11.251   7.809 -1.2244 -0.2237  0.8628
  621MOL0     C81873   3.013  11.248   7.830 -0.4146 -1.0983 -0.4999
  621MOL0     C81874   2.962  11.305   7.946  0.6040 -0.6379  0.2154
  621MOL0     O81875   2.828  11.311   7.957  0.6132  0.0941 -1.0007
  621MOL0     C81876   2.784  11.302   8.096  0.6962 -0.5066 -0.3323
  621MOL0     C81877   2.636  11.344   8.104 -0.1130 -0.7913  0.0580
  621MOL0     C81878   2.599  11.330   8.249 -0.5639  0.1617  1.1080
  621MOL0     C81879   2.459  11.389   8.276  0.1124 -0.4080  0.1878
  621MOL0     C81880   2.350  11.283   8.268 -0.4832  0.7853  0.8019
  621MOL0     C81881   2.207  11.332   8.281 -0.7802 -0.0464 -0.0357
  621MOL0     C81882   2.155  11.357   8.424  0.4094 -0.2747 -0.6926
  621MOL0     C81883   2.006  11.368   8.415  0.0471 -0.2394  0.7232
  621MOL0    Cl81884   1.943  11.396   8.587  0.2490 -0.4517  0.3880
  621MOL0     C81885   3.050  11.379   8.028  0.1347  1.2654  0.0999
  621MOL0     C81886   3.179  11.408   7.988 -0.1406 -0.6676 -0.6861
  621MOL0     O81887   3.448  11.368   8.059  0.3827 -0.2437  0.8435
  621MOL0     C81888   3.702  11.377   7.978 -0.3182  0.5345 -0.1666
  621MOL0     C81889   3.845  11.351   7.944  0.0657 -0.3249 -0.0262
  621MOL0     N81890   4.657  11.010   7.847  0.9755 -0.6678  0.5647
  621MOL0     N81891   4.707  10.920   7.922 -0.0133  1.0681  0.1732
  621MOL0     C81892   5.090  10.385   8.847 -0.3470 -0.4698 -0.3548
  621MOL0     C81893   5.197  10.395   8.936  0.7149  0.8435 -0.8703
  621MOL0     C81894   5.666  10.419   9.020 -0.0019  0.5087 -0.1096
  621MOL0     C81895   5.791  10.492   8.994  0.2143 -0.3306 -0.2833
  621MOL0     C81896   5.903  10.467   9.072 -0.6268  0.3377  0.5437
  621MOL0     C81897   5.905  10.367   9.176  0.0349 -0.4470 -0.1937
  621MOL0     O81898   6.016  10.340   9.252 -1.2741  0.2135 -0.4546
  621MOL0     C81899   6.096  10.225   9.213  0.9901 -1.1882 -0.7528
  621MOL0     C81900   6.249  10.241   9.222 -0.7881 -0.1911  0.1614
  621MOL0     C81901   6.302  10.338   9.115 -0.4945 -0.2629 -0.8673
  621MOL0     C81902   6.434  10.398   9.183 -0.4026 -0.2686  0.1134
  621MOL0     C81903   6.501  10.484   9.088 -0.1577 -0.8249  1.2046
  621MOL0     C81904   6.553  10.571   9.022 -0.1123 -0.8295 -0.0938
  621MOL0     C81905   5.795  10.290   9.191 -0.0503  0.6042 -0.6591
  621MOL0     C81906   5.675  10.335   9.133  0.0611 -0.2427  0.4071
  621MOL0     H81907   5.438  10.267   8.734 -0.6640  0.4371 -1.0733
  621MOL0     H81908   5.242  10.211   8.600 -2.1061  0.2378 -0.6620
  621MOL0     H81909   5.006  10.112   8.551  0.4077  0.3900  1.3240
  621MOL0     H81910   5.083  10.242   8.453 -0.7001 -2.0785 -0.7153
  621MOL0     H81911   4.779  10.228   8.522  1.2539 -2.1699  2.4541
  621MOL0     H81912   4.864  10.190   8.366 -0.6247  1.6821 -0.7812
  621MOL0     H81913   4.894  10.453   8.501  4.4781  1.0222 -2.6752
  621MOL0     H81914   4.760  10.416   8.392 -0.0864 -0.4215  1.7915
  621MOL0     H81915   5.050  10.420   8.327 -0.4219  0.5397  3.0790
  621MOL0     H81916   4.925  10.335   8.219  0.4660 -1.1138  1.6536
  621MOL0     H81917   5.008  10.568   8.156 -1.4914  3.2474 -0.0720
  621MOL0     H81918   4.929  10.629   8.296  0.7038 -0.5489  1.1791
  621MOL0     H81919   4.709  10.536   8.215 -0.0453  1.8592  0.6394
  621MOL0     H81920   4.789  10.491   8.062 -1.6466 -0.4240  0.7310
  621MOL0     H81921   4.779  10.772   8.154 -2.2273 -0.0782 -0.1798
  621MOL0     H81922   4.867  10.726   8.023  0.5539 -3.3024 -0.6449
  621MOL0     H81923   4.565  10.703   8.092  1.8477 -0.8056  0.7012
  621MOL0     H81924   4.626  10.604   7.949 -1.6404 -0.2088  0.9661
  621MOL0     H81925   4.404  10.808   7.860 -1.0023  1.1563 -0.8201
  621MOL0     H81926   4.415  11.013   7.637  0.7926 -0.4257 -0.0374
  621MOL0     H81927   4.466  11.160   7.718  1.2196 -1.1239  0.5072
  621MOL0     H81928   4.311  11.087   7.918  0.0846 -0.2902 -0.6475
  621MOL0     H81929   4.239  10.971   7.820 -0.7627  0.7576  3.7049
  621MOL0     H81930   4.254  11.243   7.720 -0.1876 -0.3668  0.2972
  621MOL0     H81931   4.146  11.119   7.658  1.4424  1.2665 -0.9119
  621MOL0     H81932   4.106  11.212   7.948 -0.5547 -1.1467  1.2370
  621MOL0     H81933   4.011  11.107   7.845  0.2568 -0.3509  2.0955
  621MOL0     H81934   3.804  11.291   7.623 -2.4325 -2.4294 -0.4101
  621MOL0     H81935   3.573  11.328   7.671  2.0318  1.5858 -1.6431
  621MOL0     H81936   3.191  11.205   7.719  1.3967  0.4507  1.6004
  621MOL0     H81937   2.950  11.182   7.772  0.4041 -3.4231  1.1247
  621MOL0     H81938   2.829  11.366   8.173 -1.6115  2.0735 -0.9495
  621MOL0     H81939   2.791  11.202   8.141  0.0337  0.3074  1.6946
  621MOL0     H81940   2.577  11.276   8.041 -2.8501 -0.9434  2.6189
  621MOL0     H81941   2.631  11.447   8.068  0.1800 -1.4925 -2.1683
  621MOL0     H81942   2.670  11.381   8.315  1.1374  2.3587 -2.1123
  621MOL0     H81943   2.594  11.222   8.268 -2.5165  0.3255  1.8116
  621MOL0     H81944   2.486  11.420   8.377  2.8439  0.0738 -0.6176
  621MOL0     H81945   2.437  11.471   8.208  0.9884  1.3831  1.9725
  621MOL0     H81946   2.378  11.209   8.344 -0.4634  0.9544  0.9590
  621MOL0     H81947   2.361  11.235   8.171 -0.0552  0.1343  1.1592
  621MOL0     H81948   2.147  11.257   8.229  1.0896 -1.5887 -0.0807
  621MOL0     H81949   2.188  11.424   8.224  1.0173  0.1553 -0.3537
  621MOL0     H81950   2.184  11.271   8.484 -1.5699 -1.0047 -0.6961
  621MOL0     H81951   2.185  11.449   8.474 -3.1474  0.5920  0.1630
  621MOL0     H81952   1.968  11.274   8.373 -1.4577  1.0984 -1.1077
  621MOL0     H81953   1.978  11.446   8.343  2.5487 -1.0680 -1.3150
  621MOL0     H81954   3.010  11.406   8.125  0.0058 -0.5853  0.5905
  621MOL0     H81955   3.232  11.494   8.028  0.6523 -0.9238 -1.1701
  621MOL0     H81956   3.678  11.401   8.081  1.4775  2.3202 -0.1020
  621MOL0     H81957   3.926  11.366   8.015  0.2416  0.4963 -0.3797
  621MOL0     H81958   4.996  10.433   8.868 -0.3565 -0.7954  0.3807
  621MOL0     H81959   5.191  10.439   9.036 -0.1683  1.1330 -1.0404
  621MOL0     H81960   5.792  10.559   8.909  1.3833 -1.4737 -1.2198
  621MOL0     H81961   5.996  10.515   9.044  0.7041 -2.4769 -0.2558
  621MOL0     H81962   6.064  10.203   9.111 -0.0972  1.5028 -1.0705
  621MOL0     H81963   6.079  10.143   9.284  2.1905 -0.1250  0.8439
  621MOL0     H81964   6.271  10.287   9.319 -1.3012  1.6184 -0.5302
  621MOL0     H81965   6.310  10.152   9.211 -0.4362  0.2903 -2.4931
  621MOL0     H81966   6.231  10.417   9.085 -0.7913  0.4840  1.5854
  621MOL0     H81967   6.339  10.287   9.026 -0.7770 -1.3284 -0.3823
  621MOL0     H81968   6.403  10.458   9.269  1.0346 -2.9459  2.6729
  621MOL0     H81969   6.493  10.312   9.218 -3.4292 -2.1195  1.1478
  621MOL0     H81970   6.612  10.649   8.979  0.0182 -0.2158  1.1602
  621MOL0     H81971   5.785  10.210   9.264  2.5661 -0.0307 -0.8804
  621MOL0     H81972   5.585  10.281   9.159 -0.7998  1.4477  1.0552
  622MOL0     O81973   6.912   0.583   8.350 -0.0557  0.3926 -0.0362
  622MOL0     C81974   6.905   0.466   8.316 -0.5338  0.0522 -0.4354
  622MOL0     O81975   6.787   0.393   8.304 -0.2308 -0.5410  0.5640
  622MOL0     C81976   6.676   0.470   8.301 -0.3093 -0.8975 -0.0592
  622MOL0     C81977   6.623   0.512   8.427  0.5140  0.6637 -0.2704
  622MOL0     C81978   6.508   0.594   8.430  0.2858 -0.5174  0.2242
  622MOL0     C81979   6.449   0.643   8.311  0.0695 -0.2715  1.2415
  622MOL0     O81980   6.349   0.739   8.318 -0.0556  0.1470 -1.8360
  622MOL0     C81981   6.276   0.790   8.208 -0.1297 -0.1369  0.2950
  622MOL0     C81982   6.158   0.695   8.167 -0.0010 -0.1391  0.1013
  622MOL0     C81983   6.043   0.711   8.266 -0.1923  0.0649  0.1201
  622MOL0     C81984   5.915   0.637   8.231  0.9539 -0.1461  0.5832
  622MOL0     C81985   5.811   0.626   8.337 -0.2093  0.1216  0.2214
  622MOL0     C81986   5.714   0.519   8.282 -0.1704  0.1235  0.2668
  622MOL0     C81987   5.605   0.456   8.373  0.7391 -0.2031 -0.6529
  622MOL0     C81988   5.541   0.557   8.461 -0.5549 -0.4135  0.2241
  622MOL0     N81989   5.454   0.660   8.391  0.3212 -0.1484 -0.6172
  622MOL0     C81990   5.320   0.657   8.367 -1.1987 -0.3810 -0.0638
  622MOL0     C81991   5.276   0.781   8.326  0.0701 -0.0925  0.3318
  622MOL0     C81992   5.127   0.820   8.310 -0.1185  0.0202  0.2555
  622MOL0     C81993   5.091   0.971   8.301  0.1337  0.1092  0.3434
  622MOL0     C81994   5.124   1.034   8.167  0.7289  0.6934 -0.5700
  622MOL0     C81995   5.017   0.989   8.069 -0.7446 -0.5393 -0.2037
  622MOL0     O81996   4.878   1.010   8.106  0.0595 -0.4212  0.1247
  622MOL0     C81997   4.783   0.985   8.012  0.4749 -0.5640  0.3877
  622MOL0     C81998   4.657   1.013   8.043  0.9592  0.1844 -0.1009
  622MOL0     C81999   4.557   1.001   7.944 -0.8246 -0.1722 -0.7148
  622MOL0     C82000   4.588   0.939   7.823 -0.1521  0.1471 -0.1773
  622MOL0     C82001   4.488   0.886   7.727  0.0863  0.1283  0.1256
  622MOL0     O82002   4.361   0.860   7.768  0.5523  0.0231 -0.3631
  622MOL0     C82003   4.254   0.844   7.685  0.1802 -0.6853 -0.3771
  622MOL0     C82004   4.146   0.779   7.747  0.4586 -0.2568  0.3740
  622MOL0     C82005   4.037   0.757   7.668  0.6362  0.6974 -0.2088
  622MOL0     C82006   4.023   0.795   7.533 -0.3834 -0.7230 -0.0636
  622MOL0     O82007   3.916   0.761   7.456  0.1608 -0.4971 -0.6540
  622MOL0     C82008   3.810   0.858   7.437  0.0990 -0.6208 -0.0237
  622MOL0     C82009   3.739   0.844   7.310  0.0830 -0.1813 -0.1238
  622MOL0     C82010   3.643   0.723   7.313 -0.7185 -0.2782  0.6567
  622MOL0     C82011   3.493   0.774   7.320 -0.7380 -0.8058  0.5000
  622MOL0     C82012   3.397   0.662   7.278  1.3841 -0.2586  0.0655
  622MOL0     C82013   3.251   0.702   7.286 -0.3302 -0.3354 -0.8318
  622MOL0     C82014   3.152   0.580   7.307  0.0283  1.5885 -0.7584
  622MOL0     C82015   3.136   0.504   7.173  0.1014 -0.1010  0.7305
  622MOL0    Cl82016   2.983   0.405   7.193 -0.1716 -0.3962  0.0132
  622MOL0     C82017   4.143   0.844   7.474  0.6195  0.6134  0.7694
  622MOL0     C82018   4.252   0.870   7.547  0.1395 -0.5903  0.7422
  622MOL0     O82019   4.538   0.876   7.605  0.7466  0.1644 -0.4893
  622MOL0     C82020   4.725   0.918   7.782  0.0562  0.2294 -0.0901
  622MOL0     C82021   4.820   0.942   7.883 -0.3720 -0.2812 -0.4579
  622MOL0     N82022   5.393   0.855   8.318  0.1346 -0.0783 -0.1133
  622MOL0     N82023   5.496   0.782   8.354 -0.7314 -0.4050 -0.0225
  622MOL0     C82024   6.504   0.604   8.186 -0.2924  0.6098 -0.4994
  622MOL0     C82025   6.611   0.510   8.182 -0.4996  0.5106  0.2590
  622MOL0     C82026   7.031   0.394   8.292 -0.0697  0.6964  0.2598
  622MOL0     C82027   7.151   0.464   8.284  0.5873  0.7185 -0.6095
  622MOL0     C82028   7.265   0.392   8.261 -0.6516  0.1928 -0.0260
  622MOL0     C82029   7.278   0.259   8.269  0.3872  0.6600 -0.3107
  622MOL0     O82030   7.400   0.207   8.264 -0.1502  0.2900 -0.0915
  622MOL0     C82031   7.417   0.086   8.182  0.2879 -0.3582 -0.4556
  622MOL0     C82032   7.366   0.094   8.040 -0.0014 -0.9748  0.1351
  622MOL0     C82033   7.390  -0.038   7.956  1.2068  0.0741 -0.0342
  622MOL0     C82034   7.298  -0.019   7.836  0.4267 -0.1118  0.4247
  622MOL0     C82035   7.289  -0.137   7.745  0.2084  0.8676  0.0175
  622MOL0     C82036   7.293  -0.213   7.653 -0.8608  0.0437  1.0920
  622MOL0     C82037   7.151   0.184   8.296 -0.5078 -0.7084  0.4672
  622MOL0     C82038   7.032   0.255   8.309 -0.1930 -0.4450  0.7008
  622MOL0     H82039   6.674   0.496   8.521 -0.4365  0.2565  0.1996
  622MOL0     H82040   6.464   0.633   8.520 -0.6005  2.4729 -1.3714
  622MOL0     H82041   6.340   0.800   8.120 -0.0460 -0.6042  0.2998
  622MOL0     H82042   6.228   0.886   8.232 -1.3734  0.7080 -4.5424
  622MOL0     H82043   6.183   0.589   8.164  1.7463  0.1605 -4.9703
  622MOL0     H82044   6.144   0.733   8.066  2.1304  2.9223  0.8175
  622MOL0     H82045   6.015   0.816   8.280  0.7030  0.2314  0.7629
  622MOL0     H82046   6.082   0.674   8.361 -0.4901  1.1655  0.6955
  622MOL0     H82047   5.873   0.699   8.151 -3.3343 -1.1372  1.8250
  622MOL0     H82048   5.937   0.538   8.189  1.7986  0.5186 -0.6158
  622MOL0     H82049   5.757   0.721   8.349  0.8796  1.0779 -1.9770
  622MOL0     H82050   5.866   0.595   8.427  1.7383  1.9954 -0.2408
  622MOL0     H82051   5.769   0.432   8.245 -2.6311 -2.0612  1.4123
  622MOL0     H82052   5.667   0.551   8.189  0.3733  3.3542  0.9977
  622MOL0     H82053   5.537   0.404   8.306 -1.5819  0.3535  1.1394
  622MOL0     H82054   5.655   0.376   8.428 -0.0812 -0.7079 -0.6273
  622MOL0     H82055   5.621   0.602   8.519 -0.5401 -3.4869  2.8130
  622MOL0     H82056   5.474   0.518   8.538 -1.5416 -2.4236 -1.5612
  622MOL0     H82057   5.248   0.581   8.393 -0.8374 -0.5381  0.4839
  622MOL0     H82058   5.071   0.781   8.396 -0.5702  2.4454  1.1481
  622MOL0     H82059   5.098   0.768   8.218 -1.2448  1.3502 -0.1815
  622MOL0     H82060   5.143   1.023   8.381  3.5212 -3.2746  0.5983
  622MOL0     H82061   4.985   0.991   8.321  0.1576  1.7495 -0.8964
  622MOL0     H82062   5.111   1.141   8.186  2.1796  0.7169  0.4482
  622MOL0     H82063   5.223   1.011   8.126 -0.2738 -2.7997 -1.3488
  622MOL0     H82064   5.039   0.886   8.040 -1.4604 -0.5699 -0.6866
  622MOL0     H82065   5.040   1.062   7.991  2.8289 -0.6259  0.6271
  622MOL0     H82066   4.638   1.050   8.143 -3.2736  0.0648 -0.6645
  622MOL0     H82067   4.454   1.021   7.968 -1.2440 -0.7756 -1.9404
  622MOL0     H82068   4.149   0.753   7.852  1.0051  0.6943  0.6063
  622MOL0     H82069   3.956   0.713   7.727  1.5141  1.2863  1.5112
  622MOL0     H82070   3.852   0.959   7.436  1.4641 -1.1698 -1.2742
  622MOL0     H82071   3.733   0.859   7.515  0.7783  0.5756  0.6633
  622MOL0     H82072   3.821   0.818   7.242  0.1028  1.2903 -0.7093
  622MOL0     H82073   3.698   0.938   7.271  0.5175  0.0342 -0.0703
  622MOL0     H82074   3.670   0.663   7.400  1.5453  0.5074  0.5660
  622MOL0     H82075   3.654   0.669   7.218  1.7109  1.9900 -0.4795
  622MOL0     H82076   3.472   0.822   7.416 -1.5102  1.6215 -0.7978
  622MOL0     H82077   3.491   0.850   7.240  1.1130 -4.2635 -3.2003
  622MOL0     H82078   3.416   0.583   7.351  0.2802 -1.7994 -1.2342
  622MOL0     H82079   3.412   0.623   7.177  0.9891  1.6883 -0.8116
  622MOL0     H82080   3.226   0.770   7.204  0.6179 -1.6795 -2.2977
  622MOL0     H82081   3.245   0.765   7.375 -0.1636 -0.3147 -0.8337
  622MOL0     H82082   3.181   0.512   7.388 -1.5042  0.4484 -1.1250
  622MOL0     H82083   3.053   0.622   7.328 -0.2746 -0.5027  2.8250
  622MOL0     H82084   3.223   0.444   7.147  1.4978  0.8664  2.8332
  622MOL0     H82085   3.119   0.579   7.095  2.1248 -0.4155 -0.0545
  622MOL0     H82086   4.132   0.847   7.366 -3.9214 -1.5049  0.9245
  622MOL0     H82087   4.340   0.912   7.499  0.2246 -1.6183 -0.0391
  622MOL0     H82088   4.748   0.870   7.688 -1.8108 -3.6321  1.1859
  622MOL0     H82089   4.923   0.920   7.855 -0.5725 -1.4962 -0.2975
  622MOL0     H82090   6.464   0.640   8.092 -0.0400  5.5625  1.0361
  622MOL0     H82091   6.647   0.484   8.083 -1.1142 -0.0808  0.1841
  622MOL0     H82092   7.153   0.571   8.262 -0.2575  0.9800  0.4804
  622MOL0     H82093   7.361   0.435   8.233  1.0997 -3.9485 -1.1333
  622MOL0     H82094   7.368   0.001   8.232  0.3132  0.9816  2.0292
  622MOL0     H82095   7.522   0.057   8.169  0.7295  0.1774  1.5239
  622MOL0     H82096   7.260   0.120   8.042 -0.2273 -1.9180  1.8123
  622MOL0     H82097   7.424   0.166   7.982  0.5831 -2.5025 -1.2631
  622MOL0     H82098   7.369  -0.130   8.011 -0.8137  0.9672  0.7711
  622MOL0     H82099   7.495  -0.048   7.927  1.2754  0.5844  0.0240
  622MOL0     H82100   7.194  -0.015   7.867 -0.3770  0.0139 -2.0977
  622MOL0     H82101   7.316   0.079   7.790 -2.2064  0.2144 -0.0751
  622MOL0     H82102   7.320  -0.279   7.573  0.4767  3.1552 -1.2498
  622MOL0     H82103   7.159   0.078   8.321 -0.2978 -0.5689  0.9960
  622MOL0     H82104   6.939   0.202   8.327 -0.5365 -0.0294  0.2197
  623MOL0     O82105   5.515   4.264   2.063 -0.0065 -0.3834 -0.3860
  623MOL0     C82106   5.557   4.203   2.165 -0.8948 -0.1119  1.2098
  623MOL0     O82107   5.496   4.111   2.237 -0.6468 -0.0219  0.2589
  623MOL0     C82108   5.366   4.080   2.205  0.0746 -0.2363 -0.6594
  623MOL0     C82109   5.334   4.030   2.081 -0.0354  0.2005 -0.2207
  623MOL0     C82110   5.204   4.011   2.046  0.1113 -0.7916 -0.5980
  623MOL0     C82111   5.097   4.037   2.130  0.6513 -0.0311  0.0786
  623MOL0     O82112   4.967   4.014   2.083 -0.2955 -0.3050  0.1972
  623MOL0     C82113   4.857   4.016   2.176  0.0361  0.0748 -0.2052
  623MOL0     C82114   4.735   3.957   2.100 -0.2960 -0.2353  0.2520
  623MOL0     C82115   4.745   3.822   2.034  0.1169  0.1506  0.4322
  623MOL0     C82116   4.666   3.796   1.915 -0.6635  0.0432  0.4704
  623MOL0     C82117   4.519   3.774   1.951 -0.3974  0.1045 -0.0328
  623MOL0     C82118   4.432   3.811   1.831  0.1647 -0.0517  0.2353
  623MOL0     C82119   4.395   3.960   1.817 -0.7511  0.3966  0.1962
  623MOL0     C82120   4.333   4.024   1.944  0.6576  0.4557  0.4682
  623MOL0     N82121   4.215   3.957   1.985 -0.6512  0.4967  0.1897
  623MOL0     C82122   4.097   3.998   1.954  1.0491 -0.4032 -0.2298
  623MOL0     C82123   4.002   3.903   1.996 -0.1109 -0.6639 -0.3702
  623MOL0     C82124   3.846   3.913   1.986 -0.6300  0.5367  0.0902
  623MOL0     C82125   3.781   3.927   2.114  0.1462 -0.1547 -0.6075
  623MOL0     C82126   3.784   3.793   2.194 -0.4325 -0.0145 -0.7494
  623MOL0     C82127   3.730   3.814   2.340  0.5394  0.3546 -0.1431
  623MOL0     O82128   3.629   3.911   2.339  0.4460  0.2391 -0.7905
  623MOL0     C82129   3.502   3.886   2.295  0.6367  0.2136 -0.1114
  623MOL0     C82130   3.450   3.756   2.259  1.2841  0.4382 -1.0474
  623MOL0     C82131   3.322   3.750   2.203  0.3454 -0.0831 -0.3869
  623MOL0     C82132   3.242   3.868   2.193  0.3757 -0.7338 -0.3249
  623MOL0     C82133   3.106   3.860   2.140 -0.4474  0.2859 -0.1550
  623MOL0     O82134   3.034   3.744   2.149  0.3886  0.1254 -0.5230
  623MOL0     C82135   2.902   3.732   2.147  0.2746  0.5128 -0.6043
  623MOL0     C82136   2.838   3.688   2.033  0.0533  0.2714 -0.0739
  623MOL0     C82137   2.696   3.685   2.016 -0.0181 -0.4655 -0.3559
  623MOL0     C82138   2.615   3.719   2.132 -0.8990  0.1370 -0.3932
  623MOL0     O82139   2.478   3.737   2.113 -0.5726 -0.2863  0.7495
  623MOL0     C82140   2.402   3.805   2.214 -0.6464  0.0827  0.2217
  623MOL0     C82141   2.260   3.814   2.165  0.9034 -0.0966 -0.3866
  623MOL0     C82142   2.185   3.681   2.180 -0.3537  0.4818  0.1900
  623MOL0     C82143   2.046   3.695   2.138 -0.8121  0.5160 -0.3227
  623MOL0     C82144   1.969   3.563   2.119  0.5342 -1.2493  0.1686
  623MOL0     C82145   1.815   3.600   2.135 -0.2707  0.2445 -0.2100
  623MOL0     C82146   1.741   3.469   2.088 -0.2612 -1.1373 -0.8298
  623MOL0     C82147   1.599   3.477   2.151  0.4772  0.3204  0.9209
  623MOL0    Cl82148   1.498   3.615   2.103 -0.3714  0.4909  0.6013
  623MOL0     C82149   2.678   3.758   2.251  0.3640 -0.8023 -0.0990
  623MOL0     C82150   2.815   3.765   2.256  0.4460 -0.1563  1.2075
  623MOL0     O82151   3.063   3.962   2.090 -0.2054 -0.3063 -0.3463
  623MOL0     C82152   3.295   3.991   2.232  0.3629 -0.0213  0.9720
  623MOL0     C82153   3.423   3.999   2.276 -0.2283 -0.6086 -0.1947
  623MOL0     N82154   4.085   3.808   2.060  0.7832 -0.1045 -0.1542
  623MOL0     N82155   4.203   3.848   2.063  0.1957 -0.8169 -0.3580
  623MOL0     C82156   5.132   4.075   2.268  0.8472 -0.2989 -0.4891
  623MOL0     C82157   5.267   4.098   2.303 -0.0191 -0.2639  0.1760
  623MOL0     C82158   5.701   4.243   2.199 -0.1281  0.5821 -0.8847
  623MOL0     C82159   5.770   4.328   2.113  0.4049  0.1808 -0.7935
  623MOL0     C82160   5.891   4.384   2.156 -0.0353  0.2217 -0.0712
  623MOL0     C82161   5.964   4.343   2.271  0.7365  0.2128 -0.2954
  623MOL0     O82162   6.096   4.394   2.294 -0.0093 -0.5526 -0.1562
  623MOL0     C82163   6.153   4.361   2.421 -0.1972 -0.5274 -0.0073
  623MOL0     C82164   6.295   4.420   2.412  0.3212  0.3102 -0.3760
  623MOL0     C82165   6.376   4.389   2.541 -0.8181 -0.8791 -0.1260
  623MOL0     C82166   6.526   4.431   2.522 -0.3221  0.2087 -0.0421
  623MOL0     C82167   6.609   4.429   2.642  0.9429 -0.3627  0.4811
  623MOL0     C82168   6.685   4.421   2.731 -0.0209  0.0566 -0.8535
  623MOL0     C82169   5.897   4.252   2.344  0.2768  0.4709 -1.0417
  623MOL0     C82170   5.764   4.206   2.327 -0.1797  0.1627  0.4088
  623MOL0     H82171   5.414   4.006   2.012 -1.4066  0.3362 -1.9199
  623MOL0     H82172   5.180   3.968   1.949 -2.6130  1.3013 -0.9895
  623MOL0     H82173   4.831   4.115   2.213 -0.4606 -0.8766  2.1341
  623MOL0     H82174   4.882   3.962   2.267 -0.2612  1.3913  0.6788
  623MOL0     H82175   4.706   4.033   2.027  0.1746 -0.6549 -0.3804
  623MOL0     H82176   4.657   3.946   2.176  0.9953 -3.3014  1.2907
  623MOL0     H82177   4.701   3.759   2.112 -1.0736  1.4660  0.8551
  623MOL0     H82178   4.851   3.800   2.017  0.5172  2.7742 -1.0811
  623MOL0     H82179   4.663   3.884   1.850 -1.5486  0.9610  1.7159
  623MOL0     H82180   4.705   3.713   1.855 -0.7758  0.6096 -0.4018
  623MOL0     H82181   4.483   3.832   2.037  0.3006  0.5100 -0.0083
  623MOL0     H82182   4.501   3.670   1.979  0.0835 -0.1073 -0.5043
  623MOL0     H82183   4.345   3.744   1.828  1.3853 -1.8078  1.6911
  623MOL0     H82184   4.486   3.789   1.739  0.2651  2.0196 -0.2555
  623MOL0     H82185   4.484   4.020   1.797 -1.0531 -0.1383 -3.6450
  623MOL0     H82186   4.332   3.985   1.730 -0.2882 -1.0822 -0.5869
  623MOL0     H82187   4.297   4.126   1.925  0.3592  0.0922 -1.0203
  623MOL0     H82188   4.407   4.034   2.024  1.4451  3.2264 -0.4592
  623MOL0     H82189   4.074   4.088   1.897  2.5427 -0.5026 -1.0439
  623MOL0     H82190   3.807   3.826   1.931  0.5398 -0.9928  1.5422
  623MOL0     H82191   3.818   4.010   1.946 -2.6935  2.1975  4.7964
  623MOL0     H82192   3.677   3.947   2.087 -0.2581  0.2636  1.1524
  623MOL0     H82193   3.827   4.003   2.178 -0.4715 -0.1990 -0.1071
  623MOL0     H82194   3.735   3.709   2.144 -0.9181  0.6013 -1.3219
  623MOL0     H82195   3.886   3.756   2.204  0.1410  1.2283 -1.7761
  623MOL0     H82196   3.812   3.850   2.403 -0.4664 -0.0495  1.4516
  623MOL0     H82197   3.690   3.723   2.387 -0.8894 -0.6527 -3.1088
  623MOL0     H82198   3.516   3.670   2.268 -1.4089 -1.7735 -0.9160
  623MOL0     H82199   3.281   3.654   2.175  0.4202 -0.3573  0.4212
  623MOL0     H82200   2.895   3.653   1.947 -0.4602  2.7455 -1.5254
  623MOL0     H82201   2.644   3.646   1.929 -0.2442  0.5483 -0.6825
  623MOL0     H82202   2.448   3.901   2.240 -1.4013 -0.0660  2.2517
  623MOL0     H82203   2.409   3.748   2.307  0.6590 -1.9662 -1.0456
  623MOL0     H82204   2.258   3.854   2.064 -3.2963  1.3512  0.0815
  623MOL0     H82205   2.215   3.881   2.239 -0.1756 -0.2949 -0.8393
  623MOL0     H82206   2.197   3.642   2.282 -4.7649 -1.8669  0.0470
  623MOL0     H82207   2.237   3.603   2.123 -0.9531  2.2193 -2.9449
  623MOL0     H82208   1.997   3.746   2.222 -0.7518 -0.3248  0.2369
  623MOL0     H82209   2.038   3.759   2.050  0.0205  2.8303  1.1819
  623MOL0     H82210   2.012   3.493   2.191  0.2555 -1.8390 -0.2320
  623MOL0     H82211   1.986   3.532   2.016 -0.2640  1.8434 -1.0062
  623MOL0     H82212   1.797   3.683   2.065 -0.8827 -0.4429 -0.8983
  623MOL0     H82213   1.784   3.641   2.231 -3.0433  1.5548 -1.5255
  623MOL0     H82214   1.747   3.463   1.979 -1.6326  0.5763 -1.0490
  623MOL0     H82215   1.778   3.385   2.147 -3.7608 -0.3197  3.0418
  623MOL0     H82216   1.598   3.465   2.260 -2.6857 -2.7727  0.7543
  623MOL0     H82217   1.529   3.397   2.123  0.6898 -0.9849  3.8242
  623MOL0     H82218   2.618   3.790   2.335 -0.3920 -0.7689 -0.6392
  623MOL0     H82219   2.865   3.797   2.347  1.4012  0.7946  0.3646
  623MOL0     H82220   3.233   4.080   2.226  0.4417 -0.0662 -2.0840
  623MOL0     H82221   3.470   4.097   2.276 -0.0093 -0.6056  2.9962
  623MOL0     H82222   5.054   4.072   2.343 -1.3877 -0.0402 -2.6790
  623MOL0     H82223   5.290   4.127   2.405 -1.4017  0.2503  0.3640
  623MOL0     H82224   5.724   4.364   2.021  2.1060  1.1084 -1.3195
  623MOL0     H82225   5.947   4.452   2.094  4.2079 -2.1472  0.7682
  623MOL0     H82226   6.159   4.253   2.438  1.0770 -0.3729  0.6730
  623MOL0     H82227   6.102   4.415   2.501  1.2662  1.7375 -0.4878
  623MOL0     H82228   6.334   4.358   2.331 -0.5993  0.5482 -1.0228
  623MOL0     H82229   6.296   4.528   2.395 -0.8086  0.4653  0.4568
  623MOL0     H82230   6.372   4.280   2.556 -0.1558 -1.1256 -1.5792
  623MOL0     H82231   6.325   4.434   2.627 -3.4253 -1.6286 -1.1840
  623MOL0     H82232   6.561   4.351   2.455  0.8987 -0.3327  1.2002
  623MOL0     H82233   6.533   4.522   2.461  2.5531 -0.5948 -1.1127
  623MOL0     H82234   6.744   4.415   2.821  1.1150 -2.9796 -1.6825
  623MOL0     H82235   5.946   4.224   2.436 -1.7015  1.1608  0.2920
  623MOL0     H82236   5.715   4.141   2.398  0.5276 -1.3967 -0.4844
  624MOL0     O82237   1.847   2.975  11.125 -0.1520 -0.1238 -0.2156
  624MOL0     C82238   1.924   2.946  11.032 -0.0771 -0.0890 -0.1949
  624MOL0     O82239   1.887   2.892  10.916  0.1272 -0.1433 -0.9248
  624MOL0     C82240   1.754   2.897  10.884 -0.9679 -0.2522 -0.9529
  624MOL0     C82241   1.697   3.015  10.825  0.5716 -0.2620 -0.3073
  624MOL0     C82242   1.554   3.024  10.803 -0.3989 -0.1749 -0.1148
  624MOL0     C82243   1.474   2.908  10.832  0.2368  0.1289  1.1637
  624MOL0     O82244   1.339   2.918  10.820 -1.0415 -0.3557 -0.3052
  624MOL0     C82245   1.284   3.032  10.750  0.2689  0.5486  0.3309
  624MOL0     C82246   1.136   3.001  10.733 -0.4828 -0.0021 -0.3271
  624MOL0     C82247   1.063   3.040  10.856 -0.7503  0.3204  0.2296
  624MOL0     C82248   0.916   3.038  10.834  0.9376 -0.6485  0.0571
  624MOL0     C82249   0.871   3.155  10.752  0.1550  0.0352  0.8196
  624MOL0     C82250   0.719   3.139  10.731 -0.3608  0.4429  0.0818
  624MOL0     C82251   0.697   3.037  10.612 -0.8551  0.1143  0.5336
  624MOL0     C82252   0.550   3.004  10.600 -0.3675  1.6556 -0.3643
  624MOL0     N82253   0.493   2.915  10.708  0.8692 -0.4736 -0.5185
  624MOL0     C82254   0.415   2.968  10.814  0.3623 -0.2573  0.6335
  624MOL0     C82255   0.370   2.856  10.881 -0.6272 -0.3280 -0.5082
  624MOL0     C82256   0.281   2.855  10.998 -0.2798  0.2274 -0.2778
  624MOL0     C82257   0.147   2.901  10.951  1.1475  0.6828 -0.1564
  624MOL0     C82258   0.093   2.988  11.063  0.0251  0.1780  0.3120
  624MOL0     C82259  -0.051   3.035  11.020  0.5784  0.2552 -0.3044
  624MOL0     O82260  -0.092   3.125  11.126 -0.1989  0.9557 -0.3738
  624MOL0     C82261  -0.222   3.160  11.133 -0.5940 -0.6334  0.7881
  624MOL0     C82262  -0.245   3.253  11.228 -0.1651  0.2379  0.6515
  624MOL0     C82263  -0.376   3.290  11.254 -0.5982  0.0461 -0.1692
  624MOL0     C82264  -0.484   3.243  11.179  0.2987 -0.8344 -0.0416
  624MOL0     C82265  -0.615   3.298  11.226  0.8368 -0.7542  0.3774
  624MOL0     O82266  -0.610   3.410  11.315  0.2365  0.4295  0.1739
  624MOL0     C82267  -0.727   3.426  11.393 -0.5357  0.5260  0.4740
  624MOL0     C82268  -0.777   3.556  11.413 -0.0869  0.4140 -0.0737
  624MOL0     C82269  -0.886   3.572  11.492  0.2540 -0.4996  0.8980
  624MOL0     C82270  -0.954   3.463  11.548  0.0650  0.2120 -0.2474
  624MOL0     O82271  -1.064   3.499  11.614 -0.6177 -0.7786 -0.0275
  624MOL0     C82272  -1.113   3.410  11.707  0.3573  0.1276 -0.2300
  624MOL0     C82273  -1.193   3.474  11.816 -0.5085  0.2112  0.6004
  624MOL0     C82274  -1.272   3.597  11.776  0.3521  0.4927 -0.3064
  624MOL0     C82275  -1.193   3.723  11.796 -0.7084 -0.4949  0.9493
  624MOL0     C82276  -1.270   3.844  11.744 -0.7431 -0.0969 -0.2075
  624MOL0     C82277  -1.328   3.840  11.597 -0.5227  0.1101 -0.1439
  624MOL0     C82278  -1.227   3.795  11.490  0.4276 -0.4215 -0.8949
  624MOL0     C82279  -1.256   3.866  11.365 -0.3339 -0.2128 -0.2384
  624MOL0    Cl82280  -1.141   3.841  11.232  0.0316 -0.4329  0.0319
  624MOL0     C82281  -0.904   3.335  11.526 -0.0430  0.0557 -1.0876
  624MOL0     C82282  -0.795   3.317  11.450 -0.6991  0.1747  0.8507
  624MOL0     O82283  -0.714   3.249  11.180  0.3289 -0.2939  0.1997
  624MOL0     C82284  -0.462   3.151  11.077  0.2289  0.3652  1.0387
  624MOL0     C82285  -0.325   3.119  11.049  0.0531 -0.2203  0.0533
  624MOL0     N82286   0.422   2.743  10.825 -0.2705  0.1783 -0.1034
  624MOL0     N82287   0.500   2.777  10.729  0.7407  0.8031 -0.4166
  624MOL0     C82288   1.532   2.805  10.897 -0.5347  0.5795  0.4463
  624MOL0     C82289   1.671   2.796  10.917 -0.0100  0.7562  0.3628
  624MOL0     C82290   2.067   2.963  11.063 -0.1403  0.1689 -0.2142
  624MOL0     C82291   2.124   2.976  11.191 -0.9842 -0.2548  0.2723
  624MOL0     C82292   2.264   3.001  11.209 -0.2741 -0.1209 -0.0750
  624MOL0     C82293   2.338   3.032  11.095 -0.9415  0.2762  0.8641
  624MOL0     O82294   2.474   3.081  11.113 -0.4169  0.0495 -0.3159
  624MOL0     C82295   2.569   3.070  11.003 -0.4846 -0.2609 -0.0249
  624MOL0     C82296   2.706   3.084  11.061 -0.2391 -0.9138 -0.4095
  624MOL0     C82297   2.736   2.971  11.157 -1.1435  0.1329 -0.1720
  624MOL0     C82298   2.887   2.977  11.184 -0.9833 -0.0536  0.0265
  624MOL0     C82299   2.917   2.888  11.296 -0.0416  0.0851  0.3179
  624MOL0     C82300   2.932   2.827  11.400  0.5822 -0.5294 -0.4395
  624MOL0     C82301   2.285   3.002  10.964  0.3502  0.1519 -0.2334
  624MOL0     C82302   2.151   2.971  10.951 -0.1601 -0.3184 -1.0344
  624MOL0     H82303   1.757   3.098  10.787 -0.8172 -0.1071 -2.3215
  624MOL0     H82304   1.513   3.112  10.755  1.2471  0.8743  0.2966
  624MOL0     H82305   1.334   3.044  10.653 -0.5880 -0.5315 -0.2807
  624MOL0     H82306   1.304   3.118  10.813  2.1019  0.2112  0.2748
  624MOL0     H82307   1.114   2.897  10.707 -0.1514  0.0144 -0.6866
  624MOL0     H82308   1.101   3.069  10.655  1.2698  1.0679 -0.2362
  624MOL0     H82309   1.098   3.139  10.890  1.4204 -0.5627  0.7446
  624MOL0     H82310   1.084   2.964  10.931  0.5996  0.4395 -0.0004
  624MOL0     H82311   0.887   2.949  10.778 -1.0850 -0.6264  1.0155
  624MOL0     H82312   0.858   3.044  10.926 -0.3768 -2.6389 -0.5877
  624MOL0     H82313   0.924   3.175  10.659 -2.1978  1.5550 -0.2806
  624MOL0     H82314   0.897   3.242  10.812 -0.3159  0.9437 -0.2662
  624MOL0     H82315   0.666   3.229  10.698 -1.4357 -0.3020 -0.3060
  624MOL0     H82316   0.674   3.096  10.822  2.3839 -2.2606  0.3027
  624MOL0     H82317   0.730   3.087  10.520 -1.2825 -2.2777 -1.0332
  624MOL0     H82318   0.744   2.939  10.626 -1.9822 -0.3273  1.4378
  624MOL0     H82319   0.540   2.959  10.500  1.4956  0.3825 -0.0228
  624MOL0     H82320   0.494   3.098  10.591 -0.3212  1.8387  1.0516
  624MOL0     H82321   0.377   3.067  10.833 -0.3240 -0.2601 -0.6478
  624MOL0     H82322   0.320   2.922  11.075  2.8493 -0.1269 -1.4312
  624MOL0     H82323   0.276   2.754  11.040 -0.6193  0.2409 -0.2794
  624MOL0     H82324   0.084   2.812  10.939  2.9643 -0.8672  1.1196
  624MOL0     H82325   0.160   2.959  10.860  3.0089  0.9664  0.2593
  624MOL0     H82326   0.085   2.929  11.154  1.8227  0.3328  0.6009
  624MOL0     H82327   0.145   3.083  11.080 -0.7909  1.1672 -2.2036
  624MOL0     H82328  -0.111   2.944  11.014  4.2677 -2.3388 -1.6785
  624MOL0     H82329  -0.051   3.088  10.925  2.4275  1.8173  0.5126
  624MOL0     H82330  -0.158   3.277  11.287  1.6015 -1.4351 -1.1212
  624MOL0     H82331  -0.382   3.361  11.336 -0.1460  3.0204 -2.5701
  624MOL0     H82332  -0.740   3.637  11.352  2.0167 -0.9876 -0.7855
  624MOL0     H82333  -0.931   3.671  11.498  2.2368  0.5818 -0.8201
  624MOL0     H82334  -1.031   3.352  11.750 -1.3763 -2.5313 -0.2882
  624MOL0     H82335  -1.180   3.340  11.657  0.8086  1.5067 -2.9676
  624MOL0     H82336  -1.124   3.509  11.894  2.2418 -1.7454 -0.7547
  624MOL0     H82337  -1.255   3.393  11.855  0.9582 -1.0859  0.3580
  624MOL0     H82338  -1.362   3.606  11.837  1.7664  3.3498  1.5540
  624MOL0     H82339  -1.298   3.587  11.670  1.3985 -0.3944 -0.4986
  624MOL0     H82340  -1.158   3.744  11.897 -0.6095 -1.6592  1.1702
  624MOL0     H82341  -1.107   3.716  11.728 -0.2616  1.4709  1.2520
  624MOL0     H82342  -1.203   3.929  11.754  2.5953 -2.2564 -2.2403
  624MOL0     H82343  -1.360   3.854  11.806  0.2352 -0.3731  1.3171
  624MOL0     H82344  -1.364   3.939  11.570 -2.0423 -0.3655  0.0268
  624MOL0     H82345  -1.415   3.775  11.595 -1.5749  1.4801 -0.0925
  624MOL0     H82346  -1.125   3.818  11.520 -0.3966 -0.5915  2.4142
  624MOL0     H82347  -1.223   3.686  11.485 -0.0012 -0.5699  1.0837
  624MOL0     H82348  -1.270   3.974  11.377  0.8479  0.3466 -3.1734
  624MOL0     H82349  -1.357   3.861  11.323  0.6850  0.2201 -2.9355
  624MOL0     H82350  -0.940   3.244  11.573  1.7023  0.7662  1.8940
  624MOL0     H82351  -0.755   3.219  11.426 -4.9870 -1.4760 -0.4213
  624MOL0     H82352  -0.550   3.102  11.036  0.5750 -2.1746  3.1010
  624MOL0     H82353  -0.303   3.046  10.971  1.4424  1.7056 -1.4551
  624MOL0     H82354   1.473   2.715  10.916  1.3640 -1.6286 -3.0836
  624MOL0     H82355   1.720   2.716  10.972 -0.7240 -0.3921 -0.6077
  624MOL0     H82356   2.067   2.965  11.282  1.0561  1.6258  1.8945
  624MOL0     H82357   2.311   3.001  11.307 -0.0366 -0.6144 -0.1837
  624MOL0     H82358   2.562   3.138  10.918  3.1555  0.7315  0.2896
  624MOL0     H82359   2.562   2.970  10.960 -1.3704  0.0415 -0.6042
  624MOL0     H82360   2.772   3.080  10.974 -2.0305 -1.7985 -1.7992
  624MOL0     H82361   2.696   3.179  11.114 -3.6636 -0.2668 -1.9574
  624MOL0     H82362   2.709   2.877  11.109 -1.4233  0.3598 -0.4610
  624MOL0     H82363   2.669   2.981  11.242 -0.3513 -0.7104  0.5812
  624MOL0     H82364   2.933   2.933  11.094  0.4540 -0.0172  0.7189
  624MOL0     H82365   2.931   3.075  11.202 -0.5774  0.1805 -1.9416
  624MOL0     H82366   2.946   2.777  11.494 -0.6909  2.0352  1.2210
  624MOL0     H82367   2.355   2.989  10.883  1.3521  4.1960 -0.2280
  624MOL0     H82368   2.122   2.939  10.851  3.3875 -2.2780 -1.5750
  625MOL0     O82369   9.522   6.399   8.948  0.5807 -0.8056  0.2783
  625MOL0     C82370   9.537   6.454   8.843 -0.1804 -0.0846 -0.2266
  625MOL0     O82371   9.459   6.547   8.793  0.1465  0.3692 -0.9942
  625MOL0     C82372   9.346   6.600   8.859 -0.1702  0.3929  0.3757
  625MOL0     C82373   9.282   6.694   8.789 -0.9258 -0.5929 -0.6834
  625MOL0     C82374   9.181   6.765   8.853 -1.0065 -0.0630  0.9054
  625MOL0     C82375   9.126   6.738   8.972  1.2205 -0.2013  0.9091
  625MOL0     O82376   9.024   6.822   9.014  0.3221 -1.1179  0.5950
  625MOL0     C82377   8.937   6.768   9.131 -0.3512 -0.1718  0.6619
  625MOL0     C82378   8.801   6.846   9.127  0.2813  0.2559  0.4729
  625MOL0     C82379   8.696   6.801   9.224  0.3002 -0.3195 -0.3951
  625MOL0     C82380   8.560   6.854   9.170 -0.3163  0.7601 -0.5765
  625MOL0     C82381   8.456   6.816   9.269  0.5489 -0.5932  0.2121
  625MOL0     C82382   8.311   6.848   9.217  0.2122 -0.4977 -0.4615
  625MOL0     C82383   8.219   6.863   9.336  0.5990 -0.7202  0.2151
  625MOL0     C82384   8.077   6.913   9.295 -0.3288  0.6599  1.1667
  625MOL0     N82385   8.015   6.942   9.419  0.0604 -0.7238 -1.4798
  625MOL0     C82386   8.015   7.071   9.495  0.1599  0.4018  0.3245
  625MOL0     C82387   7.923   7.052   9.591 -0.1385 -0.2910 -0.6377
  625MOL0     C82388   7.867   7.152   9.697  1.3188  0.3307 -0.1098
  625MOL0     C82389   7.727   7.208   9.655 -0.3719 -0.4137  0.3107
  625MOL0     C82390   7.729   7.324   9.563 -0.0776  1.1153 -0.9187
  625MOL0     C82391   7.598   7.365   9.525  0.5159 -0.8320 -0.0752
  625MOL0     O82392   7.544   7.281   9.421  0.3152 -0.2431  0.6650
  625MOL0     C82393   7.408   7.263   9.429  0.0132  0.6475 -0.6280
  625MOL0     C82394   7.312   7.369   9.401 -0.2335  1.1286 -0.7710
  625MOL0     C82395   7.179   7.353   9.414 -0.5465 -0.5919  0.1730
  625MOL0     C82396   7.122   7.226   9.445  0.4718  1.0138  0.6070
  625MOL0     C82397   6.980   7.205   9.467  1.1722  0.0190  0.0165
  625MOL0     O82398   6.891   7.310   9.469  0.8374 -0.4075  0.3987
  625MOL0     C82399   6.756   7.299   9.498  0.4374 -0.9503 -0.6644
  625MOL0     C82400   6.681   7.406   9.456 -0.0523 -0.0401 -0.2770
  625MOL0     C82401   6.541   7.402   9.476 -0.2992 -0.5709 -0.1253
  625MOL0     C82402   6.482   7.291   9.523  1.1862  0.1675  0.5511
  625MOL0     O82403   6.341   7.277   9.541  0.0371  0.5040  0.3283
  625MOL0     C82404   6.275   7.376   9.619  0.0139  0.7255  0.0888
  625MOL0     C82405   6.130   7.345   9.585  1.0084  0.0442  0.3655
  625MOL0     C82406   6.022   7.444   9.646 -0.0413 -0.2789  1.0893
  625MOL0     C82407   5.879   7.401   9.603  0.2818  0.2011  0.2688
  625MOL0     C82408   5.771   7.493   9.667  0.4266  1.0495 -0.0271
  625MOL0     C82409   5.802   7.512   9.814 -0.8108 -0.2199  0.4711
  625MOL0     C82410   5.679   7.564   9.888  0.1039 -0.5511 -0.2324
  625MOL0     C82411   5.709   7.580  10.041 -0.4205 -0.5621 -0.5210
  625MOL0    Cl82412   5.572   7.668  10.107  0.0929 -0.1870 -0.1539
  625MOL0     C82413   6.568   7.184   9.562  0.9651  1.4038 -0.1667
  625MOL0     C82414   6.700   7.189   9.568 -0.4770  0.1085 -0.3147
  625MOL0     O82415   6.944   7.087   9.499  0.5982  0.3531 -0.7021
  625MOL0     C82416   7.218   7.121   9.468  0.5677 -0.5931  0.3312
  625MOL0     C82417   7.357   7.130   9.455 -0.8794  0.0453  0.1612
  625MOL0     N82418   7.883   6.924   9.597  0.1680  0.5803 -0.1005
  625MOL0     N82419   7.933   6.862   9.491 -0.8913  0.2556  1.4178
  625MOL0     C82420   9.181   6.625   9.038  0.1922  0.1682  1.3868
  625MOL0     C82421   9.295   6.556   8.978 -0.5634  0.5608 -0.9057
  625MOL0     C82422   9.656   6.407   8.754  0.5931  0.2885  0.2397
  625MOL0     C82423   9.761   6.351   8.816 -0.1957  0.8659 -0.3560
  625MOL0     C82424   9.868   6.306   8.736 -0.4590 -0.1330 -0.2399
  625MOL0     C82425   9.866   6.319   8.597 -0.1671 -0.1173  1.1643
  625MOL0     O82426   9.964   6.281   8.507 -0.5442  0.2097  0.0973
  625MOL0     C82427  10.090   6.221   8.540  0.2320 -0.1056 -0.1054
  625MOL0     C82428  10.058   6.078   8.575 -0.2705  0.0199  0.6488
  625MOL0     C82429  10.180   6.004   8.629  0.4760  0.4626  0.1978
  625MOL0     C82430  10.230   6.063   8.763 -0.2430 -0.3230  0.7793
  625MOL0     C82431  10.256   5.956   8.867 -0.4220  0.7158  0.0428
  625MOL0     C82432  10.283   5.864   8.951  0.0918  0.1015 -0.2517
  625MOL0     C82433   9.750   6.373   8.537  0.0857  0.7739 -0.1544
  625MOL0     C82434   9.653   6.423   8.619  0.1463 -0.5968  0.1619
  625MOL0     H82435   9.329   6.711   8.693  2.2455 -4.0008  0.0420
  625MOL0     H82436   9.138   6.852   8.805 -1.9004 -1.0541 -0.1289
  625MOL0     H82437   8.991   6.769   9.226  1.5376 -2.8120 -0.2469
  625MOL0     H82438   8.911   6.663   9.113 -0.4092 -0.0103 -0.2524
  625MOL0     H82439   8.756   6.831   9.028  0.4580  0.3211  0.3836
  625MOL0     H82440   8.810   6.955   9.135 -2.3585  0.4986  1.0596
  625MOL0     H82441   8.707   6.837   9.327 -0.3876  1.8811 -1.0257
  625MOL0     H82442   8.705   6.693   9.233 -1.1671 -0.4694 -0.5066
  625MOL0     H82443   8.552   6.961   9.154 -3.4286  1.0785  2.1471
  625MOL0     H82444   8.537   6.803   9.076  1.7938 -2.5719  0.5212
  625MOL0     H82445   8.473   6.870   9.363  0.3014 -1.2003  0.6111
  625MOL0     H82446   8.471   6.710   9.292  2.9018 -0.1754  0.8947
  625MOL0     H82447   8.275   6.760   9.163  3.2424 -2.0293 -0.1792
  625MOL0     H82448   8.295   6.937   9.155 -4.1092 -0.0628  0.9247
  625MOL0     H82449   8.210   6.780   9.406 -1.5517 -0.4028  0.3767
  625MOL0     H82450   8.269   6.939   9.397 -0.9840 -0.8861  1.7852
  625MOL0     H82451   8.028   6.836   9.235  1.1029  0.0061  0.7973
  625MOL0     H82452   8.093   7.004   9.235  1.9593  1.0241  2.2011
  625MOL0     H82453   8.061   7.164   9.463 -1.7127  0.4515 -2.5896
  625MOL0     H82454   7.931   7.238   9.720 -1.2148  2.5599 -0.8606
  625MOL0     H82455   7.858   7.094   9.789  0.4139 -3.5920 -2.4370
  625MOL0     H82456   7.666   7.235   9.742 -0.5432  1.4953 -0.3548
  625MOL0     H82457   7.672   7.127   9.606  0.3868 -0.3602 -0.6506
  625MOL0     H82458   7.782   7.407   9.611  0.9559  0.1934 -0.4297
  625MOL0     H82459   7.783   7.292   9.473  0.6353 -0.3116 -0.0212
  625MOL0     H82460   7.604   7.465   9.480 -0.4479 -0.7401 -0.0162
  625MOL0     H82461   7.536   7.376   9.614  0.7443  0.5289 -0.0600
  625MOL0     H82462   7.360   7.466   9.396  0.6879  0.7651  0.5738
  625MOL0     H82463   7.121   7.443   9.396 -1.4098 -1.2500 -0.3860
  625MOL0     H82464   6.732   7.487   9.405  1.8775  0.4749  2.2855
  625MOL0     H82465   6.494   7.493   9.441  2.4889  0.5973 -1.1426
  625MOL0     H82466   6.294   7.478   9.584 -0.4270 -0.5638 -4.5899
  625MOL0     H82467   6.289   7.375   9.728 -5.3783 -0.6327  1.0463
  625MOL0     H82468   6.108   7.242   9.615 -1.4861  1.1603  2.7507
  625MOL0     H82469   6.126   7.357   9.476 -1.2064  0.4756  0.4523
  625MOL0     H82470   6.048   7.545   9.614  3.5969 -1.5068 -0.2146
  625MOL0     H82471   6.036   7.441   9.755 -0.5252  2.5196  1.2967
  625MOL0     H82472   5.875   7.404   9.494 -1.3125 -3.3864  0.0859
  625MOL0     H82473   5.860   7.304   9.650  0.6951 -0.0176 -0.0052
  625MOL0     H82474   5.666   7.463   9.671  0.1013  2.2574  3.2594
  625MOL0     H82475   5.773   7.584   9.606 -3.5469  0.6062 -1.1116
  625MOL0     H82476   5.893   7.570   9.829 -1.1283  0.3244  0.3104
  625MOL0     H82477   5.816   7.413   9.859 -3.2708 -0.2501  1.3251
  625MOL0     H82478   5.643   7.655   9.839 -1.0446 -0.5753  0.5479
  625MOL0     H82479   5.604   7.486   9.870  1.6041 -1.7192 -1.7693
  625MOL0     H82480   5.804   7.628  10.067 -2.3801  1.1694  4.5526
  625MOL0     H82481   5.710   7.486  10.097  0.5058  0.1167  0.6431
  625MOL0     H82482   6.533   7.084   9.583  1.5136  0.3716 -3.5434
  625MOL0     H82483   6.751   7.105   9.614 -2.3057 -1.0565 -0.3465
  625MOL0     H82484   7.184   7.020   9.490  0.4550 -0.4637  0.7563
  625MOL0     H82485   7.430   7.051   9.468 -2.0458 -0.7505  2.3385
  625MOL0     H82486   9.131   6.596   9.130  1.5259 -2.0734  1.4894
  625MOL0     H82487   9.330   6.469   9.031  1.7613  1.3918 -0.9519
  625MOL0     H82488   9.772   6.343   8.924  1.7286  0.3053 -0.5513
  625MOL0     H82489   9.954   6.261   8.787 -0.2737  1.6116  1.0674
  625MOL0     H82490  10.117   6.270   8.634  1.5340  1.4959 -1.2571
  625MOL0     H82491  10.169   6.235   8.465 -0.8622  0.1248 -1.2430
  625MOL0     H82492   9.978   6.084   8.649  0.6813  1.1171  1.6272
  625MOL0     H82493  10.030   6.031   8.480 -0.0288 -1.9444  1.5070
  625MOL0     H82494  10.272   6.004   8.570  0.7959 -1.3902  0.6226
  625MOL0     H82495  10.153   5.900   8.645 -2.1269  0.6108 -2.3686
  625MOL0     H82496  10.326   6.114   8.749  0.2741 -0.6963  2.6182
  625MOL0     H82497  10.158   6.132   8.807  0.3005  0.6511  0.1528
  625MOL0     H82498  10.289   5.781   9.018  0.6468  0.8193  0.6019
  625MOL0     H82499   9.761   6.380   8.429  1.9558 -1.4252 -0.1830
  625MOL0     H82500   9.569   6.469   8.567  1.7093 -1.9577 -3.9792
  626MOL0     O82501   3.782   3.866   0.606  0.7522 -0.3458  0.3091
  626MOL0     C82502   3.819   3.797   0.516 -0.5780 -0.1890  1.0892
  626MOL0     O82503   3.748   3.716   0.435 -0.2044  0.2830  0.3019
  626MOL0     C82504   3.610   3.729   0.416 -0.8545 -0.2576  1.1359
  626MOL0     C82505   3.545   3.622   0.345 -0.4011 -0.3424 -0.0636
  626MOL0     C82506   3.408   3.630   0.324  0.2469  0.2481 -0.7340
  626MOL0     C82507   3.323   3.735   0.366 -0.0036 -0.0175  0.2274
  626MOL0     O82508   3.190   3.722   0.335 -0.1947  0.4897 -0.1391
  626MOL0     C82509   3.081   3.765   0.429 -0.4950  0.4108 -0.0987
  626MOL0     C82510   2.952   3.733   0.357  0.0054 -0.3477 -0.7168
  626MOL0     C82511   2.837   3.759   0.451  0.7425 -0.2007  0.6929
  626MOL0     C82512   2.704   3.753   0.368 -0.3872  0.2216 -0.8937
  626MOL0     C82513   2.584   3.706   0.450  0.0401  0.7581  0.3405
  626MOL0     C82514   2.525   3.821   0.529 -0.4613  1.1061 -0.4571
  626MOL0     C82515   2.371   3.776   0.555 -0.0074 -0.7950 -0.2833
  626MOL0     C82516   2.347   3.701   0.685 -0.5017  0.3707  0.0759
  626MOL0     N82517   2.237   3.612   0.656 -0.0963 -0.2425 -0.1406
  626MOL0     C82518   2.103   3.647   0.663  0.2591 -0.0516  0.1154
  626MOL0     C82519   2.037   3.530   0.648 -0.9900 -0.5448  0.3039
  626MOL0     C82520   1.883   3.512   0.642  0.1441  0.5121 -0.0275
  626MOL0     C82521   1.837   3.389   0.718 -0.8277  1.0384 -0.6630
  626MOL0     C82522   1.682   3.372   0.704  0.4102 -0.1429 -0.8858
  626MOL0     C82523   1.604   3.473   0.789 -0.2204 -0.6625  0.3753
  626MOL0     O82524   1.463   3.440   0.793  0.1629  0.1670 -0.0391
  626MOL0     C82525   1.389   3.509   0.897 -0.5468  0.1264 -0.1435
  626MOL0     C82526   1.437   3.607   0.990 -0.3678 -1.1786 -0.4378
  626MOL0     C82527   1.363   3.669   1.087  0.6549  0.3940 -1.2692
  626MOL0     C82528   1.236   3.608   1.114 -0.3607  0.0815 -0.0866
  626MOL0     C82529   1.158   3.655   1.233  0.2003  0.1023 -0.5885
  626MOL0     O82530   1.192   3.772   1.298  0.7120  0.3140  0.0094
  626MOL0     C82531   1.120   3.805   1.409  0.5605 -0.2593  0.8945
  626MOL0     C82532   1.135   3.751   1.530 -0.6094  0.4822 -0.2107
  626MOL0     C82533   1.044   3.774   1.636 -0.5415 -0.2845  0.0502
  626MOL0     C82534   0.933   3.858   1.618  0.6725 -1.4248  0.7161
  626MOL0     O82535   0.838   3.886   1.715  0.4315 -0.3218  0.3426
  626MOL0     C82536   0.820   3.798   1.819 -0.3880  0.3507 -0.1212
  626MOL0     C82537   0.679   3.816   1.877 -0.1324 -0.0438  0.6441
  626MOL0     C82538   0.678   3.948   1.956 -0.5003  0.8286 -0.7835
  626MOL0     C82539   0.544   3.963   2.038 -0.8310  0.2853  0.9202
  626MOL0     C82540   0.546   3.868   2.157  0.1272  0.2701 -0.3992
  626MOL0     C82541   0.430   3.910   2.243 -0.4308  0.1852 -0.1709
  626MOL0     C82542   0.403   3.810   2.357 -0.3231  0.4486  0.3748
  626MOL0     C82543   0.262   3.741   2.344 -0.4262 -0.4358  0.7640
  626MOL0    Cl82544   0.134   3.853   2.373  0.5832  0.2690 -0.4915
  626MOL0     C82545   0.931   3.928   1.498 -0.6107 -0.6234  0.7234
  626MOL0     C82546   1.015   3.902   1.395 -0.5992  0.3375  0.1460
  626MOL0     O82547   1.057   3.584   1.257 -1.0838 -0.4748  0.0656
  626MOL0     C82548   1.184   3.509   1.029  0.4314 -0.0652  0.9859
  626MOL0     C82549   1.264   3.468   0.918  0.4400 -1.1012 -0.2301
  626MOL0     N82550   2.126   3.429   0.640  0.1706 -0.2845 -0.6061
  626MOL0     N82551   2.246   3.481   0.633  0.0972 -0.0296  0.4656
  626MOL0     C82552   3.389   3.840   0.432  0.1564 -0.1311  0.1512
  626MOL0     C82553   3.526   3.841   0.450 -0.6628 -0.3593 -0.4259
  626MOL0     C82554   3.960   3.800   0.480 -0.2754  0.3016  0.4994
  626MOL0     C82555   4.050   3.882   0.560  0.5191 -0.1818 -0.3842
  626MOL0     C82556   4.187   3.885   0.526  0.8459 -0.0542 -0.3994
  626MOL0     C82557   4.236   3.811   0.427 -0.0318 -0.3455 -0.1772
  626MOL0     O82558   4.372   3.830   0.408 -0.2900 -0.4837 -0.9731
  626MOL0     C82559   4.439   3.771   0.299  0.5311  0.2739 -0.8858
  626MOL0     C82560   4.579   3.820   0.294 -0.1128 -0.1837  0.6065
  626MOL0     C82561   4.587   3.973   0.243  0.5070  0.3426  0.4363
  626MOL0     C82562   4.605   4.078   0.351  0.9980 -0.0045 -0.0215
  626MOL0     C82563   4.711   4.024   0.440 -0.4234 -1.7378  0.0833
  626MOL0     C82564   4.791   3.982   0.523  0.0036  0.1080  0.1806
  626MOL0     C82565   4.151   3.721   0.354 -1.0608 -0.1499  0.1443
  626MOL0     C82566   4.018   3.723   0.382  0.0588  1.4624  0.1950
  626MOL0     H82567   3.590   3.536   0.297  0.4597  0.1737 -0.1924
  626MOL0     H82568   3.359   3.545   0.277  1.9450  0.6631 -3.4903
  626MOL0     H82569   3.095   3.867   0.465 -2.2212 -0.5062  3.7132
  626MOL0     H82570   3.102   3.710   0.521  1.3996 -0.6038 -1.0806
  626MOL0     H82571   2.940   3.629   0.326 -0.9475 -0.5573  0.2890
  626MOL0     H82572   2.943   3.801   0.272  0.8170 -0.6102 -1.0226
  626MOL0     H82573   2.842   3.856   0.502 -1.3654  0.5669 -0.4027
  626MOL0     H82574   2.829   3.680   0.526  2.2206 -0.4136  0.6565
  626MOL0     H82575   2.688   3.853   0.325  0.3425  1.7995  2.1571
  626MOL0     H82576   2.716   3.684   0.285 -0.3669 -0.6413 -0.1893
  626MOL0     H82577   2.603   3.616   0.509 -2.3065  0.4964  0.7918
  626MOL0     H82578   2.514   3.677   0.371  2.0316  0.3904 -1.3719
  626MOL0     H82579   2.531   3.912   0.469 -0.3367  0.9815 -0.6344
  626MOL0     H82580   2.581   3.840   0.621  0.8431  0.0784 -1.0001
  626MOL0     H82581   2.312   3.866   0.574  1.1533 -0.5393  2.5378
  626MOL0     H82582   2.322   3.733   0.467  0.6019  1.3561 -1.7372
  626MOL0     H82583   2.321   3.770   0.766  0.7966  0.5533  0.3513
  626MOL0     H82584   2.439   3.658   0.724 -1.8876 -0.4708  2.6401
  626MOL0     H82585   2.071   3.748   0.688  2.0149  0.6322 -0.2102
  626MOL0     H82586   1.830   3.514   0.546 -0.1642 -0.5221  0.1084
  626MOL0     H82587   1.845   3.603   0.690 -0.0457  0.9335 -0.9547
  626MOL0     H82588   1.851   3.401   0.826  1.4405 -0.8294 -0.6705
  626MOL0     H82589   1.891   3.300   0.685 -1.6943  0.0805  0.3926
  626MOL0     H82590   1.647   3.386   0.601 -4.6982 -2.5602  0.2163
  626MOL0     H82591   1.645   3.273   0.730 -1.0938  1.1752  2.6072
  626MOL0     H82592   1.602   3.573   0.747 -3.4910 -0.3412  1.0061
  626MOL0     H82593   1.642   3.461   0.891 -2.6088  1.0683  1.5728
  626MOL0     H82594   1.527   3.665   0.972 -2.2055  2.3246  0.5437
  626MOL0     H82595   1.407   3.748   1.147 -0.5926 -0.5567  1.0392
  626MOL0     H82596   1.207   3.674   1.554 -3.0356 -1.2113  2.2154
  626MOL0     H82597   1.067   3.743   1.737 -1.4520  1.4609  0.8289
  626MOL0     H82598   0.897   3.799   1.896 -0.3620 -1.2819 -0.0848
  626MOL0     H82599   0.820   3.694   1.785 -2.2199 -0.6138  2.4960
  626MOL0     H82600   0.658   3.726   1.935 -0.2816 -0.5400 -0.1614
  626MOL0     H82601   0.610   3.821   1.792  0.6933  1.2783  0.0142
  626MOL0     H82602   0.680   4.029   1.882  0.9992  0.3041 -1.3585
  626MOL0     H82603   0.768   3.962   2.017 -0.6198  1.0367 -0.6522
  626MOL0     H82604   0.554   4.062   2.083  0.8818  0.6974 -0.2589
  626MOL0     H82605   0.455   3.957   1.975 -1.1007  0.6258  1.2714
  626MOL0     H82606   0.645   3.871   2.205 -0.5637  0.7296  1.0508
  626MOL0     H82607   0.524   3.768   2.119 -0.4697  1.4226 -3.3244
  626MOL0     H82608   0.336   3.928   2.191  0.7249  1.8198 -1.8439
  626MOL0     H82609   0.461   4.003   2.293  1.8628 -1.3659  1.4911
  626MOL0     H82610   0.480   3.733   2.345 -1.2045 -0.1841 -1.5510
  626MOL0     H82611   0.418   3.858   2.454 -1.3292  0.5167  0.5093
  626MOL0     H82612   0.257   3.660   2.418 -2.0517 -0.9417  0.1549
  626MOL0     H82613   0.256   3.696   2.244  2.6002  1.0331 -0.1879
  626MOL0     H82614   0.869   4.017   1.488 -0.4558 -0.3524  1.9671
  626MOL0     H82615   1.012   3.966   1.308 -3.7717  0.6365  0.3530
  626MOL0     H82616   1.086   3.464   1.041 -1.1542  2.7473 -0.1499
  626MOL0     H82617   1.217   3.391   0.856  1.8293 -1.3815 -0.9686
  626MOL0     H82618   3.324   3.922   0.461 -0.3821 -0.5663  0.1900
  626MOL0     H82619   3.566   3.924   0.506 -4.9891  1.3641  0.4647
  626MOL0     H82620   4.010   3.952   0.631 -1.9408 -0.9215 -0.9458
  626MOL0     H82621   4.251   3.951   0.583 -0.2513  3.2693 -2.7067
  626MOL0     H82622   4.387   3.790   0.205  0.4049  1.1047 -0.6659
  626MOL0     H82623   4.449   3.664   0.316  1.3532  0.3709 -0.7053
  626MOL0     H82624   4.622   3.805   0.394  2.2127  0.2112 -0.2710
  626MOL0     H82625   4.638   3.763   0.222 -0.3731 -0.3424  0.5144
  626MOL0     H82626   4.501   4.001   0.183  3.2150  4.1815 -2.1390
  626MOL0     H82627   4.672   3.961   0.174  0.9877 -1.5765  1.3064
  626MOL0     H82628   4.629   4.173   0.303  0.6567  0.0633 -0.0597
  626MOL0     H82629   4.512   4.075   0.409  2.7135 -0.8327  2.9074
  626MOL0     H82630   4.853   3.947   0.603  2.1950  3.5496  0.1608
  626MOL0     H82631   4.191   3.660   0.273 -2.5703  1.2301 -1.7691
  626MOL0     H82632   3.946   3.670   0.319  1.9075 -0.3499 -0.4911
  627MOL0     O82633   8.579   7.749   6.531  1.0412 -0.4600  0.2872
  627MOL0     C82634   8.574   7.628   6.544 -1.4198  0.1492  0.2297
  627MOL0     O82635   8.466   7.553   6.550 -0.0603  0.1872  0.5302
  627MOL0     C82636   8.340   7.604   6.538 -0.0044  1.0491  0.5208
  627MOL0     C82637   8.301   7.718   6.611  0.1034 -0.1113 -0.7648
  627MOL0     C82638   8.169   7.760   6.600  0.2079  0.5841 -0.4456
  627MOL0     C82639   8.076   7.681   6.522  0.4344  0.3507 -0.5615
  627MOL0     O82640   7.941   7.720   6.498 -0.6687  0.2127 -0.8399
  627MOL0     C82641   7.886   7.829   6.573  0.6631 -0.7586  0.1812
  627MOL0     C82642   7.775   7.913   6.497 -0.6864 -0.4799  0.2654
  627MOL0     C82643   7.644   7.831   6.511 -0.6782 -0.1248  0.9082
  627MOL0     C82644   7.528   7.922   6.472 -0.7680  1.0690 -0.7192
  627MOL0     C82645   7.397   7.845   6.468 -0.1719  0.5084 -0.3565
  627MOL0     C82646   7.276   7.899   6.390 -0.2549  0.4693 -0.0419
  627MOL0     C82647   7.149   7.847   6.447 -0.1539 -0.1669  0.3887
  627MOL0     C82648   7.037   7.855   6.344  1.0421 -0.1311  0.1277
  627MOL0     N82649   6.917   7.776   6.396 -0.6312 -0.3128 -0.4861
  627MOL0     C82650   6.801   7.827   6.439 -0.7842 -0.4531 -0.5158
  627MOL0     C82651   6.734   7.716   6.491 -1.0379  0.1253  0.6548
  627MOL0     C82652   6.597   7.713   6.546  1.0286  0.5975  0.9487
  627MOL0     C82653   6.588   7.688   6.696  0.2863 -1.0622  1.1270
  627MOL0     C82654   6.662   7.799   6.771  0.3768 -0.8585  0.9578
  627MOL0     C82655   6.643   7.796   6.924  0.8342 -0.2742  0.2007
  627MOL0     O82656   6.645   7.927   6.983 -0.0219  0.2893 -0.0621
  627MOL0     C82657   6.766   8.003   6.987 -0.9376  0.6869  0.1978
  627MOL0     C82658   6.889   7.939   6.966 -0.4248  1.0391  0.9090
  627MOL0     C82659   7.001   8.016   6.952  0.4251 -0.0386  0.1774
  627MOL0     C82660   6.998   8.156   6.964  0.0765  0.3981  0.9498
  627MOL0     C82661   7.122   8.230   6.940 -0.1244  0.5259  0.1317
  627MOL0     O82662   7.237   8.169   6.890  0.1320 -0.1941  0.4580
  627MOL0     C82663   7.351   8.239   6.870 -0.1022  0.0567 -0.7709
  627MOL0     C82664   7.444   8.150   6.817 -0.4889 -0.3702  0.8286
  627MOL0     C82665   7.574   8.196   6.786  0.7104  0.7613 -0.8413
  627MOL0     C82666   7.619   8.326   6.828  0.1175  0.6819  0.0743
  627MOL0     O82667   7.748   8.366   6.818 -0.0843  0.0544  0.1894
  627MOL0     C82668   7.787   8.404   6.682  0.2726 -0.8152 -0.1581
  627MOL0     C82669   7.908   8.497   6.685  0.5858 -0.4794 -0.3282
  627MOL0     C82670   8.042   8.420   6.712  0.1570  1.0142  0.2028
  627MOL0     C82671   8.157   8.513   6.774  0.3610 -0.8495  0.1890
  627MOL0     C82672   8.290   8.447   6.776 -0.1556  0.6183 -0.0017
  627MOL0     C82673   8.373   8.462   6.646  0.1427  0.3071  0.0665
  627MOL0     C82674   8.485   8.357   6.657 -0.2449 -0.3810  0.0459
  627MOL0     C82675   8.594   8.396   6.765  0.8884  0.1364  0.6273
  627MOL0    Cl82676   8.709   8.498   6.697  0.0972  0.2846 -0.3015
  627MOL0     C82677   7.516   8.409   6.871 -0.2975  0.3827 -0.4359
  627MOL0     C82678   7.389   8.366   6.910  0.1008 -0.1754  0.3472
  627MOL0     O82679   7.117   8.345   6.984  0.3370 -0.1059 -0.3920
  627MOL0     C82680   6.874   8.223   7.004 -1.0258  0.1085 -0.4411
  627MOL0     C82681   6.760   8.147   7.009 -0.8808 -0.7374  0.2335
  627MOL0     N82682   6.814   7.603   6.469 -0.1736  0.1838 -0.6234
  627MOL0     N82683   6.919   7.642   6.407 -0.0102  0.0604 -0.7310
  627MOL0     C82684   8.120   7.564   6.455  0.0412 -0.2384  0.5511
  627MOL0     C82685   8.250   7.523   6.467 -0.1979 -0.8363  0.3492
  627MOL0     C82686   8.707   7.560   6.573 -0.6065 -0.6602  0.0932
  627MOL0     C82687   8.819   7.633   6.605 -0.0466  0.3409 -0.1492
  627MOL0     C82688   8.945   7.568   6.629  0.0800  0.0381  0.5641
  627MOL0     C82689   8.956   7.430   6.603  0.7694  0.2421  0.5939
  627MOL0     O82690   9.075   7.371   6.629 -0.4284 -0.2383  0.0842
  627MOL0     C82691   9.059   7.264   6.713 -0.2522  0.0499  0.5209
  627MOL0     C82692   9.178   7.203   6.769 -0.1949 -0.1312 -0.0029
  627MOL0     C82693   9.159   7.167   6.921  0.1559 -0.0651 -0.6950
  627MOL0     C82694   9.286   7.098   6.976 -0.1577 -0.0272 -0.4528
  627MOL0     C82695   9.379   7.211   7.003 -0.2339 -0.7454  0.9629
  627MOL0     C82696   9.464   7.299   7.022 -0.2807 -0.4653 -0.6217
  627MOL0     C82697   8.843   7.361   6.551  0.3002 -0.0171 -0.9796
  627MOL0     C82698   8.721   7.419   6.548 -0.1851 -0.3992  0.7063
  627MOL0     H82699   8.375   7.766   6.674 -0.0365  1.0841 -1.4841
  627MOL0     H82700   8.153   7.859   6.642 -1.8129  0.9074 -1.8208
  627MOL0     H82701   7.956   7.911   6.595 -0.5743  0.6508 -0.9671
  627MOL0     H82702   7.854   7.800   6.674  0.2003 -3.0033 -0.5702
  627MOL0     H82703   7.795   7.930   6.391 -1.9398 -1.8806 -0.2287
  627MOL0     H82704   7.760   8.012   6.542  0.0372 -1.3115  2.4837
  627MOL0     H82705   7.626   7.791   6.611  2.0673 -1.1051  1.0936
  627MOL0     H82706   7.655   7.741   6.448  2.0829 -1.0950  2.6141
  627MOL0     H82707   7.511   7.986   6.560 -2.9615 -0.6023  0.1798
  627MOL0     H82708   7.556   7.984   6.387  0.0252  1.4529 -0.1960
  627MOL0     H82709   7.353   7.831   6.567 -0.8510  0.7191 -0.6192
  627MOL0     H82710   7.416   7.747   6.423  0.4205  1.1738 -1.6114
  627MOL0     H82711   7.284   7.865   6.286 -1.5653 -0.4416  0.1337
  627MOL0     H82712   7.275   8.008   6.396 -3.4085  0.5721 -0.6297
  627MOL0     H82713   7.162   7.742   6.473 -2.7896  0.1058  3.5651
  627MOL0     H82714   7.115   7.893   6.541 -0.0555  1.7325 -0.4476
  627MOL0     H82715   7.065   7.806   6.250  1.2832 -0.3682  0.3207
  627MOL0     H82716   7.014   7.958   6.315 -1.2324 -1.5018 -3.7735
  627MOL0     H82717   6.757   7.925   6.422 -0.5740 -0.2163  0.2735
  627MOL0     H82718   6.541   7.635   6.494  0.0873  3.1165 -2.1166
  627MOL0     H82719   6.559   7.813   6.524 -0.3053 -0.5328 -2.6217
  627MOL0     H82720   6.632   7.591   6.721  2.2642 -0.0040  1.9746
  627MOL0     H82721   6.483   7.676   6.726 -0.4482  2.7444  0.5842
  627MOL0     H82722   6.770   7.790   6.751  0.5874  1.1053  0.9400
  627MOL0     H82723   6.634   7.901   6.743 -3.4073 -2.1596 -0.6651
  627MOL0     H82724   6.709   7.719   6.967 -0.4966 -2.7790 -1.9256
  627MOL0     H82725   6.538   7.776   6.947  0.3864  0.8798 -0.7434
  627MOL0     H82726   6.903   7.833   6.951 -1.0342  1.2817 -2.0141
  627MOL0     H82727   7.092   7.961   6.931  0.6214  1.2479 -2.8479
  627MOL0     H82728   7.416   8.046   6.809  0.7756 -0.8094  1.7305
  627MOL0     H82729   7.650   8.126   6.755  1.5245  0.9856  0.5767
  627MOL0     H82730   7.697   8.461   6.657  0.3747 -0.3116  0.5744
  627MOL0     H82731   7.806   8.319   6.616 -0.1851 -0.2876 -0.9873
  627MOL0     H82732   7.886   8.574   6.760  0.4152  0.4392 -1.2987
  627MOL0     H82733   7.898   8.550   6.590  2.1651  1.3818  0.4617
  627MOL0     H82734   8.085   8.364   6.628 -0.6040 -1.8753  1.6026
  627MOL0     H82735   8.030   8.336   6.782  3.2128  0.6334  0.4187
  627MOL0     H82736   8.160   8.604   6.713  1.8241 -0.8244  0.2573
  627MOL0     H82737   8.121   8.547   6.871 -2.8991  3.1302 -2.0929
  627MOL0     H82738   8.282   8.341   6.799  2.0317  0.1090 -1.2860
  627MOL0     H82739   8.354   8.488   6.855 -0.3299 -1.5028  1.3088
  627MOL0     H82740   8.414   8.562   6.633  0.0920  0.3223  0.0186
  627MOL0     H82741   8.315   8.446   6.554  1.3126  1.2537 -0.8589
  627MOL0     H82742   8.444   8.259   6.682 -0.5472 -0.3766 -0.4255
  627MOL0     H82743   8.530   8.349   6.558 -0.7888  2.3212 -0.4876
  627MOL0     H82744   8.630   8.297   6.795 -5.3474 -1.6546  3.8526
  627MOL0     H82745   8.548   8.444   6.851 -0.8532  2.8199 -1.6418
  627MOL0     H82746   7.546   8.513   6.879 -0.8217  0.4574  0.7757
  627MOL0     H82747   7.326   8.438   6.961 -0.5729 -0.2262 -0.4027
  627MOL0     H82748   6.877   8.327   7.037  0.1611 -0.3199  0.9135
  627MOL0     H82749   6.664   8.195   7.030 -0.0207  1.6359 -0.8643
  627MOL0     H82750   8.059   7.502   6.391  2.5163 -0.5359 -1.7053
  627MOL0     H82751   8.282   7.429   6.423 -0.2312 -1.0702  0.8257
  627MOL0     H82752   8.803   7.738   6.622  0.4620 -0.0923  3.8438
  627MOL0     H82753   9.038   7.618   6.654 -0.6149  1.1747  0.9463
  627MOL0     H82754   9.010   7.187   6.653 -0.8987 -0.4473  1.6565
  627MOL0     H82755   8.981   7.282   6.788 -0.7348 -0.4669  0.1566
  627MOL0     H82756   9.186   7.105   6.722 -0.8209 -0.4562  0.5692
  627MOL0     H82757   9.261   7.270   6.741  0.9471 -1.2161  0.7010
  627MOL0     H82758   9.079   7.092   6.931  2.1340 -2.4510 -1.7156
  627MOL0     H82759   9.117   7.253   6.974 -1.7222 -0.9059 -0.7289
  627MOL0     H82760   9.273   7.040   7.068  2.0039 -1.2878 -0.8680
  627MOL0     H82761   9.318   7.032   6.895 -0.6972 -0.2800 -0.4651
  627MOL0     H82762   9.530   7.381   7.042 -0.0592 -0.8343  0.2099
  627MOL0     H82763   8.847   7.263   6.504 -0.4829 -0.3227 -0.4326
  627MOL0     H82764   8.633   7.372   6.506  0.5809 -0.0790 -1.4376
  628MOL0     O82765   7.644   8.786   4.333  0.3937 -0.5011 -0.2273
  628MOL0     C82766   7.577   8.891   4.320 -0.4150  0.3452  0.3910
  628MOL0     O82767   7.622   9.005   4.259 -0.8344  0.5549  0.3409
  628MOL0     C82768   7.755   9.020   4.215  0.1325  0.7709  0.3109
  628MOL0     C82769   7.794   8.988   4.082 -0.1423  0.3377  0.6691
  628MOL0     C82770   7.923   9.018   4.024  1.3552  0.7427 -0.4540
  628MOL0     C82771   8.016   9.087   4.107 -1.0066 -0.4534  0.6001
  628MOL0     O82772   8.143   9.123   4.075 -0.3037 -0.5816  0.0365
  628MOL0     C82773   8.220   9.077   3.965  0.4676  0.3491 -0.4766
  628MOL0     C82774   8.359   9.132   3.992  0.4045  0.1536 -0.3445
  628MOL0     C82775   8.467   9.080   3.902 -0.3605  0.3449  0.7959
  628MOL0     C82776   8.607   9.134   3.931  0.7902 -0.0276  0.4849
  628MOL0     C82777   8.706   9.069   3.835 -0.1782 -0.0357  0.1736
  628MOL0     C82778   8.813   9.177   3.803 -0.5020  0.0797  0.1985
  628MOL0     C82779   8.895   9.208   3.935 -0.2019 -0.3026 -0.2397
  628MOL0     C82780   9.005   9.307   3.893  0.7291  0.8091 -0.4926
  628MOL0     N82781   8.943   9.435   3.861 -0.1604 -0.5326  0.3020
  628MOL0     C82782   8.998   9.533   3.778  0.2670 -0.1391  0.5490
  628MOL0     C82783   8.927   9.647   3.798 -0.4392  0.4290 -0.4231
  628MOL0     C82784   8.939   9.771   3.714 -0.8183  0.7864 -0.5496
  628MOL0     C82785   8.951   9.753   3.561  0.5473  0.3105  0.2533
  628MOL0     C82786   8.832   9.669   3.501 -0.0287  0.9667 -0.3485
  628MOL0     C82787   8.694   9.684   3.565  0.3057 -0.1689 -0.8123
  628MOL0     O82788   8.591   9.616   3.493  0.1627 -0.0604 -1.0360
  628MOL0     C82789   8.470   9.580   3.558 -0.9657 -0.4472  0.3794
  628MOL0     C82790   8.461   9.466   3.633 -0.0380  0.2423  0.6695
  628MOL0     C82791   8.347   9.418   3.689 -0.1786  0.2541 -0.5706
  628MOL0     C82792   8.235   9.502   3.683 -0.5487 -0.0745  0.0514
  628MOL0     C82793   8.115   9.458   3.747  0.3651 -0.4003  0.4941
  628MOL0     O82794   8.020   9.544   3.773  0.0773 -0.2574 -0.2316
  628MOL0     C82795   7.923   9.513   3.873 -0.4608  0.0180  0.1813
  628MOL0     C82796   7.862   9.388   3.908  0.0895 -0.6912  0.1276
  628MOL0     C82797   7.774   9.383   4.018 -0.2447 -0.1059  0.4777
  628MOL0     C82798   7.756   9.506   4.084 -0.0402  0.9914 -0.5043
  628MOL0     O82799   7.672   9.508   4.194  0.5099  0.2949  0.1063
  628MOL0     C82800   7.692   9.393   4.287  0.4439 -0.9249 -0.2981
  628MOL0     C82801   7.602   9.424   4.408 -0.3889 -0.4945  0.3994
  628MOL0     C82802   7.583   9.306   4.501  0.0576 -0.4434 -0.6238
  628MOL0     C82803   7.491   9.352   4.612 -0.5619 -1.1233  0.1084
  628MOL0     C82804   7.421   9.226   4.672 -0.6218 -0.2267  0.3430
  628MOL0     C82805   7.327   9.265   4.787 -0.1733 -0.4113 -0.1031
  628MOL0     C82806   7.239   9.158   4.850 -0.2190  0.5103  0.2632
  628MOL0     C82807   7.116   9.118   4.759  0.3819 -0.2012  0.6746
  628MOL0    Cl82808   6.988   9.247   4.759 -0.1579  0.2641  0.0429
  628MOL0     C82809   7.813   9.625   4.054 -0.1443 -0.5046 -0.4119
  628MOL0     C82810   7.893   9.632   3.946  0.2714 -0.2714  0.7156
  628MOL0     O82811   8.105   9.342   3.776 -0.4054  0.9162  0.5343
  628MOL0     C82812   8.247   9.618   3.608 -0.7610  0.4306 -0.2306
  628MOL0     C82813   8.357   9.656   3.536 -0.9309  0.3784 -0.7861
  628MOL0     N82814   8.837   9.636   3.907  0.4185 -0.6407  0.2985
  628MOL0     N82815   8.862   9.511   3.947 -0.6489 -0.0020 -0.2805
  628MOL0     C82816   7.982   9.111   4.247 -0.3245 -0.2662  0.8434
  628MOL0     C82817   7.854   9.087   4.292 -0.3045 -0.0926 -0.2912
  628MOL0     C82818   7.433   8.890   4.357 -0.1169 -0.7910  0.0137
  628MOL0     C82819   7.374   8.798   4.446 -0.9834 -0.2635 -0.3178
  628MOL0     C82820   7.237   8.803   4.474  0.5943 -0.0664  0.3137
  628MOL0     C82821   7.149   8.897   4.409 -1.0489 -0.0642  0.2270
  628MOL0     O82822   7.014   8.891   4.434 -0.4887  0.0145 -0.1843
  628MOL0     C82823   6.916   8.970   4.362 -0.9770 -0.0525  0.9866
  628MOL0     C82824   6.798   8.982   4.452 -0.5105  0.8265  0.3000
  628MOL0     C82825   6.696   9.067   4.376 -0.7161  1.1525  0.1553
  628MOL0     C82826   6.570   9.119   4.458 -0.5716  1.0454  0.1268
  628MOL0     C82827   6.489   9.016   4.519 -0.1462 -0.2841 -0.5885
  628MOL0     C82828   6.431   8.920   4.575  0.1188 -0.6748  0.0964
  628MOL0     C82829   7.209   8.997   4.332  0.3142 -0.2317 -0.3718
  628MOL0     C82830   7.346   8.988   4.305  0.0503  0.6369  0.1639
  628MOL0     H82831   7.715   8.939   4.025 -0.5757 -1.6699  2.8530
  628MOL0     H82832   7.945   8.987   3.923  2.2205 -0.3021  0.0375
  628MOL0     H82833   8.193   9.119   3.868  1.5542  1.4547 -0.3376
  628MOL0     H82834   8.224   8.968   3.957  0.5956  0.3414 -0.3246
  628MOL0     H82835   8.385   9.097   4.092  1.0221 -1.3741 -1.0002
  628MOL0     H82836   8.352   9.241   3.985  1.4447  0.1627 -1.6912
  628MOL0     H82837   8.447   9.117   3.801  0.2632  2.0640  1.2614
  628MOL0     H82838   8.462   8.971   3.893 -1.6966  0.5382 -1.8758
  628MOL0     H82839   8.606   9.243   3.929  0.7289  0.0133  1.9171
  628MOL0     H82840   8.639   9.084   4.022 -1.9192 -2.5073  0.2431
  628MOL0     H82841   8.663   9.041   3.738  0.0504  2.5781 -0.7611
  628MOL0     H82842   8.751   8.985   3.888 -1.5895 -0.2895  0.9864
  628MOL0     H82843   8.757   9.260   3.759  0.2880  0.8473  0.6086
  628MOL0     H82844   8.868   9.138   3.717 -3.1141 -2.0442 -0.6494
  628MOL0     H82845   8.838   9.232   4.024  1.7162 -1.9438  1.5352
  628MOL0     H82846   8.954   9.121   3.966 -1.4065 -1.3350 -0.7590
  628MOL0     H82847   9.051   9.265   3.804  0.7645  2.7449 -1.4353
  628MOL0     H82848   9.078   9.314   3.975 -0.7340 -0.7636  1.0560
  628MOL0     H82849   9.083   9.525   3.711 -1.5202  1.2822 -2.0789
  628MOL0     H82850   9.030   9.821   3.746 -0.9933  1.7360 -1.4925
  628MOL0     H82851   8.857   9.841   3.733 -0.2928  0.8209  1.9578
  628MOL0     H82852   9.041   9.694   3.540 -0.4643 -1.2218  0.0407
  628MOL0     H82853   8.955   9.846   3.503 -1.7715 -0.4983 -1.3298
  628MOL0     H82854   8.832   9.689   3.394 -0.2339 -0.7134 -0.6842
  628MOL0     H82855   8.852   9.564   3.521  1.6079  1.1835 -0.7426
  628MOL0     H82856   8.658   9.787   3.563 -1.4711 -0.7314 -3.4126
  628MOL0     H82857   8.701   9.653   3.669  2.9194 -0.5039 -1.0157
  628MOL0     H82858   8.555   9.418   3.657  0.1279 -0.2587 -0.8999
  628MOL0     H82859   8.351   9.321   3.736 -0.8705  0.1666 -0.6783
  628MOL0     H82860   7.890   9.292   3.867  0.8758  0.3682 -1.9996
  628MOL0     H82861   7.734   9.287   4.050  0.7573 -0.3275  1.0889
  628MOL0     H82862   7.795   9.368   4.314  1.2583  2.3468  0.1111
  628MOL0     H82863   7.648   9.301   4.248 -2.1277 -0.7279  1.8459
  628MOL0     H82864   7.504   9.456   4.370 -0.9269 -3.0660 -0.6101
  628MOL0     H82865   7.651   9.503   4.466  1.2405 -1.7399  0.7867
  628MOL0     H82866   7.684   9.285   4.538 -0.5217 -0.5853  0.9869
  628MOL0     H82867   7.538   9.218   4.453  0.9317 -2.0072  1.2332
  628MOL0     H82868   7.546   9.411   4.686 -0.3121 -0.6907 -0.4167
  628MOL0     H82869   7.419   9.427   4.578  1.3222  0.8401  0.2246
  628MOL0     H82870   7.492   9.155   4.715  0.1847  0.3296 -0.0632
  628MOL0     H82871   7.373   9.165   4.594 -2.9771  1.5486  0.2993
  628MOL0     H82872   7.258   9.338   4.744  2.3498  1.2812 -1.5196
  628MOL0     H82873   7.389   9.310   4.865  3.6999 -0.3523 -2.9258
  628MOL0     H82874   7.297   9.066   4.867  0.6385  1.2882  1.7530
  628MOL0     H82875   7.214   9.193   4.950  1.4354 -0.3250  1.0111
  628MOL0     H82876   7.079   9.021   4.792  1.7899 -1.1485 -0.4073
  628MOL0     H82877   7.155   9.102   4.658 -3.1774  2.8513 -1.4635
  628MOL0     H82878   7.805   9.711   4.119 -1.0882 -1.1443  0.3443
  628MOL0     H82879   7.938   9.727   3.918  1.1853 -0.3857  1.7408
  628MOL0     H82880   8.155   9.675   3.602 -2.0263 -1.2844  1.6778
  628MOL0     H82881   8.364   9.739   3.466 -1.7629 -0.3612 -1.7858
  628MOL0     H82882   8.052   9.167   4.307 -1.0109  1.3830  0.1599
  628MOL0     H82883   7.836   9.108   4.397 -1.0341 -1.4845 -0.1198
  628MOL0     H82884   7.426   8.730   4.512 -0.6624  0.5214  0.2441
  628MOL0     H82885   7.195   8.727   4.539 -0.0790 -0.3736 -0.4618
  628MOL0     H82886   6.892   8.924   4.266 -1.0779  0.6918  0.6401
  628MOL0     H82887   6.944   9.076   4.350 -0.6964 -0.2029  0.2402
  628MOL0     H82888   6.751   8.885   4.474  1.3182 -0.1008  0.3604
  628MOL0     H82889   6.834   9.027   4.545  0.2302  0.8531  0.0076
  628MOL0     H82890   6.670   8.997   4.296  5.4393 -1.0169 -0.4997
  628MOL0     H82891   6.742   9.163   4.351  0.9314  0.6155  0.9760
  628MOL0     H82892   6.609   9.173   4.545 -2.1161  0.2273  1.3817
  628MOL0     H82893   6.512   9.186   4.395 -2.3856 -0.6330 -0.0752
  628MOL0     H82894   6.389   8.837   4.628 -0.5428  0.0739  0.7507
  628MOL0     H82895   7.153   9.080   4.289  0.5863 -0.0691 -0.4111
  628MOL0     H82896   7.388   9.057   4.232 -3.2508  1.1446 -1.4342
  629MOL0     O82897   8.654   0.859   0.496  0.8705  0.1150  0.7141
  629MOL0     C82898   8.615   0.949   0.431 -0.2955 -0.2906  0.3883
  629MOL0     O82899   8.488   0.956   0.375 -0.2429 -0.2343 -0.1894
  629MOL0     C82900   8.401   0.853   0.391 -1.3169  0.3444  0.6355
  629MOL0     C82901   8.378   0.762   0.284  0.6369 -0.1558 -0.5392
  629MOL0     C82902   8.287   0.660   0.304  0.3453  0.2609  0.8853
  629MOL0     C82903   8.204   0.645   0.416 -1.3593 -0.5020  0.0138
  629MOL0     O82904   8.135   0.529   0.421  0.2138 -1.2267  0.5302
  629MOL0     C82905   8.073   0.496   0.544  0.0000 -0.8375  0.2612
  629MOL0     C82906   8.037   0.338   0.550  0.4756 -1.2491 -0.0920
  629MOL0     C82907   8.156   0.248   0.491  1.1059  0.3269  0.2012
  629MOL0     C82908   8.121   0.104   0.480  0.1195 -0.5480 -0.3445
  629MOL0     C82909   8.236   0.013   0.439 -0.2651 -0.2606  0.3906
  629MOL0     C82910   8.207  -0.133   0.428 -0.1653 -0.8810 -0.1484
  629MOL0     C82911   8.190  -0.190   0.577 -0.0080  0.1002  0.5666
  629MOL0     C82912   8.239  -0.343   0.573  0.8249  0.8621  0.0091
  629MOL0     N82913   8.152  -0.430   0.494  0.8964  0.4900  0.3059
  629MOL0     C82914   8.050  -0.506   0.546  0.8332  0.2304 -0.0682
  629MOL0     C82915   8.018  -0.591   0.440 -0.1555 -0.3625  0.6421
  629MOL0     C82916   7.890  -0.676   0.442  0.6505 -0.3519 -0.3184
  629MOL0     C82917   7.796  -0.627   0.343  0.3505 -0.1977  0.6937
  629MOL0     C82918   7.664  -0.701   0.349  0.0031  0.3897  0.9221
  629MOL0     C82919   7.576  -0.652   0.461 -0.1112 -0.1428  0.3788
  629MOL0     O82920   7.489  -0.757   0.502 -0.6320  0.2587  0.3092
  629MOL0     C82921   7.361  -0.751   0.454  0.0424  0.0160  0.0484
  629MOL0     C82922   7.269  -0.674   0.524 -0.3590 -0.7076 -0.7778
  629MOL0     C82923   7.141  -0.694   0.488  0.8303 -0.1085  0.7466
  629MOL0     C82924   7.095  -0.768   0.379 -0.2927  0.2277 -0.4745
  629MOL0     C82925   6.951  -0.782   0.354  0.3803 -0.0909  0.0725
  629MOL0     O82926   6.917  -0.858   0.244  0.2714 -0.1319  0.1588
  629MOL0     C82927   6.784  -0.887   0.220 -0.7139  0.7041  0.5671
  629MOL0     C82928   6.733  -1.021   0.235  0.7820  0.2581  0.3686
  629MOL0     C82929   6.598  -1.050   0.205  0.1462 -0.0314  0.4989
  629MOL0     C82930   6.512  -0.947   0.173  0.4002 -0.0953 -0.5232
  629MOL0     O82931   6.387  -0.975   0.131 -0.6791 -0.1242  0.1176
  629MOL0     C82932   6.365  -1.074   0.027  0.5472  0.3355 -0.4331
  629MOL0     C82933   6.216  -1.110  -0.006  0.6987 -0.0405 -0.3062
  629MOL0     C82934   6.153  -0.993  -0.071  0.5104  0.0510 -0.7718
  629MOL0     C82935   5.997  -1.024  -0.095  0.5054 -0.4414  0.3107
  629MOL0     C82936   5.906  -0.905  -0.109 -0.1279  0.2873 -0.2051
  629MOL0     C82937   5.869  -0.871  -0.258  0.7590  0.6564  0.0914
  629MOL0     C82938   5.771  -0.743  -0.251 -0.6672  1.0334 -0.0998
  629MOL0     C82939   5.636  -0.774  -0.186  0.1237  0.1195 -0.5451
  629MOL0    Cl82940   5.530  -0.862  -0.302 -0.3295  0.3433  0.1145
  629MOL0     C82941   6.565  -0.819   0.149  0.1430  0.3033 -0.2809
  629MOL0     C82942   6.702  -0.785   0.179  0.0886  0.5366 -1.0856
  629MOL0     O82943   6.868  -0.738   0.431 -1.1719  0.2053  0.2093
  629MOL0     C82944   7.196  -0.840   0.300 -0.2556 -0.1417 -0.5342
  629MOL0     C82945   7.331  -0.830   0.343  0.4415 -0.4652 -0.9123
  629MOL0     N82946   8.098  -0.549   0.323  0.0014 -0.1415 -0.2584
  629MOL0     N82947   8.174  -0.449   0.363  0.2909  0.2692  0.4063
  629MOL0     C82948   8.230   0.739   0.516 -0.0985 -0.3560 -0.0252
  629MOL0     C82949   8.336   0.831   0.515 -0.0794 -0.2842  1.1786
  629MOL0     C82950   8.713   1.057   0.408  0.2904 -0.4372  0.2945
  629MOL0     C82951   8.673   1.167   0.334 -0.5836 -0.3300 -0.3768
  629MOL0     C82952   8.749   1.285   0.320 -0.5591 -0.5323 -0.8997
  629MOL0     C82953   8.881   1.279   0.376  0.3712  0.3155  0.4836
  629MOL0     O82954   8.964   1.383   0.341  0.1633  0.0715  0.2886
  629MOL0     C82955   9.099   1.372   0.391  0.7852  1.2023  0.1541
  629MOL0     C82956   9.197   1.485   0.344 -0.0693  0.1760 -0.4902
  629MOL0     C82957   9.180   1.544   0.199  0.4441 -0.4046 -0.4580
  629MOL0     C82958   9.202   1.449   0.080  0.2562 -0.2791 -0.3689
  629MOL0     C82959   9.102   1.354   0.052  1.4204  0.7007 -0.1263
  629MOL0     C82960   9.008   1.286   0.014  0.5502  0.0029 -0.4451
  629MOL0     C82961   8.924   1.163   0.446 -0.3413 -0.3973  0.7337
  629MOL0     C82962   8.845   1.046   0.455 -0.1366  0.0207 -0.4309
  629MOL0     H82963   8.424   0.773   0.186  2.7853  0.1877  0.4658
  629MOL0     H82964   8.281   0.577   0.234 -2.3910  0.8221  0.3379
  629MOL0     H82965   7.980   0.553   0.544  0.0872 -0.6795 -0.7116
  629MOL0     H82966   8.138   0.534   0.622  1.0549  1.3494 -1.5813
  629MOL0     H82967   7.953   0.339   0.480 -0.3913 -2.7375  0.8738
  629MOL0     H82968   8.015   0.304   0.651 -1.2193 -0.6511 -0.2395
  629MOL0     H82969   8.237   0.264   0.562  2.3039  0.9555 -1.2583
  629MOL0     H82970   8.186   0.288   0.394  4.4443  1.3342  1.5386
  629MOL0     H82971   8.079   0.069   0.574  2.4916  1.8209  1.7378
  629MOL0     H82972   8.047   0.105   0.399  1.1346  3.9065 -1.5099
  629MOL0     H82973   8.311   0.026   0.518 -2.3889  2.2564  2.1405
  629MOL0     H82974   8.274   0.052   0.344 -0.5454  0.7289  0.6703
  629MOL0     H82975   8.297  -0.176   0.383 -0.2882 -0.0971 -1.1751
  629MOL0     H82976   8.118  -0.162   0.371  0.6302 -4.9085  0.3844
  629MOL0     H82977   8.238  -0.132   0.657  1.5792 -0.2258 -0.1205
  629MOL0     H82978   8.082  -0.184   0.595 -0.0048  4.4596  0.3667
  629MOL0     H82979   8.241  -0.382   0.675  1.1397 -1.0678 -0.6897
  629MOL0     H82980   8.341  -0.349   0.535  1.7509  1.2570  2.2764
  629MOL0     H82981   8.003  -0.504   0.644 -1.1429  0.3729 -0.9623
  629MOL0     H82982   7.841  -0.664   0.539 -0.8426  0.6800 -1.1603
  629MOL0     H82983   7.910  -0.783   0.432 -0.4123 -0.5579 -0.3109
  629MOL0     H82984   7.832  -0.621   0.240  1.2536  1.2625  1.0637
  629MOL0     H82985   7.780  -0.522   0.369  2.4438  0.2587  0.2847
  629MOL0     H82986   7.612  -0.680   0.255  1.1540 -2.7519 -0.5713
  629MOL0     H82987   7.691  -0.807   0.354  4.1223  1.3190  1.4701
  629MOL0     H82988   7.525  -0.562   0.426 -0.7256 -0.4600  0.4445
  629MOL0     H82989   7.639  -0.624   0.546 -0.1323  1.8389 -0.2195
  629MOL0     H82990   7.292  -0.619   0.614 -2.7140  0.6456 -0.9202
  629MOL0     H82991   7.067  -0.650   0.554  0.1609 -2.2213  1.4615
  629MOL0     H82992   6.797  -1.098   0.277 -0.1417 -1.1064 -0.6158
  629MOL0     H82993   6.548  -1.139   0.240 -0.1510  0.1869  0.6314
  629MOL0     H82994   6.403  -1.171   0.061 -0.5195 -0.3172 -1.0632
  629MOL0     H82995   6.397  -1.044  -0.074  0.2276  0.7505 -0.4086
  629MOL0     H82996   6.170  -1.157   0.082  1.0926 -1.4592 -0.8218
  629MOL0     H82997   6.216  -1.188  -0.083 -2.2157  0.4221 -0.9056
  629MOL0     H82998   6.189  -0.970  -0.172  2.0262  1.3318  0.0155
  629MOL0     H82999   6.170  -0.907  -0.006  2.0329 -0.5118 -0.3741
  629MOL0     H83000   5.985  -1.077  -0.190 -2.4396  0.4137  0.1113
  629MOL0     H83001   5.963  -1.090  -0.014  0.1031 -0.8755 -0.2050
  629MOL0     H83002   5.937  -0.808  -0.068  1.5561  0.6302 -2.1425
  629MOL0     H83003   5.811  -0.930  -0.062  0.1678  0.7905  0.6994
  629MOL0     H83004   5.819  -0.951  -0.312  1.1819  2.3184 -2.9932
  629MOL0     H83005   5.963  -0.850  -0.311  1.0977 -2.0526 -0.5250
  629MOL0     H83006   5.813  -0.663  -0.191  0.0841  1.2589 -0.8987
  629MOL0     H83007   5.750  -0.708  -0.353  0.3548  2.9191  0.3041
  629MOL0     H83008   5.586  -0.678  -0.165 -0.6079  0.8800 -4.8047
  629MOL0     H83009   5.640  -0.827  -0.091 -0.1201  0.1169 -0.5347
  629MOL0     H83010   6.501  -0.742   0.109  0.4307 -0.1239 -1.6421
  629MOL0     H83011   6.747  -0.690   0.153  0.7494 -0.1329 -2.4646
  629MOL0     H83012   7.170  -0.914   0.225 -1.3531 -0.8099  0.4541
  629MOL0     H83013   7.410  -0.888   0.296  0.5540  0.8832 -2.4790
  629MOL0     H83014   8.173   0.725   0.607  2.8218 -2.5416  1.6256
  629MOL0     H83015   8.358   0.896   0.599 -0.7838  0.3021  0.9242
  629MOL0     H83016   8.575   1.164   0.287 -0.7952 -1.3009  0.1159
  629MOL0     H83017   8.721   1.370   0.259 -1.5300 -0.9877 -1.1018
  629MOL0     H83018   9.145   1.283   0.346  2.3306  1.4017  1.2531
  629MOL0     H83019   9.109   1.362   0.499  1.7670 -0.6297 -0.0576
  629MOL0     H83020   9.204   1.572   0.411 -1.2769 -0.8009  0.9938
  629MOL0     H83021   9.297   1.444   0.358 -0.1006  0.8972  2.8986
  629MOL0     H83022   9.253   1.624   0.186 -0.4833  0.4144 -0.7528
  629MOL0     H83023   9.079   1.580   0.179  0.3280 -0.1705  0.5018
  629MOL0     H83024   9.218   1.508  -0.011 -2.1375  0.1912 -0.5672
  629MOL0     H83025   9.295   1.396   0.103 -1.0603 -2.0654  1.1979
  629MOL0     H83026   8.923   1.231  -0.021  1.9546 -1.3130 -1.9396
  629MOL0     H83027   9.025   1.153   0.484 -0.0823  3.3180  1.3051
  629MOL0     H83028   8.876   0.968   0.523 -0.3663  1.1126  0.9850
  630MOL0     O83029   0.517   8.715   1.932  0.4843 -0.0850  1.2017
  630MOL0     C83030   0.530   8.754   1.818  1.0144  0.4800  0.2115
  630MOL0     O83031   0.433   8.816   1.740  0.2749 -0.6771  0.1628
  630MOL0     C83032   0.304   8.814   1.791  0.3995 -0.1742 -1.2654
  630MOL0     C83033   0.228   8.930   1.820 -0.4412  0.6377  0.2401
  630MOL0     C83034   0.096   8.923   1.876 -0.7447 -0.5903 -0.5220
  630MOL0     C83035   0.034   8.797   1.883  0.4344 -0.6147  0.8742
  630MOL0     O83036  -0.100   8.800   1.915 -0.2267  0.3275 -0.0985
  630MOL0     C83037  -0.177   8.911   1.879  0.8321  0.1692  0.3619
  630MOL0     C83038  -0.183   8.951   1.727 -0.0237  0.0755  0.8994
  630MOL0     C83039  -0.182   8.828   1.631  0.0128  0.2288  0.2282
  630MOL0     C83040  -0.175   8.885   1.487  0.0784  0.1272  0.3165
  630MOL0     C83041  -0.153   8.784   1.372  0.2456  0.6958  0.0528
  630MOL0     C83042  -0.062   8.840   1.259  0.2050  0.0965 -0.8728
  630MOL0     C83043  -0.054   8.756   1.130  0.5068 -0.2570 -1.1830
  630MOL0     C83044  -0.038   8.850   1.006  0.0919 -0.4488  0.5096
  630MOL0     N83045  -0.155   8.924   0.976 -0.0395 -0.0070  0.2261
  630MOL0     C83046  -0.256   8.868   0.902 -0.9349  0.3743  0.2444
  630MOL0     C83047  -0.363   8.954   0.908 -0.1101 -0.2097 -0.4259
  630MOL0     C83048  -0.486   8.944   0.826 -0.6453 -0.1202  0.2444
  630MOL0     C83049  -0.606   8.885   0.906  0.5292 -0.2650 -0.4542
  630MOL0     C83050  -0.727   8.884   0.809  0.2171 -0.5299  0.3590
  630MOL0     C83051  -0.848   8.808   0.855  0.1403  0.0738  0.3736
  630MOL0     O83052  -0.922   8.885   0.961 -0.2268 -0.7478  0.0245
  630MOL0     C83053  -1.022   8.824   1.027 -0.4766  0.9031 -0.0904
  630MOL0     C83054  -1.058   8.881   1.149  1.1127 -0.2892 -0.2379
  630MOL0     C83055  -1.166   8.823   1.214 -1.0529 -0.1312  0.2523
  630MOL0     C83056  -1.243   8.710   1.155 -1.2145 -0.3591 -0.0419
  630MOL0     C83057  -1.363   8.652   1.220  0.3169 -0.5492 -0.1331
  630MOL0     O83058  -1.416   8.548   1.151  0.9903  0.4230  0.6853
  630MOL0     C83059  -1.532   8.492   1.204  0.4125 -0.1541  0.6911
  630MOL0     C83060  -1.651   8.494   1.126 -1.0962 -0.0062 -0.3716
  630MOL0     C83061  -1.765   8.444   1.173  0.0942 -0.5319 -0.3778
  630MOL0     C83062  -1.781   8.382   1.299 -0.1857 -0.3439  0.4541
  630MOL0     O83063  -1.895   8.321   1.331 -0.0763  0.8665  0.0035
  630MOL0     C83064  -1.926   8.280   1.464 -0.0310 -0.5746  0.8003
  630MOL0     C83065  -2.070   8.219   1.484  0.3727 -0.5343  0.5187
  630MOL0     C83066  -2.096   8.186   1.632 -0.6049  0.0755 -0.1524
  630MOL0     C83067  -2.214   8.086   1.633  0.0877  0.0057  1.1108
  630MOL0     C83068  -2.347   8.149   1.589 -0.7242  0.5903  0.1725
  630MOL0     C83069  -2.398   8.245   1.699  0.2762 -0.3176 -0.1581
  630MOL0     C83070  -2.551   8.247   1.707 -0.0902 -0.7132  0.3875
  630MOL0     C83071  -2.602   8.321   1.826  0.0909  0.7914  0.8496
  630MOL0    Cl83072  -2.583   8.488   1.811  0.0301 -0.0987 -0.3871
  630MOL0     C83073  -1.672   8.391   1.386  0.8913 -0.2832 -0.8360
  630MOL0     C83074  -1.542   8.441   1.340  0.2640  0.2987 -0.1603
  630MOL0     O83075  -1.398   8.706   1.325  0.4518 -0.0787 -0.2485
  630MOL0     C83076  -1.203   8.661   1.032  1.0852  0.2703  0.2987
  630MOL0     C83077  -1.091   8.714   0.968  1.7647  0.7384 -0.6865
  630MOL0     N83078  -0.318   9.063   0.984  0.4232 -0.0272 -0.1911
  630MOL0     N83079  -0.197   9.048   1.011 -0.2506 -0.6273 -1.1162
  630MOL0     C83080   0.102   8.683   1.834 -0.8450 -0.0204 -0.5515
  630MOL0     C83081   0.236   8.690   1.797  0.4591 -0.1392 -0.3922
  630MOL0     C83082   0.664   8.739   1.760  0.0559 -0.4772  0.3882
  630MOL0     C83083   0.782   8.703   1.830  0.5465 -1.0926 -0.4967
  630MOL0     C83084   0.906   8.680   1.774  0.3523 -1.3323  0.0653
  630MOL0     C83085   0.914   8.702   1.631 -0.3738 -0.3890  0.4547
  630MOL0     O83086   1.028   8.660   1.564 -0.6421  0.6514  0.0435
  630MOL0     C83087   1.155   8.647   1.639  0.4748  0.4566  0.1770
  630MOL0     C83088   1.271   8.610   1.537  0.7254 -0.4779 -1.0079
  630MOL0     C83089   1.414   8.630   1.592 -0.0141 -0.3142  0.1694
  630MOL0     C83090   1.507   8.636   1.462  0.2898  0.6622 -0.2344
  630MOL0     C83091   1.641   8.693   1.505  0.9664 -0.0972  0.1525
  630MOL0     C83092   1.734   8.762   1.532  0.2004  0.2386  0.0540
  630MOL0     C83093   0.806   8.741   1.553  0.4997 -0.4523 -0.0400
  630MOL0     C83094   0.688   8.766   1.624  0.3592  0.5994  0.4325
  630MOL0     H83095   0.272   9.026   1.797 -0.0717  0.6951  1.1480
  630MOL0     H83096   0.065   9.026   1.888  3.3807  0.9773 -1.5698
  630MOL0     H83097  -0.149   8.993   1.946  3.8404 -1.2435  0.9927
  630MOL0     H83098  -0.277   8.878   1.906  1.3905 -1.2706  0.7613
  630MOL0     H83099  -0.114   9.031   1.697 -0.3413  1.0601  2.6981
  630MOL0     H83100  -0.281   8.997   1.710  0.0476  0.7533  2.1744
  630MOL0     H83101  -0.276   8.773   1.640  0.3057 -0.5159 -0.9396
  630MOL0     H83102  -0.101   8.756   1.649  0.3735  0.8811  1.2807
  630MOL0     H83103  -0.251   8.962   1.475  0.3142  0.5035  1.1506
  630MOL0     H83104  -0.083   8.943   1.474 -0.8861  1.7843  0.7234
  630MOL0     H83105  -0.250   8.744   1.342 -0.2586  1.5943  0.4524
  630MOL0     H83106  -0.098   8.706   1.425  1.4290  2.7384  1.9940
  630MOL0     H83107   0.036   8.847   1.308 -0.6091 -1.5656  1.1393
  630MOL0     H83108  -0.101   8.936   1.226  0.2593  0.2231 -0.5750
  630MOL0     H83109   0.041   8.703   1.135  0.7859  0.2014 -1.6244
  630MOL0     H83110  -0.139   8.687   1.120 -0.3089  0.8029 -1.7518
  630MOL0     H83111  -0.012   8.786   0.921  0.1885  1.4551 -0.9748
  630MOL0     H83112   0.047   8.915   1.027  1.8469 -2.4941  0.0294
  630MOL0     H83113  -0.252   8.771   0.853 -0.0508  0.7200 -0.3887
  630MOL0     H83114  -0.470   8.877   0.742  0.1207  0.9923 -0.5215
  630MOL0     H83115  -0.509   9.043   0.787 -0.7767  0.3961  1.5736
  630MOL0     H83116  -0.610   8.944   0.998  1.8823 -2.0441  0.8194
  630MOL0     H83117  -0.588   8.782   0.940  1.0015 -1.8977 -4.9882
  630MOL0     H83118  -0.757   8.987   0.791 -0.3736 -0.5924  0.9469
  630MOL0     H83119  -0.697   8.841   0.713 -0.5797 -1.5193  0.5350
  630MOL0     H83120  -0.824   8.702   0.867 -3.0103 -0.8544 -0.6220
  630MOL0     H83121  -0.911   8.808   0.766  1.3665  1.7830 -0.5604
  630MOL0     H83122  -1.004   8.958   1.203 -0.2632 -0.2134  1.0888
  630MOL0     H83123  -1.187   8.874   1.308  1.1162  0.1115  0.6632
  630MOL0     H83124  -1.651   8.532   1.024  0.5823  0.7753 -0.1214
  630MOL0     H83125  -1.849   8.450   1.105  0.7769  1.9893 -1.1151
  630MOL0     H83126  -1.910   8.373   1.520  1.0246  1.2029 -2.2123
  630MOL0     H83127  -1.858   8.202   1.499  1.1719  0.4097  0.7533
  630MOL0     H83128  -2.089   8.132   1.421 -0.5708 -2.4919  3.3003
  630MOL0     H83129  -2.138   8.302   1.463 -1.7004 -1.9641  1.2287
  630MOL0     H83130  -2.115   8.279   1.685 -0.6403  1.2264 -2.1084
  630MOL0     H83131  -2.016   8.134   1.686 -2.6549 -2.9938  0.2162
  630MOL0     H83132  -2.199   8.001   1.566  2.5800  0.3961  1.0783
  630MOL0     H83133  -2.221   8.042   1.733 -1.3381 -2.8346 -0.1258
  630MOL0     H83134  -2.420   8.070   1.571  0.7115 -0.3639 -1.8822
  630MOL0     H83135  -2.330   8.203   1.495  1.1866 -0.3279 -0.0424
  630MOL0     H83136  -2.357   8.340   1.666  0.7333  0.1756  1.7389
  630MOL0     H83137  -2.351   8.222   1.795  0.1223  0.3049  0.0656
  630MOL0     H83138  -2.605   8.286   1.620 -0.0340  0.4722  0.8640
  630MOL0     H83139  -2.580   8.142   1.715  0.5706 -1.0820 -1.6171
  630MOL0     H83140  -2.540   8.290   1.911  2.2358 -1.6084 -1.4070
  630MOL0     H83141  -2.706   8.297   1.852  0.2841 -2.5790 -0.8723
  630MOL0     H83142  -1.675   8.338   1.480  0.0369  0.0980 -0.6364
  630MOL0     H83143  -1.445   8.441   1.388  0.3609 -0.2293 -0.3475
  630MOL0     H83144  -1.257   8.582   0.980  3.3274 -2.2994  1.5988
  630MOL0     H83145  -1.073   8.681   0.866 -1.9601 -0.2273 -1.1744
  630MOL0     H83146   0.051   8.587   1.833 -0.8550 -0.0238 -0.0211
  630MOL0     H83147   0.286   8.601   1.759  0.0155 -0.4284 -0.3064
  630MOL0     H83148   0.771   8.699   1.937  0.3090  1.2621 -0.3777
  630MOL0     H83149   0.995   8.656   1.831  0.6595 -1.7995 -0.6040
  630MOL0     H83150   1.160   8.562   1.708 -2.8768 -0.7702 -0.8900
  630MOL0     H83151   1.182   8.736   1.695  1.0408 -0.3281  1.1888
  630MOL0     H83152   1.250   8.504   1.519 -1.6851 -0.8229  2.7423
  630MOL0     H83153   1.261   8.669   1.445 -1.9740 -0.6828 -0.9118
  630MOL0     H83154   1.438   8.544   1.655 -0.3149 -1.4804 -1.2579
  630MOL0     H83155   1.428   8.726   1.644 -0.0808  0.2655 -0.8646
  630MOL0     H83156   1.523   8.543   1.408  0.3577  1.0709 -0.9381
  630MOL0     H83157   1.476   8.706   1.384 -1.2498 -2.2215 -2.3832
  630MOL0     H83158   1.811   8.830   1.563  0.6443 -0.6089  0.8801
  630MOL0     H83159   0.828   8.759   1.448  2.6171 -0.1295  0.4178
  630MOL0     H83160   0.598   8.797   1.572  1.8896  3.2551 -0.8573
  631MOL0     O83161   3.544   2.791   9.833 -0.5596 -0.2464 -0.4727
  631MOL0     C83162   3.558   2.813   9.953  0.0678 -0.4615  1.1030
  631MOL0     O83163   3.679   2.845  10.011 -0.3892  1.1572  0.4063
  631MOL0     C83164   3.784   2.844   9.926  0.4479  0.2384 -0.4184
  631MOL0     C83165   3.856   2.960   9.904 -0.2194 -0.7402 -0.2671
  631MOL0     C83166   3.984   2.956   9.845  0.1487  0.7972  0.2583
  631MOL0     C83167   4.039   2.832   9.810  0.0416 -1.0579 -0.1963
  631MOL0     O83168   4.168   2.827   9.756 -0.9396 -1.0016 -0.2168
  631MOL0     C83169   4.264   2.757   9.848 -0.0806 -0.0459 -0.4269
  631MOL0     C83170   4.387   2.844   9.892  0.6294 -0.4733  0.0114
  631MOL0     C83171   4.493   2.759   9.969  0.5352  0.3760 -0.5527
  631MOL0     C83172   4.579   2.676   9.878 -0.2829 -0.0060  1.1380
  631MOL0     C83173   4.691   2.613   9.952  0.1698  0.8270  0.2990
  631MOL0     C83174   4.792   2.551   9.847 -0.3860  0.1693 -0.8049
  631MOL0     C83175   4.910   2.489   9.927  0.0944  0.0231  0.6009
  631MOL0     C83176   5.013   2.603   9.962  0.5322 -0.1276 -0.7039
  631MOL0     N83177   5.134   2.539  10.024 -0.2287  0.4626 -0.0392
  631MOL0     C83178   5.141   2.432  10.115 -0.5950 -0.2455  0.5317
  631MOL0     C83179   5.275   2.403  10.124  0.4428 -0.6557 -0.4462
  631MOL0     C83180   5.354   2.301  10.207  0.7665  0.4083 -0.0152
  631MOL0     C83181   5.289   2.164  10.179  0.1546 -0.0534  0.7837
  631MOL0     C83182   5.332   2.130  10.036 -0.0828  0.4004 -0.2256
  631MOL0     C83183   5.308   1.980  10.000  0.5114 -0.7846  0.4575
  631MOL0     O83184   5.178   1.943  10.046 -0.1598 -0.9531  0.7075
  631MOL0     C83185   5.075   1.972   9.964  1.1550 -0.0937 -0.6302
  631MOL0     C83186   5.075   2.022   9.834  0.4967 -0.2732  0.1858
  631MOL0     C83187   4.962   2.062   9.777 -1.1932  0.6434  0.3880
  631MOL0     C83188   4.837   2.039   9.836  0.2316 -0.3417  0.1603
  631MOL0     C83189   4.714   2.072   9.763  0.1934 -0.8284 -0.6826
  631MOL0     O83190   4.596   2.067   9.834 -0.3322  0.5436 -0.0263
  631MOL0     C83191   4.481   2.129   9.791  0.6049  0.5397  0.2018
  631MOL0     C83192   4.360   2.086   9.845  0.6875  0.4846 -0.5603
  631MOL0     C83193   4.239   2.156   9.807  0.4915 -0.8325 -0.1807
  631MOL0     C83194   4.237   2.266   9.719 -0.4663  0.4627 -0.3964
  631MOL0     O83195   4.112   2.315   9.693 -0.0280  0.3426 -0.5553
  631MOL0     C83196   4.085   2.370   9.563  0.1611 -0.3199 -0.1452
  631MOL0     C83197   3.934   2.397   9.545 -0.2067  0.2896 -0.0779
  631MOL0     C83198   3.828   2.310   9.599 -0.1388  0.3848 -0.7034
  631MOL0     C83199   3.791   2.361   9.741  0.0829  0.0271 -0.1304
  631MOL0     C83200   3.678   2.289   9.822  1.0577 -0.6144 -0.3196
  631MOL0     C83201   3.677   2.345   9.970 -0.2795 -0.1379  0.1595
  631MOL0     C83202   3.541   2.310  10.034 -0.0018 -0.3968  0.6694
  631MOL0     C83203   3.417   2.402  10.023  0.4691  0.1750  0.2237
  631MOL0    Cl83204   3.343   2.399   9.859 -0.3544  0.4008  0.1950
  631MOL0     C83205   4.360   2.307   9.668  1.1185  0.6914  1.6751
  631MOL0     C83206   4.477   2.234   9.694  0.4591 -0.1695  0.4081
  631MOL0     O83207   4.723   2.100   9.643  0.4697  0.8177 -0.9664
  631MOL0     C83208   4.828   1.977   9.963 -0.5432  0.1259 -0.1756
  631MOL0     C83209   4.954   1.957  10.034  0.5950 -0.1709 -0.3028
  631MOL0     N83210   5.341   2.493  10.043  0.1562 -0.0149 -0.4207
  631MOL0     N83211   5.258   2.569   9.980  1.1096 -0.2715 -0.1397
  631MOL0     C83212   3.968   2.710   9.822  0.2972 -0.9360 -0.5334
  631MOL0     C83213   3.840   2.717   9.878  0.3055 -0.8527 -0.4852
  631MOL0     C83214   3.440   2.782  10.030 -0.6960  0.1522  0.2394
  631MOL0     C83215   3.316   2.748   9.974  0.4365 -0.9690 -0.0263
  631MOL0     C83216   3.213   2.711  10.060  1.0721  0.4182  0.3006
  631MOL0     C83217   3.232   2.714  10.199 -0.0797 -0.1683  0.1487
  631MOL0     O83218   3.129   2.666  10.278  0.2247 -0.1985 -0.2559
  631MOL0     C83219   3.116   2.713  10.417 -0.3154  0.0382  1.6025
  631MOL0     C83220   2.999   2.661  10.489 -0.5547  0.1491  1.2779
  631MOL0     C83221   2.858   2.689  10.423 -0.5933 -1.0788  0.0658
  631MOL0     C83222   2.740   2.646  10.511 -0.3438  0.1775  1.0251
  631MOL0     C83223   2.618   2.677  10.450 -0.0673 -0.3040  0.8548
  631MOL0     C83224   2.522   2.715  10.395  0.3383 -0.1172  0.4805
  631MOL0     C83225   3.352   2.760  10.253 -0.4914  0.4270  0.5622
  631MOL0     C83226   3.459   2.785  10.164  0.0304  0.3758  0.8093
  631MOL0     H83227   3.817   3.049   9.952  3.2892 -0.4694  2.5191
  631MOL0     H83228   4.038   3.047   9.821  2.9889 -0.9490 -0.5733
  631MOL0     H83229   4.297   2.665   9.800  2.1343  1.1727 -1.3840
  631MOL0     H83230   4.208   2.737   9.940 -0.5313  4.6024  0.5998
  631MOL0     H83231   4.363   2.926   9.959  1.6203  0.8179 -1.1466
  631MOL0     H83232   4.426   2.880   9.796 -0.5771 -0.5369 -0.5180
  631MOL0     H83233   4.443   2.689  10.038 -0.7366 -0.6973 -2.4447
  631MOL0     H83234   4.555   2.825  10.029 -2.0310 -1.0676  4.2706
  631MOL0     H83235   4.531   2.599   9.817 -0.6929  1.5904 -0.6723
  631MOL0     H83236   4.613   2.752   9.807 -2.1014  0.5688  0.8088
  631MOL0     H83237   4.646   2.532  10.009  1.7891  0.4492  1.1021
  631MOL0     H83238   4.734   2.678  10.029  0.9962  0.3091  0.2888
  631MOL0     H83239   4.828   2.624   9.775 -0.5796  0.7054 -0.3650
  631MOL0     H83240   4.744   2.467   9.797 -0.0834 -2.0922  2.3838
  631MOL0     H83241   4.866   2.436  10.012 -0.7214 -2.6587 -1.3641
  631MOL0     H83242   4.955   2.414   9.861  1.8067 -0.0432  1.7729
  631MOL0     H83243   4.963   2.660  10.041  1.7798 -2.0955  1.6345
  631MOL0     H83244   5.037   2.673   9.881  0.8314 -1.0084 -1.3955
  631MOL0     H83245   5.065   2.387  10.178  1.7864 -1.2006  2.9246
  631MOL0     H83246   5.349   2.314  10.316 -1.3216 -0.4297  0.0368
  631MOL0     H83247   5.458   2.307  10.174  0.4106  1.1561 -1.0343
  631MOL0     H83248   5.181   2.176  10.181  0.1753  0.8301 -0.9608
  631MOL0     H83249   5.326   2.082  10.242  0.6168  0.6067  1.3878
  631MOL0     H83250   5.286   2.188   9.956  0.1349  0.2005 -0.4964
  631MOL0     H83251   5.440   2.150  10.036 -0.0669  0.4489 -1.8630
  631MOL0     H83252   5.383   1.934  10.065 -0.6300  0.5099  2.7958
  631MOL0     H83253   5.334   1.949   9.898  1.2559  1.3178 -0.0307
  631MOL0     H83254   5.171   2.035   9.785  0.6248 -0.1246  0.4738
  631MOL0     H83255   4.967   2.112   9.681  3.1184  0.3401  0.2912
  631MOL0     H83256   4.358   1.997   9.907  5.3802  0.3556 -0.2615
  631MOL0     H83257   4.144   2.121   9.845  0.1078  0.9058  0.5267
  631MOL0     H83258   4.123   2.293   9.495 -0.0556 -2.1547  1.7082
  631MOL0     H83259   4.137   2.464   9.542  1.8056 -1.0679  0.4391
  631MOL0     H83260   3.921   2.408   9.437  1.6903 -0.3351 -0.4090
  631MOL0     H83261   3.916   2.495   9.591  1.2697  0.0141  1.1834
  631MOL0     H83262   3.866   2.207   9.607 -0.3744  0.4099  1.3835
  631MOL0     H83263   3.736   2.309   9.540  0.4836  2.4040 -1.7881
  631MOL0     H83264   3.882   2.358   9.802  0.6325 -2.2925 -0.9505
  631MOL0     H83265   3.765   2.466   9.723 -0.9136  0.1091  1.5252
  631MOL0     H83266   3.697   2.181   9.814  0.6965 -0.7358  0.3605
  631MOL0     H83267   3.584   2.313   9.772  1.0137  2.3501  0.9636
  631MOL0     H83268   3.692   2.452   9.981 -0.1999  0.4009 -3.7623
  631MOL0     H83269   3.755   2.292  10.025 -0.0922 -0.4392 -0.3908
  631MOL0     H83270   3.522   2.203  10.021 -1.4639 -0.4156  2.4901
  631MOL0     H83271   3.556   2.318  10.142 -4.0542  2.3945  1.2562
  631MOL0     H83272   3.459   2.503  10.029 -0.5379  0.5406  1.6274
  631MOL0     H83273   3.347   2.398  10.106  0.8331 -2.6693  0.4800
  631MOL0     H83274   4.355   2.378   9.586  0.7430 -0.2855  0.8275
  631MOL0     H83275   4.567   2.278   9.651  1.6278 -2.7741 -0.0645
  631MOL0     H83276   4.735   1.950  10.010  0.3042  0.2987  1.7094
  631MOL0     H83277   4.949   1.917  10.134  2.3371 -1.7785 -0.8046
  631MOL0     H83278   4.009   2.615   9.789  0.7531 -0.8066 -0.3549
  631MOL0     H83279   3.786   2.625   9.897 -1.0836  0.3653  2.0264
  631MOL0     H83280   3.295   2.758   9.868  0.0358  1.7791  0.2267
  631MOL0     H83281   3.117   2.676  10.024  0.9684 -1.3190  2.0514
  631MOL0     H83282   3.107   2.820  10.397 -0.5287 -0.2920 -0.2243
  631MOL0     H83283   3.207   2.690  10.473  1.4381  2.1996 -0.1625
  631MOL0     H83284   3.004   2.552  10.498  1.6416 -0.3010 -2.9560
  631MOL0     H83285   3.001   2.709  10.588 -0.4213 -0.0659  1.3799
  631MOL0     H83286   2.857   2.626  10.333  2.8755  0.5038 -1.3028
  631MOL0     H83287   2.849   2.794  10.393 -0.3349 -1.3196 -0.9061
  631MOL0     H83288   2.751   2.538  10.520  1.5526 -0.6278 -5.7531
  631MOL0     H83289   2.745   2.704  10.604  1.9075  1.7060  0.0093
  631MOL0     H83290   2.429   2.745  10.351 -0.5832 -2.7752  0.4198
  631MOL0     H83291   3.378   2.756  10.358 -0.6844  0.0672  0.5978
  631MOL0     H83292   3.555   2.813  10.206 -0.0279  0.9419  0.5719
  632MOL0     O83293   8.290   1.035   2.876  0.7828 -0.0426 -0.1278
  632MOL0     C83294   8.283   1.082   2.760 -0.3214  0.5385 -0.8778
  632MOL0     O83295   8.175   1.099   2.687 -0.5313  0.2604 -0.3934
  632MOL0     C83296   8.063   1.074   2.761 -0.1596  0.0355 -0.3087
  632MOL0     C83297   7.999   1.161   2.853 -0.3753 -0.3586  0.1051
  632MOL0     C83298   7.877   1.134   2.909 -0.2523  0.6156  0.0804
  632MOL0     C83299   7.810   1.019   2.875  0.5044 -0.5951 -0.0312
  632MOL0     O83300   7.689   0.990   2.932 -0.2747  0.3082  0.3393
  632MOL0     C83301   7.662   0.844   2.943 -0.1196 -0.2652  0.1624
  632MOL0     C83302   7.541   0.818   3.033 -0.8238  0.4065 -0.0410
  632MOL0     C83303   7.577   0.862   3.175 -0.1280  0.2803 -0.2679
  632MOL0     C83304   7.468   0.842   3.277  0.1285  0.3639  0.3040
  632MOL0     C83305   7.494   0.911   3.411  1.0889 -0.3119 -0.4614
  632MOL0     C83306   7.614   0.850   3.483  0.8043  0.3165  0.7101
  632MOL0     C83307   7.591   0.696   3.514  0.2125 -0.7128  0.1989
  632MOL0     C83308   7.691   0.661   3.620  0.5065 -0.3552  0.2974
  632MOL0     N83309   7.830   0.700   3.602  0.4610 -0.4769 -0.1224
  632MOL0     C83310   7.903   0.659   3.496  0.0502 -0.3704 -0.8459
  632MOL0     C83311   8.027   0.719   3.510 -0.1772  0.9593 -0.1593
  632MOL0     C83312   8.149   0.692   3.432 -0.6104  0.3215 -0.2957
  632MOL0     C83313   8.227   0.819   3.404 -0.3681  0.7710  0.0741
  632MOL0     C83314   8.368   0.781   3.342  0.2950  0.3550 -1.0634
  632MOL0     C83315   8.361   0.763   3.191  0.6581  0.6443 -0.5547
  632MOL0     O83316   8.490   0.736   3.154  0.6570  0.2651  0.3905
  632MOL0     C83317   8.568   0.847   3.125  0.1787 -0.1857  0.0340
  632MOL0     C83318   8.554   0.983   3.166  0.6719 -0.0648  0.5209
  632MOL0     C83319   8.637   1.087   3.115  0.2538 -0.4708 -0.4922
  632MOL0     C83320   8.742   1.059   3.023 -0.9270  0.4285  0.3176
  632MOL0     C83321   8.823   1.171   2.956  0.1778 -0.3461 -0.7878
  632MOL0     O83322   8.784   1.298   2.973 -0.0676  0.5046  0.5873
  632MOL0     C83323   8.853   1.392   2.902  1.2634  0.0163 -1.0519
  632MOL0     C83324   8.797   1.435   2.778 -0.7770 -0.1268 -0.1247
  632MOL0     C83325   8.880   1.527   2.708 -0.4159  0.4103  0.0230
  632MOL0     C83326   9.002   1.579   2.753 -0.0307 -1.1012 -0.4592
  632MOL0     O83327   9.066   1.667   2.664  0.1583 -0.3822 -0.4663
  632MOL0     C83328   9.189   1.738   2.708  0.4481  0.1176 -0.5191
  632MOL0     C83329   9.200   1.870   2.633 -0.7534 -0.2383  0.1595
  632MOL0     C83330   9.210   1.845   2.484 -0.2895  0.2273 -0.0628
  632MOL0     C83331   9.199   1.990   2.423  0.3459  0.1886 -0.1037
  632MOL0     C83332   9.220   1.972   2.272  0.1465 -0.1346  0.6492
  632MOL0     C83333   9.244   2.107   2.203  0.1649 -0.2269 -0.3247
  632MOL0     C83334   9.132   2.213   2.218 -0.4766  0.3178 -0.6189
  632MOL0     C83335   9.145   2.323   2.119 -0.6331 -0.7867  0.1590
  632MOL0    Cl83336   9.276   2.441   2.176 -0.1631 -0.4230  0.1624
  632MOL0     C83337   9.049   1.533   2.885  1.3155  0.3461  0.5867
  632MOL0     C83338   8.971   1.442   2.956 -0.1561 -0.5502 -0.6005
  632MOL0     O83339   8.938   1.135   2.910  0.2211  0.2431  0.0007
  632MOL0     C83340   8.759   0.923   2.986  0.8194 -0.8115  0.3405
  632MOL0     C83341   8.671   0.826   3.035 -0.1054  0.3179  0.5317
  632MOL0     N83342   8.025   0.789   3.633  0.4898  0.5244 -0.5333
  632MOL0     N83343   7.906   0.775   3.686  0.1067  0.0569 -0.5209
  632MOL0     C83344   7.874   0.937   2.776  0.6603  1.1840 -0.5516
  632MOL0     C83345   7.998   0.964   2.718 -0.1906  0.0043 -0.7247
  632MOL0     C83346   8.403   1.113   2.697 -0.3236 -0.7887 -0.3209
  632MOL0     C83347   8.515   1.035   2.716  0.7509 -0.1667 -0.6373
  632MOL0     C83348   8.644   1.058   2.662  0.1525 -0.1288  0.0718
  632MOL0     C83349   8.659   1.165   2.577 -0.1025 -0.6685 -0.4643
  632MOL0     O83350   8.778   1.196   2.519  0.2258 -0.2817 -0.1915
  632MOL0     C83351   8.872   1.094   2.501 -0.4828  0.2122 -0.4053
  632MOL0     C83352   8.952   1.119   2.375  0.1183  0.2745  0.4419
  632MOL0     C83353   9.042   1.243   2.386  0.4227  0.7876  0.3053
  632MOL0     C83354   9.086   1.293   2.240 -0.6820  0.0591 -0.1878
  632MOL0     C83355   9.107   1.437   2.247  0.0329  0.2177 -0.2746
  632MOL0     C83356   9.110   1.562   2.261  0.1571  0.3656 -0.3390
  632MOL0     C83357   8.548   1.245   2.551  0.0350 -0.0357  0.0062
  632MOL0     C83358   8.421   1.217   2.604  0.1392 -0.4389  0.0280
  632MOL0     H83359   8.041   1.255   2.887 -0.6907  0.7809 -2.4658
  632MOL0     H83360   7.817   1.196   2.975 -0.6576 -1.5692  1.8901
  632MOL0     H83361   7.744   0.789   2.990  0.0441 -0.4284 -0.3057
  632MOL0     H83362   7.635   0.806   2.843 -0.7763  0.5249  0.0212
  632MOL0     H83363   7.500   0.717   3.029  0.3563 -0.0427 -1.3134
  632MOL0     H83364   7.464   0.887   2.996  1.1237  2.6416 -0.2047
  632MOL0     H83365   7.600   0.969   3.175  1.8111 -0.0495 -2.6324
  632MOL0     H83366   7.666   0.810   3.211 -2.0323 -1.4052  2.3121
  632MOL0     H83367   7.371   0.871   3.234 -2.6589 -1.0914  4.8789
  632MOL0     H83368   7.459   0.733   3.291 -3.7435 -0.0457 -3.3080
  632MOL0     H83369   7.402   0.897   3.469  1.2032 -0.2800 -0.2722
  632MOL0     H83370   7.513   1.017   3.388  0.4861 -0.4821 -1.8376
  632MOL0     H83371   7.635   0.906   3.574 -2.7263  1.9515  0.6780
  632MOL0     H83372   7.701   0.867   3.419  0.0013  2.1532  0.0317
  632MOL0     H83373   7.485   0.682   3.538  0.6367 -2.0227  1.4169
  632MOL0     H83374   7.594   0.621   3.434 -2.1850 -0.2218 -0.4473
  632MOL0     H83375   7.671   0.554   3.633 -1.7440  0.1144  1.1005
  632MOL0     H83376   7.654   0.699   3.716 -2.3902 -2.0854 -0.0124
  632MOL0     H83377   7.876   0.588   3.419 -0.5663 -2.4868  1.2092
  632MOL0     H83378   8.129   0.627   3.347 -3.0138 -0.2485  0.6270
  632MOL0     H83379   8.212   0.628   3.495  2.0992  1.6165 -1.5314
  632MOL0     H83380   8.244   0.878   3.494 -0.8213  3.7821 -1.6609
  632MOL0     H83381   8.164   0.885   3.343 -0.0933  2.1346  1.2151
  632MOL0     H83382   8.435   0.864   3.363  0.7689 -0.4161  0.6392
  632MOL0     H83383   8.414   0.692   3.386  2.4380  0.6152 -2.5947
  632MOL0     H83384   8.328   0.853   3.138  2.4577  0.8312 -1.4259
  632MOL0     H83385   8.312   0.671   3.157 -0.8844  0.4479  1.8974
  632MOL0     H83386   8.484   1.027   3.235  0.2196 -0.7242  0.4987
  632MOL0     H83387   8.626   1.184   3.162  1.7485 -0.4782 -0.0961
  632MOL0     H83388   8.707   1.387   2.740 -0.4179 -1.2017  0.3302
  632MOL0     H83389   8.846   1.565   2.612  2.3744  2.4340 -0.3126
  632MOL0     H83390   9.278   1.677   2.690  0.4419  0.2653 -1.0985
  632MOL0     H83391   9.177   1.765   2.813  2.4709  0.1151 -0.2346
  632MOL0     H83392   9.284   1.936   2.657 -0.2603 -0.6696 -0.3751
  632MOL0     H83393   9.108   1.925   2.655 -1.8923 -2.5137  1.4348
  632MOL0     H83394   9.130   1.774   2.462  2.7949 -3.4770 -0.3963
  632MOL0     H83395   9.301   1.793   2.452 -1.5719 -0.3209 -3.2630
  632MOL0     H83396   9.094   2.017   2.441 -0.0763 -3.0264  3.7023
  632MOL0     H83397   9.262   2.063   2.474  1.4425 -0.4577 -0.5103
  632MOL0     H83398   9.151   1.916   2.209  1.8346 -1.1775 -0.3341
  632MOL0     H83399   9.314   1.920   2.255 -1.0911 -2.1112 -0.6329
  632MOL0     H83400   9.273   2.095   2.098  3.0213 -1.0669  0.4947
  632MOL0     H83401   9.332   2.148   2.253 -2.4319  1.3742  3.4072
  632MOL0     H83402   9.035   2.168   2.197 -1.5343  2.5043 -0.6878
  632MOL0     H83403   9.127   2.245   2.323 -3.4739 -0.3952 -0.4645
  632MOL0     H83404   9.050   2.378   2.116  0.0543  0.3831 -2.4811
  632MOL0     H83405   9.162   2.286   2.017 -0.2093 -3.7879  1.2016
  632MOL0     H83406   9.139   1.577   2.926  1.7780  0.1866 -0.2497
  632MOL0     H83407   9.003   1.400   3.051 -0.1510 -0.4216 -0.5465
  632MOL0     H83408   8.837   0.898   2.916  1.1898 -4.7444  1.9039
  632MOL0     H83409   8.664   0.726   2.993 -0.1623  1.6292 -2.8842
  632MOL0     H83410   7.834   0.842   2.742  1.6627 -0.4212  2.4458
  632MOL0     H83411   8.043   0.901   2.642 -1.1570  0.2613 -1.5302
  632MOL0     H83412   8.516   0.960   2.794  0.4320  2.7540  2.3633
  632MOL0     H83413   8.728   0.996   2.693 -1.0744 -1.8896 -0.0549
  632MOL0     H83414   8.819   0.998   2.492 -0.2795  0.1271 -0.7256
  632MOL0     H83415   8.937   1.079   2.588  0.4702 -1.7196 -1.3657
  632MOL0     H83416   9.006   1.031   2.338 -1.0225 -0.4056  0.3328
  632MOL0     H83417   8.881   1.141   2.295  0.3764 -0.1786  0.0809
  632MOL0     H83418   9.135   1.218   2.437  0.1746 -0.7532  0.0672
  632MOL0     H83419   8.998   1.318   2.451 -0.3470  1.8989 -1.4177
  632MOL0     H83420   9.184   1.251   2.216 -1.6569 -1.7407 -1.2445
  632MOL0     H83421   9.015   1.265   2.161 -0.1613 -0.9804 -0.3041
  632MOL0     H83422   9.112   1.669   2.267  1.6889  0.3591 -0.3415
  632MOL0     H83423   8.562   1.338   2.497 -0.7033 -0.8940 -1.7350
  632MOL0     H83424   8.353   1.299   2.583  3.0444  1.8762 -1.0387
  633MOL0     O83425   9.010   4.437   6.699  0.8618 -0.0112  0.0367
  633MOL0     C83426   8.994   4.555   6.679 -1.0733  0.2360  1.2890
  633MOL0     O83427   9.099   4.642   6.651  0.3501 -0.6105  0.0073
  633MOL0     C83428   9.231   4.606   6.635 -1.2429  0.9096 -0.1079
  633MOL0     C83429   9.313   4.697   6.566 -0.8575  0.7222  0.4019
  633MOL0     C83430   9.456   4.671   6.544 -0.2009  0.6907  0.3915
  633MOL0     C83431   9.516   4.557   6.605  0.1670  0.0376 -0.5307
  633MOL0     O83432   9.650   4.542   6.591  0.2301 -0.0213 -0.1749
  633MOL0     C83433   9.723   4.461   6.682 -0.0862  0.2515 -0.3575
  633MOL0     C83434   9.755   4.530   6.813 -0.0974 -0.0545  0.5554
  633MOL0     C83435   9.845   4.456   6.907  0.2302  0.3415  0.2843
  633MOL0     C83436   9.894   4.546   7.020 -0.9987 -0.8200 -0.0768
  633MOL0     C83437   9.960   4.468   7.130  0.7021  0.4708 -0.3896
  633MOL0     C83438  10.113   4.430   7.110 -0.0697 -0.4402 -0.0223
  633MOL0     C83439  10.152   4.293   7.181 -0.3998  0.2171 -0.0822
  633MOL0     C83440  10.173   4.310   7.330 -0.1572  0.6117  0.9480
  633MOL0     N83441  10.307   4.370   7.362  0.4627  0.0012  0.7414
  633MOL0     C83442  10.421   4.309   7.338 -0.2041 -1.4396 -0.0619
  633MOL0     C83443  10.516   4.400   7.378 -1.0459  0.1039 -0.6136
  633MOL0     C83444  10.664   4.395   7.367 -0.3773  0.0423 -1.0211
  633MOL0     C83445  10.718   4.248   7.370  0.4654 -0.0117 -0.1951
  633MOL0     C83446  10.869   4.249   7.384 -0.0799 -0.0902 -0.7537
  633MOL0     C83447  10.935   4.120   7.340  0.0791 -0.2644  0.9208
  633MOL0     O83448  11.076   4.116   7.381  0.0422  0.0403  0.0398
  633MOL0     C83449  11.152   4.004   7.354 -0.2677  0.9285 -0.4515
  633MOL0     C83450  11.110   3.896   7.282  0.7128 -0.1023  0.4023
  633MOL0     C83451  11.193   3.785   7.262 -0.6100 -0.2107  0.5037
  633MOL0     C83452  11.325   3.786   7.309  0.1931  0.0921 -0.4636
  633MOL0     C83453  11.413   3.667   7.290 -0.3251  0.9383 -0.3868
  633MOL0     O83454  11.541   3.671   7.326  0.0274 -0.5271  0.2978
  633MOL0     C83455  11.637   3.581   7.277  0.4371  0.6399  0.9672
  633MOL0     C83456  11.738   3.538   7.364 -0.7053 -0.0656  0.5999
  633MOL0     C83457  11.847   3.462   7.319 -0.1447 -0.5525 -0.0674
  633MOL0     C83458  11.856   3.427   7.188  0.0684 -1.0736  0.5061
  633MOL0     O83459  11.964   3.358   7.147  0.0900 -0.1277 -0.2407
  633MOL0     C83460  11.935   3.221   7.157 -0.0252  0.4137 -0.2632
  633MOL0     C83461  12.056   3.141   7.112 -0.0757 -1.1546  0.4701
  633MOL0     C83462  12.033   2.993   7.148  0.1327 -0.2388  0.0732
  633MOL0     C83463  12.159   2.913   7.105 -0.8181 -0.3227  0.8811
  633MOL0     C83464  12.148   2.768   7.142 -0.2088 -0.2046  0.0259
  633MOL0     C83465  12.263   2.687   7.111 -0.6096 -0.2127  0.0858
  633MOL0     C83466  12.300   2.687   6.969 -0.3989 -0.5906 -0.4736
  633MOL0     C83467  12.399   2.572   6.935  0.5671 -0.1786  1.2245
  633MOL0    Cl83468  12.525   2.573   7.055  0.8283  0.0001 -0.3222
  633MOL0     C83469  11.759   3.473   7.100  0.3928  0.4263 -0.3340
  633MOL0     C83470  11.650   3.549   7.144 -0.2410  0.5776 -0.0919
  633MOL0     O83471  11.361   3.568   7.236 -0.0593 -0.8195  0.1794
  633MOL0     C83472  11.362   3.891   7.394  0.1183  0.3682  0.5871
  633MOL0     C83473  11.271   3.993   7.418 -0.7846  0.0425  0.3162
  633MOL0     N83474  10.446   4.514   7.421  0.1988 -0.4364 -0.3413
  633MOL0     N83475  10.316   4.489   7.424 -1.0498 -0.6412  0.8941
  633MOL0     C83476   9.430   4.473   6.684  0.0889 -0.2603  0.5199
  633MOL0     C83477   9.292   4.501   6.692 -0.3335  0.6270 -0.7347
  633MOL0     C83478   8.864   4.602   6.672  0.2847  0.6250 -0.2787
  633MOL0     C83479   8.758   4.512   6.663  0.8604 -0.3688 -0.3901
  633MOL0     C83480   8.624   4.558   6.674  0.2514 -0.3261  1.0634
  633MOL0     C83481   8.592   4.689   6.684  0.7101 -0.2225 -1.8537
  633MOL0     O83482   8.462   4.732   6.683  0.0717 -0.2453 -0.2411
  633MOL0     C83483   8.345   4.652   6.681  0.1390 -0.2664  1.2840
  633MOL0     C83484   8.231   4.736   6.723 -0.3043  0.0260  0.2817
  633MOL0     C83485   8.102   4.655   6.714  1.1672  1.2357 -0.7330
  633MOL0     C83486   8.090   4.554   6.832  1.2275 -0.5234  0.0680
  633MOL0     C83487   7.950   4.509   6.828  1.1736  0.5516  0.5488
  633MOL0     C83488   7.843   4.460   6.820  1.3741 -0.3746  0.6334
  633MOL0     C83489   8.700   4.781   6.690  0.5118  0.4908 -1.5464
  633MOL0     C83490   8.831   4.734   6.682 -0.1390 -0.0194 -0.1053
  633MOL0     H83491   9.273   4.782   6.513 -0.9863  0.4093 -0.0069
  633MOL0     H83492   9.520   4.740   6.489  0.7437 -0.0390  0.5485
  633MOL0     H83493   9.813   4.449   6.621  0.4289  2.2778 -0.0495
  633MOL0     H83494   9.675   4.363   6.691  1.0343 -0.1473  1.8093
  633MOL0     H83495   9.663   4.564   6.862 -0.9354 -1.2274 -0.1522
  633MOL0     H83496   9.815   4.619   6.795 -1.5047  1.4427  2.7801
  633MOL0     H83497   9.932   4.420   6.851  0.3635  0.0465  0.6860
  633MOL0     H83498   9.793   4.370   6.950  0.7661  0.2543  0.7550
  633MOL0     H83499   9.964   4.623   6.984 -1.6743  1.1796  2.5889
  633MOL0     H83500   9.806   4.602   7.055 -1.4511 -0.7017 -1.3374
  633MOL0     H83501   9.898   4.381   7.152  0.9632  0.4171  0.1526
  633MOL0     H83502   9.961   4.520   7.227  1.4684 -2.0314  1.0356
  633MOL0     H83503  10.171   4.513   7.152  1.4395 -0.5946 -1.6989
  633MOL0     H83504  10.129   4.413   7.003  1.2363 -1.2223  0.2708
  633MOL0     H83505  10.077   4.215   7.170  3.3335 -3.9347  1.0849
  633MOL0     H83506  10.245   4.257   7.136  0.3798  3.1039 -1.0585
  633MOL0     H83507  10.175   4.209   7.372  1.1816 -0.2307 -0.9542
  633MOL0     H83508  10.091   4.377   7.353  0.6773  2.1656 -0.3756
  633MOL0     H83509  10.427   4.208   7.300 -3.5824 -1.7979  0.0662
  633MOL0     H83510  10.709   4.442   7.455 -4.7247 -0.0316  1.5442
  633MOL0     H83511  10.709   4.445   7.281 -2.2479  5.0866  0.5878
  633MOL0     H83512  10.686   4.195   7.280 -0.8977  2.5125 -1.2897
  633MOL0     H83513  10.673   4.212   7.463 -0.6429 -0.6971 -0.9714
  633MOL0     H83514  10.902   4.327   7.314 -0.5451 -0.0561 -0.9412
  633MOL0     H83515  10.903   4.271   7.485 -0.3117 -2.4977 -0.0981
  633MOL0     H83516  10.917   4.115   7.232 -3.4883 -0.7332  1.4218
  633MOL0     H83517  10.885   4.033   7.384 -1.2765 -0.8270 -1.5554
  633MOL0     H83518  11.010   3.904   7.243 -0.1111 -1.2663  2.1526
  633MOL0     H83519  11.157   3.697   7.208  0.8742 -2.1945  2.5996
  633MOL0     H83520  11.740   3.559   7.471  1.7348 -3.0365  1.2931
  633MOL0     H83521  11.926   3.452   7.394 -0.1177 -0.8428 -0.1343
  633MOL0     H83522  11.851   3.201   7.090 -1.3618  1.3959  1.0518
  633MOL0     H83523  11.912   3.191   7.260  2.6456 -1.9176 -0.2182
  633MOL0     H83524  12.150   3.184   7.149  2.1252 -2.5581 -2.9267
  633MOL0     H83525  12.069   3.144   7.003 -1.7677  0.3021  0.2692
  633MOL0     H83526  11.953   2.942   7.093 -1.0912 -0.4588  1.9763
  633MOL0     H83527  12.014   2.981   7.255  1.8885  2.5387  0.8101
  633MOL0     H83528  12.168   2.933   6.998  1.6916  0.0275  1.0968
  633MOL0     H83529  12.248   2.957   7.150 -0.7825 -0.9702  1.4658
  633MOL0     H83530  12.060   2.725   7.094  0.2551  0.1444 -1.1689
  633MOL0     H83531  12.136   2.766   7.250 -0.2654  0.6794  0.0456
  633MOL0     H83532  12.242   2.582   7.133 -1.6636 -0.3202 -1.3293
  633MOL0     H83533  12.345   2.708   7.181  1.1204  0.1469 -1.9441
  633MOL0     H83534  12.223   2.691   6.892  3.2858  1.9228 -4.4746
  633MOL0     H83535  12.351   2.782   6.947 -1.7009  0.7567  1.8343
  633MOL0     H83536  12.444   2.596   6.838 -1.7866  0.8409  0.3111
  633MOL0     H83537  12.343   2.478   6.924  1.4832 -0.5965 -0.0743
  633MOL0     H83538  11.765   3.440   6.996  1.4195 -0.5262  0.0129
  633MOL0     H83539  11.585   3.593   7.069  0.9356  2.8459  0.1367
  633MOL0     H83540  11.468   3.897   7.419  0.6412  1.4809 -1.5980
  633MOL0     H83541  11.300   4.076   7.482 -3.4374  3.3742 -2.4097
  633MOL0     H83542   9.461   4.381   6.733  2.0515  0.0979  0.0567
  633MOL0     H83543   9.230   4.437   6.753 -0.2263  0.6035 -0.6503
  633MOL0     H83544   8.768   4.405   6.657  1.6113 -0.2727 -0.9245
  633MOL0     H83545   8.548   4.481   6.684  1.0837 -1.1192  1.4140
  633MOL0     H83546   8.353   4.562   6.744 -0.9841  0.1986  2.1377
  633MOL0     H83547   8.326   4.613   6.581 -1.1581 -0.9595  1.7760
  633MOL0     H83548   8.257   4.791   6.814 -0.8204  0.0024  0.4441
  633MOL0     H83549   8.234   4.820   6.652  1.8965 -0.3503 -0.1291
  633MOL0     H83550   8.093   4.597   6.622 -3.7854 -1.7890  1.2402
  633MOL0     H83551   8.012   4.717   6.718  0.4447  0.1777 -0.3361
  633MOL0     H83552   8.165   4.474   6.828  1.3258 -0.4102 -0.5340
  633MOL0     H83553   8.085   4.616   6.922  0.3220 -1.2104  0.5158
  633MOL0     H83554   7.747   4.414   6.811 -0.1227  2.6636 -0.2845
  633MOL0     H83555   8.683   4.888   6.693 -0.7678  0.2787  1.3929
  633MOL0     H83556   8.905   4.812   6.696 -2.9127  2.5914  0.8879
  634MOL0     O83557   9.497   9.339  11.022  0.8061  0.1529 -0.6363
  634MOL0     C83558   9.529   9.433  11.100  0.6946  0.9070  0.2072
  634MOL0     O83559   9.452   9.473  11.205 -0.7491 -1.3024  0.2748
  634MOL0     C83560   9.343   9.401  11.248  1.0778  0.7987  0.3472
  634MOL0     C83561   9.337   9.268  11.259  0.1549  1.2636 -0.1456
  634MOL0     C83562   9.238   9.195  11.332  0.1507 -0.5399  0.3540
  634MOL0     C83563   9.127   9.262  11.386 -0.8962 -0.2072 -0.0778
  634MOL0     O83564   9.041   9.194  11.469 -0.7347  0.0745  0.3292
  634MOL0     C83565   8.908   9.245  11.478 -0.8046 -0.1842  0.0712
  634MOL0     C83566   8.825   9.132  11.538  0.8069  0.4972 -0.4524
  634MOL0     C83567   8.847   9.131  11.695  1.1794 -0.7173  0.3556
  634MOL0     C83568   8.765   9.012  11.750 -0.5712  0.6337  0.1794
  634MOL0     C83569   8.631   9.060  11.809  0.8817  0.4448 -0.2433
  634MOL0     C83570   8.574   8.972  11.924 -0.2438 -0.2836  0.0209
  634MOL0     C83571   8.679   8.979  12.041  0.0988  0.2656 -0.0048
  634MOL0     C83572   8.622   8.897  12.157 -0.5089 -0.4261  0.7497
  634MOL0     N83573   8.495   8.942  12.212 -0.3178 -0.3398 -0.2896
  634MOL0     C83574   8.362   8.903  12.185  0.2798  1.1365 -0.7422
  634MOL0     C83575   8.283   8.976  12.266  0.2446  0.6121 -0.5785
  634MOL0     C83576   8.133   8.968  12.251  0.6481  0.4573  0.0801
  634MOL0     C83577   8.072   9.107  12.225  0.3322 -0.3590 -1.0749
  634MOL0     C83578   8.090   9.144  12.078 -0.1194  0.6895 -1.1348
  634MOL0     C83579   8.003   9.265  12.064  1.1422 -0.1470  0.0750
  634MOL0     O83580   7.864   9.229  12.058  0.5233  0.0328  0.6114
  634MOL0     C83581   7.777   9.336  12.061 -0.4939  0.5611  0.6090
  634MOL0     C83582   7.809   9.468  12.042 -0.7306  0.0684 -0.5270
  634MOL0     C83583   7.712   9.567  12.026  0.3220  0.4384  0.4158
  634MOL0     C83584   7.576   9.523  12.049 -0.2696 -1.1172  0.6152
  634MOL0     C83585   7.463   9.621  12.048  1.2069  0.3637  0.4386
  634MOL0     O83586   7.346   9.581  12.110 -0.8698 -0.0881 -0.5216
  634MOL0     C83587   7.223   9.651  12.101 -0.4610  0.7800 -0.6118
  634MOL0     C83588   7.205   9.787  12.079  0.2175  0.2029 -0.9165
  634MOL0     C83589   7.083   9.846  12.108  0.1096 -0.0145  0.1452
  634MOL0     C83590   6.966   9.771  12.136  0.1024  0.5823 -0.0428
  634MOL0     O83591   6.840   9.816  12.148  1.0357 -0.0857  0.4751
  634MOL0     C83592   6.816   9.944  12.204  0.1600  0.1940  0.1991
  634MOL0     C83593   6.673   9.971  12.247 -0.5093 -0.4699 -0.1794
  634MOL0     C83594   6.569   9.958  12.132 -0.0599  0.8818  0.3817
  634MOL0     C83595   6.426   9.944  12.179  0.0304  0.5232 -1.0536
  634MOL0     C83596   6.330   9.941  12.064  0.2805 -0.1949 -0.4032
  634MOL0     C83597   6.179   9.919  12.092 -0.5244  0.6944  0.0386
  634MOL0     C83598   6.106   9.996  12.195  0.4356  0.7193  0.6187
  634MOL0     C83599   6.114  10.140  12.165  1.4936 -0.5571 -0.9422
  634MOL0    Cl83600   6.026  10.172  12.016  0.3989  0.2602 -0.2752
  634MOL0     C83601   6.979   9.642  12.144 -0.3472 -0.1561  0.1960
  634MOL0     C83602   7.104   9.574  12.125 -0.1891  0.0645 -0.4671
  634MOL0     O83603   7.487   9.734  11.998  0.0347  0.6152  1.0396
  634MOL0     C83604   7.548   9.388  12.072  0.7441 -1.6489 -0.4354
  634MOL0     C83605   7.645   9.298  12.078  0.0680  1.1937  0.7657
  634MOL0     N83606   8.365   9.067  12.327  0.5539 -0.4289 -0.0379
  634MOL0     N83607   8.487   9.048  12.303 -0.6117 -0.4637 -0.1583
  634MOL0     C83608   9.123   9.400  11.364 -0.7310 -0.3799 -0.1897
  634MOL0     C83609   9.231   9.466  11.286  0.0050  0.6035  0.1745
  634MOL0     C83610   9.665   9.495  11.071  0.0365  0.5992 -1.4625
  634MOL0     C83611   9.720   9.591  11.160  0.3582 -0.2645 -0.9340
  634MOL0     C83612   9.846   9.650  11.145  0.4657 -0.2929  0.2940
  634MOL0     C83613   9.916   9.615  11.033 -0.1722 -0.5645  0.1471
  634MOL0     O83614  10.041   9.669  11.037  0.0671 -0.3546  0.1435
  634MOL0     C83615  10.083   9.711  10.901 -0.5295 -0.0333 -0.6094
  634MOL0     C83616  10.218   9.772  10.926  0.1403  0.8417  0.4996
  634MOL0     C83617  10.191   9.896  11.016 -0.4165  0.7435  0.5528
  634MOL0     C83618  10.174  10.022  10.926 -0.4136  0.3157  0.2188
  634MOL0     C83619  10.113  10.136  11.010  0.9263 -0.2749 -0.1754
  634MOL0     C83620  10.061  10.230  11.076 -0.0400  0.4094  0.2119
  634MOL0     C83621   9.863   9.522  10.935 -0.1458 -0.4283  0.2402
  634MOL0     C83622   9.737   9.464  10.952 -0.1127 -0.4620 -0.3780
  634MOL0     H83623   9.412   9.209  11.208  0.9591  1.8728  0.3111
  634MOL0     H83624   9.248   9.088  11.351 -1.4560 -0.2947  3.0777
  634MOL0     H83625   8.874   9.255  11.375  0.8404 -1.3811 -0.6460
  634MOL0     H83626   8.909   9.340  11.532 -1.6583 -0.7737  1.1550
  634MOL0     H83627   8.846   9.038  11.488  2.2164  0.7480 -0.3546
  634MOL0     H83628   8.718   9.156  11.533  0.1246 -1.5347  2.1094
  634MOL0     H83629   8.825   9.229  11.738  2.4088  0.3595 -1.3267
  634MOL0     H83630   8.950   9.102  11.716  2.5377  2.3386 -1.3218
  634MOL0     H83631   8.732   8.936  11.678 -0.8298 -1.6038  2.5003
  634MOL0     H83632   8.818   8.951  11.824 -1.6768  0.3398  0.7443
  634MOL0     H83633   8.560   9.068  11.726 -0.6777  0.9713  1.1004
  634MOL0     H83634   8.642   9.161  11.850 -0.2659 -0.3564  2.2416
  634MOL0     H83635   8.541   8.871  11.897 -3.7326  0.7635 -0.1848
  634MOL0     H83636   8.483   9.028  11.949 -0.4386 -0.6142  0.0512
  634MOL0     H83637   8.778   8.934  12.024 -0.2998 -0.8950  0.6118
  634MOL0     H83638   8.708   9.081  12.067  4.5387 -0.4767 -1.1885
  634MOL0     H83639   8.696   8.907  12.237 -2.0540 -0.3470  2.2229
  634MOL0     H83640   8.615   8.792  12.126  1.1414  0.0111 -1.3432
  634MOL0     H83641   8.335   8.828  12.111 -1.1634 -1.0692  1.8155
  634MOL0     H83642   8.080   8.923  12.336  0.5719  0.0834 -0.1655
  634MOL0     H83643   8.120   8.891  12.175  0.3853 -0.3080  0.8708
  634MOL0     H83644   8.112   9.175  12.300 -2.0467 -1.2367  1.1561
  634MOL0     H83645   7.965   9.088  12.240  0.4742  1.0023  2.6112
  634MOL0     H83646   8.189   9.181  12.048 -0.3444  0.9757 -1.5433
  634MOL0     H83647   8.060   9.061  12.014 -2.4523  0.6203 -0.0568
  634MOL0     H83648   8.026   9.320  11.972  0.0103  0.2293 -0.0082
  634MOL0     H83649   8.016   9.329  12.152 -2.2601  1.4577 -0.3829
  634MOL0     H83650   7.913   9.499  12.046 -1.1829  1.5526  3.0455
  634MOL0     H83651   7.745   9.671  12.032  1.8610 -0.0980  2.1404
  634MOL0     H83652   7.283   9.859  12.058 -0.5000  1.3812  0.2909
  634MOL0     H83653   7.071   9.953  12.097  1.9502  0.1129 -0.9580
  634MOL0     H83654   6.843  10.019  12.129 -1.3132  2.0041  1.3813
  634MOL0     H83655   6.881   9.953  12.292  0.8892  1.0742 -0.4081
  634MOL0     H83656   6.662  10.076  12.277  2.0107 -0.1857 -0.0412
  634MOL0     H83657   6.661   9.899  12.328  2.4435  1.9815  2.7009
  634MOL0     H83658   6.591   9.872  12.068  2.9257  1.5681  0.3680
  634MOL0     H83659   6.576  10.045  12.066  0.6537  0.5807  0.0548
  634MOL0     H83660   6.413   9.853  12.238  2.1751  0.1077 -1.1212
  634MOL0     H83661   6.419  10.032  12.245 -1.2553  0.4559 -1.0894
  634MOL0     H83662   6.367   9.864  11.995  0.0844 -0.5475 -0.1178
  634MOL0     H83663   6.342  10.036  12.012  0.0810 -0.5864 -1.1900
  634MOL0     H83664   6.176   9.815  12.125  2.5370  0.8598  1.2363
  634MOL0     H83665   6.127   9.911  11.996  0.9888 -1.8134 -0.6864
  634MOL0     H83666   6.001   9.970  12.205  0.4752  0.7689  1.1781
  634MOL0     H83667   6.149   9.974  12.293  1.1093  0.2256  0.2258
  634MOL0     H83668   6.219  10.162  12.145  1.8034 -1.1469 -0.0677
  634MOL0     H83669   6.076  10.200  12.249 -3.3317 -2.2597 -1.5705
  634MOL0     H83670   6.895   9.575  12.158  0.8827 -1.3929  2.1348
  634MOL0     H83671   7.108   9.467  12.144 -1.1480  0.3461  1.6353
  634MOL0     H83672   7.448   9.360  12.103  1.0104 -0.8997  1.2136
  634MOL0     H83673   7.615   9.195  12.095  1.3348  0.5801 -0.5250
  634MOL0     H83674   9.047   9.469  11.399 -1.4741 -0.7798 -0.9838
  634MOL0     H83675   9.236   9.573  11.267 -0.1865  0.5064 -0.4666
  634MOL0     H83676   9.668   9.610  11.253  2.8105  1.6999  0.1715
  634MOL0     H83677   9.882   9.718  11.222  0.8523  2.2097 -1.9654
  634MOL0     H83678  10.004   9.784  10.880  1.0328  1.7272 -0.5902
  634MOL0     H83679  10.099   9.636  10.823  2.1727  2.1483 -2.3064
  634MOL0     H83680  10.287   9.709  10.983  0.4251  1.3186  0.6837
  634MOL0     H83681  10.272   9.802  10.837  1.7891 -5.0591 -0.9309
  634MOL0     H83682  10.275   9.909  11.085 -0.4270  1.2057  0.4763
  634MOL0     H83683  10.101   9.875  11.075 -1.1155 -3.1598 -1.5183
  634MOL0     H83684  10.268  10.059  10.884  0.0855 -2.4385 -1.3218
  634MOL0     H83685  10.099   9.996  10.851 -1.7541 -3.2081  2.5090
  634MOL0     H83686  10.038  10.293  11.159 -0.4004 -0.1737  0.5606
  634MOL0     H83687   9.927   9.484  10.856  1.5716 -0.1091  1.4293
  634MOL0     H83688   9.690   9.418  10.866 -0.3749 -1.3904  0.2456
  635MOL0     O83689   3.570   4.744   0.855  0.3919 -0.0238  0.3257
  635MOL0     C83690   3.629   4.712   0.955  0.3493  0.9426 -0.4997
  635MOL0     O83691   3.575   4.622   1.050  0.3363 -0.4962  0.1751
  635MOL0     C83692   3.450   4.576   1.017 -0.1809  0.0252 -0.4140
  635MOL0     C83693   3.347   4.628   1.094 -0.2202 -0.3826 -0.5198
  635MOL0     C83694   3.212   4.599   1.084  0.6138  0.7028  0.3859
  635MOL0     C83695   3.173   4.522   0.971 -0.1269 -0.6582 -0.1494
  635MOL0     O83696   3.035   4.509   0.948 -0.0037  0.3347  0.2865
  635MOL0     C83697   2.988   4.394   0.892 -0.0934  0.0639  0.5798
  635MOL0     C83698   2.899   4.320   0.995 -0.5988 -0.7867 -0.4608
  635MOL0     C83699   2.777   4.412   1.035 -0.1619  0.0592 -0.2246
  635MOL0     C83700   2.673   4.336   1.118  0.0809 -0.6347 -0.6251
  635MOL0     C83701   2.535   4.399   1.107  0.8609 -0.9103  0.4992
  635MOL0     C83702   2.426   4.324   1.176  0.0568 -0.3912  0.0107
  635MOL0     C83703   2.447   4.340   1.334  0.3854  1.3531 -0.4605
  635MOL0     C83704   2.335   4.273   1.414  0.6203 -0.3601 -0.0315
  635MOL0     N83705   2.224   4.364   1.457 -0.3625 -0.6954  0.1269
  635MOL0     C83706   2.167   4.462   1.382 -0.7598 -1.0774  0.1041
  635MOL0     C83707   2.062   4.506   1.451  0.1410  0.1237 -0.1346
  635MOL0     C83708   1.963   4.607   1.411 -0.1599  0.3043 -0.0084
  635MOL0     C83709   1.988   4.734   1.491 -0.0373  0.4678 -0.5094
  635MOL0     C83710   1.916   4.852   1.427  0.1239 -0.7972 -0.0447
  635MOL0     C83711   1.949   4.975   1.522  0.1285  0.3705  0.9935
  635MOL0     O83712   1.925   5.105   1.457 -0.4874 -0.1353 -0.2258
  635MOL0     C83713   1.802   5.154   1.439  0.4697 -0.4182  0.2694
  635MOL0     C83714   1.681   5.092   1.488  0.1903  0.6798  0.8066
  635MOL0     C83715   1.562   5.151   1.456 -0.3864  0.4187 -0.3725
  635MOL0     C83716   1.550   5.276   1.399 -0.6891 -0.5958  0.5797
  635MOL0     C83717   1.423   5.338   1.353  0.2611  0.5883 -0.0552
  635MOL0     O83718   1.310   5.272   1.379  0.1244  0.8692 -0.0460
  635MOL0     C83719   1.188   5.318   1.345  0.6431  0.5214  0.2352
  635MOL0     C83720   1.132   5.429   1.404 -1.6426 -0.1666  0.7251
  635MOL0     C83721   0.997   5.470   1.370 -0.7677 -0.3854 -0.5591
  635MOL0     C83722   0.910   5.398   1.285 -0.1155  0.4062 -0.1259
  635MOL0     O83723   0.776   5.434   1.268 -0.2213  0.2540  0.1850
  635MOL0     C83724   0.679   5.350   1.205  0.1476 -0.3907  0.0903
  635MOL0     C83725   0.558   5.437   1.236 -0.1000 -0.7733  0.5857
  635MOL0     C83726   0.429   5.375   1.179 -0.2015 -0.2368 -0.3559
  635MOL0     C83727   0.317   5.477   1.226 -0.1484 -0.0387  0.4317
  635MOL0     C83728   0.179   5.408   1.235 -0.2340  0.0699 -0.4316
  635MOL0     C83729   0.116   5.390   1.100 -0.6421  0.3398  0.5412
  635MOL0     C83730  -0.021   5.344   1.113 -0.8216  0.6504  0.5764
  635MOL0     C83731  -0.102   5.345   0.986  0.5545 -0.3303 -0.2604
  635MOL0    Cl83732  -0.266   5.385   1.032 -0.3276  0.3630  0.2071
  635MOL0     C83733   0.972   5.292   1.222  1.4394  0.4571 -0.0950
  635MOL0     C83734   1.103   5.243   1.268 -0.0236  0.3619 -0.1653
  635MOL0     O83735   1.428   5.446   1.294  0.0988 -0.1458 -0.2824
  635MOL0     C83736   1.675   5.337   1.362  0.3101 -0.3321 -0.7326
  635MOL0     C83737   1.799   5.278   1.379 -0.4933 -0.4382  0.4105
  635MOL0     N83738   2.067   4.448   1.575  0.3565 -0.4654  0.0640
  635MOL0     N83739   2.163   4.367   1.575 -0.3618 -0.4441  0.8183
  635MOL0     C83740   3.276   4.472   0.886 -0.5492  0.4779  0.3767
  635MOL0     C83741   3.412   4.498   0.916 -0.1689 -0.6557  0.8490
  635MOL0     C83742   3.760   4.777   0.984  0.4537 -0.0866 -0.4561
  635MOL0     C83743   3.827   4.762   1.106 -0.2313  0.4705  0.4330
  635MOL0     C83744   3.950   4.821   1.133  0.2582  0.3582  0.4519
  635MOL0     C83745   4.005   4.917   1.051 -0.2825  0.7470 -0.0457
  635MOL0     O83746   4.117   4.971   1.103 -0.4648  0.7967 -0.4796
  635MOL0     C83747   4.222   5.006   1.012  0.2814 -0.2125  0.0298
  635MOL0     C83748   4.223   5.160   1.006  0.5236 -0.2055 -0.0495
  635MOL0     C83749   4.324   5.213   0.903  0.7816 -0.1724 -0.1029
  635MOL0     C83750   4.263   5.258   0.779 -0.7270 -0.7054  0.0843
  635MOL0     C83751   4.367   5.315   0.693  0.2947  0.0620  0.2699
  635MOL0     C83752   4.453   5.371   0.632  0.2054  0.1139  0.4600
  635MOL0     C83753   3.948   4.929   0.919 -0.4327  0.1788 -0.4966
  635MOL0     C83754   3.823   4.862   0.892  0.1317  0.7171 -0.2232
  635MOL0     H83755   3.376   4.698   1.172 -3.4270 -0.4826  0.9168
  635MOL0     H83756   3.130   4.645   1.139  0.0305 -1.4789  1.4711
  635MOL0     H83757   3.064   4.329   0.848  1.4463  1.2115  1.4478
  635MOL0     H83758   2.926   4.413   0.803  1.5051  0.7727 -0.4320
  635MOL0     H83759   2.957   4.301   1.086  2.3150  2.8980 -1.3001
  635MOL0     H83760   2.872   4.220   0.958 -1.0640 -1.0491  0.5559
  635MOL0     H83761   2.725   4.450   0.947 -1.6811 -0.7521  0.2789
  635MOL0     H83762   2.816   4.502   1.083 -1.6393  0.7592 -0.2743
  635MOL0     H83763   2.661   4.230   1.093  0.8548 -0.5982 -1.1947
  635MOL0     H83764   2.706   4.336   1.222  1.7292 -2.8841 -1.0728
  635MOL0     H83765   2.501   4.408   1.004 -0.4828 -0.4871  0.9499
  635MOL0     H83766   2.546   4.499   1.150 -0.6464 -0.5836  0.1745
  635MOL0     H83767   2.422   4.222   1.135  2.5022  0.0476 -1.5600
  635MOL0     H83768   2.328   4.370   1.166  0.0435 -0.4358 -0.0583
  635MOL0     H83769   2.534   4.275   1.346 -0.1630  0.4943 -1.0938
  635MOL0     H83770   2.471   4.440   1.370 -1.9931  1.2676  1.5986
  635MOL0     H83771   2.382   4.222   1.498 -0.2380 -0.6683  0.2700
  635MOL0     H83772   2.287   4.200   1.348 -0.6960  0.4993 -0.0752
  635MOL0     H83773   2.205   4.498   1.287  0.5702 -0.5590  0.8032
  635MOL0     H83774   1.864   4.569   1.435 -0.4538  0.1977 -1.3052
  635MOL0     H83775   1.967   4.617   1.302 -2.2768 -0.1202 -0.1637
  635MOL0     H83776   2.096   4.750   1.487  0.4277 -2.0697 -0.2036
  635MOL0     H83777   1.957   4.718   1.594  3.1244 -0.4625  0.4245
  635MOL0     H83778   1.962   4.876   1.330  0.3030 -2.0693 -0.2825
  635MOL0     H83779   1.808   4.839   1.418 -0.1078  0.5475  0.4667
  635MOL0     H83780   2.054   4.953   1.542 -0.0638 -1.1346  0.4502
  635MOL0     H83781   1.886   4.964   1.611 -1.8993  1.2889 -0.2557
  635MOL0     H83782   1.682   5.001   1.547  0.8871  0.5546  0.6078
  635MOL0     H83783   1.474   5.094   1.485  0.4793 -0.6023  0.3676
  635MOL0     H83784   1.188   5.497   1.467  0.6841 -3.0810  1.9890
  635MOL0     H83785   0.965   5.566   1.411  0.5741  1.5257 -3.6593
  635MOL0     H83786   0.659   5.254   1.252 -1.4542 -0.7872 -1.2986
  635MOL0     H83787   0.701   5.335   1.099  1.5507 -2.4684  0.6195
  635MOL0     H83788   0.574   5.538   1.199 -0.2990 -0.5579  1.0777
  635MOL0     H83789   0.542   5.441   1.344 -2.2477 -0.6760  0.3015
  635MOL0     H83790   0.401   5.278   1.221 -2.6500  0.5790  0.0835
  635MOL0     H83791   0.431   5.370   1.070 -1.1463  1.3953 -0.4812
  635MOL0     H83792   0.332   5.523   1.324  1.0411 -0.3174  0.3952
  635MOL0     H83793   0.315   5.558   1.152 -1.5887 -0.5532 -0.1337
  635MOL0     H83794   0.097   5.463   1.283 -1.7524 -2.2814 -0.1811
  635MOL0     H83795   0.199   5.308   1.273 -0.9415  0.6014  1.4793
  635MOL0     H83796   0.176   5.326   1.035 -0.8410 -1.1928  1.7962
  635MOL0     H83797   0.110   5.488   1.053 -0.5260  2.1646  3.9699
  635MOL0     H83798  -0.016   5.246   1.162 -1.3373  0.5115  0.3576
  635MOL0     H83799  -0.079   5.408   1.181  1.9447  0.4807  3.3316
  635MOL0     H83800  -0.102   5.253   0.927 -2.7312  1.3826 -3.3607
  635MOL0     H83801  -0.058   5.422   0.922 -1.5368  2.4205  1.3767
  635MOL0     H83802   0.913   5.239   1.148  1.6760 -1.4622  1.0434
  635MOL0     H83803   1.151   5.161   1.216 -1.6779 -0.8140  0.0784
  635MOL0     H83804   1.678   5.429   1.304 -1.3461  0.0183 -0.2967
  635MOL0     H83805   1.888   5.324   1.338 -1.5648  0.3935 -1.0599
  635MOL0     H83806   3.256   4.413   0.797  4.1603 -0.6829 -0.2013
  635MOL0     H83807   3.505   4.472   0.865 -0.7610  0.3803 -0.8561
  635MOL0     H83808   3.784   4.693   1.178 -1.9460  0.3032 -0.6857
  635MOL0     H83809   3.999   4.792   1.225  2.1594  1.9965  0.0238
  635MOL0     H83810   4.203   4.960   0.915 -0.7943  0.1438  0.0491
  635MOL0     H83811   4.319   4.961   1.031  0.6383  0.7005  0.3943
  635MOL0     H83812   4.123   5.206   0.998  1.0341  1.5317  2.2950
  635MOL0     H83813   4.251   5.183   1.109  0.7328 -0.8833  0.0504
  635MOL0     H83814   4.394   5.131   0.885  0.1670 -0.8690  0.5796
  635MOL0     H83815   4.383   5.296   0.945  3.1189 -0.8195 -1.8928
  635MOL0     H83816   4.233   5.167   0.725  1.0962 -1.3574  0.0829
  635MOL0     H83817   4.180   5.328   0.783 -1.4033 -1.3284 -1.8456
  635MOL0     H83818   4.535   5.416   0.580  1.0977 -0.1742  1.5677
  635MOL0     H83819   3.990   5.001   0.849  0.9496 -0.3417 -0.2521
  635MOL0     H83820   3.782   4.879   0.793  1.9015  0.3605 -1.0501
  636MOL0     O83821   1.697   9.864   3.054 -0.4382 -0.8648  0.5679
  636MOL0     C83822   1.731   9.765   2.993 -0.3958 -0.3896 -0.1624
  636MOL0     O83823   1.663   9.649   2.976 -0.0398  0.1474 -0.7070
  636MOL0     C83824   1.535   9.636   3.018 -1.0493  0.0287  0.5104
  636MOL0     C83825   1.444   9.732   3.049 -0.0392 -0.4030 -0.8332
  636MOL0     C83826   1.318   9.697   3.099 -0.3665 -0.3293  0.2041
  636MOL0     C83827   1.280   9.565   3.127 -1.1455 -0.6204 -0.0531
  636MOL0     O83828   1.159   9.535   3.181 -0.0051 -0.4117  0.7968
  636MOL0     C83829   1.099   9.416   3.142 -0.0488  0.0292  0.2672
  636MOL0     C83830   0.943   9.441   3.148 -0.3522  0.2615 -0.2216
  636MOL0     C83831   0.905   9.564   3.058 -0.1189  0.6693 -0.2297
  636MOL0     C83832   0.748   9.563   3.059  0.0178 -0.3178 -0.6720
  636MOL0     C83833   0.696   9.698   3.014  0.8467  0.1002 -0.1729
  636MOL0     C83834   0.549   9.711   3.060  0.1133 -0.5762  0.0481
  636MOL0     C83835   0.456   9.608   2.997  0.2900 -0.1061 -0.1166
  636MOL0     C83836   0.461   9.614   2.840 -0.7176  0.2901  0.1250
  636MOL0     N83837   0.339   9.554   2.783  0.9969  0.1092  0.2816
  636MOL0     C83838   0.210   9.590   2.801 -0.4366  0.4763  0.9133
  636MOL0     C83839   0.129   9.496   2.758  0.1665  1.1922  0.2005
  636MOL0     C83840  -0.014   9.475   2.799 -0.8674 -0.6355 -0.5015
  636MOL0     C83841  -0.102   9.422   2.693 -0.2921 -0.3484  0.5203
  636MOL0     C83842  -0.239   9.379   2.738  0.0279 -0.5454  0.4332
  636MOL0     C83843  -0.322   9.334   2.619 -0.7948  0.2008 -0.4970
  636MOL0     O83844  -0.324   9.418   2.502  0.1619 -0.6228 -0.4168
  636MOL0     C83845  -0.415   9.523   2.500 -0.2375  0.5851  0.6339
  636MOL0     C83846  -0.491   9.574   2.605  1.0378  0.5771 -0.1803
  636MOL0     C83847  -0.571   9.687   2.585  0.0178 -0.0244  0.9387
  636MOL0     C83848  -0.580   9.757   2.462 -0.2205 -0.3115  0.1848
  636MOL0     C83849  -0.684   9.857   2.431  0.8794  0.0888 -0.1875
  636MOL0     O83850  -0.705   9.907   2.306  0.0197  0.2123  0.0098
  636MOL0     C83851  -0.812   9.986   2.258 -0.1490 -0.1601  0.0160
  636MOL0     C83852  -0.941   9.983   2.315  0.4330  0.2686  0.3617
  636MOL0     C83853  -1.043  10.050   2.244 -0.0210  0.0130 -0.1862
  636MOL0     C83854  -1.017  10.128   2.130  0.0361 -0.9927  0.9986
  636MOL0     O83855  -1.097  10.216   2.067  0.1530 -0.5720 -0.1633
  636MOL0     C83856  -1.240  10.170   2.068  0.3701 -0.4943 -0.8979
  636MOL0     C83857  -1.319  10.295   2.037  0.9179  0.1712 -0.0066
  636MOL0     C83858  -1.471  10.271   2.059  0.1572  0.1206  0.3421
  636MOL0     C83859  -1.556  10.392   2.033 -0.1830 -0.0062 -0.1631
  636MOL0     C83860  -1.709  10.365   2.057  0.1405 -0.0750  0.1639
  636MOL0     C83861  -1.788  10.488   2.026 -0.1961  0.2132 -0.7085
  636MOL0     C83862  -1.933  10.481   2.068  0.0385  0.8539  0.3722
  636MOL0     C83863  -2.010  10.618   2.074  0.5063  0.0095  0.6238
  636MOL0    Cl83864  -2.180  10.585   2.114  0.3708 -0.3159  0.0211
  636MOL0     C83865  -0.887  10.123   2.071  0.2922  0.2708 -0.5511
  636MOL0     C83866  -0.789  10.050   2.132  0.5816  0.3142 -0.0003
  636MOL0     O83867  -0.757   9.876   2.534 -0.2637 -0.9163  0.1038
  636MOL0     C83868  -0.510   9.697   2.357  0.3322  0.4071  0.7450
  636MOL0     C83869  -0.421   9.594   2.382  0.3158 -0.2120  1.1792
  636MOL0     N83870   0.215   9.407   2.697 -0.1582 -0.2345 -0.0468
  636MOL0     N83871   0.339   9.447   2.698  0.5267  0.5648 -0.4638
  636MOL0     C83872   1.373   9.467   3.088  0.0739  0.4307  0.4491
  636MOL0     C83873   1.502   9.504   3.051 -0.0156 -0.6141  0.4273
  636MOL0     C83874   1.870   9.753   2.948 -0.5582  0.3252  0.2791
  636MOL0     C83875   1.961   9.844   3.008 -0.4384  0.5227  0.5261
  636MOL0     C83876   2.098   9.847   2.964 -0.0823 -0.0906  0.2283
  636MOL0     C83877   2.139   9.744   2.879 -0.2874 -0.6137 -0.3321
  636MOL0     O83878   2.275   9.738   2.858  0.4968 -0.1253 -0.0186
  636MOL0     C83879   2.345   9.631   2.791 -0.2437  0.1352 -0.4224
  636MOL0     C83880   2.491   9.699   2.779  1.3830  0.7674  0.0952
  636MOL0     C83881   2.585   9.607   2.702 -0.3862  0.0963 -0.6547
  636MOL0     C83882   2.705   9.686   2.645 -0.2932 -0.3651 -0.3401
  636MOL0     C83883   2.792   9.747   2.744 -0.2413  0.8505  0.3315
  636MOL0     C83884   2.851   9.801   2.836  0.4305 -0.6978 -0.5550
  636MOL0     C83885   2.043   9.654   2.819  0.0525  0.6311  0.0007
  636MOL0     C83886   1.911   9.657   2.857  0.9512 -0.3736  0.4760
  636MOL0     H83887   1.462   9.838   3.063 -0.9887 -0.4342  0.8831
  636MOL0     H83888   1.249   9.769   3.142 -0.8491  0.4776 -1.8106
  636MOL0     H83889   1.114   9.347   3.225 -3.3984  1.0763  1.9082
  636MOL0     H83890   1.130   9.372   3.047 -3.4338  0.9617 -1.4599
  636MOL0     H83891   0.909   9.456   3.250  0.9654 -1.2731  0.4871
  636MOL0     H83892   0.898   9.344   3.122  0.5635 -0.5221  0.9998
  636MOL0     H83893   0.917   9.541   2.952 -1.7781  1.2796 -0.5822
  636MOL0     H83894   0.955   9.654   3.096  1.1602 -0.1898  0.1565
  636MOL0     H83895   0.715   9.482   2.993 -0.1186 -1.9273  1.2672
  636MOL0     H83896   0.724   9.548   3.165  2.1015  1.1819  0.0631
  636MOL0     H83897   0.706   9.712   2.906  2.3222 -1.2574 -0.2374
  636MOL0     H83898   0.761   9.776   3.054 -0.8888  0.6171  1.8533
  636MOL0     H83899   0.510   9.812   3.039  2.4697  0.1243 -1.3374
  636MOL0     H83900   0.538   9.694   3.167 -0.3456 -2.5954 -0.2919
  636MOL0     H83901   0.490   9.509   3.031  0.0152 -1.4847 -3.4758
  636MOL0     H83902   0.356   9.616   3.042  1.5747 -0.9799  3.1764
  636MOL0     H83903   0.552   9.567   2.802  0.4183  2.2349  0.3369
  636MOL0     H83904   0.458   9.718   2.806  3.9554  0.3802 -0.7240
  636MOL0     H83905   0.178   9.669   2.869  1.2717  3.2123 -1.2517
  636MOL0     H83906  -0.056   9.569   2.834 -0.9724 -1.5353  2.0726
  636MOL0     H83907  -0.015   9.411   2.889 -1.9807 -1.5978 -1.1731
  636MOL0     H83908  -0.069   9.329   2.646 -6.4035 -2.3915 -0.6482
  636MOL0     H83909  -0.107   9.502   2.618  2.1869 -0.2302  0.3913
  636MOL0     H83910  -0.235   9.300   2.814  0.4877  0.4047  1.4212
  636MOL0     H83911  -0.272   9.477   2.774  1.7933  1.2693 -2.4360
  636MOL0     H83912  -0.426   9.321   2.648 -0.2693 -0.3756  1.3288
  636MOL0     H83913  -0.285   9.235   2.590 -0.4117 -0.7042  2.6131
  636MOL0     H83914  -0.486   9.524   2.702 -3.5383  1.5241  0.7839
  636MOL0     H83915  -0.636   9.713   2.668  0.6173  1.7467  0.8839
  636MOL0     H83916  -0.966   9.940   2.412  4.4678 -1.3971  0.8639
  636MOL0     H83917  -1.137  10.026   2.292  0.1617 -0.6108 -0.1301
  636MOL0     H83918  -1.273  10.146   2.170  1.9731  0.7644 -0.0426
  636MOL0     H83919  -1.258  10.078   2.011 -0.5664 -2.1122  1.7985
  636MOL0     H83920  -1.316  10.333   1.935 -0.6339 -2.3874 -1.1187
  636MOL0     H83921  -1.301  10.382   2.101 -5.0462  0.7763  1.4289
  636MOL0     H83922  -1.474  10.249   2.166 -0.2888  0.3036  0.3725
  636MOL0     H83923  -1.503  10.190   1.992 -0.9226  1.3519 -0.6884
  636MOL0     H83924  -1.534  10.472   2.104 -4.0285  0.7060  0.4136
  636MOL0     H83925  -1.545  10.433   1.932 -3.4699  1.3528 -0.0834
  636MOL0     H83926  -1.726  10.339   2.162 -1.5806  0.0612 -0.0539
  636MOL0     H83927  -1.741  10.282   1.993  0.9451  0.0317 -0.3925
  636MOL0     H83928  -1.802  10.505   1.919 -0.9939 -0.9324 -0.8073
  636MOL0     H83929  -1.750  10.576   2.078 -0.3473  0.0084 -0.2490
  636MOL0     H83930  -1.987  10.411   2.004  2.5256  0.8916 -1.9518
  636MOL0     H83931  -1.937  10.451   2.173  1.1320 -1.3465 -0.1404
  636MOL0     H83932  -2.013  10.662   1.973 -3.4083 -2.1897 -0.4206
  636MOL0     H83933  -1.966  10.695   2.138  2.9254 -2.4997  2.1964
  636MOL0     H83934  -0.864  10.175   1.978 -1.3280 -2.2129 -2.4658
  636MOL0     H83935  -0.688  10.050   2.092 -0.5828  3.7194 -3.6898
  636MOL0     H83936  -0.519   9.741   2.259 -1.6489  1.6434  1.4325
  636MOL0     H83937  -0.354   9.558   2.305  1.9280  0.4297  2.2167
  636MOL0     H83938   1.359   9.362   3.109  1.0761 -0.2329 -1.8575
  636MOL0     H83939   1.581   9.430   3.051  0.8204  0.1804  3.2363
  636MOL0     H83940   1.923   9.917   3.079 -0.3846  1.2970 -0.2186
  636MOL0     H83941   2.180   9.900   3.010  2.7441 -1.7689 -2.4840
  636MOL0     H83942   2.302   9.604   2.695  1.7561 -1.6346 -0.9001
  636MOL0     H83943   2.353   9.548   2.862  2.6375  2.0130  1.7005
  636MOL0     H83944   2.493   9.801   2.739 -0.9122  1.3675  1.3272
  636MOL0     H83945   2.533   9.693   2.880 -1.1189 -2.9050  1.1385
  636MOL0     H83946   2.520   9.571   2.622  0.3932  0.6066 -1.5331
  636MOL0     H83947   2.621   9.527   2.768  0.6475 -0.2473 -1.6017
  636MOL0     H83948   2.772   9.616   2.595 -0.3984 -1.3165  0.7961
  636MOL0     H83949   2.673   9.768   2.580 -2.2357 -0.1003  0.8727
  636MOL0     H83950   2.897   9.849   2.919 -0.2212 -1.2744  0.1561
  636MOL0     H83951   2.075   9.568   2.762 -0.8862  0.5045 -0.3576
  636MOL0     H83952   1.841   9.583   2.819  1.9558 -1.3608  0.4896
  637MOL0     O83953   2.562   9.511   4.988  0.2714 -0.6568  0.3769
  637MOL0     C83954   2.619   9.597   4.921 -0.1148 -1.0249 -0.1554
  637MOL0     O83955   2.553   9.669   4.824 -0.1688 -0.3786 -0.5998
  637MOL0     C83956   2.421   9.637   4.812  0.0960  0.1726  0.4441
  637MOL0     C83957   2.334   9.719   4.889  0.6785  0.6162  0.0034
  637MOL0     C83958   2.189   9.702   4.874  0.1681  0.1650  0.6000
  637MOL0     C83959   2.134   9.591   4.804 -0.1451 -0.6394 -0.1491
  637MOL0     O83960   2.010   9.541   4.807 -0.0323 -0.3223 -0.4988
  637MOL0     C83961   1.909   9.640   4.837 -0.4451 -0.0016 -0.9308
  637MOL0     C83962   1.782   9.568   4.875 -0.5801 -0.4524 -0.3899
  637MOL0     C83963   1.699   9.516   4.759 -0.1375 -0.5242  0.7302
  637MOL0     C83964   1.569   9.477   4.821  0.8570 -0.8998 -0.8211
  637MOL0     C83965   1.473   9.432   4.712 -1.1858  1.0506  0.5436
  637MOL0     C83966   1.343   9.376   4.779  0.0898  0.0587  0.1593
  637MOL0     C83967   1.246   9.341   4.664 -0.5869  0.3580 -0.4930
  637MOL0     C83968   1.284   9.222   4.584  0.6307 -0.3416  0.0910
  637MOL0     N83969   1.201   9.200   4.463 -0.0573  0.3629  0.9237
  637MOL0     C83970   1.071   9.147   4.466 -0.5596  0.1436  0.4833
  637MOL0     C83971   1.032   9.149   4.338  0.0119 -0.5473 -0.0191
  637MOL0     C83972   0.902   9.101   4.295  0.0427 -0.1025 -1.0105
  637MOL0     C83973   0.847   9.174   4.176  0.8299 -0.9031  0.4649
  637MOL0     C83974   0.703   9.176   4.159  0.0162  0.4440 -0.1994
  637MOL0     C83975   0.660   9.232   4.021  0.4054  0.3976  0.2640
  637MOL0     O83976   0.520   9.197   3.996 -0.3742 -0.0266  0.0749
  637MOL0     C83977   0.432   9.273   3.918 -0.3219 -0.7445 -0.6030
  637MOL0     C83978   0.313   9.208   3.882 -0.9683 -0.1813  0.0604
  637MOL0     C83979   0.217   9.265   3.807 -0.4739 -0.1451  1.1144
  637MOL0     C83980   0.232   9.397   3.765  0.3875  0.3652 -0.6316
  637MOL0     C83981   0.117   9.455   3.685  0.4000 -0.4839 -0.2066
  637MOL0     O83982  -0.001   9.391   3.702 -0.3996  0.1293  0.0916
  637MOL0     C83983  -0.120   9.429   3.640 -0.1973 -0.6560 -0.0626
  637MOL0     C83984  -0.133   9.476   3.507 -0.0741 -0.2777  0.2183
  637MOL0     C83985  -0.254   9.519   3.457 -0.3620  0.2544 -0.3890
  637MOL0     C83986  -0.370   9.514   3.544  0.1159 -0.3133  0.4908
  637MOL0     O83987  -0.485   9.563   3.488 -0.2717  0.5665 -0.0780
  637MOL0     C83988  -0.608   9.535   3.559 -0.7951  0.1177 -0.5918
  637MOL0     C83989  -0.719   9.589   3.465 -0.8072  0.0267 -0.1375
  637MOL0     C83990  -0.858   9.561   3.512  0.7533 -0.0201 -0.5183
  637MOL0     C83991  -0.963   9.658   3.447 -0.3279  0.7191 -0.8721
  637MOL0     C83992  -0.970   9.647   3.293  0.7827 -0.4198  0.6149
  637MOL0     C83993  -0.979   9.511   3.239 -0.5217 -0.3887  0.6203
  637MOL0     C83994  -1.094   9.416   3.283  0.1485  0.3939 -0.3864
  637MOL0     C83995  -1.083   9.292   3.197  0.8404 -0.0335  0.2669
  637MOL0    Cl83996  -1.134   9.330   3.030 -0.1986  0.3042  0.1034
  637MOL0     C83997  -0.351   9.456   3.668  1.3987 -0.1951 -0.3358
  637MOL0     C83998  -0.232   9.420   3.728 -0.0982 -0.4953 -0.1226
  637MOL0     O83999   0.133   9.552   3.610 -0.6522  0.3441 -0.1500
  637MOL0     C84000   0.348   9.469   3.797  0.0041  0.8461 -0.3115
  637MOL0     C84001   0.444   9.408   3.883  0.1965  0.0129 -0.4746
  637MOL0     N84002   1.137   9.194   4.260  0.1796 -0.0726  0.8007
  637MOL0     N84003   1.231   9.231   4.337  0.5905  0.3405  0.5797
  637MOL0     C84004   2.226   9.508   4.732  0.0066  0.0670  0.1986
  637MOL0     C84005   2.364   9.533   4.733  0.4890  0.3078  0.4822
  637MOL0     C84006   2.756   9.648   4.960  0.8840 -0.2804 -0.2293
  637MOL0     C84007   2.830   9.571   5.055 -0.2909  0.2272  0.5057
  637MOL0     C84008   2.964   9.601   5.070 -0.2405  0.5632  0.6117
  637MOL0     C84009   3.030   9.701   5.001  0.1001 -0.7896 -0.2670
  637MOL0     O84010   3.160   9.751   5.020  0.2043  0.4162  0.3619
  637MOL0     C84011   3.254   9.667   5.079 -1.0660  0.0595 -0.5555
  637MOL0     C84012   3.401   9.717   5.055 -0.2828  0.1124 -0.3452
  637MOL0     C84013   3.412   9.852   5.126 -0.4048 -0.0256 -0.3856
  637MOL0     C84014   3.561   9.901   5.121 -0.3294  1.2269 -0.3138
  637MOL0     C84015   3.608   9.936   4.979 -0.1309 -0.1259 -0.0579
  637MOL0     C84016   3.640   9.953   4.861 -0.5326  0.5281  0.0819
  637MOL0     C84017   2.953   9.766   4.905 -0.0644  0.6887 -0.8067
  637MOL0     C84018   2.815   9.756   4.899 -0.3305 -0.5668  0.3300
  637MOL0     H84019   2.368   9.797   4.956 -2.3564 -0.5567  3.1918
  637MOL0     H84020   2.125   9.776   4.921  0.6395  1.7768 -1.1621
  637MOL0     H84021   1.904   9.702   4.747  0.0034  1.2657 -0.0913
  637MOL0     H84022   1.942   9.699   4.923  3.8273 -2.4498 -0.5932
  637MOL0     H84023   1.735   9.635   4.948  1.4990 -1.1278  1.6795
  637MOL0     H84024   1.808   9.484   4.940  0.4152  0.4194  0.3881
  637MOL0     H84025   1.740   9.434   4.700 -0.9851 -0.3236 -0.1739
  637MOL0     H84026   1.676   9.596   4.688 -1.6708 -1.3018  0.3139
  637MOL0     H84027   1.580   9.393   4.890  2.0010 -1.8562 -2.1034
  637MOL0     H84028   1.529   9.562   4.877  0.7988 -0.2514 -1.8164
  637MOL0     H84029   1.526   9.362   4.647 -0.7452  2.7328 -0.9943
  637MOL0     H84030   1.448   9.519   4.650 -5.2327 -0.5669 -0.4079
  637MOL0     H84031   1.302   9.448   4.851  0.7138  1.3123 -0.7064
  637MOL0     H84032   1.365   9.289   4.842 -0.2514 -0.1845 -0.0611
  637MOL0     H84033   1.149   9.320   4.709  0.4468 -2.3367  0.6859
  637MOL0     H84034   1.242   9.426   4.595  1.8786  0.5777 -0.4751
  637MOL0     H84035   1.264   9.142   4.656 -1.4215  0.8862  0.9604
  637MOL0     H84036   1.392   9.211   4.567  0.4320 -0.0204 -1.5582
  637MOL0     H84037   1.016   9.101   4.548 -1.7013  1.3442  0.4295
  637MOL0     H84038   0.836   9.115   4.380  0.5145 -1.5511 -0.3749
  637MOL0     H84039   0.891   8.993   4.282 -0.0152  0.2216 -4.8825
  637MOL0     H84040   0.886   9.120   4.089 -1.1207 -0.8718 -0.4805
  637MOL0     H84041   0.887   9.276   4.168  0.5656 -0.8507 -0.2258
  637MOL0     H84042   0.655   9.077   4.162  2.3997 -0.9096 -2.5201
  637MOL0     H84043   0.657   9.237   4.237 -0.1252  2.1449 -1.5622
  637MOL0     H84044   0.719   9.181   3.945  0.6175  2.4972 -1.0494
  637MOL0     H84045   0.674   9.340   4.012 -1.6694  0.7840  1.0038
  637MOL0     H84046   0.307   9.106   3.920  0.5149  0.0567  1.0084
  637MOL0     H84047   0.124   9.212   3.789 -0.1487 -0.2717 -0.3479
  637MOL0     H84048  -0.052   9.489   3.436  0.0908 -0.4903  0.3681
  637MOL0     H84049  -0.266   9.570   3.362 -1.0269  1.2858  0.2263
  637MOL0     H84050  -0.602   9.577   3.660  1.2785 -3.1122  0.7919
  637MOL0     H84051  -0.610   9.426   3.573  1.9779 -0.3744 -3.1718
  637MOL0     H84052  -0.699   9.555   3.363 -0.3964 -0.0486 -0.0345
  637MOL0     H84053  -0.699   9.695   3.451  1.4214 -0.6290 -2.8129
  637MOL0     H84054  -0.864   9.569   3.621 -1.4395  0.8734 -0.6389
  637MOL0     H84055  -0.887   9.458   3.489  0.3849 -0.1824  0.5918
  637MOL0     H84056  -1.062   9.634   3.488 -0.8578  2.1392 -1.2819
  637MOL0     H84057  -0.943   9.758   3.485 -2.4819  0.8066  0.1758
  637MOL0     H84058  -0.888   9.703   3.247  0.5534 -1.1016 -0.6826
  637MOL0     H84059  -1.062   9.695   3.258  1.2688 -1.0740 -1.7249
  637MOL0     H84060  -0.882   9.469   3.267 -0.6399  0.3145  2.2237
  637MOL0     H84061  -0.977   9.513   3.130 -2.0411  1.1207  0.5834
  637MOL0     H84062  -1.085   9.389   3.389 -1.0133  2.0435  0.1759
  637MOL0     H84063  -1.193   9.463   3.276 -0.3422 -0.8187 -2.1842
  637MOL0     H84064  -1.160   9.225   3.237  1.4956 -1.3616 -0.6203
  637MOL0     H84065  -0.982   9.250   3.199  1.1324  0.6601  2.2888
  637MOL0     H84066  -0.434   9.478   3.734  2.2017  1.8979  0.0511
  637MOL0     H84067  -0.229   9.392   3.833 -1.4909 -1.0906 -0.2139
  637MOL0     H84068   0.353   9.577   3.787 -0.8745  1.1043  1.5765
  637MOL0     H84069   0.525   9.473   3.912  0.6260  0.6422 -2.8234
  637MOL0     H84070   2.178   9.428   4.676 -4.5542  0.6476  2.7728
  637MOL0     H84071   2.425   9.475   4.665 -0.7774 -0.1808 -0.2726
  637MOL0     H84072   2.773   9.497   5.109 -1.5756 -0.5166 -1.7325
  637MOL0     H84073   3.014   9.548   5.150  0.8012  1.9756  0.9419
  637MOL0     H84074   3.239   9.564   5.044  0.5777 -0.2532 -0.3991
  637MOL0     H84075   3.234   9.660   5.186 -0.5084  1.1363 -0.3686
  637MOL0     H84076   3.467   9.639   5.093  2.0794  1.6746 -1.0709
  637MOL0     H84077   3.427   9.725   4.949  2.9064 -1.7470  0.1648
  637MOL0     H84078   3.384   9.854   5.232 -1.1676  0.8617 -0.5834
  637MOL0     H84079   3.347   9.922   5.072 -1.5615 -0.8038 -0.0617
  637MOL0     H84080   3.567   9.995   5.177 -4.0367  0.6947  1.2566
  637MOL0     H84081   3.628   9.836   5.177  2.9326  2.9791 -1.8877
  637MOL0     H84082   3.667   9.986   4.763  1.4996  0.4464  0.5665
  637MOL0     H84083   2.995   9.848   4.848 -0.0232  2.3914  1.5291
  637MOL0     H84084   2.756   9.820   4.833 -0.5334 -1.6635 -0.5758
  638MOL0     O84085   6.194   3.754   2.472 -0.2029  0.8229  0.4259
  638MOL0     C84086   6.209   3.859   2.533  0.4359 -0.0857  1.2595
  638MOL0     O84087   6.112   3.953   2.540  0.6838 -0.1251  0.8203
  638MOL0     C84088   5.980   3.915   2.511  0.0127 -0.8545 -0.3220
  638MOL0     C84089   5.888   3.943   2.615  0.0675 -0.4076 -0.3838
  638MOL0     C84090   5.760   3.893   2.601  0.3915  0.7057 -0.4923
  638MOL0     C84091   5.705   3.838   2.482 -1.1576 -0.6428 -0.6117
  638MOL0     O84092   5.575   3.794   2.474 -0.4170  0.1566  0.1147
  638MOL0     C84093   5.516   3.766   2.351  0.1368 -0.1811 -0.6782
  638MOL0     C84094   5.370   3.727   2.375  0.2792 -0.2487  0.7708
  638MOL0     C84095   5.323   3.684   2.236 -0.2901 -0.3345  0.0358
  638MOL0     C84096   5.168   3.667   2.229  0.8312 -1.0470  0.1264
  638MOL0     C84097   5.123   3.627   2.084 -0.6641 -0.8875  0.4423
  638MOL0     C84098   5.188   3.506   1.997 -0.2571 -0.9884 -0.8530
  638MOL0     C84099   5.175   3.369   2.070 -0.3791 -0.3574 -0.7468
  638MOL0     C84100   5.027   3.317   2.079  0.8251 -0.9026 -0.2092
  638MOL0     N84101   4.958   3.314   1.940  0.9476  0.4930  0.3425
  638MOL0     C84102   4.847   3.389   1.899  0.0656  1.0352  0.2194
  638MOL0     C84103   4.793   3.320   1.794  0.1022  0.5856  0.5756
  638MOL0     C84104   4.672   3.361   1.726  0.2109 -0.3140  0.3307
  638MOL0     C84105   4.546   3.345   1.813  0.0283 -0.1635  0.7423
  638MOL0     C84106   4.425   3.393   1.734  0.6861  0.1016 -0.3442
  638MOL0     C84107   4.302   3.399   1.827 -0.1206  0.2819 -0.0757
  638MOL0     O84108   4.217   3.508   1.793 -0.4660  0.0983  0.2853
  638MOL0     C84109   4.094   3.494   1.845 -0.1467  0.5246 -1.0943
  638MOL0     C84110   4.071   3.521   1.981  0.5302  0.0056 -0.7729
  638MOL0     C84111   3.943   3.500   2.032  1.0476  0.9430  0.5205
  638MOL0     C84112   3.832   3.454   1.954  0.8743  0.4376 -0.3978
  638MOL0     C84113   3.696   3.432   2.014  0.0840  0.0673 -0.6194
  638MOL0     O84114   3.601   3.392   1.926  0.0085  0.3115  0.0824
  638MOL0     C84115   3.484   3.353   1.982  0.9755 -0.5720 -0.1902
  638MOL0     C84116   3.374   3.441   1.976  0.0740 -0.4669 -0.6515
  638MOL0     C84117   3.241   3.408   2.015  0.2647  0.4810  0.2930
  638MOL0     C84118   3.221   3.277   2.069 -0.2736 -0.2637 -0.1413
  638MOL0     O84119   3.097   3.247   2.106  0.5324 -0.8045 -0.3046
  638MOL0     C84120   3.035   3.115   2.103 -0.3057 -0.8695 -1.2468
  638MOL0     C84121   2.893   3.142   2.122 -0.0229  0.0058  0.2684
  638MOL0     C84122   2.798   3.051   2.051  0.1513  1.2657  0.4565
  638MOL0     C84123   2.653   3.086   2.072 -0.8385 -0.4570  0.3264
  638MOL0     C84124   2.613   3.199   1.971  0.3397  0.9724  0.5499
  638MOL0     C84125   2.469   3.235   1.998  0.8475  0.1562  0.0604
  638MOL0     C84126   2.419   3.360   1.920 -0.5124  0.2511 -0.3571
  638MOL0     C84127   2.266   3.383   1.913  0.4241  0.7224  0.5783
  638MOL0    Cl84128   2.220   3.508   1.775  0.6045 -0.3628  0.1849
  638MOL0     C84129   3.331   3.199   2.099 -0.3261  0.6567  0.4829
  638MOL0     C84130   3.461   3.236   2.057 -0.1336 -0.2268 -0.1990
  638MOL0     O84131   3.684   3.453   2.140 -0.2986 -0.0640  0.4050
  638MOL0     C84132   3.863   3.425   1.815  0.1340  0.2655 -0.6620
  638MOL0     C84133   3.991   3.457   1.763 -0.4520  0.0605 -0.0335
  638MOL0     N84134   4.881   3.220   1.753  0.2629 -0.2534  1.0327
  638MOL0     N84135   4.987   3.230   1.833  0.7189  0.3960  0.2213
  638MOL0     C84136   5.791   3.843   2.373  0.1063 -0.2256  0.3787
  638MOL0     C84137   5.927   3.879   2.388 -0.6790 -0.1355  0.6440
  638MOL0     C84138   6.344   3.892   2.572 -0.0256 -0.6489 -0.8662
  638MOL0     C84139   6.359   3.942   2.696  0.1769 -0.2187 -0.1170
  638MOL0     C84140   6.476   3.982   2.745 -1.6754  0.2402  0.0024
  638MOL0     C84141   6.598   3.964   2.678 -0.2535  0.4347  0.8009
  638MOL0     O84142   6.708   3.988   2.747 -0.0295  0.3693 -0.0708
  638MOL0     C84143   6.828   4.018   2.677 -0.1425 -0.2126 -0.2780
  638MOL0     C84144   6.926   4.070   2.776 -0.3834  0.2390 -0.4209
  638MOL0     C84145   7.062   4.105   2.714 -0.2355  0.0575 -0.3345
  638MOL0     C84146   7.140   4.205   2.799  1.0180  0.3512 -0.1657
  638MOL0     C84147   7.254   4.262   2.732 -0.4835  0.0608  0.1073
  638MOL0     C84148   7.347   4.330   2.687 -0.3697 -0.8053 -0.3988
  638MOL0     C84149   6.592   3.907   2.556  0.1031  0.3585 -0.4947
  638MOL0     C84150   6.466   3.863   2.502  0.3396 -0.2390  0.3745
  638MOL0     H84151   5.920   3.983   2.711  0.0111 -2.2698  0.4507
  638MOL0     H84152   5.703   3.898   2.693  0.2883  0.2454 -0.5258
  638MOL0     H84153   5.566   3.678   2.308  2.4407  0.0578  1.2851
  638MOL0     H84154   5.516   3.859   2.294  0.0503  0.0606 -0.2779
  638MOL0     H84155   5.321   3.811   2.424 -0.2931 -0.7245  1.0317
  638MOL0     H84156   5.357   3.637   2.437  1.0703 -1.8844 -1.2979
  638MOL0     H84157   5.368   3.593   2.198  0.1270  0.6233 -1.8794
  638MOL0     H84158   5.346   3.775   2.179 -1.9402 -0.2043 -0.4793
  638MOL0     H84159   5.130   3.595   2.302  0.7290  0.2191  1.3561
  638MOL0     H84160   5.118   3.756   2.267  0.1221 -1.6284  0.5931
  638MOL0     H84161   5.142   3.721   2.032  0.1650 -0.5985  1.2316
  638MOL0     H84162   5.015   3.616   2.077 -0.4064 -2.9641 -0.9618
  638MOL0     H84163   5.293   3.530   1.983 -0.2369  0.9904  1.7471
  638MOL0     H84164   5.134   3.490   1.903 -1.2817 -2.2481 -0.0874
  638MOL0     H84165   5.238   3.294   2.021 -1.2745 -1.1541 -0.7289
  638MOL0     H84166   5.214   3.388   2.170  0.1937  3.5035 -1.5593
  638MOL0     H84167   4.969   3.386   2.140 -0.3130  2.4276 -4.5124
  638MOL0     H84168   5.028   3.214   2.117  2.5412 -1.5493 -1.8167
  638MOL0     H84169   4.807   3.476   1.950 -0.4218  2.1366 -1.9424
  638MOL0     H84170   4.648   3.300   1.638 -1.4279  0.2454  0.3614
  638MOL0     H84171   4.685   3.467   1.700  0.1087 -0.4787 -0.4351
  638MOL0     H84172   4.559   3.406   1.903  0.5166  0.8771 -0.0200
  638MOL0     H84173   4.533   3.241   1.847  1.3483 -0.4187  0.5034
  638MOL0     H84174   4.448   3.490   1.690  0.9445 -0.0578 -0.5726
  638MOL0     H84175   4.408   3.327   1.648 -3.2487  1.7370 -1.0174
  638MOL0     H84176   4.334   3.424   1.928 -0.7606 -2.3814  0.8653
  638MOL0     H84177   4.251   3.302   1.828  2.3114 -1.0868 -0.7975
  638MOL0     H84178   4.154   3.563   2.037  0.5271  0.6177 -1.2183
  638MOL0     H84179   3.916   3.532   2.132  2.7283 -1.2002  1.7601
  638MOL0     H84180   3.386   3.535   1.924  1.0099 -0.3559 -0.2590
  638MOL0     H84181   3.157   3.474   2.002  0.0244  0.6712  2.4066
  638MOL0     H84182   3.071   3.054   2.186  2.7355  2.8910  0.4791
  638MOL0     H84183   3.071   3.068   2.011  2.1119 -0.1761 -0.7252
  638MOL0     H84184   2.868   3.241   2.084 -0.9696 -1.8543 -4.6651
  638MOL0     H84185   2.870   3.136   2.229 -0.3336  1.3867  0.2876
  638MOL0     H84186   2.817   2.951   2.091  0.4012  1.1656  0.0961
  638MOL0     H84187   2.824   3.050   1.945  0.9392 -1.6292  0.6044
  638MOL0     H84188   2.590   2.999   2.051 -3.8462  1.7611 -0.5717
  638MOL0     H84189   2.643   3.124   2.175  2.4336  2.0585 -0.1229
  638MOL0     H84190   2.609   3.167   1.866 -0.0517 -0.5859  1.0096
  638MOL0     H84191   2.680   3.286   1.968 -2.1345  3.1444  2.7665
  638MOL0     H84192   2.455   3.257   2.104 -2.0685 -1.8732  0.2064
  638MOL0     H84193   2.405   3.149   1.974 -0.2380  0.4935  1.6364
  638MOL0     H84194   2.466   3.450   1.959 -0.9669  0.5943 -0.5956
  638MOL0     H84195   2.451   3.333   1.819  0.3072 -1.3976  0.2883
  638MOL0     H84196   2.227   3.418   2.008 -1.5943  0.4141 -0.1029
  638MOL0     H84197   2.223   3.284   1.897  0.7955  0.0410  3.3026
  638MOL0     H84198   3.309   3.101   2.139  0.3930  1.2233  2.3802
  638MOL0     H84199   3.553   3.179   2.062  0.7037  0.9820 -1.2259
  638MOL0     H84200   3.786   3.375   1.759  1.0817 -0.6729 -1.1622
  638MOL0     H84201   3.995   3.454   1.655  0.9363  1.8201 -0.0723
  638MOL0     H84202   5.746   3.814   2.278 -2.5762  0.0375  1.4647
  638MOL0     H84203   6.000   3.868   2.309 -0.4196  0.4658  0.8011
  638MOL0     H84204   6.274   3.964   2.759  0.8963  2.6870 -0.0159
  638MOL0     H84205   6.487   4.021   2.845  1.6439 -0.3587 -0.0445
  638MOL0     H84206   6.822   4.087   2.593  0.9988 -0.5995 -0.6996
  638MOL0     H84207   6.870   3.926   2.636  1.3494 -0.7534  2.2046
  638MOL0     H84208   6.880   4.161   2.816  2.1493  1.6077 -0.4254
  638MOL0     H84209   6.940   4.002   2.861  1.5579 -2.1801 -2.5190
  638MOL0     H84210   7.051   4.143   2.612  0.4924  1.6853  0.1583
  638MOL0     H84211   7.111   4.007   2.711  2.3349  1.2102  0.9638
  638MOL0     H84212   7.077   4.294   2.802  0.5347 -0.0030  0.5195
  638MOL0     H84213   7.152   4.181   2.905  0.2236 -3.1637 -0.7500
  638MOL0     H84214   7.422   4.403   2.664 -0.8263 -0.0954  0.3533
  638MOL0     H84215   6.684   3.888   2.501  0.7501  3.1597 -0.5217
  638MOL0     H84216   6.465   3.812   2.407  1.7240 -0.1597  0.2935
  639MOL0     O84217   5.422   5.457   3.358 -0.6792 -0.6144 -0.1710
  639MOL0     C84218   5.405   5.577   3.357  0.0467 -0.1325  0.8884
  639MOL0     O84219   5.300   5.643   3.410 -0.1152  0.1046  0.3366
  639MOL0     C84220   5.206   5.568   3.478 -0.0415  0.4502 -0.1711
  639MOL0     C84221   5.115   5.492   3.405 -0.0449  0.1774 -1.6004
  639MOL0     C84222   5.015   5.422   3.467 -0.2794  0.2515  0.5272
  639MOL0     C84223   5.005   5.421   3.605 -0.0835 -0.0739  0.5394
  639MOL0     O84224   4.906   5.367   3.674  0.0950 -0.1622 -0.4658
  639MOL0     C84225   4.803   5.302   3.604  0.3605  0.1709  1.1419
  639MOL0     C84226   4.703   5.233   3.709  0.4520 -1.3985 -0.2974
  639MOL0     C84227   4.600   5.140   3.646  0.3277 -0.1199  0.2913
  639MOL0     C84228   4.467   5.127   3.720 -0.0866  0.0680 -0.4420
  639MOL0     C84229   4.359   5.048   3.641 -0.1903  0.0174 -0.3237
  639MOL0     C84230   4.227   5.081   3.704 -0.1312  0.1025  0.2050
  639MOL0     C84231   4.115   4.989   3.669  0.8433  0.7881 -0.4510
  639MOL0     C84232   3.982   5.016   3.746 -0.2593  0.1719  0.0595
  639MOL0     N84233   3.882   4.942   3.675  0.1885  0.3394  0.4548
  639MOL0     C84234   3.827   4.844   3.747  0.2932  0.2915 -0.1764
  639MOL0     C84235   3.718   4.805   3.681  0.0115  0.2431  0.4843
  639MOL0     C84236   3.631   4.697   3.726  0.7305  0.6878  0.7804
  639MOL0     C84237   3.486   4.744   3.735  0.1225 -0.2894 -0.2565
  639MOL0     C84238   3.406   4.614   3.748 -0.3856  0.2063 -0.3749
  639MOL0     C84239   3.255   4.630   3.750  0.1975 -0.4066 -0.1635
  639MOL0     O84240   3.186   4.512   3.760 -0.7769  0.3522  0.7804
  639MOL0     C84241   3.052   4.498   3.769 -0.5419  0.1234  0.1933
  639MOL0     C84242   2.983   4.551   3.884 -0.0886  0.1885  0.3337
  639MOL0     C84243   2.840   4.539   3.885 -0.3426  0.2115 -0.3522
  639MOL0     C84244   2.768   4.495   3.774 -0.0491 -0.3370  0.6869
  639MOL0     C84245   2.618   4.493   3.777 -0.0113 -0.1526  0.3287
  639MOL0     O84246   2.549   4.457   3.667 -0.2746  0.1198 -0.6491
  639MOL0     C84247   2.411   4.431   3.668 -0.5120 -0.3870  0.4469
  639MOL0     C84248   2.360   4.327   3.736  0.3167  0.4137  0.1345
  639MOL0     C84249   2.226   4.300   3.716  0.0012 -0.0168  0.4673
  639MOL0     C84250   2.148   4.371   3.628  0.0947  0.2043 -0.2537
  639MOL0     O84251   2.013   4.322   3.629 -0.3977 -0.2356 -0.1163
  639MOL0     C84252   1.914   4.419   3.603  0.0232 -0.1743 -1.0364
  639MOL0     C84253   1.778   4.371   3.639  0.0370 -1.0259 -0.8117
  639MOL0     C84254   1.669   4.481   3.619 -0.9309 -0.1206  0.3644
  639MOL0     C84255   1.533   4.434   3.674 -0.0628 -0.3952 -0.8353
  639MOL0     C84256   1.424   4.539   3.656  0.8766 -0.8579  0.7766
  639MOL0     C84257   1.301   4.530   3.744  0.3170 -0.2091 -0.6409
  639MOL0     C84258   1.231   4.403   3.698 -0.6911  0.1571 -0.6773
  639MOL0     C84259   1.101   4.362   3.761 -0.5353 -0.1215 -1.6274
  639MOL0    Cl84260   0.963   4.487   3.729  0.1463 -0.1728  0.3190
  639MOL0     C84261   2.192   4.485   3.563  0.8243 -0.0922  1.0497
  639MOL0     C84262   2.328   4.504   3.582  0.3316 -0.0337  1.1072
  639MOL0     O84263   2.567   4.520   3.889 -0.9418 -0.0665 -0.0598
  639MOL0     C84264   2.840   4.447   3.669  0.0102 -0.0228  0.2210
  639MOL0     C84265   2.973   4.447   3.660 -0.8905  0.2804 -0.4051
  639MOL0     N84266   3.706   4.888   3.567  0.9992 -0.2307  0.2350
  639MOL0     N84267   3.803   4.976   3.567 -0.1983  1.2324  1.0723
  639MOL0     C84268   5.098   5.496   3.681 -0.0140  0.7764  0.0076
  639MOL0     C84269   5.199   5.563   3.618  0.0122 -0.1479 -0.6290
  639MOL0     C84270   5.513   5.658   3.288 -0.7376  0.2238  0.3081
  639MOL0     C84271   5.541   5.793   3.331 -0.6378 -0.2064 -0.0762
  639MOL0     C84272   5.642   5.868   3.263 -0.1511  0.1967 -0.0166
  639MOL0     C84273   5.728   5.808   3.163 -0.7971  0.5669 -0.7741
  639MOL0     O84274   5.840   5.870   3.118 -0.2610  0.1740 -0.2007
  639MOL0     C84275   5.958   5.804   3.083 -0.6252  0.2435  0.6171
  639MOL0     C84276   6.025   5.705   3.184 -1.4741 -1.0343  0.3547
  639MOL0     C84277   6.133   5.615   3.124 -0.1449  0.1018  0.5735
  639MOL0     C84278   6.084   5.525   3.011 -0.3109 -0.3117 -0.1287
  639MOL0     C84279   6.169   5.413   2.998  0.3161  1.0335 -0.0541
  639MOL0     C84280   6.224   5.310   3.002  0.8525  1.2735  0.0102
  639MOL0     C84281   5.704   5.667   3.140 -0.7699 -0.7431 -0.3527
  639MOL0     C84282   5.595   5.601   3.190  0.3414  0.6201 -0.3066
  639MOL0     H84283   5.133   5.486   3.299 -0.7852 -1.8655 -1.6549
  639MOL0     H84284   4.951   5.366   3.398  0.9343  0.6770 -1.0075
  639MOL0     H84285   4.852   5.231   3.536 -0.0975  0.9137 -0.0013
  639MOL0     H84286   4.753   5.370   3.535  1.8562  0.0075 -0.1678
  639MOL0     H84287   4.656   5.318   3.759  3.7514 -0.3072  1.2613
  639MOL0     H84288   4.765   5.192   3.789  1.8016  1.6763  0.3985
  639MOL0     H84289   4.645   5.041   3.636  0.7688  0.0785  0.3050
  639MOL0     H84290   4.580   5.176   3.545  0.8280 -0.8644 -0.0768
  639MOL0     H84291   4.480   5.088   3.822  2.4958  1.9128  0.0151
  639MOL0     H84292   4.432   5.228   3.743  0.9643  0.2257  0.5352
  639MOL0     H84293   4.378   4.941   3.654  2.5255  0.3897 -0.5270
  639MOL0     H84294   4.358   5.078   3.536  1.0887  1.5434  0.0529
  639MOL0     H84295   4.197   5.186   3.693  0.4646  0.1202 -1.6291
  639MOL0     H84296   4.238   5.060   3.811 -1.9385 -3.1684 -0.1073
  639MOL0     H84297   4.105   4.982   3.560  5.1090  2.0956 -1.0790
  639MOL0     H84298   4.146   4.885   3.681  0.0411  0.6490  0.6260
  639MOL0     H84299   3.960   5.123   3.749 -2.3866 -0.2532  2.4628
  639MOL0     H84300   4.000   4.976   3.846 -2.7991 -0.5622  0.2926
  639MOL0     H84301   3.866   4.796   3.836  1.8535  0.5048 -0.7252
  639MOL0     H84302   3.666   4.653   3.820 -0.7175  0.2027  1.1171
  639MOL0     H84303   3.640   4.618   3.651 -2.8303  1.4134 -0.6104
  639MOL0     H84304   3.450   4.787   3.641  0.1406 -0.4678 -0.3452
  639MOL0     H84305   3.472   4.812   3.820  2.4933  0.1261 -0.1345
  639MOL0     H84306   3.434   4.543   3.670  2.7611 -0.2658  1.0365
  639MOL0     H84307   3.420   4.560   3.842  0.4470  1.4822  0.2701
  639MOL0     H84308   3.222   4.678   3.658  1.3347  0.7259 -0.0115
  639MOL0     H84309   3.236   4.691   3.839 -1.5528 -1.3211  0.1346
  639MOL0     H84310   3.052   4.599   3.953  2.0892  0.3333 -1.8174
  639MOL0     H84311   2.796   4.583   3.974 -0.3108  0.2918 -0.3767
  639MOL0     H84312   2.417   4.269   3.808 -0.9595 -1.3413 -0.1828
  639MOL0     H84313   2.189   4.208   3.760 -0.3145 -0.4387 -0.6306
  639MOL0     H84314   1.903   4.453   3.500 -1.0760 -1.6075 -1.4196
  639MOL0     H84315   1.934   4.502   3.673  0.8921 -1.6433  0.5211
  639MOL0     H84316   1.761   4.330   3.738 -1.6926  2.7148  0.6596
  639MOL0     H84317   1.756   4.300   3.558  0.7237  0.7282 -2.6409
  639MOL0     H84318   1.670   4.500   3.511  0.7110 -0.6370  0.2560
  639MOL0     H84319   1.708   4.564   3.679  2.4537 -0.6424 -0.9012
  639MOL0     H84320   1.509   4.340   3.624  3.5866 -2.1705  0.3850
  639MOL0     H84321   1.549   4.423   3.782  0.8285  4.5119 -0.1942
  639MOL0     H84322   1.389   4.526   3.553 -1.2692  0.9971  1.1849
  639MOL0     H84323   1.474   4.634   3.675  1.0548 -1.2359  2.3327
  639MOL0     H84324   1.226   4.607   3.723 -0.1829 -0.6934 -0.6745
  639MOL0     H84325   1.328   4.535   3.850  1.4197 -1.5470 -0.8277
  639MOL0     H84326   1.220   4.406   3.590 -0.8530 -0.2472 -0.6770
  639MOL0     H84327   1.296   4.320   3.727 -0.4656  0.4919 -0.2163
  639MOL0     H84328   1.128   4.360   3.867  2.9780  1.7402 -2.3377
  639MOL0     H84329   1.077   4.259   3.737  2.8228 -1.2829 -0.6130
  639MOL0     H84330   2.130   4.557   3.511  0.9955 -0.0963  0.8389
  639MOL0     H84331   2.367   4.585   3.521 -1.1661 -0.0448  0.0761
  639MOL0     H84332   2.790   4.397   3.586  0.0383 -1.9823  1.3153
  639MOL0     H84333   3.025   4.410   3.572  0.3679  2.0905 -0.4805
  639MOL0     H84334   5.085   5.507   3.788 -1.7029  0.2179 -0.1143
  639MOL0     H84335   5.278   5.602   3.681 -0.9184  0.1689  0.3791
  639MOL0     H84336   5.481   5.842   3.406  0.8662  1.4398  0.1196
  639MOL0     H84337   5.679   5.962   3.302  0.7144 -0.3795  0.5902
  639MOL0     H84338   6.032   5.876   3.047  0.0976 -0.5086  0.5541
  639MOL0     H84339   5.940   5.754   2.987  2.8034  0.4561 -0.2513
  639MOL0     H84340   6.070   5.783   3.247 -0.7162 -0.4816 -0.8418
  639MOL0     H84341   5.958   5.644   3.246 -0.0463 -0.2580  2.8254
  639MOL0     H84342   6.183   5.551   3.197 -0.5317 -0.9212 -0.0404
  639MOL0     H84343   6.204   5.691   3.088 -3.8192  3.9249  0.6787
  639MOL0     H84344   5.979   5.501   3.023 -0.5532  1.2567  1.4018
  639MOL0     H84345   6.099   5.593   2.926  1.3738  0.6953  0.9097
  639MOL0     H84346   6.264   5.211   2.986 -2.3457 -0.1317  0.0383
  639MOL0     H84347   5.768   5.618   3.067  0.2708  1.2561 -0.8785
  639MOL0     H84348   5.578   5.498   3.161  0.4674  0.7730 -0.9426
  640MOL0     O84349   4.059   7.306   2.473  0.2774  0.2312  0.0208
  640MOL0     C84350   4.160   7.241   2.480 -0.5361  0.2847 -0.0513
  640MOL0     O84351   4.172   7.106   2.478  0.3423  0.2811 -0.3223
  640MOL0     C84352   4.065   7.032   2.443  0.2422 -0.3157  0.6137
  640MOL0     C84353   3.966   7.018   2.539 -0.2994  0.6793  0.2637
  640MOL0     C84354   3.853   6.946   2.507  0.0947 -0.6516 -0.1052
  640MOL0     C84355   3.842   6.875   2.381  0.0725 -0.8876  0.3900
  640MOL0     O84356   3.723   6.806   2.349  0.1215 -1.1303  0.2794
  640MOL0     C84357   3.747   6.673   2.297  1.0676 -0.2614 -0.6389
  640MOL0     C84358   3.626   6.614   2.220  0.1685  0.2126  0.2099
  640MOL0     C84359   3.545   6.712   2.139  0.4168  0.7998  0.6954
  640MOL0     C84360   3.445   6.648   2.045 -0.7337  0.3862 -0.1586
  640MOL0     C84361   3.365   6.760   1.977  0.6866 -0.1268 -0.2962
  640MOL0     C84362   3.283   6.695   1.864 -0.6575 -0.9359  0.2907
  640MOL0     C84363   3.221   6.812   1.783 -0.3634  0.1436  0.6825
  640MOL0     C84364   3.128   6.765   1.675  0.1702 -0.3673  0.3480
  640MOL0     N84365   2.999   6.715   1.728 -0.5938 -0.0355  1.0889
  640MOL0     C84366   2.891   6.793   1.767 -0.7783 -0.3816  0.1673
  640MOL0     C84367   2.798   6.709   1.812  0.0875  0.2584  0.4230
  640MOL0     C84368   2.665   6.740   1.856  1.0764  0.0567 -0.3394
  640MOL0     C84369   2.555   6.725   1.750 -0.6080 -0.0073  0.2729
  640MOL0     C84370   2.580   6.837   1.649 -0.0102  1.0816 -0.7882
  640MOL0     C84371   2.472   6.813   1.539 -0.4224  0.7038 -0.4757
  640MOL0     O84372   2.344   6.827   1.593  0.6592 -0.1038  0.4165
  640MOL0     C84373   2.237   6.861   1.513 -0.2830 -1.2533 -0.0271
  640MOL0     C84374   2.128   6.777   1.520  0.3489  0.4754  0.4063
  640MOL0     C84375   2.010   6.794   1.445 -0.1617  0.9131  0.3927
  640MOL0     C84376   2.001   6.893   1.354 -0.6201  0.2578  0.0101
  640MOL0     C84377   1.877   6.909   1.274 -0.4263 -0.0855  1.1109
  640MOL0     O84378   1.794   6.802   1.264 -0.3348  0.3004  0.6709
  640MOL0     C84379   1.670   6.811   1.209  0.3658  0.3710  0.5222
  640MOL0     C84380   1.590   6.926   1.225 -0.5389  0.6274  0.1720
  640MOL0     C84381   1.466   6.931   1.154 -0.2147 -0.0336  0.4542
  640MOL0     C84382   1.430   6.827   1.067  0.5613  0.0342  0.0143
  640MOL0     O84383   1.304   6.832   1.011 -0.2069 -0.0961 -0.7307
  640MOL0     C84384   1.199   6.822   1.118  0.2166  0.9904 -0.2576
  640MOL0     C84385   1.058   6.835   1.049 -0.0140 -0.8894  0.2163
  640MOL0     C84386   1.023   6.981   1.024  0.2929 -0.5254 -0.5013
  640MOL0     C84387   0.873   7.007   1.015  0.0489 -0.1154 -0.0404
  640MOL0     C84388   0.818   6.961   0.876  0.2507 -0.1271  0.1477
  640MOL0     C84389   0.676   7.012   0.878  0.0281  0.5978  0.6201
  640MOL0     C84390   0.592   6.962   0.991 -0.1656 -0.5897  0.8439
  640MOL0     C84391   0.448   6.965   0.943 -0.7572 -0.2911 -0.6463
  640MOL0    Cl84392   0.357   6.988   1.096 -0.0308 -0.1713  0.2640
  640MOL0     C84393   1.518   6.724   1.055 -0.9262 -0.3900  0.3445
  640MOL0     C84394   1.641   6.714   1.119  0.8628  0.2282  0.0516
  640MOL0     O84395   1.861   7.020   1.227 -0.2201  0.0803  0.5726
  640MOL0     C84396   2.106   6.985   1.345  0.1462  0.1460 -0.0714
  640MOL0     C84397   2.234   6.963   1.412  0.7676  0.1321  0.1704
  640MOL0     N84398   2.849   6.587   1.780 -0.0938  0.8211 -0.0536
  640MOL0     N84399   2.963   6.588   1.731 -0.0923  0.3759  0.3435
  640MOL0     C84400   3.956   6.881   2.292  0.5326 -1.0053 -0.0437
  640MOL0     C84401   4.069   6.953   2.321 -0.3354 -0.2029 -1.4562
  640MOL0     C84402   4.287   7.316   2.491 -0.0909  0.5724  0.3007
  640MOL0     C84403   4.289   7.459   2.500 -0.7722 -0.8022  0.0383
  640MOL0     C84404   4.408   7.526   2.513 -0.3455 -0.0075 -0.1956
  640MOL0     C84405   4.532   7.452   2.521  0.3461  0.6306  0.9008
  640MOL0     O84406   4.648   7.518   2.535 -0.2508  0.1416 -0.1047
  640MOL0     C84407   4.754   7.462   2.620  0.7531  0.0834  0.0218
  640MOL0     C84408   4.861   7.571   2.630  0.4559  0.0570 -0.1629
  640MOL0     C84409   4.974   7.529   2.724  0.0966  0.1590  0.7008
  640MOL0     C84410   4.931   7.496   2.865 -0.2803  0.6407  0.1664
  640MOL0     C84411   5.045   7.433   2.944  0.2683 -0.6884  0.1195
  640MOL0     C84412   5.145   7.383   2.995 -0.4830 -0.3402 -0.7020
  640MOL0     C84413   4.526   7.313   2.512  0.2811  0.3019  0.8284
  640MOL0     C84414   4.407   7.245   2.497 -0.0464  0.2235 -0.4501
  640MOL0     H84415   3.975   7.077   2.630 -1.8734  2.2388 -0.5272
  640MOL0     H84416   3.770   6.931   2.576 -0.5994 -0.7670 -0.9424
  640MOL0     H84417   3.770   6.605   2.379  1.1289  0.7529  0.2030
  640MOL0     H84418   3.825   6.672   2.221  1.3561 -0.9783 -0.3394
  640MOL0     H84419   3.567   6.563   2.297  1.5327  2.8587  3.2232
  640MOL0     H84420   3.670   6.537   2.155  0.0095 -0.7913  1.2675
  640MOL0     H84421   3.612   6.774   2.080  0.3277  0.3902  0.1594
  640MOL0     H84422   3.482   6.780   2.198  1.4080 -0.1445  2.9667
  640MOL0     H84423   3.504   6.590   1.974  0.2804 -0.3971  1.2836
  640MOL0     H84424   3.374   6.584   2.099  0.5648 -2.8274 -2.0272
  640MOL0     H84425   3.437   6.818   1.918  0.4545 -1.2972 -1.7864
  640MOL0     H84426   3.304   6.818   2.048  0.3897 -2.5513  1.5623
  640MOL0     H84427   3.210   6.637   1.921 -1.9645  0.0611 -0.3126
  640MOL0     H84428   3.344   6.635   1.796 -2.0037  0.5465 -2.3776
  640MOL0     H84429   3.165   6.872   1.855 -0.3152  1.4220 -0.3178
  640MOL0     H84430   3.298   6.878   1.743  0.0189 -0.4132  0.4855
  640MOL0     H84431   3.178   6.692   1.610 -0.2088 -1.8988  1.7121
  640MOL0     H84432   3.106   6.853   1.613  1.0754  0.1410  0.7209
  640MOL0     H84433   2.888   6.901   1.776 -2.2730 -0.5276  2.4048
  640MOL0     H84434   2.660   6.845   1.888 -2.1356  0.2363 -1.0999
  640MOL0     H84435   2.635   6.673   1.938  1.2413 -1.3580 -1.4052
  640MOL0     H84436   2.456   6.736   1.796 -0.5132  1.2885  0.2030
  640MOL0     H84437   2.561   6.625   1.706  0.0559  0.4927 -0.8119
  640MOL0     H84438   2.570   6.936   1.695  1.4370 -0.0412  2.1963
  640MOL0     H84439   2.678   6.829   1.601  1.0846 -1.1588  1.6224
  640MOL0     H84440   2.485   6.720   1.483  2.0612  0.7818 -0.1402
  640MOL0     H84441   2.481   6.894   1.466 -1.1139  1.9734  0.8068
  640MOL0     H84442   2.144   6.699   1.593 -0.6611  0.4602  0.6286
  640MOL0     H84443   1.923   6.729   1.450 -0.7282  1.2868 -2.6928
  640MOL0     H84444   1.625   7.011   1.283  1.7459 -1.7916  2.5972
  640MOL0     H84445   1.394   7.010   1.173 -1.0794 -0.3954 -1.1196
  640MOL0     H84446   1.207   6.905   1.189  0.0624  0.3862  0.4831
  640MOL0     H84447   1.226   6.723   1.157  2.4838  1.3815 -0.6886
  640MOL0     H84448   0.987   6.787   1.117  0.1590 -2.7313 -0.8505
  640MOL0     H84449   1.059   6.767   0.964  3.4127 -2.2273  1.1561
  640MOL0     H84450   1.074   7.007   0.930  2.3096  1.1684  0.9804
  640MOL0     H84451   1.055   7.043   1.107  3.2535 -0.4982 -1.5368
  640MOL0     H84452   0.824   6.968   1.104 -1.4120 -0.7393 -1.0917
  640MOL0     H84453   0.862   7.116   1.013 -2.7750 -0.3142 -2.6445
  640MOL0     H84454   0.817   6.852   0.868  3.2130 -0.4606  2.5502
  640MOL0     H84455   0.890   6.995   0.801  0.4629  0.8861  0.7822
  640MOL0     H84456   0.635   6.986   0.780  1.9843 -0.3777  0.0079
  640MOL0     H84457   0.679   7.121   0.888  0.7297  0.6496 -0.0496
  640MOL0     H84458   0.619   6.859   1.019  2.5697 -0.0277  0.5081
  640MOL0     H84459   0.601   7.021   1.082 -0.2452 -1.2997  1.3213
  640MOL0     H84460   0.425   6.870   0.893 -0.3723  0.0641 -1.5230
  640MOL0     H84461   0.418   7.040   0.869 -3.0247  1.2188  1.6493
  640MOL0     H84462   1.482   6.650   0.984  2.9052 -2.1758 -0.0368
  640MOL0     H84463   1.705   6.626   1.111  1.9052  0.9808 -0.0200
  640MOL0     H84464   2.096   7.072   1.280 -0.9113 -0.8477 -1.2999
  640MOL0     H84465   2.309   7.041   1.407 -0.6801  2.0702  4.3230
  640MOL0     H84466   3.960   6.837   2.193  0.0692  1.6495 -1.3244
  640MOL0     H84467   4.155   6.971   2.257 -1.7515  0.8332 -3.1966
  640MOL0     H84468   4.196   7.510   2.524 -2.3326 -3.0627 -0.8675
  640MOL0     H84469   4.399   7.635   2.517  3.1699  0.6669 -3.8425
  640MOL0     H84470   4.786   7.366   2.580 -0.4771 -0.1133 -0.5404
  640MOL0     H84471   4.702   7.433   2.712  1.1929 -2.7103 -0.5149
  640MOL0     H84472   4.903   7.599   2.533  0.9243  0.7827  0.2427
  640MOL0     H84473   4.812   7.659   2.673 -1.4445 -1.2199  0.4448
  640MOL0     H84474   5.031   7.622   2.731  0.3423  0.0670 -0.0468
  640MOL0     H84475   5.024   7.440   2.684 -0.5131 -0.8890  2.1840
  640MOL0     H84476   4.888   7.584   2.914  0.3285 -0.6691  3.3009
  640MOL0     H84477   4.860   7.414   2.875  0.7819 -0.7384 -2.6644
  640MOL0     H84478   5.233   7.339   3.038  0.0457  1.7762  0.5300
  640MOL0     H84479   4.624   7.265   2.508 -0.9028 -2.2375 -2.5487
  640MOL0     H84480   4.420   7.137   2.497 -0.5679 -0.1997 -6.3368
  641MOL0     O84481  10.490   8.975   7.808  0.0321  0.3756 -0.3012
  641MOL0     C84482  10.502   9.036   7.918  0.2030 -1.1173 -0.5749
  641MOL0     O84483  10.399   9.088   7.991 -0.4285 -1.0271 -0.2034
  641MOL0     C84484  10.268   9.110   7.953 -0.8701  0.0335  0.2638
  641MOL0     C84485  10.221   9.094   7.823  0.9587  0.1727 -0.2323
  641MOL0     C84486  10.087   9.111   7.802 -0.2064  1.1574 -0.1658
  641MOL0     C84487   9.994   9.154   7.898 -1.7728  0.7895 -0.9803
  641MOL0     O84488   9.868   9.179   7.861 -0.1097  0.2609  0.0441
  641MOL0     C84489   9.792   9.266   7.945  0.1049  0.5470  0.4696
  641MOL0     C84490   9.647   9.279   7.886 -0.2828  0.0040  0.7360
  641MOL0     C84491   9.578   9.141   7.873  0.1204  1.0362 -0.0125
  641MOL0     C84492   9.425   9.163   7.844 -0.2036  0.0820  0.1523
  641MOL0     C84493   9.333   9.054   7.907  0.0012  0.0700 -0.8443
  641MOL0     C84494   9.212   9.034   7.815  0.7431 -0.1242 -0.7064
  641MOL0     C84495   9.131   8.904   7.856 -0.5040 -0.8941 -0.3905
  641MOL0     C84496   9.089   8.910   8.006 -0.0603 -0.2779 -0.4547
  641MOL0     N84497   8.990   8.806   8.049 -0.2666 -0.7428  0.0697
  641MOL0     C84498   8.882   8.755   7.976 -0.5925 -0.1171 -0.1909
  641MOL0     C84499   8.855   8.645   8.045 -0.2996  0.5691 -0.8117
  641MOL0     C84500   8.731   8.554   8.021 -0.5446 -0.5901  0.4703
  641MOL0     C84501   8.697   8.483   8.147  0.5298  0.2637  0.6116
  641MOL0     C84502   8.601   8.374   8.123  0.4432 -0.0783 -0.0942
  641MOL0     C84503   8.460   8.408   8.082  0.3080  0.8196  0.0044
  641MOL0     O84504   8.382   8.294   8.111 -0.4048  0.0079  0.2224
  641MOL0     C84505   8.247   8.302   8.126 -0.3970  0.7282 -0.3282
  641MOL0     C84506   8.172   8.415   8.084 -0.6819 -0.3896 -0.1560
  641MOL0     C84507   8.038   8.427   8.123 -0.0338 -0.6686  0.6670
  641MOL0     C84508   7.962   8.321   8.179  0.7823 -0.0925 -0.6607
  641MOL0     C84509   7.821   8.323   8.191  0.4761  0.2337  0.3781
  641MOL0     O84510   7.758   8.206   8.231  0.5645  0.5583 -0.3625
  641MOL0     C84511   7.645   8.226   8.308  0.2450  0.2156  0.7446
  641MOL0     C84512   7.524   8.263   8.244 -0.9088  0.0904 -0.3420
  641MOL0     C84513   7.396   8.279   8.309 -0.5619  0.4111 -0.3500
  641MOL0     C84514   7.398   8.239   8.451 -0.7526  0.5572  0.4351
  641MOL0     O84515   7.285   8.227   8.524  0.1104 -0.5834  1.2990
  641MOL0     C84516   7.195   8.340   8.506 -0.3829  0.3019 -0.1400
  641MOL0     C84517   7.134   8.376   8.639  0.4952 -0.1537  0.9510
  641MOL0     C84518   7.035   8.496   8.626 -0.0157  0.6072  0.6170
  641MOL0     C84519   6.917   8.463   8.540  0.9571  0.8313 -0.5370
  641MOL0     C84520   6.827   8.584   8.527  0.6685 -0.2679  0.1453
  641MOL0     C84521   6.888   8.688   8.443 -0.8367 -0.2286  0.9261
  641MOL0     C84522   6.879   8.659   8.290 -0.1510  0.0068 -0.5277
  641MOL0     C84523   6.979   8.732   8.208 -0.1474  0.0229  0.7185
  641MOL0    Cl84524   6.950   8.700   8.030  0.2445 -0.1046 -0.8941
  641MOL0     C84525   7.523   8.206   8.516 -0.7364  0.5381 -0.2556
  641MOL0     C84526   7.639   8.194   8.441 -0.4177 -0.1597 -0.4739
  641MOL0     O84527   7.767   8.428   8.159 -0.0471  0.1405  0.8058
  641MOL0     C84528   8.033   8.211   8.214 -0.4105 -0.0471 -0.1848
  641MOL0     C84529   8.175   8.201   8.188 -0.7041  0.0931  0.1235
  641MOL0     N84530   8.948   8.629   8.144  0.8482  0.3430  0.6116
  641MOL0     N84531   9.022   8.725   8.152 -0.1259  1.0226  0.1519
  641MOL0     C84532  10.043   9.166   8.027 -0.0824  0.3927 -0.5773
  641MOL0     C84533  10.177   9.139   8.053 -0.4508  0.2370 -0.0098
  641MOL0     C84534  10.638   9.055   7.981  0.4218  0.2247  0.3139
  641MOL0     C84535  10.656   9.155   8.082  0.6991  0.5603  1.2069
  641MOL0     C84536  10.786   9.187   8.129  0.2535  0.4379  0.4135
  641MOL0     C84537  10.900   9.122   8.071 -0.2251 -0.2865  0.1762
  641MOL0     O84538  11.030   9.150   8.090  0.3488 -0.2246 -0.4390
  641MOL0     C84539  11.056   9.255   8.188  0.1141 -0.0023  0.4090
  641MOL0     C84540  11.215   9.261   8.209  0.4965 -0.7698  0.4209
  641MOL0     C84541  11.277   9.333   8.090 -0.2549  0.2665 -0.9703
  641MOL0     C84542  11.425   9.375   8.105 -0.4104  0.2544  0.1577
  641MOL0     C84543  11.496   9.324   8.229 -0.3374  0.4929  0.2427
  641MOL0     C84544  11.568   9.288   8.317 -0.2474  0.1631  0.6213
  641MOL0     C84545  10.880   9.031   7.966 -0.5140 -0.0579  0.1491
  641MOL0     C84546  10.748   8.997   7.926  0.0795  0.1101 -0.1083
  641MOL0     H84547  10.277   9.068   7.734 -2.0826 -0.0884 -2.2271
  641MOL0     H84548  10.042   9.096   7.704 -1.5425  1.2765  0.4074
  641MOL0     H84549   9.836   9.366   7.949 -1.3523  1.4651 -2.9470
  641MOL0     H84550   9.784   9.221   8.045  0.7057 -2.6693 -0.8189
  641MOL0     H84551   9.660   9.333   7.792  3.7476 -3.0491 -0.7582
  641MOL0     H84552   9.588   9.344   7.951 -2.9763 -1.7949  0.2387
  641MOL0     H84553   9.595   9.073   7.957  1.2773 -2.2774 -2.6934
  641MOL0     H84554   9.628   9.078   7.799 -2.2190 -2.3292  1.0294
  641MOL0     H84555   9.392   9.258   7.886 -0.2010  0.6938 -1.1550
  641MOL0     H84556   9.409   9.180   7.737 -0.5384 -0.2107  0.1538
  641MOL0     H84557   9.295   9.086   8.004  1.1497  0.8968 -0.6470
  641MOL0     H84558   9.392   8.962   7.915 -0.2325 -0.0302 -0.1954
  641MOL0     H84559   9.240   9.013   7.712 -0.4747 -0.2095 -1.0413
  641MOL0     H84560   9.151   9.125   7.822  1.5016  0.2987  0.8757
  641MOL0     H84561   9.042   8.886   7.794 -2.0064 -0.5764  1.5871
  641MOL0     H84562   9.208   8.829   7.833  1.4599 -0.3956  3.5978
  641MOL0     H84563   9.046   9.007   8.031  0.0777 -0.6593  1.4204
  641MOL0     H84564   9.177   8.898   8.070 -0.9168  0.5372  0.9189
  641MOL0     H84565   8.823   8.792   7.893 -0.0036 -1.6333 -1.3540
  641MOL0     H84566   8.757   8.480   7.944 -2.4109 -0.6859 -0.1106
  641MOL0     H84567   8.653   8.610   7.969 -0.5524 -2.5519 -1.8031
  641MOL0     H84568   8.657   8.546   8.227  0.1630  1.3310 -0.3962
  641MOL0     H84569   8.788   8.432   8.182  0.7806 -0.9855 -1.7019
  641MOL0     H84570   8.642   8.305   8.048  1.7972 -0.4247  0.9328
  641MOL0     H84571   8.586   8.320   8.217  1.1970 -0.9595 -0.4647
  641MOL0     H84572   8.454   8.434   7.976 -3.1494 -0.5678 -0.2464
  641MOL0     H84573   8.423   8.499   8.131 -2.3934 -1.0510  1.6963
  641MOL0     H84574   8.219   8.494   8.026 -1.1824  0.6389  0.7940
  641MOL0     H84575   7.986   8.517   8.093  0.6004 -0.0220  1.4414
  641MOL0     H84576   7.534   8.278   8.137 -1.9235 -0.8085 -0.5760
  641MOL0     H84577   7.306   8.315   8.259 -2.4948 -0.8148  2.0472
  641MOL0     H84578   7.114   8.303   8.442 -0.2648  0.3074 -0.2930
  641MOL0     H84579   7.244   8.430   8.468 -0.5405  0.8615  0.9417
  641MOL0     H84580   7.216   8.405   8.705  2.7039  3.7702 -2.9732
  641MOL0     H84581   7.089   8.290   8.689 -2.1358  1.3300  1.3081
  641MOL0     H84582   7.093   8.571   8.572 -0.2507 -0.1247 -0.6864
  641MOL0     H84583   6.998   8.530   8.723 -1.2693 -0.2293  0.4518
  641MOL0     H84584   6.941   8.427   8.440 -0.3864 -1.9703  0.0344
  641MOL0     H84585   6.855   8.380   8.578  2.6588  0.1197  0.8032
  641MOL0     H84586   6.811   8.628   8.625  0.3020  4.1953 -1.7033
  641MOL0     H84587   6.728   8.565   8.482  0.9772 -0.7875 -0.3278
  641MOL0     H84588   6.988   8.723   8.470 -1.1078  2.2702 -0.9663
  641MOL0     H84589   6.824   8.776   8.455 -1.2120 -0.3864  0.1474
  641MOL0     H84590   6.910   8.555   8.273  2.3403  0.0831  2.5929
  641MOL0     H84591   6.776   8.672   8.256  0.4392  1.2111 -1.9474
  641MOL0     H84592   7.075   8.682   8.222 -0.1942  0.0862  1.2600
  641MOL0     H84593   6.975   8.839   8.229 -0.1943  0.5886 -1.8747
  641MOL0     H84594   7.521   8.188   8.623  1.8840 -0.1542 -0.2493
  641MOL0     H84595   7.730   8.176   8.498  0.8813  0.4070 -2.2964
  641MOL0     H84596   7.986   8.128   8.266 -1.0011 -0.1932 -0.9332
  641MOL0     H84597   8.231   8.118   8.228 -3.9834 -1.0741  2.7263
  641MOL0     H84598   9.994   9.200   8.118  0.0530 -0.6028 -0.1114
  641MOL0     H84599  10.219   9.160   8.151 -1.3846 -3.4551  1.3456
  641MOL0     H84600  10.572   9.212   8.120  0.4411  0.7337  0.3867
  641MOL0     H84601  10.799   9.256   8.212 -0.1699  2.4819 -1.1559
  641MOL0     H84602  11.009   9.215   8.278 -1.4130 -0.3769 -0.4971
  641MOL0     H84603  11.014   9.350   8.152 -2.6734 -1.2818 -0.0222
  641MOL0     H84604  11.241   9.319   8.298  1.0773  0.9994 -0.8587
  641MOL0     H84605  11.253   9.160   8.228  3.0056 -0.0131 -0.1519
  641MOL0     H84606  11.213   9.421   8.072 -0.9201 -0.1770 -0.8176
  641MOL0     H84607  11.255   9.261   8.011  0.6286 -0.0734 -0.9160
  641MOL0     H84608  11.482   9.320   8.029  0.4560  2.9229 -1.2428
  641MOL0     H84609  11.441   9.482   8.089  1.3233 -0.0351 -0.2792
  641MOL0     H84610  11.643   9.241   8.378 -0.7657 -1.0544  0.3531
  641MOL0     H84611  10.962   9.003   7.900 -1.4530  1.5559 -1.8458
  641MOL0     H84612  10.733   8.927   7.845  0.6350  1.7987 -1.7346
  642MOL0     O84613   0.822   3.540   3.628 -0.5079 -0.0506 -0.8016
  642MOL0     C84614   0.846   3.566   3.507 -0.3249 -0.0093 -0.1943
  642MOL0     O84615   0.751   3.567   3.410  0.5165 -0.4021  0.1616
  642MOL0     C84616   0.626   3.530   3.440 -0.0159  0.0965  0.3785
  642MOL0     C84617   0.597   3.403   3.497  0.6105  0.2691 -0.5735
  642MOL0     C84618   0.463   3.352   3.507 -0.9291 -0.4884 -0.1577
  642MOL0     C84619   0.358   3.441   3.471  0.0020 -0.1322 -0.6189
  642MOL0     O84620   0.226   3.430   3.503  0.1773 -0.0064 -0.0683
  642MOL0     C84621   0.171   3.300   3.475 -0.4136  0.5794  0.1223
  642MOL0     C84622   0.035   3.316   3.399  0.1135 -0.1265 -0.0854
  642MOL0     C84623   0.039   3.373   3.257  0.7410 -0.0910 -0.1425
  642MOL0     C84624  -0.089   3.347   3.181  0.6414 -0.4932 -0.1150
  642MOL0     C84625  -0.218   3.407   3.244 -0.0112  0.3511  0.2711
  642MOL0     C84626  -0.333   3.381   3.153 -0.1823 -0.7225  0.5318
  642MOL0     C84627  -0.443   3.488   3.165  0.7502  0.1922  0.6565
  642MOL0     C84628  -0.493   3.500   3.314 -0.3139 -0.6549 -0.1747
  642MOL0     N84629  -0.617   3.578   3.322 -0.0655  0.0180  0.3375
  642MOL0     C84630  -0.617   3.705   3.380  0.3246 -0.4220  0.3244
  642MOL0     C84631  -0.752   3.731   3.399 -0.9701 -0.4538  0.4692
  642MOL0     C84632  -0.795   3.844   3.484  0.3282  1.2447  0.2037
  642MOL0     C84633  -0.950   3.875   3.498  0.0425 -0.6909 -0.1943
  642MOL0     C84634  -1.008   3.847   3.634  0.0205  0.8636 -0.1060
  642MOL0     C84635  -1.138   3.928   3.662 -0.7036 -0.7836  0.6153
  642MOL0     O84636  -1.177   3.904   3.799 -0.1795 -0.0802  0.4008
  642MOL0     C84637  -1.303   3.861   3.818  1.6928  0.2713 -0.6332
  642MOL0     C84638  -1.397   3.938   3.889  0.9062 -0.0456  1.0965
  642MOL0     C84639  -1.538   3.897   3.898  0.3306  0.4810 -0.5002
  642MOL0     C84640  -1.571   3.760   3.871  0.1050 -0.2442 -0.0220
  642MOL0     C84641  -1.706   3.702   3.886 -0.0583 -0.6767  1.3945
  642MOL0     O84642  -1.761   3.618   3.794 -0.0929 -0.0156  0.1005
  642MOL0     C84643  -1.861   3.534   3.835  0.1453  0.1084  0.2812
  642MOL0     C84644  -1.843   3.395   3.824  0.6860 -0.7889  0.1402
  642MOL0     C84645  -1.952   3.317   3.841  0.0682  0.0199  1.5965
  642MOL0     C84646  -2.080   3.361   3.879 -0.6394 -0.3717 -0.0084
  642MOL0     O84647  -2.181   3.267   3.889 -0.9460 -0.1287 -0.5396
  642MOL0     C84648  -2.316   3.314   3.912  0.3745 -0.1751 -0.1862
  642MOL0     C84649  -2.409   3.206   3.867 -0.6613 -0.7072 -0.4698
  642MOL0     C84650  -2.382   3.080   3.945  0.0096 -0.2565 -0.6559
  642MOL0     C84651  -2.486   2.989   3.906  0.6564  0.2612 -0.1878
  642MOL0     C84652  -2.454   2.850   3.947  0.0759 -0.1309  0.0070
  642MOL0     C84653  -2.568   2.754   3.946 -1.4643 -0.0970 -0.3814
  642MOL0     C84654  -2.639   2.742   3.816  0.1067  1.1383  0.0561
  642MOL0     C84655  -2.746   2.638   3.811  0.1157 -0.3181  0.6179
  642MOL0    Cl84656  -2.864   2.672   3.936  0.2929 -0.8133  0.3802
  642MOL0     C84657  -2.087   3.493   3.911 -0.0620 -0.1759 -0.1873
  642MOL0     C84658  -1.983   3.586   3.890 -0.5713  0.3419  0.8460
  642MOL0     O84659  -1.757   3.731   3.991 -0.6681 -0.3307  0.3291
  642MOL0     C84660  -1.473   3.670   3.819 -0.2201 -0.1351 -0.5708
  642MOL0     C84661  -1.338   3.722   3.801  0.9492  0.3958 -0.9847
  642MOL0     N84662  -0.828   3.621   3.353 -1.0657 -0.2094  0.0402
  642MOL0     N84663  -0.749   3.529   3.306 -0.3590  1.0239  0.0086
  642MOL0     C84664   0.394   3.572   3.427 -0.5391 -0.3417 -0.3582
  642MOL0     C84665   0.526   3.610   3.398  0.4953 -0.2914 -0.2050
  642MOL0     C84666   0.983   3.582   3.461 -0.1121 -0.5338 -0.2775
  642MOL0     C84667   1.080   3.549   3.552 -0.7558 -0.4654  0.4498
  642MOL0     C84668   1.213   3.561   3.511  0.4280 -0.9238 -0.1482
  642MOL0     C84669   1.254   3.611   3.382  0.4449 -0.1442  0.1765
  642MOL0     O84670   1.384   3.618   3.337  0.2277 -0.6854 -0.3120
  642MOL0     C84671   1.486   3.589   3.435 -0.8952 -0.2632 -0.8667
  642MOL0     C84672   1.619   3.591   3.364 -0.1766  0.7941 -0.0423
  642MOL0     C84673   1.639   3.733   3.307 -0.1703  0.8672 -0.5572
  642MOL0     C84674   1.774   3.796   3.317 -1.1787  0.4827  0.3086
  642MOL0     C84675   1.895   3.735   3.266  0.1627  0.1491  0.2161
  642MOL0     C84676   1.996   3.694   3.217 -0.6369  0.4806 -0.3411
  642MOL0     C84677   1.154   3.646   3.297 -0.0254  0.7934 -0.3125
  642MOL0     C84678   1.014   3.625   3.330  0.1178 -0.2191 -0.3930
  642MOL0     H84679   0.673   3.337   3.538 -2.3699 -2.0655  1.5621
  642MOL0     H84680   0.439   3.252   3.540  0.0985 -0.8217 -0.3710
  642MOL0     H84681   0.159   3.248   3.571  2.0096 -1.1922 -0.4542
  642MOL0     H84682   0.240   3.235   3.420 -1.8582  1.0110 -2.3584
  642MOL0     H84683  -0.022   3.389   3.458  1.9061  1.5353 -0.3517
  642MOL0     H84684  -0.006   3.214   3.401  3.4086 -1.5709 -0.9040
  642MOL0     H84685   0.121   3.330   3.200  0.0311 -0.2637 -1.0587
  642MOL0     H84686   0.046   3.482   3.260  0.8013  0.0353 -2.6168
  642MOL0     H84687  -0.071   3.377   3.077  0.6618 -0.5260 -0.1208
  642MOL0     H84688  -0.101   3.239   3.178  0.1991 -0.4339 -0.7224
  642MOL0     H84689  -0.214   3.515   3.261 -3.8677  0.5349  1.0164
  642MOL0     H84690  -0.227   3.378   3.349  3.0305  0.3995  0.6201
  642MOL0     H84691  -0.353   3.275   3.171 -0.8287 -0.7654 -0.3677
  642MOL0     H84692  -0.299   3.384   3.049 -3.3149 -4.0140 -0.7887
  642MOL0     H84693  -0.396   3.582   3.134  0.0570  0.4387  0.3419
  642MOL0     H84694  -0.531   3.466   3.105  0.9877  1.6538 -0.2783
  642MOL0     H84695  -0.415   3.552   3.371  0.5197 -0.0544 -1.7779
  642MOL0     H84696  -0.518   3.400   3.350  0.0440 -0.7651 -0.2285
  642MOL0     H84697  -0.533   3.761   3.418 -0.2028  0.1932  0.5980
  642MOL0     H84698  -0.741   3.929   3.442  1.4361  0.4867  0.0457
  642MOL0     H84699  -0.751   3.838   3.584  2.8973  2.2906 -0.7944
  642MOL0     H84700  -1.013   3.829   3.422 -0.3035  1.9170 -1.5784
  642MOL0     H84701  -0.959   3.979   3.465 -3.9916 -1.3938 -1.8540
  642MOL0     H84702  -1.020   3.739   3.645 -1.5632  1.0632  0.4766
  642MOL0     H84703  -0.934   3.877   3.708 -1.5692 -1.6576  2.7410
  642MOL0     H84704  -1.208   3.892   3.587 -0.6366 -1.2494  0.7723
  642MOL0     H84705  -1.122   4.035   3.645  1.5148 -1.2212 -0.4666
  642MOL0     H84706  -1.360   4.032   3.926  1.8062 -0.6283  1.7274
  642MOL0     H84707  -1.609   3.968   3.941 -3.4797 -3.4025  0.2656
  642MOL0     H84708  -1.747   3.370   3.779  1.0147  4.0933 -2.4545
  642MOL0     H84709  -1.950   3.214   3.808  2.2689  1.2949 -3.0043
  642MOL0     H84710  -2.336   3.403   3.851  1.9360 -0.1844 -0.7742
  642MOL0     H84711  -2.328   3.342   4.017  1.3778  1.0319 -0.3640
  642MOL0     H84712  -2.384   3.182   3.763  1.4792 -1.8645  0.2490
  642MOL0     H84713  -2.510   3.246   3.857  0.3548  2.4122  0.4252
  642MOL0     H84714  -2.387   3.093   4.053  4.2300  0.9380 -0.4491
  642MOL0     H84715  -2.286   3.041   3.911 -0.4803 -1.0475 -1.1735
  642MOL0     H84716  -2.576   3.034   3.949  2.7201  4.4042  0.3852
  642MOL0     H84717  -2.495   2.994   3.797  1.1353  0.8531 -0.2100
  642MOL0     H84718  -2.416   2.851   4.050  0.6773 -4.0683 -0.0277
  642MOL0     H84719  -2.370   2.806   3.893  2.0660  0.2685  2.5557
  642MOL0     H84720  -2.649   2.795   4.008 -1.3428  0.5096 -0.6099
  642MOL0     H84721  -2.534   2.656   3.979  0.6410  0.6008 -0.2709
  642MOL0     H84722  -2.678   2.839   3.781 -0.4580  1.2559  0.9795
  642MOL0     H84723  -2.559   2.710   3.749  0.2945  2.4482 -0.3948
  642MOL0     H84724  -2.706   2.539   3.836 -1.6236 -1.0126  0.7888
  642MOL0     H84725  -2.789   2.638   3.711  1.0406 -1.9868  0.1782
  642MOL0     H84726  -2.179   3.537   3.948 -0.3848  0.6535 -1.8518
  642MOL0     H84727  -1.987   3.694   3.901 -0.7884  0.5744 -1.1961
  642MOL0     H84728  -1.498   3.567   3.793  1.6684 -1.1444  1.3511
  642MOL0     H84729  -1.264   3.645   3.781 -1.0597 -1.8253 -0.2847
  642MOL0     H84730   0.313   3.640   3.404  1.5927  2.3199 -0.4157
  642MOL0     H84731   0.554   3.703   3.349  1.1942 -0.7742 -0.7507
  642MOL0     H84732   1.041   3.503   3.643 -4.1760  1.9404  0.4014
  642MOL0     H84733   1.284   3.524   3.584  0.3614  1.5741  1.3078
  642MOL0     H84734   1.469   3.493   3.484  1.5100  0.1464  0.9506
  642MOL0     H84735   1.482   3.663   3.515 -1.1762 -3.8448  2.7549
  642MOL0     H84736   1.704   3.567   3.429  0.1333 -1.0731 -1.0583
  642MOL0     H84737   1.603   3.521   3.282 -2.6633 -1.3598  2.1062
  642MOL0     H84738   1.562   3.804   3.337 -0.7492 -0.9616  2.7148
  642MOL0     H84739   1.616   3.719   3.201 -3.3751 -1.5249  0.3157
  642MOL0     H84740   1.759   3.895   3.273 -0.1597  0.9199  0.9198
  642MOL0     H84741   1.785   3.802   3.426 -0.5411  1.0524  0.2244
  642MOL0     H84742   2.092   3.667   3.178 -0.5729  0.4412 -0.1528
  642MOL0     H84743   1.186   3.680   3.200  3.0504 -1.9094 -0.3996
  642MOL0     H84744   0.939   3.629   3.252  0.8807  0.0749 -1.1211
  643MOL0     O84745   8.870   9.749   2.972  0.7030 -0.3666  0.4191
  643MOL0     C84746   8.910   9.650   3.029 -0.4277 -0.8910 -0.3490
  643MOL0     O84747   8.837   9.540   3.049 -0.0584 -0.1778  0.0463
  643MOL0     C84748   8.703   9.537   3.044  0.4796  0.3995 -0.3147
  643MOL0     C84749   8.625   9.644   3.088  0.5682  0.7430  0.1000
  643MOL0     C84750   8.484   9.637   3.084 -0.0005  0.8443 -0.3180
  643MOL0     C84751   8.427   9.514   3.059  0.1455  0.7657  0.1008
  643MOL0     O84752   8.294   9.501   3.061  0.0359  0.5559 -0.1112
  643MOL0     C84753   8.237   9.521   3.194  0.3856  1.3472 -0.6943
  643MOL0     C84754   8.113   9.442   3.216  0.4086 -0.4753  0.0079
  643MOL0     C84755   8.066   9.413   3.361  0.9203  0.5947 -0.5778
  643MOL0     C84756   7.938   9.326   3.353  0.0361  0.2524 -0.1108
  643MOL0     C84757   7.932   9.270   3.495 -0.4004  0.7719  1.0410
  643MOL0     C84758   7.840   9.144   3.483  0.5521 -0.5899  0.2274
  643MOL0     C84759   7.810   9.081   3.619  0.4173  0.3056 -0.7607
  643MOL0     C84760   7.728   8.961   3.587 -0.0663  0.1334  0.2390
  643MOL0     N84761   7.679   8.902   3.709 -0.2018 -1.1340 -0.4322
  643MOL0     C84762   7.559   8.913   3.778 -0.0838 -0.4851 -0.1572
  643MOL0     C84763   7.562   8.816   3.878  0.5060  0.1305  0.4434
  643MOL0     C84764   7.466   8.801   3.998  0.4499 -0.3628  0.0219
  643MOL0     C84765   7.319   8.761   3.951  0.5213  0.5577  0.5109
  643MOL0     C84766   7.232   8.887   3.953  0.7174  0.4697  0.6203
  643MOL0     C84767   7.081   8.864   3.952  0.4479 -0.4286 -0.6026
  643MOL0     O84768   7.015   8.999   3.978 -0.4916  0.4019  0.3866
  643MOL0     C84769   6.886   9.007   3.999  1.2549 -1.2028 -0.0243
  643MOL0     C84770   6.789   8.908   3.986 -0.0399  0.5209 -0.1091
  643MOL0     C84771   6.651   8.931   4.013  0.3214 -0.0167 -0.9478
  643MOL0     C84772   6.609   9.062   4.057 -0.8277 -0.3378  1.3220
  643MOL0     C84773   6.474   9.087   4.089  0.8216  0.6530  0.1222
  643MOL0     O84774   6.444   9.217   4.132  0.1435  0.0511 -0.1375
  643MOL0     C84775   6.311   9.242   4.144  0.2891 -0.6273 -0.2706
  643MOL0     C84776   6.244   9.310   4.034 -0.9561  1.0873 -0.2901
  643MOL0     C84777   6.108   9.329   4.030  0.2672  0.5021  0.1517
  643MOL0     C84778   6.029   9.306   4.137 -0.0814 -0.9121 -0.3420
  643MOL0     O84779   5.893   9.328   4.134 -0.1332  0.4171  0.2281
  643MOL0     C84780   5.812   9.245   4.216  0.8517 -0.5202 -0.3259
  643MOL0     C84781   5.684   9.235   4.137 -0.2150 -0.3173  0.6389
  643MOL0     C84782   5.596   9.116   4.167 -0.2276 -0.1242  0.2860
  643MOL0     C84783   5.451   9.125   4.111 -0.4911 -0.0558 -1.7828
  643MOL0     C84784   5.359   9.005   4.147 -0.2362  0.0733 -0.1324
  643MOL0     C84785   5.229   9.013   4.070  0.2523 -0.5669  0.0621
  643MOL0     C84786   5.129   8.893   4.092  0.2375 -0.1130  0.7597
  643MOL0     C84787   5.168   8.765   4.017  0.2141  0.2895 -0.2600
  643MOL0    Cl84788   5.053   8.626   4.061  0.2186  0.4972  0.3461
  643MOL0     C84789   6.093   9.251   4.250  0.3454 -0.1471 -0.2463
  643MOL0     C84790   6.234   9.217   4.257 -0.5641 -0.6408 -0.1447
  643MOL0     O84791   6.396   8.997   4.076  0.5097  0.8896 -0.1947
  643MOL0     C84792   6.705   9.157   4.068  0.4085 -0.4556  0.4928
  643MOL0     C84793   6.838   9.135   4.051 -0.0689 -0.5985 -0.4073
  643MOL0     N84794   7.678   8.744   3.859  0.1741 -0.2796 -0.8386
  643MOL0     N84795   7.753   8.805   3.772 -0.3045 -0.3527 -0.5389
  643MOL0     C84796   8.502   9.407   3.021  0.4171  0.0405 -1.1078
  643MOL0     C84797   8.643   9.418   3.011 -1.2367 -0.0572  0.1237
  643MOL0     C84798   9.063   9.648   3.071  0.5488 -0.0369 -0.1183
  643MOL0     C84799   9.140   9.763   3.098  1.0075 -0.0054  0.5567
  643MOL0     C84800   9.280   9.752   3.130  0.0527 -0.0874 -0.2588
  643MOL0     C84801   9.328   9.631   3.161 -0.4176  0.8618 -0.8306
  643MOL0     O84802   9.451   9.620   3.212 -0.2752  0.3497 -1.1127
  643MOL0     C84803   9.553   9.573   3.121 -0.0551  0.5901  0.0318
  643MOL0     C84804   9.624   9.450   3.175 -0.3599 -1.7329  0.2383
  643MOL0     C84805   9.692   9.470   3.310 -0.2159 -1.3966  0.2793
  643MOL0     C84806   9.800   9.584   3.320  0.3822  0.2103 -0.4780
  643MOL0     C84807   9.877   9.595   3.195 -0.0704 -0.3499  0.8107
  643MOL0     C84808   9.951   9.618   3.101  0.4406  0.2716 -0.6355
  643MOL0     C84809   9.255   9.512   3.129 -0.0590 -0.0041 -0.7666
  643MOL0     C84810   9.127   9.524   3.085  0.2209  0.2976 -0.2364
  643MOL0     H84811   8.677   9.733   3.122 -0.7461  0.8861  1.8757
  643MOL0     H84812   8.425   9.727   3.095  0.8560  1.8039 -2.6772
  643MOL0     H84813   8.215   9.622   3.230  0.0025  0.5972  1.2941
  643MOL0     H84814   8.301   9.483   3.274 -0.9971  0.3887  0.0113
  643MOL0     H84815   8.134   9.351   3.159  1.1641  0.3827 -1.1155
  643MOL0     H84816   8.038   9.493   3.155  1.9034  1.5962 -0.1933
  643MOL0     H84817   8.039   9.503   3.417 -1.0330  1.2820 -2.4389
  643MOL0     H84818   8.149   9.372   3.418 -0.8245 -2.1384  0.1726
  643MOL0     H84819   7.856   9.386   3.312  0.0872  0.1223 -0.4088
  643MOL0     H84820   7.952   9.247   3.279  0.5302 -1.2467  1.5074
  643MOL0     H84821   7.874   9.338   3.558 -3.0064 -0.6289  0.3212
  643MOL0     H84822   8.024   9.228   3.537  0.2881 -0.2509 -1.3294
  643MOL0     H84823   7.882   9.082   3.402  1.2151 -0.5659  0.5483
  643MOL0     H84824   7.749   9.184   3.437  2.3493  0.4116 -2.7369
  643MOL0     H84825   7.907   9.061   3.666 -1.4527  4.4499  6.3752
  643MOL0     H84826   7.746   9.151   3.673  0.8643  1.2908 -1.4732
  643MOL0     H84827   7.794   8.891   3.536 -1.1431 -1.5302  1.0438
  643MOL0     H84828   7.660   8.976   3.503  1.8350  0.3783 -1.3455
  643MOL0     H84829   7.491   8.997   3.770  1.4243  0.8344  0.3827
  643MOL0     H84830   7.466   8.899   4.048 -3.4838  0.5263 -1.3553
  643MOL0     H84831   7.512   8.721   4.056  1.3586 -0.3148 -0.6134
  643MOL0     H84832   7.278   8.694   4.027  0.1887  0.4640  0.2486
  643MOL0     H84833   7.332   8.709   3.856  0.7582  2.3784 -0.4975
  643MOL0     H84834   7.247   8.934   4.051 -0.5755  3.7819 -0.6059
  643MOL0     H84835   7.257   8.969   3.884 -1.7652  2.0904  1.4925
  643MOL0     H84836   7.058   8.809   4.044  1.1557  1.1463  0.5431
  643MOL0     H84837   7.053   8.812   3.860 -2.6056 -0.7925  0.4240
  643MOL0     H84838   6.824   8.810   3.955  0.2748  0.6609 -0.1997
  643MOL0     H84839   6.569   8.862   3.995 -1.0930  0.0644  3.8442
  643MOL0     H84840   6.310   9.317   3.948 -0.9968  1.5083 -0.2881
  643MOL0     H84841   6.076   9.370   3.935 -1.9776  1.9762  1.4616
  643MOL0     H84842   5.797   9.296   4.312  3.5665 -0.5293  0.1684
  643MOL0     H84843   5.849   9.144   4.236  1.3440  0.0980  2.2798
  643MOL0     H84844   5.711   9.231   4.031 -2.6486  0.3978 -0.0804
  643MOL0     H84845   5.621   9.323   4.153  1.3236  0.9532 -0.0275
  643MOL0     H84846   5.583   9.112   4.275 -1.7391  2.9814  0.3408
  643MOL0     H84847   5.647   9.021   4.150 -0.0530 -0.5060  2.6757
  643MOL0     H84848   5.405   9.216   4.151 -0.9485 -1.8511  2.2817
  643MOL0     H84849   5.450   9.135   4.002 -3.7050  3.4386 -1.6503
  643MOL0     H84850   5.349   9.005   4.256  1.4540 -0.6900  0.0513
  643MOL0     H84851   5.413   8.922   4.102  1.5131  1.4882 -0.7984
  643MOL0     H84852   5.246   9.036   3.964 -0.2444  0.3672  0.1673
  643MOL0     H84853   5.180   9.101   4.113  0.2200 -0.2690 -0.5763
  643MOL0     H84854   5.118   8.873   4.199 -1.0110  0.8562  0.8378
  643MOL0     H84855   5.036   8.928   4.047  1.6276  0.4510 -1.8328
  643MOL0     H84856   5.267   8.728   4.045 -0.1655 -1.0601 -0.6093
  643MOL0     H84857   5.172   8.787   3.910 -0.3425 -0.5298 -0.4581
  643MOL0     H84858   6.040   9.227   4.342 -0.1906 -1.8006 -0.9524
  643MOL0     H84859   6.276   9.156   4.337 -0.9116 -3.2876 -1.8367
  643MOL0     H84860   6.687   9.259   4.100 -0.0105  0.3018 -1.9291
  643MOL0     H84861   6.898   9.222   4.076  0.1297 -0.4619 -1.3499
  643MOL0     H84862   8.450   9.314   3.000  0.0802  0.3327 -1.6243
  643MOL0     H84863   8.696   9.333   2.969 -2.0411 -0.0415 -0.9764
  643MOL0     H84864   9.104   9.864   3.080  2.5813  0.6114  0.6769
  643MOL0     H84865   9.345   9.838   3.146 -1.8985  1.1027  1.8488
  643MOL0     H84866   9.626   9.653   3.106  0.4872 -0.0020 -0.5110
  643MOL0     H84867   9.519   9.545   3.021  0.9409 -0.3187 -0.0571
  643MOL0     H84868   9.568   9.356   3.180 -1.6749 -0.9750  0.2400
  643MOL0     H84869   9.693   9.425   3.094 -1.7981 -0.2776 -1.5272
  643MOL0     H84870   9.747   9.378   3.331  3.6792  0.9245  1.3980
  643MOL0     H84871   9.616   9.481   3.387 -1.5659 -2.2887 -0.8831
  643MOL0     H84872   9.755   9.680   3.348 -0.1680 -1.0435  3.6158
  643MOL0     H84873   9.872   9.560   3.399 -1.3102  1.0723  1.4128
  643MOL0     H84874  10.008   9.655   3.018 -1.7078  0.9525 -1.8876
  643MOL0     H84875   9.287   9.413   3.160  1.5792  0.6039 -0.4243
  643MOL0     H84876   9.061   9.438   3.075 -3.3406  2.6258  1.2086
  644MOL0     O84877   1.137   7.441   8.146  0.0291  0.7986 -0.2619
  644MOL0     C84878   1.130   7.442   8.025 -0.0544  0.5572 -0.1040
  644MOL0     O84879   1.019   7.476   7.953 -0.2561  0.0968  0.4543
  644MOL0     C84880   0.891   7.433   7.989 -1.0582  0.0334 -0.5449
  644MOL0     C84881   0.842   7.379   8.109 -0.0040  0.2710  0.4877
  644MOL0     C84882   0.703   7.350   8.110  0.2159  0.0031 -0.0478
  644MOL0     C84883   0.621   7.368   8.000 -0.3106 -0.3621 -0.5023
  644MOL0     O84884   0.483   7.357   8.004 -0.2113 -0.0113 -0.3696
  644MOL0     C84885   0.434   7.250   7.922  0.5524  0.0939 -0.4551
  644MOL0     C84886   0.291   7.234   7.961 -0.4314 -0.3308 -0.8830
  644MOL0     C84887   0.195   7.347   7.916  0.7296  1.0475 -0.1228
  644MOL0     C84888   0.046   7.304   7.950 -0.2961  0.2876 -0.2419
  644MOL0     C84889  -0.053   7.398   7.879  0.2835 -0.6860 -0.0551
  644MOL0     C84890  -0.049   7.396   7.720 -0.3831  0.6489 -0.3805
  644MOL0     C84891  -0.152   7.489   7.663  0.0863 -0.8665 -0.6364
  644MOL0     C84892  -0.298   7.449   7.662  0.9359 -0.7573 -0.1070
  644MOL0     N84893  -0.330   7.340   7.568  0.6205 -0.0828 -0.9618
  644MOL0     C84894  -0.321   7.207   7.592 -0.1868 -0.0297 -0.3574
  644MOL0     C84895  -0.384   7.151   7.481 -0.1069  0.5236 -0.0425
  644MOL0     C84896  -0.387   7.001   7.455  0.2778 -0.5703  0.3782
  644MOL0     C84897  -0.490   6.962   7.349 -0.0318  0.3289  0.2692
  644MOL0     C84898  -0.639   6.960   7.394 -0.3576 -0.2964  0.2149
  644MOL0     C84899  -0.723   6.994   7.273 -0.0519  0.4754  0.7171
  644MOL0     O84900  -0.703   6.889   7.180 -0.1621 -0.3151 -0.7130
  644MOL0     C84901  -0.818   6.837   7.132 -0.6898  0.1428  0.7919
  644MOL0     C84902  -0.824   6.695   7.148  0.0583 -0.3042  0.8676
  644MOL0     C84903  -0.929   6.619   7.093 -0.9030  0.0961 -0.3607
  644MOL0     C84904  -1.037   6.686   7.038  0.0345 -1.5644 -0.0600
  644MOL0     C84905  -1.156   6.621   6.970  0.8360  0.1074 -0.1572
  644MOL0     O84906  -1.160   6.478   6.981 -0.7028 -0.6759  0.2390
  644MOL0     C84907  -1.282   6.434   6.951  0.5361 -0.7703  0.6477
  644MOL0     C84908  -1.382   6.424   7.051 -0.5479 -1.1468 -0.0301
  644MOL0     C84909  -1.514   6.399   7.022  0.0475 -0.3577 -0.1553
  644MOL0     C84910  -1.547   6.342   6.895  0.4584 -0.5889  0.7845
  644MOL0     O84911  -1.679   6.296   6.867 -0.3725 -0.1633 -0.4262
  644MOL0     C84912  -1.800   6.347   6.916  0.2621  0.2630  0.0116
  644MOL0     C84913  -1.906   6.244   6.887 -0.3660  0.6978  0.1392
  644MOL0     C84914  -2.051   6.298   6.901  0.0550  0.0354 -0.3224
  644MOL0     C84915  -2.158   6.185   6.906  0.2112  0.2814  0.2034
  644MOL0     C84916  -2.291   6.253   6.880  0.2653 -0.0042  0.7681
  644MOL0     C84917  -2.373   6.303   7.001  0.2891  0.2663  0.8416
  644MOL0     C84918  -2.389   6.193   7.109  0.1322  0.0778 -0.1191
  644MOL0     C84919  -2.499   6.212   7.208  0.3368 -0.5452 -0.8916
  644MOL0    Cl84920  -2.483   6.073   7.325  0.0414  0.0686  0.6321
  644MOL0     C84921  -1.451   6.336   6.800  0.1065  0.7951 -0.1470
  644MOL0     C84922  -1.318   6.380   6.823  0.7474 -0.3467  0.1784
  644MOL0     O84923  -1.243   6.694   6.909 -0.8253 -0.3055  0.0773
  644MOL0     C84924  -1.035   6.838   7.041  0.2165  0.5139  0.4887
  644MOL0     C84925  -0.925   6.908   7.076 -0.0610 -0.6508  0.0508
  644MOL0     N84926  -0.440   7.247   7.406 -0.5913 -0.3315 -0.4664
  644MOL0     N84927  -0.412   7.360   7.464  0.4005  0.3773 -0.7809
  644MOL0     C84928   0.676   7.412   7.881  0.2808 -0.0535 -0.9723
  644MOL0     C84929   0.810   7.443   7.880  0.0877  0.7052  0.5073
  644MOL0     C84930   1.251   7.433   7.946  0.5542 -0.6486 -0.1499
  644MOL0     C84931   1.242   7.441   7.800  0.2520  0.8098 -0.9131
  644MOL0     C84932   1.353   7.449   7.721  0.2329 -0.5457 -0.3811
  644MOL0     C84933   1.477   7.450   7.776 -0.2160 -0.4532 -0.2599
  644MOL0     O84934   1.573   7.457   7.674  0.0977  0.6672  0.6329
  644MOL0     C84935   1.717   7.439   7.699  0.3920  0.9839 -1.0224
  644MOL0     C84936   1.790   7.418   7.563  0.3958 -1.0335  0.6814
  644MOL0     C84937   1.929   7.472   7.569 -0.1202 -0.2387 -0.2714
  644MOL0     C84938   2.026   7.375   7.643  0.4966 -0.2448 -0.1012
  644MOL0     C84939   2.166   7.410   7.640  0.2771  0.0915  0.9134
  644MOL0     C84940   2.280   7.449   7.622  0.1083 -0.0971  0.1521
  644MOL0     C84941   1.498   7.438   7.916 -0.3294 -0.1492  0.1329
  644MOL0     C84942   1.381   7.433   7.992 -0.1313 -0.6298  0.6890
  644MOL0     H84943   0.894   7.355   8.201 -1.3127 -2.9929  0.5167
  644MOL0     H84944   0.657   7.309   8.199  2.8427 -2.0013  0.4908
  644MOL0     H84945   0.497   7.162   7.935  0.4412  0.1999  0.9338
  644MOL0     H84946   0.455   7.276   7.818  1.4154 -0.8450 -0.5293
  644MOL0     H84947   0.291   7.223   8.070  1.4036 -2.5644 -1.0106
  644MOL0     H84948   0.256   7.138   7.922 -1.5904  0.2454 -1.2819
  644MOL0     H84949   0.202   7.351   7.807 -1.5493 -1.3337 -0.4593
  644MOL0     H84950   0.219   7.438   7.971  0.2756  3.4410 -3.5620
  644MOL0     H84951   0.026   7.199   7.925  2.0821 -0.2501 -0.1497
  644MOL0     H84952   0.028   7.323   8.056 -3.8568 -0.9859 -0.4856
  644MOL0     H84953  -0.026   7.501   7.905  2.0270 -1.5328  1.7459
  644MOL0     H84954  -0.153   7.368   7.909  0.1630 -0.9489 -0.6992
  644MOL0     H84955  -0.073   7.293   7.694 -0.2791  0.0723  1.5993
  644MOL0     H84956   0.052   7.426   7.691  0.6681  0.7800  2.9993
  644MOL0     H84957  -0.145   7.585   7.716  1.6130 -2.2887  1.9607
  644MOL0     H84958  -0.121   7.508   7.560 -0.1581  0.7799 -0.4440
  644MOL0     H84959  -0.361   7.533   7.631  0.7718 -0.5273  0.8204
  644MOL0     H84960  -0.330   7.429   7.765 -1.6425 -1.9688 -1.0296
  644MOL0     H84961  -0.271   7.157   7.674 -0.4811 -2.3071 -1.4673
  644MOL0     H84962  -0.414   6.944   7.544  0.9166 -0.1866  0.8253
  644MOL0     H84963  -0.290   6.978   7.411  0.4616  2.2743 -0.9554
  644MOL0     H84964  -0.479   6.859   7.315  0.4394  0.8888 -1.3882
  644MOL0     H84965  -0.478   7.020   7.257  0.6845  0.8771  0.7034
  644MOL0     H84966  -0.652   6.866   7.449  0.6227  0.8706  2.6081
  644MOL0     H84967  -0.654   7.041   7.466 -3.7158  0.2185 -0.8850
  644MOL0     H84968  -0.701   7.093   7.232 -0.3359  1.0457  1.9182
  644MOL0     H84969  -0.827   7.003   7.304 -1.0310 -3.2008 -0.9172
  644MOL0     H84970  -0.747   6.648   7.209  1.7412  1.3855  0.1196
  644MOL0     H84971  -0.937   6.511   7.104 -2.2733  0.3239  1.3776
  644MOL0     H84972  -1.351   6.463   7.147 -3.7670 -0.8162  0.9800
  644MOL0     H84973  -1.596   6.411   7.091 -1.1395  0.4030 -1.6278
  644MOL0     H84974  -1.832   6.437   6.863  0.8559  0.6356  0.2704
  644MOL0     H84975  -1.796   6.372   7.023  2.1784 -0.8255  0.2354
  644MOL0     H84976  -1.891   6.150   6.941 -1.0348 -2.5198 -4.5718
  644MOL0     H84977  -1.892   6.211   6.783 -1.1306 -0.0170  0.2448
  644MOL0     H84978  -2.074   6.358   6.813 -0.3331  2.2645  1.2191
  644MOL0     H84979  -2.058   6.367   6.986 -0.8563  0.5422 -0.7935
  644MOL0     H84980  -2.140   6.104   6.834  0.8756 -0.4091  1.1259
  644MOL0     H84981  -2.152   6.137   7.004 -0.5437  0.0783  0.1603
  644MOL0     H84982  -2.351   6.187   6.817  0.4660  1.9514 -1.6156
  644MOL0     H84983  -2.273   6.327   6.801 -0.4325 -2.1356 -1.5057
  644MOL0     H84984  -2.475   6.319   6.966  0.2821 -0.0013  0.7389
  644MOL0     H84985  -2.337   6.401   7.034  0.5152  1.1360 -1.7018
  644MOL0     H84986  -2.401   6.094   7.064 -2.2011  0.6227 -0.8267
  644MOL0     H84987  -2.299   6.188   7.170  0.0159 -2.0980 -0.0547
  644MOL0     H84988  -2.605   6.206   7.181 -0.5713 -3.5718  2.4522
  644MOL0     H84989  -2.486   6.296   7.276  0.6774 -0.7997 -0.6355
  644MOL0     H84990  -1.488   6.300   6.705 -0.8299  0.4624  0.3256
  644MOL0     H84991  -1.253   6.369   6.737  1.0885 -0.0406  0.3959
  644MOL0     H84992  -1.114   6.897   6.998  1.0170  1.3515  0.1477
  644MOL0     H84993  -0.909   7.014   7.056  1.5446 -0.5264  1.7618
  644MOL0     H84994   0.620   7.451   7.797  0.2031  2.6590  0.2131
  644MOL0     H84995   0.852   7.487   7.791  0.7831 -0.7586  0.0662
  644MOL0     H84996   1.142   7.443   7.758 -0.6814 -0.2228  1.0914
  644MOL0     H84997   1.340   7.462   7.614 -1.4276 -1.5839 -0.3525
  644MOL0     H84998   1.712   7.340   7.745  2.0114  1.5648  0.5331
  644MOL0     H84999   1.756   7.513   7.769 -2.6561  1.1578  0.6411
  644MOL0     H85000   1.796   7.321   7.514  0.4468  0.2123 -1.9642
  644MOL0     H85001   1.734   7.474   7.488  1.4433  0.4710  0.9708
  644MOL0     H85002   1.936   7.570   7.616  0.3580  0.4064 -1.6486
  644MOL0     H85003   1.966   7.488   7.468  1.6958  0.3778  0.4513
  644MOL0     H85004   1.994   7.373   7.748 -0.4531  2.1603 -0.2910
  644MOL0     H85005   2.005   7.277   7.599 -0.4545 -0.2735  0.4051
  644MOL0     H85006   2.382   7.482   7.619  0.4579 -1.0944  0.5890
  644MOL0     H85007   1.594   7.405   7.956  0.1353 -0.3808 -1.1269
  644MOL0     H85008   1.377   7.454   8.099  0.7415  0.6636  0.4929
  645MOL0     O85009   2.138   2.261   7.987 -0.4962 -0.4230  0.4000
  645MOL0     C85010   2.100   2.251   8.099 -0.5747 -0.4722  0.6014
  645MOL0     O85011   2.181   2.269   8.204 -0.1896  0.4465 -0.7021
  645MOL0     C85012   2.302   2.311   8.180 -0.2245  0.1124 -0.5521
  645MOL0     C85013   2.395   2.232   8.244  0.3314 -0.1527 -0.2484
  645MOL0     C85014   2.528   2.258   8.247  0.3132  0.3611 -0.5961
  645MOL0     C85015   2.573   2.364   8.172  0.5556 -0.3940 -0.2032
  645MOL0     O85016   2.704   2.403   8.166 -0.6774 -0.4909 -0.5246
  645MOL0     C85017   2.813   2.318   8.214  0.1784  0.0593 -0.2415
  645MOL0     C85018   2.939   2.380   8.163 -0.1921  0.1086 -0.1411
  645MOL0     C85019   2.958   2.530   8.209 -0.0804 -0.2504  0.0047
  645MOL0     C85020   3.097   2.590   8.158 -0.2129  0.0020  0.5479
  645MOL0     C85021   3.115   2.741   8.202  0.1086 -0.0229 -0.5884
  645MOL0     C85022   3.241   2.809   8.157  0.0582 -0.4391 -0.8988
  645MOL0     C85023   3.374   2.744   8.186 -0.4505  0.5025  0.0235
  645MOL0     C85024   3.484   2.827   8.125 -0.4088 -0.6256  0.6618
  645MOL0     N85025   3.494   2.969   8.167 -0.8726 -0.5470 -0.4531
  645MOL0     C85026   3.513   3.025   8.297 -0.7222  0.2064  0.8047
  645MOL0     C85027   3.497   3.156   8.275 -0.0078  0.2020  0.9263
  645MOL0     C85028   3.523   3.250   8.387 -0.3874 -0.0938  0.5457
  645MOL0     C85029   3.428   3.234   8.512  0.4094 -0.2682 -1.1002
  645MOL0     C85030   3.284   3.210   8.461 -0.1487  0.8850  0.0215
  645MOL0     C85031   3.192   3.188   8.576  0.6448 -0.2685 -0.0299
  645MOL0     O85032   3.057   3.154   8.531 -0.2382  0.0564 -0.3083
  645MOL0     C85033   2.958   3.091   8.607 -1.4005 -0.2355 -0.3060
  645MOL0     C85034   2.968   3.078   8.741  0.1909 -0.4728 -0.0214
  645MOL0     C85035   2.859   3.037   8.819 -0.7987  0.1454 -0.1256
  645MOL0     C85036   2.737   3.021   8.771  0.3431  0.1342 -0.5918
  645MOL0     C85037   2.620   2.997   8.860  1.2333  0.5167  0.1302
  645MOL0     O85038   2.509   2.968   8.797 -0.1284  0.1117 -0.3100
  645MOL0     C85039   2.387   2.933   8.862  0.1610  0.1346 -0.3781
  645MOL0     C85040   2.346   2.989   8.975  0.2688  1.1825 -0.4456
  645MOL0     C85041   2.226   2.947   9.032 -0.1963  0.2407 -0.6425
  645MOL0     C85042   2.150   2.844   8.979 -0.2286  0.8146 -0.0634
  645MOL0     O85043   2.031   2.801   9.037 -0.1518 -0.2726 -0.2417
  645MOL0     C85044   1.980   2.864   9.151  0.4393  0.3117  0.4212
  645MOL0     C85045   1.827   2.835   9.155 -0.9296  0.4890 -1.0645
  645MOL0     C85046   1.789   2.702   9.116  0.1379  0.8448  0.1167
  645MOL0     C85047   1.642   2.663   9.126 -0.0298 -0.5289  0.0216
  645MOL0     C85048   1.624   2.515   9.090  0.5971  0.0494 -0.2979
  645MOL0     C85049   1.477   2.470   9.074  0.2705 -0.7638  0.4100
  645MOL0     C85050   1.460   2.328   9.044  0.0086 -0.2293 -0.4551
  645MOL0     C85051   1.320   2.282   9.036  0.9344 -0.0303  0.1432
  645MOL0    Cl85052   1.242   2.352   8.886  0.2869 -0.0777 -0.3898
  645MOL0     C85053   2.187   2.790   8.858 -0.2056  0.4423  0.3618
  645MOL0     C85054   2.316   2.827   8.807  0.2498 -0.0885  0.2787
  645MOL0     O85055   2.635   3.007   8.987 -0.0266 -0.1966 -0.3651
  645MOL0     C85056   2.724   3.012   8.629 -0.3373 -0.1891 -0.4953
  645MOL0     C85057   2.832   3.053   8.550 -0.8099 -0.0283  0.0890
  645MOL0     N85058   3.486   3.179   8.137 -0.6440  0.4976 -0.2008
  645MOL0     N85059   3.482   3.066   8.073 -0.2199 -0.0185  0.0072
  645MOL0     C85060   2.484   2.447   8.107 -0.2682  0.8653  0.0812
  645MOL0     C85061   2.348   2.422   8.101  0.2446 -0.5703  0.4807
  645MOL0     C85062   1.955   2.226   8.113  0.3938  0.4331  0.5851
  645MOL0     C85063   1.856   2.249   8.007 -0.0533 -0.5363  0.0025
  645MOL0     C85064   1.718   2.228   8.039 -0.0483 -0.1141 -0.2081
  645MOL0     C85065   1.680   2.190   8.173 -0.6101 -0.2976  0.7927
  645MOL0     O85066   1.546   2.188   8.201 -0.4323  0.0158 -0.5831
  645MOL0     C85067   1.482   2.063   8.173 -0.1540 -0.1024  0.4783
  645MOL0     C85068   1.376   2.068   8.061  0.4233 -0.2374  0.2465
  645MOL0     C85069   1.301   2.204   8.055 -0.1042  0.2250 -0.1567
  645MOL0     C85070   1.203   2.241   8.171 -0.8133  0.1489 -0.1072
  645MOL0     C85071   1.086   2.139   8.183 -0.6505  0.0734  0.0249
  645MOL0     C85072   1.003   2.051   8.190  0.3831  0.2561 -0.2991
  645MOL0     C85073   1.776   2.153   8.267  0.0880 -0.7126  0.8822
  645MOL0     C85074   1.909   2.172   8.233  0.2243 -0.1164 -0.1567
  645MOL0     H85075   2.349   2.157   8.308 -1.2712  0.8001 -0.2208
  645MOL0     H85076   2.604   2.199   8.295  1.1313  2.8245  1.3409
  645MOL0     H85077   2.806   2.220   8.165  2.9237 -0.1307 -0.3671
  645MOL0     H85078   2.824   2.304   8.322  1.6436  0.2517 -0.3453
  645MOL0     H85079   2.946   2.392   8.054  1.9146 -2.2713 -0.3709
  645MOL0     H85080   3.024   2.317   8.190  0.6339 -0.2410 -3.1420
  645MOL0     H85081   2.956   2.533   8.318  2.6858  1.2011  0.0979
  645MOL0     H85082   2.876   2.589   8.166  0.5600 -0.0243 -0.9532
  645MOL0     H85083   3.184   2.532   8.191  3.1159  2.8183 -2.3615
  645MOL0     H85084   3.101   2.583   8.049  1.8536 -2.5226  0.7122
  645MOL0     H85085   3.103   2.748   8.310 -0.9372  1.6999 -0.7789
  645MOL0     H85086   3.039   2.801   8.151 -3.0235 -2.0907  1.2812
  645MOL0     H85087   3.249   2.906   8.205 -2.7140  0.7256 -2.5434
  645MOL0     H85088   3.220   2.829   8.052 -1.2596  4.0027  0.0346
  645MOL0     H85089   3.398   2.733   8.293  1.7805  0.3457 -0.4464
  645MOL0     H85090   3.366   2.640   8.153  0.7833  0.7153 -0.9837
  645MOL0     H85091   3.478   2.818   8.016  1.0373 -2.6905  0.6910
  645MOL0     H85092   3.581   2.778   8.143 -0.8815 -1.5903  0.6797
  645MOL0     H85093   3.525   2.974   8.392  0.5368 -0.7054  0.1879
  645MOL0     H85094   3.510   3.356   8.361 -0.2629 -0.3068 -0.4069
  645MOL0     H85095   3.622   3.230   8.429  0.3566  0.9044 -0.6353
  645MOL0     H85096   3.435   3.325   8.573  2.3084  0.4576 -2.2990
  645MOL0     H85097   3.453   3.155   8.583  0.0215 -0.1879 -0.8717
  645MOL0     H85098   3.249   3.291   8.396 -0.5337 -0.2412 -1.2141
  645MOL0     H85099   3.278   3.118   8.403 -0.0216 -0.1631  1.6148
  645MOL0     H85100   3.189   3.279   8.637  1.0190  1.2441 -2.1528
  645MOL0     H85101   3.229   3.114   8.647  0.5044  2.5437  3.2213
  645MOL0     H85102   3.058   3.094   8.800 -0.4209 -2.7552  1.6852
  645MOL0     H85103   2.877   3.025   8.925  4.4412  0.5865 -0.6933
  645MOL0     H85104   2.409   3.067   9.017  0.7274  1.4317 -1.5522
  645MOL0     H85105   2.192   2.987   9.126  2.6792 -1.8819  1.5110
  645MOL0     H85106   1.980   2.973   9.146 -0.0982  0.2622 -1.7755
  645MOL0     H85107   2.031   2.823   9.238  0.2197 -0.1770  0.3213
  645MOL0     H85108   1.764   2.906   9.099 -2.6845 -0.9873 -1.0554
  645MOL0     H85109   1.812   2.840   9.263  1.6528  0.2496 -0.6444
  645MOL0     H85110   1.851   2.635   9.178 -3.0119 -1.8074  0.6689
  645MOL0     H85111   1.812   2.686   9.011  0.8073 -1.3701  0.5512
  645MOL0     H85112   1.595   2.669   9.224  0.8666 -1.0703  0.4892
  645MOL0     H85113   1.579   2.725   9.061  2.0902  1.8640  0.0726
  645MOL0     H85114   1.660   2.454   9.174  0.7763  0.3566 -0.1500
  645MOL0     H85115   1.673   2.487   8.996  0.4001 -1.2711 -0.0302
  645MOL0     H85116   1.431   2.524   8.992 -1.2141  0.4082  1.9322
  645MOL0     H85117   1.427   2.501   9.167 -0.2795  0.3941 -0.2576
  645MOL0     H85118   1.517   2.295   8.956  1.6149  0.8540  0.1273
  645MOL0     H85119   1.505   2.276   9.129 -0.9511 -2.0339 -0.9920
  645MOL0     H85120   1.265   2.314   9.125  1.6706  3.5861 -0.5404
  645MOL0     H85121   1.315   2.173   9.030 -3.1769 -0.0521  0.7296
  645MOL0     H85122   2.128   2.708   8.818  0.2367  0.3815 -0.1718
  645MOL0     H85123   2.356   2.769   8.724 -2.2845  0.6755 -1.6010
  645MOL0     H85124   2.633   2.994   8.571 -0.1237  2.0270 -1.6097
  645MOL0     H85125   2.829   3.050   8.442 -2.1312 -1.0914  0.1319
  645MOL0     H85126   2.529   2.529   8.051  0.7531  0.4084  0.2204
  645MOL0     H85127   2.280   2.495   8.057  2.3167  1.7832  0.9776
  645MOL0     H85128   1.873   2.275   7.903 -0.1292  3.4865  0.8462
  645MOL0     H85129   1.638   2.245   7.968 -0.7013 -2.9490 -0.2834
  645MOL0     H85130   1.433   2.033   8.266  3.0931  1.0755  2.7683
  645MOL0     H85131   1.549   1.980   8.147 -2.1536 -2.7220  3.0709
  645MOL0     H85132   1.409   2.050   7.958  0.4354  1.6633 -0.1218
  645MOL0     H85133   1.306   1.989   8.091  2.7729 -1.0748  4.3709
  645MOL0     H85134   1.237   2.193   7.967 -0.4112 -3.1493  0.3459
  645MOL0     H85135   1.369   2.290   8.051  0.4949 -0.2384 -3.9517
  645MOL0     H85136   1.263   2.233   8.263 -1.7305  0.5706  0.5444
  645MOL0     H85137   1.164   2.343   8.167  0.1403  0.5930  1.1388
  645MOL0     H85138   0.926   1.976   8.187  2.9684 -2.7055  1.5766
  645MOL0     H85139   1.757   2.113   8.365 -0.5966  0.7986  1.3940
  645MOL0     H85140   1.973   2.146   8.317  1.2637 -2.0624 -1.4603
  646MOL0     O85141   0.245   1.636   8.975 -0.4364 -0.2793 -0.2413
  646MOL0     C85142   0.348   1.701   8.988 -0.3643  0.5789  0.4289
  646MOL0     O85143   0.350   1.833   9.010  0.2610 -0.5480  0.4715
  646MOL0     C85144   0.227   1.898   9.014 -0.2939  0.1500  0.1691
  646MOL0     C85145   0.159   1.945   8.906  0.6647  0.0247  0.0243
  646MOL0     C85146   0.038   2.014   8.912 -0.4968  0.7528 -0.0521
  646MOL0     C85147  -0.025   2.028   9.038  0.2362  0.3311 -0.5272
  646MOL0     O85148  -0.145   2.103   9.047 -0.0368 -0.2238 -0.2527
  646MOL0     C85149  -0.199   2.143   9.172 -0.0861 -0.6697 -0.4723
  646MOL0     C85150  -0.329   2.224   9.152 -0.6280  0.0917 -0.5624
  646MOL0     C85151  -0.345   2.320   9.028  0.3253  0.2910 -0.5553
  646MOL0     C85152  -0.489   2.394   9.014 -0.3486  0.3448 -1.0191
  646MOL0     C85153  -0.533   2.445   8.877  0.6532  0.0852 -0.4100
  646MOL0     C85154  -0.564   2.328   8.773 -0.7725 -0.3560  1.3020
  646MOL0     C85155  -0.558   2.393   8.627 -0.5318 -0.3733 -0.0217
  646MOL0     C85156  -0.603   2.300   8.516  0.2066 -0.7874  0.0945
  646MOL0     N85157  -0.736   2.246   8.529  0.5119  0.6618 -0.1358
  646MOL0     C85158  -0.841   2.271   8.444  0.5401 -0.3952 -0.1565
  646MOL0     C85159  -0.935   2.195   8.497 -0.1175  1.1620  0.3310
  646MOL0     C85160  -1.070   2.183   8.424  0.1628 -0.4479  0.7013
  646MOL0     C85161  -1.195   2.177   8.523 -0.8498 -0.2427  0.2438
  646MOL0     C85162  -1.319   2.165   8.432 -0.4403  0.3965  0.0200
  646MOL0     C85163  -1.445   2.164   8.526  0.2492  0.1609  0.4553
  646MOL0     O85164  -1.558   2.178   8.454 -0.4576 -0.4385  0.7421
  646MOL0     C85165  -1.676   2.188   8.516 -0.3175 -0.1199  0.0353
  646MOL0     C85166  -1.777   2.169   8.428 -0.3661 -0.3741  0.2711
  646MOL0     C85167  -1.907   2.167   8.476  0.4599 -0.0300 -1.1269
  646MOL0     C85168  -1.948   2.182   8.609  0.2041 -0.2806 -0.6669
  646MOL0     C85169  -2.083   2.185   8.656  0.3854 -0.8623 -0.1716
  646MOL0     O85170  -2.114   2.270   8.768 -0.0912  0.6750  0.2842
  646MOL0     C85171  -2.247   2.280   8.795  0.3493  0.9181  0.5942
  646MOL0     C85172  -2.282   2.282   8.929  1.0227  0.3571  0.2806
  646MOL0     C85173  -2.416   2.290   8.965 -0.7978  0.3760 -0.1323
  646MOL0     C85174  -2.518   2.306   8.872  0.2160  0.6905  0.9468
  646MOL0     O85175  -2.646   2.303   8.916 -0.1958 -0.3616  0.2388
  646MOL0     C85176  -2.769   2.319   8.845  1.2359 -0.7738 -0.2166
  646MOL0     C85177  -2.832   2.181   8.805  0.0817 -0.0899  0.1372
  646MOL0     C85178  -2.762   2.094   8.704 -1.2531 -0.3472 -0.0278
  646MOL0     C85179  -2.853   1.970   8.657  0.1745 -0.0894  0.2627
  646MOL0     C85180  -2.804   1.904   8.523  0.0961 -0.5613 -0.6658
  646MOL0     C85181  -2.868   1.768   8.487  0.4923  0.3279 -0.4398
  646MOL0     C85182  -2.798   1.704   8.370  0.1014 -0.0855  0.4225
  646MOL0     C85183  -2.793   1.557   8.374 -0.1034 -0.3453  0.2821
  646MOL0    Cl85184  -2.954   1.485   8.362 -0.0892 -0.1330 -0.1033
  646MOL0     C85185  -2.478   2.309   8.739  0.3179  1.0238 -0.1404
  646MOL0     C85186  -2.343   2.307   8.697  0.4630 -0.8505 -0.4348
  646MOL0     O85187  -2.164   2.123   8.579 -0.1529  0.9450  0.2085
  646MOL0     C85188  -1.840   2.203   8.690 -0.1673 -0.9912 -0.5304
  646MOL0     C85189  -1.707   2.203   8.648 -0.6122 -0.2401  0.0394
  646MOL0     N85190  -0.893   2.127   8.606  0.2248 -0.0610 -0.8614
  646MOL0     N85191  -0.769   2.151   8.626 -0.5168 -0.4249  0.0039
  646MOL0     C85192   0.037   1.960   9.148  0.1838 -0.3606  1.0324
  646MOL0     C85193   0.163   1.900   9.131  0.7052 -0.0998 -0.3394
  646MOL0     C85194   0.481   1.637   8.991  0.0694  0.0494 -0.1858
  646MOL0     C85195   0.598   1.716   8.991 -0.6599  0.3832 -0.0466
  646MOL0     C85196   0.722   1.660   8.993 -0.2660  0.3006 -0.3906
  646MOL0     C85197   0.739   1.522   8.977 -0.1475 -0.0180 -0.7035
  646MOL0     O85198   0.864   1.458   8.973  0.1356  0.2613  0.5315
  646MOL0     C85199   0.986   1.531   8.949  0.3947 -0.6310 -1.1770
  646MOL0     C85200   1.114   1.458   8.978 -0.8200  0.7981  0.4547
  646MOL0     C85201   1.158   1.353   8.878 -0.5067 -0.0133  0.3094
  646MOL0     C85202   1.302   1.296   8.884 -0.4803 -0.3421  0.2945
  646MOL0     C85203   1.302   1.162   8.945 -0.0190 -0.0911  0.0397
  646MOL0     C85204   1.339   1.059   9.011  0.1838 -0.4493 -0.6492
  646MOL0     C85205   0.632   1.442   8.968  0.0959 -0.1155 -0.8312
  646MOL0     C85206   0.500   1.500   8.972  1.3552  0.7689  0.5148
  646MOL0     H85207   0.191   1.941   8.802 -0.6156  2.5732 -0.5375
  646MOL0     H85208  -0.002   2.064   8.824 -1.4527 -0.0766 -0.1082
  646MOL0     H85209  -0.127   2.200   9.231  1.1673 -1.7260 -0.9128
  646MOL0     H85210  -0.226   2.056   9.232 -1.0734 -0.7768 -1.0435
  646MOL0     H85211  -0.345   2.284   9.242  0.5209  0.5922 -0.6808
  646MOL0     H85212  -0.402   2.142   9.150  1.5499 -2.0612  1.3444
  646MOL0     H85213  -0.320   2.262   8.938 -0.2105 -0.7490 -0.0503
  646MOL0     H85214  -0.268   2.397   9.034 -0.2156  0.7688  0.5778
  646MOL0     H85215  -0.561   2.324   9.059  2.2508 -1.8609 -0.0544
  646MOL0     H85216  -0.493   2.474   9.088 -1.0377  0.3849 -1.0882
  646MOL0     H85217  -0.449   2.500   8.833  2.2825 -2.6935 -1.0248
  646MOL0     H85218  -0.625   2.503   8.892 -0.7305 -2.1326  0.0361
  646MOL0     H85219  -0.668   2.303   8.799 -1.1537  1.5759  1.8306
  646MOL0     H85220  -0.493   2.245   8.777  2.7871  2.1333 -2.6132
  646MOL0     H85221  -0.626   2.478   8.634  0.2000  0.1286  1.3143
  646MOL0     H85222  -0.456   2.425   8.605  0.1512  0.0836  3.2857
  646MOL0     H85223  -0.537   2.213   8.511  0.6188 -0.4548 -0.4460
  646MOL0     H85224  -0.594   2.349   8.418 -0.6428 -0.3483  0.2305
  646MOL0     H85225  -0.844   2.337   8.358 -0.8742  0.4205  0.4836
  646MOL0     H85226  -1.063   2.086   8.372  5.5797  0.2657 -0.5901
  646MOL0     H85227  -1.079   2.265   8.352 -1.0383 -1.3117 -0.1774
  646MOL0     H85228  -1.189   2.261   8.593  1.4181 -0.2553  0.1187
  646MOL0     H85229  -1.185   2.083   8.578 -1.2407  0.4279  1.5192
  646MOL0     H85230  -1.327   2.244   8.356  0.0055  1.0001  0.5989
  646MOL0     H85231  -1.307   2.067   8.385  2.3255 -0.5080  2.3501
  646MOL0     H85232  -1.438   2.260   8.577  2.3392  2.0780 -3.1133
  646MOL0     H85233  -1.440   2.079   8.595  0.1044 -1.8891 -1.9241
  646MOL0     H85234  -1.756   2.139   8.327  1.0129 -2.4481  1.1234
  646MOL0     H85235  -1.991   2.152   8.408 -0.4173 -0.5180  0.0197
  646MOL0     H85236  -2.202   2.287   9.002  0.3577  0.2463  1.0172
  646MOL0     H85237  -2.439   2.279   9.071  0.9506  0.1829  0.2606
  646MOL0     H85238  -2.746   2.373   8.753  0.1505 -0.2757 -0.2089
  646MOL0     H85239  -2.842   2.383   8.895 -1.1343 -3.6177  0.2241
  646MOL0     H85240  -2.937   2.203   8.782 -0.2806  2.2809  3.3101
  646MOL0     H85241  -2.834   2.128   8.901  1.3884 -1.7358 -0.7025
  646MOL0     H85242  -2.668   2.052   8.741 -2.4353 -1.0214  2.4498
  646MOL0     H85243  -2.738   2.144   8.610 -2.2037  2.0252  0.9057
  646MOL0     H85244  -2.853   1.885   8.725 -0.4789 -1.7234 -1.6656
  646MOL0     H85245  -2.955   2.001   8.634 -0.3807 -2.5693 -0.8864
  646MOL0     H85246  -2.698   1.886   8.542  0.2068 -1.4222 -2.0525
  646MOL0     H85247  -2.807   1.976   8.441  6.0365  1.0706  0.0487
  646MOL0     H85248  -2.969   1.793   8.451 -0.0765  0.8848  1.3813
  646MOL0     H85249  -2.871   1.703   8.575  0.2576  0.8190 -0.0740
  646MOL0     H85250  -2.861   1.724   8.283 -0.5402 -0.9161  0.6833
  646MOL0     H85251  -2.698   1.745   8.352 -0.5487  1.8336  0.9321
  646MOL0     H85252  -2.755   1.527   8.473 -0.8924 -0.1521  0.6513
  646MOL0     H85253  -2.721   1.513   8.305  1.8125  0.1550  1.8392
  646MOL0     H85254  -2.562   2.336   8.676 -1.4507  0.2872  1.7760
  646MOL0     H85255  -2.305   2.305   8.595  2.0686 -1.3078  0.1492
  646MOL0     H85256  -1.853   2.212   8.797  0.0758  2.0703 -0.6582
  646MOL0     H85257  -1.629   2.222   8.720 -0.2219 -1.5761 -0.0108
  646MOL0     H85258  -0.001   1.967   9.249  0.2387  1.5450  0.9516
  646MOL0     H85259   0.223   1.868   9.216  1.0976  3.0902  0.7433
  646MOL0     H85260   0.581   1.822   9.005  0.8963  0.4360  1.9475
  646MOL0     H85261   0.807   1.726   8.999  2.0019 -2.5286  1.3837
  646MOL0     H85262   0.994   1.612   9.022  1.8793 -0.1322 -1.8692
  646MOL0     H85263   0.986   1.568   8.846  0.2205 -2.1641 -1.7533
  646MOL0     H85264   1.192   1.535   8.984  0.9874 -0.6728 -2.1020
  646MOL0     H85265   1.092   1.412   9.074 -3.7394  0.1792 -0.4027
  646MOL0     H85266   1.142   1.393   8.777 -2.1283  0.2134  0.6255
  646MOL0     H85267   1.081   1.275   8.883  2.0596 -2.7681 -0.3694
  646MOL0     H85268   1.340   1.300   8.781 -1.2364  0.3111  0.0213
  646MOL0     H85269   1.367   1.359   8.946  1.0328 -3.2406  1.8272
  646MOL0     H85270   1.369   0.966   9.056 -0.1282 -0.2018  0.0794
  646MOL0     H85271   0.650   1.336   8.952 -3.2373 -1.5669  3.2346
  646MOL0     H85272   0.414   1.434   8.963  1.3325  0.5353  2.2202
  647MOL0     O85273   8.045   0.324   6.481 -0.6046  0.9164  0.3126
  647MOL0     C85274   7.988   0.271   6.390 -0.3193 -0.0659  0.5682
  647MOL0     O85275   7.860   0.225   6.394 -0.6881 -0.0926  0.5360
  647MOL0     C85276   7.770   0.293   6.475  0.1778  0.1904 -0.4845
  647MOL0     C85277   7.780   0.424   6.525  0.8176  0.6717  0.8382
  647MOL0     C85278   7.667   0.489   6.587 -0.0340 -0.4565  0.8217
  647MOL0     C85279   7.543   0.430   6.586 -0.1039  0.1571 -0.7973
  647MOL0     O85280   7.439   0.512   6.633 -0.6448  0.5506  0.8562
  647MOL0     C85281   7.308   0.481   6.577  1.2431  0.4287 -0.2559
  647MOL0     C85282   7.224   0.613   6.607  0.3595 -0.3549 -1.0187
  647MOL0     C85283   7.184   0.677   6.478 -0.0820 -0.5518 -0.5207
  647MOL0     C85284   7.113   0.813   6.500 -0.4997  0.5871 -0.1951
  647MOL0     C85285   7.069   0.868   6.363  0.0822  1.1162 -0.0782
  647MOL0     C85286   6.992   1.003   6.365  0.4930  1.0476 -0.2977
  647MOL0     C85287   7.085   1.123   6.397 -0.2213 -0.0863 -0.3854
  647MOL0     C85288   7.001   1.252   6.440  0.0974 -0.4331 -0.3101
  647MOL0     N85289   6.922   1.227   6.556  0.5904 -0.0719 -0.4610
  647MOL0     C85290   6.961   1.149   6.661  0.3201 -0.4716 -0.8618
  647MOL0     C85291   6.852   1.153   6.740 -0.4352 -0.0969 -0.3940
  647MOL0     C85292   6.838   1.078   6.868  0.6208  0.2642  0.9129
  647MOL0     C85293   6.776   0.932   6.842 -0.2635 -0.5034 -0.3028
  647MOL0     C85294   6.648   0.927   6.768 -0.3600 -0.4662 -0.0986
  647MOL0     C85295   6.661   0.924   6.616 -0.0734 -0.0083 -0.7151
  647MOL0     O85296   6.560   0.822   6.579 -0.2665  0.0783  0.0066
  647MOL0     C85297   6.429   0.858   6.561  0.6323  0.2843  0.2897
  647MOL0     C85298   6.339   0.750   6.568 -0.4793 -0.9802  0.0963
  647MOL0     C85299   6.204   0.760   6.532  0.2470  0.5362  0.1605
  647MOL0     C85300   6.166   0.882   6.474 -0.3356 -0.2203 -0.6169
  647MOL0     C85301   6.032   0.895   6.407 -0.4239  1.0694 -0.0657
  647MOL0     O85302   5.996   1.007   6.346 -0.6215 -0.6032  0.1116
  647MOL0     C85303   5.874   1.021   6.288  0.6806 -0.5745 -0.2554
  647MOL0     C85304   5.855   1.036   6.148 -0.2474  0.6308  0.4062
  647MOL0     C85305   5.731   1.050   6.090  1.3036 -0.1162  1.1014
  647MOL0     C85306   5.610   1.051   6.169  0.0438 -1.2841 -0.2880
  647MOL0     O85307   5.483   1.057   6.125 -0.2159 -0.2859 -0.6882
  647MOL0     C85308   5.462   1.031   5.988  0.8023 -0.1223  0.3903
  647MOL0     C85309   5.309   1.014   5.954  0.5175  0.2730  0.5057
  647MOL0     C85310   5.246   1.151   5.954  0.0360 -0.6240  0.3201
  647MOL0     C85311   5.106   1.149   5.919  0.5116 -0.8087  0.6582
  647MOL0     C85312   5.016   1.105   6.034  0.4107 -0.6731  0.0858
  647MOL0     C85313   4.869   1.149   6.027  0.3833 -0.2855 -0.6730
  647MOL0     C85314   4.785   1.106   6.146  0.8527 -0.4854  0.8424
  647MOL0     C85315   4.643   1.189   6.138  0.0997  0.4286 -0.0327
  647MOL0    Cl85316   4.554   1.170   6.296  0.2043 -0.2718  0.1076
  647MOL0     C85317   5.630   1.044   6.311  0.2452  1.2958  0.1924
  647MOL0     C85318   5.755   1.028   6.368  0.2497  0.7828  0.0929
  647MOL0     O85319   5.977   0.787   6.384  0.0339 -0.0327  0.2491
  647MOL0     C85320   6.247   0.997   6.481  0.8662 -0.1801 -0.1757
  647MOL0     C85321   6.380   0.980   6.517 -0.9360  0.2555 -0.3722
  647MOL0     N85322   6.755   1.239   6.692 -0.2730  0.1342  0.1818
  647MOL0     N85323   6.791   1.271   6.572 -0.2733 -0.3286 -0.3389
  647MOL0     C85324   7.536   0.290   6.554  0.2219 -0.5383 -0.4111
  647MOL0     C85325   7.644   0.226   6.491  0.2315  0.3386  0.1283
  647MOL0     C85326   8.067   0.246   6.281 -0.0830  0.4832  0.3114
  647MOL0     C85327   8.021   0.158   6.174  1.3439  0.2144 -0.4887
  647MOL0     C85328   8.108   0.126   6.069 -0.2809 -1.1076  0.3236
  647MOL0     C85329   8.237   0.186   6.057  0.0861  0.1134  0.0502
  647MOL0     O85330   8.330   0.155   5.965 -0.1277 -0.0625 -0.3376
  647MOL0     C85331   8.316   0.035   5.895  0.7288 -0.6173  0.0183
  647MOL0     C85332   8.423   0.027   5.788  0.6358  0.0467  0.9687
  647MOL0     C85333   8.564  -0.017   5.837  0.1879  1.1251 -0.3765
  647MOL0     C85334   8.683   0.010   5.743 -0.1766 -0.1088 -0.7021
  647MOL0     C85335   8.690  -0.086   5.634 -0.3121 -0.7035  0.7677
  647MOL0     C85336   8.698  -0.162   5.534  0.4043 -0.1291 -1.0732
  647MOL0     C85337   8.283   0.267   6.161 -0.1549  0.2426  0.3871
  647MOL0     C85338   8.198   0.298   6.269  0.3407  0.0141 -0.4570
  647MOL0     H85339   7.867   0.487   6.515  2.5343 -1.6164  0.5422
  647MOL0     H85340   7.677   0.594   6.611  1.3973 -1.0934  3.3529
  647MOL0     H85341   7.260   0.402   6.636  0.4219  0.4717 -0.8495
  647MOL0     H85342   7.320   0.452   6.473  3.1479 -1.0857  0.3109
  647MOL0     H85343   7.294   0.684   6.652  0.7029 -0.5533 -1.2322
  647MOL0     H85344   7.140   0.595   6.674 -2.1682 -0.6384 -4.0060
  647MOL0     H85345   7.114   0.609   6.431 -0.3546 -0.4129 -0.3158
  647MOL0     H85346   7.276   0.696   6.421 -0.9733 -0.9208 -2.1316
  647MOL0     H85347   7.029   0.787   6.565  1.0043  0.2108  1.6725
  647MOL0     H85348   7.177   0.885   6.551 -1.6824  1.3895  0.1788
  647MOL0     H85349   6.986   0.804   6.333 -1.0634  2.0133  1.1167
  647MOL0     H85350   7.152   0.856   6.291  0.8868  2.0318  0.6677
  647MOL0     H85351   6.905   0.990   6.431  0.1603  3.3514 -0.2056
  647MOL0     H85352   6.943   1.034   6.272 -1.7203  4.0517  1.6714
  647MOL0     H85353   7.154   1.114   6.481  0.7054 -0.6337 -1.1811
  647MOL0     H85354   7.158   1.146   6.319 -0.3385  0.0863 -0.4465
  647MOL0     H85355   6.933   1.289   6.363 -0.3899 -3.1137 -1.2783
  647MOL0     H85356   7.076   1.331   6.456 -0.5872  0.8049 -2.6834
  647MOL0     H85357   7.048   1.088   6.683  0.6299 -0.9751 -3.2502
  647MOL0     H85358   6.765   1.129   6.931 -0.7684 -0.3628 -0.1287
  647MOL0     H85359   6.937   1.072   6.915 -0.3263  0.8025  3.0653
  647MOL0     H85360   6.765   0.898   6.946 -3.7584  0.1062 -0.3591
  647MOL0     H85361   6.850   0.867   6.794 -0.2935 -0.3961 -0.4951
  647MOL0     H85362   6.604   0.831   6.797 -1.8018 -0.8077 -2.9899
  647MOL0     H85363   6.593   1.014   6.804 -0.7008  0.7474 -3.1947
  647MOL0     H85364   6.762   0.888   6.592  0.6415  1.0290  0.5655
  647MOL0     H85365   6.654   1.030   6.591  1.3601  0.4325  0.5881
  647MOL0     H85366   6.370   0.656   6.612  2.1700  0.2353  1.0333
  647MOL0     H85367   6.145   0.670   6.542  1.2363 -0.0850  0.5898
  647MOL0     H85368   5.948   1.040   6.091  0.4870 -0.7844  1.4258
  647MOL0     H85369   5.716   1.063   5.983  0.1399 -1.4384  1.0767
  647MOL0     H85370   5.514   0.939   5.961  0.8918  0.1027 -0.2273
  647MOL0     H85371   5.501   1.112   5.925 -0.0827 -0.7061 -0.9647
  647MOL0     H85372   5.255   0.946   6.020 -0.1190 -1.5366 -1.7368
  647MOL0     H85373   5.302   0.972   5.853  2.4057 -0.1093  0.4800
  647MOL0     H85374   5.295   1.214   5.879 -0.0644 -2.2951 -1.1994
  647MOL0     H85375   5.257   1.199   6.052 -0.9253 -0.8046  0.5193
  647MOL0     H85376   5.086   1.252   5.887  2.5957 -0.4053  0.5603
  647MOL0     H85377   5.085   1.073   5.843 -1.4010  0.3601 -0.0673
  647MOL0     H85378   5.049   1.151   6.127  1.5298  0.3546 -0.7972
  647MOL0     H85379   5.016   0.996   6.045  0.5273 -0.8195 -1.1766
  647MOL0     H85380   4.827   1.100   5.938  1.8308 -2.5050 -0.2180
  647MOL0     H85381   4.870   1.258   6.021 -0.2089 -0.3163 -1.6129
  647MOL0     H85382   4.765   0.998   6.153  0.1733 -0.4356 -0.1327
  647MOL0     H85383   4.849   1.141   6.227  3.4321  0.5508 -1.4930
  647MOL0     H85384   4.583   1.153   6.054  1.5421 -3.6689  0.4280
  647MOL0     H85385   4.656   1.297   6.136 -1.8611  0.9394  3.9368
  647MOL0     H85386   5.542   1.051   6.374 -1.3983  0.5479 -1.8719
  647MOL0     H85387   5.767   1.038   6.475 -2.9060  0.8338  0.5574
  647MOL0     H85388   6.209   1.092   6.448  2.4849  0.3163 -0.7043
  647MOL0     H85389   6.447   1.064   6.500  0.3078 -0.1171  2.2908
  647MOL0     H85390   7.436   0.246   6.554  0.4089 -0.9818 -1.3678
  647MOL0     H85391   7.637   0.125   6.451  2.2608  0.1588  0.0951
  647MOL0     H85392   7.927   0.106   6.167  1.8419 -0.8010  0.1559
  647MOL0     H85393   8.072   0.062   5.989 -0.4247  1.0119 -1.3955
  647MOL0     H85394   8.218   0.028   5.847  1.1630  2.7195 -1.6679
  647MOL0     H85395   8.324  -0.052   5.961 -2.3307 -1.6043 -0.7240
  647MOL0     H85396   8.379  -0.046   5.720 -2.1442  0.3947  2.2268
  647MOL0     H85397   8.430   0.128   5.747  1.7879 -0.0114  0.9808
  647MOL0     H85398   8.570  -0.123   5.863  2.1749  0.3943 -3.3711
  647MOL0     H85399   8.585   0.043   5.926  0.9322 -0.4037  0.5118
  647MOL0     H85400   8.677   0.109   5.698 -1.8752  1.3790  2.5284
  647MOL0     H85401   8.770  -0.006   5.807 -0.7882 -0.7008 -0.0032
  647MOL0     H85402   8.708  -0.244   5.465  2.3903 -0.6643 -0.2347
  647MOL0     H85403   8.387   0.299   6.157  0.5922 -2.1035 -0.8422
  647MOL0     H85404   8.247   0.355   6.348  1.3603  0.6580 -1.5226
  648MOL0     O85405   4.909   1.883   6.209  0.0069  0.3049 -0.6463
  648MOL0     C85406   4.962   1.911   6.103 -0.6127 -0.0615  0.1293
  648MOL0     O85407   4.899   1.969   6.001  0.3955 -0.5289  0.2088
  648MOL0     C85408   4.763   1.985   5.988 -0.1995  0.7987 -0.0249
  648MOL0     C85409   4.719   2.083   5.900  0.4229 -0.7398  0.1948
  648MOL0     C85410   4.586   2.097   5.861 -0.3525  0.2303  0.1223
  648MOL0     C85411   4.492   2.010   5.911  0.2481  0.1662 -1.1361
  648MOL0     O85412   4.364   2.033   5.866  0.0386 -0.1862  0.3264
  648MOL0     C85413   4.261   1.955   5.917  0.0314  1.1939  0.3158
  648MOL0     C85414   4.126   2.018   5.867 -0.1563 -0.1751 -0.0816
  648MOL0     C85415   4.022   1.943   5.950  0.1682 -0.4685  0.3690
  648MOL0     C85416   3.882   1.979   5.895 -0.6732  0.3390  0.1222
  648MOL0     C85417   3.775   1.901   5.957  0.4058  0.3036  0.6383
  648MOL0     C85418   3.633   1.937   5.916  0.4228  0.4180  0.4934
  648MOL0     C85419   3.532   1.853   5.991  0.3979 -0.2843  0.8912
  648MOL0     C85420   3.398   1.873   5.923 -0.2889 -0.3030 -0.5902
  648MOL0     N85421   3.287   1.854   6.022 -0.0490 -0.3991 -0.6666
  648MOL0     C85422   3.242   1.744   6.089  1.0209 -0.1543  1.3892
  648MOL0     C85423   3.152   1.787   6.180  0.6375 -0.3770 -1.0138
  648MOL0     C85424   3.063   1.686   6.260  0.3367  0.2599 -0.2529
  648MOL0     C85425   2.913   1.715   6.252  0.0246 -0.5368  0.9898
  648MOL0     C85426   2.839   1.622   6.351  0.3945  0.1503  0.0825
  648MOL0     C85427   2.697   1.595   6.307  0.4060 -0.2931 -0.0579
  648MOL0     O85428   2.634   1.553   6.429 -0.5417 -0.4696  0.4453
  648MOL0     C85429   2.497   1.538   6.431 -0.1564  0.1668  0.2397
  648MOL0     C85430   2.401   1.581   6.336  1.1592 -0.4262 -0.2799
  648MOL0     C85431   2.266   1.574   6.367 -0.1545 -0.2092 -1.1950
  648MOL0     C85432   2.216   1.516   6.486  0.3487 -0.3180  0.4524
  648MOL0     C85433   2.072   1.494   6.515 -0.1211  0.3394 -0.4191
  648MOL0     O85434   2.027   1.429   6.626 -0.0069 -0.0894 -0.0631
  648MOL0     C85435   1.891   1.418   6.653 -0.4444  0.5104 -0.5953
  648MOL0     C85436   1.832   1.511   6.739 -0.5417  0.4003  0.6786
  648MOL0     C85437   1.695   1.502   6.782  0.1878  0.1131 -1.1593
  648MOL0     C85438   1.616   1.399   6.737 -0.7820 -0.1112 -0.4850
  648MOL0     O85439   1.488   1.367   6.766 -0.1379 -0.1327 -0.0310
  648MOL0     C85440   1.445   1.437   6.881  0.0842 -0.1013 -0.0543
  648MOL0     C85441   1.321   1.368   6.943  0.6895 -0.2426 -0.0423
  648MOL0     C85442   1.274   1.429   7.071  0.0750 -0.2742  0.7868
  648MOL0     C85443   1.143   1.365   7.119 -0.5370 -0.2726  0.5217
  648MOL0     C85444   1.090   1.438   7.242 -0.3252  0.1253 -0.6442
  648MOL0     C85445   1.031   1.584   7.217 -0.4794 -0.5498 -0.2337
  648MOL0     C85446   0.902   1.595   7.136  0.4047  0.1876  0.1730
  648MOL0     C85447   0.788   1.513   7.190 -0.3004  0.0325 -0.6583
  648MOL0    Cl85448   0.639   1.556   7.094  0.0416 -0.0446 -0.2215
  648MOL0     C85449   1.668   1.318   6.638 -0.0307  0.3356  0.9660
  648MOL0     C85450   1.805   1.327   6.594  1.1532  0.5304 -0.0469
  648MOL0     O85451   1.995   1.538   6.428 -0.1416  0.7082  0.9100
  648MOL0     C85452   2.313   1.465   6.571 -0.2067  0.6009  0.0701
  648MOL0     C85453   2.447   1.469   6.542 -0.0273  0.0199  0.2166
  648MOL0     N85454   3.143   1.923   6.181  0.2156  0.5052  0.0190
  648MOL0     N85455   3.222   1.962   6.089 -1.0093  0.7329  0.7965
  648MOL0     C85456   4.525   1.912   6.003 -0.8408 -0.5740 -0.7870
  648MOL0     C85457   4.660   1.901   6.043 -0.3553 -0.7872  1.0844
  648MOL0     C85458   5.113   1.893   6.092  0.0683 -0.1756  0.3581
  648MOL0     C85459   5.192   1.825   6.188  0.5802  0.1914  0.1210
  648MOL0     C85460   5.332   1.816   6.179  0.2353 -0.1404 -0.7775
  648MOL0     C85461   5.393   1.866   6.062 -0.9707 -0.3999  0.3244
  648MOL0     O85462   5.524   1.867   6.034 -0.1710  0.0210 -0.5238
  648MOL0     C85463   5.623   1.816   6.127  0.1459 -0.1278 -0.0456
  648MOL0     C85464   5.659   1.929   6.226  1.7735 -0.5621  1.2756
  648MOL0     C85465   5.772   1.878   6.315  0.6192 -0.6288 -0.4860
  648MOL0     C85466   5.720   1.768   6.406 -0.2150 -0.1733  0.4470
  648MOL0     C85467   5.799   1.785   6.530  0.5456 -1.0272  0.2697
  648MOL0     C85468   5.844   1.789   6.645 -0.3165 -0.6839 -0.5462
  648MOL0     C85469   5.314   1.928   5.964 -0.8388 -0.3976  0.9365
  648MOL0     C85470   5.173   1.937   5.972  0.3974  0.1421 -0.3398
  648MOL0     H85471   4.796   2.144   5.854  0.2398 -0.2101  0.5832
  648MOL0     H85472   4.562   2.157   5.774 -2.9025 -0.8634 -0.0228
  648MOL0     H85473   4.267   1.960   6.027  2.2302  2.2694  0.2141
  648MOL0     H85474   4.281   1.857   5.873 -2.8350  0.4312  0.5135
  648MOL0     H85475   4.109   1.997   5.761  0.5144 -2.5643  0.2266
  648MOL0     H85476   4.118   2.126   5.886 -0.5978  0.2928 -2.6035
  648MOL0     H85477   4.038   1.978   6.052 -2.2024 -1.8858  1.3144
  648MOL0     H85478   4.046   1.837   5.935  0.8409 -0.0796 -1.4713
  648MOL0     H85479   3.872   2.086   5.911  1.5003  0.2725  2.6499
  648MOL0     H85480   3.882   1.975   5.785  0.9062  4.1222 -0.1716
  648MOL0     H85481   3.776   1.923   6.064  1.6330  1.3363  0.4345
  648MOL0     H85482   3.787   1.794   5.936  0.8534  0.4432  0.1575
  648MOL0     H85483   3.625   1.918   5.809 -0.8051  1.3431  0.4044
  648MOL0     H85484   3.622   2.044   5.934  2.0066  0.4679  1.3739
  648MOL0     H85485   3.569   1.750   5.991 -0.3618 -0.5699  0.5401
  648MOL0     H85486   3.519   1.878   6.096  0.2206 -0.3302  0.8801
  648MOL0     H85487   3.385   1.791   5.852 -2.0159  1.3750 -2.3120
  648MOL0     H85488   3.380   1.968   5.871 -0.0650  0.0562 -0.0207
  648MOL0     H85489   3.267   1.642   6.062  2.3028 -0.5004  3.6498
  648MOL0     H85490   3.091   1.692   6.366 -3.9943  2.8470  1.0077
  648MOL0     H85491   3.085   1.588   6.215  2.5065  0.2144  0.7772
  648MOL0     H85492   2.894   1.703   6.145  0.9376  0.8740  0.6509
  648MOL0     H85493   2.891   1.820   6.273 -0.6198 -0.8968  2.1989
  648MOL0     H85494   2.881   1.522   6.366 -0.1029  0.1387  1.6266
  648MOL0     H85495   2.836   1.677   6.446 -1.8343  3.5359 -1.7143
  648MOL0     H85496   2.688   1.521   6.227 -1.7990 -0.5871  0.3960
  648MOL0     H85497   2.655   1.686   6.264 -1.5066 -1.0601  0.0987
  648MOL0     H85498   2.417   1.634   6.242 -3.2458  1.0112 -0.4820
  648MOL0     H85499   2.199   1.618   6.293  1.3289  0.3041 -2.2893
  648MOL0     H85500   1.907   1.584   6.767  0.0424  0.5429 -1.1373
  648MOL0     H85501   1.667   1.584   6.848  1.1286 -1.3564  1.1844
  648MOL0     H85502   1.415   1.540   6.857 -0.4139 -0.3124 -0.3499
  648MOL0     H85503   1.514   1.422   6.964 -1.3758  1.2432  1.4747
  648MOL0     H85504   1.353   1.268   6.974  1.4664  0.0784  0.1982
  648MOL0     H85505   1.242   1.368   6.866  2.7187  0.0886 -2.2496
  648MOL0     H85506   1.255   1.536   7.058 -0.4369  0.3984  5.4711
  648MOL0     H85507   1.358   1.417   7.140  2.7660  1.6396 -1.8908
  648MOL0     H85508   1.070   1.352   7.039  0.6856 -1.8406 -0.3849
  648MOL0     H85509   1.159   1.262   7.150 -0.2151  0.2638  2.2612
  648MOL0     H85510   1.173   1.462   7.309  1.5021 -0.1311 -2.7166
  648MOL0     H85511   1.016   1.376   7.295  0.0076  0.6479  0.4545
  648MOL0     H85512   1.100   1.653   7.167  0.1796 -1.0202 -0.0029
  648MOL0     H85513   1.008   1.613   7.320  0.1925 -3.7083  0.9294
  648MOL0     H85514   0.874   1.699   7.120 -0.0851  0.1528  0.7785
  648MOL0     H85515   0.933   1.551   7.040  1.0176 -2.9783  1.6956
  648MOL0     H85516   0.771   1.534   7.296 -1.8421  5.0821 -1.6047
  648MOL0     H85517   0.815   1.408   7.180  1.1110  0.3375 -0.2926
  648MOL0     H85518   1.599   1.238   6.612 -0.7271  1.6821 -1.6882
  648MOL0     H85519   1.835   1.250   6.524 -1.1603 -2.6438  2.1514
  648MOL0     H85520   2.266   1.423   6.659 -3.5369  2.3209 -0.7280
  648MOL0     H85521   2.501   1.416   6.620 -0.4905  0.1852  0.6597
  648MOL0     H85522   4.445   1.855   6.050  0.2236 -0.7232  0.9364
  648MOL0     H85523   4.685   1.831   6.123  0.4756 -0.0041  1.5292
  648MOL0     H85524   5.137   1.794   6.276  0.8031  0.8644  0.5030
  648MOL0     H85525   5.388   1.779   6.264  0.9572 -1.5368 -1.8284
  648MOL0     H85526   5.707   1.790   6.060 -0.3828  1.8806 -1.5747
  648MOL0     H85527   5.586   1.727   6.178 -0.4068 -0.8212 -1.6094
  648MOL0     H85528   5.689   2.018   6.170 -1.5659 -0.5325 -0.7535
  648MOL0     H85529   5.569   1.952   6.284  1.2324  3.0975 -0.7894
  648MOL0     H85530   5.820   1.959   6.372  1.1807 -1.1564 -0.1927
  648MOL0     H85531   5.840   1.834   6.243 -0.7012 -0.9091 -1.6026
  648MOL0     H85532   5.612   1.774   6.423 -0.0481  2.3585  0.9851
  648MOL0     H85533   5.750   1.673   6.360  1.2327 -0.4063  1.7867
  648MOL0     H85534   5.888   1.792   6.742 -0.3250 -1.4071 -0.5093
  648MOL0     H85535   5.365   1.944   5.870 -0.0620 -0.3291  1.3534
  648MOL0     H85536   5.124   1.976   5.884  1.4305  0.4228 -0.8019
  649MOL0     O85537   4.159   1.305   3.723  0.0908 -0.1060 -0.5957
  649MOL0     C85538   4.155   1.229   3.819  0.3547  0.1236 -0.5924
  649MOL0     O85539   4.266   1.170   3.882 -0.0402 -0.2893 -0.9513
  649MOL0     C85540   4.387   1.217   3.881 -0.2896 -0.0816  0.1720
  649MOL0     C85541   4.476   1.133   3.941  0.4921  0.3240  0.8939
  649MOL0     C85542   4.609   1.177   3.950 -0.3590  0.4304  0.0460
  649MOL0     C85543   4.654   1.307   3.896 -0.0309  0.0856 -0.2577
  649MOL0     O85544   4.786   1.349   3.904 -0.0420  0.0546  0.1452
  649MOL0     C85545   4.881   1.259   3.958 -0.0608 -0.0032 -0.0510
  649MOL0     C85546   5.017   1.332   3.963  0.8211 -0.4981 -0.2628
  649MOL0     C85547   5.070   1.365   3.818  0.0864 -0.1498 -0.1960
  649MOL0     C85548   5.189   1.462   3.836 -0.3916 -0.8331  0.9824
  649MOL0     C85549   5.299   1.396   3.919 -0.2290 -0.4255  0.7920
  649MOL0     C85550   5.433   1.447   3.888 -0.7754 -0.2749 -0.2110
  649MOL0     C85551   5.553   1.410   3.975  0.0777 -0.2376 -0.0569
  649MOL0     C85552   5.538   1.459   4.115  0.4338  0.0299  0.1145
  649MOL0     N85553   5.476   1.589   4.121  0.2801  0.1509  0.4466
  649MOL0     C85554   5.345   1.625   4.159  1.1376 -0.6438  0.1193
  649MOL0     C85555   5.358   1.767   4.174  0.1085  0.1216 -0.5708
  649MOL0     C85556   5.248   1.858   4.217  0.4019 -0.0083  0.6051
  649MOL0     C85557   5.208   1.964   4.112 -0.4310 -0.2656 -0.9441
  649MOL0     C85558   5.108   2.069   4.176  0.1301  0.1023 -0.3726
  649MOL0     C85559   5.049   2.165   4.067 -0.4659  0.4039 -0.2612
  649MOL0     O85560   4.942   2.104   3.996 -1.0996 -0.8254 -0.1953
  649MOL0     C85561   4.812   2.116   4.043  0.2267  0.0418  0.6001
  649MOL0     C85562   4.737   1.997   4.055 -0.5549  0.7150 -1.6059
  649MOL0     C85563   4.602   2.007   4.102 -0.4710  0.0095 -0.3820
  649MOL0     C85564   4.534   2.133   4.109 -0.6687 -0.4356  0.3576
  649MOL0     C85565   4.389   2.149   4.122 -0.1735  0.3353 -0.0953
  649MOL0     O85566   4.331   2.270   4.089 -0.3987  0.6767 -0.7738
  649MOL0     C85567   4.198   2.295   4.096 -0.5158  0.4480  0.5459
  649MOL0     C85568   4.154   2.414   4.148  0.2765 -0.2335 -0.3102
  649MOL0     C85569   4.019   2.436   4.170  0.4645 -0.7650 -0.4911
  649MOL0     C85570   3.922   2.349   4.118 -0.0546  1.4655 -0.1943
  649MOL0     O85571   3.793   2.382   4.141 -0.5701 -0.5257  0.0653
  649MOL0     C85572   3.691   2.336   4.063 -0.0863 -0.1680 -0.1529
  649MOL0     C85573   3.558   2.378   4.115 -0.3608 -0.2194  0.0837
  649MOL0     C85574   3.433   2.301   4.067  1.0866  0.0452  0.9828
  649MOL0     C85575   3.311   2.391   4.098  0.1385  1.7848  0.4113
  649MOL0     C85576   3.188   2.312   4.163  0.3327  0.4204 -0.6051
  649MOL0     C85577   3.109   2.203   4.079  0.4434  1.0630 -0.4196
  649MOL0     C85578   3.029   2.259   3.966 -0.0202  0.1651 -0.0326
  649MOL0     C85579   2.936   2.159   3.881 -0.1439 -0.3998  0.2107
  649MOL0    Cl85580   2.829   2.243   3.763 -0.0421 -0.1077 -0.2946
  649MOL0     C85581   3.967   2.231   4.053  0.5804 -0.9368  0.3031
  649MOL0     C85582   4.102   2.195   4.043 -0.2390 -0.3128 -0.7172
  649MOL0     O85583   4.330   2.058   4.178  0.0856 -0.0402 -1.0113
  649MOL0     C85584   4.614   2.247   4.093  0.3484 -0.2480  0.3642
  649MOL0     C85585   4.751   2.236   4.059 -0.0385 -0.2785  0.6526
  649MOL0     N85586   5.485   1.808   4.150  0.7916  0.3213 -0.0549
  649MOL0     N85587   5.549   1.703   4.110  0.3017  0.6300 -0.5314
  649MOL0     C85588   4.563   1.380   3.837  1.0850  0.1188  0.2908
  649MOL0     C85589   4.434   1.336   3.824  0.4311 -0.1383 -0.4539
  649MOL0     C85590   4.022   1.196   3.868  0.3271 -0.1480  0.1810
  649MOL0     C85591   3.911   1.223   3.787  0.3284 -0.7696  1.0006
  649MOL0     C85592   3.786   1.168   3.818 -0.7187  0.4539 -0.5919
  649MOL0     C85593   3.769   1.111   3.943 -0.0791  0.4169  0.2446
  649MOL0     O85594   3.645   1.078   3.973  0.6836 -0.1169  0.3838
  649MOL0     C85595   3.613   0.966   4.049 -0.2897 -0.7455  0.5477
  649MOL0     C85596   3.607   0.845   3.954 -0.6751 -0.3574  0.2936
  649MOL0     C85597   3.513   0.860   3.828 -1.1133  0.0731 -0.4497
  649MOL0     C85598   3.378   0.940   3.845 -0.1687 -0.5485 -0.0584
  649MOL0     C85599   3.298   0.950   3.728 -0.3244  0.1723  0.4423
  649MOL0     C85600   3.237   0.967   3.625  0.8884  1.6020  0.2805
  649MOL0     C85601   3.888   1.075   4.018  0.4752  0.0489  0.2533
  649MOL0     C85602   4.014   1.114   3.985 -0.4920  0.8913 -0.6702
  649MOL0     H85603   4.444   1.039   3.984 -0.7129 -0.5659 -1.7519
  649MOL0     H85604   4.678   1.108   3.997  0.6134 -0.3162 -2.3426
  649MOL0     H85605   4.881   1.168   3.898  1.2878 -1.4921  2.0702
  649MOL0     H85606   4.851   1.238   4.061  0.2570  0.7236  0.1966
  649MOL0     H85607   5.089   1.268   4.015  1.8907 -0.9165 -2.1501
  649MOL0     H85608   5.011   1.424   4.022 -2.5570 -0.6055 -0.2600
  649MOL0     H85609   4.991   1.412   3.759  0.2069  0.2577 -0.0378
  649MOL0     H85610   5.099   1.276   3.761 -0.4202 -0.0111 -0.6753
  649MOL0     H85611   5.223   1.488   3.736 -0.3111 -0.5452  1.0818
  649MOL0     H85612   5.172   1.558   3.887  0.5408 -0.1757  0.0922
  649MOL0     H85613   5.290   1.288   3.901 -1.5611 -0.0600 -1.0584
  649MOL0     H85614   5.272   1.419   4.023 -1.5688  1.6598  0.0483
  649MOL0     H85615   5.431   1.556   3.885  1.4602 -0.1766  0.0502
  649MOL0     H85616   5.460   1.412   3.788  2.0950 -0.9262  0.6824
  649MOL0     H85617   5.562   1.301   3.983 -0.1223 -0.3019 -0.6131
  649MOL0     H85618   5.644   1.444   3.925  1.0480 -0.2748  1.6206
  649MOL0     H85619   5.640   1.464   4.154 -0.6062 -0.1968  3.0880
  649MOL0     H85620   5.492   1.385   4.181 -0.3136 -0.9743 -1.4532
  649MOL0     H85621   5.258   1.567   4.188  1.7834 -1.1159  1.2112
  649MOL0     H85622   5.279   1.913   4.307  0.2016  2.0395 -0.5053
  649MOL0     H85623   5.156   1.802   4.232 -0.1748  0.3647 -1.2340
  649MOL0     H85624   5.172   1.923   4.017  0.6700  1.0110 -1.9434
  649MOL0     H85625   5.300   2.020   4.093  0.0913  0.0274  2.0126
  649MOL0     H85626   5.017   2.020   4.209  0.4145 -0.5458 -0.5347
  649MOL0     H85627   5.157   2.109   4.265 -1.4699 -0.6108  0.8629
  649MOL0     H85628   5.127   2.182   3.992  1.3918  1.4680  1.7991
  649MOL0     H85629   5.014   2.257   4.114 -1.4658 -0.7425  1.3439
  649MOL0     H85630   4.780   1.901   4.030 -0.9282  0.5901 -1.7869
  649MOL0     H85631   4.555   1.912   4.122 -3.9168  1.6866  0.1607
  649MOL0     H85632   4.231   2.484   4.178 -1.2111  2.3999 -2.2074
  649MOL0     H85633   3.979   2.521   4.225 -0.6268 -1.0220 -0.8519
  649MOL0     H85634   3.685   2.227   4.065  1.2359 -0.2517  0.4118
  649MOL0     H85635   3.708   2.353   3.956  2.9956 -2.6882 -0.2025
  649MOL0     H85636   3.542   2.486   4.109  0.1120 -0.1334  0.3236
  649MOL0     H85637   3.557   2.354   4.222 -0.8047 -0.0155  0.1273
  649MOL0     H85638   3.438   2.200   4.107 -0.9695 -1.5641 -2.3987
  649MOL0     H85639   3.451   2.304   3.959  1.1278  3.9829  0.9272
  649MOL0     H85640   3.326   2.474   4.167 -0.1307  1.2855  1.0882
  649MOL0     H85641   3.286   2.427   3.997  0.1509 -0.2529 -0.3781
  649MOL0     H85642   3.108   2.383   4.188 -1.1145 -0.8086 -1.5385
  649MOL0     H85643   3.231   2.258   4.247 -1.4520 -1.3160 -0.7420
  649MOL0     H85644   3.051   2.138   4.146 -0.6028  1.1119 -1.2426
  649MOL0     H85645   3.167   2.130   4.022 -0.9598 -0.9273  0.5644
  649MOL0     H85646   2.970   2.341   4.008  1.0135  1.0082 -0.1836
  649MOL0     H85647   3.098   2.309   3.898  0.9631  1.1009  1.6058
  649MOL0     H85648   2.871   2.109   3.952  0.3663 -0.2904  0.7588
  649MOL0     H85649   3.006   2.089   3.834 -0.1178  0.0170 -0.3914
  649MOL0     H85650   3.895   2.164   4.007  0.0614  1.5291 -2.9029
  649MOL0     H85651   4.119   2.095   4.004  0.5146 -0.7475  0.6639
  649MOL0     H85652   4.565   2.343   4.106  0.9156  0.1673 -0.5057
  649MOL0     H85653   4.807   2.329   4.052 -1.8744  1.0416  2.4681
  649MOL0     H85654   4.581   1.477   3.792  3.3977 -0.4334 -0.1113
  649MOL0     H85655   4.373   1.411   3.776 -1.9581 -0.3708  1.9714
  649MOL0     H85656   3.925   1.289   3.702  1.2507 -0.0741  1.6788
  649MOL0     H85657   3.712   1.206   3.748  0.5113  6.4148  0.7983
  649MOL0     H85658   3.515   0.973   4.096 -0.6096 -1.3904 -0.0034
  649MOL0     H85659   3.688   0.956   4.128  0.7401 -0.9874 -0.4349
  649MOL0     H85660   3.707   0.822   3.916 -1.2241 -2.4191 -0.0516
  649MOL0     H85661   3.573   0.759   4.012 -2.7021 -1.9958 -3.0270
  649MOL0     H85662   3.496   0.758   3.792 -0.6529 -0.1481 -0.0562
  649MOL0     H85663   3.567   0.892   3.739 -1.0936 -1.3550 -0.9790
  649MOL0     H85664   3.315   0.893   3.921 -1.7958  1.7364  0.1077
  649MOL0     H85665   3.409   1.041   3.876 -1.4129 -0.6977  1.8653
  649MOL0     H85666   3.193   0.986   3.530 -0.2473 -1.4426  0.0852
  649MOL0     H85667   3.891   1.016   4.109 -0.5192  1.0401  0.9667
  649MOL0     H85668   4.097   1.090   4.051 -0.9699  1.2744  0.0829
  650MOL0     O85669   3.367   6.070   4.008  0.2805  0.1198 -0.1599
  650MOL0     C85670   3.421   6.172   4.058 -0.5758  0.3578 -0.3105
  650MOL0     O85671   3.390   6.235   4.171 -0.3542  0.1484 -0.0934
  650MOL0     C85672   3.303   6.185   4.261  0.4850 -0.0059 -1.2647
  650MOL0     C85673   3.328   6.187   4.399  0.4677  0.0376 -0.0081
  650MOL0     C85674   3.232   6.153   4.494  0.4004 -0.8835 -0.7324
  650MOL0     C85675   3.106   6.100   4.455 -0.2353 -0.3854  0.0040
  650MOL0     O85676   3.010   6.063   4.549  0.1797 -0.8651  0.5535
  650MOL0     C85677   2.878   6.039   4.505  0.6857  0.6361  0.2580
  650MOL0     C85678   2.794   5.997   4.628 -0.1687  0.5610 -0.6285
  650MOL0     C85679   2.647   6.000   4.602  0.2289  0.7489 -1.0203
  650MOL0     C85680   2.563   5.940   4.725 -0.1424 -0.4960 -0.6154
  650MOL0     C85681   2.417   5.926   4.681  0.0594  0.0202  0.7809
  650MOL0     C85682   2.337   5.869   4.798 -0.2813  0.2471 -0.5496
  650MOL0     C85683   2.201   5.825   4.752 -0.6115  0.0808 -0.0545
  650MOL0     C85684   2.114   5.791   4.875 -0.2072  0.1872 -0.4816
  650MOL0     N85685   1.978   5.765   4.834 -0.5778 -0.1099  0.5719
  650MOL0     C85686   1.909   5.640   4.840  1.0146 -1.3676 -0.4246
  650MOL0     C85687   1.780   5.662   4.800 -0.6149 -0.0912 -0.3447
  650MOL0     C85688   1.671   5.559   4.783  0.0952 -0.6473 -0.4120
  650MOL0     C85689   1.537   5.602   4.717 -0.4795  0.9567  0.9675
  650MOL0     C85690   1.453   5.477   4.678  0.2063  0.2380  0.4568
  650MOL0     C85691   1.305   5.497   4.710 -0.2189 -0.2826  0.5344
  650MOL0     O85692   1.240   5.496   4.582 -0.7861 -0.1516 -0.4353
  650MOL0     C85693   1.103   5.484   4.590  1.3499 -0.1932 -0.0815
  650MOL0     C85694   1.039   5.472   4.464 -0.5695 -0.3449  0.1570
  650MOL0     C85695   0.900   5.496   4.454 -0.0317  0.3938 -0.1996
  650MOL0     C85696   0.815   5.503   4.574 -0.1975  0.5630  0.4637
  650MOL0     C85697   0.668   5.510   4.550  0.9673 -0.7625 -0.4461
  650MOL0     O85698   0.621   5.482   4.423 -0.0241  0.0109 -0.7380
  650MOL0     C85699   0.485   5.475   4.395 -0.0160  0.2503  0.0250
  650MOL0     C85700   0.421   5.589   4.352 -0.1936 -1.0392 -0.1898
  650MOL0     C85701   0.292   5.581   4.294 -0.1183 -0.5713 -0.2150
  650MOL0     C85702   0.236   5.453   4.261  0.2478  0.5985 -0.2062
  650MOL0     O85703   0.117   5.454   4.200 -0.9043  0.1370 -0.7301
  650MOL0     C85704   0.052   5.342   4.141 -0.7348  0.1283  0.0242
  650MOL0     C85705  -0.040   5.271   4.238 -0.5257 -0.0498  0.2959
  650MOL0     C85706  -0.089   5.134   4.183  0.7910  0.1910 -0.3285
  650MOL0     C85707  -0.200   5.074   4.282 -1.0149 -0.4832  0.0581
  650MOL0     C85708  -0.282   4.971   4.213  0.8270  0.1102 -0.5522
  650MOL0     C85709  -0.395   4.928   4.318  0.3992  0.4116  0.2309
  650MOL0     C85710  -0.454   4.798   4.273 -0.1697  0.6311  0.4971
  650MOL0     C85711  -0.554   4.790   4.149 -0.2921 -0.5443  0.8296
  650MOL0    Cl85712  -0.717   4.877   4.200 -0.1079 -0.3360  0.0090
  650MOL0     C85713   0.308   5.343   4.315 -0.3296  0.0666  0.0068
  650MOL0     C85714   0.422   5.353   4.388  1.1071 -0.4421 -0.4889
  650MOL0     O85715   0.600   5.546   4.645  0.5078  0.3700 -0.6711
  650MOL0     C85716   0.894   5.486   4.700 -0.5038 -0.1506 -0.0885
  650MOL0     C85717   1.032   5.491   4.710  0.7353  0.2724  0.2774
  650MOL0     N85718   1.775   5.799   4.771 -0.7595  0.8245 -0.2610
  650MOL0     N85719   1.887   5.858   4.783 -0.3510  0.5925 -0.3462
  650MOL0     C85720   3.083   6.084   4.315 -0.3908  0.2288  0.8791
  650MOL0     C85721   3.174   6.136   4.222  0.3444 -0.1345  0.0903
  650MOL0     C85722   3.535   6.211   3.983 -0.9054 -0.0449 -0.0001
  650MOL0     C85723   3.549   6.197   3.843  0.1970 -1.0862  0.5761
  650MOL0     C85724   3.654   6.250   3.768  0.7225  0.4051  0.3196
  650MOL0     C85725   3.758   6.317   3.829 -0.2002 -0.4109  0.2687
  650MOL0     O85726   3.860   6.361   3.753  0.0686 -0.3419  0.2005
  650MOL0     C85727   3.991   6.323   3.800  0.0041  0.7374 -0.0219
  650MOL0     C85728   4.098   6.395   3.722  0.2480 -0.5194  0.2538
  650MOL0     C85729   4.080   6.546   3.745 -0.3717 -0.6595 -0.4852
  650MOL0     C85730   4.179   6.629   3.664 -0.6962  0.4840 -0.7660
  650MOL0     C85731   4.320   6.622   3.716 -0.4587 -1.3033 -0.3812
  650MOL0     C85732   4.418   6.647   3.779 -0.8522 -0.7729  0.3036
  650MOL0     C85733   3.751   6.339   3.968  0.8985 -0.8340  0.0264
  650MOL0     C85734   3.637   6.287   4.046 -0.0774 -0.3011  0.0609
  650MOL0     H85735   3.426   6.226   4.424 -0.8444  1.5101  3.6151
  650MOL0     H85736   3.244   6.175   4.600  0.5869  2.3183 -1.3045
  650MOL0     H85737   2.886   5.953   4.438  3.8747 -0.2992  1.6245
  650MOL0     H85738   2.835   6.114   4.438 -2.7698 -1.7057 -0.4392
  650MOL0     H85739   2.810   6.068   4.710  0.1877 -0.2261  0.0026
  650MOL0     H85740   2.832   5.901   4.663 -0.3164  1.3526  1.9037
  650MOL0     H85741   2.645   5.931   4.517  2.1314 -1.7050  0.7685
  650MOL0     H85742   2.620   6.101   4.571 -0.6845  0.3131 -1.7216
  650MOL0     H85743   2.598   5.839   4.748 -0.6249  0.1182  3.8656
  650MOL0     H85744   2.583   6.002   4.813  1.6938 -1.2633 -0.4479
  650MOL0     H85745   2.407   5.861   4.594 -1.0727  0.4347  0.5815
  650MOL0     H85746   2.386   6.026   4.648  1.7177  1.1740  2.4481
  650MOL0     H85747   2.338   5.948   4.873 -1.2322 -2.6239  2.7337
  650MOL0     H85748   2.393   5.785   4.842 -0.2204 -1.2405 -3.2451
  650MOL0     H85749   2.158   5.911   4.700  2.4056  1.5359 -0.3420
  650MOL0     H85750   2.210   5.740   4.684  1.5788  1.3329 -1.4308
  650MOL0     H85751   2.108   5.864   4.957  1.2010 -1.1553  0.8758
  650MOL0     H85752   2.151   5.699   4.921 -1.0648  0.6125  1.1397
  650MOL0     H85753   1.939   5.538   4.858  2.6336 -0.6345  1.2480
  650MOL0     H85754   1.646   5.504   4.875  0.6456  0.2140  0.2684
  650MOL0     H85755   1.726   5.490   4.717 -0.5523 -0.2821 -1.3557
  650MOL0     H85756   1.545   5.655   4.622  2.0627 -0.2100  0.4485
  650MOL0     H85757   1.482   5.671   4.782 -0.7357  1.3374  0.3639
  650MOL0     H85758   1.463   5.449   4.573  0.2824  1.1000  0.2299
  650MOL0     H85759   1.488   5.393   4.740 -1.0789  0.2373  1.2360
  650MOL0     H85760   1.275   5.584   4.767  0.6711  1.8684 -2.0585
  650MOL0     H85761   1.275   5.409   4.768  3.3190 -1.0579  1.4173
  650MOL0     H85762   1.097   5.448   4.375 -0.7675  1.9040 -0.6412
  650MOL0     H85763   0.861   5.497   4.353 -0.8509 -0.7479  0.0859
  650MOL0     H85764   0.456   5.692   4.352 -0.2449 -0.7343 -5.4732
  650MOL0     H85765   0.254   5.676   4.257 -0.4373 -1.2789 -1.7933
  650MOL0     H85766   0.124   5.266   4.109 -1.9211 -0.4162 -1.4546
  650MOL0     H85767  -0.009   5.377   4.058 -1.0215 -1.1973 -0.3378
  650MOL0     H85768  -0.115   5.349   4.260 -0.3694  1.4971 -3.7773
  650MOL0     H85769   0.021   5.247   4.326 -2.4452  2.2409  2.4467
  650MOL0     H85770  -0.007   5.062   4.175  0.2786 -0.3649 -0.6394
  650MOL0     H85771  -0.137   5.143   4.085 -0.9327 -4.8041 -0.2487
  650MOL0     H85772  -0.153   5.045   4.376 -3.1361  2.0200  2.0527
  650MOL0     H85773  -0.268   5.152   4.317  0.3373 -0.0897  1.9718
  650MOL0     H85774  -0.214   4.886   4.198  2.8189  0.7316  3.4812
  650MOL0     H85775  -0.326   5.002   4.118 -1.4988  1.2352  0.7898
  650MOL0     H85776  -0.480   4.996   4.311 -0.8132 -1.0336  0.2450
  650MOL0     H85777  -0.361   4.906   4.419 -1.5938 -5.3826  0.0074
  650MOL0     H85778  -0.369   4.737   4.243 -1.4682 -0.5798 -0.9211
  650MOL0     H85779  -0.505   4.741   4.352 -0.8273  0.9642  0.3208
  650MOL0     H85780  -0.577   4.684   4.134 -2.4214 -0.0329  0.0337
  650MOL0     H85781  -0.519   4.829   4.053 -0.4327 -1.0751  0.5543
  650MOL0     H85782   0.271   5.242   4.303  0.3580 -0.4319  1.7843
  650MOL0     H85783   0.466   5.269   4.441  0.1784 -0.6128  0.0370
  650MOL0     H85784   0.824   5.499   4.783 -1.7140  1.5946 -1.3135
  650MOL0     H85785   1.075   5.521   4.805  0.8603 -0.7360  0.5495
  650MOL0     H85786   2.987   6.045   4.281 -0.4913 -0.3877  1.8240
  650MOL0     H85787   3.165   6.141   4.114 -0.3689 -3.2747 -0.0814
  650MOL0     H85788   3.475   6.155   3.775 -0.5241 -0.4101  0.9441
  650MOL0     H85789   3.653   6.248   3.660  1.3413  0.1975  0.3155
  650MOL0     H85790   4.022   6.219   3.793 -0.8306  0.4426  0.5233
  650MOL0     H85791   4.005   6.337   3.908  0.9262 -0.8338  0.0903
  650MOL0     H85792   4.197   6.361   3.751  0.8627 -1.0911 -2.2486
  650MOL0     H85793   4.089   6.389   3.613  0.5216 -0.4760  0.2281
  650MOL0     H85794   4.095   6.571   3.850 -0.4570  0.0474 -0.6340
  650MOL0     H85795   3.978   6.582   3.727  0.0604  1.0098  0.1926
  650MOL0     H85796   4.181   6.596   3.560  1.2801 -0.2754 -0.5267
  650MOL0     H85797   4.144   6.732   3.676 -2.2786  0.1438 -2.1456
  650MOL0     H85798   4.498   6.686   3.839  0.2778 -0.0343 -1.5950
  650MOL0     H85799   3.823   6.407   4.012  1.4190 -2.3653  1.6907
  650MOL0     H85800   3.632   6.304   4.153 -0.1305 -1.7996  0.3270
  651MOL0     O85801   1.516   9.210  10.429  0.3114 -0.0103 -0.1921
  651MOL0     C85802   1.526   9.332  10.455  0.3426 -0.1773  0.3695
  651MOL0     O85803   1.429   9.417  10.513  0.9269  0.1807 -0.1275
  651MOL0     C85804   1.310   9.365  10.560  0.8578  0.1822  1.0938
  651MOL0     C85805   1.193   9.411  10.492 -0.5092 -0.9476 -0.8886
  651MOL0     C85806   1.075   9.338  10.511 -0.6921  0.3567  0.8435
  651MOL0     C85807   1.069   9.236  10.609 -0.3616 -0.0119  0.9965
  651MOL0     O85808   0.940   9.183  10.622  0.1201 -0.6641 -0.1660
  651MOL0     C85809   0.913   9.047  10.610 -0.6098  0.2695 -0.1485
  651MOL0     C85810   0.771   8.999  10.603  0.8012  0.4234  0.6303
  651MOL0     C85811   0.666   9.065  10.689  0.1848  0.3673 -1.7007
  651MOL0     C85812   0.542   8.976  10.697  0.1535  0.1950  0.1549
  651MOL0     C85813   0.432   9.017  10.803 -0.6258  0.6547 -0.3247
  651MOL0     C85814   0.307   8.929  10.781 -0.6176  0.5763  0.2821
  651MOL0     C85815   0.184   8.970  10.867 -0.8503  0.3331  0.5533
  651MOL0     C85816   0.200   8.919  11.010  0.1751 -0.2498  0.6510
  651MOL0     N85817   0.152   8.787  11.033 -0.0989  0.4040  0.3379
  651MOL0     C85818   0.222   8.672  11.017 -0.2373 -1.1657  0.4506
  651MOL0     C85819   0.135   8.583  11.075 -0.1552  0.5716  0.4103
  651MOL0     C85820   0.149   8.437  11.090  0.1157 -0.4209  0.8917
  651MOL0     C85821   0.064   8.349  10.994 -0.7906  0.6150  0.0560
  651MOL0     C85822   0.111   8.203  10.990  0.8693 -0.1188 -0.5308
  651MOL0     C85823   0.036   8.114  10.887  0.4403 -0.1249 -0.3234
  651MOL0     O85824  -0.102   8.116  10.918  0.2707  0.3974  0.9986
  651MOL0     C85825  -0.161   8.019  10.994  0.7223 -0.6329  0.2737
  651MOL0     C85826  -0.103   7.919  11.068 -1.5287 -0.3947 -0.2042
  651MOL0     C85827  -0.176   7.833  11.147 -0.0836  0.1205 -0.1907
  651MOL0     C85828  -0.318   7.838  11.152 -0.0682 -0.6461  0.3974
  651MOL0     C85829  -0.400   7.753  11.230 -0.2526 -0.0929  0.6248
  651MOL0     O85830  -0.530   7.780  11.224 -0.0106  0.3059 -0.2113
  651MOL0     C85831  -0.626   7.704  11.296 -0.1362 -0.6080  0.5599
  651MOL0     C85832  -0.746   7.671  11.229 -0.5153  0.4519 -1.1821
  651MOL0     C85833  -0.843   7.596  11.291 -0.3679 -0.5207 -0.7631
  651MOL0     C85834  -0.824   7.553  11.427  0.7654  0.8416 -0.3401
  651MOL0     O85835  -0.924   7.484  11.495 -0.4244 -0.1798 -0.6792
  651MOL0     C85836  -1.056   7.542  11.530 -0.2613  0.4652 -0.7956
  651MOL0     C85837  -1.159   7.435  11.547 -0.1450  0.2702 -0.7233
  651MOL0     C85838  -1.287   7.504  11.629 -0.5980  0.7523  0.0428
  651MOL0     C85839  -1.405   7.409  11.629 -0.4351  0.0433  0.3805
  651MOL0     C85840  -1.507   7.443  11.739 -0.1774  0.0157  0.2515
  651MOL0     C85841  -1.616   7.337  11.752  0.6407 -0.4121 -0.2011
  651MOL0     C85842  -1.740   7.382  11.825  0.7399  0.2848  0.1821
  651MOL0     C85843  -1.836   7.278  11.868  0.3213 -0.4745  0.3023
  651MOL0    Cl85844  -1.929   7.366  11.984 -0.3832  0.0792 -0.2185
  651MOL0     C85845  -0.705   7.589  11.494  1.1011  0.2790  0.9105
  651MOL0     C85846  -0.608   7.659  11.426  0.6806  0.4650  0.1354
  651MOL0     O85847  -0.341   7.668  11.298 -0.6343  0.3371  0.0736
  651MOL0     C85848  -0.369   7.948  11.083  0.3409  0.9432 -0.4683
  651MOL0     C85849  -0.300   8.027  11.012 -0.2510 -0.2938  0.1539
  651MOL0     N85850   0.028   8.649  11.132 -0.2184  0.1999  0.0068
  651MOL0     N85851   0.039   8.768  11.101  0.8427  0.2721  0.0392
  651MOL0     C85852   1.188   9.183  10.668  0.2253  0.4948  0.7463
  651MOL0     C85853   1.309   9.256  10.646  0.1919  0.5810 -0.4857
  651MOL0     C85854   1.654   9.397  10.400  0.8202 -0.0179 -0.4939
  651MOL0     C85855   1.774   9.326  10.383  0.0160 -0.8703 -0.0342
  651MOL0     C85856   1.896   9.389  10.348 -0.0892 -1.3966 -0.2953
  651MOL0     C85857   1.895   9.529  10.315 -0.1162  0.1119 -0.5734
  651MOL0     O85858   2.002   9.592  10.259  0.2958 -0.3436  0.7084
  651MOL0     C85859   2.002   9.738  10.246  0.3088 -0.2026  0.4211
  651MOL0     C85860   2.109   9.781  10.161  0.0168  0.5021 -0.2614
  651MOL0     C85861   2.242   9.752  10.220 -0.0040 -0.0932 -0.0915
  651MOL0     C85862   2.355   9.819  10.129  0.1474 -0.4878 -0.2950
  651MOL0     C85863   2.367   9.758  10.001  0.5852  0.8665  0.3956
  651MOL0     C85864   2.356   9.704   9.890  0.3653 -0.7448 -0.5427
  651MOL0     C85865   1.777   9.596  10.345 -0.0589 -0.1661  0.1359
  651MOL0     C85866   1.663   9.531  10.392 -0.6505 -0.4456 -0.5130
  651MOL0     H85867   1.198   9.500  10.431  1.2305 -0.1586  0.3051
  651MOL0     H85868   0.981   9.366  10.465  0.1277  2.4898  0.3434
  651MOL0     H85869   0.961   9.001  10.697 -1.9756 -0.1821  0.4033
  651MOL0     H85870   0.959   9.002  10.522 -3.2005 -1.6159 -0.6718
  651MOL0     H85871   0.780   8.892  10.623  2.9864  0.5229  0.4580
  651MOL0     H85872   0.736   9.006  10.499 -0.6824  4.1186  1.2291
  651MOL0     H85873   0.632   9.165  10.659 -0.4884  0.7137  0.0663
  651MOL0     H85874   0.697   9.063  10.794  0.1666 -3.1078 -1.6438
  651MOL0     H85875   0.509   8.974  10.593  3.5744  1.1875 -1.1070
  651MOL0     H85876   0.584   8.878  10.720 -1.1077 -1.3181 -3.2774
  651MOL0     H85877   0.412   9.124  10.811  0.4894  0.7468  1.9447
  651MOL0     H85878   0.467   8.988  10.903 -1.0545 -0.9312 -0.5962
  651MOL0     H85879   0.327   8.824  10.806 -3.1801 -0.6651 -2.3397
  651MOL0     H85880   0.275   8.934  10.677  1.7109 -2.1599 -0.6985
  651MOL0     H85881   0.185   9.079  10.872 -1.1977  0.3291  0.7889
  651MOL0     H85882   0.090   8.940  10.822 -1.3532  1.7277  0.6193
  651MOL0     H85883   0.145   8.989  11.074 -2.3506 -0.7903 -0.8125
  651MOL0     H85884   0.306   8.920  11.036  0.3897  2.2456 -0.0278
  651MOL0     H85885   0.317   8.665  10.965 -0.0914  1.0258  0.3301
  651MOL0     H85886   0.121   8.414  11.193 -0.3445 -0.4289  0.7658
  651MOL0     H85887   0.252   8.411  11.065 -0.1785 -0.0807 -0.7541
  651MOL0     H85888   0.081   8.381  10.891 -0.2865 -3.6062 -1.3793
  651MOL0     H85889  -0.036   8.347  11.038  0.6381 -0.9922  3.6262
  651MOL0     H85890   0.219   8.203  10.970  1.2345 -2.3706  1.0812
  651MOL0     H85891   0.098   8.165  11.091  2.0554  2.7884  0.8296
  651MOL0     H85892   0.066   8.010  10.871 -1.0434 -1.2216  3.0758
  651MOL0     H85893   0.037   8.164  10.790 -0.8274  1.5178  0.4605
  651MOL0     H85894   0.004   7.900  11.060 -1.0913  2.0308 -1.2294
  651MOL0     H85895  -0.124   7.751  11.195  2.5873  1.8672  0.1115
  651MOL0     H85896  -0.758   7.716  11.131  1.2199  0.0481 -1.6179
  651MOL0     H85897  -0.933   7.568  11.237 -1.8220  0.7054  0.8987
  651MOL0     H85898  -1.090   7.611  11.453 -0.8882 -2.1904 -3.0426
  651MOL0     H85899  -1.058   7.602  11.622 -1.8420 -1.3207  0.3958
  651MOL0     H85900  -1.125   7.351  11.608  4.3264  2.6232  0.4831
  651MOL0     H85901  -1.196   7.399  11.451  0.5681  1.1283 -1.3377
  651MOL0     H85902  -1.318   7.594  11.576 -2.4490  0.5394  0.6785
  651MOL0     H85903  -1.258   7.528  11.732 -2.4025  2.6045  0.1875
  651MOL0     H85904  -1.456   7.402  11.532 -2.4489  2.0813  1.2068
  651MOL0     H85905  -1.369   7.307  11.645  0.6088  0.2276 -0.5760
  651MOL0     H85906  -1.549   7.540  11.710  0.1546 -0.9266 -3.9739
  651MOL0     H85907  -1.461   7.440  11.838 -1.6824 -1.6447  0.9495
  651MOL0     H85908  -1.572   7.257  11.813  0.6133  0.1709  0.6084
  651MOL0     H85909  -1.636   7.288  11.656 -1.3694  1.1056 -0.6345
  651MOL0     H85910  -1.708   7.437  11.913  2.6334 -0.5951  0.0868
  651MOL0     H85911  -1.802   7.444  11.759  1.1434  0.6574  0.1485
  651MOL0     H85912  -1.783   7.207  11.932  0.0913  0.6940  1.8420
  651MOL0     H85913  -1.907   7.235  11.796 -1.5128 -0.0929  1.8188
  651MOL0     H85914  -0.696   7.550  11.595  0.5201  0.1129  0.9001
  651MOL0     H85915  -0.509   7.672  11.468  1.0850 -3.4767  0.7830
  651MOL0     H85916  -0.477   7.957  11.076 -0.5579 -4.5962  0.9732
  651MOL0     H85917  -0.356   8.107  10.963  1.1952  0.3216 -0.5775
  651MOL0     H85918   1.182   9.097  10.734 -0.2289 -0.1241 -0.0803
  651MOL0     H85919   1.402   9.206  10.671 -0.3239 -1.6718 -2.6497
  651MOL0     H85920   1.773   9.219  10.401 -0.0716 -0.7441  0.7273
  651MOL0     H85921   1.985   9.332  10.327  0.3682  0.0264 -2.5302
  651MOL0     H85922   2.002   9.793  10.341 -1.7977 -0.3651  0.5617
  651MOL0     H85923   1.912   9.771  10.193 -0.8563 -1.2062  1.7089
  651MOL0     H85924   2.101   9.718  10.073  2.4222 -0.9104  0.4332
  651MOL0     H85925   2.100   9.888  10.137  0.9546  0.9019  1.0100
  651MOL0     H85926   2.262   9.645  10.222 -0.6611 -0.2049  0.9668
  651MOL0     H85927   2.259   9.796  10.319  1.7166  1.8209 -1.1460
  651MOL0     H85928   2.325   9.923  10.115  1.4692 -0.1671 -0.8357
  651MOL0     H85929   2.447   9.824  10.188  0.3728  0.1725 -0.7025
  651MOL0     H85930   2.333   9.668   9.791 -0.1852  0.5054 -0.8830
  651MOL0     H85931   1.761   9.704  10.346  0.7865 -0.0179  1.3757
  651MOL0     H85932   1.575   9.591  10.411  0.4063  1.2741 -0.8666
  652MOL0     O85933  10.427  10.270   9.691 -0.0677  0.0203 -0.7227
  652MOL0     C85934  10.356  10.227   9.596  0.4014 -0.4346 -0.3717
  652MOL0     O85935  10.351  10.282   9.471  0.0966  0.6389 -0.0835
  652MOL0     C85936  10.447  10.366   9.425 -0.3179  0.0578  0.4776
  652MOL0     C85937  10.590  10.341   9.441  0.5389 -0.2707 -1.0740
  652MOL0     C85938  10.686  10.418   9.365 -0.2101  0.5573 -0.2800
  652MOL0     C85939  10.648  10.521   9.272  0.1059  0.0306  0.2075
  652MOL0     O85940  10.741  10.580   9.193 -0.3616  0.7545  0.2836
  652MOL0     C85941  10.864  10.509   9.166  0.0382 -0.4528 -0.4669
  652MOL0     C85942  10.929  10.555   9.038  0.7467 -0.6206  0.1798
  652MOL0     C85943  11.075  10.519   9.017 -0.1095  0.0780  0.0898
  652MOL0     C85944  11.123  10.516   8.872  0.0965  0.5417 -0.0854
  652MOL0     C85945  11.269  10.537   8.844  0.6591 -0.7918 -0.4579
  652MOL0     C85946  11.286  10.526   8.689 -0.7131  0.3299 -0.5657
  652MOL0     C85947  11.433  10.487   8.655  1.0828  0.3958  0.0246
  652MOL0     C85948  11.540  10.600   8.670  0.4834  0.0175  0.5262
  652MOL0     N85949  11.531  10.719   8.580  0.4259  0.0893 -0.3253
  652MOL0     C85950  11.542  10.725   8.451  0.4533  0.5597  0.4913
  652MOL0     C85951  11.544  10.854   8.419  1.0705 -0.1659 -0.7645
  652MOL0     C85952  11.562  10.908   8.278 -0.2890 -0.0573  0.9213
  652MOL0     C85953  11.689  10.994   8.266 -0.4953  0.0379  0.1476
  652MOL0     C85954  11.806  10.928   8.342  0.2487 -0.3260  0.5391
  652MOL0     C85955  11.939  10.972   8.281  0.1569  0.1606 -0.2575
  652MOL0     O85956  11.961  10.895   8.151 -0.0075 -0.9524 -0.1206
  652MOL0     C85957  12.087  10.888   8.109  0.4872  0.1478 -0.8387
  652MOL0     C85958  12.139  10.964   8.002  0.4345  0.4055 -0.0164
  652MOL0     C85959  12.272  10.937   7.970  0.1151  0.3538 -0.7239
  652MOL0     C85960  12.357  10.842   8.039 -0.3640 -0.0563  0.1464
  652MOL0     C85961  12.500  10.822   8.001 -0.1088  0.2613  0.1895
  652MOL0     O85962  12.546  10.875   7.877  0.4279 -0.8194  0.0424
  652MOL0     C85963  12.670  10.875   7.836  0.4544  0.2403  0.0750
  652MOL0     C85964  12.749  10.759   7.836  0.5360  0.3177  0.4273
  652MOL0     C85965  12.879  10.752   7.779 -0.1376 -0.1792  0.2713
  652MOL0     C85966  12.929  10.872   7.702  0.3980 -0.0845 -0.8289
  652MOL0     O85967  13.063  10.882   7.654 -0.1573  0.8775 -0.4355
  652MOL0     C85968  13.108  10.974   7.556  0.4431 -0.2820  0.1428
  652MOL0     C85969  13.258  10.965   7.518 -0.7087  0.4314 -0.8030
  652MOL0     C85970  13.287  10.840   7.423 -0.1789 -0.0681 -0.2442
  652MOL0     C85971  13.425  10.860   7.355 -0.6739 -0.2978 -0.5724
  652MOL0     C85972  13.457  10.772   7.239 -0.1337  0.4415 -0.8598
  652MOL0     C85973  13.596  10.804   7.173 -0.3885  0.5257 -0.3840
  652MOL0     C85974  13.709  10.762   7.265 -0.3112  0.6765  0.7520
  652MOL0     C85975  13.825  10.733   7.176 -0.6076  0.1684 -0.5534
  652MOL0    Cl85976  13.804  10.561   7.113 -0.2167 -0.1421 -0.4992
  652MOL0     C85977  12.848  10.986   7.703 -0.4776  0.5867 -0.3689
  652MOL0     C85978  12.718  10.984   7.756  1.3682 -0.1492 -0.5362
  652MOL0     O85979  12.570  10.758   8.082 -0.0336 -0.2211 -0.7751
  652MOL0     C85980  12.292  10.773   8.142  0.0287  0.6796  0.6858
  652MOL0     C85981  12.161  10.797   8.186 -0.1918  0.1902 -0.2231
  652MOL0     N85982  11.505  10.923   8.530 -0.6639  0.4489  0.3115
  652MOL0     N85983  11.502  10.842   8.629  0.1893  0.8357 -0.4633
  652MOL0     C85984  10.508  10.550   9.267  0.2935 -0.0636  0.5298
  652MOL0     C85985  10.414  10.468   9.339 -0.5572 -0.8988 -0.1914
  652MOL0     C85986  10.271  10.106   9.631 -0.4477 -0.2401  0.1300
  652MOL0     C85987  10.188  10.058   9.529 -0.2941 -1.3722 -0.0136
  652MOL0     C85988  10.081   9.965   9.569 -0.3641  0.0629 -0.9637
  652MOL0     C85989  10.068   9.916   9.699 -0.5614  0.1151  0.0543
  652MOL0     O85990   9.988   9.812   9.727 -1.2039 -0.2112  0.0684
  652MOL0     C85991   9.897   9.830   9.827  0.8052 -0.2202 -0.6535
  652MOL0     C85992   9.779   9.737   9.802 -0.0067  1.2445  0.4357
  652MOL0     C85993   9.692   9.780   9.684  0.0259  0.2945  0.1923
  652MOL0     C85994   9.564   9.699   9.672 -0.0168 -1.0179  0.3633
  652MOL0     C85995   9.483   9.773   9.572 -0.5792  0.3064  0.1229
  652MOL0     C85996   9.398   9.814   9.501 -0.2410 -0.0991  0.5939
  652MOL0     C85997  10.154   9.967   9.791  0.5328  0.4578  0.4735
  652MOL0     C85998  10.257  10.056   9.761 -0.9910 -0.1250 -0.1804
  652MOL0     H85999  10.621  10.262   9.508 -0.1412  0.7057  0.4353
  652MOL0     H86000  10.788  10.385   9.375 -0.7465 -1.7292 -1.7374
  652MOL0     H86001  10.851  10.401   9.170 -0.4751 -0.4259 -1.0887
  652MOL0     H86002  10.937  10.540   9.240 -0.2202  0.8603 -0.7292
  652MOL0     H86003  10.926  10.664   9.035 -2.0696 -0.6186 -0.1301
  652MOL0     H86004  10.869  10.522   8.952 -0.6264 -0.1199  0.9137
  652MOL0     H86005  11.098  10.417   9.049  3.9409  0.7486 -0.1606
  652MOL0     H86006  11.138  10.589   9.073 -0.0350  0.8505 -0.9460
  652MOL0     H86007  11.100  10.419   8.828 -0.9308 -0.3516  2.2308
  652MOL0     H86008  11.066  10.596   8.823 -1.6383 -0.2061  0.6272
  652MOL0     H86009  11.333  10.466   8.897  1.7087  1.0777  0.8993
  652MOL0     H86010  11.299  10.638   8.874 -0.0520 -1.0678  1.3214
  652MOL0     H86011  11.266  10.624   8.646 -2.3694 -0.0527 -0.7316
  652MOL0     H86012  11.213  10.450   8.661 -0.6249 -1.4766  3.4161
  652MOL0     H86013  11.456  10.398   8.715  1.8617 -0.1895 -1.1151
  652MOL0     H86014  11.432  10.441   8.556  2.2059 -1.5902  0.8724
  652MOL0     H86015  11.641  10.558   8.659 -0.7229 -2.3461 -3.7546
  652MOL0     H86016  11.524  10.638   8.771 -0.2054  0.6113  0.1999
  652MOL0     H86017  11.558  10.634   8.392 -1.0021 -2.3273  4.1883
  652MOL0     H86018  11.476  10.969   8.248  0.8245  0.6362 -1.0506
  652MOL0     H86019  11.566  10.822   8.211 -2.4438  0.1677  0.4143
  652MOL0     H86020  11.669  11.096   8.299 -0.1121  0.5934 -1.2422
  652MOL0     H86021  11.721  10.993   8.161 -2.5282 -1.1872 -0.5035
  652MOL0     H86022  11.811  10.957   8.448  1.6606 -0.0769  0.4202
  652MOL0     H86023  11.802  10.819   8.343 -1.2864 -0.3286 -0.9103
  652MOL0     H86024  12.015  10.954   8.358 -1.1643 -1.0454  0.8177
  652MOL0     H86025  11.931  11.080   8.264 -0.8631  0.4876  1.9641
  652MOL0     H86026  12.083  11.034   7.940  0.8500  1.3359  0.6353
  652MOL0     H86027  12.315  10.986   7.884 -2.7781  2.6857 -0.9851
  652MOL0     H86028  12.718  10.669   7.888  2.1512  0.0640  1.0190
  652MOL0     H86029  12.944  10.665   7.781  0.4386  0.2491  0.8654
  652MOL0     H86030  13.097  11.075   7.597  2.9290  0.4501 -0.8405
  652MOL0     H86031  13.053  10.966   7.462  0.6513 -2.8909  0.1729
  652MOL0     H86032  13.320  10.950   7.607 -1.1574 -2.3882 -0.8734
  652MOL0     H86033  13.287  11.057   7.466 -1.7412  2.1386  1.4709
  652MOL0     H86034  13.207  10.832   7.350 -0.4612  2.8394 -0.3582
  652MOL0     H86035  13.291  10.747   7.481  1.6157  0.4553  0.5505
  652MOL0     H86036  13.438  10.966   7.333  2.0412 -0.3677  0.3429
  652MOL0     H86037  13.495  10.838   7.436 -0.1634 -0.4625 -1.0479
  652MOL0     H86038  13.384  10.789   7.158  0.5092  2.9637 -1.0003
  652MOL0     H86039  13.446  10.667   7.265 -0.2766  0.7980  0.5781
  652MOL0     H86040  13.586  10.910   7.150  0.5080  0.0958 -3.0441
  652MOL0     H86041  13.599  10.750   7.079  0.6319  3.6791 -2.3184
  652MOL0     H86042  13.734  10.847   7.330  0.8787  2.8602 -2.2906
  652MOL0     H86043  13.678  10.669   7.313  0.5651 -0.3738 -0.6289
  652MOL0     H86044  13.919  10.742   7.231 -1.0508 -0.4305  0.3220
  652MOL0     H86045  13.835  10.804   7.093  2.5812 -1.8448 -2.0883
  652MOL0     H86046  12.876  11.073   7.645  1.6988 -0.7617 -1.4226
  652MOL0     H86047  12.661  11.077   7.758 -0.4120 -1.2147 -0.3165
  652MOL0     H86048  12.344  10.699   8.202 -1.4893 -1.2014 -0.2300
  652MOL0     H86049  12.109  10.734   8.256  1.7214  0.6402  1.7097
  652MOL0     H86050  10.475  10.623   9.194 -0.5426 -1.3186 -0.3846
  652MOL0     H86051  10.307  10.487   9.336 -0.4605  0.3740  2.1166
  652MOL0     H86052  10.204  10.100   9.430  0.6445 -0.3641  0.5442
  652MOL0     H86053  10.018   9.930   9.487 -0.2432  1.9041 -1.9089
  652MOL0     H86054   9.862   9.933   9.836  0.8073 -0.3515  1.1690
  652MOL0     H86055   9.943   9.806   9.923  0.8533 -0.8036 -0.8227
  652MOL0     H86056   9.819   9.636   9.784  1.3230  1.5083  1.7107
  652MOL0     H86057   9.714   9.723   9.889 -0.1185 -1.4920  0.0042
  652MOL0     H86058   9.739   9.758   9.588 -3.1323  0.8498 -1.6409
  652MOL0     H86059   9.676   9.888   9.687 -0.3533  0.2682 -0.5186
  652MOL0     H86060   9.589   9.598   9.639  2.2988 -0.1615 -0.6924
  652MOL0     H86061   9.504   9.689   9.763  1.4402 -1.5963  1.3054
  652MOL0     H86062   9.318   9.854   9.441  0.5364 -2.3034 -2.1095
  652MOL0     H86063  10.136   9.931   9.892 -4.0587  0.1490 -0.2137
  652MOL0     H86064  10.311  10.090   9.849 -1.4733 -1.9858  0.8767
  653MOL0     O86065   0.532   4.502   9.914 -0.1357  0.7805  0.1409
  653MOL0     C86066   0.558   4.556   9.814 -0.4797  0.3109 -0.2497
  653MOL0     O86067   0.493   4.670   9.762  0.8404  0.3033 -0.3567
  653MOL0     C86068   0.379   4.714   9.823  0.7979  0.7109  0.6513
  653MOL0     C86069   0.271   4.635   9.847  0.0652  0.2692 -1.1843
  653MOL0     C86070   0.162   4.684   9.933 -0.3613  0.2260 -0.4182
  653MOL0     C86071   0.172   4.822   9.982 -0.7831  0.4009  0.9018
  653MOL0     O86072   0.083   4.891  10.048  0.1269 -0.8273 -1.1405
  653MOL0     C86073  -0.002   4.808  10.135 -0.3418  0.4551  0.8972
  653MOL0     C86074  -0.093   4.910  10.206 -0.2527  0.4243 -0.0320
  653MOL0     C86075  -0.016   5.013  10.286  0.3031 -0.3095  1.0342
  653MOL0     C86076  -0.120   5.106  10.356  0.1565 -0.1625  0.2274
  653MOL0     C86077  -0.056   5.248  10.373 -0.8153 -0.3804  0.3907
  653MOL0     C86078  -0.041   5.339  10.242  0.3273  0.0229 -1.0681
  653MOL0     C86079  -0.177   5.359  10.180  0.0735 -0.0526  0.3430
  653MOL0     C86080  -0.275   5.439  10.263 -0.2298  0.2189 -0.4463
  653MOL0     N86081  -0.359   5.358  10.358  0.7898  0.2654  0.4947
  653MOL0     C86082  -0.444   5.250  10.316  0.2767 -0.4421 -0.0081
  653MOL0     C86083  -0.537   5.237  10.413  0.2761 -0.1231 -0.0997
  653MOL0     C86084  -0.648   5.136  10.412  0.4265 -0.0996 -0.6722
  653MOL0     C86085  -0.579   5.006  10.441  0.5363  0.1690 -0.6044
  653MOL0     C86086  -0.497   5.001  10.568  0.1010  0.2718  0.1138
  653MOL0     C86087  -0.563   5.052  10.692  0.1076 -0.2201  0.4546
  653MOL0     O86088  -0.683   4.981  10.723 -0.4978  0.0965  0.9526
  653MOL0     C86089  -0.784   5.040  10.785 -0.8019 -0.7046  0.0777
  653MOL0     C86090  -0.791   5.184  10.811  0.4617  0.9394 -0.3416
  653MOL0     C86091  -0.905   5.221  10.883  0.0734 -1.2222  0.5966
  653MOL0     C86092  -1.004   5.131  10.928 -0.3544  0.7858 -0.5167
  653MOL0     C86093  -1.108   5.174  11.022  0.5421 -0.5141  1.7163
  653MOL0     O86094  -1.214   5.087  11.022  0.2207  0.5039 -0.5333
  653MOL0     C86095  -1.335   5.128  11.077 -0.5223  0.4655 -0.7515
  653MOL0     C86096  -1.411   5.049  11.164  0.3242  0.5908 -0.3350
  653MOL0     C86097  -1.527   5.104  11.225  0.7095  0.3744 -0.0350
  653MOL0     C86098  -1.576   5.230  11.188  0.4381 -0.6228  0.7350
  653MOL0     O86099  -1.686   5.290  11.240  0.1243 -0.4148 -0.4993
  653MOL0     C86100  -1.767   5.216  11.326 -0.8493  0.6440 -1.1534
  653MOL0     C86101  -1.872   5.306  11.376 -0.3313  0.4291 -0.1836
  653MOL0     C86102  -1.983   5.314  11.274  0.0345  1.2670  0.4556
  653MOL0     C86103  -2.092   5.412  11.309 -0.2492  0.1018 -0.0399
  653MOL0     C86104  -2.210   5.404  11.218 -0.4163  0.2237 -0.0252
  653MOL0     C86105  -2.349   5.424  11.274  0.0205 -0.4087 -0.3684
  653MOL0     C86106  -2.458   5.386  11.181 -0.4945  0.2165  0.0061
  653MOL0     C86107  -2.593   5.384  11.250  0.0385  0.1064 -0.1105
  653MOL0    Cl86108  -2.715   5.370  11.123  0.0745  0.0050  0.0447
  653MOL0     C86109  -1.507   5.304  11.095  0.3738 -1.0833 -0.1887
  653MOL0     C86110  -1.386   5.252  11.040 -0.2621  1.2217  0.1501
  653MOL0     O86111  -1.095   5.283  11.071 -0.2481  0.0854 -0.0484
  653MOL0     C86112  -0.989   4.998  10.902  0.0801  0.6382  0.2923
  653MOL0     C86113  -0.884   4.952  10.818  0.7347  0.8209  0.5905
  653MOL0     N86114  -0.509   5.322  10.513  0.5953  0.3632  0.1252
  653MOL0     N86115  -0.393   5.381  10.487  0.2126 -0.1700  0.3630
  653MOL0     C86116   0.273   4.908   9.939 -0.0209 -0.3806 -0.5524
  653MOL0     C86117   0.376   4.853   9.862 -1.1556 -0.2135  0.6978
  653MOL0     C86118   0.658   4.491   9.723  0.2552 -0.1628 -1.1992
  653MOL0     C86119   0.721   4.370   9.761  0.2628  0.1711  0.1746
  653MOL0     C86120   0.821   4.305   9.683  0.1246  0.1082  0.1467
  653MOL0     C86121   0.854   4.356   9.557 -0.5172  0.5161  0.9735
  653MOL0     O86122   0.932   4.294   9.466 -0.2659 -0.3594 -0.2658
  653MOL0     C86123   0.933   4.153   9.466  0.1008 -0.8471  0.2654
  653MOL0     C86124   0.949   4.092   9.328  0.1979 -0.5427  0.2653
  653MOL0     C86125   0.932   3.940   9.333 -0.3205  0.3554 -0.2411
  653MOL0     C86126   0.940   3.884   9.185  0.2783 -1.2494  0.1573
  653MOL0     C86127   0.941   3.739   9.199 -1.7790  0.3343  0.2685
  653MOL0     C86128   0.965   3.617   9.211 -0.7840 -1.1149 -0.1947
  653MOL0     C86129   0.798   4.477   9.517  0.4199 -0.3179  0.3620
  653MOL0     C86130   0.708   4.544   9.600  0.6066 -0.1151 -1.0369
  653MOL0     H86131   0.264   4.528   9.828 -1.5179 -0.4887  2.8365
  653MOL0     H86132   0.088   4.612   9.965  0.5865 -0.5592  0.0563
  653MOL0     H86133   0.050   4.750  10.212 -2.9349 -1.0854  1.6090
  653MOL0     H86134  -0.056   4.734  10.075  1.8883 -0.7977  0.2964
  653MOL0     H86135  -0.161   4.853  10.270  1.0212 -0.8603  0.2464
  653MOL0     H86136  -0.151   4.965  10.132 -1.3082 -0.5925  0.0061
  653MOL0     H86137   0.050   5.066  10.217  1.1547 -2.8090 -0.2001
  653MOL0     H86138   0.049   4.958  10.354  0.4805 -0.5739  0.6535
  653MOL0     H86139  -0.212   5.127  10.300  2.8398  0.7535 -4.4289
  653MOL0     H86140  -0.162   5.058  10.445  1.1106  3.7493  3.0362
  653MOL0     H86141   0.037   5.237  10.428 -0.1179  1.3614 -0.3511
  653MOL0     H86142  -0.118   5.298  10.448  0.3344 -0.4342  1.4151
  653MOL0     H86143   0.026   5.277  10.181  1.3429 -1.7299  1.6405
  653MOL0     H86144   0.009   5.434  10.262  0.3392 -0.7507  3.8211
  653MOL0     H86145  -0.165   5.424  10.092  0.5373  1.3337  1.3984
  653MOL0     H86146  -0.218   5.262  10.149 -1.3963  0.9825 -1.1427
  653MOL0     H86147  -0.352   5.491  10.203 -1.6177  0.8849  1.7929
  653MOL0     H86148  -0.226   5.524  10.311  1.8242  0.8450 -3.3751
  653MOL0     H86149  -0.425   5.191  10.227 -0.7399 -1.0230  0.1510
  653MOL0     H86150  -0.698   5.129  10.315 -0.9586  0.2581 -0.0138
  653MOL0     H86151  -0.720   5.157  10.492  1.1548 -0.7723  0.1843
  653MOL0     H86152  -0.515   4.970  10.360  1.8873  0.7857  0.1644
  653MOL0     H86153  -0.659   4.931  10.449  2.2678 -1.6681  0.2854
  653MOL0     H86154  -0.462   4.898  10.583  0.4422  0.1243 -1.5004
  653MOL0     H86155  -0.407   5.061  10.554  2.0895 -1.6786  3.2258
  653MOL0     H86156  -0.580   5.160  10.682 -0.5392 -0.2910  0.7131
  653MOL0     H86157  -0.495   5.028  10.774  3.9879  0.8538 -2.1943
  653MOL0     H86158  -0.720   5.258  10.777 -0.1649  0.7324 -2.1773
  653MOL0     H86159  -0.909   5.327  10.905 -0.7692 -0.3033 -3.2459
  653MOL0     H86160  -1.379   4.952  11.201 -0.1259  0.0529 -1.3180
  653MOL0     H86161  -1.576   5.046  11.303  1.8645  1.6496  1.7325
  653MOL0     H86162  -1.701   5.199  11.412  0.2627 -1.0117 -2.2828
  653MOL0     H86163  -1.803   5.120  11.289  3.4117 -1.7171  0.1307
  653MOL0     H86164  -1.828   5.405  11.385  1.4598 -0.3014 -0.5712
  653MOL0     H86165  -1.919   5.269  11.468  0.3770 -0.2263 -0.0771
  653MOL0     H86166  -2.034   5.217  11.272  0.4564  0.8289  4.4142
  653MOL0     H86167  -1.949   5.335  11.172 -0.7443  0.3823 -0.0053
  653MOL0     H86168  -2.136   5.396  11.408 -0.7411  0.8887 -0.1245
  653MOL0     H86169  -2.053   5.514  11.304  1.7142 -0.5529  0.6405
  653MOL0     H86170  -2.205   5.307  11.167 -0.4683  0.1299  0.1461
  653MOL0     H86171  -2.188   5.490  11.154 -0.9378  0.3641 -0.0158
  653MOL0     H86172  -2.353   5.531  11.292  1.8603 -0.6531  1.9392
  653MOL0     H86173  -2.349   5.373  11.371  2.0417 -1.4058 -0.8364
  653MOL0     H86174  -2.465   5.464  11.104 -1.4512  1.7154  1.5581
  653MOL0     H86175  -2.433   5.296  11.123 -0.2084  0.7590 -0.7334
  653MOL0     H86176  -2.618   5.474  11.305 -0.4916  0.0878 -0.3159
  653MOL0     H86177  -2.609   5.304  11.323  0.6658  0.7686  0.7682
  653MOL0     H86178  -1.557   5.397  11.071 -2.7598 -2.1301  1.7131
  653MOL0     H86179  -1.343   5.328  10.976 -2.2753  0.8534 -1.7593
  653MOL0     H86180  -1.064   4.927  10.937  2.6816 -3.2403 -1.3488
  653MOL0     H86181  -0.878   4.845  10.797  0.6806  0.7913  0.7239
  653MOL0     H86182   0.279   5.006   9.986  0.0049 -1.6770  2.4108
  653MOL0     H86183   0.464   4.914   9.843 -0.5811 -0.7044  1.7218
  653MOL0     H86184   0.702   4.321   9.856 -1.6895 -1.3104 -0.8804
  653MOL0     H86185   0.868   4.213   9.715  0.2004 -0.2155 -0.8661
  653MOL0     H86186   0.841   4.112   9.508 -1.5334 -1.8541 -3.8286
  653MOL0     H86187   1.017   4.134   9.534  2.7037  0.7161 -2.2827
  653MOL0     H86188   0.867   4.132   9.267 -2.4607 -2.7764  2.1087
  653MOL0     H86189   1.041   4.117   9.275 -0.4654  0.6127 -0.3676
  653MOL0     H86190   0.834   3.910   9.371 -1.1237  1.6608 -1.2127
  653MOL0     H86191   1.006   3.885   9.392 -1.4656  0.5412  1.4454
  653MOL0     H86192   0.855   3.924   9.130 -0.2275  0.8039  2.2914
  653MOL0     H86193   1.034   3.921   9.142  0.8786 -0.4785  2.0368
  653MOL0     H86194   0.978   3.510   9.212  0.7303 -0.9543  0.5956
  653MOL0     H86195   0.816   4.520   9.419 -1.0504 -1.2247 -0.3443
  653MOL0     H86196   0.662   4.637   9.568 -3.0648 -2.2428 -2.7248
  654MOL0     O86197   4.616   3.405   8.596  1.3180 -0.3115 -0.9097
  654MOL0     C86198   4.648   3.501   8.520  0.5863  0.5272  0.5247
  654MOL0     O86199   4.568   3.537   8.417 -0.4156  0.2858 -0.2061
  654MOL0     C86200   4.447   3.482   8.397 -0.1841  0.2857  0.1969
  654MOL0     C86201   4.421   3.373   8.310 -0.0152  0.0223  0.5874
  654MOL0     C86202   4.285   3.322   8.298 -0.7369 -0.5269  0.4468
  654MOL0     C86203   4.174   3.391   8.364 -0.3580 -0.4589  0.2769
  654MOL0     O86204   4.052   3.339   8.355  0.3446 -0.7523 -0.2561
  654MOL0     C86205   4.023   3.250   8.456  1.2333  0.1283  0.2314
  654MOL0     C86206   3.935   3.331   8.552 -0.0652  0.0831  0.5216
  654MOL0     C86207   3.866   3.252   8.660  0.0914 -0.9475  0.7188
  654MOL0     C86208   3.758   3.339   8.721 -0.7875  0.7558  0.0516
  654MOL0     C86209   3.694   3.280   8.850  0.4520  0.0956 -0.2144
  654MOL0     C86210   3.617   3.404   8.916 -0.1866 -0.2355 -0.1888
  654MOL0     C86211   3.493   3.358   8.985 -0.1859 -0.2602 -1.2036
  654MOL0     C86212   3.360   3.346   8.896  0.9775 -0.4399 -0.3060
  654MOL0     N86213   3.244   3.304   8.976 -0.8682 -0.0480  0.0183
  654MOL0     C86214   3.152   3.382   9.029 -0.2854 -0.5434 -0.5333
  654MOL0     C86215   3.065   3.293   9.082 -0.1088 -0.8387 -0.0609
  654MOL0     C86216   2.946   3.332   9.151  0.1835  0.1284 -0.1404
  654MOL0     C86217   2.863   3.222   9.213  0.2888  0.5405  0.1050
  654MOL0     C86218   2.724   3.285   9.239  0.3405 -1.5385 -0.5328
  654MOL0     C86219   2.630   3.185   9.302  0.4420  0.0499  0.4790
  654MOL0     O86220   2.498   3.249   9.278 -0.8983  0.0169  0.4019
  654MOL0     C86221   2.391   3.186   9.330 -0.8155 -0.2313  0.1027
  654MOL0     C86222   2.384   3.048   9.372  0.3496  0.2480 -0.4100
  654MOL0     C86223   2.261   3.004   9.427 -0.1455 -0.5424 -0.7178
  654MOL0     C86224   2.150   3.092   9.436  0.2068 -0.2409  0.4784
  654MOL0     C86225   2.017   3.050   9.489 -0.7027  0.0434  0.2066
  654MOL0     O86226   1.914   3.139   9.484 -0.2077  0.0258  0.3372
  654MOL0     C86227   1.779   3.106   9.511 -0.3172 -0.4872  0.6531
  654MOL0     C86228   1.726   2.980   9.530 -0.2560 -0.0848  0.8745
  654MOL0     C86229   1.590   2.966   9.512 -0.9037 -0.1421 -0.2381
  654MOL0     C86230   1.502   3.070   9.501 -0.6160  0.4799  1.4826
  654MOL0     O86231   1.369   3.037   9.496  0.0155  0.4789  0.6857
  654MOL0     C86232   1.282   3.145   9.475  0.6099 -0.7243 -0.4461
  654MOL0     C86233   1.135   3.101   9.446 -0.1698 -0.0949  0.4543
  654MOL0     C86234   1.046   3.197   9.363  0.1339 -0.4027 -0.5376
  654MOL0     C86235   0.899   3.164   9.362 -0.4400  1.0942  0.1075
  654MOL0     C86236   0.816   3.259   9.283  0.3450  0.6047 -0.3202
  654MOL0     C86237   0.851   3.244   9.129  0.3563  0.3506 -0.2238
  654MOL0     C86238   0.745   3.335   9.057  0.1122 -0.4251  0.0550
  654MOL0     C86239   0.798   3.376   8.915 -0.0301 -0.0353  0.7706
  654MOL0    Cl86240   0.831   3.230   8.806 -0.2737  0.2684  0.2958
  654MOL0     C86241   1.554   3.204   9.503 -0.1000 -0.2828  0.3264
  654MOL0     C86242   1.698   3.217   9.505 -0.2946 -0.3373 -0.2167
  654MOL0     O86243   2.014   2.931   9.536 -0.1091 -0.6022 -0.7171
  654MOL0     C86244   2.153   3.224   9.380 -0.8755  0.5774  0.3739
  654MOL0     C86245   2.276   3.267   9.331  0.2858 -0.6439 -0.0499
  654MOL0     N86246   3.096   3.165   9.038  0.9053 -0.4661 -0.5547
  654MOL0     N86247   3.210   3.177   8.983  0.2296 -0.0074 -0.2992
  654MOL0     C86248   4.200   3.499   8.448 -0.4534  0.6512  0.3210
  654MOL0     C86249   4.335   3.545   8.464 -0.4859  0.3486 -0.3105
  654MOL0     C86250   4.761   3.581   8.549 -0.2431 -0.4696  0.4033
  654MOL0     C86251   4.839   3.563   8.658  0.5036 -0.2374 -1.2605
  654MOL0     C86252   4.968   3.621   8.675 -0.0012  0.3504 -0.2557
  654MOL0     C86253   5.018   3.708   8.579 -0.6020  0.8677  0.9615
  654MOL0     O86254   5.147   3.761   8.594  0.0044 -0.6027  0.0250
  654MOL0     C86255   5.202   3.854   8.498  0.2766 -0.3668  0.5539
  654MOL0     C86256   5.336   3.907   8.557 -1.3286 -0.5414  0.4815
  654MOL0     C86257   5.375   4.020   8.460 -0.5993  0.5825 -0.5935
  654MOL0     C86258   5.484   4.112   8.520 -0.1052 -0.7220  0.3056
  654MOL0     C86259   5.619   4.049   8.522 -0.1543  0.1526  0.9072
  654MOL0     C86260   5.728   3.995   8.511 -0.1734  0.7282  0.1025
  654MOL0     C86261   4.938   3.738   8.471  0.1633  0.1416  0.4322
  654MOL0     C86262   4.804   3.681   8.458 -0.6482  0.5938  0.9048
  654MOL0     H86263   4.506   3.336   8.253 -0.0792  0.5331  0.1553
  654MOL0     H86264   4.276   3.229   8.242 -0.8785 -0.3108  0.1040
  654MOL0     H86265   4.120   3.218   8.495  2.9776  3.6805 -0.8532
  654MOL0     H86266   3.971   3.162   8.417 -0.0246  1.0623 -0.2537
  654MOL0     H86267   3.861   3.380   8.489 -2.2076 -2.0035  1.2902
  654MOL0     H86268   3.991   3.406   8.609 -1.5464 -0.1345  2.3581
  654MOL0     H86269   3.930   3.225   8.744 -1.3972 -3.3474  1.1831
  654MOL0     H86270   3.815   3.160   8.631  2.1595 -2.2139  0.8784
  654MOL0     H86271   3.797   3.442   8.726  0.0801  0.4358  0.0535
  654MOL0     H86272   3.681   3.351   8.644  0.6644  0.9464 -1.4145
  654MOL0     H86273   3.772   3.246   8.918  0.7163  2.8907  1.0357
  654MOL0     H86274   3.621   3.199   8.845  1.2036 -0.6617  0.8445
  654MOL0     H86275   3.598   3.488   8.848  1.6223  0.1614 -0.2647
  654MOL0     H86276   3.684   3.447   8.991 -1.7170 -0.8415  1.5996
  654MOL0     H86277   3.519   3.265   9.036  1.7305  1.7306  1.7422
  654MOL0     H86278   3.478   3.425   9.069  3.2072 -0.3165 -0.3957
  654MOL0     H86279   3.387   3.271   8.821  1.6497  1.3205 -1.9349
  654MOL0     H86280   3.333   3.440   8.847  3.1314  1.3141  1.6261
  654MOL0     H86281   3.155   3.490   9.022  1.4836 -0.6708 -3.9914
  654MOL0     H86282   2.885   3.373   9.071 -2.6207 -0.6403  1.4715
  654MOL0     H86283   2.957   3.411   9.226 -1.2630 -0.5751  0.8643
  654MOL0     H86284   2.901   3.178   9.305  1.0151  1.4281  0.2511
  654MOL0     H86285   2.847   3.140   9.143  0.3589 -1.8934  2.7787
  654MOL0     H86286   2.731   3.368   9.310  0.8987 -1.9035 -0.1563
  654MOL0     H86287   2.689   3.321   9.142  4.6508 -1.0774 -2.0941
  654MOL0     H86288   2.656   3.174   9.408  0.5671 -0.5809  0.3842
  654MOL0     H86289   2.642   3.089   9.251 -1.0939  1.0582 -1.9253
  654MOL0     H86290   2.471   2.984   9.372 -1.1070 -1.8652 -1.3875
  654MOL0     H86291   2.246   2.908   9.476 -1.1458 -0.0327  0.0147
  654MOL0     H86292   1.788   2.892   9.541  1.3829  0.9606  0.3980
  654MOL0     H86293   1.541   2.869   9.515 -1.1127 -0.0185  1.7881
  654MOL0     H86294   1.317   3.208   9.392 -0.1668  0.8722  0.3795
  654MOL0     H86295   1.278   3.204   9.567  0.5374 -0.6556 -0.4933
  654MOL0     H86296   1.084   3.087   9.542 -0.2472 -0.1532  0.4032
  654MOL0     H86297   1.141   3.010   9.387  3.2584  1.5106 -1.9885
  654MOL0     H86298   1.077   3.201   9.258  0.0227  3.1099 -0.5633
  654MOL0     H86299   1.074   3.294   9.406  0.9680 -1.2026  0.7715
  654MOL0     H86300   0.889   3.060   9.332  2.0675  1.4869 -2.5845
  654MOL0     H86301   0.870   3.160   9.467  1.1804 -0.9435  0.5526
  654MOL0     H86302   0.830   3.359   9.323 -1.7462  1.3660 -1.3368
  654MOL0     H86303   0.711   3.234   9.303  1.2927 -0.7361  3.9802
  654MOL0     H86304   0.851   3.138   9.105  4.4532  0.5597 -1.8605
  654MOL0     H86305   0.950   3.284   9.109  0.9442 -1.0682 -0.2352
  654MOL0     H86306   0.646   3.292   9.069  0.3413 -0.6284  1.4144
  654MOL0     H86307   0.744   3.427   9.117 -0.5156 -1.3352  1.4780
  654MOL0     H86308   0.886   3.441   8.926 -1.4965  1.9343  1.5401
  654MOL0     H86309   0.725   3.444   8.870 -2.8870 -1.8255  2.4303
  654MOL0     H86310   1.487   3.289   9.502  0.3697  0.0874 -0.3939
  654MOL0     H86311   1.732   3.320   9.502 -0.5060  0.0018  3.4927
  654MOL0     H86312   2.076   3.300   9.386 -0.6489  0.7097  2.4143
  654MOL0     H86313   2.289   3.368   9.296 -0.7063 -0.2844  0.5850
  654MOL0     H86314   4.116   3.553   8.490 -0.4931  1.0586 -0.2761
  654MOL0     H86315   4.358   3.635   8.520  2.6956 -1.2744  1.3259
  654MOL0     H86316   4.817   3.481   8.727  0.4319 -2.7359 -4.0449
  654MOL0     H86317   5.045   3.596   8.748  1.4636  2.7462 -0.8835
  654MOL0     H86318   5.130   3.933   8.479 -1.6333 -1.6212  2.1618
  654MOL0     H86319   5.228   3.819   8.398  1.7449 -0.2297  0.8558
  654MOL0     H86320   5.320   3.939   8.660 -1.1299  0.9929  0.0474
  654MOL0     H86321   5.411   3.828   8.564 -1.7108 -1.0377 -0.7151
  654MOL0     H86322   5.288   4.085   8.448 -2.7577 -2.3340 -1.8090
  654MOL0     H86323   5.409   3.980   8.364 -0.7837  1.6594 -1.1182
  654MOL0     H86324   5.492   4.202   8.458  0.2872 -1.1239 -0.2429
  654MOL0     H86325   5.450   4.135   8.621  0.1621  0.3616  0.1577
  654MOL0     H86326   5.818   3.938   8.500 -1.0359 -0.5228 -0.9090
  654MOL0     H86327   4.984   3.800   8.395  2.4414  1.8909  3.0150
  654MOL0     H86328   4.745   3.697   8.369 -0.1686 -1.6944  0.1080
  655MOL0     O86329   7.795   7.293   1.516 -0.3544 -0.1152 -0.4301
  655MOL0     C86330   7.741   7.257   1.412 -0.2027  1.2669 -0.4578
  655MOL0     O86331   7.669   7.338   1.324 -0.0532  0.1679 -0.5583
  655MOL0     C86332   7.643   7.468   1.333  0.0281  0.0190 -1.2037
  655MOL0     C86333   7.716   7.572   1.399  0.6164  0.0419  0.3510
  655MOL0     C86334   7.692   7.705   1.383 -0.3128 -0.5333  0.1290
  655MOL0     C86335   7.585   7.747   1.300 -1.1691 -0.0509 -0.2575
  655MOL0     O86336   7.550   7.885   1.292  0.0330  0.4225 -0.8291
  655MOL0     C86337   7.608   7.975   1.384  0.1582 -0.0793 -0.5193
  655MOL0     C86338   7.562   8.121   1.352  0.1106  0.0415 -0.2587
  655MOL0     C86339   7.645   8.235   1.396 -0.6527  0.1034  0.6406
  655MOL0     C86340   7.625   8.263   1.545  0.5285 -0.7243 -0.1436
  655MOL0     C86341   7.550   8.397   1.575 -0.5239 -0.0453  0.3634
  655MOL0     C86342   7.421   8.410   1.490 -0.9560  0.3829  1.1069
  655MOL0     C86343   7.363   8.551   1.527 -0.0272  0.3304  0.3973
  655MOL0     C86344   7.247   8.608   1.446 -0.1824  0.7324  0.5875
  655MOL0     N86345   7.130   8.531   1.496 -0.1393 -0.5581 -0.2323
  655MOL0     C86346   7.069   8.431   1.423  0.3786 -0.8990  0.2304
  655MOL0     C86347   6.967   8.399   1.504  0.8402  0.8176  0.3021
  655MOL0     C86348   6.878   8.283   1.468  0.1863 -0.8115  0.7559
  655MOL0     C86349   6.752   8.264   1.553 -0.7002 -0.1189 -0.0869
  655MOL0     C86350   6.637   8.370   1.523 -0.5739  0.9932 -1.1465
  655MOL0     C86351   6.535   8.381   1.632  1.3374 -0.1555  0.3185
  655MOL0     O86352   6.448   8.268   1.631  0.4167 -0.0503 -0.6072
  655MOL0     C86353   6.359   8.261   1.525  0.2885 -0.4411  0.5278
  655MOL0     C86354   6.329   8.357   1.433 -0.1718  0.2982 -0.6249
  655MOL0     C86355   6.226   8.342   1.337 -0.4571 -0.0542  1.1562
  655MOL0     C86356   6.150   8.225   1.345  0.6868  0.6219  0.6981
  655MOL0     C86357   6.041   8.201   1.245 -0.0933  0.1569 -0.3459
  655MOL0     O86358   5.980   8.079   1.253  0.0420 -0.1447 -0.3363
  655MOL0     C86359   5.876   8.049   1.182 -0.4473 -0.7627  0.5030
  655MOL0     C86360   5.758   8.133   1.175 -0.5415  0.7551  0.2600
  655MOL0     C86361   5.646   8.103   1.091  0.6477  0.4945  0.4237
  655MOL0     C86362   5.664   7.988   1.005  0.1112  0.2662 -0.1508
  655MOL0     O86363   5.560   7.958   0.921 -0.2596 -0.4270 -0.1164
  655MOL0     C86364   5.592   7.907   0.790 -0.2108 -0.1008 -0.6095
  655MOL0     C86365   5.542   7.763   0.775  0.5741  0.7518 -0.0588
  655MOL0     C86366   5.589   7.691   0.649 -0.1041 -0.8077 -0.1657
  655MOL0     C86367   5.741   7.663   0.665 -1.2765 -0.7102 -0.0089
  655MOL0     C86368   5.790   7.566   0.548  0.4802 -0.0866 -0.3416
  655MOL0     C86369   5.791   7.636   0.410  1.0116 -0.2895  0.5440
  655MOL0     C86370   5.884   7.757   0.399 -0.3510  0.9965 -1.3698
  655MOL0     C86371   5.886   7.790   0.250  0.0132 -0.0439  0.0760
  655MOL0    Cl86372   6.013   7.913   0.218 -0.1259  0.3852 -0.0330
  655MOL0     C86373   5.789   7.900   1.016 -0.0707 -0.2864  1.0723
  655MOL0     C86374   5.891   7.940   1.103  0.6996 -0.1626  0.5142
  655MOL0     O86375   6.009   8.284   1.165  0.6041  0.5774 -0.2603
  655MOL0     C86376   6.169   8.130   1.437  0.1799  0.0753 -0.9944
  655MOL0     C86377   6.268   8.155   1.531 -1.2550  0.5608  0.0740
  655MOL0     N86378   6.969   8.468   1.620  0.0525  0.1352 -0.6943
  655MOL0     N86379   7.063   8.552   1.612  0.0417  0.6056 -0.1065
  655MOL0     C86380   7.503   7.646   1.240 -0.5017  0.7605 -0.6603
  655MOL0     C86381   7.532   7.509   1.254  0.1933  0.3524 -0.3296
  655MOL0     C86382   7.756   7.119   1.364 -0.7088 -0.1989  0.2703
  655MOL0     C86383   7.657   7.073   1.273  0.3599 -0.3510  0.2974
  655MOL0     C86384   7.658   6.939   1.230 -0.5498  0.3219  0.5212
  655MOL0     C86385   7.771   6.858   1.268  0.8977  1.0301 -0.2484
  655MOL0     O86386   7.774   6.719   1.246  0.6034 -0.7458 -0.1283
  655MOL0     C86387   7.653   6.662   1.185 -1.0619 -0.2303 -0.9581
  655MOL0     C86388   7.655   6.510   1.182 -0.1816  0.8924  0.8350
  655MOL0     C86389   7.542   6.443   1.099  0.5192 -0.6974 -0.3051
  655MOL0     C86390   7.406   6.474   1.164 -0.3136  0.0627  0.1889
  655MOL0     C86391   7.311   6.385   1.102 -0.1698 -0.6004 -0.4617
  655MOL0     C86392   7.231   6.321   1.035 -0.5874  0.4822  0.4163
  655MOL0     C86393   7.867   6.910   1.351  0.0768 -1.0645  0.1146
  655MOL0     C86394   7.864   7.039   1.400 -0.5678 -0.3113 -0.0267
  655MOL0     H86395   7.804   7.541   1.455  1.1571  1.0007  0.0508
  655MOL0     H86396   7.763   7.779   1.420 -0.7300  1.4227 -2.6402
  655MOL0     H86397   7.713   7.982   1.356  0.3113  1.3384  0.3125
  655MOL0     H86398   7.596   7.957   1.491  1.9410  1.3772 -0.0208
  655MOL0     H86399   7.458   8.130   1.386  0.2130  0.3272 -0.0177
  655MOL0     H86400   7.548   8.129   1.243 -1.2917  1.8916  0.0040
  655MOL0     H86401   7.611   8.323   1.340 -3.7621  0.4782  2.8410
  655MOL0     H86402   7.750   8.219   1.370 -0.9298  1.6194 -1.8313
  655MOL0     H86403   7.563   8.185   1.589  0.9223  0.6127  3.0465
  655MOL0     H86404   7.721   8.269   1.598  0.6975 -0.0244 -0.5183
  655MOL0     H86405   7.621   8.480   1.563  0.9861 -1.0547  1.8618
  655MOL0     H86406   7.525   8.410   1.680 -0.6595 -0.1492  0.3436
  655MOL0     H86407   7.350   8.331   1.515  1.0805 -1.9405 -0.0706
  655MOL0     H86408   7.435   8.401   1.382 -2.7522  0.9050  0.7962
  655MOL0     H86409   7.331   8.537   1.631 -2.0346  0.6707 -0.1415
  655MOL0     H86410   7.435   8.633   1.518 -1.3296  1.2564 -3.2381
  655MOL0     H86411   7.259   8.595   1.338 -0.9302 -0.3019  0.6133
  655MOL0     H86412   7.226   8.715   1.452  0.6245  1.0393 -1.3735
  655MOL0     H86413   7.105   8.393   1.328  0.7967 -0.5887  0.2615
  655MOL0     H86414   6.941   8.196   1.486  1.1641 -0.2262  0.2432
  655MOL0     H86415   6.852   8.280   1.362  2.2892 -4.0461  0.2042
  655MOL0     H86416   6.798   8.291   1.649  1.9326 -0.4701 -1.1744
  655MOL0     H86417   6.712   8.163   1.544 -2.5131  0.3854  1.6502
  655MOL0     H86418   6.684   8.469   1.524  0.9160  0.3366  0.7184
  655MOL0     H86419   6.599   8.354   1.422  0.4619  0.5372 -1.4758
  655MOL0     H86420   6.471   8.469   1.626  0.8190 -0.5289 -4.7569
  655MOL0     H86421   6.576   8.392   1.732  1.2146  1.6384  0.1956
  655MOL0     H86422   6.398   8.441   1.427  0.7172 -0.4797 -1.5684
  655MOL0     H86423   6.221   8.412   1.254  2.0954 -0.0769  0.9104
  655MOL0     H86424   5.757   8.227   1.228  0.4410  0.6124  0.5635
  655MOL0     H86425   5.554   8.160   1.084  1.4688  1.9815  1.2756
  655MOL0     H86426   5.697   7.926   0.766 -0.9107  1.6066 -2.5594
  655MOL0     H86427   5.537   7.973   0.723 -0.9675 -0.4648 -0.3506
  655MOL0     H86428   5.433   7.765   0.778  0.4208 -1.0113 -2.0025
  655MOL0     H86429   5.576   7.707   0.863 -0.3754 -0.6873 -0.5760
  655MOL0     H86430   5.572   7.759   0.565 -1.2617 -1.5629 -0.5697
  655MOL0     H86431   5.530   7.602   0.626  1.6804 -2.2384  0.4906
  655MOL0     H86432   5.800   7.755   0.670 -0.1375 -1.2436 -2.2188
  655MOL0     H86433   5.760   7.610   0.759 -4.1619 -0.0642  1.0117
  655MOL0     H86434   5.719   7.482   0.549 -1.3378  1.3927  0.3386
  655MOL0     H86435   5.882   7.516   0.578 -1.3476 -2.5534  1.6624
  655MOL0     H86436   5.694   7.678   0.380  1.9067 -0.1972 -2.6550
  655MOL0     H86437   5.808   7.555   0.338 -1.5756 -0.0070 -0.5022
  655MOL0     H86438   5.855   7.850   0.448  2.0572 -0.3453  3.1102
  655MOL0     H86439   5.983   7.729   0.436 -2.5644 -4.8309  1.3442
  655MOL0     H86440   5.789   7.834   0.222  1.1681  0.7930 -2.9924
  655MOL0     H86441   5.896   7.698   0.193 -0.0134  0.7660 -1.2795
  655MOL0     H86442   5.803   7.809   0.960 -0.3622 -0.8361  1.8739
  655MOL0     H86443   5.989   7.896   1.117  0.3711 -1.1190 -0.1090
  655MOL0     H86444   6.106   8.042   1.448 -0.5292  0.5510 -1.1846
  655MOL0     H86445   6.287   8.077   1.603  2.9279  1.5859  0.3325
  655MOL0     H86446   7.413   7.676   1.187 -0.1428  0.0477 -1.7017
  655MOL0     H86447   7.469   7.435   1.207  1.1820 -0.7943  0.1035
  655MOL0     H86448   7.591   7.143   1.223  1.2559  1.5360  1.6215
  655MOL0     H86449   7.570   6.899   1.181  1.2180 -0.7067 -2.0446
  655MOL0     H86450   7.642   6.708   1.086  1.4208  1.9188 -0.3338
  655MOL0     H86451   7.567   6.693   1.245  0.2143 -1.6666  1.7950
  655MOL0     H86452   7.755   6.477   1.153  0.2214  2.3920  0.3998
  655MOL0     H86453   7.650   6.464   1.282 -1.0923  0.1291  0.4560
  655MOL0     H86454   7.561   6.335   1.096 -0.8314 -0.9268 -0.9391
  655MOL0     H86455   7.547   6.498   1.004 -2.3563  1.5756  0.7416
  655MOL0     H86456   7.415   6.470   1.273 -0.6634  0.9620  0.2612
  655MOL0     H86457   7.368   6.572   1.136 -1.3502 -0.7116 -1.2441
  655MOL0     H86458   7.156   6.270   0.976  0.8144 -2.1611  0.7694
  655MOL0     H86459   7.943   6.837   1.377  2.0954  1.8091  3.2485
  655MOL0     H86460   7.942   7.059   1.474 -1.3096 -4.6526  2.2692
  656MOL0     O86461   5.925  11.153   7.662  0.7843 -0.3203  0.2263
  656MOL0     C86462   6.019  11.157   7.748  0.6538  0.4304 -0.3862
  656MOL0     O86463   6.011  11.220   7.869 -0.1182 -0.0787 -0.2854
  656MOL0     C86464   5.904  11.307   7.902  0.3347  0.7862 -0.2288
  656MOL0     C86465   5.779  11.300   7.859  0.6077 -0.4210  0.0887
  656MOL0     C86466   5.680  11.393   7.899  0.1806 -0.2511 -0.0405
  656MOL0     C86467   5.715  11.500   7.983 -0.1770 -0.8764  0.2616
  656MOL0     O86468   5.619  11.591   8.036 -0.0309  0.4257 -0.2629
  656MOL0     C86469   5.493  11.618   7.965 -0.8273  0.5193 -0.1573
  656MOL0     C86470   5.523  11.717   7.848 -0.3344 -0.6487 -0.4929
  656MOL0     C86471   5.568  11.860   7.896 -0.2959  0.1071  0.5356
  656MOL0     C86472   5.555  11.966   7.794  0.1999  0.9039 -0.0919
  656MOL0     C86473   5.595  12.102   7.848  0.1223  0.0164  0.4049
  656MOL0     C86474   5.563  12.213   7.739 -0.2868  0.5179 -0.0231
  656MOL0     C86475   5.418  12.228   7.697  0.9723  0.9303 -0.1474
  656MOL0     C86476   5.312  12.252   7.805 -0.1863  0.1974  0.2515
  656MOL0     N86477   5.346  12.373   7.881 -0.0095  0.5573  0.6940
  656MOL0     C86478   5.418  12.385   7.997  0.1635  0.5992  1.0898
  656MOL0     C86479   5.395  12.505   8.044 -0.3255  0.2451  0.2550
  656MOL0     C86480   5.437  12.551   8.185 -0.5898  1.0237  0.4165
  656MOL0     C86481   5.565  12.648   8.190 -0.2651  0.6398 -0.2512
  656MOL0     C86482   5.585  12.717   8.323  0.7088  0.0550 -0.1573
  656MOL0     C86483   5.694  12.664   8.416  0.0140 -0.3047  0.0537
  656MOL0     O86484   5.833  12.675   8.359  0.1157 -0.2189  0.4364
  656MOL0     C86485   5.928  12.700   8.453  0.5243  0.2358 -0.1034
  656MOL0     C86486   5.916  12.774   8.574 -0.0129  0.5557 -0.2284
  656MOL0     C86487   6.018  12.780   8.666 -0.3807  1.4883  0.6325
  656MOL0     C86488   6.148  12.731   8.639  0.9942 -0.0407 -0.2213
  656MOL0     C86489   6.263  12.738   8.734 -0.4257 -0.1325 -0.3412
  656MOL0     O86490   6.388  12.729   8.670 -0.3496  0.4616  0.2309
  656MOL0     C86491   6.514  12.709   8.727  0.2006 -1.6584  0.2934
  656MOL0     C86492   6.534  12.737   8.859  0.5668 -0.3946 -1.0192
  656MOL0     C86493   6.649  12.715   8.926 -0.8074  0.9850 -0.1596
  656MOL0     C86494   6.758  12.653   8.857  0.0928 -0.4461  0.7645
  656MOL0     O86495   6.872  12.634   8.925 -0.1302 -0.1618 -0.6124
  656MOL0     C86496   6.979  12.687   8.842 -0.8882 -0.2857 -0.6526
  656MOL0     C86497   7.110  12.702   8.908 -0.6056  0.2195  0.3790
  656MOL0     C86498   7.218  12.745   8.806 -0.5829 -0.0133  0.1247
  656MOL0     C86499   7.340  12.802   8.877  0.2991  0.1613  0.0734
  656MOL0     C86500   7.470  12.810   8.784  0.4071 -0.5272  0.0352
  656MOL0     C86501   7.573  12.900   8.845  0.0231 -0.0947  0.3439
  656MOL0     C86502   7.707  12.915   8.770 -0.5495  0.2062  0.2047
  656MOL0     C86503   7.791  12.797   8.736 -0.5621  0.4641  1.0865
  656MOL0    Cl86504   7.817  12.694   8.894  0.2400  0.2037 -0.3372
  656MOL0     C86505   6.736  12.623   8.719  0.0557 -0.1216  0.0228
  656MOL0     C86506   6.613  12.657   8.649 -0.4134  0.6837 -0.8005
  656MOL0     O86507   6.243  12.744   8.859  0.3677  0.1353  0.6556
  656MOL0     C86508   6.166  12.658   8.518  0.0916  0.5433 -0.0031
  656MOL0     C86509   6.058  12.643   8.430 -0.3959 -0.1394  0.1830
  656MOL0     N86510   5.305  12.571   7.961  0.6315  0.3278 -0.1925
  656MOL0     N86511   5.284  12.498   7.866  0.2207  0.2803  0.0692
  656MOL0     C86512   5.844  11.504   8.034  0.7336 -0.4551  0.3377
  656MOL0     C86513   5.931  11.407   7.999  0.0837  0.2396 -0.7231
  656MOL0     C86514   6.154  11.126   7.691 -0.3055  0.5443  1.3343
  656MOL0     C86515   6.161  11.052   7.567  0.2560 -0.6429 -0.1560
  656MOL0     C86516   6.285  11.030   7.504  0.1710 -0.9999  0.6559
  656MOL0     C86517   6.402  11.079   7.557  0.4148  0.0353 -0.4331
  656MOL0     O86518   6.511  11.065   7.471 -0.0608  0.3349  0.1628
  656MOL0     C86519   6.636  11.122   7.511 -0.0894 -0.4504 -0.1573
  656MOL0     C86520   6.710  11.015   7.592  0.2090 -0.5022  0.4308
  656MOL0     C86521   6.858  11.040   7.624 -0.3444  0.0632 -0.2098
  656MOL0     C86522   6.960  10.972   7.538 -0.3235  1.1131 -0.7247
  656MOL0     C86523   6.997  10.836   7.584  0.0552  0.0583 -0.3616
  656MOL0     C86524   7.042  10.734   7.628 -0.0953  0.4457  0.9421
  656MOL0     C86525   6.399  11.150   7.682  0.0609  0.2073 -0.2843
  656MOL0     C86526   6.277  11.166   7.752  0.2001 -0.5225 -0.0348
  656MOL0     H86527   5.751  11.225   7.786 -1.2677  1.8772 -1.7437
  656MOL0     H86528   5.579  11.390   7.861  0.5844  0.8484 -1.2871
  656MOL0     H86529   5.422  11.665   8.034 -1.1453  1.0236 -0.8175
  656MOL0     H86530   5.451  11.521   7.934  0.7768 -0.1292 -0.3839
  656MOL0     H86531   5.437  11.723   7.780  1.9051 -1.6004 -3.6291
  656MOL0     H86532   5.607  11.679   7.790  2.3842  2.5748  1.0177
  656MOL0     H86533   5.674  11.854   7.923 -0.0435 -0.9822 -0.6052
  656MOL0     H86534   5.507  11.887   7.983  0.7701  2.5380  0.5972
  656MOL0     H86535   5.622  11.942   7.710 -0.5871  2.6755 -1.2837
  656MOL0     H86536   5.452  11.967   7.758  0.3484 -3.6718 -1.2559
  656MOL0     H86537   5.699  12.112   7.879 -0.6385  1.9622  2.6991
  656MOL0     H86538   5.545  12.125   7.943  0.1548 -0.9934  0.6813
  656MOL0     H86539   5.622  12.195   7.649 -1.5822 -2.8308 -0.3482
  656MOL0     H86540   5.597  12.305   7.789  1.9953  0.8650 -1.9940
  656MOL0     H86541   5.401  12.308   7.624 -2.4339 -0.3438 -0.9042
  656MOL0     H86542   5.391  12.137   7.644 -1.5400  1.8101 -0.5097
  656MOL0     H86543   5.312  12.171   7.879 -0.0862  0.2714  0.3336
  656MOL0     H86544   5.212  12.265   7.764  0.8708  0.7236 -2.3780
  656MOL0     H86545   5.473  12.304   8.044 -1.7340 -0.9238  0.7691
  656MOL0     H86546   5.453  12.468   8.254 -3.5836  1.0482  1.2753
  656MOL0     H86547   5.354  12.612   8.222 -0.0168  0.9674  1.8375
  656MOL0     H86548   5.545  12.722   8.112  2.0036  0.1881 -1.3463
  656MOL0     H86549   5.653  12.591   8.159 -0.3201  0.7366 -0.5845
  656MOL0     H86550   5.619  12.821   8.313  1.2967 -0.0805  0.3624
  656MOL0     H86551   5.495  12.717   8.385 -0.0809  3.0640 -1.1098
  656MOL0     H86552   5.678  12.558   8.440  0.9348 -0.2936  0.7539
  656MOL0     H86553   5.681  12.718   8.510  2.2819  2.8473 -1.2863
  656MOL0     H86554   5.818  12.815   8.597 -1.3558 -0.8683 -2.9386
  656MOL0     H86555   5.996  12.809   8.768 -1.3122 -0.6496  1.1102
  656MOL0     H86556   6.451  12.768   8.922 -0.0219 -0.5018 -1.7272
  656MOL0     H86557   6.662  12.756   9.026 -2.2927 -0.9875  0.9393
  656MOL0     H86558   6.952  12.785   8.802 -0.1040 -1.0141 -3.1604
  656MOL0     H86559   6.994  12.603   8.773  1.0415 -0.0031 -0.6257
  656MOL0     H86560   7.148  12.623   8.973  0.9436 -1.2148 -2.0939
  656MOL0     H86561   7.094  12.789   8.973 -1.9750  1.0140 -0.9729
  656MOL0     H86562   7.179  12.830   8.749 -0.9838 -0.2958 -0.0303
  656MOL0     H86563   7.238  12.663   8.737 -0.9437 -1.2261  1.4141
  656MOL0     H86564   7.318  12.901   8.918 -1.5154 -0.2709  0.2350
  656MOL0     H86565   7.376  12.732   8.952  1.9572  0.2135 -0.6391
  656MOL0     H86566   7.441  12.863   8.693  0.8257 -1.6641 -0.7826
  656MOL0     H86567   7.518  12.712   8.776  1.7338  0.0177  0.9764
  656MOL0     H86568   7.593  12.871   8.949  2.2102  0.4042  0.1205
  656MOL0     H86569   7.528  12.999   8.850  1.6611  0.6251  2.6252
  656MOL0     H86570   7.693  12.972   8.677  1.3951 -1.3624 -1.1501
  656MOL0     H86571   7.776  12.976   8.829  0.3959  0.3271 -0.9827
  656MOL0     H86572   7.888  12.817   8.689  0.3484 -2.7624  1.3431
  656MOL0     H86573   7.733  12.736   8.665  2.2902 -0.8311 -0.2847
  656MOL0     H86574   6.816  12.572   8.665  0.4638  1.9419 -1.4468
  656MOL0     H86575   6.592  12.627   8.546  1.5735 -2.1668 -0.5094
  656MOL0     H86576   6.260  12.611   8.495 -0.7546 -0.2151 -2.1398
  656MOL0     H86577   6.067  12.597   8.332 -1.3791 -2.5811  1.1516
  656MOL0     H86578   5.856  11.589   8.099 -1.1548 -0.0062  0.1575
  656MOL0     H86579   6.035  11.407   8.032  0.9137  0.8330 -3.1602
  656MOL0     H86580   6.078  11.007   7.514 -1.4981  3.0510 -0.8696
  656MOL0     H86581   6.288  10.989   7.403 -0.2825 -1.4734  0.8316
  656MOL0     H86582   6.632  11.207   7.580  0.5685 -1.0141  0.5928
  656MOL0     H86583   6.681  11.162   7.420 -1.9541 -0.4555 -1.1480
  656MOL0     H86584   6.660  10.981   7.683  0.3651 -2.3713 -0.1439
  656MOL0     H86585   6.707  10.920   7.538  1.4070 -0.4640  0.2660
  656MOL0     H86586   6.872  11.010   7.728 -1.3197 -0.2574 -0.1643
  656MOL0     H86587   6.873  11.148   7.614 -4.5056  0.5914 -4.6750
  656MOL0     H86588   6.923  10.962   7.435  1.7105  0.5266 -1.4508
  656MOL0     H86589   7.052  11.030   7.543  0.4009 -0.1040  1.9060
  656MOL0     H86590   7.067  10.636   7.661  2.3312 -0.2423 -2.3632
  656MOL0     H86591   6.484  11.195   7.733  0.8735 -2.2816  0.7279
  656MOL0     H86592   6.270  11.224   7.843  2.3407 -2.7396  1.6456
  657MOL0     O86593   7.577   1.438   4.166  0.4123  0.8671  0.5166
  657MOL0     C86594   7.564   1.363   4.262 -0.6214  0.4029  0.4128
  657MOL0     O86595   7.458   1.353   4.335 -0.2361 -0.6516  0.3144
  657MOL0     C86596   7.364   1.452   4.317  1.1507 -1.6075 -0.2574
  657MOL0     C86597   7.377   1.582   4.365 -0.7490  0.3548  0.1934
  657MOL0     C86598   7.274   1.677   4.343  0.2562 -0.6317  0.9721
  657MOL0     C86599   7.153   1.638   4.290 -0.3726 -0.0475 -0.5556
  657MOL0     O86600   7.059   1.733   4.282  0.9009 -0.0102 -0.4456
  657MOL0     C86601   6.920   1.686   4.295 -0.0621  0.2396  0.6688
  657MOL0     C86602   6.834   1.808   4.253  0.8095 -1.1301 -0.4577
  657MOL0     C86603   6.685   1.805   4.312 -0.5666  0.1296 -0.6589
  657MOL0     C86604   6.617   1.677   4.268 -0.2675  0.1899  0.1621
  657MOL0     C86605   6.471   1.680   4.290 -0.3655 -0.4659  0.1721
  657MOL0     C86606   6.386   1.555   4.270  0.3500 -0.2581 -0.0844
  657MOL0     C86607   6.234   1.557   4.310 -0.2898  0.0696 -0.1898
  657MOL0     C86608   6.163   1.426   4.267 -0.6972  0.5049  0.9766
  657MOL0     N86609   6.025   1.416   4.316 -0.8637  0.9020 -0.7468
  657MOL0     C86610   5.986   1.327   4.407  0.7112  0.5344  0.3527
  657MOL0     C86611   5.858   1.350   4.430  0.1601  0.1543 -0.4668
  657MOL0     C86612   5.771   1.270   4.524 -0.4985  0.6962 -0.5705
  657MOL0     C86613   5.734   1.138   4.476  0.7839  0.4963  0.3514
  657MOL0     C86614   5.650   1.156   4.347  0.3735  0.0524  1.0186
  657MOL0     C86615   5.505   1.133   4.369  1.1775 -0.6088 -0.2429
  657MOL0     O86616   5.455   1.095   4.240 -0.2346  0.2624 -0.0082
  657MOL0     C86617   5.321   1.072   4.222  0.9004  0.1656  0.4866
  657MOL0     C86618   5.287   1.034   4.098  0.1805  0.2539  0.8439
  657MOL0     C86619   5.160   0.990   4.065  0.1309 -0.8018 -0.7539
  657MOL0     C86620   5.057   1.007   4.160  0.6287 -0.0860 -0.7618
  657MOL0     C86621   4.922   0.964   4.128 -0.0353 -0.3488  0.2186
  657MOL0     O86622   4.910   0.870   4.028 -0.2652  0.1196 -0.0718
  657MOL0     C86623   4.783   0.841   3.977 -0.2841 -0.5969  0.4567
  657MOL0     C86624   4.692   0.771   4.059 -0.2444 -0.1869  0.5156
  657MOL0     C86625   4.565   0.748   4.001 -0.2092  0.1932 -0.5134
  657MOL0     C86626   4.525   0.778   3.872 -0.1365 -0.6383  0.0744
  657MOL0     O86627   4.407   0.730   3.822  0.8222 -0.2756  0.5773
  657MOL0     C86628   4.341   0.819   3.730  0.3808 -0.4787  0.7632
  657MOL0     C86629   4.188   0.835   3.746  0.1802  0.2836  0.2696
  657MOL0     C86630   4.117   0.902   3.626 -0.1163  0.9358  0.3442
  657MOL0     C86631   4.199   0.977   3.521  0.6624  0.0065  0.0100
  657MOL0     C86632   4.108   1.054   3.432  0.0351 -0.0092  0.2524
  657MOL0     C86633   4.172   1.103   3.296  0.9921 -0.0558 -0.9645
  657MOL0     C86634   4.205   0.996   3.203  0.1763 -1.1963  1.1545
  657MOL0     C86635   4.255   1.050   3.063  0.4270  0.2698 -0.3369
  657MOL0    Cl86636   4.119   1.138   2.981 -0.4964 -0.0270  0.1746
  657MOL0     C86637   4.627   0.831   3.788  0.2057 -0.3102  0.0851
  657MOL0     C86638   4.754   0.864   3.845 -0.5958 -0.5720  0.3849
  657MOL0     O86639   4.829   1.023   4.177  0.0765  0.2510 -0.5659
  657MOL0     C86640   5.089   1.060   4.287  0.5547 -0.0278 -0.0493
  657MOL0     C86641   5.216   1.086   4.322 -0.3301 -0.3553  0.2249
  657MOL0     N86642   5.824   1.459   4.365  0.3318  0.4625 -0.0362
  657MOL0     N86643   5.922   1.503   4.296 -0.2765 -0.5316  0.0510
  657MOL0     C86644   7.144   1.512   4.237  0.2606 -0.1660 -0.1808
  657MOL0     C86645   7.244   1.419   4.251  0.4822 -0.6361 -0.3794
  657MOL0     C86646   7.674   1.270   4.305 -0.2038  0.1682 -0.6582
  657MOL0     C86647   7.658   1.206   4.431 -0.2516  0.1650 -0.0099
  657MOL0     C86648   7.742   1.115   4.479 -0.7205  0.2916  0.4553
  657MOL0     C86649   7.858   1.083   4.411  0.5246 -0.6155  0.3910
  657MOL0     O86650   7.941   0.986   4.458 -0.0471  0.6230  0.0514
  657MOL0     C86651   8.070   1.030   4.513 -0.1168  0.1412  0.0443
  657MOL0     C86652   8.146   0.911   4.580  0.4551 -0.0090 -0.3110
  657MOL0     C86653   8.230   0.812   4.500  1.0093  0.1422 -0.8033
  657MOL0     C86654   8.287   0.698   4.581  0.0840  0.0972  0.0643
  657MOL0     C86655   8.358   0.733   4.694  0.0188  0.2038 -0.8219
  657MOL0     C86656   8.430   0.753   4.788 -0.3081  0.9655 -0.6942
  657MOL0     C86657   7.885   1.153   4.293  0.6661  0.7233 -0.4817
  657MOL0     C86658   7.797   1.243   4.238 -0.5857 -0.7914 -0.7083
  657MOL0     H86659   7.465   1.613   4.421  1.3199  0.6252 -2.9472
  657MOL0     H86660   7.302   1.772   4.386 -1.8550  0.6744 -0.3805
  657MOL0     H86661   6.884   1.648   4.391 -1.0283 -1.2487 -0.2418
  657MOL0     H86662   6.895   1.607   4.224 -1.1821  0.9638  0.2409
  657MOL0     H86663   6.835   1.807   4.144  0.4498  1.0227 -0.5369
  657MOL0     H86664   6.872   1.902   4.294  0.6747 -0.2726 -2.2335
  657MOL0     H86665   6.635   1.898   4.283 -0.6161  0.3956  0.2584
  657MOL0     H86666   6.685   1.807   4.422 -2.4886 -1.2441 -0.5782
  657MOL0     H86667   6.638   1.660   4.162 -0.6173 -0.4426  0.1887
  657MOL0     H86668   6.663   1.592   4.320  0.6198 -0.3659 -1.4610
  657MOL0     H86669   6.425   1.753   4.223  1.6825  0.5843 -0.1562
  657MOL0     H86670   6.461   1.703   4.397  2.2461 -0.6535  0.5250
  657MOL0     H86671   6.427   1.473   4.329  1.1960  0.5033  0.4240
  657MOL0     H86672   6.376   1.526   4.165  1.4095 -1.5898  0.1538
  657MOL0     H86673   6.237   1.570   4.419  0.1179 -0.0198 -0.1896
  657MOL0     H86674   6.183   1.641   4.262  0.7941  0.1234 -1.2943
  657MOL0     H86675   6.218   1.340   4.308  0.1375  0.7860  0.4776
  657MOL0     H86676   6.154   1.422   4.158 -1.1689 -1.0698  1.0458
  657MOL0     H86677   6.038   1.248   4.460 -1.2257 -1.4112 -0.5196
  657MOL0     H86678   5.692   1.333   4.565  0.6414  2.0650 -0.4029
  657MOL0     H86679   5.826   1.245   4.616 -2.1530 -3.0788 -0.3987
  657MOL0     H86680   5.683   1.081   4.554  0.3610  0.5550  0.1181
  657MOL0     H86681   5.827   1.085   4.454  0.4730 -0.0371  0.3236
  657MOL0     H86682   5.647   1.250   4.291 -3.5401 -1.4483 -1.7069
  657MOL0     H86683   5.678   1.076   4.278  0.5810  1.8433 -1.0853
  657MOL0     H86684   5.455   1.227   4.392  0.2690  0.2710 -4.8066
  657MOL0     H86685   5.477   1.051   4.436 -1.0791  0.5219  0.2684
  657MOL0     H86686   5.368   1.030   4.026  1.2183  0.2552  1.9604
  657MOL0     H86687   5.145   0.942   3.969 -1.7703 -4.3982  1.1018
  657MOL0     H86688   4.710   0.729   4.158 -3.5982  2.2854  2.4039
  657MOL0     H86689   4.508   0.683   4.067  1.8907 -0.4273  0.7929
  657MOL0     H86690   4.357   0.793   3.625 -0.1865 -0.2525  0.6119
  657MOL0     H86691   4.380   0.921   3.740 -2.9081  1.0993 -0.7700
  657MOL0     H86692   4.164   0.891   3.837 -3.6525 -1.2590  0.3882
  657MOL0     H86693   4.145   0.736   3.764 -0.5647  0.6241  0.3971
  657MOL0     H86694   4.031   0.956   3.666 -0.5709 -0.7143  1.6979
  657MOL0     H86695   4.077   0.818   3.567  3.3237  1.2822 -2.8698
  657MOL0     H86696   4.268   1.046   3.570 -0.2973  1.2126 -0.2986
  657MOL0     H86697   4.251   0.898   3.466 -0.7842 -1.2685  0.4057
  657MOL0     H86698   4.076   1.142   3.488  0.8949  1.2889 -1.2117
  657MOL0     H86699   4.016   1.006   3.397  0.4975 -0.5997 -0.1671
  657MOL0     H86700   4.259   1.167   3.316  2.6367 -2.4415 -0.0344
  657MOL0     H86701   4.090   1.163   3.255  1.0206 -1.6142 -3.5674
  657MOL0     H86702   4.284   0.934   3.247  0.6990  0.2108  2.2656
  657MOL0     H86703   4.112   0.941   3.187 -2.5236  3.3915 -0.8183
  657MOL0     H86704   4.273   0.968   2.993  0.8523 -1.1188  1.3343
  657MOL0     H86705   4.343   1.113   3.075 -1.7458  3.8251 -1.3164
  657MOL0     H86706   4.618   0.834   3.680  1.2383 -0.5158 -0.0087
  657MOL0     H86707   4.848   0.894   3.799  0.4306 -0.4651  2.4403
  657MOL0     H86708   5.007   1.088   4.352  0.8532  0.1960  0.2386
  657MOL0     H86709   5.232   1.117   4.425 -0.8224  0.2224  0.1305
  657MOL0     H86710   7.055   1.485   4.182  0.0660 -1.7103  0.8160
  657MOL0     H86711   7.242   1.316   4.218  0.2468 -1.0479  0.8515
  657MOL0     H86712   7.574   1.206   4.500  2.7703 -1.6532  4.0593
  657MOL0     H86713   7.706   1.055   4.562 -0.8858 -0.3349 -0.0633
  657MOL0     H86714   8.059   1.106   4.592  2.5842  0.8614 -0.1742
  657MOL0     H86715   8.113   1.081   4.427 -0.1341  1.5193  0.8277
  657MOL0     H86716   8.214   0.962   4.649 -1.6912  3.3283 -0.4181
  657MOL0     H86717   8.071   0.865   4.645 -0.1568  1.3232 -0.0387
  657MOL0     H86718   8.311   0.872   4.460  1.7038  0.3127  0.7870
  657MOL0     H86719   8.162   0.772   4.424 -0.2672 -1.7525  1.1941
  657MOL0     H86720   8.208   0.626   4.603  1.0065 -2.0563 -2.9557
  657MOL0     H86721   8.355   0.633   4.526  0.2677 -1.3122  1.8668
  657MOL0     H86722   8.488   0.776   4.875  0.8980 -0.8724 -0.9524
  657MOL0     H86723   7.986   1.128   4.261  0.2623 -1.6287 -0.1560
  657MOL0     H86724   7.838   1.293   4.150  2.1609  0.0739  0.9420
  658MOL0     O86725   0.296  10.480   7.638 -0.5603 -0.6644  0.8625
  658MOL0     C86726   0.251  10.394   7.713 -0.1228 -0.1648 -0.1842
  658MOL0     O86727   0.322  10.287   7.763 -0.2675  0.1701  0.1645
  658MOL0     C86728   0.447  10.253   7.716  0.1156  0.0523  0.7365
  658MOL0     C86729   0.544  10.356   7.704 -0.0621 -0.3122 -0.7813
  658MOL0     C86730   0.663  10.328   7.646 -0.6937 -0.7705  1.0214
  658MOL0     C86731   0.696  10.207   7.584  0.1912 -0.4496 -0.4434
  658MOL0     O86732   0.808  10.175   7.512  0.6140  0.9621  0.3287
  658MOL0     C86733   0.885  10.292   7.473  0.3669 -0.4463  0.4101
  658MOL0     C86734   0.988  10.247   7.365 -0.4330  0.2799  0.3593
  658MOL0     C86735   1.099  10.350   7.336  0.5874 -0.1756  1.1839
  658MOL0     C86736   1.194  10.297   7.229  0.4376 -0.8681 -0.5307
  658MOL0     C86737   1.293  10.417   7.209 -0.7810 -0.4123  0.2632
  658MOL0     C86738   1.389  10.388   7.095  0.2646 -0.7064 -0.9057
  658MOL0     C86739   1.512  10.487   7.083 -0.2738  0.3811  0.6731
  658MOL0     C86740   1.589  10.483   6.948  1.1166 -0.2257 -0.0728
  658MOL0     N86741   1.703  10.566   6.937 -0.0758 -0.6747  0.3066
  658MOL0     C86742   1.711  10.666   6.848  0.2694  0.7243 -0.4782
  658MOL0     C86743   1.815  10.742   6.883 -0.9580 -0.7955 -0.7918
  658MOL0     C86744   1.866  10.881   6.833  0.2994  0.4528  0.6724
  658MOL0     C86745   1.888  10.986   6.943 -0.6862 -0.1338 -1.1176
  658MOL0     C86746   1.772  11.050   7.024 -0.0542  0.1175  1.0632
  658MOL0     C86747   1.703  10.952   7.120 -0.4470 -0.3036  0.1100
  658MOL0     O86748   1.635  11.032   7.220  0.7529  0.7660 -0.1465
  658MOL0     C86749   1.557  10.961   7.306  0.2136 -0.0442  0.2267
  658MOL0     C86750   1.463  11.039   7.370 -0.1617  0.0784  0.8095
  658MOL0     C86751   1.360  10.982   7.447 -0.3200 -0.6395  0.0721
  658MOL0     C86752   1.340  10.842   7.453 -0.8642  0.1822  0.3169
  658MOL0     C86753   1.219  10.781   7.521 -0.6588  0.4892 -1.3049
  658MOL0     O86754   1.129  10.878   7.574 -1.1052  0.8704  0.5988
  658MOL0     C86755   1.010  10.834   7.625 -0.5338 -0.2847  0.1985
  658MOL0     C86756   0.988  10.709   7.696  0.3845  0.1146  0.4216
  658MOL0     C86757   0.857  10.685   7.734  0.5096 -0.1641  0.6267
  658MOL0     C86758   0.752  10.783   7.727 -0.4902  0.0976 -0.4371
  658MOL0     O86759   0.638  10.741   7.786  0.9968 -0.4461 -0.7365
  658MOL0     C86760   0.521  10.815   7.749  1.2958  0.5483  0.5396
  658MOL0     C86761   0.409  10.780   7.843 -0.1796 -1.2722 -0.0805
  658MOL0     C86762   0.279  10.851   7.792 -0.6085 -0.3983 -0.0897
  658MOL0     C86763   0.194  10.878   7.921 -0.3078 -0.8608 -0.2484
  658MOL0     C86764   0.050  10.929   7.896 -0.0843  0.1732 -0.2147
  658MOL0     C86765  -0.036  10.967   8.016 -0.3223  0.6786 -0.0627
  658MOL0     C86766  -0.159  11.038   7.986  1.2167 -1.4490  0.8682
  658MOL0     C86767  -0.246  11.052   8.109  0.9091 -0.2131  0.8171
  658MOL0    Cl86768  -0.383  11.148   8.049 -0.1909 -0.7527 -0.4404
  658MOL0     C86769   0.778  10.905   7.674 -0.8331 -0.2828  0.0626
  658MOL0     C86770   0.905  10.933   7.623  0.5011  0.0031  0.4479
  658MOL0     O86771   1.203  10.660   7.509 -0.5140  0.2598 -0.6935
  658MOL0     C86772   1.450  10.768   7.399 -0.6268  1.0526  0.3093
  658MOL0     C86773   1.556  10.823   7.324  0.3603  0.5840  0.0297
  658MOL0     N86774   1.863  10.690   7.004  0.0285  0.7346  0.1700
  658MOL0     N86775   1.809  10.575   7.021 -0.2917  1.1365 -0.0150
  658MOL0     C86776   0.606  10.106   7.600  0.0776 -0.7725 -0.1122
  658MOL0     C86777   0.485  10.127   7.667 -0.0523  0.1327 -0.9859
  658MOL0     C86778   0.117  10.413   7.775 -0.1908 -0.4188 -0.4776
  658MOL0     C86779   0.067  10.318   7.862  0.1888  0.2188  0.2958
  658MOL0     C86780  -0.054  10.331   7.923  0.7930 -0.1152 -0.1318
  658MOL0     C86781  -0.136  10.435   7.880  0.6809  0.2672  0.2649
  658MOL0     O86782  -0.258  10.434   7.941  0.5770  0.8602  0.1085
  658MOL0     C86783  -0.302  10.570   7.971  0.1019 -0.3730 -0.4930
  658MOL0     C86784  -0.413  10.546   8.069 -0.1342  0.0087 -0.4282
  658MOL0     C86785  -0.454  10.691   8.105 -0.1300 -0.9593  0.5695
  658MOL0     C86786  -0.563  10.704   8.216  0.0228 -0.2832 -0.3259
  658MOL0     C86787  -0.581  10.845   8.251  0.1760 -0.2823 -0.4882
  658MOL0     C86788  -0.598  10.963   8.290  0.4527  0.6968 -0.2191
  658MOL0     C86789  -0.090  10.527   7.784 -0.4816 -0.9097 -0.2968
  658MOL0     C86790   0.032  10.512   7.729  0.2945 -0.1057  0.1606
  658MOL0     H86791   0.530  10.460   7.734 -1.4163 -0.2823 -1.4788
  658MOL0     H86792   0.729  10.414   7.634 -1.3728 -0.1838  1.4401
  658MOL0     H86793   0.941  10.346   7.550 -0.6704  0.0632  0.8296
  658MOL0     H86794   0.823  10.368   7.425  2.0174  0.8201  0.2095
  658MOL0     H86795   0.933  10.229   7.271  0.7348  1.3636 -0.5628
  658MOL0     H86796   1.037  10.158   7.405  0.7212  1.4320  1.5840
  658MOL0     H86797   1.149  10.377   7.429 -1.0944 -0.7214  2.2978
  658MOL0     H86798   1.039  10.432   7.295  0.1072 -0.2561  1.7122
  658MOL0     H86799   1.238  10.201   7.261  2.2736 -0.1489 -0.7608
  658MOL0     H86800   1.146  10.274   7.134  1.3981  3.6625 -2.3644
  658MOL0     H86801   1.351  10.420   7.301  0.0826 -0.6319 -0.2616
  658MOL0     H86802   1.238  10.511   7.200  1.6555  0.9290 -2.0819
  658MOL0     H86803   1.342  10.397   6.997 -0.8267 -0.0879 -0.3530
  658MOL0     H86804   1.429  10.287   7.102  0.5969 -0.5327 -0.2057
  658MOL0     H86805   1.484  10.591   7.101  2.4886  1.3893 -0.3810
  658MOL0     H86806   1.580  10.478   7.169 -2.2101  2.2774  2.5256
  658MOL0     H86807   1.530  10.494   6.857  1.0771  1.1472  0.0984
  658MOL0     H86808   1.630  10.381   6.950  0.8128 -0.3422  0.7315
  658MOL0     H86809   1.648  10.684   6.761 -0.7848 -0.2490  0.0684
  658MOL0     H86810   1.786  10.920   6.770 -1.2289  1.7154  3.2130
  658MOL0     H86811   1.959  10.870   6.778 -0.0216 -0.1321  0.2417
  658MOL0     H86812   1.942  11.075   6.908  2.1490 -0.4504  1.9584
  658MOL0     H86813   1.961  10.936   7.007 -0.6325 -1.3483 -2.0776
  658MOL0     H86814   1.817  11.132   7.083 -0.8445  0.3660  1.3286
  658MOL0     H86815   1.700  11.096   6.956 -0.3432 -2.4104 -0.4452
  658MOL0     H86816   1.785  10.893   7.163  0.7750 -1.5902 -3.5676
  658MOL0     H86817   1.633  10.881   7.075 -2.5908 -0.0509  2.8392
  658MOL0     H86818   1.476  11.145   7.355  1.5309 -0.3330 -1.0288
  658MOL0     H86819   1.289  11.042   7.503 -0.4210 -1.5941  1.0007
  658MOL0     H86820   1.064  10.632   7.711 -0.0485 -0.2500  0.7512
  658MOL0     H86821   0.839  10.583   7.768  0.4232 -1.8389 -3.6979
  658MOL0     H86822   0.497  10.801   7.644  0.0686  0.5973  0.7980
  658MOL0     H86823   0.523  10.925   7.746  0.3807  0.5743  0.8335
  658MOL0     H86824   0.419  10.821   7.944  1.2635  1.2894 -1.1547
  658MOL0     H86825   0.392  10.674   7.859 -3.0894 -0.8716  0.0135
  658MOL0     H86826   0.216  10.791   7.725 -1.4023  0.8586 -0.5000
  658MOL0     H86827   0.300  10.940   7.734  0.8692 -0.5519  0.1767
  658MOL0     H86828   0.196  10.779   7.967  2.3665 -2.0247 -2.5334
  658MOL0     H86829   0.244  10.955   7.979  2.2344 -0.2983 -2.8975
  658MOL0     H86830  -0.012  10.851   7.849 -1.1932  0.4924  0.6659
  658MOL0     H86831   0.060  11.019   7.835  0.4690 -2.0114 -3.5854
  658MOL0     H86832   0.021  11.042   8.072  0.8320 -0.3566  0.1889
  658MOL0     H86833  -0.039  10.875   8.075  0.2409  2.4023  2.8374
  658MOL0     H86834  -0.136  11.134   7.939  1.0394 -2.5724 -1.6695
  658MOL0     H86835  -0.212  10.981   7.910  0.2415 -0.4249  0.7640
  658MOL0     H86836  -0.193  11.097   8.193  0.6458 -0.0357  0.8911
  658MOL0     H86837  -0.277  10.953   8.145  1.2702 -0.5213  0.2913
  658MOL0     H86838   0.708  10.987   7.684 -0.2629  0.0799  1.4457
  658MOL0     H86839   0.920  11.025   7.568  2.1221  0.2723  1.2722
  658MOL0     H86840   1.450  10.660   7.405  3.4767  0.8622  0.1032
  658MOL0     H86841   1.641  10.767   7.285  0.3056  1.1412 -0.9204
  658MOL0     H86842   0.632  10.010   7.556  1.0904 -0.5302 -0.0543
  658MOL0     H86843   0.415  10.047   7.690 -0.6819  1.5028  2.3603
  658MOL0     H86844   0.129  10.236   7.898  0.8560  0.0794 -1.0770
  658MOL0     H86845  -0.073  10.273   8.012 -2.2500  2.4250  1.0381
  658MOL0     H86846  -0.337  10.625   7.883 -0.7373  2.1810  1.3042
  658MOL0     H86847  -0.217  10.623   8.016  0.7767 -1.3492 -0.5796
  658MOL0     H86848  -0.499  10.492   8.026 -0.8443  1.1061 -0.4171
  658MOL0     H86849  -0.384  10.500   8.164 -0.1604  3.2053  1.2314
  658MOL0     H86850  -0.502  10.733   8.016 -1.2165  0.3391  1.7160
  658MOL0     H86851  -0.367  10.750   8.134 -0.8391 -0.4401  1.6673
  658MOL0     H86852  -0.665  10.675   8.188 -0.9532  0.9099  1.7134
  658MOL0     H86853  -0.541  10.660   8.313 -3.3627  1.3409  1.3686
  658MOL0     H86854  -0.605  11.060   8.335 -0.1278 -0.6499  2.8109
  658MOL0     H86855  -0.149  10.615   7.759  0.4773 -0.4696 -1.0497
  658MOL0     H86856   0.072  10.588   7.662 -1.1189 -0.2086 -0.8404
  659MOL0     O86857   1.402   1.346   4.969  0.4652 -0.0216  0.6504
  659MOL0     C86858   1.466   1.455   4.957  0.2984  0.0697  0.8994
  659MOL0     O86859   1.411   1.580   4.920  0.7683  0.4350 -0.9536
  659MOL0     C86860   1.275   1.612   4.919 -0.1326  0.6809 -0.0013
  659MOL0     C86861   1.245   1.720   4.847  0.6885 -0.6742  0.3518
  659MOL0     C86862   1.108   1.773   4.843 -0.6365  0.1036  0.0160
  659MOL0     C86863   1.010   1.697   4.894  0.2266 -0.1670  0.0172
  659MOL0     O86864   0.879   1.739   4.872  0.0009  0.5891 -1.0501
  659MOL0     C86865   0.770   1.687   4.960 -0.1301 -0.0360 -0.6415
  659MOL0     C86866   0.648   1.760   4.930  0.9782 -0.2043  0.7799
  659MOL0     C86867   0.524   1.721   5.028  0.3966 -0.5463  0.1621
  659MOL0     C86868   0.402   1.812   5.000 -1.2822 -0.6529  0.5625
  659MOL0     C86869   0.281   1.778   5.085  0.3787 -0.2110  0.4223
  659MOL0     C86870   0.223   1.641   5.058  1.0673  0.2587 -0.6783
  659MOL0     C86871   0.185   1.606   4.917  0.0779  0.4692 -0.0602
  659MOL0     C86872   0.091   1.710   4.860  0.0292 -0.7701  0.3938
  659MOL0     N86873   0.058   1.682   4.723  0.1806  0.6021  0.2235
  659MOL0     C86874   0.006   1.558   4.680  0.1704  0.4944  0.4459
  659MOL0     C86875   0.019   1.561   4.547 -0.3495  0.4039 -0.0675
  659MOL0     C86876  -0.007   1.446   4.453  0.6882  0.8476  0.6635
  659MOL0     C86877  -0.159   1.438   4.417  0.3206  0.7747  0.5524
  659MOL0     C86878  -0.204   1.560   4.332  0.7371 -0.1855  0.6672
  659MOL0     C86879  -0.352   1.539   4.285  0.3530 -0.6779  0.5266
  659MOL0     O86880  -0.444   1.654   4.309  0.0979  0.0257 -0.0856
  659MOL0     C86881  -0.562   1.660   4.239 -0.0350 -0.2198 -0.7989
  659MOL0     C86882  -0.619   1.545   4.178 -0.1109  0.5492 -0.2233
  659MOL0     C86883  -0.754   1.556   4.133 -0.5404 -0.0412  0.3267
  659MOL0     C86884  -0.832   1.669   4.142 -0.6993  0.5969 -0.9481
  659MOL0     C86885  -0.967   1.676   4.091  0.0865  0.1264  0.2228
  659MOL0     O86886  -1.028   1.798   4.089 -0.2300 -0.6330 -0.4049
  659MOL0     C86887  -1.153   1.806   4.038  0.2844  0.0522 -0.7912
  659MOL0     C86888  -1.171   1.874   3.916 -0.1887  0.2501 -0.1191
  659MOL0     C86889  -1.294   1.876   3.856 -0.0085 -0.0884  0.2670
  659MOL0     C86890  -1.409   1.819   3.916 -0.5124 -0.4410 -1.1290
  659MOL0     O86891  -1.540   1.820   3.883 -0.2069 -0.5495 -0.1593
  659MOL0     C86892  -1.573   1.833   3.742 -0.4579  0.0700 -1.0366
  659MOL0     C86893  -1.721   1.797   3.721 -0.1554  0.8176  0.0293
  659MOL0     C86894  -1.764   1.661   3.789 -0.2437 -0.7333  0.6900
  659MOL0     C86895  -1.921   1.656   3.759 -0.5692 -0.0943  0.1022
  659MOL0     C86896  -1.975   1.525   3.814  0.1718 -0.5280 -0.2356
  659MOL0     C86897  -2.119   1.534   3.860  1.2665 -0.5733 -0.6703
  659MOL0     C86898  -2.208   1.573   3.745  0.9178 -0.2343  0.4913
  659MOL0     C86899  -2.352   1.536   3.762 -0.4140  0.4619 -0.7752
  659MOL0    Cl86900  -2.454   1.690   3.763 -0.4195  0.1575 -0.1498
  659MOL0     C86901  -1.393   1.747   4.040  0.4907  0.5966 -0.0417
  659MOL0     C86902  -1.266   1.739   4.095  0.3081  0.2888 -0.9835
  659MOL0     O86903  -1.021   1.566   4.062 -0.3332  0.7175 -0.6018
  659MOL0     C86904  -0.770   1.780   4.194 -0.9714  0.0373 -0.1786
  659MOL0     C86905  -0.643   1.775   4.248 -0.4516  0.9398 -0.5854
  659MOL0     N86906   0.066   1.689   4.510  1.2428 -0.8003 -0.3967
  659MOL0     N86907   0.093   1.757   4.614  0.7399  0.3805 -0.3806
  659MOL0     C86908   1.038   1.588   4.975 -0.7319 -0.3946 -1.2914
  659MOL0     C86909   1.173   1.548   4.988  0.3245  0.1910  0.6114
  659MOL0     C86910   1.620   1.442   4.964 -1.3596  0.0868  0.8067
  659MOL0     C86911   1.683   1.312   4.984  0.7542 -0.6428  1.0861
  659MOL0     C86912   1.814   1.302   5.002 -0.1060 -0.7945  0.1555
  659MOL0     C86913   1.901   1.415   5.000  0.2911 -0.2161 -0.3274
  659MOL0     O86914   2.034   1.377   5.003 -1.0507  0.2398  0.4484
  659MOL0     C86915   2.131   1.483   4.988 -0.2104  0.1986 -0.0971
  659MOL0     C86916   2.262   1.430   5.056  0.2341 -0.1251  0.0797
  659MOL0     C86917   2.374   1.535   5.062 -0.0314  0.2422 -0.5655
  659MOL0     C86918   2.502   1.468   5.014 -0.8194  0.3527  0.2665
  659MOL0     C86919   2.608   1.559   4.988  0.2790  0.8538 -0.2222
  659MOL0     C86920   2.708   1.620   4.966 -0.1576 -0.3223  0.0885
  659MOL0     C86921   1.835   1.545   4.980 -0.7122  0.3962 -0.1973
  659MOL0     C86922   1.701   1.557   4.960  0.5920 -0.0774  0.4958
  659MOL0     H86923   1.326   1.767   4.793  0.7790 -1.9767 -0.6963
  659MOL0     H86924   1.091   1.868   4.793  0.0212 -0.3576 -1.1241
  659MOL0     H86925   0.804   1.715   5.060  0.9657  1.1742 -1.3123
  659MOL0     H86926   0.746   1.582   4.942  0.0021 -0.2342  0.3069
  659MOL0     H86927   0.618   1.733   4.828  0.7438 -0.4839  0.9220
  659MOL0     H86928   0.680   1.865   4.935 -2.7530  1.1975 -0.5116
  659MOL0     H86929   0.562   1.733   5.130  0.0517  3.4048 -0.0335
  659MOL0     H86930   0.504   1.616   5.002  0.9983 -0.8464  0.8756
  659MOL0     H86931   0.430   1.916   5.023 -0.6228 -1.0747  1.7454
  659MOL0     H86932   0.384   1.813   4.892  1.7038 -0.3276 -0.0240
  659MOL0     H86933   0.205   1.856   5.069 -0.9751 -1.4275  0.6913
  659MOL0     H86934   0.321   1.770   5.187  0.5917 -1.6580  0.2439
  659MOL0     H86935   0.138   1.631   5.126 -0.9766  1.1212 -2.9448
  659MOL0     H86936   0.294   1.562   5.083  0.8496  0.0845 -0.6093
  659MOL0     H86937   0.276   1.577   4.864  1.4198  0.7013  2.0092
  659MOL0     H86938   0.130   1.512   4.931 -0.1738  0.7569  0.9775
  659MOL0     H86939   0.138   1.809   4.855 -0.8714 -0.3459 -0.0993
  659MOL0     H86940  -0.002   1.702   4.917 -1.1053  0.9048 -1.1235
  659MOL0     H86941  -0.036   1.471   4.729 -0.8927 -0.2126 -1.5978
  659MOL0     H86942   0.027   1.353   4.499  0.2392  0.5604  0.4246
  659MOL0     H86943   0.055   1.462   4.363 -0.2310  1.7035  0.1600
  659MOL0     H86944  -0.225   1.429   4.503 -1.3900  0.1790 -0.7859
  659MOL0     H86945  -0.176   1.346   4.361  0.2395 -0.3074  2.2889
  659MOL0     H86946  -0.198   1.653   4.388  3.7932  0.3155 -0.3400
  659MOL0     H86947  -0.143   1.569   4.241 -0.8154  3.6970 -0.1937
  659MOL0     H86948  -0.400   1.446   4.315  0.8660 -1.2426 -0.3504
  659MOL0     H86949  -0.339   1.519   4.179  0.6589  3.1067 -0.3064
  659MOL0     H86950  -0.567   1.451   4.161  1.7933  0.7667  3.3662
  659MOL0     H86951  -0.804   1.468   4.094 -2.0388 -0.1441  2.3240
  659MOL0     H86952  -1.080   1.921   3.878 -0.1621  0.1290 -0.2076
  659MOL0     H86953  -1.308   1.927   3.762 -2.0694  0.0913  0.6352
  659MOL0     H86954  -1.509   1.763   3.686  2.1532  0.3851  1.3350
  659MOL0     H86955  -1.548   1.932   3.702  0.5886  0.2975  0.1291
  659MOL0     H86956  -1.748   1.790   3.615 -0.4615  0.8510  0.1044
  659MOL0     H86957  -1.781   1.878   3.765 -0.4198 -0.4785  2.2162
  659MOL0     H86958  -1.743   1.671   3.896 -1.0959 -1.8473  0.9707
  659MOL0     H86959  -1.704   1.580   3.748  0.3300 -1.0205  2.0214
  659MOL0     H86960  -1.971   1.738   3.811  1.9984  0.3780  2.0099
  659MOL0     H86961  -1.951   1.669   3.654  1.5098  0.4613 -0.4730
  659MOL0     H86962  -1.919   1.489   3.901 -1.2850 -0.2135  0.8673
  659MOL0     H86963  -1.960   1.454   3.733  0.6359  0.0674 -0.6745
  659MOL0     H86964  -2.127   1.605   3.943  1.7860 -0.6508 -0.5504
  659MOL0     H86965  -2.145   1.433   3.895  0.8005 -0.1714  0.1702
  659MOL0     H86966  -2.201   1.681   3.735 -1.4212  0.0384  1.2013
  659MOL0     H86967  -2.177   1.519   3.655  0.5555 -0.2450  0.3681
  659MOL0     H86968  -2.363   1.501   3.865  3.0591  1.6975  0.1342
  659MOL0     H86969  -2.393   1.461   3.693 -2.3010 -0.5277  1.2890
  659MOL0     H86970  -1.477   1.691   4.080  1.6343 -1.2916 -0.1865
  659MOL0     H86971  -1.255   1.681   4.186  0.7983  2.8190  0.6817
  659MOL0     H86972  -0.819   1.877   4.198 -0.1342  0.4856 -0.4805
  659MOL0     H86973  -0.604   1.854   4.311 -0.4004  0.9722 -0.6580
  659MOL0     H86974   0.955   1.537   5.023 -0.9074  0.7814 -0.2733
  659MOL0     H86975   1.198   1.466   5.055  2.3700 -0.3259 -0.6927
  659MOL0     H86976   1.624   1.222   4.972  1.5865 -1.2048  1.1432
  659MOL0     H86977   1.864   1.205   5.002  1.8015  0.1392  0.5466
  659MOL0     H86978   2.102   1.572   5.045 -1.7659 -0.2239 -0.1731
  659MOL0     H86979   2.141   1.510   4.883  0.9405  1.6548  0.3555
  659MOL0     H86980   2.251   1.397   5.160  2.9133  0.1207  0.5167
  659MOL0     H86981   2.293   1.345   4.996 -0.0005 -0.4117  0.3631
  659MOL0     H86982   2.386   1.570   5.165  2.9592 -0.6999 -0.4976
  659MOL0     H86983   2.357   1.616   4.990 -0.9809  1.6279  1.1432
  659MOL0     H86984   2.539   1.386   5.076 -3.7989 -2.0030 -0.8226
  659MOL0     H86985   2.476   1.427   4.916  0.9378  2.3635 -1.1363
  659MOL0     H86986   2.779   1.696   4.940  0.2612 -0.4689  0.7775
  659MOL0     H86987   1.896   1.632   4.958  0.0765  0.6753  2.6987
  659MOL0     H86988   1.655   1.651   4.932  0.0409  0.9335  4.2815
  660MOL0     O86989   7.791   7.540   5.575 -0.2303 -1.2289  0.0664
  660MOL0     C86990   7.883   7.561   5.497  0.5208 -0.6010 -0.5336
  660MOL0     O86991   7.959   7.473   5.426 -0.1131 -0.2347 -0.2259
  660MOL0     C86992   7.941   7.337   5.444  1.1467  0.6199 -0.8841
  660MOL0     C86993   7.917   7.253   5.339 -0.5497  0.4261 -0.1475
  660MOL0     C86994   7.888   7.115   5.356 -0.2029  0.1074  0.3773
  660MOL0     C86995   7.884   7.056   5.484 -1.0484 -0.3924  0.2629
  660MOL0     O86996   7.862   6.919   5.491 -0.0929 -0.1063 -0.3505
  660MOL0     C86997   7.866   6.846   5.617 -0.2611 -0.2924 -0.1724
  660MOL0     C86998   7.900   6.703   5.583 -0.0397 -0.4100 -0.3589
  660MOL0     C86999   7.911   6.614   5.709 -0.0098  0.3481  0.3462
  660MOL0     C87000   7.941   6.464   5.674 -0.1658 -0.8191 -0.0340
  660MOL0     C87001   7.972   6.378   5.798 -0.5424  0.5276  0.6348
  660MOL0     C87002   7.853   6.380   5.893  0.9407  0.1087 -0.1266
  660MOL0     C87003   7.818   6.246   5.963  1.6393  0.2852  1.1210
  660MOL0     C87004   7.919   6.184   6.057 -0.2500 -0.4705  1.0257
  660MOL0     N87005   7.856   6.077   6.143  0.8957  0.7252  0.4128
  660MOL0     C87006   7.854   5.939   6.105  0.7108 -0.9100  0.3423
  660MOL0     C87007   7.775   5.870   6.191 -0.6735  0.2447  0.6067
  660MOL0     C87008   7.765   5.721   6.196 -1.8785 -0.6224 -0.3926
  660MOL0     C87009   7.640   5.664   6.132 -0.1652 -0.8191  0.1121
  660MOL0     C87010   7.529   5.677   6.234  0.3616 -0.1752 -0.2385
  660MOL0     C87011   7.409   5.597   6.206 -0.1718 -0.7245  0.7278
  660MOL0     O87012   7.332   5.647   6.099 -0.3051 -0.0985 -0.8392
  660MOL0     C87013   7.208   5.587   6.085 -0.3705 -0.0951 -0.2329
  660MOL0     C87014   7.123   5.628   5.984 -0.0313 -0.0512  0.0146
  660MOL0     C87015   6.996   5.576   5.975 -0.1392  0.8330 -0.4868
  660MOL0     C87016   6.948   5.473   6.062 -0.5418  0.5910  0.3805
  660MOL0     C87017   6.808   5.440   6.065 -0.3876 -0.8232 -0.4069
  660MOL0     O87018   6.760   5.393   6.182  0.3931  0.0615  0.7247
  660MOL0     C87019   6.625   5.374   6.179  0.2382  0.1543 -0.3497
  660MOL0     C87020   6.560   5.292   6.084  1.1647  0.9883 -0.1702
  660MOL0     C87021   6.424   5.274   6.083  0.6113  0.4306 -0.0890
  660MOL0     C87022   6.345   5.323   6.183 -0.5118  0.0179  0.5329
  660MOL0     O87023   6.223   5.277   6.190  0.4450 -0.3117  1.1800
  660MOL0     C87024   6.136   5.365   6.254  0.2250 -1.1781  0.4590
  660MOL0     C87025   5.997   5.312   6.229  0.0272  0.4839  0.7031
  660MOL0     C87026   5.884   5.375   6.307  0.0958 -0.6007 -0.0351
  660MOL0     C87027   5.750   5.297   6.274 -0.0374 -0.2460  0.1080
  660MOL0     C87028   5.641   5.340   6.371  0.4003 -0.1654  0.4736
  660MOL0     C87029   5.513   5.262   6.342 -0.1931  0.5453  0.9074
  660MOL0     C87030   5.403   5.294   6.454 -0.5495  0.3716 -0.7485
  660MOL0     C87031   5.262   5.276   6.413 -1.0362  0.3779 -0.4413
  660MOL0    Cl87032   5.155   5.278   6.546 -0.5043  0.0934  0.2559
  660MOL0     C87033   6.404   5.395   6.283 -0.6273 -0.6291 -0.5561
  660MOL0     C87034   6.538   5.427   6.277 -0.0601 -0.2263 -0.2889
  660MOL0     O87035   6.746   5.469   5.967  0.0504  0.2349  0.9370
  660MOL0     C87036   7.036   5.419   6.151 -0.1238 -0.6391 -1.0559
  660MOL0     C87037   7.160   5.479   6.168 -1.3396  0.2035  0.2708
  660MOL0     N87038   7.743   5.958   6.290 -0.5719 -0.4009  0.3568
  660MOL0     N87039   7.788   6.077   6.258 -0.0484 -0.3459  0.5724
  660MOL0     C87040   7.904   7.145   5.595  0.1873 -0.3294  0.3700
  660MOL0     C87041   7.937   7.281   5.577  0.0766 -0.1944  0.0923
  660MOL0     C87042   7.930   7.699   5.492  0.5115 -0.1199  0.0630
  660MOL0     C87043   8.017   7.740   5.402 -0.6255  0.0631  0.5123
  660MOL0     C87044   8.062   7.873   5.391 -0.2554 -0.5914  0.1385
  660MOL0     C87045   8.035   7.962   5.493 -0.0996 -0.0865  0.1494
  660MOL0     O87046   8.084   8.083   5.468 -0.1263  0.3834  1.2564
  660MOL0     C87047   8.041   8.200   5.544 -0.1656 -0.1786 -0.7772
  660MOL0     C87048   7.911   8.276   5.486 -0.7197  0.6950 -0.8487
  660MOL0     C87049   7.778   8.212   5.539  0.3800  0.9393  0.0845
  660MOL0     C87050   7.767   8.253   5.690 -0.1931  0.7896  0.3294
  660MOL0     C87051   7.696   8.151   5.760 -0.5145 -0.4140  0.8884
  660MOL0     C87052   7.652   8.054   5.812  0.8623 -0.2424 -0.0872
  660MOL0     C87053   7.945   7.920   5.599 -1.1263 -0.5012  0.0658
  660MOL0     C87054   7.896   7.793   5.599  0.1704  0.2373 -0.0853
  660MOL0     H87055   7.914   7.304   5.242  0.8722  1.0425  0.1073
  660MOL0     H87056   7.865   7.061   5.264 -2.3379  5.3338 -2.6091
  660MOL0     H87057   7.772   6.849   5.674 -0.1571 -0.8814  0.0405
  660MOL0     H87058   7.946   6.895   5.672  0.5697 -1.0519 -0.6764
  660MOL0     H87059   7.993   6.692   5.527  0.4366  0.2734  0.2708
  660MOL0     H87060   7.823   6.654   5.524  1.4547 -2.0634 -1.0338
  660MOL0     H87061   7.816   6.612   5.764 -0.5578 -0.4021 -0.6018
  660MOL0     H87062   7.988   6.647   5.780 -2.7954 -0.6863  4.2232
  660MOL0     H87063   7.855   6.422   5.620  0.7819 -3.3468  0.3000
  660MOL0     H87064   8.020   6.460   5.598 -0.4648  0.4606 -0.4542
  660MOL0     H87065   8.070   6.413   5.832  1.2707 -1.6555 -1.9112
  660MOL0     H87066   7.988   6.280   5.753 -3.5583  0.7805 -1.3527
  660MOL0     H87067   7.766   6.401   5.830 -0.1127 -3.3080  0.0112
  660MOL0     H87068   7.857   6.460   5.968 -1.9570 -2.1254  2.6912
  660MOL0     H87069   7.726   6.243   6.022 -0.5297 -2.4565 -2.0435
  660MOL0     H87070   7.806   6.176   5.880 -1.7659  2.0782 -0.1041
  660MOL0     H87071   7.955   6.255   6.131  1.4337 -0.5013  0.2673
  660MOL0     H87072   8.007   6.144   6.007 -1.0822 -2.3681  0.9820
  660MOL0     H87073   7.907   5.904   6.017  0.3632  2.3374 -1.3099
  660MOL0     H87074   7.770   5.686   6.299  1.2202  2.7875  0.8202
  660MOL0     H87075   7.849   5.674   6.144 -1.0391 -2.1679  2.1744
  660MOL0     H87076   7.654   5.558   6.110 -2.4212 -1.0517 -0.4515
  660MOL0     H87077   7.619   5.722   6.042  0.6693  0.1126  0.5034
  660MOL0     H87078   7.551   5.644   6.336  1.0849  1.7855  0.2967
  660MOL0     H87079   7.504   5.783   6.247  3.7068  0.3884  4.7240
  660MOL0     H87080   7.355   5.612   6.299  1.8773  0.4362  1.8184
  660MOL0     H87081   7.424   5.490   6.187  0.0086 -0.4119 -1.1378
  660MOL0     H87082   7.140   5.715   5.921 -1.5007  1.4143  1.4886
  660MOL0     H87083   6.931   5.586   5.888  2.1384 -1.7582 -2.6582
  660MOL0     H87084   6.618   5.247   6.005  2.5631  0.4683  1.1068
  660MOL0     H87085   6.378   5.230   5.996 -0.7606  0.0213  0.8116
  660MOL0     H87086   6.157   5.463   6.209 -2.6235 -1.1325 -1.0732
  660MOL0     H87087   6.152   5.362   6.362 -0.6685 -4.6409  0.6274
  660MOL0     H87088   5.992   5.205   6.252 -3.3718  0.3335 -0.2904
  660MOL0     H87089   5.986   5.315   6.120  1.0791  2.3073  0.5963
  660MOL0     H87090   5.870   5.480   6.280 -0.0771  0.0841  2.4862
  660MOL0     H87091   5.896   5.386   6.415 -0.6249  0.1577 -0.0280
  660MOL0     H87092   5.711   5.310   6.172  0.6073 -6.3039 -1.3338
  660MOL0     H87093   5.763   5.189   6.290 -1.2927 -0.0841  2.5614
  660MOL0     H87094   5.632   5.449   6.363 -1.1506 -0.1514  1.8123
  660MOL0     H87095   5.669   5.309   6.471 -1.2472 -1.3778  0.6006
  660MOL0     H87096   5.543   5.158   6.353 -1.0172  0.0660 -1.0338
  660MOL0     H87097   5.477   5.272   6.239  2.8253 -4.1924 -0.9159
  660MOL0     H87098   5.430   5.225   6.534  1.4710  0.2395 -1.4736
  660MOL0     H87099   5.410   5.397   6.491 -0.7830 -0.8259  3.0629
  660MOL0     H87100   5.255   5.186   6.351 -1.9421  0.0247  0.1490
  660MOL0     H87101   5.241   5.363   6.351 -2.2548 -0.2368 -0.9207
  660MOL0     H87102   6.363   5.440   6.372  0.7001  1.6965 -1.0398
  660MOL0     H87103   6.578   5.486   6.359 -0.5020 -0.9572  0.4697
  660MOL0     H87104   7.003   5.340   6.217 -1.6058  1.2886  0.6494
  660MOL0     H87105   7.219   5.440   6.250 -2.5023  2.3604  2.2836
  660MOL0     H87106   7.866   7.111   5.691 -4.3601  2.1657 -0.2903
  660MOL0     H87107   7.949   7.356   5.655  1.0360 -0.4987  0.2485
  660MOL0     H87108   8.057   7.666   5.334 -4.6586 -0.6540 -1.4100
  660MOL0     H87109   8.125   7.912   5.312  0.4400 -0.7923  0.5850
  660MOL0     H87110   8.123   8.273   5.540  1.3836 -1.6442  1.3334
  660MOL0     H87111   8.042   8.170   5.649 -0.8246 -2.2978 -1.3319
  660MOL0     H87112   7.913   8.375   5.533  0.0097  1.1160 -1.7434
  660MOL0     H87113   7.924   8.281   5.378 -2.0503 -1.9365 -1.2179
  660MOL0     H87114   7.791   8.104   5.528  3.5358  1.1438  0.8083
  660MOL0     H87115   7.689   8.252   5.490 -1.2022 -0.9985  1.2293
  660MOL0     H87116   7.863   8.258   5.743 -0.0371 -0.3611  0.1785
  660MOL0     H87117   7.723   8.352   5.707 -0.9352  0.1260  2.5492
  660MOL0     H87118   7.643   7.967   5.874  3.4175  0.6911  1.8249
  660MOL0     H87119   7.921   7.990   5.678 -1.1665  0.3388 -0.6669
  660MOL0     H87120   7.844   7.770   5.692 -0.9070  2.8603  0.0478
  661MOL0     O87121   2.876   7.141   3.976 -0.4996 -0.1055  0.7451
  661MOL0     C87122   2.896   7.261   3.984 -0.2596 -0.2981 -0.3178
  661MOL0     O87123   2.845   7.340   4.078  0.2090  0.6759  0.5241
  661MOL0     C87124   2.711   7.309   4.109  0.5041 -0.1267  0.4371
  661MOL0     C87125   2.611   7.284   4.015 -0.1465 -0.7029  0.1499
  661MOL0     C87126   2.489   7.255   4.058  0.1988  0.0686  0.8047
  661MOL0     C87127   2.452   7.269   4.190  0.1771  0.0469 -0.1183
  661MOL0     O87128   2.324   7.260   4.235 -0.2172 -0.3803  0.4119
  661MOL0     C87129   2.215   7.209   4.155  0.0566  0.5050 -0.2590
  661MOL0     C87130   2.233   7.062   4.112  0.0750  0.3788 -0.2343
  661MOL0     C87131   2.286   6.975   4.228 -0.1753  0.8541  0.6088
  661MOL0     C87132   2.252   6.826   4.195  0.5098 -0.6359  0.1205
  661MOL0     C87133   2.259   6.759   4.331  0.0369  0.8459 -0.1627
  661MOL0     C87134   2.200   6.616   4.336  0.3542  0.1817 -0.0817
  661MOL0     C87135   2.071   6.597   4.248  0.2145 -0.3713  0.0320
  661MOL0     C87136   1.996   6.467   4.286  0.4999 -0.3162 -0.8230
  661MOL0     N87137   1.866   6.448   4.216 -0.8535 -0.4781  0.1183
  661MOL0     C87138   1.860   6.417   4.086 -0.7014  0.3690  0.7964
  661MOL0     C87139   1.733   6.425   4.050 -0.5709  0.6324  0.3076
  661MOL0     C87140   1.682   6.394   3.915 -0.2937  0.2208  0.4025
  661MOL0     C87141   1.749   6.484   3.811 -0.3013 -0.0425 -0.3935
  661MOL0     C87142   1.731   6.456   3.660  0.0325 -0.9744 -0.4653
  661MOL0     C87143   1.599   6.521   3.607  0.0817 -0.1985 -0.4977
  661MOL0     O87144   1.577   6.476   3.472  0.8955  0.3584 -0.4062
  661MOL0     C87145   1.642   6.535   3.366 -0.5604 -0.1244  0.0721
  661MOL0     C87146   1.641   6.461   3.244 -0.1567 -0.2141 -0.5576
  661MOL0     C87147   1.687   6.512   3.128  0.5099  0.1726 -0.1819
  661MOL0     C87148   1.724   6.651   3.123 -0.1695 -0.1371 -0.0584
  661MOL0     C87149   1.769   6.714   2.995 -0.4089 -1.1619  0.7650
  661MOL0     O87150   1.823   6.841   3.007 -0.3602  0.1536  0.5624
  661MOL0     C87151   1.914   6.870   2.909  0.1261 -0.1783  0.0731
  661MOL0     C87152   1.873   6.898   2.778 -0.1928 -0.0064  0.3393
  661MOL0     C87153   1.971   6.949   2.679  0.7125 -0.2824  0.5018
  661MOL0     C87154   2.110   6.945   2.722 -0.2781 -0.3941  0.1330
  661MOL0     O87155   2.190   6.961   2.609  0.3397  0.0900 -0.2614
  661MOL0     C87156   2.327   6.945   2.613 -0.1129  0.3080  0.1789
  661MOL0     C87157   2.392   6.971   2.476 -0.2616  0.3124 -0.5164
  661MOL0     C87158   2.542   6.986   2.472 -0.2251 -1.0353  0.2318
  661MOL0     C87159   2.606   7.098   2.549  0.4646 -0.1892  0.4166
  661MOL0     C87160   2.760   7.094   2.528  0.1840 -0.2216 -0.2040
  661MOL0     C87161   2.825   7.201   2.617  1.4195  0.0661  0.2352
  661MOL0     C87162   2.832   7.336   2.541 -0.6862  0.3399  0.5139
  661MOL0     C87163   2.939   7.357   2.424  0.1810 -0.4145 -0.3230
  661MOL0    Cl87164   3.103   7.325   2.481 -0.2270  0.5619 -0.1044
  661MOL0     C87165   2.149   6.922   2.855 -0.3129  0.0396  0.6935
  661MOL0     C87166   2.047   6.883   2.951  0.2054 -0.0632 -0.9113
  661MOL0     O87167   1.750   6.655   2.891  0.3907  0.0777  0.5325
  661MOL0     C87168   1.723   6.740   3.244  0.3124 -1.1337  0.0040
  661MOL0     C87169   1.689   6.674   3.361 -0.5141  0.5504 -0.0103
  661MOL0     N87170   1.665   6.450   4.166  1.0594  0.5107 -0.4098
  661MOL0     N87171   1.745   6.458   4.266 -0.2289 -0.6587  0.0124
  661MOL0     C87172   2.546   7.302   4.290  0.0093  0.2777  0.1283
  661MOL0     C87173   2.678   7.313   4.245 -0.6590 -0.1143  0.5964
  661MOL0     C87174   2.989   7.317   3.886 -0.2773  0.2523  0.1354
  661MOL0     C87175   3.088   7.244   3.826  0.6869  0.1697 -0.4738
  661MOL0     C87176   3.190   7.304   3.755  0.5619 -0.1602  0.1123
  661MOL0     C87177   3.174   7.439   3.707  0.4218  0.3062 -0.5441
  661MOL0     O87178   3.269   7.490   3.623  0.1726 -0.5136  0.0470
  661MOL0     C87179   3.264   7.634   3.596 -0.4918  0.3850 -0.5666
  661MOL0     C87180   3.373   7.653   3.492 -0.1029  0.0058 -0.0510
  661MOL0     C87181   3.450   7.790   3.502  1.0731  0.7609  0.0193
  661MOL0     C87182   3.544   7.790   3.622  0.4157  0.4083 -0.1936
  661MOL0     C87183   3.548   7.923   3.677 -0.7779 -0.4894  0.8357
  661MOL0     C87184   3.563   8.031   3.733  0.0774  0.1281 -0.6288
  661MOL0     C87185   3.071   7.516   3.772 -0.6130  0.2275  1.0979
  661MOL0     C87186   2.989   7.454   3.859  0.2083  1.0079  0.1793
  661MOL0     H87187   2.627   7.278   3.908  3.9306  0.3313  0.5271
  661MOL0     H87188   2.415   7.234   3.982  1.1796 -2.2638  0.4034
  661MOL0     H87189   2.206   7.277   4.070 -4.1917  3.7186  2.3824
  661MOL0     H87190   2.128   7.215   4.221  0.2985 -1.0185  0.2487
  661MOL0     H87191   2.306   7.066   4.031 -0.4669  3.9205 -0.7423
  661MOL0     H87192   2.142   7.032   4.059  0.3967 -0.1248 -0.5096
  661MOL0     H87193   2.223   6.999   4.315 -1.1014 -0.9039  0.4702
  661MOL0     H87194   2.393   6.989   4.248  1.2726 -2.3809 -3.4388
  661MOL0     H87195   2.155   6.841   4.145  0.9805 -2.1186 -1.3028
  661MOL0     H87196   2.333   6.795   4.129  1.7601  0.2055  1.2054
  661MOL0     H87197   2.215   6.807   4.418  4.2279 -1.3175  3.5033
  661MOL0     H87198   2.365   6.756   4.357 -0.0688  0.1224  0.2092
  661MOL0     H87199   2.181   6.593   4.441  1.8621 -0.9100 -0.0203
  661MOL0     H87200   2.277   6.552   4.292 -0.8400 -1.0754 -0.4070
  661MOL0     H87201   2.001   6.680   4.261 -1.0158 -1.7290  2.5800
  661MOL0     H87202   2.098   6.591   4.142  1.9042 -0.5960  0.4306
  661MOL0     H87203   1.967   6.473   4.391  2.9526 -2.0355  0.0465
  661MOL0     H87204   2.061   6.379   4.281 -0.8557 -1.4295  0.4310
  661MOL0     H87205   1.940   6.397   4.015 -0.2504 -0.6115  1.5603
  661MOL0     H87206   1.579   6.425   3.899  0.1683  1.5764 -0.0930
  661MOL0     H87207   1.697   6.288   3.894 -1.1423  0.0590  0.6040
  661MOL0     H87208   1.857   6.492   3.829  0.1525 -0.1869 -2.7196
  661MOL0     H87209   1.709   6.584   3.833 -1.2170 -0.6477  0.7727
  661MOL0     H87210   1.818   6.505   3.614  1.6479 -0.1409  3.1684
  661MOL0     H87211   1.739   6.349   3.639 -0.3684 -0.9401 -0.7960
  661MOL0     H87212   1.605   6.627   3.634 -2.1121  0.3547 -1.8666
  661MOL0     H87213   1.526   6.477   3.676  0.6142  2.5240  1.9835
  661MOL0     H87214   1.621   6.354   3.250  2.1660 -0.7615 -1.7236
  661MOL0     H87215   1.683   6.456   3.035 -0.7925  1.6808 -1.0908
  661MOL0     H87216   1.770   6.881   2.748  0.6587 -3.5755 -0.9787
  661MOL0     H87217   1.932   6.971   2.580 -1.7391  2.1043  1.8746
  661MOL0     H87218   2.331   6.843   2.653 -0.8831  0.5486  0.9074
  661MOL0     H87219   2.376   7.010   2.687  0.8062  2.3312 -2.0902
  661MOL0     H87220   2.348   7.064   2.438 -4.8023 -1.1402  0.5585
  661MOL0     H87221   2.371   6.881   2.417 -0.8445 -0.1988  0.4463
  661MOL0     H87222   2.563   7.011   2.368 -1.7411  0.1695  0.1883
  661MOL0     H87223   2.590   6.890   2.498  2.3210  0.4653  1.5837
  661MOL0     H87224   2.558   7.188   2.510 -1.0243 -1.9355 -2.0489
  661MOL0     H87225   2.573   7.094   2.653  0.1534 -2.7362  0.2699
  661MOL0     H87226   2.801   7.111   2.428 -1.0024 -0.5763 -0.7799
  661MOL0     H87227   2.797   6.998   2.565  1.6387  0.9225  1.4554
  661MOL0     H87228   2.926   7.172   2.647  1.4161  1.2460  1.4727
  661MOL0     H87229   2.764   7.213   2.707  0.2831  0.7459 -0.5909
  661MOL0     H87230   2.730   7.360   2.510 -0.9487  0.3663  1.3669
  661MOL0     H87231   2.876   7.409   2.610  0.7658 -3.2333  3.7227
  661MOL0     H87232   2.939   7.457   2.380 -0.8232  0.4231  1.4506
  661MOL0     H87233   2.905   7.287   2.347 -2.3439 -1.5888  1.6789
  661MOL0     H87234   2.256   6.906   2.866  0.2467  1.8765 -1.3255
  661MOL0     H87235   2.085   6.852   3.048 -1.9584 -1.3111 -0.3919
  661MOL0     H87236   1.774   6.835   3.258 -1.6426 -0.2670  1.8752
  661MOL0     H87237   1.702   6.726   3.456  0.5829 -0.5964  0.4994
  661MOL0     H87238   2.523   7.324   4.394  0.0430 -0.1402  0.2276
  661MOL0     H87239   2.760   7.324   4.316  0.8023 -1.5578 -0.7771
  661MOL0     H87240   3.100   7.142   3.860 -1.0517 -0.8758 -2.7224
  661MOL0     H87241   3.282   7.247   3.740  0.1576 -0.9750  0.6842
  661MOL0     H87242   3.291   7.689   3.686  0.0604 -1.2039  0.2811
  661MOL0     H87243   3.165   7.663   3.558 -0.7613 -1.4751 -1.4315
  661MOL0     H87244   3.446   7.571   3.495  0.7309  0.4304 -3.5688
  661MOL0     H87245   3.334   7.647   3.390  3.5211 -1.1315 -1.5457
  661MOL0     H87246   3.376   7.871   3.495 -0.7390 -0.8538 -0.2717
  661MOL0     H87247   3.516   7.801   3.415  1.7239  1.4610  0.5844
  661MOL0     H87248   3.516   7.707   3.689 -1.6115  0.2217 -1.2129
  661MOL0     H87249   3.643   7.764   3.583 -0.0508 -0.6474 -0.7139
  661MOL0     H87250   3.563   8.127   3.780 -0.1872  0.0064 -0.3733
  661MOL0     H87251   3.056   7.622   3.755 -0.3687  0.1938  0.6558
  661MOL0     H87252   2.911   7.510   3.910  1.0381  1.8022  0.5867
  662MOL0     O87253   7.626   6.805   8.678 -0.8261  0.7828 -0.0026
  662MOL0     C87254   7.713   6.719   8.712 -0.5545 -0.4052 -0.0919
  662MOL0     O87255   7.701   6.585   8.714 -0.2546 -0.3305 -0.0667
  662MOL0     C87256   7.584   6.534   8.688  0.3071  0.4536  0.4541
  662MOL0     C87257   7.525   6.451   8.786  0.2389  0.3086  0.3868
  662MOL0     C87258   7.402   6.395   8.755  0.3798 -1.2266  0.4043
  662MOL0     C87259   7.344   6.412   8.625  0.2127  0.2846 -0.2055
  662MOL0     O87260   7.223   6.346   8.604 -0.4186 -0.1636  0.5206
  662MOL0     C87261   7.192   6.335   8.463 -0.3449 -0.6297  0.3110
  662MOL0     C87262   7.083   6.237   8.445  1.0909 -0.3303 -0.0430
  662MOL0     C87263   7.059   6.204   8.290  0.2547  0.2752  0.4071
  662MOL0     C87264   6.989   6.076   8.276 -0.8504  0.7652  0.3580
  662MOL0     C87265   6.852   6.089   8.338 -0.1307  0.1770  0.1239
  662MOL0     C87266   6.750   5.994   8.284  0.3425  0.6607 -0.0351
  662MOL0     C87267   6.610   6.011   8.346 -0.1129  0.4826 -0.7693
  662MOL0     C87268   6.541   6.135   8.298 -0.3327 -0.5268 -1.4467
  662MOL0     N87269   6.417   6.162   8.378 -0.0458 -0.7159 -0.0964
  662MOL0     C87270   6.404   6.266   8.476 -0.0855  1.0051  0.2070
  662MOL0     C87271   6.277   6.244   8.525 -0.0677  0.2637  0.4560
  662MOL0     C87272   6.214   6.311   8.643 -0.0639 -0.3599  0.0758
  662MOL0     C87273   6.097   6.399   8.601 -0.1052 -0.1037  0.1657
  662MOL0     C87274   6.047   6.499   8.708 -0.2106  0.2285 -0.4676
  662MOL0     C87275   5.922   6.577   8.656  0.0935 -0.3769  0.0893
  662MOL0     O87276   5.950   6.659   8.544 -0.0893  0.2236 -0.0542
  662MOL0     C87277   5.840   6.727   8.508 -0.0177 -0.5070  0.3852
  662MOL0     C87278   5.831   6.863   8.517  0.3596  0.2393  1.1194
  662MOL0     C87279   5.710   6.932   8.499 -0.5665  0.5821 -0.8588
  662MOL0     C87280   5.596   6.863   8.452 -0.0641 -0.7610 -0.5024
  662MOL0     C87281   5.471   6.937   8.436  1.7678 -0.7065  0.6768
  662MOL0     O87282   5.369   6.865   8.379  0.2890  0.0941 -0.8426
  662MOL0     C87283   5.241   6.899   8.383  0.0249 -0.0227 -0.7576
  662MOL0     C87284   5.193   6.997   8.469  0.2353  0.2603  0.4091
  662MOL0     C87285   5.054   7.010   8.495 -0.0305  0.4608 -0.7497
  662MOL0     C87286   4.970   6.941   8.414 -0.0344  1.0217  0.1050
  662MOL0     O87287   4.840   6.975   8.429  0.0036  0.2067 -0.7574
  662MOL0     C87288   4.756   6.956   8.315 -0.6216 -0.9355 -0.8258
  662MOL0     C87289   4.624   7.034   8.331  0.0808  0.1095 -0.4274
  662MOL0     C87290   4.564   7.047   8.191 -0.0338  0.3137 -0.1106
  662MOL0     C87291   4.451   7.142   8.214  0.0384  0.1642 -0.8196
  662MOL0     C87292   4.382   7.184   8.086  0.9417  0.2765 -0.3170
  662MOL0     C87293   4.320   7.065   8.011 -0.3213  0.1517  0.1793
  662MOL0     C87294   4.256   7.121   7.878 -0.6237 -0.1767 -0.1207
  662MOL0     C87295   4.189   7.020   7.785  0.1471  0.9275  0.1210
  662MOL0    Cl87296   4.064   7.103   7.682  0.2349  0.1112  0.0323
  662MOL0     C87297   5.017   6.840   8.334 -0.6337  0.1124  0.0442
  662MOL0     C87298   5.151   6.818   8.318  0.4080  0.0339  0.4894
  662MOL0     O87299   5.460   7.057   8.459  0.1941 -0.2316  0.4382
  662MOL0     C87300   5.605   6.723   8.437 -0.0191 -0.4461 -1.4291
  662MOL0     C87301   5.725   6.655   8.475 -0.1254  0.2598  0.9317
  662MOL0     N87302   6.200   6.165   8.429  0.2847  0.1737 -0.8434
  662MOL0     N87303   6.294   6.120   8.348 -0.4145 -0.0139 -0.6072
  662MOL0     C87304   7.396   6.500   8.527  0.4118 -0.7521 -0.7325
  662MOL0     C87305   7.522   6.555   8.561 -0.2217 -0.3856  0.8777
  662MOL0     C87306   7.852   6.768   8.737  0.5768 -1.0002  0.6793
  662MOL0     C87307   7.960   6.686   8.727 -0.2822 -0.1684  0.6706
  662MOL0     C87308   8.093   6.734   8.754 -1.0011  0.1059 -0.0006
  662MOL0     C87309   8.110   6.861   8.806 -0.8886  0.0240  0.2494
  662MOL0     O87310   8.238   6.892   8.857  0.7617 -0.6092  0.1807
  662MOL0     C87311   8.264   7.035   8.846  0.1153 -0.4195  0.0904
  662MOL0     C87312   8.415   7.040   8.842 -0.6260 -1.2364 -0.1067
  662MOL0     C87313   8.456   6.966   8.718 -0.9880  0.1431  0.6710
  662MOL0     C87314   8.609   6.945   8.701 -0.0973 -0.4301 -0.1968
  662MOL0     C87315   8.673   7.077   8.673 -0.8550  0.0459  0.5975
  662MOL0     C87316   8.722   7.186   8.657  0.1652  0.9269 -0.4901
  662MOL0     C87317   7.999   6.950   8.825 -0.4554  0.0520  0.1978
  662MOL0     C87318   7.876   6.897   8.793  0.7550 -0.4830  0.2438
  662MOL0     H87319   7.576   6.429   8.879  1.0253 -1.6447 -0.4411
  662MOL0     H87320   7.364   6.329   8.832  1.4628 -0.7304  1.3791
  662MOL0     H87321   7.277   6.298   8.405 -1.5234  1.5283 -3.1013
  662MOL0     H87322   7.158   6.430   8.420 -1.9489 -1.1447  0.3473
  662MOL0     H87323   6.994   6.285   8.487  2.4570  0.6896  1.7961
  662MOL0     H87324   7.116   6.143   8.489  1.7028 -0.1976 -0.2121
  662MOL0     H87325   7.158   6.202   8.242 -1.2330 -1.6129 -2.8698
  662MOL0     H87326   6.997   6.280   8.243  1.4247  0.3232 -1.1685
  662MOL0     H87327   6.974   6.069   8.168 -2.4572 -1.0367  0.6435
  662MOL0     H87328   7.035   5.987   8.318  0.2653  0.6345 -1.0538
  662MOL0     H87329   6.828   6.196   8.334  4.1302  1.4182  2.1798
  662MOL0     H87330   6.879   6.059   8.439  1.0863 -0.8349 -0.4849
  662MOL0     H87331   6.788   5.893   8.300  0.6516  1.1269  2.6879
  662MOL0     H87332   6.739   6.010   8.176 -0.0692  2.7133  0.2676
  662MOL0     H87333   6.563   5.915   8.322  1.6362 -1.9402  4.0496
  662MOL0     H87334   6.612   6.022   8.455 -1.5666 -2.5861 -0.3258
  662MOL0     H87335   6.517   6.112   8.194 -2.6683  1.2847 -1.3884
  662MOL0     H87336   6.604   6.223   8.312 -0.7900 -0.5917  2.0369
  662MOL0     H87337   6.478   6.321   8.534  1.7960  1.5835 -2.5633
  662MOL0     H87338   6.285   6.376   8.696 -0.2899  0.9875 -1.2249
  662MOL0     H87339   6.164   6.241   8.711 -2.0865  0.8700 -0.0752
  662MOL0     H87340   6.021   6.329   8.566  1.7711 -0.5635 -3.4780
  662MOL0     H87341   6.125   6.461   8.516 -0.1402  1.6673  1.3875
  662MOL0     H87342   6.026   6.445   8.801 -0.4558  0.0954 -0.5976
  662MOL0     H87343   6.113   6.582   8.733 -2.0599  1.3171  1.1197
  662MOL0     H87344   5.885   6.621   8.749 -2.3992 -0.4140 -0.7942
  662MOL0     H87345   5.851   6.499   8.625  0.5855 -0.7370 -0.1518
  662MOL0     H87346   5.919   6.924   8.536  0.5797  0.5019 -0.5688
  662MOL0     H87347   5.707   7.039   8.514 -1.9093  0.6288 -1.3451
  662MOL0     H87348   5.246   7.055   8.544 -2.6860  1.5529  1.6101
  662MOL0     H87349   5.002   7.084   8.555 -1.6111 -1.3254  0.1952
  662MOL0     H87350   4.733   6.850   8.304 -2.5016 -0.4373 -2.2746
  662MOL0     H87351   4.813   6.990   8.228 -0.1905 -1.6830 -0.8433
  662MOL0     H87352   4.655   7.131   8.372 -1.3136  0.0918  0.7632
  662MOL0     H87353   4.552   6.989   8.400 -1.0502 -1.5543 -2.5474
  662MOL0     H87354   4.526   6.951   8.154 -2.2309  0.7957  0.7003
  662MOL0     H87355   4.637   7.087   8.120 -1.3164  0.7924 -1.2031
  662MOL0     H87356   4.371   7.102   8.277 -0.3254  1.0437 -0.7110
  662MOL0     H87357   4.491   7.221   8.277 -1.9974 -0.5293  1.4962
  662MOL0     H87358   4.462   7.241   8.038  2.1832 -1.4154 -0.3570
  662MOL0     H87359   4.307   7.262   8.104  0.4199 -0.1851 -0.4528
  662MOL0     H87360   4.240   7.026   8.075  0.2225  2.2266  2.2473
  662MOL0     H87361   4.397   6.993   7.981  0.2216  1.7361 -2.6692
  662MOL0     H87362   4.182   7.196   7.904  0.2213  0.5468  0.2448
  662MOL0     H87363   4.338   7.179   7.835  1.5802 -1.1774  2.4555
  662MOL0     H87364   4.139   6.940   7.840 -2.5562  0.3684 -2.8663
  662MOL0     H87365   4.258   6.969   7.717 -0.1231  1.3679 -0.4895
  662MOL0     H87366   4.945   6.778   8.282 -0.3648 -0.6965  0.6137
  662MOL0     H87367   5.186   6.731   8.263  0.1478  0.7257 -0.7990
  662MOL0     H87368   5.522   6.666   8.396 -2.5962  1.7635  0.4413
  662MOL0     H87369   5.733   6.547   8.485 -0.9839  0.1265  0.2376
  662MOL0     H87370   7.354   6.515   8.429 -3.1550  0.8238  0.8738
  662MOL0     H87371   7.577   6.609   8.485 -2.6164 -0.2169 -0.8843
  662MOL0     H87372   7.958   6.591   8.674  3.4720  1.1410 -2.3760
  662MOL0     H87373   8.183   6.675   8.740  0.9512  3.0835 -0.8968
  662MOL0     H87374   8.219   7.091   8.928 -0.3888 -0.9551  0.1915
  662MOL0     H87375   8.227   7.080   8.753  1.4056  0.8491  0.1508
  662MOL0     H87376   8.459   7.140   8.850 -0.0947 -1.6108  2.4824
  662MOL0     H87377   8.445   6.993   8.936  0.6236  1.3213  0.8676
  662MOL0     H87378   8.414   7.027   8.637 -0.5750 -1.8861 -1.1695
  662MOL0     H87379   8.404   6.872   8.700  0.0327 -0.3447  0.1762
  662MOL0     H87380   8.643   6.893   8.791 -0.4847 -0.2931  0.0299
  662MOL0     H87381   8.633   6.881   8.615 -0.8745 -0.5283 -0.3484
  662MOL0     H87382   8.771   7.281   8.649  1.3585  0.3723 -0.0215
  662MOL0     H87383   7.997   7.054   8.855 -0.2787  0.3150 -0.6712
  662MOL0     H87384   7.792   6.963   8.812  1.1387  0.2087 -0.4210
  663MOL0     O87385   7.813   1.964   1.535 -0.1530  0.0386 -0.5116
  663MOL0     C87386   7.838   2.078   1.580  0.2616  0.3626  0.9868
  663MOL0     O87387   7.762   2.189   1.579 -0.3084 -0.1955  0.5305
  663MOL0     C87388   7.626   2.194   1.570  0.3675 -0.6088 -0.6816
  663MOL0     C87389   7.564   2.320   1.576 -0.5601  0.1978 -0.3153
  663MOL0     C87390   7.425   2.339   1.578  0.3807  0.7171  0.7875
  663MOL0     C87391   7.337   2.236   1.570  1.4939  0.3516  0.0146
  663MOL0     O87392   7.201   2.266   1.576  0.1904 -0.0611 -0.0986
  663MOL0     C87393   7.095   2.168   1.581  0.6173  0.0738  0.2423
  663MOL0     C87394   6.977   2.271   1.595  0.2318  0.0919  0.6787
  663MOL0     C87395   6.850   2.209   1.651 -0.4561 -0.6535 -0.3030
  663MOL0     C87396   6.756   2.326   1.691 -0.0646  0.0616 -0.0372
  663MOL0     C87397   6.621   2.276   1.756 -0.4043 -0.2846  0.7902
  663MOL0     C87398   6.508   2.380   1.771 -0.4039  0.4134  0.0169
  663MOL0     C87399   6.421   2.386   1.651  0.1532  0.2220  0.6659
  663MOL0     C87400   6.347   2.525   1.656 -0.4488 -0.3876  0.3372
  663MOL0     N87401   6.221   2.513   1.730  0.0554  0.6450  0.6347
  663MOL0     C87402   6.200   2.502   1.868 -0.0258 -0.0660 -0.1817
  663MOL0     C87403   6.069   2.492   1.887 -0.2749 -0.1345 -0.6104
  663MOL0     C87404   6.010   2.498   2.023  0.8827 -0.3368  0.1471
  663MOL0     C87405   5.937   2.638   2.045 -0.2119  0.9116  0.2173
  663MOL0     C87406   5.804   2.635   2.116  0.1381  0.3575  0.9092
  663MOL0     C87407   5.687   2.565   2.041 -0.1211  0.8360 -0.1573
  663MOL0     O87408   5.556   2.610   2.092  0.3669 -0.0517  0.1307
  663MOL0     C87409   5.443   2.584   2.011  0.2070  0.1819 -0.1010
  663MOL0     C87410   5.318   2.616   2.061 -0.2078  1.1627 -0.1279
  663MOL0     C87411   5.197   2.582   2.000 -0.5024 -0.4712  0.6586
  663MOL0     C87412   5.196   2.504   1.881 -1.3749  0.2692  0.2454
  663MOL0     C87413   5.075   2.452   1.815 -0.6670  0.0520  0.1091
  663MOL0     O87414   4.956   2.465   1.877  0.0290 -0.6060  0.5155
  663MOL0     C87415   4.842   2.437   1.813  0.3654  0.4054 -0.2481
  663MOL0     C87416   4.790   2.500   1.699 -0.2870  0.7596  0.2211
  663MOL0     C87417   4.667   2.458   1.643 -0.0810 -0.5306 -0.0889
  663MOL0     C87418   4.596   2.353   1.699 -0.2189  0.8065 -0.1482
  663MOL0     O87419   4.474   2.313   1.634  0.5546 -0.6439  0.8080
  663MOL0     C87420   4.437   2.346   1.502 -0.4276 -0.0906  0.5477
  663MOL0     C87421   4.318   2.262   1.442 -0.6368  0.0152 -0.0972
  663MOL0     C87422   4.336   2.122   1.480 -0.4479 -0.3420 -0.1405
  663MOL0     C87423   4.268   2.030   1.382 -0.0720 -0.4058  0.0979
  663MOL0     C87424   4.332   1.881   1.379  0.0204  0.7303 -0.1251
  663MOL0     C87425   4.307   1.811   1.520  0.0140  1.2844 -0.1113
  663MOL0     C87426   4.336   1.659   1.507  0.0578  0.6721 -0.1684
  663MOL0     C87427   4.350   1.584   1.647 -0.0692  0.8180  0.4521
  663MOL0    Cl87428   4.180   1.517   1.690  0.1760  0.0703 -0.1785
  663MOL0     C87429   4.653   2.270   1.796 -0.5321  0.6146  0.5720
  663MOL0     C87430   4.775   2.312   1.852 -0.4975 -0.2793 -0.6154
  663MOL0     O87431   5.100   2.383   1.715  0.4620  0.0360 -0.5202
  663MOL0     C87432   5.330   2.465   1.837  0.5211  0.3931  1.4328
  663MOL0     C87433   5.447   2.502   1.895  0.6504  0.0154 -1.1893
  663MOL0     N87434   6.011   2.477   1.761  0.5523 -0.5391  0.5225
  663MOL0     N87435   6.103   2.493   1.668  0.1931  0.3003 -0.3214
  663MOL0     C87436   7.394   2.106   1.567 -0.3833  0.9270  1.0574
  663MOL0     C87437   7.534   2.085   1.569  0.1056 -0.1750  0.5182
  663MOL0     C87438   7.986   2.082   1.617  0.7194 -0.1391  0.3313
  663MOL0     C87439   8.081   1.992   1.563 -0.4199 -0.2500 -0.2621
  663MOL0     C87440   8.212   1.982   1.607 -1.0082 -0.3949  0.5974
  663MOL0     C87441   8.261   2.063   1.714  0.7287  0.3548  1.2657
  663MOL0     O87442   8.389   2.047   1.753  0.3419 -0.5986  0.1028
  663MOL0     C87443   8.444   2.123   1.865 -0.5512 -0.1153  1.2641
  663MOL0     C87444   8.596   2.125   1.854  0.3301  0.1236  0.4102
  663MOL0     C87445   8.654   2.205   1.978  0.2504  0.8470  0.0517
  663MOL0     C87446   8.802   2.244   1.952  0.8491  0.0213  0.8034
  663MOL0     C87447   8.881   2.122   1.946  0.4560  0.6417  0.0791
  663MOL0     C87448   8.940   2.022   1.944 -0.1755  0.6485 -0.2220
  663MOL0     C87449   8.177   2.161   1.769  0.0602  0.1970 -0.3946
  663MOL0     C87450   8.045   2.172   1.711  0.2255 -0.4171 -0.1223
  663MOL0     H87451   7.624   2.410   1.578  0.7545 -0.5729 -2.1052
  663MOL0     H87452   7.392   2.442   1.563  0.0417  0.4601 -0.3620
  663MOL0     H87453   7.111   2.113   1.674  0.7309  2.3732  1.6611
  663MOL0     H87454   7.095   2.111   1.488  0.5003 -1.0688  0.9256
  663MOL0     H87455   6.953   2.315   1.497  1.9427 -0.1609  0.1040
  663MOL0     H87456   7.001   2.350   1.667  0.8180 -1.7184  2.5411
  663MOL0     H87457   6.875   2.143   1.735 -2.4636 -3.0968 -1.4778
  663MOL0     H87458   6.805   2.148   1.573  1.1071 -1.5884 -0.5229
  663MOL0     H87459   6.794   2.402   1.760 -0.2516 -1.2602  1.5776
  663MOL0     H87460   6.730   2.383   1.601 -0.0440 -0.4775 -0.3878
  663MOL0     H87461   6.651   2.236   1.853  1.4824 -1.8492 -0.3594
  663MOL0     H87462   6.586   2.196   1.690 -0.4020  0.4655 -0.1531
  663MOL0     H87463   6.567   2.469   1.798  0.6236 -1.2283  3.9656
  663MOL0     H87464   6.455   2.344   1.860 -1.4765 -0.3659 -0.9152
  663MOL0     H87465   6.486   2.372   1.565 -0.8761  1.6736 -0.4155
  663MOL0     H87466   6.352   2.301   1.652 -0.3222  0.3587 -3.8006
  663MOL0     H87467   6.335   2.562   1.554 -0.1462  2.0266  1.1122
  663MOL0     H87468   6.414   2.601   1.698  0.0580 -0.0256 -1.0782
  663MOL0     H87469   6.271   2.516   1.949 -1.3477 -2.9713  1.6666
  663MOL0     H87470   6.090   2.491   2.098 -1.3141 -0.9278  2.5609
  663MOL0     H87471   5.937   2.417   2.030 -1.1939  1.5318  1.1211
  663MOL0     H87472   5.912   2.673   1.944  2.0464  1.7827 -0.1000
  663MOL0     H87473   5.997   2.718   2.091 -1.3087  3.0244 -1.7770
  663MOL0     H87474   5.820   2.589   2.214 -0.5355 -0.9386  0.4425
  663MOL0     H87475   5.780   2.740   2.132 -1.1039  0.4037 -0.9542
  663MOL0     H87476   5.689   2.456   2.048  2.9198  0.6722 -1.6366
  663MOL0     H87477   5.691   2.592   1.935 -1.1548 -0.0430 -0.4404
  663MOL0     H87478   5.311   2.664   2.158 -2.0818  1.1395 -0.2160
  663MOL0     H87479   5.109   2.622   2.049  1.6977  1.4543  3.3627
  663MOL0     H87480   4.853   2.579   1.658 -1.5836  3.6786  3.4724
  663MOL0     H87481   4.621   2.521   1.567  0.1388  0.0182  0.2340
  663MOL0     H87482   4.528   2.342   1.442  0.5139 -2.8517  1.9966
  663MOL0     H87483   4.398   2.448   1.518  1.3776  1.0246 -1.7077
  663MOL0     H87484   4.326   2.265   1.333 -1.5902 -1.2869 -0.2201
  663MOL0     H87485   4.221   2.296   1.481 -1.5875  1.6811 -3.4774
  663MOL0     H87486   4.316   2.098   1.585  2.1090  1.4909  0.8962
  663MOL0     H87487   4.443   2.099   1.471  0.0247  1.3456  0.6854
  663MOL0     H87488   4.160   2.023   1.402 -0.1730 -1.9285 -0.8247
  663MOL0     H87489   4.282   2.061   1.278  1.4315  1.4321  0.7879
  663MOL0     H87490   4.437   1.893   1.352 -0.0716  1.1280 -0.3211
  663MOL0     H87491   4.291   1.821   1.297 -0.3900 -0.6078  1.0226
  663MOL0     H87492   4.198   1.815   1.525 -0.2035 -2.3581  1.1197
  663MOL0     H87493   4.359   1.865   1.599  1.6850  0.6005 -0.7013
  663MOL0     H87494   4.262   1.606   1.447  2.0019 -0.0968 -2.0142
  663MOL0     H87495   4.430   1.649   1.452  1.0248  0.8831  1.3900
  663MOL0     H87496   4.394   1.650   1.722  3.0142 -0.9164  0.3320
  663MOL0     H87497   4.415   1.497   1.633  1.0029  1.3960  1.6286
  663MOL0     H87498   4.603   2.176   1.819  2.0731 -0.5020  2.2203
  663MOL0     H87499   4.819   2.254   1.932  0.8188  1.0205 -0.3511
  663MOL0     H87500   5.342   2.409   1.745  4.3043  1.8684  0.8725
  663MOL0     H87501   5.534   2.466   1.840  1.8114 -1.0051  1.1542
  663MOL0     H87502   7.323   2.024   1.562  1.2440 -0.4842 -3.2244
  663MOL0     H87503   7.573   1.984   1.568  0.8707  0.0713  2.3086
  663MOL0     H87504   8.044   1.924   1.486 -0.7290 -1.3806  0.8462
  663MOL0     H87505   8.277   1.910   1.558 -0.2702  0.6047  0.0582
  663MOL0     H87506   8.414   2.081   1.962  0.1452 -2.8180  0.3872
  663MOL0     H87507   8.410   2.225   1.886 -1.7855 -0.0208 -0.9287
  663MOL0     H87508   8.631   2.022   1.868 -2.1082 -0.4040  3.9727
  663MOL0     H87509   8.633   2.172   1.762  1.6166 -0.4777  0.5976
  663MOL0     H87510   8.655   2.136   2.062 -1.5174 -1.9429 -2.0244
  663MOL0     H87511   8.595   2.290   2.013 -0.0235 -0.1926  2.2629
  663MOL0     H87512   8.794   2.281   1.850 -2.1499 -1.5595  0.3488
  663MOL0     H87513   8.843   2.311   2.028  0.2264 -1.8811  2.9420
  663MOL0     H87514   8.996   1.931   1.939  3.0378  2.3797  1.3946
  663MOL0     H87515   8.206   2.235   1.844  1.3458 -0.3840 -0.3115
  663MOL0     H87516   7.974   2.249   1.739 -0.4956 -1.5512  1.2714
  664MOL0     O87517   9.705   9.230   0.043 -0.5685  0.9230 -0.2655
  664MOL0     C87518   9.799   9.163   0.089  0.1365 -0.3484  0.9801
  664MOL0     O87519   9.793   9.044   0.155  0.8069  0.3015 -0.8519
  664MOL0     C87520   9.678   9.003   0.223 -0.1161  0.5395  0.2643
  664MOL0     C87521   9.579   9.092   0.281 -0.0795  0.3760 -0.7324
  664MOL0     C87522   9.458   9.039   0.337  0.2457 -0.2826  0.0051
  664MOL0     C87523   9.436   8.902   0.344 -0.9803  1.0368 -0.3939
  664MOL0     O87524   9.333   8.847   0.411 -0.5258 -0.3281 -0.1133
  664MOL0     C87525   9.205   8.916   0.435 -0.1990 -0.3665 -0.0713
  664MOL0     C87526   9.097   8.807   0.460  0.2311 -0.8426  0.7557
  664MOL0     C87527   9.021   8.771   0.329  0.5024  0.6520 -0.1798
  664MOL0     C87528   9.111   8.748   0.211 -0.4235  0.1875 -0.2933
  664MOL0     C87529   9.047   8.758   0.076 -0.0286  0.5865 -0.0114
  664MOL0     C87530   8.965   8.630   0.066  0.4539 -0.4005  0.5703
  664MOL0     C87531   8.870   8.623  -0.057 -0.8322  0.1436  0.5518
  664MOL0     C87532   8.951   8.576  -0.174 -0.4222 -0.2531  0.2695
  664MOL0     N87533   8.860   8.544  -0.285  0.0513  0.7793 -0.8514
  664MOL0     C87534   8.821   8.640  -0.371 -0.1165 -0.3979  0.5985
  664MOL0     C87535   8.744   8.568  -0.454  0.6667  0.1076 -0.2177
  664MOL0     C87536   8.695   8.626  -0.587 -0.2927  0.4852 -0.3765
  664MOL0     C87537   8.815   8.652  -0.680  1.2061  0.3661  0.1189
  664MOL0     C87538   8.757   8.695  -0.813  0.5991 -0.1764 -0.8534
  664MOL0     C87539   8.763   8.843  -0.820 -0.7822 -0.1451 -0.2094
  664MOL0     O87540   8.676   8.892  -0.724 -0.8060 -0.0800 -0.0379
  664MOL0     C87541   8.538   8.889  -0.743  0.4978  0.7607  0.1094
  664MOL0     C87542   8.463   8.912  -0.628  0.1081  0.9505  0.1236
  664MOL0     C87543   8.318   8.914  -0.637  1.4246 -1.1704 -0.1188
  664MOL0     C87544   8.254   8.875  -0.751  1.2497 -0.7663  0.3283
  664MOL0     C87545   8.104   8.892  -0.764 -0.4239  0.3702  0.1343
  664MOL0     O87546   8.031   8.930  -0.661  0.4003  0.2272  0.6842
  664MOL0     C87547   7.896   8.951  -0.682  1.2825  0.5918 -0.4041
  664MOL0     C87548   7.807   8.864  -0.753 -0.0371 -0.7785  0.2066
  664MOL0     C87549   7.668   8.901  -0.770  0.2396  0.3232 -0.0848
  664MOL0     C87550   7.620   9.009  -0.705  0.1768  0.4700  0.2303
  664MOL0     O87551   7.497   9.042  -0.748  0.2893  0.2929  0.2403
  664MOL0     C87552   7.470   9.185  -0.749  0.1038  0.2934 -0.5370
  664MOL0     C87553   7.335   9.204  -0.820  0.3861  0.0083 -0.0279
  664MOL0     C87554   7.226   9.132  -0.740 -0.6532  0.3108 -0.9657
  664MOL0     C87555   7.084   9.158  -0.787 -0.7195 -0.8732 -0.3817
  664MOL0     C87556   6.972   9.076  -0.731 -0.3084 -1.3036  0.0750
  664MOL0     C87557   6.855   9.086  -0.838  0.4023  0.0685  0.3356
  664MOL0     C87558   6.745   8.979  -0.795  0.2110  0.3395 -0.0083
  664MOL0     C87559   6.600   9.041  -0.820  0.0016  0.3631  0.2683
  664MOL0    Cl87560   6.561   9.060  -0.993 -0.1847 -0.2691 -0.1528
  664MOL0     C87561   7.705   9.079  -0.614 -0.2259 -0.0633  0.5397
  664MOL0     C87562   7.842   9.049  -0.601  0.2841  0.4891  0.1188
  664MOL0     O87563   8.061   8.865  -0.878 -0.0404  0.8314 -0.0248
  664MOL0     C87564   8.326   8.844  -0.869 -0.6641 -0.5127 -0.5321
  664MOL0     C87565   8.472   8.859  -0.863  0.6168  0.2190 -0.6031
  664MOL0     N87566   8.715   8.445  -0.403  1.3831  0.4038  0.6094
  664MOL0     N87567   8.787   8.433  -0.299 -0.0092  0.1680 -0.7956
  664MOL0     C87568   9.531   8.812   0.284  0.0261 -0.0438 -0.8978
  664MOL0     C87569   9.653   8.867   0.230  0.0542  0.6520  0.1887
  664MOL0     C87570   9.930   9.218   0.058 -0.2290 -0.8083  0.4865
  664MOL0     C87571  10.040   9.169   0.128  0.6805 -0.4470  0.4008
  664MOL0     C87572  10.163   9.229   0.108 -0.5292  0.1009 -0.5577
  664MOL0     C87573  10.185   9.310  -0.001 -0.1913  0.0975 -0.2465
  664MOL0     O87574  10.322   9.346  -0.017 -0.0029 -0.4247  0.1579
  664MOL0     C87575  10.352   9.454  -0.107 -0.1151 -0.2848  0.1725
  664MOL0     C87576  10.495   9.494  -0.116  0.1846  0.9227  0.0947
  664MOL0     C87577  10.548   9.544   0.021 -0.2152  0.3718 -0.5144
  664MOL0     C87578  10.698   9.581   0.014  0.7443  0.1786  0.5204
  664MOL0     C87579  10.774   9.459   0.016  0.5104  0.0581 -0.3162
  664MOL0     C87580  10.835   9.358   0.038 -1.2089  0.2436 -0.4618
  664MOL0     C87581  10.076   9.357  -0.068 -0.5448 -1.0236 -0.0026
  664MOL0     C87582   9.947   9.313  -0.040  0.5600 -0.5561  0.3203
  664MOL0     H87583   9.600   9.199   0.280 -0.2708  0.5150  2.0360
  664MOL0     H87584   9.379   9.108   0.365 -1.3493 -1.4760 -1.3159
  664MOL0     H87585   9.169   8.980   0.354 -3.3332 -0.6379  1.0077
  664MOL0     H87586   9.218   8.964   0.532 -1.4614  0.5219 -0.3318
  664MOL0     H87587   9.024   8.841   0.534 -1.2069 -1.8149 -0.1719
  664MOL0     H87588   9.140   8.716   0.503 -1.5203 -1.6531  0.8696
  664MOL0     H87589   8.947   8.845   0.301 -1.0064 -0.7722 -0.0937
  664MOL0     H87590   8.968   8.679   0.353  2.3251 -0.2619  0.5884
  664MOL0     H87591   9.200   8.812   0.208  1.4664 -2.3362 -2.1628
  664MOL0     H87592   9.162   8.653   0.227 -1.1379 -0.1186  0.2143
  664MOL0     H87593   9.121   8.777  -0.003 -0.2646  2.2427  0.1367
  664MOL0     H87594   8.980   8.844   0.064 -0.3568  0.2299 -0.7869
  664MOL0     H87595   8.894   8.629   0.149 -0.8481 -3.0186 -0.4756
  664MOL0     H87596   9.022   8.537   0.073 -1.6669 -2.1354 -2.6869
  664MOL0     H87597   8.784   8.561  -0.031  0.1018 -1.0703  0.8347
  664MOL0     H87598   8.826   8.722  -0.070 -0.9354  0.5953  3.5872
  664MOL0     H87599   9.005   8.488  -0.138 -3.5981 -1.0426  3.7619
  664MOL0     H87600   9.029   8.649  -0.198 -0.1053 -1.0231 -1.1214
  664MOL0     H87601   8.861   8.740  -0.383  0.4564 -0.8106 -1.3542
  664MOL0     H87602   8.616   8.701  -0.572 -0.3064  0.7089 -1.5302
  664MOL0     H87603   8.640   8.546  -0.638  2.4889 -0.9470 -1.3333
  664MOL0     H87604   8.881   8.565  -0.691  1.4008  0.5606 -0.3044
  664MOL0     H87605   8.875   8.733  -0.638  0.6929  0.4404  0.7205
  664MOL0     H87606   8.823   8.662  -0.894  2.1640  0.5627  0.0738
  664MOL0     H87607   8.655   8.664  -0.836  0.7195  0.8274 -3.0904
  664MOL0     H87608   8.746   8.880  -0.922  0.6451 -2.2140 -1.2463
  664MOL0     H87609   8.867   8.874  -0.807 -0.8821 -0.1056  0.5395
  664MOL0     H87610   8.513   8.925  -0.533 -3.2792 -0.7641  2.3162
  664MOL0     H87611   8.260   8.954  -0.554  0.3330  3.7538 -2.8935
  664MOL0     H87612   7.835   8.774  -0.807  1.7855  0.7775 -1.6065
  664MOL0     H87613   7.612   8.851  -0.848  4.0438 -1.9450 -1.6202
  664MOL0     H87614   7.546   9.246  -0.799  1.7437 -0.8003  0.5330
  664MOL0     H87615   7.468   9.223  -0.646 -1.4523  0.2341 -0.5284
  664MOL0     H87616   7.335   9.172  -0.925 -2.2435  1.5139 -0.5643
  664MOL0     H87617   7.309   9.310  -0.827 -1.6789 -0.4775 -0.3112
  664MOL0     H87618   7.218   9.170  -0.638 -2.3439 -2.1541 -0.0898
  664MOL0     H87619   7.250   9.026  -0.730 -0.6033  0.1426 -2.6086
  664MOL0     H87620   7.059   9.263  -0.767 -0.6864 -0.8278 -0.5798
  664MOL0     H87621   7.093   9.145  -0.895 -0.6302  0.4239 -0.5502
  664MOL0     H87622   6.947   9.114  -0.632  3.3617  1.2117  0.2387
  664MOL0     H87623   7.010   8.974  -0.720  0.3494 -1.1601 -0.7884
  664MOL0     H87624   6.889   9.076  -0.941  0.8298  0.3425  0.4489
  664MOL0     H87625   6.819   9.189  -0.832 -0.1731 -0.2141  2.8596
  664MOL0     H87626   6.748   8.887  -0.855  1.2981  0.9622 -0.9424
  664MOL0     H87627   6.758   8.962  -0.688 -0.0215 -0.7355 -0.1353
  664MOL0     H87628   6.605   9.138  -0.771  1.3686  0.4567 -0.0147
  664MOL0     H87629   6.530   8.980  -0.763 -0.1464  0.6693  0.4161
  664MOL0     H87630   7.670   9.163  -0.554  0.8056 -1.4918  3.3473
  664MOL0     H87631   7.897   9.118  -0.537 -1.4393  1.8072  0.2537
  664MOL0     H87632   8.293   8.822  -0.970 -0.2954 -0.5355 -0.6522
  664MOL0     H87633   8.530   8.866  -0.954 -1.5517  3.1000 -1.9005
  664MOL0     H87634   9.513   8.706   0.274 -2.6371  0.4296 -1.8694
  664MOL0     H87635   9.727   8.791   0.208 -0.0475 -0.0274  1.9817
  664MOL0     H87636  10.040   9.091   0.204  1.4567  1.1774  2.1454
  664MOL0     H87637  10.247   9.190   0.165 -1.3301 -2.0316 -0.7434
  664MOL0     H87638  10.306   9.549  -0.080  1.1426  0.5319 -0.4839
  664MOL0     H87639  10.324   9.421  -0.207  0.9849 -0.4440 -0.1011
  664MOL0     H87640  10.556   9.419  -0.166 -1.9732  0.1248 -1.5125
  664MOL0     H87641  10.510   9.583  -0.179 -0.1055  1.0968  0.2663
  664MOL0     H87642  10.527   9.477   0.104 -1.1878  0.0105 -1.0371
  664MOL0     H87643  10.491   9.634   0.047 -2.0694 -0.7051 -0.7044
  664MOL0     H87644  10.716   9.647  -0.071 -0.0106  1.3149  1.2232
  664MOL0     H87645  10.736   9.638   0.099  1.3638  3.2531 -1.6494
  664MOL0     H87646  10.890   9.278   0.082  1.6407  2.6189  0.6762
  664MOL0     H87647  10.106   9.441  -0.130  1.4149 -1.9793 -0.4015
  664MOL0     H87648   9.857   9.358  -0.081  2.5221  2.2212 -1.2231
  665MOL0     O87649   6.977   1.986   7.517  0.8047  0.5697  0.1447
  665MOL0     C87650   6.984   1.890   7.436 -0.6662 -0.1120  0.0544
  665MOL0     O87651   6.890   1.840   7.362  0.5334  0.3362 -0.0265
  665MOL0     C87652   6.781   1.911   7.357  0.2974 -0.4747  0.5723
  665MOL0     C87653   6.700   1.956   7.466 -0.2289  0.0997 -0.3677
  665MOL0     C87654   6.571   1.986   7.443  0.2551 -0.3550 -0.6631
  665MOL0     C87655   6.509   1.986   7.315  0.1760 -0.0941  0.0244
  665MOL0     O87656   6.372   2.000   7.290 -0.3541 -0.6557  0.1005
  665MOL0     C87657   6.302   2.092   7.386 -0.0606  0.3269  1.3806
  665MOL0     C87658   6.146   2.073   7.358 -0.4408 -0.9202  0.2064
  665MOL0     C87659   6.058   2.179   7.423  1.3945 -0.3016 -0.4750
  665MOL0     C87660   6.062   2.315   7.353  0.4879  0.7552 -0.1486
  665MOL0     C87661   5.962   2.416   7.407  0.3088 -0.4211 -0.1547
  665MOL0     C87662   5.983   2.564   7.360  0.6492  0.8816 -0.3664
  665MOL0     C87663   5.901   2.663   7.435 -0.4378 -0.5155  0.1579
  665MOL0     C87664   5.907   2.802   7.361  0.3231  0.8302  0.3359
  665MOL0     N87665   6.038   2.872   7.342  0.1786  0.4820 -0.1508
  665MOL0     C87666   6.147   2.837   7.277 -1.0844  0.2574  0.9570
  665MOL0     C87667   6.252   2.883   7.350  0.6129 -0.6309  0.6991
  665MOL0     C87668   6.395   2.857   7.321 -0.0381  0.0764 -0.6576
  665MOL0     C87669   6.464   2.743   7.414 -0.6394  0.2855  0.9952
  665MOL0     C87670   6.521   2.811   7.534  0.0170 -0.3188 -0.2918
  665MOL0     C87671   6.574   2.708   7.636 -0.1560  0.2795  0.0348
  665MOL0     O87672   6.692   2.651   7.569  0.8193 -0.3192 -0.5060
  665MOL0     C87673   6.817   2.686   7.608  0.2531 -0.0293 -0.2988
  665MOL0     C87674   6.855   2.793   7.691 -0.2459 -0.4999 -0.0365
  665MOL0     C87675   6.987   2.835   7.717  0.4326  0.2948 -0.8526
  665MOL0     C87676   7.091   2.768   7.657 -0.3653 -0.2666 -0.0423
  665MOL0     C87677   7.235   2.788   7.707  0.3976  1.3937 -0.5559
  665MOL0     O87678   7.320   2.679   7.682  0.3442  0.3001  0.7856
  665MOL0     C87679   7.447   2.687   7.729  0.0281  0.3133 -0.3283
  665MOL0     C87680   7.471   2.678   7.868  1.0367 -0.3542 -0.2664
  665MOL0     C87681   7.599   2.671   7.925 -0.5856 -0.3429 -0.9806
  665MOL0     C87682   7.713   2.673   7.843 -0.1987 -0.3555 -0.2705
  665MOL0     O87683   7.841   2.649   7.886  0.2211  0.1198  0.1566
  665MOL0     C87684   7.862   2.680   8.020  0.1708 -0.1641  0.3305
  665MOL0     C87685   8.009   2.669   8.044  0.5728  0.3345  0.4160
  665MOL0     C87686   8.077   2.565   7.954  0.4383 -0.1695 -0.1070
  665MOL0     C87687   8.204   2.514   8.028 -0.5219  0.8246 -0.1030
  665MOL0     C87688   8.315   2.622   8.049 -0.5145  0.7977 -0.4021
  665MOL0     C87689   8.443   2.573   8.106  0.3146 -0.2650  0.6189
  665MOL0     C87690   8.549   2.678   8.102  0.6445 -1.5671  0.3780
  665MOL0     C87691   8.686   2.652   8.164  0.8286 -0.6403  0.3015
  665MOL0    Cl87692   8.686   2.701   8.335 -0.0668  0.2774  0.1902
  665MOL0     C87693   7.694   2.677   7.709 -0.1995 -0.1344  0.3650
  665MOL0     C87694   7.562   2.690   7.655  0.4541  0.3216  0.5344
  665MOL0     O87695   7.266   2.884   7.776  0.1245 -0.0707 -0.3920
  665MOL0     C87696   7.059   2.658   7.566  0.3565  0.0513 -0.1572
  665MOL0     C87697   6.925   2.623   7.544 -0.4531 -0.2016  0.5788
  665MOL0     N87698   6.206   2.943   7.463 -0.1856  0.0124  0.3764
  665MOL0     N87699   6.076   2.941   7.454 -0.4753  0.7475  0.7285
  665MOL0     C87700   6.586   1.951   7.204 -0.3131  1.0893 -0.0121
  665MOL0     C87701   6.718   1.905   7.228  0.3266 -0.4824 -0.0489
  665MOL0     C87702   7.116   1.831   7.428 -0.5991  0.2389 -0.7597
  665MOL0     C87703   7.218   1.856   7.523 -0.3020 -0.0407 -0.0658
  665MOL0     C87704   7.355   1.811   7.497 -1.1884 -0.1131 -0.9758
  665MOL0     C87705   7.378   1.716   7.405 -0.0540  0.3004  0.2403
  665MOL0     O87706   7.497   1.661   7.371 -0.6113  0.6931 -0.1628
  665MOL0     C87707   7.609   1.732   7.417  0.1342 -0.3417  0.6064
  665MOL0     C87708   7.748   1.707   7.352 -0.4262 -0.5264  0.0577
  665MOL0     C87709   7.863   1.766   7.434 -0.2526  0.1395 -0.5328
  665MOL0     C87710   8.003   1.724   7.366  0.8028  0.2899  0.6111
  665MOL0     C87711   8.129   1.786   7.422  0.4995  0.5526  0.3332
  665MOL0     C87712   8.232   1.846   7.442  0.3782  0.3717  0.7117
  665MOL0     C87713   7.264   1.671   7.320 -0.3084  0.8236  0.1742
  665MOL0     C87714   7.139   1.737   7.328 -0.2762  0.6001  0.2942
  665MOL0     H87715   6.746   1.942   7.563  1.6152  0.5077 -1.1434
  665MOL0     H87716   6.519   2.007   7.536  3.6202 -2.2475  1.8743
  665MOL0     H87717   6.336   2.195   7.370  1.1939  0.0212  1.9181
  665MOL0     H87718   6.318   2.054   7.487 -0.2119 -1.8100  0.6651
  665MOL0     H87719   6.117   1.974   7.394 -2.6792 -0.2589  0.4016
  665MOL0     H87720   6.128   2.080   7.250 -1.0166 -4.8638 -0.0996
  665MOL0     H87721   6.091   2.197   7.526 -2.2038 -1.9234  1.1679
  665MOL0     H87722   5.956   2.142   7.440  1.7801 -1.2183 -0.0325
  665MOL0     H87723   6.160   2.361   7.367  0.6810  0.8960 -1.7130
  665MOL0     H87724   6.039   2.291   7.248  2.9053 -1.2038 -0.3348
  665MOL0     H87725   5.964   2.419   7.517  0.9910  1.6106 -0.1804
  665MOL0     H87726   5.863   2.380   7.376  0.0261 -2.8431  2.9761
  665MOL0     H87727   5.944   2.560   7.257 -2.2199 -3.2155  0.6473
  665MOL0     H87728   6.090   2.587   7.356  0.6331  0.8738 -1.1474
  665MOL0     H87729   5.799   2.629   7.455 -0.9018  1.2915  1.0928
  665MOL0     H87730   5.957   2.669   7.528 -0.3021 -2.2338  0.2181
  665MOL0     H87731   5.837   2.873   7.405  0.0296  0.1718  0.9454
  665MOL0     H87732   5.866   2.782   7.261 -3.5051 -0.8857  2.0635
  665MOL0     H87733   6.160   2.768   7.195  2.2121  1.0997  0.6474
  665MOL0     H87734   6.434   2.956   7.346 -0.5330  0.0356  0.3158
  665MOL0     H87735   6.409   2.841   7.213 -0.2327 -0.5877 -0.5858
  665MOL0     H87736   6.538   2.685   7.359 -0.2341  1.8042 -0.1373
  665MOL0     H87737   6.393   2.674   7.459 -1.2450 -0.7202 -1.3876
  665MOL0     H87738   6.598   2.884   7.508  0.2045 -0.1701  0.6510
  665MOL0     H87739   6.442   2.863   7.590 -1.4295 -1.1325 -1.5001
  665MOL0     H87740   6.507   2.624   7.653 -1.3245  0.9306 -1.1815
  665MOL0     H87741   6.598   2.745   7.736 -0.3215 -1.4930  0.7493
  665MOL0     H87742   6.781   2.861   7.732  1.4127  0.9962  0.6012
  665MOL0     H87743   6.991   2.923   7.780 -0.1676 -1.3539  1.6396
  665MOL0     H87744   7.389   2.650   7.933  0.5600 -0.4557 -0.9072
  665MOL0     H87745   7.617   2.656   8.031  2.6858  2.6664 -0.9132
  665MOL0     H87746   7.803   2.613   8.083  0.4237  1.5487  2.5219
  665MOL0     H87747   7.835   2.785   8.037  2.2679  0.3657  0.6530
  665MOL0     H87748   8.030   2.640   8.147 -1.1593 -1.5292  0.3063
  665MOL0     H87749   8.053   2.769   8.035  1.7839  0.0098  2.2481
  665MOL0     H87750   8.095   2.611   7.857  0.9551 -1.1291 -0.4819
  665MOL0     H87751   8.006   2.483   7.939 -0.3699  0.5964 -0.5827
  665MOL0     H87752   8.190   2.462   8.123  0.4035  0.9069  0.0866
  665MOL0     H87753   8.233   2.441   7.951 -1.4755 -0.1709  0.4539
  665MOL0     H87754   8.277   2.692   8.124  1.5754 -0.2098  1.6950
  665MOL0     H87755   8.329   2.673   7.953 -2.1989  2.0662 -0.0188
  665MOL0     H87756   8.467   2.494   8.035 -1.7569  0.6919 -1.2872
  665MOL0     H87757   8.434   2.531   8.207  1.7675  0.0830  0.9202
  665MOL0     H87758   8.566   2.699   7.996 -3.1876 -1.9202 -0.4467
  665MOL0     H87759   8.511   2.772   8.142  3.7456  0.8142 -1.7540
  665MOL0     H87760   8.750   2.719   8.107 -0.8494  0.8535  0.0857
  665MOL0     H87761   8.720   2.548   8.157 -0.1516 -0.9997  0.6610
  665MOL0     H87762   7.782   2.675   7.645 -0.6159 -0.3294 -0.2078
  665MOL0     H87763   7.539   2.704   7.550 -1.6889 -1.7720  0.6302
  665MOL0     H87764   7.140   2.599   7.524  2.2197  1.1654  1.6670
  665MOL0     H87765   6.902   2.547   7.470 -0.9136 -0.0920  0.6080
  665MOL0     H87766   6.551   1.949   7.101  0.7819  1.2467 -0.3965
  665MOL0     H87767   6.790   1.879   7.151  0.2625 -0.4136 -0.1337
  665MOL0     H87768   7.194   1.926   7.602 -2.2978 -0.5334 -0.1830
  665MOL0     H87769   7.434   1.850   7.561 -0.6535 -0.6432 -1.3104
  665MOL0     H87770   7.612   1.715   7.525 -1.0661 -1.1064  0.5389
  665MOL0     H87771   7.587   1.838   7.404 -0.9379 -0.6546 -0.3072
  665MOL0     H87772   7.766   1.600   7.336  1.2577 -0.2672  0.0694
  665MOL0     H87773   7.740   1.755   7.254  0.1648  0.5292  0.5175
  665MOL0     H87774   7.851   1.721   7.533  0.5886 -1.6528 -1.2016
  665MOL0     H87775   7.850   1.874   7.445 -0.2803  0.0919 -0.1053
  665MOL0     H87776   8.019   1.616   7.362  0.4417  0.2380  0.5775
  665MOL0     H87777   8.002   1.751   7.260  1.0468 -2.9734 -0.3253
  665MOL0     H87778   8.328   1.893   7.454  0.0905  0.8281  1.2754
  665MOL0     H87779   7.269   1.609   7.232  1.1564  1.0698  0.0577
  665MOL0     H87780   7.076   1.721   7.241  1.2639 -2.6796 -0.3781
  666MOL0     O87781   6.874   7.742   0.455  0.0069 -0.0475  0.2946
  666MOL0     C87782   6.992   7.734   0.420 -0.7586 -0.5374  0.1803
  666MOL0     O87783   7.087   7.686   0.503  0.5761 -0.3414 -1.2221
  666MOL0     C87784   7.073   7.653   0.638  0.4143  0.8163  0.2120
  666MOL0     C87785   6.954   7.608   0.703  0.2149  0.2884  0.1660
  666MOL0     C87786   6.963   7.560   0.833  0.8346  0.4712 -0.7868
  666MOL0     C87787   7.085   7.569   0.903 -0.4708  0.6306 -0.5239
  666MOL0     O87788   7.117   7.507   1.025  0.3069 -0.0433 -0.3155
  666MOL0     C87789   7.007   7.496   1.124 -0.4692 -0.8086 -0.0653
  666MOL0     C87790   7.038   7.401   1.236  0.1564 -0.6954 -0.5986
  666MOL0     C87791   7.171   7.440   1.312  0.6063  0.6548  0.5918
  666MOL0     C87792   7.170   7.388   1.455  0.0303 -0.3092  0.2763
  666MOL0     C87793   7.304   7.419   1.520 -0.5507  0.6145  0.4680
  666MOL0     C87794   7.318   7.347   1.659  0.0701  0.1754 -0.0980
  666MOL0     C87795   7.217   7.412   1.766  0.2570 -0.3241  0.0979
  666MOL0     C87796   7.201   7.345   1.902  0.4556  0.6564  0.0795
  666MOL0     N87797   7.159   7.206   1.870  0.4497  0.5157  0.7937
  666MOL0     C87798   7.031   7.176   1.830  0.4669  0.0648  0.0352
  666MOL0     C87799   7.033   7.044   1.793 -0.6419 -0.4820 -0.5278
  666MOL0     C87800   6.912   6.963   1.748  0.5037 -0.6223 -0.1382
  666MOL0     C87801   6.890   6.873   1.862 -0.0221  0.9679 -0.4345
  666MOL0     C87802   6.748   6.798   1.844  0.0411 -0.0447  0.3564
  666MOL0     C87803   6.621   6.887   1.886 -0.2069  0.3632 -0.1330
  666MOL0     O87804   6.498   6.811   1.898  0.2743 -0.5381 -0.0030
  666MOL0     C87805   6.377   6.885   1.892 -0.3446 -0.1638  0.4285
  666MOL0     C87806   6.259   6.821   1.895  0.0453  0.9998 -0.1493
  666MOL0     C87807   6.134   6.898   1.899 -0.1344 -0.2692  0.0160
  666MOL0     C87808   6.141   7.042   1.884 -0.2529  0.2243 -0.5701
  666MOL0     C87809   6.022   7.129   1.891  0.5692 -0.4368 -0.1105
  666MOL0     O87810   6.047   7.264   1.900  0.0060 -0.5413  0.0313
  666MOL0     C87811   5.938   7.347   1.887 -0.1514  0.7426 -0.1698
  666MOL0     C87812   5.861   7.378   2.004 -0.1098 -1.1241  1.6851
  666MOL0     C87813   5.746   7.457   1.987 -0.2104  0.4800  0.5917
  666MOL0     C87814   5.703   7.508   1.862  1.0772  0.0139  0.2645
  666MOL0     O87815   5.572   7.553   1.844 -0.3377  0.8517 -0.2873
  666MOL0     C87816   5.573   7.693   1.850  0.0386 -0.4880 -0.0250
  666MOL0     C87817   5.455   7.741   1.751  1.0065 -0.8413  0.0881
  666MOL0     C87818   5.312   7.705   1.793 -0.3767 -0.0663 -0.9069
  666MOL0     C87819   5.198   7.753   1.700  1.4835 -0.6370 -0.6787
  666MOL0     C87820   5.070   7.671   1.727 -0.3750  0.3783 -0.7092
  666MOL0     C87821   4.956   7.716   1.635  0.7519  0.4448 -0.2811
  666MOL0     C87822   4.828   7.641   1.658  0.0264 -0.5204 -0.2431
  666MOL0     C87823   4.828   7.494   1.649  1.0935  1.0185  0.4497
  666MOL0    Cl87824   4.857   7.417   1.805 -0.1401 -0.4915 -0.0425
  666MOL0     C87825   5.789   7.475   1.750  0.2530 -0.6577 -0.0866
  666MOL0     C87826   5.904   7.398   1.756  0.0751 -0.8620 -0.2154
  666MOL0     O87827   5.909   7.082   1.898  0.5165  0.6687  0.1741
  666MOL0     C87828   6.264   7.104   1.888 -0.4083 -0.6488 -0.0520
  666MOL0     C87829   6.384   7.031   1.887  0.5955  0.4296 -0.4232
  666MOL0     N87830   7.164   6.996   1.828  0.2746 -0.1271  0.0196
  666MOL0     N87831   7.238   7.087   1.872 -0.2043  0.0367  0.0196
  666MOL0     C87832   7.197   7.616   0.832  0.7427 -0.2736  0.3051
  666MOL0     C87833   7.189   7.658   0.701  0.0439 -0.0212  0.1869
  666MOL0     C87834   7.030   7.778   0.281  1.2001 -0.0682  0.3088
  666MOL0     C87835   7.160   7.785   0.231  0.2987  0.6069 -0.6794
  666MOL0     C87836   7.190   7.817   0.101  0.1571 -0.2778  0.6471
  666MOL0     C87837   7.092   7.833   0.006  1.1762 -0.2617  0.0063
  666MOL0     O87838   7.107   7.860  -0.133  0.1254 -0.5084 -0.2646
  666MOL0     C87839   7.240   7.885  -0.175 -0.4046 -0.1510 -0.2679
  666MOL0     C87840   7.266   7.842  -0.326 -0.0538  0.6793 -1.0483
  666MOL0     C87841   7.284   7.692  -0.361  0.2563 -0.8169 -0.5001
  666MOL0     C87842   7.296   7.664  -0.520  0.4573 -0.4501 -0.5063
  666MOL0     C87843   7.219   7.747  -0.613  0.7147  0.6151  0.6038
  666MOL0     C87844   7.159   7.824  -0.685  0.4052 -0.1233  0.2960
  666MOL0     C87845   6.957   7.845   0.058  0.0780  0.4253  0.1594
  666MOL0     C87846   6.928   7.822   0.193  0.3392 -0.1146  0.1145
  666MOL0     H87847   6.860   7.613   0.649  1.2557  2.1161 -1.6119
  666MOL0     H87848   6.874   7.513   0.872 -0.6809  1.9213 -2.2901
  666MOL0     H87849   6.915   7.469   1.072 -0.2500  3.0126 -2.9109
  666MOL0     H87850   6.984   7.594   1.166 -0.8626 -0.7146 -0.4886
  666MOL0     H87851   7.043   7.299   1.198 -1.4609 -0.9489 -0.1920
  666MOL0     H87852   6.951   7.408   1.303 -0.5750  0.8981 -1.6633
  666MOL0     H87853   7.181   7.548   1.328 -3.3569  1.2934 -0.1760
  666MOL0     H87854   7.256   7.405   1.253  0.7047  2.2346 -0.2580
  666MOL0     H87855   7.090   7.433   1.514  0.3215 -0.5326  0.8469
  666MOL0     H87856   7.156   7.280   1.448 -2.1121 -0.1323  1.1473
  666MOL0     H87857   7.310   7.528   1.527 -0.4746  0.6850 -0.4595
  666MOL0     H87858   7.385   7.375   1.460 -0.7064  0.3764  0.4319
  666MOL0     H87859   7.421   7.347   1.695 -0.4839 -0.3003  1.5778
  666MOL0     H87860   7.286   7.244   1.641 -0.0317  0.3332 -0.8484
  666MOL0     H87861   7.257   7.512   1.782 -0.6711  0.3568 -1.5416
  666MOL0     H87862   7.114   7.426   1.731 -0.3484 -1.2402  1.4124
  666MOL0     H87863   7.124   7.394   1.962  0.7066 -0.6140  1.4808
  666MOL0     H87864   7.294   7.344   1.960  0.4418  0.0035  0.0910
  666MOL0     H87865   6.943   7.239   1.829 -0.5986 -1.3691  0.4217
  666MOL0     H87866   6.927   6.910   1.653 -2.2670 -1.0743 -0.4052
  666MOL0     H87867   6.828   7.031   1.734 -0.3202 -1.6601 -0.3406
  666MOL0     H87868   6.883   6.926   1.957 -0.3244  0.5572 -0.2268
  666MOL0     H87869   6.967   6.796   1.874 -2.0545 -0.8832  1.5953
  666MOL0     H87870   6.737   6.753   1.745 -6.4756 -1.8540  1.3959
  666MOL0     H87871   6.750   6.717   1.917  1.1076 -0.9278 -0.6252
  666MOL0     H87872   6.611   6.966   1.812  0.6372  1.3376  0.7599
  666MOL0     H87873   6.633   6.942   1.980 -1.4537 -1.0074  0.8856
  666MOL0     H87874   6.255   6.713   1.905 -0.6841  0.7959 -2.1892
  666MOL0     H87875   6.034   6.855   1.902 -0.2247 -0.2361  4.1537
  666MOL0     H87876   5.885   7.321   2.093  1.0575  0.2763  2.3234
  666MOL0     H87877   5.671   7.483   2.061 -2.6118  1.6978 -2.0817
  666MOL0     H87878   5.662   7.752   1.829 -0.5950  0.1840 -0.9078
  666MOL0     H87879   5.541   7.726   1.949 -0.7176 -1.3893  0.0505
  666MOL0     H87880   5.476   7.706   1.650 -1.1324 -0.2788 -0.6160
  666MOL0     H87881   5.466   7.850   1.748 -1.9445 -0.3692  1.6646
  666MOL0     H87882   5.294   7.738   1.896  2.0183  0.0845 -0.4763
  666MOL0     H87883   5.310   7.596   1.799 -2.7201 -0.0729 -0.9647
  666MOL0     H87884   5.186   7.858   1.728  1.5120 -0.8282  0.0828
  666MOL0     H87885   5.230   7.752   1.596  1.0716  3.5935 -0.9973
  666MOL0     H87886   5.053   7.679   1.835  0.7016  2.6787 -0.6547
  666MOL0     H87887   5.097   7.566   1.710 -2.6153 -0.7594  2.0519
  666MOL0     H87888   5.000   7.700   1.535  2.7891  0.9473  0.4733
  666MOL0     H87889   4.937   7.823   1.630 -0.7522  0.5308  3.8153
  666MOL0     H87890   4.791   7.673   1.756  2.9701  1.5381  0.3301
  666MOL0     H87891   4.769   7.680   1.575 -0.8938  1.7787  1.3753
  666MOL0     H87892   4.901   7.462   1.574  2.6910  4.2597  0.4787
  666MOL0     H87893   4.732   7.463   1.605  3.4048 -3.3450 -2.2709
  666MOL0     H87894   5.752   7.501   1.651  0.7160  0.2347 -0.0315
  666MOL0     H87895   5.952   7.369   1.663  0.0539  0.1953 -0.5650
  666MOL0     H87896   6.272   7.211   1.901 -0.4441 -0.6888  0.3129
  666MOL0     H87897   6.471   7.094   1.899 -1.2538  2.7999  2.0022
  666MOL0     H87898   7.289   7.613   0.890 -1.1390  0.4282  3.5731
  666MOL0     H87899   7.277   7.691   0.645  1.9444 -1.7664  2.0054
  666MOL0     H87900   7.232   7.747   0.303  0.9166 -1.0835 -2.1089
  666MOL0     H87901   7.296   7.820   0.077  0.2375  0.5133  1.1034
  666MOL0     H87902   7.310   7.822  -0.119 -2.3172 -4.0254 -1.7984
  666MOL0     H87903   7.255   7.993  -0.169 -4.2727  0.7374 -2.6603
  666MOL0     H87904   7.178   7.881  -0.378 -1.6624 -0.4150  0.7044
  666MOL0     H87905   7.354   7.896  -0.363  0.1603  0.0562 -1.4743
  666MOL0     H87906   7.193   7.638  -0.331  0.8225 -0.9250  1.1401
  666MOL0     H87907   7.367   7.653  -0.303  0.8448 -1.2571 -1.6183
  666MOL0     H87908   7.405   7.658  -0.530  0.5567  2.2038 -1.7753
  666MOL0     H87909   7.264   7.564  -0.551  0.3654 -0.5538 -0.0847
  666MOL0     H87910   7.101   7.890  -0.746 -1.5933 -1.7616  0.3541
  666MOL0     H87911   6.880   7.874  -0.012 -0.4723 -1.7540 -0.1931
  666MOL0     H87912   6.822   7.822   0.217  0.7614 -0.3388  2.1409
  667MOL0     O87913   8.362   3.947   9.097 -0.9706  0.1164 -0.6169
  667MOL0     C87914   8.351   3.855   9.174 -0.0281 -1.1968  0.1007
  667MOL0     O87915   8.235   3.813   9.231 -0.2338 -0.2402  0.0048
  667MOL0     C87916   8.125   3.893   9.228  0.1906 -0.5325 -0.2227
  667MOL0     C87917   8.132   4.032   9.273 -0.0096  0.1557 -0.2756
  667MOL0     C87918   8.014   4.099   9.288 -0.3815  0.2306 -0.7040
  667MOL0     C87919   7.898   4.045   9.238  0.4219  0.0079 -0.4367
  667MOL0     O87920   7.772   4.094   9.261 -0.0874  0.2003 -0.2072
  667MOL0     C87921   7.752   4.237   9.278  0.6797  0.1996  0.3747
  667MOL0     C87922   7.602   4.257   9.316 -0.3364 -0.5450 -0.8559
  667MOL0     C87923   7.563   4.402   9.319 -0.3377 -0.3264  0.3199
  667MOL0     C87924   7.523   4.467   9.188 -0.3651  0.4676 -0.1671
  667MOL0     C87925   7.484   4.615   9.201  0.2561  0.2055 -0.4944
  667MOL0     C87926   7.342   4.632   9.272  0.8707 -0.3948 -0.2883
  667MOL0     C87927   7.294   4.775   9.261  0.2422  0.2347  0.7590
  667MOL0     C87928   7.245   4.817   9.124 -0.0851  0.0738  0.2642
  667MOL0     N87929   7.116   4.753   9.079  0.0124 -0.4023 -0.3414
  667MOL0     C87930   6.998   4.817   9.054  0.0734  0.7066 -0.0027
  667MOL0     C87931   6.903   4.718   9.031  0.3848 -0.0806 -0.3961
  667MOL0     C87932   6.757   4.740   8.992  0.5342 -0.0477 -0.6246
  667MOL0     C87933   6.716   4.666   8.857 -0.5608 -0.1989 -0.1135
  667MOL0     C87934   6.565   4.693   8.837  0.0181 -0.1671  0.5148
  667MOL0     C87935   6.508   4.629   8.710 -0.0736  0.3382 -0.7925
  667MOL0     O87936   6.383   4.698   8.683 -0.9290  0.0869 -0.8949
  667MOL0     C87937   6.285   4.622   8.623 -0.4758 -0.2034  0.0790
  667MOL0     C87938   6.298   4.490   8.569 -0.0099  0.4717 -0.0096
  667MOL0     C87939   6.190   4.424   8.502 -0.6168 -0.6019  0.2510
  667MOL0     C87940   6.063   4.476   8.509 -0.2476  0.0402 -0.4905
  667MOL0     C87941   5.944   4.415   8.433 -0.4963 -0.4955 -0.0370
  667MOL0     O87942   5.975   4.318   8.340 -0.1017 -0.3537  0.0469
  667MOL0     C87943   5.886   4.283   8.243  0.1936  1.0210 -0.3277
  667MOL0     C87944   5.755   4.239   8.265  0.8833 -0.1850 -0.2875
  667MOL0     C87945   5.662   4.216   8.161  0.3421  0.7321 -0.3720
  667MOL0     C87946   5.698   4.229   8.028  0.3153  0.1034  0.0270
  667MOL0     O87947   5.619   4.201   7.924 -0.2301 -0.1801  0.3008
  667MOL0     C87948   5.600   4.308   7.832  0.2587 -0.1548  0.1073
  667MOL0     C87949   5.534   4.252   7.705  0.7291  0.3687  0.4432
  667MOL0     C87950   5.390   4.202   7.738 -0.2557 -0.2602  0.2828
  667MOL0     C87951   5.307   4.138   7.617 -0.4775 -0.4465 -0.4460
  667MOL0     C87952   5.161   4.117   7.653 -0.1830 -0.8305 -0.1660
  667MOL0     C87953   5.105   3.989   7.587  0.0856 -0.6836  0.0772
  667MOL0     C87954   5.055   4.014   7.441 -0.4008  0.9928 -0.0488
  667MOL0     C87955   5.034   3.875   7.365 -0.2846 -1.1340 -0.7411
  667MOL0    Cl87956   4.893   3.807   7.438  0.3147 -0.0805 -0.0329
  667MOL0     C87957   5.827   4.288   8.003 -0.5000  0.8140  1.0773
  667MOL0     C87958   5.919   4.312   8.108  0.9349 -0.6212  0.5721
  667MOL0     O87959   5.838   4.462   8.458  0.1000  0.0862 -0.1722
  667MOL0     C87960   6.048   4.601   8.579  0.3963  0.6839  0.1545
  667MOL0     C87961   6.154   4.670   8.636 -1.0807  0.1254 -0.3908
  667MOL0     N87962   6.980   4.601   9.025 -0.5503  0.6270 -0.0413
  667MOL0     N87963   7.106   4.628   9.045 -0.1328 -0.0019 -0.8095
  667MOL0     C87964   7.891   3.909   9.205 -0.2008  0.0108  0.8382
  667MOL0     C87965   8.002   3.835   9.205 -0.4431 -0.2105 -0.3889
  667MOL0     C87966   8.476   3.787   9.217 -1.1577 -0.3733 -0.5916
  667MOL0     C87967   8.469   3.726   9.344 -1.4123 -0.0288  0.3296
  667MOL0     C87968   8.592   3.668   9.390  0.2541  0.3103 -0.5704
  667MOL0     C87969   8.715   3.668   9.319  0.6008 -0.8262  0.0999
  667MOL0     O87970   8.826   3.623   9.388  0.0369 -0.3128  0.2772
  667MOL0     C87971   8.918   3.550   9.302 -0.1589  0.5900  0.6894
  667MOL0     C87972   9.057   3.619   9.276  0.5692 -0.0369  0.1640
  667MOL0     C87973   9.141   3.636   9.401  0.2845 -0.5073  0.5411
  667MOL0     C87974   9.257   3.733   9.378  0.4148 -0.6999 -0.9311
  667MOL0     C87975   9.373   3.694   9.459 -0.1244  0.4345  0.2287
  667MOL0     C87976   9.471   3.690   9.529 -0.0946 -0.2235 -0.1378
  667MOL0     C87977   8.715   3.744   9.205  0.5139 -0.6067 -0.2068
  667MOL0     C87978   8.595   3.787   9.145 -0.1125 -0.3247 -0.5250
  667MOL0     H87979   8.225   4.075   9.308 -1.4308  0.4205  3.6906
  667MOL0     H87980   8.005   4.191   9.345 -0.4168 -0.0540 -0.2460
  667MOL0     H87981   7.769   4.301   9.191 -4.0643  1.0320 -0.1823
  667MOL0     H87982   7.813   4.271   9.363 -0.6233 -0.0553  1.4459
  667MOL0     H87983   7.588   4.210   9.413  0.1783  0.5315 -0.2488
  667MOL0     H87984   7.532   4.202   9.252 -0.2894  1.4457 -2.7454
  667MOL0     H87985   7.646   4.462   9.357  0.6043 -1.9150  0.8634
  667MOL0     H87986   7.476   4.419   9.383 -0.9188 -0.6069 -0.3858
  667MOL0     H87987   7.609   4.464   9.121  1.3394 -1.1516  1.9585
  667MOL0     H87988   7.455   4.405   9.129  0.8872 -0.9173 -0.2150
  667MOL0     H87989   7.468   4.653   9.099 -4.1700 -2.2878 -0.9654
  667MOL0     H87990   7.566   4.647   9.266  1.5517 -2.3672 -0.7604
  667MOL0     H87991   7.346   4.604   9.377  0.0010 -1.0884 -0.4222
  667MOL0     H87992   7.270   4.561   9.229 -1.1133  0.7291  1.0513
  667MOL0     H87993   7.208   4.782   9.330 -1.4583 -0.4166 -1.1979
  667MOL0     H87994   7.371   4.840   9.304  1.3559 -1.3180  1.1659
  667MOL0     H87995   7.329   4.805   9.055  1.2844 -0.6392  1.9673
  667MOL0     H87996   7.228   4.925   9.129 -0.5472 -0.0262  1.0229
  667MOL0     H87997   6.974   4.923   9.050 -0.5586  0.6100  0.8543
  667MOL0     H87998   6.739   4.847   8.976  0.1508  0.6741  3.4525
  667MOL0     H87999   6.691   4.704   9.072 -0.1554  0.0674 -1.1407
  667MOL0     H88000   6.736   4.558   8.854 -0.4458 -0.2045  0.7878
  667MOL0     H88001   6.770   4.721   8.779 -1.2035  0.5328 -0.0571
  667MOL0     H88002   6.507   4.666   8.926  0.3467 -0.3539  0.6727
  667MOL0     H88003   6.561   4.802   8.824 -0.9141 -0.3558 -0.9264
  667MOL0     H88004   6.499   4.525   8.743  3.9889  0.6216  1.9320
  667MOL0     H88005   6.576   4.634   8.624 -0.1931  0.9034 -0.8536
  667MOL0     H88006   6.392   4.436   8.556 -2.3427 -4.7066  2.1961
  667MOL0     H88007   6.203   4.333   8.444 -0.2802  0.4156 -1.3386
  667MOL0     H88008   5.727   4.213   8.367 -0.9226 -2.5763 -1.2817
  667MOL0     H88009   5.564   4.174   8.181  1.2383 -0.2383  2.4348
  667MOL0     H88010   5.692   4.359   7.801 -0.8413  1.5448 -0.4924
  667MOL0     H88011   5.532   4.385   7.868  1.4730  1.2452 -0.5034
  667MOL0     H88012   5.583   4.163   7.665 -0.5649 -1.0559  1.8710
  667MOL0     H88013   5.548   4.334   7.634  1.0489  0.6463  0.8236
  667MOL0     H88014   5.337   4.285   7.786 -3.8684 -1.8974 -0.5548
  667MOL0     H88015   5.406   4.126   7.815 -0.3083  0.2069  0.7585
  667MOL0     H88016   5.321   4.182   7.518 -0.4867  1.0096  0.1758
  667MOL0     H88017   5.352   4.039   7.607  1.2847  0.3407 -0.7158
  667MOL0     H88018   5.090   4.189   7.611  0.9784 -1.4815 -3.4812
  667MOL0     H88019   5.153   4.098   7.761  1.1327 -0.5460  0.0067
  667MOL0     H88020   5.018   3.969   7.650 -0.3972  0.1340 -0.3097
  667MOL0     H88021   5.179   3.909   7.584 -0.2310 -0.9820 -2.4773
  667MOL0     H88022   4.965   4.076   7.446  0.8537  2.9465 -0.6155
  667MOL0     H88023   5.131   4.069   7.386  1.6242 -2.1483 -0.5997
  667MOL0     H88024   5.126   3.817   7.378 -0.3310 -1.1476 -0.4574
  667MOL0     H88025   5.022   3.888   7.257 -0.5455  3.5684 -0.3230
  667MOL0     H88026   5.873   4.310   7.907 -3.8633  0.9319 -0.6645
  667MOL0     H88027   6.014   4.350   8.074  1.2452 -0.5923  1.4486
  667MOL0     H88028   5.969   4.675   8.582  0.5226  0.8048  2.7088
  667MOL0     H88029   6.138   4.763   8.689 -1.1758 -0.4791  0.6715
  667MOL0     H88030   7.798   3.857   9.179 -0.2930  0.9585 -0.9042
  667MOL0     H88031   7.989   3.734   9.167 -2.2628 -0.3733  0.5745
  667MOL0     H88032   8.380   3.718   9.404 -0.6064 -1.7041  1.3605
  667MOL0     H88033   8.592   3.617   9.485 -2.8048 -1.1892 -1.2598
  667MOL0     H88034   8.876   3.538   9.202 -0.1504 -5.4941  1.0777
  667MOL0     H88035   8.936   3.446   9.331 -2.6141 -0.2849 -0.6255
  667MOL0     H88036   9.108   3.552   9.206 -2.0043 -1.5265 -0.4378
  667MOL0     H88037   9.031   3.709   9.220  0.2656 -1.1807 -1.6238
  667MOL0     H88038   9.177   3.543   9.445  1.4085 -0.0447  0.6379
  667MOL0     H88039   9.077   3.680   9.478 -1.0008 -5.0471  2.3905
  667MOL0     H88040   9.287   3.720   9.273  1.5739 -2.6883 -0.4066
  667MOL0     H88041   9.235   3.838   9.394  1.8114 -0.5949  0.5322
  667MOL0     H88042   9.555   3.693   9.595  0.3826 -0.2857 -0.7264
  667MOL0     H88043   8.805   3.748   9.143 -0.2665  0.2046 -1.3313
  667MOL0     H88044   8.605   3.835   9.048 -0.5437  1.0737  0.1040
  668MOL0     O88045   4.360   2.570   6.900 -0.5859 -0.1681 -0.6667
  668MOL0     C88046   4.410   2.679   6.874 -0.4314 -0.1346  0.5175
  668MOL0     O88047   4.381   2.755   6.763  0.4898  0.0239 -0.5313
  668MOL0     C88048   4.281   2.693   6.686 -0.1968 -0.4993 -0.6376
  668MOL0     C88049   4.148   2.670   6.732 -0.2667  0.4886  0.7070
  668MOL0     C88050   4.043   2.631   6.640 -0.0550  0.2733 -0.6007
  668MOL0     C88051   4.068   2.623   6.502 -0.0526 -0.0428 -0.5233
  668MOL0     O88052   3.967   2.611   6.413  0.1226 -0.2488 -0.1212
  668MOL0     C88053   3.941   2.725   6.328 -0.0645 -0.8856 -0.2405
  668MOL0     C88054   3.796   2.745   6.318  1.0615 -1.5638  0.1779
  668MOL0     C88055   3.710   2.624   6.280 -0.9933 -0.4705  0.2469
  668MOL0     C88056   3.580   2.676   6.226  0.6938  0.4084 -0.2384
  668MOL0     C88057   3.489   2.714   6.343 -0.1341 -0.1175  0.6041
  668MOL0     C88058   3.443   2.597   6.436 -1.1024 -0.6712 -0.4033
  668MOL0     C88059   3.365   2.642   6.556  0.1451 -0.3114 -0.9001
  668MOL0     C88060   3.215   2.661   6.535 -0.0307  0.3380  0.9027
  668MOL0     N88061   3.158   2.548   6.451  0.3574 -0.2378 -0.3496
  668MOL0     C88062   3.133   2.426   6.506  0.1049  0.4776  0.2216
  668MOL0     C88063   3.085   2.356   6.397 -0.0998  0.3103 -0.0840
  668MOL0     C88064   3.056   2.207   6.389 -0.1488  0.9362  0.7449
  668MOL0     C88065   2.905   2.172   6.427  0.3375  0.2522  0.9614
  668MOL0     C88066   2.875   2.193   6.577  0.3938  0.3127  0.6060
  668MOL0     C88067   2.728   2.160   6.599  0.1416 -0.2205 -0.2364
  668MOL0     O88068   2.690   2.025   6.571  0.7903  0.4760  0.6098
  668MOL0     C88069   2.568   1.979   6.621 -0.4489  0.4998  0.8783
  668MOL0     C88070   2.465   2.065   6.651  0.3166 -0.9486  0.1078
  668MOL0     C88071   2.356   2.026   6.711  1.1195  0.1328  0.7200
  668MOL0     C88072   2.342   1.894   6.743  0.4084  0.3333 -0.0021
  668MOL0     C88073   2.215   1.840   6.795  0.3815 -0.1269 -0.8066
  668MOL0     O88074   2.110   1.922   6.793 -0.0785  0.0569  0.7226
  668MOL0     C88075   1.991   1.891   6.848  1.5885 -0.3139 -1.3136
  668MOL0     C88076   1.958   1.801   6.956 -0.1829 -0.7722  0.2730
  668MOL0     C88077   1.828   1.778   7.003  0.1912 -0.4594 -0.0813
  668MOL0     C88078   1.724   1.857   6.954  0.0448  0.3659 -0.7186
  668MOL0     O88079   1.597   1.846   7.000  0.3549 -0.4406  0.5270
  668MOL0     C88080   1.590   1.804   7.146 -0.2359  0.5531 -0.2985
  668MOL0     C88081   1.439   1.817   7.177  1.0115  0.3385  0.8121
  668MOL0     C88082   1.373   1.955   7.159 -1.2284 -0.0873  0.9571
  668MOL0     C88083   1.446   2.062   7.244 -0.2321  0.7936 -0.2700
  668MOL0     C88084   1.381   2.203   7.233  0.5212 -0.7103  0.0713
  668MOL0     C88085   1.236   2.198   7.280  0.0956 -0.2767 -1.3162
  668MOL0     C88086   1.180   2.324   7.327  0.6160 -1.2786 -0.5433
  668MOL0     C88087   1.241   2.388   7.457  0.9445 -0.2716  0.4661
  668MOL0    Cl88088   1.240   2.269   7.592 -0.0290 -0.2663  0.1429
  668MOL0     C88089   1.754   1.944   6.853  0.1528 -0.1353  0.3705
  668MOL0     C88090   1.886   1.958   6.795  0.1201  0.0266 -0.0980
  668MOL0     O88091   2.210   1.725   6.838  0.6219  0.3100  0.6459
  668MOL0     C88092   2.429   1.798   6.693  1.0080  0.0615 -0.9666
  668MOL0     C88093   2.547   1.839   6.633  0.0872  0.0881 -0.5056
  668MOL0     N88094   3.090   2.440   6.289 -0.6570 -0.7258  0.3024
  668MOL0     N88095   3.140   2.551   6.317 -0.7385 -0.3514  0.6861
  668MOL0     C88096   4.199   2.639   6.457  0.3492 -0.3993  0.3276
  668MOL0     C88097   4.300   2.682   6.542 -0.1987 -0.1911 -0.2136
  668MOL0     C88098   4.534   2.719   6.943  0.3202  0.1064 -0.0957
  668MOL0     C88099   4.589   2.646   7.046 -0.4508 -0.0575 -0.6595
  668MOL0     C88100   4.717   2.694   7.091  0.1560  0.3431  0.3332
  668MOL0     C88101   4.785   2.794   7.043 -0.5496 -0.6694  0.9737
  668MOL0     O88102   4.905   2.846   7.089 -0.0234  0.3258  0.2094
  668MOL0     C88103   5.002   2.751   7.101 -0.3443 -0.3785 -0.2359
  668MOL0     C88104   5.086   2.789   7.223  0.6026  0.5553 -0.0926
  668MOL0     C88105   5.173   2.914   7.189 -0.2642 -0.2632 -0.3240
  668MOL0     C88106   5.276   2.940   7.293 -0.0956  0.0990  0.3312
  668MOL0     C88107   5.400   2.858   7.290  0.1994  0.9198  0.0198
  668MOL0     C88108   5.493   2.781   7.304  0.0321 -0.2052 -0.6977
  668MOL0     C88109   4.733   2.868   6.945  1.4315  0.3023 -1.1761
  668MOL0     C88110   4.605   2.833   6.891 -0.2384 -0.8438  0.5229
  668MOL0     H88111   4.132   2.688   6.838 -3.9271 -0.2100  0.3933
  668MOL0     H88112   3.942   2.613   6.677 -0.2315  0.0804 -1.1636
  668MOL0     H88113   3.965   2.714   6.221 -1.0377  4.7621 -1.3823
  668MOL0     H88114   3.980   2.820   6.367 -1.4569  0.0996 -1.1061
  668MOL0     H88115   3.779   2.826   6.247 -1.4097 -0.3817  1.9427
  668MOL0     H88116   3.763   2.771   6.419 -0.9835 -1.3447 -0.4957
  668MOL0     H88117   3.698   2.569   6.373 -0.6381 -0.5796  0.2286
  668MOL0     H88118   3.769   2.563   6.211 -0.8013  1.0215 -0.9859
  668MOL0     H88119   3.591   2.764   6.162 -1.1598  0.5582 -0.4108
  668MOL0     H88120   3.529   2.609   6.156  2.1758 -0.5037 -0.4693
  668MOL0     H88121   3.399   2.762   6.303 -0.5741  0.4729  2.2302
  668MOL0     H88122   3.529   2.787   6.413  0.4799  1.0353 -0.8905
  668MOL0     H88123   3.534   2.563   6.487 -1.3695 -0.4003  0.2610
  668MOL0     H88124   3.401   2.511   6.383 -4.4221 -1.3643  2.9169
  668MOL0     H88125   3.374   2.578   6.643 -1.8629  1.1887  0.5101
  668MOL0     H88126   3.391   2.742   6.592 -0.2145 -0.5341 -0.0181
  668MOL0     H88127   3.194   2.748   6.472 -1.8629 -1.2275 -0.7518
  668MOL0     H88128   3.155   2.686   6.624 -2.0151  0.9731 -0.5419
  668MOL0     H88129   3.152   2.392   6.607 -2.7400  0.0052  0.6730
  668MOL0     H88130   3.123   2.144   6.449 -2.0399 -1.7357  0.2375
  668MOL0     H88131   3.062   2.178   6.284 -1.6064  4.0935 -0.3365
  668MOL0     H88132   2.905   2.066   6.402  1.9418  0.0169  1.8197
  668MOL0     H88133   2.826   2.223   6.371  0.4278 -1.5427 -0.8897
  668MOL0     H88134   2.925   2.117   6.637  1.0005 -0.2364 -0.5568
  668MOL0     H88135   2.903   2.295   6.604  1.4166 -0.0401  0.9473
  668MOL0     H88136   2.678   2.226   6.528  0.5149 -2.1593 -2.4126
  668MOL0     H88137   2.700   2.198   6.698 -1.0440 -2.2174  0.2399
  668MOL0     H88138   2.457   2.171   6.634 -1.6824 -1.4681 -2.8398
  668MOL0     H88139   2.270   2.091   6.715 -1.2370 -2.1293 -4.1934
  668MOL0     H88140   2.039   1.746   7.002  1.2103  1.8011  1.1414
  668MOL0     H88141   1.811   1.712   7.088  1.1952  0.0939  0.5701
  668MOL0     H88142   1.662   1.852   7.212  1.3116 -0.7793 -0.9317
  668MOL0     H88143   1.618   1.699   7.160  2.6911  1.6791  4.1666
  668MOL0     H88144   1.420   1.774   7.276 -0.3222  2.5196  1.5643
  668MOL0     H88145   1.386   1.757   7.103 -1.3435  0.9739  1.8963
  668MOL0     H88146   1.271   1.953   7.198 -1.4434  0.1565  0.4201
  668MOL0     H88147   1.377   1.988   7.055  0.1507 -0.2556  0.9360
  668MOL0     H88148   1.450   2.032   7.349 -1.1395  1.3865 -0.0551
  668MOL0     H88149   1.547   2.058   7.203 -1.0715  0.8003 -2.5114
  668MOL0     H88150   1.395   2.239   7.130 -2.5375  0.1114 -0.1561
  668MOL0     H88151   1.440   2.265   7.301  1.6504  1.0948 -2.3985
  668MOL0     H88152   1.220   2.120   7.355  0.9201  1.2270  0.4757
  668MOL0     H88153   1.173   2.171   7.195 -2.0221  1.0760 -0.2484
  668MOL0     H88154   1.189   2.400   7.249 -1.9408 -0.4560 -0.1382
  668MOL0     H88155   1.072   2.320   7.340  0.7172 -0.4838  0.8202
  668MOL0     H88156   1.172   2.466   7.492 -2.6826 -1.6149 -2.9647
  668MOL0     H88157   1.343   2.424   7.438  0.2562  1.6344  0.1370
  668MOL0     H88158   1.671   1.998   6.810  1.4045  0.8862 -0.8330
  668MOL0     H88159   1.901   2.021   6.707 -1.3242  0.2533 -0.1974
  668MOL0     H88160   2.402   1.693   6.686  1.4139 -0.0874 -0.3646
  668MOL0     H88161   2.624   1.770   6.600 -2.5403 -1.7232 -3.4189
  668MOL0     H88162   4.216   2.619   6.352 -0.7480 -2.5990  0.5125
  668MOL0     H88163   4.400   2.701   6.505  0.1770  0.0123  0.8649
  668MOL0     H88164   4.536   2.561   7.089  1.5293  0.1191  2.3883
  668MOL0     H88165   4.746   2.639   7.179 -0.6843 -2.6168 -1.0885
  668MOL0     H88166   5.069   2.754   7.015 -0.1285 -0.8849 -0.0887
  668MOL0     H88167   4.966   2.647   7.101  2.3407 -1.3754 -0.2389
  668MOL0     H88168   5.021   2.790   7.311 -1.5103 -0.6953 -1.5471
  668MOL0     H88169   5.158   2.706   7.226 -0.5004 -0.4108  1.1356
  668MOL0     H88170   5.125   3.012   7.183 -2.0437 -1.1478 -1.5006
  668MOL0     H88171   5.216   2.888   7.092  0.2011 -1.0698  0.0825
  668MOL0     H88172   5.300   3.047   7.295  0.8026 -0.0629  3.6503
  668MOL0     H88173   5.228   2.938   7.391  4.4071  2.9462  2.9632
  668MOL0     H88174   5.572   2.716   7.335  0.8703  1.9841  2.1258
  668MOL0     H88175   4.773   2.962   6.907  3.6638 -1.6918 -4.2109
  668MOL0     H88176   4.562   2.897   6.815  1.2937 -0.1752  0.1678
  669MOL0     O88177   1.729   7.913   5.538 -0.2255 -0.5879 -0.3394
  669MOL0     C88178   1.834   7.887   5.471  0.5791  0.4738  1.0331
  669MOL0     O88179   1.837   7.797   5.368 -0.4604 -0.1813 -0.0242
  669MOL0     C88180   1.731   7.709   5.348 -0.6639 -0.4549 -0.6189
  669MOL0     C88181   1.683   7.693   5.222  0.0863  0.0233  1.2674
  669MOL0     C88182   1.593   7.589   5.194  0.0075 -0.1828  0.9359
  669MOL0     C88183   1.541   7.509   5.299  0.2235 -0.1847 -0.1149
  669MOL0     O88184   1.447   7.409   5.272  0.0540 -0.1366 -0.0390
  669MOL0     C88185   1.488   7.277   5.321  0.1581  0.5808  1.1768
  669MOL0     C88186   1.410   7.171   5.247  0.5887  0.3758  0.5821
  669MOL0     C88187   1.410   7.035   5.326 -0.0567 -0.5164 -0.5755
  669MOL0     C88188   1.296   6.950   5.273  0.2511 -0.2636  0.2885
  669MOL0     C88189   1.318   6.891   5.136 -0.6620  0.3171  0.5435
  669MOL0     C88190   1.249   6.759   5.116  0.5972  0.3934 -0.2087
  669MOL0     C88191   1.098   6.770   5.166 -0.0412  0.3367 -0.2739
  669MOL0     C88192   1.012   6.650   5.143 -0.9366  0.5697  0.1059
  669MOL0     N88193   0.878   6.668   5.195  0.0286  0.5392 -0.1454
  669MOL0     C88194   0.773   6.750   5.147 -0.2750 -0.4615 -0.1920
  669MOL0     C88195   0.684   6.763   5.255  1.1699  0.2903 -0.3502
  669MOL0     C88196   0.564   6.836   5.279  0.7381 -0.1482  0.0589
  669MOL0     C88197   0.457   6.823   5.174  0.5248 -0.0672  0.0679
  669MOL0     C88198   0.343   6.916   5.214  0.2221 -0.4229  0.2476
  669MOL0     C88199   0.221   6.905   5.120 -0.0357 -0.1113  0.1616
  669MOL0     O88200   0.103   6.985   5.162  0.2152 -0.3834  0.1605
  669MOL0     C88201  -0.020   6.947   5.117 -0.7283  0.4186 -0.0971
  669MOL0     C88202  -0.123   7.017   5.182 -0.4679 -0.1555 -0.1185
  669MOL0     C88203  -0.251   6.990   5.150  0.5454  0.1800 -0.4148
  669MOL0     C88204  -0.295   6.901   5.053  0.0639  0.2609  0.1948
  669MOL0     C88205  -0.435   6.885   5.026  0.1862  0.4550 -1.0692
  669MOL0     O88206  -0.516   6.961   5.102 -0.1886  0.6920 -0.3236
  669MOL0     C88207  -0.651   6.939   5.089  0.1003 -0.2164 -0.4929
  669MOL0     C88208  -0.722   7.037   5.027 -0.1201 -0.2749  0.5527
  669MOL0     C88209  -0.860   7.018   4.993 -0.0230  0.5677  0.3575
  669MOL0     C88210  -0.935   6.913   5.050 -1.1074 -0.7437  0.8664
  669MOL0     O88211  -1.066   6.889   5.019 -0.3168  1.1199  0.4510
  669MOL0     C88212  -1.156   6.998   5.038  0.0464 -0.2843 -0.3077
  669MOL0     C88213  -1.302   6.951   5.039  0.1268  0.1325 -0.1365
  669MOL0     C88214  -1.353   6.904   4.904 -0.0484  0.0862  0.8372
  669MOL0     C88215  -1.375   7.026   4.819  0.7102  0.7031  0.4097
  669MOL0     C88216  -1.466   6.997   4.705 -1.0486 -1.5358  0.0667
  669MOL0     C88217  -1.406   6.890   4.611 -0.6640 -0.5394  0.1281
  669MOL0     C88218  -1.418   6.935   4.462  1.3461  1.0090 -0.2452
  669MOL0     C88219  -1.372   6.814   4.380  0.7749 -0.4140  0.0704
  669MOL0    Cl88220  -1.369   6.862   4.203 -0.2531 -0.5657 -0.3004
  669MOL0     C88221  -0.863   6.817   5.133 -1.0385 -0.0826  0.1026
  669MOL0     C88222  -0.721   6.830   5.134  0.2870  0.1610 -1.0556
  669MOL0     O88223  -0.468   6.813   4.933  0.1479 -0.1050 -0.0662
  669MOL0     C88224  -0.197   6.827   4.983  0.4246  0.1541 -0.0808
  669MOL0     C88225  -0.061   6.851   5.021  0.0858  0.8517  0.4601
  669MOL0     N88226   0.741   6.688   5.358  0.4787  0.1521 -0.3238
  669MOL0     N88227   0.848   6.629   5.315  0.8084  0.1650 -0.3953
  669MOL0     C88228   1.598   7.537   5.423 -0.0955 -0.2876 -0.1717
  669MOL0     C88229   1.690   7.632   5.452 -0.3522 -0.7038 -0.6784
  669MOL0     C88230   1.964   7.944   5.505  0.1272 -0.9257 -0.0304
  669MOL0     C88231   1.960   8.011   5.626 -0.1786  0.8872  0.9859
  669MOL0     C88232   2.069   8.082   5.671 -0.0398  0.1603  0.4538
  669MOL0     C88233   2.185   8.077   5.599 -0.2248 -0.0814  0.4526
  669MOL0     O88234   2.286   8.143   5.664 -0.1101 -0.4738 -0.3906
  669MOL0     C88235   2.422   8.143   5.620  0.1783 -0.2117  0.3127
  669MOL0     C88236   2.520   8.190   5.719 -0.5233 -0.6565 -0.1057
  669MOL0     C88237   2.660   8.191   5.671  0.8823  0.5624  0.0771
  669MOL0     C88238   2.756   8.262   5.764 -0.2377  0.2182 -0.0970
  669MOL0     C88239   2.754   8.208   5.903 -0.4154 -0.0176  0.7968
  669MOL0     C88240   2.719   8.161   6.009 -0.0822 -0.3031 -0.5242
  669MOL0     C88241   2.189   8.017   5.467  0.5565  0.4698  0.1342
  669MOL0     C88242   2.070   7.954   5.418 -0.0968 -0.1166  0.3251
  669MOL0     H88243   1.716   7.750   5.136 -0.6346 -1.1760  0.1528
  669MOL0     H88244   1.556   7.566   5.095  1.6891  1.0219 -0.0244
  669MOL0     H88245   1.458   7.272   5.427  1.4249  2.3924  1.6706
  669MOL0     H88246   1.596   7.277   5.309  0.2198 -1.0738  1.4933
  669MOL0     H88247   1.447   7.166   5.144  0.7767  0.7197  0.6324
  669MOL0     H88248   1.311   7.214   5.236  0.9319  0.7372 -1.6492
  669MOL0     H88249   1.389   7.051   5.432  2.8735 -2.4483  0.4268
  669MOL0     H88250   1.506   6.988   5.305  0.7068  0.9785 -0.5179
  669MOL0     H88251   1.286   6.865   5.340  2.8995 -1.2228 -0.3913
  669MOL0     H88252   1.203   7.007   5.265 -1.3859 -2.8256  0.2053
  669MOL0     H88253   1.425   6.880   5.114 -0.5367  2.2500  0.0218
  669MOL0     H88254   1.284   6.967   5.065  0.6826 -0.7698 -1.3433
  669MOL0     H88255   1.295   6.679   5.174 -0.9302  1.2436  2.3768
  669MOL0     H88256   1.254   6.737   5.009 -1.1744  1.8897 -0.6717
  669MOL0     H88257   1.096   6.791   5.273  0.9517 -0.4729 -0.0688
  669MOL0     H88258   1.049   6.844   5.103  0.5024  0.3322 -0.7205
  669MOL0     H88259   1.064   6.570   5.197  0.8569  3.6883  3.4774
  669MOL0     H88260   1.011   6.620   5.038 -1.5327  0.5082  0.1297
  669MOL0     H88261   0.774   6.805   5.054  0.4585 -1.6472 -0.9150
  669MOL0     H88262   0.590   6.942   5.285 -2.1861  0.6880 -0.3046
  669MOL0     H88263   0.530   6.814   5.381  1.7042 -1.0033  0.2070
  669MOL0     H88264   0.432   6.718   5.158  4.0578 -0.9244 -0.6344
  669MOL0     H88265   0.494   6.863   5.079  0.7098  1.3711  0.7242
  669MOL0     H88266   0.309   6.897   5.316 -1.4965 -2.1556 -0.5793
  669MOL0     H88267   0.390   7.012   5.195 -0.3100 -0.3306 -0.6296
  669MOL0     H88268   0.192   6.801   5.105 -1.4254  0.6530 -3.4669
  669MOL0     H88269   0.255   6.939   5.022 -0.8989  0.5598  0.0794
  669MOL0     H88270  -0.117   7.093   5.259 -2.7556  0.4348 -0.4328
  669MOL0     H88271  -0.317   7.054   5.208  1.8750  1.3743 -0.1524
  669MOL0     H88272  -0.675   7.132   5.003 -1.3818  0.7141  1.8107
  669MOL0     H88273  -0.909   7.091   4.930  1.8720  1.7247  0.1290
  669MOL0     H88274  -1.141   7.072   4.958  3.6181 -1.2527 -0.7254
  669MOL0     H88275  -1.122   7.067   5.116  1.9532  4.4469 -4.7038
  669MOL0     H88276  -1.367   7.025   5.088  0.0180 -0.4725  0.6616
  669MOL0     H88277  -1.298   6.859   5.098 -1.5758  1.1524  1.7319
  669MOL0     H88278  -1.446   6.852   4.925  0.5988 -0.8803  1.3815
  669MOL0     H88279  -1.276   6.845   4.852 -1.7302 -1.0672 -0.4360
  669MOL0     H88280  -1.424   7.104   4.878 -1.6837  0.4830 -1.1647
  669MOL0     H88281  -1.280   7.065   4.781  1.4605 -0.3128  1.1728
  669MOL0     H88282  -1.484   7.089   4.649 -0.7310 -1.1180  0.6301
  669MOL0     H88283  -1.564   6.968   4.745 -0.5427 -0.6365  2.1208
  669MOL0     H88284  -1.462   6.797   4.626 -1.1323 -0.0616  1.4371
  669MOL0     H88285  -1.302   6.867   4.636 -1.2547 -3.6565  0.1621
  669MOL0     H88286  -1.521   6.954   4.433  1.8017 -1.0315 -3.8507
  669MOL0     H88287  -1.360   7.028   4.452 -1.3658  3.0215  1.4854
  669MOL0     H88288  -1.437   6.730   4.408 -1.8383  1.4130 -0.1637
  669MOL0     H88289  -1.270   6.781   4.403  1.0208 -1.5503 -2.2647
  669MOL0     H88290  -0.909   6.727   5.173  0.9766 -0.2321  2.3380
  669MOL0     H88291  -0.662   6.769   5.201 -0.9862  1.1353  1.0653
  669MOL0     H88292  -0.221   6.764   4.898 -0.1894  0.1749  0.0714
  669MOL0     H88293   0.026   6.815   4.967  0.2138  2.1243 -0.2294
  669MOL0     H88294   1.557   7.487   5.510 -2.9543  2.5304  0.2557
  669MOL0     H88295   1.721   7.654   5.554  0.7867  2.4878 -1.5892
  669MOL0     H88296   1.872   8.009   5.689 -2.0691  2.6931 -1.4387
  669MOL0     H88297   2.066   8.114   5.774 -1.5158 -0.8784  0.7634
  669MOL0     H88298   2.429   8.200   5.527 -0.5451  1.1643  1.0731
  669MOL0     H88299   2.450   8.038   5.601  0.3429 -0.6291  2.5923
  669MOL0     H88300   2.494   8.287   5.762  1.3591 -0.1557 -0.0133
  669MOL0     H88301   2.513   8.116   5.800  3.3346  0.9552  1.9700
  669MOL0     H88302   2.660   8.231   5.569 -2.3538 -0.8954 -0.6158
  669MOL0     H88303   2.701   8.090   5.664  0.4761  0.3262  0.9734
  669MOL0     H88304   2.851   8.256   5.710  0.7308  0.4822  1.5301
  669MOL0     H88305   2.725   8.366   5.773 -0.0228  0.4775 -1.9678
  669MOL0     H88306   2.686   8.113   6.098 -0.4909 -0.7104 -0.8892
  669MOL0     H88307   2.282   8.005   5.412  0.6211 -1.1939  0.5468
  669MOL0     H88308   2.075   7.919   5.315  2.0595 -2.4807  1.1438
  670MOL0     O88309   7.600   8.013   7.733  0.0951 -0.1603  0.1826
  670MOL0     C88310   7.671   8.000   7.632  0.3438 -0.1285  0.6492
  670MOL0     O88311   7.628   7.966   7.506 -0.0037 -0.2126  0.8229
  670MOL0     C88312   7.502   7.908   7.478 -0.1334  0.3905 -0.1454
  670MOL0     C88313   7.492   7.814   7.372 -0.5080  0.1965 -0.0045
  670MOL0     C88314   7.368   7.759   7.348  0.4337 -0.4244 -0.8653
  670MOL0     C88315   7.253   7.785   7.435  0.1917  0.6648 -0.1876
  670MOL0     O88316   7.136   7.721   7.397 -0.6156 -0.5379  0.0789
  670MOL0     C88317   7.020   7.787   7.436  0.4976 -0.3784 -0.4881
  670MOL0     C88318   6.917   7.733   7.338 -0.0613  0.0683  0.0971
  670MOL0     C88319   6.789   7.813   7.334  1.1183 -0.1928  0.8411
  670MOL0     C88320   6.700   7.796   7.461 -0.2231 -0.7190  0.7112
  670MOL0     C88321   6.564   7.878   7.463  0.5553  0.9530 -0.4181
  670MOL0     C88322   6.563   8.018   7.403 -0.2449  0.5955 -0.3412
  670MOL0     C88323   6.426   8.082   7.441  0.6647 -0.4090  1.1122
  670MOL0     C88324   6.411   8.210   7.349 -0.2383  0.0417 -0.2912
  670MOL0     N88325   6.295   8.284   7.402  0.3898  0.4081 -0.0787
  670MOL0     C88326   6.175   8.238   7.436 -0.3381 -0.4682 -0.0019
  670MOL0     C88327   6.108   8.350   7.466 -0.7661 -0.8946  0.1974
  670MOL0     C88328   5.966   8.353   7.517  0.5138  0.0566 -0.0554
  670MOL0     C88329   5.861   8.356   7.400 -0.9370  0.3417  0.1969
  670MOL0     C88330   5.876   8.492   7.337 -0.2220  0.6750 -0.0901
  670MOL0     C88331   5.774   8.519   7.226  0.6861 -0.2799 -0.0942
  670MOL0     O88332   5.656   8.545   7.302 -0.2565 -0.3689 -0.0090
  670MOL0     C88333   5.543   8.572   7.231  0.4179 -0.3355 -1.2517
  670MOL0     C88334   5.533   8.690   7.148 -0.1006  0.3169  0.4023
  670MOL0     C88335   5.418   8.717   7.077  0.2224 -0.0480  0.0314
  670MOL0     C88336   5.305   8.629   7.095 -0.6484 -0.4602 -1.4634
  670MOL0     C88337   5.177   8.663   7.033 -0.2081  0.7661 -0.0287
  670MOL0     O88338   5.058   8.580   7.063  0.0892 -0.0664  0.6191
  670MOL0     C88339   4.941   8.616   6.993 -0.5336  0.1569 -0.2257
  670MOL0     C88340   4.934   8.594   6.852  0.2971  0.3080 -0.0597
  670MOL0     C88341   4.816   8.616   6.791 -0.3501 -0.3185 -0.7963
  670MOL0     C88342   4.696   8.652   6.860  0.9942 -0.1107 -0.4762
  670MOL0     O88343   4.575   8.653   6.806  0.5756  0.3185 -0.8338
  670MOL0     C88344   4.534   8.538   6.731 -0.7162  0.0197 -0.9160
  670MOL0     C88345   4.432   8.450   6.801 -0.3352  0.6992 -0.5379
  670MOL0     C88346   4.306   8.529   6.854 -0.2448 -0.0932  1.0155
  670MOL0     C88347   4.197   8.427   6.894  0.9828  0.3411 -0.0053
  670MOL0     C88348   4.075   8.491   6.966 -0.0072 -0.9490  0.0404
  670MOL0     C88349   3.962   8.389   6.988  0.6240  0.3075  0.7766
  670MOL0     C88350   3.824   8.455   6.967 -0.2319 -0.4062  0.7659
  670MOL0     C88351   3.826   8.587   7.046  0.9607 -0.2136  0.2998
  670MOL0    Cl88352   3.660   8.607   7.108 -0.0415 -0.2199 -0.0751
  670MOL0     C88353   4.703   8.657   7.004 -0.7919 -0.3124 -0.8572
  670MOL0     C88354   4.823   8.652   7.064  0.7028  0.4020  1.0521
  670MOL0     O88355   5.180   8.748   6.945  0.7295  0.0457  0.5835
  670MOL0     C88356   5.316   8.527   7.189  0.3826 -0.0315 -0.8889
  670MOL0     C88357   5.433   8.497   7.254  0.3408  0.1667  0.2635
  670MOL0     N88358   6.181   8.469   7.452  0.2294 -0.3634  0.5649
  670MOL0     N88359   6.292   8.419   7.410  0.1834  0.1382 -0.8540
  670MOL0     C88360   7.268   7.879   7.538 -0.8342  0.5616  0.2918
  670MOL0     C88361   7.391   7.941   7.561  0.0675 -0.2164  0.1537
  670MOL0     C88362   7.825   8.011   7.653  0.3645  0.1816 -0.1503
  670MOL0     C88363   7.871   8.017   7.783  0.2027  0.2041 -0.3758
  670MOL0     C88364   8.012   8.029   7.799  0.9004 -0.0807  0.7965
  670MOL0     C88365   8.102   8.037   7.692  0.4060  0.0207 -0.7453
  670MOL0     O88366   8.238   8.036   7.709  0.7622 -0.7590  0.4555
  670MOL0     C88367   8.294   8.103   7.818 -0.1126 -0.8659  0.1238
  670MOL0     C88368   8.449   8.120   7.791  1.1796 -0.0677 -1.0326
  670MOL0     C88369   8.510   7.988   7.744  0.0520  0.3704 -0.1204
  670MOL0     C88370   8.644   8.003   7.685  0.6799  0.5030  0.7718
  670MOL0     C88371   8.630   8.045   7.543 -0.4938  0.2236 -0.3517
  670MOL0     C88372   8.621   8.071   7.423 -0.9101 -0.4836  0.0077
  670MOL0     C88373   8.053   8.014   7.568 -0.7851 -0.2164  1.6982
  670MOL0     C88374   7.912   8.002   7.547  0.6740 -0.1992  0.5237
  670MOL0     H88375   7.578   7.771   7.321 -1.2102  0.7255 -1.7061
  670MOL0     H88376   7.351   7.686   7.270 -2.8439 -0.6203 -0.1200
  670MOL0     H88377   7.012   7.896   7.425 -1.2498 -0.3129  1.0341
  670MOL0     H88378   6.983   7.765   7.537 -2.7594  0.8745 -1.2799
  670MOL0     H88379   6.905   7.626   7.352 -1.3548  0.0753 -0.8515
  670MOL0     H88380   6.961   7.756   7.240  0.1768  0.3177  0.2597
  670MOL0     H88381   6.729   7.766   7.256  1.1189  1.0772  0.0502
  670MOL0     H88382   6.811   7.917   7.307 -0.5934  0.3703  1.4926
  670MOL0     H88383   6.675   7.691   7.480  3.6235 -1.5664  1.9465
  670MOL0     H88384   6.756   7.827   7.550 -0.6657  0.5295  0.5814
  670MOL0     H88385   6.543   7.886   7.570 -0.5203  1.8727 -0.6722
  670MOL0     H88386   6.490   7.820   7.405  3.4760 -0.7757 -2.7080
  670MOL0     H88387   6.580   8.010   7.295  1.3002  2.3382 -0.2829
  670MOL0     H88388   6.652   8.071   7.438  1.4837 -3.3707  1.9080
  670MOL0     H88389   6.343   8.016   7.416 -0.5142  0.6803  1.9991
  670MOL0     H88390   6.427   8.103   7.548  0.2817  0.3004  0.9781
  670MOL0     H88391   6.387   8.186   7.245 -3.1095  3.2062 -0.5583
  670MOL0     H88392   6.500   8.273   7.341  0.4393 -0.8105  0.3819
  670MOL0     H88393   6.138   8.136   7.447 -0.8031 -0.2776  0.2497
  670MOL0     H88394   5.955   8.429   7.595  0.2460 -0.3247  0.2810
  670MOL0     H88395   5.954   8.264   7.579  2.2196  0.8083  1.4290
  670MOL0     H88396   5.763   8.338   7.444 -0.1995 -1.3126  1.2884
  670MOL0     H88397   5.882   8.279   7.326 -1.2186  0.9537 -0.5287
  670MOL0     H88398   5.877   8.563   7.420 -0.0131  1.7250 -0.9680
  670MOL0     H88399   5.970   8.487   7.280 -0.0833  1.2170  0.0887
  670MOL0     H88400   5.771   8.433   7.159  0.4275 -1.0487  0.8677
  670MOL0     H88401   5.810   8.598   7.160 -1.3899  1.2058  0.4558
  670MOL0     H88402   5.622   8.751   7.149  1.7430 -2.2125  0.8349
  670MOL0     H88403   5.407   8.804   7.013 -1.6572 -0.4938 -0.3147
  670MOL0     H88404   5.007   8.532   6.802 -1.0969 -1.6685  0.2133
  670MOL0     H88405   4.799   8.597   6.685 -3.4449 -0.2551 -0.4110
  670MOL0     H88406   4.616   8.468   6.712  0.7202  1.6231 -0.9552
  670MOL0     H88407   4.499   8.565   6.630 -0.8716 -3.2744 -1.8556
  670MOL0     H88408   4.488   8.392   6.876  3.7439  3.6042 -0.9943
  670MOL0     H88409   4.393   8.371   6.736 -0.2773 -1.0635  1.4578
  670MOL0     H88410   4.268   8.580   6.764 -0.0497 -0.3815  0.7689
  670MOL0     H88411   4.324   8.605   6.931 -1.0393 -0.4721  1.5894
  670MOL0     H88412   4.166   8.382   6.800  0.7947 -0.0411  0.2345
  670MOL0     H88413   4.232   8.356   6.970 -0.3068  1.9292  2.2000
  670MOL0     H88414   4.053   8.574   6.898 -0.0981 -0.2817  0.8717
  670MOL0     H88415   4.111   8.537   7.058 -0.5473 -1.0563  0.3078
  670MOL0     H88416   3.955   8.360   7.093 -0.2091  1.4457  1.0505
  670MOL0     H88417   3.969   8.304   6.920 -2.8851 -0.6610  1.4481
  670MOL0     H88418   3.802   8.468   6.860 -0.3888  0.1763  0.8631
  670MOL0     H88419   3.752   8.385   7.009  1.3004 -1.4285  1.7616
  670MOL0     H88420   3.867   8.673   6.994  0.9071  0.5756  1.5374
  670MOL0     H88421   3.877   8.572   7.141  2.1444 -0.0023 -0.2865
  670MOL0     H88422   4.611   8.671   7.061 -1.9794 -1.1226 -2.4872
  670MOL0     H88423   4.815   8.655   7.172 -0.1125 -0.9870  1.0479
  670MOL0     H88424   5.227   8.470   7.215  1.2386 -1.2019 -0.4189
  670MOL0     H88425   5.441   8.413   7.322  2.0284 -0.3644 -0.5414
  670MOL0     H88426   7.182   7.901   7.600 -1.1570  0.6942 -0.2062
  670MOL0     H88427   7.391   8.018   7.636 -0.7415  1.2521 -1.2891
  670MOL0     H88428   7.805   7.998   7.867 -0.7334 -0.9720 -1.3420
  670MOL0     H88429   8.057   8.032   7.898  0.0090  2.3040  1.2102
  670MOL0     H88430   8.292   8.035   7.904  2.3490  1.3854  2.1310
  670MOL0     H88431   8.241   8.197   7.838  1.0366 -0.3063  0.6252
  670MOL0     H88432   8.468   8.202   7.721 -0.1432  1.8539  0.7317
  670MOL0     H88433   8.489   8.155   7.886  1.6046 -0.2753 -1.1359
  670MOL0     H88434   8.451   7.932   7.672 -1.4557  0.3137  1.1100
  670MOL0     H88435   8.514   7.919   7.829  3.8038 -1.2989 -1.4137
  670MOL0     H88436   8.689   8.087   7.740  0.6574  0.7361  0.4393
  670MOL0     H88437   8.697   7.910   7.705  0.4610 -0.1517 -1.4714
  670MOL0     H88438   8.602   8.100   7.322  1.5590  0.8446 -0.1555
  670MOL0     H88439   8.128   8.006   7.491 -1.2627  0.8892  1.0977
  670MOL0     H88440   7.879   7.979   7.446  0.6140 -2.1430  0.9397
  671MOL0     O88441   7.817   0.200   3.976  0.3794 -0.1646  0.1002
  671MOL0     C88442   7.846   0.312   3.938  0.0773 -0.3017 -0.0738
  671MOL0     O88443   7.763   0.419   3.940  0.0239  0.8435 -0.4258
  671MOL0     C88444   7.627   0.393   3.958  0.6274 -0.8165  0.0792
  671MOL0     C88445   7.564   0.388   4.082  0.3459  0.4351  0.1811
  671MOL0     C88446   7.428   0.372   4.094  0.4454 -0.5539  0.5957
  671MOL0     C88447   7.347   0.348   3.978 -0.3806  0.4042  0.5004
  671MOL0     O88448   7.210   0.341   3.984  0.5883  0.0842  0.2352
  671MOL0     C88449   7.139   0.243   3.913 -0.5197  0.5157 -0.8684
  671MOL0     C88450   6.989   0.281   3.898  0.4335  0.4793  0.6617
  671MOL0     C88451   6.919   0.310   4.029  0.1010  0.4254  0.5838
  671MOL0     C88452   6.768   0.332   4.005 -0.1502  0.5793 -0.2216
  671MOL0     C88453   6.673   0.210   4.006 -0.6429  0.7585  0.3695
  671MOL0     C88454   6.537   0.249   4.045  0.5828  0.3435 -0.2832
  671MOL0     C88455   6.432   0.137   4.004  0.1164  0.0358  0.4740
  671MOL0     C88456   6.428   0.088   3.856 -0.5289 -0.4902 -0.2922
  671MOL0     N88457   6.295   0.036   3.816 -0.2047  1.2234  0.5901
  671MOL0     C88458   6.225   0.057   3.700 -0.3918 -0.2310  0.5521
  671MOL0     C88459   6.110  -0.015   3.712  0.3322 -0.3971  0.1366
  671MOL0     C88460   5.987  -0.011   3.626 -0.4978  0.5304 -0.0890
  671MOL0     C88461   5.874   0.055   3.702 -0.0917 -0.1616 -0.4082
  671MOL0     C88462   5.745   0.058   3.621  0.0239 -0.9794 -0.6219
  671MOL0     C88463   5.661  -0.067   3.653 -0.0147  0.3245 -0.0457
  671MOL0     O88464   5.589  -0.098   3.531  0.0339  0.3674 -0.4120
  671MOL0     C88465   5.479  -0.171   3.526  0.6558  0.4241 -0.5406
  671MOL0     C88466   5.428  -0.236   3.640  1.0110 -0.1374  0.1598
  671MOL0     C88467   5.306  -0.305   3.638 -1.1900  0.1774 -0.0803
  671MOL0     C88468   5.230  -0.314   3.521 -0.0378 -1.1993  0.1939
  671MOL0     C88469   5.099  -0.386   3.531  0.1319 -1.0288 -0.2097
  671MOL0     O88470   5.027  -0.383   3.423 -0.4609  0.3770  0.3333
  671MOL0     C88471   4.902  -0.442   3.420 -0.6444 -0.9513 -0.2191
  671MOL0     C88472   4.797  -0.361   3.366  0.0351  0.0370 -0.7996
  671MOL0     C88473   4.665  -0.398   3.383 -0.4651 -0.4471  0.5161
  671MOL0     C88474   4.631  -0.506   3.461 -0.4031  0.1950 -1.3209
  671MOL0     O88475   4.501  -0.535   3.476  0.3206 -0.4468  0.3789
  671MOL0     C88476   4.458  -0.639   3.570 -0.1197 -0.9431 -0.5145
  671MOL0     C88477   4.302  -0.654   3.567  1.1033  0.4070 -0.2150
  671MOL0     C88478   4.233  -0.691   3.431 -0.7859 -0.3064  0.2075
  671MOL0     C88479   4.077  -0.672   3.444 -0.3155  0.0537 -0.9134
  671MOL0     C88480   3.998  -0.667   3.313 -0.2318 -0.5043  0.3320
  671MOL0     C88481   3.857  -0.604   3.330  0.6107  0.3411  0.7649
  671MOL0     C88482   3.761  -0.686   3.432  0.0013  0.1756  0.9564
  671MOL0     C88483   3.711  -0.815   3.362 -0.1899  0.3696 -0.0363
  671MOL0    Cl88484   3.562  -0.863   3.458 -0.7283  0.5893 -0.1123
  671MOL0     C88485   4.729  -0.588   3.508  0.2774  0.2718  0.7413
  671MOL0     C88486   4.867  -0.564   3.482 -0.4734  0.3676  0.7712
  671MOL0     O88487   5.066  -0.443   3.636  0.0131 -0.4902  0.2692
  671MOL0     C88488   5.286  -0.258   3.405  0.3690 -0.1156 -0.2746
  671MOL0     C88489   5.410  -0.196   3.408  0.3707  0.2977  0.6933
  671MOL0     N88490   6.129  -0.099   3.817 -0.1645  0.5690 -0.4688
  671MOL0     N88491   6.234  -0.067   3.874 -0.1855  0.3030 -0.0002
  671MOL0     C88492   7.409   0.355   3.854  0.9119  0.1281 -0.2589
  671MOL0     C88493   7.544   0.387   3.844 -0.9085 -0.1138 -0.5661
  671MOL0     C88494   7.988   0.348   3.909  0.3134 -0.4290  0.4660
  671MOL0     C88495   8.094   0.272   3.969  0.0128 -0.0222  0.0726
  671MOL0     C88496   8.230   0.308   3.960  1.0661  0.0652 -0.2430
  671MOL0     C88497   8.266   0.426   3.897 -0.5011 -1.1621  0.2600
  671MOL0     O88498   8.399   0.455   3.892  0.5138  0.5125 -0.6958
  671MOL0     C88499   8.437   0.559   3.796  0.1771  0.0317 -0.0637
  671MOL0     C88500   8.588   0.585   3.818  0.7572  0.2825  0.0683
  671MOL0     C88501   8.631   0.597   3.964 -0.5933 -0.8066 -0.1856
  671MOL0     C88502   8.580   0.720   4.043  0.4785  1.0054  0.3464
  671MOL0     C88503   8.624   0.702   4.184  0.3587  0.6076 -0.3109
  671MOL0     C88504   8.637   0.656   4.300 -0.4259  0.4908 -0.0016
  671MOL0     C88505   8.161   0.504   3.839  0.4634  0.3456 -0.5447
  671MOL0     C88506   8.029   0.471   3.844  0.8291  0.4951 -0.0027
  671MOL0     H88507   7.628   0.414   4.165 -0.4827 -1.3178  1.4279
  671MOL0     H88508   7.377   0.370   4.190 -1.2089 -1.9692 -0.2514
  671MOL0     H88509   7.139   0.157   3.981  2.0394 -0.4453 -1.9781
  671MOL0     H88510   7.185   0.216   3.818  0.3154 -1.1323 -0.0460
  671MOL0     H88511   6.946   0.190   3.857  1.5719  1.1460 -2.2319
  671MOL0     H88512   6.964   0.359   3.825 -3.1808  0.2069  1.3961
  671MOL0     H88513   6.952   0.398   4.085 -0.5748  1.9876 -1.3420
  671MOL0     H88514   6.945   0.223   4.089  0.5593 -1.7413 -2.5380
  671MOL0     H88515   6.742   0.401   4.085 -1.1846 -0.9414  0.8026
  671MOL0     H88516   6.768   0.391   3.913 -0.5306  0.1214 -0.5223
  671MOL0     H88517   6.702   0.132   4.077  1.2840  0.1978 -0.9472
  671MOL0     H88518   6.676   0.156   3.911 -0.1588 -2.5211  2.0808
  671MOL0     H88519   6.489   0.340   4.008  0.8145  0.9935  0.9575
  671MOL0     H88520   6.547   0.259   4.154 -1.1692  2.6235 -0.2652
  671MOL0     H88521   6.453   0.043   4.056  0.0509  1.0515  2.4158
  671MOL0     H88522   6.329   0.159   4.034  0.0272 -1.5620  1.4634
  671MOL0     H88523   6.509   0.015   3.842 -0.6888 -0.5957 -0.7126
  671MOL0     H88524   6.439   0.184   3.805 -0.7369  0.3391  1.1844
  671MOL0     H88525   6.246   0.134   3.627  1.5015 -3.0723 -2.1881
  671MOL0     H88526   5.969  -0.112   3.587 -0.2665  0.4575 -0.0054
  671MOL0     H88527   5.991   0.055   3.540 -0.0003 -0.7315 -1.0747
  671MOL0     H88528   5.900   0.159   3.727  2.6304 -0.6573 -0.8555
  671MOL0     H88529   5.858   0.004   3.798 -1.7526 -0.1008 -0.6270
  671MOL0     H88530   5.692   0.149   3.650  1.2858 -0.3977 -0.0601
  671MOL0     H88531   5.767   0.056   3.514  1.0561 -2.4592 -0.4044
  671MOL0     H88532   5.605  -0.034   3.741  2.9261  5.6677  0.2339
  671MOL0     H88533   5.727  -0.151   3.678  1.2599  1.5901  1.0065
  671MOL0     H88534   5.484  -0.242   3.733  1.8022  0.1141 -0.2932
  671MOL0     H88535   5.267  -0.351   3.728  0.0542 -0.0679  0.3519
  671MOL0     H88536   4.826  -0.270   3.314  0.5028  1.8543  2.4100
  671MOL0     H88537   4.587  -0.329   3.351 -0.1653  0.3045  1.3346
  671MOL0     H88538   4.488  -0.608   3.670  0.0646 -0.5693 -0.6826
  671MOL0     H88539   4.516  -0.730   3.553 -0.1017 -0.6103 -2.4297
  671MOL0     H88540   4.260  -0.561   3.607  2.8202 -0.1092  3.0969
  671MOL0     H88541   4.279  -0.732   3.640  3.3358 -0.2907 -0.1613
  671MOL0     H88542   4.275  -0.788   3.403  1.0881  0.3340  0.6847
  671MOL0     H88543   4.263  -0.612   3.360  0.7255  1.4970  2.7060
  671MOL0     H88544   4.040  -0.758   3.500 -1.2090 -1.3809 -3.5482
  671MOL0     H88545   4.055  -0.583   3.504 -2.5552  0.1803 -1.8286
  671MOL0     H88546   3.980  -0.762   3.261  2.1033  0.4491 -2.4860
  671MOL0     H88547   4.055  -0.606   3.243 -0.0226 -2.8293 -1.6369
  671MOL0     H88548   3.801  -0.612   3.236  0.1512  4.0021  0.5769
  671MOL0     H88549   3.871  -0.498   3.351 -1.9448  0.8773  0.1387
  671MOL0     H88550   3.811  -0.718   3.524 -1.5282 -1.7426  1.1794
  671MOL0     H88551   3.670  -0.634   3.463 -2.0101 -2.6387  0.2154
  671MOL0     H88552   3.794  -0.886   3.369  0.7174  1.4580  0.7556
  671MOL0     H88553   3.695  -0.791   3.257 -1.1960  1.9641  0.4461
  671MOL0     H88554   4.704  -0.681   3.559  1.1888 -0.4662 -0.1044
  671MOL0     H88555   4.949  -0.626   3.517  0.1159  0.9591  0.4768
  671MOL0     H88556   5.229  -0.264   3.313  0.9085  1.1498 -0.7201
  671MOL0     H88557   5.445  -0.167   3.309  1.2389  0.1099  0.9335
  671MOL0     H88558   7.353   0.352   3.761 -0.6993 -3.0177  0.6589
  671MOL0     H88559   7.590   0.383   3.746  0.8092 -0.9856  0.2232
  671MOL0     H88560   8.076   0.177   4.019  0.0885  0.1636  0.4613
  671MOL0     H88561   8.303   0.243   4.009  0.4745 -3.1322 -3.2304
  671MOL0     H88562   8.385   0.652   3.822  1.4224  1.7530 -3.1928
  671MOL0     H88563   8.425   0.540   3.689 -0.5109  1.6609 -0.3149
  671MOL0     H88564   8.645   0.505   3.770  0.4585  0.4946 -0.6438
  671MOL0     H88565   8.627   0.669   3.760  0.2947  1.3765  1.2986
  671MOL0     H88566   8.739   0.608   3.970 -0.5174  1.7935 -3.4454
  671MOL0     H88567   8.606   0.507   4.020  1.4346 -0.3263  1.6152
  671MOL0     H88568   8.618   0.814   4.003 -2.2327  3.2779  2.7083
  671MOL0     H88569   8.471   0.707   4.044  0.5346  0.4867  0.4336
  671MOL0     H88570   8.664   0.635   4.401  3.8264 -0.3829 -1.1234
  671MOL0     H88571   8.189   0.597   3.791  0.7370  1.5945  1.9016
  671MOL0     H88572   7.957   0.547   3.814  0.7632 -0.0852 -1.4273
  672MOL0     O88573   4.006   4.729   0.619 -0.1978  0.1469 -0.2070
  672MOL0     C88574   4.095   4.681   0.696  0.2552 -0.3984 -0.2057
  672MOL0     O88575   4.081   4.573   0.776 -0.0979  0.1690 -0.0394
  672MOL0     C88576   3.963   4.506   0.787 -0.0361 -0.7030  0.5411
  672MOL0     C88577   3.919   4.474   0.915 -0.8763  0.9619 -0.4716
  672MOL0     C88578   3.805   4.390   0.927 -1.1212  0.5609  0.2781
  672MOL0     C88579   3.733   4.337   0.819 -0.1329  0.1847  0.2274
  672MOL0     O88580   3.624   4.255   0.841 -0.0129 -0.4030  0.3067
  672MOL0     C88581   3.615   4.136   0.757  0.1987 -0.5121  0.2674
  672MOL0     C88582   3.528   4.028   0.804  0.1523  0.2815  0.4997
  672MOL0     C88583   3.390   4.079   0.829 -0.1524  0.0017  0.3483
  672MOL0     C88584   3.278   3.967   0.804 -1.1614 -0.2073  0.5053
  672MOL0     C88585   3.142   4.003   0.856  0.1338 -0.2582 -0.2181
  672MOL0     C88586   3.043   3.887   0.834 -0.9719 -0.7171  0.0100
  672MOL0     C88587   2.900   3.911   0.878  0.1552 -0.5907  0.2841
  672MOL0     C88588   2.818   3.791   0.934  0.3044  0.1740  0.1414
  672MOL0     N88589   2.686   3.836   0.986 -0.2687 -1.3142  0.1769
  672MOL0     C88590   2.659   3.875   1.118 -0.1642  0.3616 -0.2660
  672MOL0     C88591   2.528   3.899   1.130 -0.1880 -0.2381  0.1882
  672MOL0     C88592   2.453   3.935   1.257  0.9851  0.0711 -0.2939
  672MOL0     C88593   2.303   3.901   1.265 -0.7970 -0.4644 -0.2220
  672MOL0     C88594   2.222   3.973   1.155  0.6950  0.4127 -0.8714
  672MOL0     C88595   2.075   3.935   1.180  0.4631  0.5974  0.5701
  672MOL0     O88596   2.039   4.006   1.292 -1.2896 -0.1733 -0.2167
  672MOL0     C88597   1.917   4.027   1.331  0.6345 -0.7102  0.4239
  672MOL0     C88598   1.811   3.954   1.282 -0.9105  0.0574 -0.0696
  672MOL0     C88599   1.693   3.947   1.359 -0.3017  0.3991 -0.4819
  672MOL0     C88600   1.676   4.038   1.468  0.4310  0.5297 -0.6669
  672MOL0     C88601   1.544   4.042   1.536  0.4059 -0.1720  0.1603
  672MOL0     O88602   1.519   4.156   1.612  0.5374  0.3932 -0.1682
  672MOL0     C88603   1.396   4.159   1.687 -0.3335 -0.9392 -0.3863
  672MOL0     C88604   1.398   4.203   1.825  0.0689 -0.3651  0.0926
  672MOL0     C88605   1.277   4.216   1.897  0.6644 -0.8276 -0.5678
  672MOL0     C88606   1.152   4.200   1.842  0.2747  0.6892 -0.3840
  672MOL0     O88607   1.037   4.225   1.908 -0.0844 -0.4613 -0.8200
  672MOL0     C88608   1.038   4.203   2.048 -0.0663  0.3066 -0.4591
  672MOL0     C88609   1.029   4.338   2.127  0.1288  0.4168  0.3720
  672MOL0     C88610   0.934   4.330   2.245 -0.0885  1.2134 -0.0272
  672MOL0     C88611   0.793   4.288   2.197  0.1888 -0.6470 -0.5079
  672MOL0     C88612   0.686   4.367   2.289 -0.7775 -0.0310 -0.3022
  672MOL0     C88613   0.543   4.331   2.240  0.3481  0.1354  0.8076
  672MOL0     C88614   0.443   4.352   2.346  0.2458 -0.0609 -0.1819
  672MOL0     C88615   0.372   4.492   2.356 -0.3597 -0.3955  0.6992
  672MOL0    Cl88616   0.261   4.539   2.218 -0.2836 -0.5203 -0.0490
  672MOL0     C88617   1.153   4.149   1.715  0.0216  0.0559  0.6434
  672MOL0     C88618   1.267   4.120   1.631 -0.9940 -0.8129 -0.7086
  672MOL0     O88619   1.472   3.938   1.529  0.3550 -0.2791  0.4479
  672MOL0     C88620   1.780   4.125   1.509 -0.5075 -0.7544  1.3176
  672MOL0     C88621   1.904   4.113   1.439 -0.3401 -0.3293  0.2047
  672MOL0     N88622   2.480   3.881   1.004  0.0908 -0.1343 -0.1117
  672MOL0     N88623   2.568   3.851   0.918  0.0043 -0.2362  0.6465
  672MOL0     C88624   3.779   4.373   0.694 -0.5100  0.5454  1.6911
  672MOL0     C88625   3.889   4.464   0.682 -0.7934  0.6068  0.2268
  672MOL0     C88626   4.227   4.762   0.702 -0.2425  0.3451 -0.4705
  672MOL0     C88627   4.249   4.888   0.632 -0.0200  0.1526  0.4463
  672MOL0     C88628   4.382   4.942   0.614  0.0860  0.3434  0.4749
  672MOL0     C88629   4.479   4.882   0.696 -0.1644  0.5676  0.0793
  672MOL0     O88630   4.599   4.956   0.724  0.6858  0.4692  0.2081
  672MOL0     C88631   4.705   4.907   0.809  0.0752  0.9520  0.0103
  672MOL0     C88632   4.668   4.927   0.951  0.4756  0.0898  0.0402
  672MOL0     C88633   4.736   5.056   1.000 -0.1442  0.4085 -0.3675
  672MOL0     C88634   4.713   5.076   1.160  0.7603  0.3557 -0.4749
  672MOL0     C88635   4.591   5.154   1.190  1.6187  0.4342  0.2532
  672MOL0     C88636   4.490   5.219   1.218 -0.0719  0.0170  0.5330
  672MOL0     C88637   4.450   4.765   0.781 -0.3822  0.5833 -0.8112
  672MOL0     C88638   4.329   4.703   0.779  0.4961  0.7539  0.9352
  672MOL0     H88639   3.981   4.506   0.999  0.8687  0.1578 -1.4149
  672MOL0     H88640   3.769   4.356   1.024  3.2696 -1.8178  1.3391
  672MOL0     H88641   3.711   4.088   0.738 -0.5173 -3.0525  2.4020
  672MOL0     H88642   3.566   4.161   0.662 -0.5282 -1.0485  0.4859
  672MOL0     H88643   3.575   3.985   0.893  2.1158  0.4261 -0.4043
  672MOL0     H88644   3.526   3.939   0.740  0.9188 -1.4596  2.7801
  672MOL0     H88645   3.364   4.165   0.767  0.0193 -1.1080 -1.2995
  672MOL0     H88646   3.394   4.100   0.937  1.5675 -2.4436  0.8398
  672MOL0     H88647   3.267   3.945   0.697  0.8499  2.0718 -0.2773
  672MOL0     H88648   3.311   3.869   0.838 -1.5400 -1.6421 -2.8754
  672MOL0     H88649   3.115   4.097   0.805 -2.5766 -0.6495  0.3440
  672MOL0     H88650   3.160   4.011   0.963 -2.4772  1.1345  0.2112
  672MOL0     H88651   3.088   3.802   0.886  0.7654 -1.1648 -2.0597
  672MOL0     H88652   3.048   3.864   0.727  1.5703 -3.1063  0.5586
  672MOL0     H88653   2.907   3.980   0.963  0.9342 -2.3313  1.6931
  672MOL0     H88654   2.833   3.961   0.808 -0.9075 -0.0375  1.6436
  672MOL0     H88655   2.877   3.752   1.016 -1.0421  3.7697  3.1057
  672MOL0     H88656   2.804   3.715   0.857  1.4887 -2.6176  2.5292
  672MOL0     H88657   2.716   3.878   1.211 -1.9464 -2.8981  1.1088
  672MOL0     H88658   2.473   4.041   1.278 -2.9404  0.7061  1.0575
  672MOL0     H88659   2.501   3.872   1.332  2.4181  0.3972 -0.9036
  672MOL0     H88660   2.258   3.943   1.356 -1.1986 -0.4509 -0.4249
  672MOL0     H88661   2.303   3.792   1.271 -1.9792 -0.4167  3.2011
  672MOL0     H88662   2.234   4.080   1.137  1.1368  0.4004 -0.6455
  672MOL0     H88663   2.250   3.923   1.061  1.7300  2.0918 -1.4949
  672MOL0     H88664   2.072   3.826   1.190 -0.7231  0.3911 -1.4400
  672MOL0     H88665   2.011   3.956   1.094  1.6613  0.5846 -0.3361
  672MOL0     H88666   1.820   3.889   1.196  0.8603  1.2522 -0.8516
  672MOL0     H88667   1.616   3.884   1.317 -1.0364  2.6139 -2.7137
  672MOL0     H88668   1.493   4.231   1.869 -0.9500 -1.6611  3.4255
  672MOL0     H88669   1.279   4.246   2.002  0.4374  0.8390 -1.0221
  672MOL0     H88670   1.124   4.142   2.077  0.3908 -0.2180 -2.7211
  672MOL0     H88671   0.957   4.134   2.074  1.3995 -1.3481 -0.0987
  672MOL0     H88672   0.985   4.418   2.066 -0.8472 -0.1790  0.2733
  672MOL0     H88673   1.128   4.363   2.168  0.7138  1.6155 -1.6555
  672MOL0     H88674   0.936   4.415   2.314 -0.6567  2.7269 -1.7957
  672MOL0     H88675   0.972   4.246   2.304  2.3034  1.1804 -1.4932
  672MOL0     H88676   0.779   4.310   2.091 -1.5872  0.5950 -0.0475
  672MOL0     H88677   0.780   4.180   2.214 -0.2838 -0.4832  0.1911
  672MOL0     H88678   0.702   4.475   2.283  2.1261 -0.4558 -2.2320
  672MOL0     H88679   0.700   4.348   2.395  0.3717  1.0330 -0.2471
  672MOL0     H88680   0.548   4.226   2.211  0.6094  0.2231  0.5286
  672MOL0     H88681   0.513   4.377   2.145 -1.4646 -0.5135  1.0287
  672MOL0     H88682   0.366   4.280   2.319 -1.5879  0.8030  2.3459
  672MOL0     H88683   0.479   4.318   2.443  1.3782  0.5916 -0.3403
  672MOL0     H88684   0.441   4.575   2.376 -0.4476 -0.3307  0.7377
  672MOL0     H88685   0.308   4.482   2.445 -0.7965 -4.5006  0.1128
  672MOL0     H88686   1.052   4.130   1.679 -0.5248 -0.6982  2.4715
  672MOL0     H88687   1.261   4.082   1.530  0.7204  0.0940 -1.1825
  672MOL0     H88688   1.778   4.189   1.597  0.8234  0.9536  0.1704
  672MOL0     H88689   1.984   4.172   1.484 -0.8229  0.6269 -0.1520
  672MOL0     H88690   3.733   4.341   0.602  0.3464  0.7492  1.1783
  672MOL0     H88691   3.926   4.485   0.582  0.5580 -3.4742 -0.3004
  672MOL0     H88692   4.167   4.928   0.573 -0.6301  1.6854  2.2497
  672MOL0     H88693   4.403   5.034   0.560 -0.8214  2.5034  3.5509
  672MOL0     H88694   4.800   4.958   0.794 -0.2000  2.2099  2.1512
  672MOL0     H88695   4.721   4.799   0.801 -1.4229  0.6757  0.2728
  672MOL0     H88696   4.559   4.931   0.948  0.5029  1.0061 -0.1508
  672MOL0     H88697   4.691   4.846   1.020 -2.9056  1.0596  2.5513
  672MOL0     H88698   4.707   5.142   0.938 -2.3936 -0.6195 -0.8307
  672MOL0     H88699   4.845   5.045   0.987 -0.0213 -1.4238  1.7639
  672MOL0     H88700   4.713   4.975   1.202  1.4509 -0.6308 -2.6689
  672MOL0     H88701   4.793   5.136   1.205  1.3599 -1.4874  1.0734
  672MOL0     H88702   4.407   5.275   1.256  1.2461  0.8975  2.2139
  672MOL0     H88703   4.521   4.713   0.845 -2.1970 -2.2803 -0.9916
  672MOL0     H88704   4.306   4.612   0.834 -0.5508  0.7767  0.5644
  673MOL0     O88705   9.940   1.133   2.050  0.0277 -0.0916  0.4013
  673MOL0     C88706   9.916   1.200   1.949 -0.4954 -0.7686 -0.7449
  673MOL0     O88707  10.010   1.270   1.882  0.1956 -0.1946  0.3284
  673MOL0     C88708  10.149   1.277   1.903 -0.3366 -0.1500 -0.7858
  673MOL0     C88709  10.225   1.366   1.819  0.2548  0.3049 -0.5815
  673MOL0     C88710  10.369   1.365   1.841  0.4128  0.4823 -0.0435
  673MOL0     C88711  10.431   1.288   1.938  0.8667 -0.3253  0.5866
  673MOL0     O88712  10.565   1.307   1.948 -0.4305 -0.3576 -0.1153
  673MOL0     C88713  10.639   1.212   2.021 -1.1485  0.1211  0.1007
  673MOL0     C88714  10.782   1.256   2.040 -0.6113 -0.7578 -0.2775
  673MOL0     C88715  10.860   1.252   1.907  0.9628 -0.2388 -0.9185
  673MOL0     C88716  11.017   1.270   1.922 -0.1517 -0.0886 -0.1668
  673MOL0     C88717  11.081   1.224   1.797 -0.5208 -0.2610  0.1184
  673MOL0     C88718  11.229   1.262   1.793  0.0445 -0.3835  0.9147
  673MOL0     C88719  11.294   1.209   1.658  0.1249  0.3750  0.1335
  673MOL0     C88720  11.449   1.236   1.656 -1.1714  0.3892 -0.1539
  673MOL0     N88721  11.516   1.191   1.541  0.6674  0.4352  0.8919
  673MOL0     C88722  11.544   1.270   1.437 -0.3071 -0.3953  0.4575
  673MOL0     C88723  11.579   1.192   1.330  0.5496  1.1737 -0.6840
  673MOL0     C88724  11.639   1.237   1.191  0.4556  0.8269  0.5756
  673MOL0     C88725  11.526   1.311   1.115 -0.0430 -0.4235 -0.1380
  673MOL0     C88726  11.419   1.206   1.076  0.2573 -0.5150  0.8479
  673MOL0     C88727  11.279   1.271   1.068 -0.5861  0.4872 -0.0285
  673MOL0     O88728  11.181   1.165   1.043 -0.2492 -0.7828  0.1866
  673MOL0     C88729  11.100   1.126   1.141 -0.0826  0.1041  0.2401
  673MOL0     C88730  10.975   1.077   1.106  0.0966  0.0319  0.0099
  673MOL0     C88731  10.887   1.047   1.209  0.4328 -0.5134 -0.1324
  673MOL0     C88732  10.906   1.063   1.346  0.0878 -0.0219 -0.0000
  673MOL0     C88733  10.810   1.028   1.454 -0.2833  0.8507 -0.1948
  673MOL0     O88734  10.708   0.960   1.411  0.2457  0.1203 -0.1684
  673MOL0     C88735  10.604   0.933   1.494  0.5506 -0.3079  1.0507
  673MOL0     C88736  10.544   0.802   1.492 -0.2009  0.3924 -0.1128
  673MOL0     C88737  10.431   0.769   1.564 -0.5741 -0.5729 -0.6715
  673MOL0     C88738  10.374   0.863   1.656 -0.5261  0.8907 -0.2149
  673MOL0     O88739  10.279   0.817   1.742  0.7823  0.3741 -0.0701
  673MOL0     C88740  10.216   0.916   1.825  0.0211 -0.1895  0.3472
  673MOL0     C88741  10.087   0.871   1.871 -0.5442  0.3848  0.1462
  673MOL0     C88742   9.975   0.882   1.760  0.0813 -0.0163  0.5556
  673MOL0     C88743   9.849   0.815   1.805 -0.3476  0.1853 -0.0296
  673MOL0     C88744   9.725   0.856   1.737  0.1537  0.5772  0.2414
  673MOL0     C88745   9.602   0.800   1.797 -0.9116  0.8234 -0.2392
  673MOL0     C88746   9.483   0.835   1.711  0.6305  0.0054  0.3697
  673MOL0     C88747   9.340   0.787   1.755 -0.1021  0.0685 -0.2083
  673MOL0    Cl88748   9.329   0.607   1.767 -0.0831  0.2657  0.6779
  673MOL0     C88749  10.437   0.989   1.668 -0.5148  0.4810  0.7110
  673MOL0     C88750  10.543   1.030   1.576  0.5175 -0.2135 -1.0116
  673MOL0     O88751  10.833   1.063   1.569  0.2130  0.3602 -0.3135
  673MOL0     C88752  11.035   1.109   1.381  0.3323 -0.0707  0.0373
  673MOL0     C88753  11.139   1.134   1.280 -0.1962  0.1957  0.0790
  673MOL0     N88754  11.560   1.067   1.367  0.4578  0.6138  0.8311
  673MOL0     N88755  11.517   1.061   1.493 -0.2320  0.0375  0.3732
  673MOL0     C88756  10.356   1.200   2.012  0.8738 -0.0673  0.1683
  673MOL0     C88757  10.219   1.200   1.999 -0.4199 -0.3358 -0.0511
  673MOL0     C88758   9.779   1.229   1.901 -0.0233  0.0638 -0.0804
  673MOL0     C88759   9.748   1.318   1.795  0.1045 -0.4081 -0.8212
  673MOL0     C88760   9.614   1.348   1.770  0.2317 -0.0050 -0.0185
  673MOL0     C88761   9.518   1.282   1.844  0.8119 -0.0821  0.3585
  673MOL0     O88762   9.383   1.320   1.815 -0.1783 -0.1190  0.2564
  673MOL0     C88763   9.283   1.246   1.880  1.3400 -0.2060  0.6007
  673MOL0     C88764   9.144   1.305   1.850 -0.0425 -0.7618  0.2959
  673MOL0     C88765   9.035   1.193   1.877 -0.6730  0.4582  0.4853
  673MOL0     C88766   8.900   1.253   1.877  0.3211  0.0012 -0.2109
  673MOL0     C88767   8.854   1.303   1.744 -0.4113  0.6127  0.1302
  673MOL0     C88768   8.829   1.345   1.635  0.5883 -0.7876 -0.3817
  673MOL0     C88769   9.551   1.199   1.948 -0.4803 -0.3522  0.0487
  673MOL0     C88770   9.680   1.168   1.973 -0.7761  0.2775  0.3462
  673MOL0     H88771  10.183   1.442   1.754  1.0787  2.0984  0.9185
  673MOL0     H88772  10.432   1.428   1.780  2.4489 -1.5925 -0.2097
  673MOL0     H88773  10.632   1.118   1.965 -3.0878 -0.0462  0.5581
  673MOL0     H88774  10.587   1.199   2.116 -0.5551 -2.2988  0.1528
  673MOL0     H88775  10.844   1.202   2.113  0.1957 -1.2538 -1.3017
  673MOL0     H88776  10.776   1.360   2.073 -3.5116 -1.4779  1.8312
  673MOL0     H88777  10.802   1.318   1.841 -0.4189  1.4514  1.7828
  673MOL0     H88778  10.849   1.147   1.881 -1.7121 -1.0095  2.5581
  673MOL0     H88779  11.052   1.373   1.938  1.0852 -0.0022 -2.9314
  673MOL0     H88780  11.058   1.208   2.002 -0.0120 -1.4409 -1.2512
  673MOL0     H88781  11.030   1.265   1.709 -2.1569 -0.7829  0.7896
  673MOL0     H88782  11.085   1.115   1.796 -0.6691 -0.3061  1.6587
  673MOL0     H88783  11.286   1.231   1.881  0.5783  0.3243  0.8306
  673MOL0     H88784  11.235   1.372   1.794 -0.6473 -0.3428  0.7468
  673MOL0     H88785  11.291   1.099   1.658 -1.4048  0.3744 -1.3436
  673MOL0     H88786  11.248   1.248   1.566 -2.6725 -0.7230  0.9756
  673MOL0     H88787  11.488   1.173   1.736 -1.8432 -1.9010 -1.5320
  673MOL0     H88788  11.485   1.335   1.686 -0.9568  0.9845 -2.2123
  673MOL0     H88789  11.547   1.378   1.437  3.3235 -0.3335 -1.2313
  673MOL0     H88790  11.660   1.139   1.146  2.5736  0.9792  1.1378
  673MOL0     H88791  11.723   1.306   1.197 -0.0811  1.3834  2.3122
  673MOL0     H88792  11.564   1.355   1.022  0.6990 -2.6038 -0.9308
  673MOL0     H88793  11.480   1.385   1.180  1.3567 -0.6425  1.1449
  673MOL0     H88794  11.440   1.142   0.990  0.3027 -1.3874  1.4893
  673MOL0     H88795  11.419   1.126   1.151 -0.0486 -1.2882  0.0388
  673MOL0     H88796  11.282   1.333   0.978 -1.2554 -1.8080 -1.7430
  673MOL0     H88797  11.253   1.331   1.155 -3.1741  1.0791 -1.1088
  673MOL0     H88798  10.966   1.064   0.999  1.2116 -0.4703 -0.0377
  673MOL0     H88799  10.785   1.033   1.176 -0.5499  1.4674  1.8776
  673MOL0     H88800  10.606   0.736   1.432  0.4698 -0.1658  1.1585
  673MOL0     H88801  10.395   0.667   1.562  0.0894 -0.8038 -2.0762
  673MOL0     H88802  10.211   1.014   1.777  0.6989  1.2453  3.0304
  673MOL0     H88803  10.275   0.932   1.916  1.1999 -1.8129 -0.0777
  673MOL0     H88804  10.061   0.922   1.964 -1.0719 -1.3495  1.0039
  673MOL0     H88805  10.098   0.765   1.894 -0.7747 -0.3841 -2.8033
  673MOL0     H88806  10.010   0.833   1.669  0.1097 -1.5810  1.3684
  673MOL0     H88807   9.938   0.984   1.745 -2.4663 -0.4718  2.9345
  673MOL0     H88808   9.873   0.708   1.799  1.6263  0.6403 -1.2446
  673MOL0     H88809   9.848   0.848   1.909 -0.6833  1.1974 -0.3446
  673MOL0     H88810   9.726   0.832   1.631 -1.6828 -3.9993  1.0246
  673MOL0     H88811   9.716   0.964   1.756  1.6561  0.4434  2.0517
  673MOL0     H88812   9.593   0.845   1.896 -0.0727 -1.6964  1.0674
  673MOL0     H88813   9.614   0.692   1.809  2.3367  0.9238 -1.5613
  673MOL0     H88814   9.475   0.944   1.707  0.9585  0.0408 -3.3336
  673MOL0     H88815   9.508   0.800   1.610  1.9591  0.7365  0.4219
  673MOL0     H88816   9.264   0.828   1.687 -0.6751  0.5618  0.7052
  673MOL0     H88817   9.305   0.829   1.850  0.1607 -1.3563  0.5334
  673MOL0     H88818  10.403   1.052   1.749 -0.2893 -1.3833  2.3216
  673MOL0     H88819  10.582   1.131   1.582  3.9209 -1.4607  0.9176
  673MOL0     H88820  11.065   1.123   1.485  1.9941  0.1949 -0.4579
  673MOL0     H88821  11.244   1.143   1.309 -0.2392 -0.3087  0.4114
  673MOL0     H88822  10.397   1.143   2.095  0.9479 -0.5731 -0.2128
  673MOL0     H88823  10.176   1.128   2.067 -0.2923  1.4056  1.9688
  673MOL0     H88824   9.825   1.361   1.731  0.9533 -0.9782 -0.2093
  673MOL0     H88825   9.586   1.423   1.697  0.2968 -1.3071 -1.4110
  673MOL0     H88826   9.281   1.249   1.989 -1.2308  0.9091  0.6021
  673MOL0     H88827   9.282   1.146   1.836  2.4310 -0.6720  1.5740
  673MOL0     H88828   9.126   1.389   1.917 -0.1520 -1.1918  0.8192
  673MOL0     H88829   9.138   1.344   1.748  2.4446  0.3216  0.4992
  673MOL0     H88830   9.049   1.155   1.978 -0.5820  2.5345  1.3041
  673MOL0     H88831   9.042   1.125   1.791 -0.0321  0.0305  0.8675
  673MOL0     H88832   8.822   1.190   1.921 -2.5314  3.0945 -0.4051
  673MOL0     H88833   8.893   1.331   1.953 -4.7833 -0.0991 -0.2401
  673MOL0     H88834   8.787   1.389   1.547 -2.5237  0.5606  1.5920
  673MOL0     H88835   9.485   1.140   2.011  0.3048 -1.4826 -0.1511
  673MOL0     H88836   9.695   1.102   2.058 -1.0281  4.1506  3.7082
  674MOL0     O88837   7.710   7.176  10.913 -0.5598 -0.3555 -0.8756
  674MOL0     C88838   7.779   7.158  11.013  0.2698 -0.9003 -1.1941
  674MOL0     O88839   7.735   7.170  11.141  0.4265 -0.0586 -0.2912
  674MOL0     C88840   7.618   7.224  11.172 -0.3162  0.0703  0.8172
  674MOL0     C88841   7.557   7.337  11.114 -0.2274 -0.3666  0.1739
  674MOL0     C88842   7.427   7.383  11.155 -0.1578 -0.1253 -0.6716
  674MOL0     C88843   7.357   7.314  11.255 -0.9496 -0.0046  0.3893
  674MOL0     O88844   7.237   7.339  11.301 -0.0834 -0.7345  0.0465
  674MOL0     C88845   7.141   7.316  11.186 -0.1841  0.3763  0.3053
  674MOL0     C88846   7.062   7.447  11.155 -0.3432 -1.2455  0.6937
  674MOL0     C88847   6.988   7.493  11.284  0.5514 -0.3351  0.0678
  674MOL0     C88848   6.881   7.399  11.350 -0.0291 -0.4788  0.5601
  674MOL0     C88849   6.830   7.454  11.477 -0.3607  0.3489 -0.0851
  674MOL0     C88850   6.724   7.561  11.461 -0.3019 -0.0857  0.6258
  674MOL0     C88851   6.581   7.514  11.428 -0.0645 -0.0425  0.8484
  674MOL0     C88852   6.562   7.459  11.291 -0.2535 -0.0505 -0.2794
  674MOL0     N88853   6.420   7.460  11.244  0.7877 -0.1857 -0.2945
  674MOL0     C88854   6.355   7.562  11.181  0.3169  0.7184  1.0435
  674MOL0     C88855   6.233   7.504  11.148 -0.2916 -0.9245  0.0241
  674MOL0     C88856   6.127   7.579  11.069 -0.2090  0.3194  0.7963
  674MOL0     C88857   6.033   7.648  11.175 -0.0145  0.3500  0.1416
  674MOL0     C88858   5.904   7.689  11.105  0.3496 -0.4621  0.3197
  674MOL0     C88859   5.820   7.784  11.185  0.0331 -0.1572  0.1431
  674MOL0     O88860   5.740   7.706  11.274 -0.6090  0.4461  0.7998
  674MOL0     C88861   5.635   7.630  11.225 -0.5104 -0.2909  0.7264
  674MOL0     C88862   5.574   7.648  11.101  0.7001 -0.0010  0.9668
  674MOL0     C88863   5.463   7.571  11.069  0.3146 -0.2076  0.0390
  674MOL0     C88864   5.402   7.480  11.154 -0.3208 -0.6874 -0.4252
  674MOL0     C88865   5.278   7.420  11.122 -0.4505 -0.2161 -0.0320
  674MOL0     O88866   5.224   7.344  11.215  0.6141 -0.9736 -1.5058
  674MOL0     C88867   5.119   7.274  11.175  0.0625  0.0144  0.4846
  674MOL0     C88868   5.123   7.133  11.151 -0.1654  0.3465  0.1458
  674MOL0     C88869   5.010   7.064  11.096  0.1633 -0.3872 -0.1892
  674MOL0     C88870   4.892   7.131  11.085  0.6715  0.7505  0.0516
  674MOL0     O88871   4.785   7.055  11.047 -0.4872 -0.2888  0.4040
  674MOL0     C88872   4.655   7.109  11.056 -0.0673  0.9500  0.2954
  674MOL0     C88873   4.553   6.993  11.038 -0.1796  0.7665 -0.9065
  674MOL0     C88874   4.426   7.059  11.015 -0.1790 -0.1813  0.3740
  674MOL0     C88875   4.312   6.957  11.023  1.3826  1.2047  0.3354
  674MOL0     C88876   4.185   7.024  10.983  0.4350 -0.3154  0.5052
  674MOL0     C88877   4.075   6.925  10.957  0.1597  0.3805 -0.3772
  674MOL0     C88878   3.936   6.977  11.006  0.2430  0.1680 -0.3422
  674MOL0     C88879   3.819   6.884  10.973 -0.3950  0.6487 -0.7625
  674MOL0    Cl88880   3.812   6.738  11.079  0.2412  0.0537 -0.4290
  674MOL0     C88881   4.886   7.265  11.125 -0.2937 -0.8606  0.5160
  674MOL0     C88882   4.995   7.333  11.175 -0.4207 -0.2377  0.2468
  674MOL0     O88883   5.218   7.465  11.024  0.3766  0.7482  0.1946
  674MOL0     C88884   5.480   7.450  11.268  0.0783  0.1189 -1.2896
  674MOL0     C88885   5.591   7.529  11.308 -0.4545 -0.0598  0.6439
  674MOL0     N88886   6.224   7.378  11.202  0.2182  0.8579  0.5938
  674MOL0     N88887   6.333   7.356  11.261 -0.2697  0.1249 -0.3485
  674MOL0     C88888   7.421   7.209  11.321 -0.0748  0.2511 -0.6975
  674MOL0     C88889   7.548   7.166  11.280  0.9532 -0.2559  0.8296
  674MOL0     C88890   7.907   7.095  11.001  0.5607 -0.3806  0.1004
  674MOL0     C88891   7.958   7.072  10.862 -0.0239 -0.4114 -0.0319
  674MOL0     C88892   8.074   6.996  10.847  0.1814 -0.0851 -0.1821
  674MOL0     C88893   8.146   6.938  10.960 -0.0089  0.5480 -0.5214
  674MOL0     O88894   8.262   6.873  10.954  0.2314 -0.1265 -0.8088
  674MOL0     C88895   8.307   6.813  10.829  0.0461  0.0590 -0.6862
  674MOL0     C88896   8.433   6.730  10.857 -0.1019  0.6850  0.1838
  674MOL0     C88897   8.477   6.637  10.741 -0.1161  0.5300  0.1300
  674MOL0     C88898   8.507   6.482  10.778  0.4280  0.5376 -0.2862
  674MOL0     C88899   8.598   6.430  10.674 -0.0820  0.3796  0.6690
  674MOL0     C88900   8.684   6.401  10.599 -0.5183  0.2245  0.3047
  674MOL0     C88901   8.091   6.962  11.092 -0.5755  0.4578  1.1757
  674MOL0     C88902   7.969   7.027  11.110 -0.8159  0.1145  0.9920
  674MOL0     H88903   7.607   7.391  11.034  1.2501  0.7867  1.7929
  674MOL0     H88904   7.392   7.482  11.130  1.8088  0.7570 -0.1568
  674MOL0     H88905   7.067   7.237  11.205  0.6221 -0.0494  1.7705
  674MOL0     H88906   7.193   7.287  11.094  2.0875  0.7852  1.3815
  674MOL0     H88907   6.989   7.417  11.079  1.5735 -0.7947 -1.4256
  674MOL0     H88908   7.126   7.521  11.107 -0.8100 -1.5084 -0.3790
  674MOL0     H88909   6.940   7.590  11.273 -2.1827 -1.8306 -2.9311
  674MOL0     H88910   7.067   7.508  11.359  0.6744  1.8752 -0.4379
  674MOL0     H88911   6.801   7.378  11.279  0.5617  0.5511 -0.4312
  674MOL0     H88912   6.935   7.306  11.373  1.1353 -0.0927 -0.4988
  674MOL0     H88913   6.911   7.505  11.530  0.9230 -1.3638 -0.3086
  674MOL0     H88914   6.799   7.371  11.542 -0.0413  0.6747  0.4899
  674MOL0     H88915   6.748   7.628  11.378 -2.8096 -0.3519 -0.4229
  674MOL0     H88916   6.717   7.620  11.552  0.1169  0.4775  0.3005
  674MOL0     H88917   6.556   7.450  11.512  0.4710 -2.9319 -1.0569
  674MOL0     H88918   6.526   7.608  11.442 -0.4901  0.0144 -0.9215
  674MOL0     H88919   6.592   7.354  11.297 -0.5308 -0.1900 -1.2199
  674MOL0     H88920   6.622   7.525  11.228 -1.2466  0.5681 -0.6002
  674MOL0     H88921   6.386   7.664  11.162 -1.4956  1.3141  1.0530
  674MOL0     H88922   6.078   7.507  11.003  1.4324 -0.6720  0.6135
  674MOL0     H88923   6.175   7.659  11.012  2.7823 -1.0306  1.2448
  674MOL0     H88924   6.086   7.728  11.227 -0.1978 -1.8164  4.0391
  674MOL0     H88925   5.999   7.576  11.250  1.7997 -0.0951  0.5697
  674MOL0     H88926   5.927   7.735  11.009 -4.1204  3.6639  0.8306
  674MOL0     H88927   5.836   7.606  11.082 -0.9224  0.2723  1.2897
  674MOL0     H88928   5.765   7.848  11.115  1.5144  2.1321  0.9698
  674MOL0     H88929   5.883   7.851  11.245  1.9779 -1.1318 -0.7282
  674MOL0     H88930   5.592   7.735  11.037 -0.7563  1.5316  2.5249
  674MOL0     H88931   5.422   7.576  10.968  0.6504  0.0938 -0.0865
  674MOL0     H88932   5.221   7.085  11.154 -0.8767 -1.1472  0.0945
  674MOL0     H88933   5.020   6.961  11.064 -1.0758 -0.1957 -1.2638
  674MOL0     H88934   4.633   7.182  10.978  0.2144 -0.8379 -1.5162
  674MOL0     H88935   4.635   7.151  11.155 -4.5474  2.3215 -0.9581
  674MOL0     H88936   4.549   6.926  11.124 -2.1792  1.3277 -0.5051
  674MOL0     H88937   4.569   6.928  10.951 -2.3088  0.7642 -1.3604
  674MOL0     H88938   4.432   7.094  10.912 -1.1037 -0.4694  0.2128
  674MOL0     H88939   4.408   7.146  11.079  0.0073  0.3069 -0.2312
  674MOL0     H88940   4.335   6.878  10.951  3.6605 -1.4030  3.6016
  674MOL0     H88941   4.308   6.909  11.121 -1.6742  0.1247 -0.2234
  674MOL0     H88942   4.200   7.079  10.890 -0.9287 -1.0246 -0.1707
  674MOL0     H88943   4.156   7.092  11.063 -1.6482  1.2465 -1.4365
  674MOL0     H88944   4.087   6.830  11.010 -0.6679  0.7604  0.5391
  674MOL0     H88945   4.073   6.897  10.852  1.7240  0.5701 -0.4766
  674MOL0     H88946   3.939   6.985  11.115  0.4939 -3.8257  0.1068
  674MOL0     H88947   3.918   7.075  10.962  1.3393 -0.4403 -2.2775
  674MOL0     H88948   3.840   6.846  10.872 -3.3399  2.4979 -2.1925
  674MOL0     H88949   3.727   6.942  10.969 -1.1275 -0.3292  1.0432
  674MOL0     H88950   4.795   7.322  11.137 -0.2101 -0.7805  0.7811
  674MOL0     H88951   4.986   7.438  11.201 -0.0362 -0.0971 -0.1789
  674MOL0     H88952   5.445   7.376  11.339 -0.4496 -0.8267 -2.4922
  674MOL0     H88953   5.646   7.508  11.400  0.0338 -0.4924  0.2601
  674MOL0     H88954   7.372   7.173  11.411  0.7723 -0.1271 -0.3863
  674MOL0     H88955   7.587   7.084  11.340  0.3428 -0.5862  0.7789
  674MOL0     H88956   7.911   7.113  10.773 -0.3304 -5.0343 -2.3561
  674MOL0     H88957   8.124   6.989  10.751 -0.5006  1.1207 -0.6518
  674MOL0     H88958   8.316   6.889  10.750  0.1982 -1.4151 -2.1527
  674MOL0     H88959   8.223   6.748  10.804  0.7674 -0.9677 -0.5084
  674MOL0     H88960   8.515   6.801  10.875 -0.8397  0.9871  2.8677
  674MOL0     H88961   8.427   6.666  10.946  0.6813 -2.1590 -1.6650
  674MOL0     H88962   8.570   6.675  10.698 -2.3536  2.8824 -3.1846
  674MOL0     H88963   8.399   6.635  10.664  1.2874  1.2350 -1.3884
  674MOL0     H88964   8.559   6.480  10.873  0.1268  0.0975 -0.1286
  674MOL0     H88965   8.413   6.426  10.778  1.2037 -0.8177  1.1294
  674MOL0     H88966   8.760   6.364  10.534 -0.6552  1.2171 -0.4391
  674MOL0     H88967   8.141   6.906  11.170  1.7738  0.7851 -0.0112
  674MOL0     H88968   7.932   7.023  11.212 -1.4345  0.7832  0.8026
  675MOL0     O88969   3.748   1.322   3.404 -0.3524  0.0447 -0.3489
  675MOL0     C88970   3.813   1.405   3.470 -1.2940  0.6556 -0.3252
  675MOL0     O88971   3.767   1.454   3.589 -0.3760  1.1099 -0.5312
  675MOL0     C88972   3.644   1.450   3.651  0.1126  0.9505  0.5590
  675MOL0     C88973   3.537   1.367   3.624 -0.9089  0.0718 -0.6056
  675MOL0     C88974   3.429   1.380   3.710  1.3954  0.0276  0.6587
  675MOL0     C88975   3.420   1.476   3.809  1.1028 -0.3982  0.2196
  675MOL0     O88976   3.306   1.486   3.886 -0.1637 -0.5248  0.4096
  675MOL0     C88977   3.266   1.619   3.937 -0.6759  0.1374  0.2000
  675MOL0     C88978   3.146   1.605   4.022  0.0929  0.4434 -0.2063
  675MOL0     C88979   3.098   1.744   4.065  1.2625  0.3633  0.9664
  675MOL0     C88980   2.965   1.733   4.141  0.3251 -0.0302  0.3879
  675MOL0     C88981   2.918   1.850   4.218  0.9269 -0.1287 -0.1832
  675MOL0     C88982   2.805   1.818   4.307  0.4857  0.7195 -0.8758
  675MOL0     C88983   2.764   1.941   4.385 -0.1703 -0.0132 -0.6891
  675MOL0     C88984   2.700   1.912   4.520 -0.8412  0.8107 -0.8466
  675MOL0     N88985   2.556   1.888   4.499  0.0560 -0.0195  0.5845
  675MOL0     C88986   2.456   1.973   4.473 -0.3466 -0.9164 -0.1227
  675MOL0     C88987   2.338   1.899   4.457  0.0501 -0.8943 -0.0655
  675MOL0     C88988   2.195   1.945   4.439  0.3932  0.4086 -0.1297
  675MOL0     C88989   2.111   1.844   4.522 -0.2848  0.3279  0.6575
  675MOL0     C88990   1.975   1.907   4.540  0.5369  0.6000 -0.0447
  675MOL0     C88991   1.885   1.812   4.619  0.6421 -0.2124 -0.4035
  675MOL0     O88992   1.755   1.863   4.610  0.0478  0.0844  0.0434
  675MOL0     C88993   1.651   1.773   4.597  0.4879 -0.4865  0.0672
  675MOL0     C88994   1.643   1.638   4.636 -0.3672  0.3894  1.0356
  675MOL0     C88995   1.528   1.563   4.621 -0.3721  0.0079  0.1696
  675MOL0     C88996   1.426   1.617   4.547  0.4483  0.1674  0.2574
  675MOL0     C88997   1.309   1.541   4.498 -0.8093  0.3136 -0.0401
  675MOL0     O88998   1.269   1.444   4.582  0.4333  0.1532  0.2344
  675MOL0     C88999   1.159   1.371   4.549 -0.3371  0.0084  0.2202
  675MOL0     C89000   1.026   1.410   4.593 -0.2239 -0.0013 -0.3808
  675MOL0     C89001   0.916   1.330   4.565  0.7841 -0.1429 -0.9154
  675MOL0     C89002   0.928   1.217   4.489 -1.2062 -0.3516 -0.1922
  675MOL0     O89003   0.820   1.147   4.442  0.1978  0.5519 -0.1004
  675MOL0     C89004   0.694   1.137   4.517 -0.8345 -0.6616  0.4272
  675MOL0     C89005   0.587   1.031   4.471  0.4967 -0.5460  0.4393
  675MOL0     C89006   0.463   1.025   4.553 -1.0229  0.2948  0.3552
  675MOL0     C89007   0.381   0.912   4.515  0.5558  0.6567 -0.6525
  675MOL0     C89008   0.242   0.913   4.585 -0.1683 -0.2018  0.0265
  675MOL0     C89009   0.139   0.811   4.535  0.0876 -0.5282 -0.1924
  675MOL0     C89010   0.047   0.761   4.642  0.5843 -0.2430 -0.4009
  675MOL0     C89011  -0.077   0.687   4.597 -0.2437 -0.2089  0.0592
  675MOL0    Cl89012  -0.151   0.620   4.737 -0.6793  0.0021  0.0237
  675MOL0     C89013   1.059   1.174   4.446  0.9926 -0.0986  0.0101
  675MOL0     C89014   1.177   1.242   4.481 -0.5202  0.2326 -0.1725
  675MOL0     O89015   1.275   1.565   4.384  0.1691 -0.7128 -0.2497
  675MOL0     C89016   1.427   1.756   4.524 -0.9164  0.1385  0.4878
  675MOL0     C89017   1.535   1.834   4.546  0.4520  0.4887 -0.1063
  675MOL0     N89018   2.378   1.772   4.482 -0.3472  0.3775 -0.2288
  675MOL0     N89019   2.508   1.767   4.495  0.2745  0.0318  0.3642
  675MOL0     C89020   3.537   1.555   3.833  0.5769 -0.2995 -0.9032
  675MOL0     C89021   3.646   1.541   3.756  0.1109 -0.6943 -0.0569
  675MOL0     C89022   3.942   1.444   3.422 -0.1736  0.7588 -0.2895
  675MOL0     C89023   3.976   1.437   3.286  1.1742 -0.3576  0.7552
  675MOL0     C89024   4.106   1.456   3.241  0.4267 -0.2817 -0.0419
  675MOL0     C89025   4.205   1.489   3.336  0.4554 -0.3691  0.3774
  675MOL0     O89026   4.330   1.512   3.289 -0.4354  0.0621 -0.1771
  675MOL0     C89027   4.443   1.537   3.386  0.3670  0.3754 -0.1766
  675MOL0     C89028   4.476   1.408   3.450 -0.3086 -0.2209  0.1671
  675MOL0     C89029   4.541   1.308   3.353  0.4157 -0.0312  0.1450
  675MOL0     C89030   4.576   1.184   3.439  0.9843  0.3995  0.1052
  675MOL0     C89031   4.682   1.106   3.372  0.2091 -0.3077  0.3833
  675MOL0     C89032   4.769   1.037   3.326  0.1724  0.9198 -0.5252
  675MOL0     C89033   4.167   1.513   3.467 -0.0479  0.3047  0.1674
  675MOL0     C89034   4.039   1.491   3.509 -0.2930 -0.8926 -0.7203
  675MOL0     H89035   3.540   1.289   3.548  0.3864 -0.4256 -0.0817
  675MOL0     H89036   3.349   1.316   3.672  1.8378  0.6502 -1.4538
  675MOL0     H89037   3.253   1.684   3.850 -0.6369 -0.8088 -0.5383
  675MOL0     H89038   3.349   1.651   4.000 -0.4191 -0.6183  0.2613
  675MOL0     H89039   3.163   1.541   4.109  2.1489 -0.2875 -1.0979
  675MOL0     H89040   3.057   1.561   3.974  0.6780 -3.6740  2.0278
  675MOL0     H89041   3.085   1.826   3.993 -0.9778  1.2227  2.2584
  675MOL0     H89042   3.183   1.777   4.125  2.8783 -2.6267  0.5377
  675MOL0     H89043   2.887   1.708   4.068 -0.3524  2.4574  0.1760
  675MOL0     H89044   2.968   1.647   4.209  0.7657 -2.1463 -2.1561
  675MOL0     H89045   2.889   1.934   4.154  0.6003 -1.5339 -1.9717
  675MOL0     H89046   3.007   1.883   4.273  0.1085  2.7252 -0.3669
  675MOL0     H89047   2.832   1.732   4.369 -0.0540 -1.6775 -3.6871
  675MOL0     H89048   2.715   1.784   4.254  0.6953  1.1585 -1.5187
  675MOL0     H89049   2.853   2.000   4.408 -3.1364  4.0080  1.9079
  675MOL0     H89050   2.698   2.001   4.322 -1.2656 -0.8722 -0.3815
  675MOL0     H89051   2.705   1.994   4.592 -1.1874  0.7886 -0.7963
  675MOL0     H89052   2.754   1.828   4.566 -1.5745  1.5151  1.4685
  675MOL0     H89053   2.457   2.080   4.454 -0.8325 -0.9472 -0.3345
  675MOL0     H89054   2.157   1.941   4.337 -2.1880  1.1304  0.7184
  675MOL0     H89055   2.189   2.046   4.479  0.6853  0.8583 -1.2066
  675MOL0     H89056   2.152   1.836   4.623 -1.2955  2.0410  1.2409
  675MOL0     H89057   2.111   1.743   4.479 -0.2104 -0.0929  1.6232
  675MOL0     H89058   1.983   1.999   4.599  0.6823  1.0789 -0.7992
  675MOL0     H89059   1.940   1.940   4.442  1.6562 -1.1136 -1.0689
  675MOL0     H89060   1.906   1.818   4.726 -1.5877  1.7042  0.0021
  675MOL0     H89061   1.898   1.707   4.594  3.5681 -0.3294  1.1207
  675MOL0     H89062   1.736   1.584   4.651 -0.7461 -0.8377 -0.7069
  675MOL0     H89063   1.527   1.456   4.638  1.0356 -0.2250 -1.0497
  675MOL0     H89064   1.008   1.487   4.667  2.4549  2.6871 -2.2443
  675MOL0     H89065   0.818   1.361   4.601  0.0866 -0.8984 -2.0821
  675MOL0     H89066   0.648   1.236   4.505  1.9457  0.8145  0.8512
  675MOL0     H89067   0.711   1.114   4.622  1.2886 -1.9680 -0.1473
  675MOL0     H89068   0.637   0.935   4.459  0.4210 -0.4658 -0.5807
  675MOL0     H89069   0.554   1.060   4.371  0.8108  1.2907  0.8150
  675MOL0     H89070   0.405   1.118   4.551  0.9551  1.5955  1.0561
  675MOL0     H89071   0.508   1.017   4.652  1.3868  0.6092 -0.6323
  675MOL0     H89072   0.359   0.921   4.408  1.0120  1.7353 -0.6684
  675MOL0     H89073   0.439   0.823   4.543  1.2647  1.3199  0.0241
  675MOL0     H89074   0.184   1.004   4.572 -1.7307 -1.1665 -0.0396
  675MOL0     H89075   0.252   0.894   4.692  0.1131 -0.3409 -0.0234
  675MOL0     H89076   0.185   0.731   4.477  1.9572  1.8340 -2.2167
  675MOL0     H89077   0.082   0.859   4.454  1.3198 -1.3290 -1.5897
  675MOL0     H89078   0.098   0.687   4.705 -1.5117 -1.8749 -0.5431
  675MOL0     H89079   0.015   0.847   4.702 -0.8244  0.6466 -2.3159
  675MOL0     H89080  -0.053   0.615   4.518 -3.0779 -0.5857 -0.5701
  675MOL0     H89081  -0.154   0.749   4.549  0.3345  0.9967  0.6274
  675MOL0     H89082   1.062   1.087   4.381  0.3619  2.1860 -3.3106
  675MOL0     H89083   1.273   1.203   4.450 -0.2585  1.9339 -1.6975
  675MOL0     H89084   1.343   1.812   4.484 -0.3736  1.6566  1.3817
  675MOL0     H89085   1.536   1.939   4.519 -1.3804  0.6153  0.1645
  675MOL0     H89086   3.532   1.622   3.917 -1.6433 -2.2590  0.6734
  675MOL0     H89087   3.735   1.602   3.770  0.9172 -1.3409 -1.9365
  675MOL0     H89088   3.909   1.410   3.204  0.7672 -1.9384  1.5797
  675MOL0     H89089   4.139   1.439   3.139  0.1262 -0.4604 -0.1122
  675MOL0     H89090   4.414   1.617   3.455  2.4891 -0.7660  2.2020
  675MOL0     H89091   4.525   1.592   3.340 -0.5896  2.6000  0.6238
  675MOL0     H89092   4.539   1.431   3.536 -1.1848 -0.6969  0.9452
  675MOL0     H89093   4.388   1.363   3.495  0.3403 -0.7057  0.9632
  675MOL0     H89094   4.636   1.346   3.315  1.2341 -1.5787  0.5494
  675MOL0     H89095   4.472   1.273   3.275  0.2013  1.4224 -0.3373
  675MOL0     H89096   4.620   1.211   3.536  2.2501 -0.6779 -0.1320
  675MOL0     H89097   4.486   1.128   3.463 -0.0287  1.8321 -0.2381
  675MOL0     H89098   4.854   0.984   3.287  1.2308  2.3907 -0.3334
  675MOL0     H89099   4.231   1.552   3.545  2.0137 -1.7925 -0.3629
  675MOL0     H89100   4.021   1.489   3.616  0.8988  0.3039 -0.4778
  676MOL0     O89101   2.197   1.143   0.075  1.1135 -0.9989 -0.4971
  676MOL0     C89102   2.214   1.221  -0.018 -0.3144 -0.2878  1.3217
  676MOL0     O89103   2.116   1.256  -0.109  0.2541  0.0610 -0.0931
  676MOL0     C89104   1.984   1.214  -0.102 -0.2535  0.6951  0.1957
  676MOL0     C89105   1.905   1.241   0.008  0.0836 -0.3222  0.2688
  676MOL0     C89106   1.766   1.211   0.011 -0.5436  0.1043 -0.3343
  676MOL0     C89107   1.704   1.149  -0.103 -0.5647  0.6903  0.0578
  676MOL0     O89108   1.576   1.134  -0.101  0.3883 -0.0600  0.5256
  676MOL0     C89109   1.502   1.128  -0.219  0.2326  0.2418 -0.8957
  676MOL0     C89110   1.346   1.157  -0.198 -0.5607 -0.2812 -0.3454
  676MOL0     C89111   1.249   1.032  -0.201 -0.5306  0.6158 -0.2610
  676MOL0     C89112   1.113   1.087  -0.192  0.2873  0.4263 -0.0252
  676MOL0     C89113   1.020   0.971  -0.210  0.0773  0.1312 -0.9169
  676MOL0     C89114   0.880   1.022  -0.204  0.3402  0.9643 -0.8348
  676MOL0     C89115   0.786   0.907  -0.247  0.2843 -0.2482 -0.4189
  676MOL0     C89116   0.674   0.885  -0.145  0.0524  0.0760  0.2366
  676MOL0     N89117   0.560   0.804  -0.194  0.4580  0.2580  0.1567
  676MOL0     C89118   0.449   0.856  -0.258 -1.0635  0.0973  0.6108
  676MOL0     C89119   0.369   0.754  -0.273 -0.5728  0.1556 -1.2649
  676MOL0     C89120   0.229   0.738  -0.315 -0.1114 -0.2108 -0.1411
  676MOL0     C89121   0.199   0.787  -0.462 -0.2630 -0.2888 -0.1573
  676MOL0     C89122   0.056   0.771  -0.492 -0.0829  0.0160  0.4151
  676MOL0     C89123   0.008   0.791  -0.634 -0.0455  0.1464  0.4742
  676MOL0     O89124  -0.124   0.744  -0.631  0.1600 -0.6316  0.6232
  676MOL0     C89125  -0.214   0.760  -0.737  0.0870  0.2824 -0.0348
  676MOL0     C89126  -0.350   0.735  -0.702 -0.2290  0.6136  0.4829
  676MOL0     C89127  -0.449   0.758  -0.802 -0.7357 -0.1322  0.4415
  676MOL0     C89128  -0.411   0.781  -0.933  0.4455 -0.2355  0.0271
  676MOL0     C89129  -0.504   0.793  -1.049 -0.6761 -0.3567 -0.2252
  676MOL0     O89130  -0.633   0.792  -1.007  0.0960  0.2426 -0.5077
  676MOL0     C89131  -0.730   0.744  -1.086  0.7223 -0.4726 -0.2954
  676MOL0     C89132  -0.721   0.687  -1.206 -0.5300 -0.8843  0.2198
  676MOL0     C89133  -0.828   0.635  -1.279 -0.4003  0.1271  0.0855
  676MOL0     C89134  -0.964   0.657  -1.236  0.5572 -0.2078 -0.0137
  676MOL0     O89135  -1.082   0.623  -1.299  0.8637 -0.5304 -0.0547
  676MOL0     C89136  -1.067   0.619  -1.443  0.3693 -0.1337 -0.6586
  676MOL0     C89137  -1.205   0.672  -1.493  0.0732  0.5935 -0.2207
  676MOL0     C89138  -1.321   0.576  -1.465 -0.3219 -1.2599 -0.3429
  676MOL0     C89139  -1.419   0.572  -1.584  0.1188 -0.3651 -0.5132
  676MOL0     C89140  -1.527   0.477  -1.559 -0.3149  0.0772  0.6568
  676MOL0     C89141  -1.625   0.481  -1.669 -1.3002 -0.0035  0.1458
  676MOL0     C89142  -1.739   0.380  -1.654 -0.2294  0.0569 -0.0704
  676MOL0     C89143  -1.805   0.353  -1.786 -0.8312 -0.0747 -0.0630
  676MOL0    Cl89144  -1.837   0.511  -1.869  0.6412 -0.2709 -0.0886
  676MOL0     C89145  -0.978   0.719  -1.108  0.0938  0.3906 -0.0128
  676MOL0     C89146  -0.861   0.755  -1.036 -0.3974 -0.1851  1.0597
  676MOL0     O89147  -0.464   0.813  -1.155 -0.1483  0.1050 -0.0499
  676MOL0     C89148  -0.272   0.791  -0.962 -0.0817 -0.0250  0.4108
  676MOL0     C89149  -0.171   0.786  -0.868  0.4462 -0.4894  0.2658
  676MOL0     N89150   0.436   0.639  -0.235 -0.8177  0.3398 -0.7029
  676MOL0     N89151   0.554   0.664  -0.191 -0.0149 -0.1911  0.0690
  676MOL0     C89152   1.783   1.112  -0.216  0.1619  0.1564 -0.5773
  676MOL0     C89153   1.922   1.143  -0.207 -0.4956 -0.6809 -0.3158
  676MOL0     C89154   2.352   1.269  -0.032  0.2710 -0.5681 -0.5351
  676MOL0     C89155   2.460   1.220   0.041  0.1768 -0.3933  0.3226
  676MOL0     C89156   2.595   1.251   0.007  0.6790  0.1287 -0.5873
  676MOL0     C89157   2.629   1.351  -0.085  0.0677  1.1875  0.5551
  676MOL0     O89158   2.761   1.390  -0.106 -0.3343 -0.7047  1.3556
  676MOL0     C89159   2.860   1.312  -0.048 -0.6439 -0.4045  0.3963
  676MOL0     C89160   2.997   1.367  -0.102 -0.4567  0.6262 -0.2969
  676MOL0     C89161   3.110   1.352  -0.005 -0.2021  0.2429  0.5195
  676MOL0     C89162   3.245   1.421  -0.047  0.2839  0.2413 -0.4622
  676MOL0     C89163   3.327   1.456   0.072  0.1914  0.2408  0.2643
  676MOL0     C89164   3.414   1.481   0.151  0.5722 -0.7288 -0.0715
  676MOL0     C89165   2.523   1.398  -0.164 -0.3240 -1.1265 -0.0846
  676MOL0     C89166   2.391   1.355  -0.141 -0.0803  0.3073 -0.7263
  676MOL0     H89167   1.955   1.306   0.079 -0.6276 -0.8220  1.2414
  676MOL0     H89168   1.709   1.247   0.096 -1.5184 -2.6332  0.2723
  676MOL0     H89169   1.511   1.028  -0.263 -1.3694  0.4729 -1.8217
  676MOL0     H89170   1.541   1.213  -0.276  0.9213  2.3490  2.4722
  676MOL0     H89171   1.316   1.231  -0.273 -2.3470 -0.6124 -0.0193
  676MOL0     H89172   1.332   1.202  -0.099  0.3333  0.7936 -0.6989
  676MOL0     H89173   1.266   0.967  -0.114 -2.8625  0.0668 -0.1492
  676MOL0     H89174   1.262   0.970  -0.290 -1.0414  1.6094 -1.0348
  676MOL0     H89175   1.104   1.130  -0.092  1.6646  0.2691  0.1853
  676MOL0     H89176   1.089   1.157  -0.272 -2.0488 -1.3578 -0.9953
  676MOL0     H89177   1.044   0.904  -0.128  4.7136  3.1583  0.5866
  676MOL0     H89178   1.027   0.910  -0.301 -0.4808  0.7774 -1.4113
  676MOL0     H89179   0.872   1.096  -0.285  2.0833 -0.5633 -2.4816
  676MOL0     H89180   0.855   1.049  -0.100  2.1666  2.5343 -0.7484
  676MOL0     H89181   0.731   0.931  -0.338 -1.0678 -0.8696  0.1995
  676MOL0     H89182   0.840   0.816  -0.278  3.0714  2.2369 -3.6435
  676MOL0     H89183   0.650   0.980  -0.096  1.2360  2.0091 -2.6234
  676MOL0     H89184   0.709   0.828  -0.059 -0.5032  0.8648  1.0074
  676MOL0     H89185   0.427   0.960  -0.279 -1.7858  0.0892  1.2515
  676MOL0     H89186   0.172   0.792  -0.239  1.8636  0.3903  0.9901
  676MOL0     H89187   0.200   0.634  -0.295  0.6359 -0.1203  1.6283
  676MOL0     H89188   0.258   0.731  -0.535  0.7275  0.4251  0.0735
  676MOL0     H89189   0.222   0.893  -0.474 -2.9771  0.6589  2.0048
  676MOL0     H89190   0.029   0.665  -0.484  2.1003 -0.7682 -1.4503
  676MOL0     H89191   0.006   0.832  -0.416 -0.0100  1.1725 -0.4485
  676MOL0     H89192   0.065   0.720  -0.694 -1.0992 -0.5333  0.2532
  676MOL0     H89193   0.022   0.894  -0.669  2.2664 -0.4433 -0.5049
  676MOL0     H89194  -0.395   0.705  -0.608 -3.5732  1.2133 -0.8051
  676MOL0     H89195  -0.555   0.759  -0.779 -0.2322  0.0979  3.1259
  676MOL0     H89196  -0.626   0.657  -1.249 -0.0644 -1.9473  1.8962
  676MOL0     H89197  -0.819   0.599  -1.381 -0.4622 -1.2375  0.5410
  676MOL0     H89198  -1.046   0.515  -1.469  2.6722  0.3495 -0.9041
  676MOL0     H89199  -1.002   0.695  -1.489 -1.0420  0.9122 -1.0134
  676MOL0     H89200  -1.195   0.675  -1.602 -1.6646  2.1708 -0.3857
  676MOL0     H89201  -1.234   0.771  -1.459 -2.7308 -0.5780  1.1047
  676MOL0     H89202  -1.371   0.621  -1.379 -2.6175 -0.1273 -2.1971
  676MOL0     H89203  -1.283   0.477  -1.435  0.0551 -1.2539 -0.7811
  676MOL0     H89204  -1.458   0.673  -1.603  0.5735  0.6420  3.1323
  676MOL0     H89205  -1.359   0.539  -1.669 -0.8613  0.2964 -1.4934
  676MOL0     H89206  -1.578   0.504  -1.466 -2.1144  0.9679 -0.5220
  676MOL0     H89207  -1.493   0.374  -1.544 -0.5078 -0.4257 -1.7877
  676MOL0     H89208  -1.568   0.462  -1.760 -0.0131  1.4515  0.6069
  676MOL0     H89209  -1.652   0.587  -1.666  1.0763  0.6567  0.1969
  676MOL0     H89210  -1.701   0.293  -1.600  1.9136  0.1163 -1.3706
  676MOL0     H89211  -1.817   0.419  -1.588  1.2030 -1.3666  2.6523
  676MOL0     H89212  -1.900   0.302  -1.769 -2.0520  1.6912 -1.2468
  676MOL0     H89213  -1.738   0.297  -1.851 -1.6020  0.6245 -1.5221
  676MOL0     H89214  -1.081   0.724  -1.073  0.2249  1.6164  0.2476
  676MOL0     H89215  -0.874   0.793  -0.936 -2.4439  4.2959 -0.6354
  676MOL0     H89216  -0.251   0.789  -1.068  0.7969  0.0844  0.5765
  676MOL0     H89217  -0.067   0.807  -0.891  0.5254  0.6842  1.5414
  676MOL0     H89218   1.748   1.058  -0.304 -0.4653  1.4912 -1.1750
  676MOL0     H89219   1.990   1.126  -0.290  1.5581  0.2901  1.0781
  676MOL0     H89220   2.444   1.157   0.128  1.7985  1.9694  2.4700
  676MOL0     H89221   2.666   1.197   0.069 -0.3118  0.2330  0.6889
  676MOL0     H89222   2.858   1.205  -0.070  0.1047 -0.1761 -0.9045
  676MOL0     H89223   2.857   1.334   0.060  3.3801  0.2524  0.5559
  676MOL0     H89224   3.022   1.307  -0.190  0.5214  1.5067 -0.6360
  676MOL0     H89225   2.979   1.473  -0.121  0.9812  1.0154  0.4078
  676MOL0     H89226   3.141   1.251   0.022  5.5706  1.5477  0.0577
  676MOL0     H89227   3.077   1.390   0.093 -0.8791 -1.3068  0.9383
  676MOL0     H89228   3.296   1.361  -0.123 -1.3182 -0.2844 -1.1677
  676MOL0     H89229   3.222   1.516  -0.095 -2.5365 -0.3338 -0.4139
  676MOL0     H89230   3.491   1.509   0.220 -1.4090  2.0764  1.1709
  676MOL0     H89231   2.548   1.482  -0.228  0.4925 -0.3013  1.2692
  676MOL0     H89232   2.306   1.402  -0.190 -1.5831 -1.1741  0.3607
  677MOL0     O89233  10.277   5.494   2.361  1.0009 -0.1450 -0.4520
  677MOL0     C89234  10.376   5.514   2.430  0.8308 -0.9292 -0.9795
  677MOL0     O89235  10.382   5.533   2.560  0.2975  0.8592 -0.6085
  677MOL0     C89236  10.268   5.507   2.632 -0.2799  0.5718  0.3777
  677MOL0     C89237  10.150   5.591   2.624  0.5658  0.4836  0.1484
  677MOL0     C89238  10.032   5.560   2.700 -0.5687 -0.4378 -0.2190
  677MOL0     C89239  10.039   5.451   2.793 -0.1793 -0.4501  0.0058
  677MOL0     O89240   9.940   5.420   2.884  0.2626  0.8824  0.4040
  677MOL0     C89241   9.811   5.488   2.877  0.6365  0.6456  0.1737
  677MOL0     C89242   9.728   5.480   3.004  0.1791 -0.9459  0.0862
  677MOL0     C89243   9.577   5.519   3.002  0.1264  0.0955  0.0650
  677MOL0     C89244   9.509   5.460   3.133 -0.5112 -0.7753 -0.4473
  677MOL0     C89245   9.378   5.526   3.154  0.0121  0.2180 -0.0638
  677MOL0     C89246   9.390   5.672   3.222  0.0995  0.2477  0.2210
  677MOL0     C89247   9.252   5.742   3.223  0.0523  0.9990 -0.0483
  677MOL0     C89248   9.138   5.666   3.293 -0.2231  0.2364 -0.0738
  677MOL0     N89249   9.013   5.741   3.310 -0.1836  0.7286  0.1445
  677MOL0     C89250   8.893   5.719   3.257  0.0716 -0.0155  0.3157
  677MOL0     C89251   8.805   5.810   3.310 -0.3240  0.2915 -0.1824
  677MOL0     C89252   8.658   5.790   3.262  0.1230 -0.1114 -0.9171
  677MOL0     C89253   8.557   5.859   3.348  0.4155 -0.2804  0.4910
  677MOL0     C89254   8.421   5.805   3.292  0.3088  0.6947 -0.2273
  677MOL0     C89255   8.301   5.878   3.358 -0.1779 -0.2579 -0.0250
  677MOL0     O89256   8.188   5.823   3.293  0.7011 -0.1078  0.4801
  677MOL0     C89257   8.062   5.843   3.349 -0.8300 -0.4502 -0.1687
  677MOL0     C89258   7.951   5.786   3.280  0.0800  0.0554  0.0385
  677MOL0     C89259   7.819   5.806   3.336  0.1603  0.8970  0.1576
  677MOL0     C89260   7.800   5.871   3.457  0.0671 -0.2709 -0.1601
  677MOL0     C89261   7.666   5.878   3.522 -0.3325 -0.1571  0.5272
  677MOL0     O89262   7.561   5.855   3.444  0.2081  0.0142 -0.8956
  677MOL0     C89263   7.438   5.838   3.513 -0.0868  0.3360  1.1236
  677MOL0     C89264   7.383   5.717   3.555  0.3073  0.9172  0.0924
  677MOL0     C89265   7.255   5.706   3.604  0.5140 -0.3251 -0.3191
  677MOL0     C89266   7.185   5.824   3.633  0.2612  0.6769  0.2686
  677MOL0     O89267   7.068   5.805   3.704  0.1286 -0.2831  0.1164
  677MOL0     C89268   6.989   5.922   3.748  0.2307 -0.3661  0.0245
  677MOL0     C89269   6.836   5.882   3.773 -0.3643 -0.1379  0.7379
  677MOL0     C89270   6.749   6.008   3.811  0.3897  0.1860  0.2269
  677MOL0     C89271   6.602   5.978   3.818  0.4007  0.5433  0.0949
  677MOL0     C89272   6.536   6.071   3.911  0.0757 -0.1420 -0.0381
  677MOL0     C89273   6.380   6.041   3.905 -0.6800 -0.1002 -0.1780
  677MOL0     C89274   6.300   6.138   3.988 -1.0741 -0.5619  0.1810
  677MOL0     C89275   6.343   6.153   4.130 -0.2573  0.4976  0.0563
  677MOL0    Cl89276   6.329   5.996   4.212  0.0682  0.1220  0.0775
  677MOL0     C89277   7.239   5.943   3.587  0.8755  1.2408 -0.6421
  677MOL0     C89278   7.364   5.951   3.530 -0.2688 -0.2016 -0.2519
  677MOL0     O89279   7.660   5.913   3.639  0.2112  0.0597 -0.3668
  677MOL0     C89280   7.912   5.933   3.524 -0.1110  1.1786  0.4259
  677MOL0     C89281   8.040   5.921   3.455  0.4702  1.0125 -0.3015
  677MOL0     N89282   8.879   5.905   3.380  0.9149 -0.2805  1.0502
  677MOL0     N89283   8.994   5.851   3.385 -0.8933  0.1049  0.2168
  677MOL0     C89284  10.159   5.375   2.801  0.5373 -0.0001  0.9778
  677MOL0     C89285  10.267   5.400   2.720  0.3810  0.2728  0.1979
  677MOL0     C89286  10.500   5.502   2.356  0.2117 -0.1459  0.3124
  677MOL0     C89287  10.510   5.495   2.210  0.4950  0.2763  0.5184
  677MOL0     C89288  10.631   5.463   2.146 -0.6887  0.3208 -0.3055
  677MOL0     C89289  10.753   5.444   2.222  0.1252  0.1624 -0.5576
  677MOL0     O89290  10.874   5.391   2.176 -0.6772 -1.0358  0.2556
  677MOL0     C89291  10.875   5.387   2.032  0.7200  0.8134 -0.6646
  677MOL0     C89292  11.013   5.344   1.989 -0.5083  0.4356  0.5112
  677MOL0     C89293  11.108   5.460   2.008 -0.4076 -0.3533 -0.1943
  677MOL0     C89294  11.249   5.398   2.022  0.3558  0.1143  0.3039
  677MOL0     C89295  11.353   5.499   2.027  0.2331  0.2472 -0.1259
  677MOL0     C89296  11.436   5.587   2.043  1.0568  0.0041  0.1909
  677MOL0     C89297  10.744   5.464   2.356 -0.1174 -0.9914 -0.3133
  677MOL0     C89298  10.623   5.500   2.420 -0.0984  0.4242  0.7310
  677MOL0     H89299  10.147   5.682   2.564 -2.5393 -0.6662 -1.6566
  677MOL0     H89300   9.936   5.608   2.689  0.0134  1.6150  2.4988
  677MOL0     H89301   9.753   5.449   2.793  0.4800 -2.5708  1.5978
  677MOL0     H89302   9.826   5.595   2.863  1.1164  1.4057  4.8348
  677MOL0     H89303   9.782   5.520   3.090 -0.3501 -1.7649  0.8216
  677MOL0     H89304   9.727   5.371   3.016 -0.5578 -1.2399 -2.0643
  677MOL0     H89305   9.514   5.500   2.914 -1.6549 -1.6224  1.6044
  677MOL0     H89306   9.580   5.629   3.005  0.2222  0.0788  0.8894
  677MOL0     H89307   9.487   5.353   3.134 -2.3465 -0.4335  0.4217
  677MOL0     H89308   9.571   5.482   3.220  0.2895  0.0264 -1.2008
  677MOL0     H89309   9.313   5.463   3.216 -2.1599  2.6528  0.3030
  677MOL0     H89310   9.334   5.528   3.054  0.7810  2.4607 -0.4101
  677MOL0     H89311   9.470   5.733   3.179 -0.2556 -0.1269 -1.0174
  677MOL0     H89312   9.416   5.647   3.325 -0.6076  3.3907  1.2707
  677MOL0     H89313   9.267   5.838   3.273  4.5765 -0.4138  1.8489
  677MOL0     H89314   9.216   5.753   3.120  0.5325  0.5504 -0.2684
  677MOL0     H89315   9.178   5.637   3.391  0.8994 -0.8503 -0.8324
  677MOL0     H89316   9.119   5.583   3.225 -0.6532  0.3683 -0.1205
  677MOL0     H89317   8.882   5.659   3.168 -1.1010 -2.0643  1.7515
  677MOL0     H89318   8.637   5.683   3.257 -0.5643 -0.0684  0.5596
  677MOL0     H89319   8.641   5.826   3.160 -0.4609 -0.1395 -0.8297
  677MOL0     H89320   8.563   5.968   3.352 -0.3486 -0.2688  2.8753
  677MOL0     H89321   8.562   5.818   3.449  1.4643  1.5418  1.2309
  677MOL0     H89322   8.425   5.830   3.186 -3.0429  1.5918 -0.2669
  677MOL0     H89323   8.415   5.696   3.307 -1.0048  0.0447 -4.3222
  677MOL0     H89324   8.306   5.987   3.365  0.6098 -0.3939  3.2556
  677MOL0     H89325   8.299   5.848   3.463  2.7417 -0.3083  0.1044
  677MOL0     H89326   7.953   5.736   3.183 -0.9491 -1.5865  0.8199
  677MOL0     H89327   7.728   5.761   3.296  0.5450  1.2621 -1.1894
  677MOL0     H89328   7.444   5.629   3.537 -0.2447  0.5801 -0.1737
  677MOL0     H89329   7.214   5.612   3.638 -0.1998  0.5835  1.4579
  677MOL0     H89330   6.984   6.006   3.678 -0.0715  1.0786  1.7032
  677MOL0     H89331   7.028   5.958   3.843  0.5293  0.1446 -0.2852
  677MOL0     H89332   6.836   5.813   3.858 -0.1029 -0.3912  0.5319
  677MOL0     H89333   6.805   5.824   3.686  0.8631  1.1305 -0.6114
  677MOL0     H89334   6.757   6.080   3.729 -2.3296  1.2244  0.7815
  677MOL0     H89335   6.778   6.055   3.905 -2.6864  1.4575  0.6624
  677MOL0     H89336   6.555   5.972   3.719 -1.2463 -1.6387  0.9171
  677MOL0     H89337   6.598   5.876   3.857  0.4805  0.1571 -0.8883
  677MOL0     H89338   6.564   6.174   3.884 -0.2615 -0.2617 -0.8769
  677MOL0     H89339   6.574   6.052   4.011 -2.3317  1.0362  1.1943
  677MOL0     H89340   6.360   5.936   3.930  0.1246 -0.5364 -1.2635
  677MOL0     H89341   6.341   6.053   3.804 -1.7104  3.2964  0.4978
  677MOL0     H89342   6.316   6.234   3.939  2.6324 -0.1699  1.8490
  677MOL0     H89343   6.197   6.104   3.975 -0.6069 -1.1063 -2.8023
  677MOL0     H89344   6.287   6.229   4.185  3.0585  0.5965  3.7336
  677MOL0     H89345   6.448   6.182   4.127  0.8109 -2.9609 -1.1228
  677MOL0     H89346   7.182   6.035   3.590  1.4980  1.6639 -1.2653
  677MOL0     H89347   7.420   6.031   3.483 -0.9404 -1.0975 -2.7544
  677MOL0     H89348   7.912   5.976   3.624 -0.0119  0.8991  0.5465
  677MOL0     H89349   8.123   5.964   3.510  3.3468 -1.4735 -2.4128
  677MOL0     H89350  10.170   5.287   2.864 -2.0547 -0.4234  0.9691
  677MOL0     H89351  10.361   5.350   2.744  0.2668 -1.1967 -2.0570
  677MOL0     H89352  10.421   5.501   2.149  0.1821  1.3810  1.0544
  677MOL0     H89353  10.625   5.458   2.038  2.1182  3.8277 -0.7971
  677MOL0     H89354  10.854   5.483   1.984  3.1058  0.9144 -1.6678
  677MOL0     H89355  10.813   5.303   2.002 -1.3170  0.9380  2.6673
  677MOL0     H89356  11.035   5.264   2.060 -1.4986  0.3263  0.7047
  677MOL0     H89357  11.012   5.310   1.885  0.5270 -0.0564  0.6488
  677MOL0     H89358  11.094   5.515   2.102  2.3809 -0.6829  0.4911
  677MOL0     H89359  11.096   5.530   1.925 -1.6620 -2.1188 -1.5863
  677MOL0     H89360  11.249   5.328   2.107  1.8619 -0.8077 -0.4097
  677MOL0     H89361  11.274   5.343   1.931 -1.8080  0.5329 -0.5949
  677MOL0     H89362  11.505   5.668   2.053  0.8304  0.4271 -1.3960
  677MOL0     H89363  10.832   5.446   2.417 -0.9151  0.2085  1.2290
  677MOL0     H89364  10.625   5.511   2.528 -0.0956  1.1926  0.6558
  678MOL0     O89365   0.404   0.339   2.606 -0.6073 -0.2498 -0.0615
  678MOL0     C89366   0.425   0.459   2.593 -0.2289 -0.2981 -0.4090
  678MOL0     O89367   0.324   0.558   2.567 -1.3534 -0.4204 -0.7634
  678MOL0     C89368   0.190   0.531   2.566  0.4762 -0.3796  0.1853
  678MOL0     C89369   0.105   0.622   2.504  0.8106  0.6145  0.0848
  678MOL0     C89370  -0.033   0.601   2.491 -0.1716  0.4740 -0.6910
  678MOL0     C89371  -0.090   0.487   2.553 -0.1079  0.3668  0.2424
  678MOL0     O89372  -0.227   0.482   2.565  0.1885 -0.3082  0.4275
  678MOL0     C89373  -0.292   0.379   2.635 -0.5705 -0.4612  0.6313
  678MOL0     C89374  -0.434   0.403   2.666 -0.6155  1.0058 -0.6224
  678MOL0     C89375  -0.476   0.343   2.801  0.2655  0.4882 -1.1577
  678MOL0     C89376  -0.631   0.342   2.811 -0.8436  0.2149 -0.8876
  678MOL0     C89377  -0.660   0.276   2.933 -0.1498  0.4236 -1.2176
  678MOL0     C89378  -0.809   0.283   2.975  0.5535 -0.4582 -0.8594
  678MOL0     C89379  -0.828   0.228   3.121  1.0024  0.4602 -0.0664
  678MOL0     C89380  -0.967   0.236   3.193  0.8421  0.0904  0.0059
  678MOL0     N89381  -1.062   0.149   3.115  0.1033 -0.3743  0.0902
  678MOL0     C89382  -1.086   0.016   3.146 -0.1119 -0.1971  0.2927
  678MOL0     C89383  -1.201  -0.018   3.085  1.1046  0.1921  0.4592
  678MOL0     C89384  -1.277  -0.149   3.072  0.2920  0.4935  0.0520
  678MOL0     C89385  -1.413  -0.138   3.145 -0.5821 -0.7459  0.4169
  678MOL0     C89386  -1.481  -0.280   3.139  0.1056  0.1691  0.5411
  678MOL0     C89387  -1.634  -0.276   3.183 -0.7974 -0.6150  0.4134
  678MOL0     O89388  -1.719  -0.216   3.082  0.4196 -0.0565  0.0812
  678MOL0     C89389  -1.846  -0.257   3.059  0.5802  0.3487  0.4866
  678MOL0     C89390  -1.910  -0.371   3.099 -0.3304  0.0434  0.2774
  678MOL0     C89391  -2.047  -0.385   3.087 -0.2709  0.6816 -0.6131
  678MOL0     C89392  -2.124  -0.290   3.019  0.4287 -0.3726  0.3432
  678MOL0     C89393  -2.275  -0.297   3.015 -0.6885  1.0118  0.0642
  678MOL0     O89394  -2.328  -0.424   3.054 -0.0431  0.5138 -0.3725
  678MOL0     C89395  -2.461  -0.437   3.057 -0.2774  0.6042  0.3790
  678MOL0     C89396  -2.544  -0.412   3.168 -0.8599 -0.4623 -0.6627
  678MOL0     C89397  -2.683  -0.404   3.164  0.3859 -0.3628  0.8943
  678MOL0     C89398  -2.748  -0.452   3.048  0.5769 -0.0901 -0.0513
  678MOL0     O89399  -2.885  -0.472   3.049 -0.3940  0.1017 -0.6362
  678MOL0     C89400  -2.963  -0.358   3.046 -0.3865 -0.7408 -0.3683
  678MOL0     C89401  -3.112  -0.394   3.008 -0.0477 -1.4760  0.1562
  678MOL0     C89402  -3.125  -0.401   2.854  0.1986  1.0743 -0.7193
  678MOL0     C89403  -3.080  -0.537   2.804 -0.7027  0.8402  0.3315
  678MOL0     C89404  -3.066  -0.530   2.654 -0.3961 -0.5112 -0.7968
  678MOL0     C89405  -3.040  -0.677   2.605  0.3264 -0.7412  0.8189
  678MOL0     C89406  -3.079  -0.680   2.454 -1.0647  0.5656 -0.0508
  678MOL0     C89407  -3.234  -0.672   2.436  0.0565  1.7201  0.4967
  678MOL0    Cl89408  -3.273  -0.684   2.263  0.3770  0.1512 -0.5557
  678MOL0     C89409  -2.674  -0.484   2.934  0.0501 -0.1032 -0.8734
  678MOL0     C89410  -2.533  -0.474   2.935  0.1092  0.4225 -0.2324
  678MOL0     O89411  -2.336  -0.201   2.965  0.3676 -0.5557 -0.2808
  678MOL0     C89412  -2.059  -0.184   2.962 -0.3923  0.0520 -0.0773
  678MOL0     C89413  -1.925  -0.168   2.985 -0.1255 -0.2851 -0.0619
  678MOL0     N89414  -1.232   0.088   2.993 -0.3563 -0.1621 -0.3896
  678MOL0     N89415  -1.148   0.188   3.022 -0.8589 -0.5362 -0.0623
  678MOL0     C89416  -0.009   0.398   2.622  0.5996 -0.5296 -0.0805
  678MOL0     C89417   0.127   0.425   2.626 -0.2176 -1.0580  0.6412
  678MOL0     C89418   0.569   0.507   2.612  0.8214  0.6591 -0.8968
  678MOL0     C89419   0.595   0.647   2.606  0.0984 -0.6770 -0.1912
  678MOL0     C89420   0.733   0.693   2.602 -0.5611  0.3874  0.3526
  678MOL0     C89421   0.835   0.600   2.590  0.7917  0.2765 -0.0142
  678MOL0     O89422   0.950   0.664   2.573  0.0607  0.4850 -0.1272
  678MOL0     C89423   1.070   0.603   2.583 -0.9926  0.9120 -0.0175
  678MOL0     C89424   1.109   0.563   2.729  0.7128  1.2320 -0.7503
  678MOL0     C89425   1.230   0.471   2.728 -0.5145  0.2519  0.0260
  678MOL0     C89426   1.278   0.417   2.862  0.4523 -0.5741 -0.2905
  678MOL0     C89427   1.395   0.334   2.850 -1.0350  0.5713 -0.3396
  678MOL0     C89428   1.472   0.246   2.841 -0.1493 -1.0794  0.0833
  678MOL0     C89429   0.803   0.461   2.589 -0.5166 -0.3349 -0.4834
  678MOL0     C89430   0.672   0.409   2.603 -0.1083  0.0154  0.5745
  678MOL0     H89431   0.133   0.703   2.437 -0.9518  0.6381 -0.6791
  678MOL0     H89432  -0.098   0.662   2.430 -0.0512 -0.0354 -1.3436
  678MOL0     H89433  -0.239   0.355   2.727 -1.4743  2.0830  1.9192
  678MOL0     H89434  -0.282   0.291   2.571  0.5739  1.1840 -1.6118
  678MOL0     H89435  -0.497   0.355   2.591 -0.2382 -1.1513  0.3557
  678MOL0     H89436  -0.446   0.512   2.675  2.2240  1.3206  0.2187
  678MOL0     H89437  -0.438   0.410   2.878  2.6524  0.7967 -2.4918
  678MOL0     H89438  -0.429   0.246   2.815  1.9959  1.6217  1.7921
  678MOL0     H89439  -0.666   0.446   2.812 -1.3452  0.0788 -2.1759
  678MOL0     H89440  -0.672   0.293   2.723 -1.0155 -1.5453  0.1374
  678MOL0     H89441  -0.608   0.323   3.017 -1.1919  1.1498 -0.9636
  678MOL0     H89442  -0.635   0.169   2.932  4.2389  1.1781  1.1801
  678MOL0     H89443  -0.875   0.219   2.916 -1.8453  0.9339  0.1627
  678MOL0     H89444  -0.841   0.388   2.972 -1.5610 -0.9472  1.4640
  678MOL0     H89445  -0.788   0.127   3.133  3.7628  1.4118 -0.5846
  678MOL0     H89446  -0.760   0.280   3.189 -1.6944  2.7811  1.0944
  678MOL0     H89447  -1.005   0.338   3.192 -0.8935 -0.4860 -2.3682
  678MOL0     H89448  -0.949   0.201   3.295  2.7617 -1.8116 -0.8977
  678MOL0     H89449  -1.025  -0.049   3.209  1.0928  0.8772  0.2788
  678MOL0     H89450  -1.214  -0.229   3.112 -1.1554 -0.4458  0.5197
  678MOL0     H89451  -1.286  -0.168   2.965  2.8186  1.7301 -0.4578
  678MOL0     H89452  -1.484  -0.075   3.092 -1.0211 -1.8661 -0.3807
  678MOL0     H89453  -1.387  -0.108   3.247 -0.0573 -1.9404  0.6600
  678MOL0     H89454  -1.479  -0.325   3.039 -2.0232 -1.1008  0.9890
  678MOL0     H89455  -1.424  -0.341   3.209 -0.9843 -2.7674 -0.9628
  678MOL0     H89456  -1.630  -0.218   3.276 -3.1208  3.7169 -1.8223
  678MOL0     H89457  -1.679  -0.373   3.206 -0.6154 -0.4601  1.4745
  678MOL0     H89458  -1.843  -0.442   3.147 -2.4876  0.2768  3.9972
  678MOL0     H89459  -2.080  -0.479   3.131  0.0719 -0.9921 -3.6833
  678MOL0     H89460  -2.492  -0.399   3.262 -1.2391  1.5336 -0.6894
  678MOL0     H89461  -2.722  -0.405   3.266 -0.0744  1.2381  0.7595
  678MOL0     H89462  -2.921  -0.296   2.966 -0.6592  0.5910  0.4848
  678MOL0     H89463  -2.952  -0.305   3.141  1.3338  2.3061 -2.1215
  678MOL0     H89464  -3.177  -0.319   3.054 -1.3189 -2.6428  0.3081
  678MOL0     H89465  -3.136  -0.488   3.059 -1.4272  0.4085  3.3331
  678MOL0     H89466  -3.056  -0.324   2.818  2.7053 -0.1344  1.1725
  678MOL0     H89467  -3.228  -0.387   2.819  0.5734  2.4425 -1.3331
  678MOL0     H89468  -2.988  -0.561   2.858  0.2575  2.7172 -0.3916
  678MOL0     H89469  -3.157  -0.604   2.842  2.3631 -2.1846  1.7373
  678MOL0     H89470  -2.991  -0.460   2.616 -1.1930  1.4983  1.1670
  678MOL0     H89471  -3.163  -0.488   2.625  0.6483  1.2066 -1.9567
  678MOL0     H89472  -3.102  -0.754   2.651 -0.1600 -0.6514  0.3227
  678MOL0     H89473  -2.933  -0.687   2.626  0.3971  0.5748  1.1409
  678MOL0     H89474  -3.043  -0.594   2.397 -1.0328 -1.4939 -3.4241
  678MOL0     H89475  -3.038  -0.773   2.412 -0.0058  0.9013  0.2129
  678MOL0     H89476  -3.273  -0.579   2.477 -1.7187  1.0433  0.4509
  678MOL0     H89477  -3.283  -0.752   2.492  1.5970  0.9881  0.8691
  678MOL0     H89478  -2.709  -0.548   2.854 -0.6172 -0.9537  0.0831
  678MOL0     H89479  -2.480  -0.504   2.845 -1.5421 -1.5593 -0.6027
  678MOL0     H89480  -2.120  -0.105   2.920 -1.9883 -0.3861  1.3195
  678MOL0     H89481  -1.875  -0.077   2.952  2.2505 -0.6859  2.1435
  678MOL0     H89482  -0.046   0.321   2.689 -1.1938  1.8301  1.8412
  678MOL0     H89483   0.188   0.368   2.696 -1.8655 -5.1923 -0.9636
  678MOL0     H89484   0.516   0.719   2.622  0.5238 -0.9319  4.1561
  678MOL0     H89485   0.760   0.798   2.616 -2.3414  0.7259  1.6125
  678MOL0     H89486   1.145   0.671   2.542  1.1950 -1.3148  0.0436
  678MOL0     H89487   1.078   0.518   2.514 -1.1068 -1.2753  2.4996
  678MOL0     H89488   1.123   0.653   2.791 -0.1086 -0.0290  1.3714
  678MOL0     H89489   1.029   0.509   2.781  0.6207 -0.6273 -2.6996
  678MOL0     H89490   1.315   0.511   2.673 -0.2198  0.9773  0.9854
  678MOL0     H89491   1.194   0.384   2.672  0.4152 -0.0941 -0.0498
  678MOL0     H89492   1.291   0.500   2.932 -0.6296  1.4934 -2.3976
  678MOL0     H89493   1.200   0.358   2.912 -0.0770 -1.5449 -2.1588
  678MOL0     H89494   1.551   0.174   2.836  0.8755 -0.0594  1.0382
  678MOL0     H89495   0.880   0.385   2.582  0.2863  0.2907  1.0674
  678MOL0     H89496   0.652   0.302   2.602 -2.0455  0.3358 -0.7606
  679MOL0     O89497  10.835   7.271   8.521  0.1430  0.3548  0.0296
  679MOL0     C89498  10.797   7.236   8.630 -1.4596 -1.0119 -0.8410
  679MOL0     O89499  10.668   7.208   8.666 -0.8480 -0.3381 -0.0281
  679MOL0     C89500  10.567   7.188   8.573  0.3615 -0.4162 -0.4794
  679MOL0     C89501  10.556   7.252   8.452 -0.1795  0.9527  0.3473
  679MOL0     C89502  10.456   7.223   8.356 -0.7036 -0.7750 -0.6470
  679MOL0     C89503  10.370   7.121   8.390  0.1780  0.7035  0.1840
  679MOL0     O89504  10.287   7.069   8.287 -0.1116 -0.5530 -0.5006
  679MOL0     C89505  10.144   7.079   8.308 -0.7227 -0.4977  0.6304
  679MOL0     C89506  10.072   6.982   8.209 -0.2523  0.5089 -0.9116
  679MOL0     C89507   9.918   6.972   8.227 -0.5345 -0.2670  0.1849
  679MOL0     C89508   9.854   7.102   8.193  0.8572 -0.0891 -0.6846
  679MOL0     C89509   9.710   7.111   8.245 -0.3891 -0.0968  0.5043
  679MOL0     C89510   9.616   7.014   8.173 -0.2687  0.2385 -0.5513
  679MOL0     C89511   9.476   7.051   8.203  0.2084  0.3940  0.4425
  679MOL0     C89512   9.374   6.988   8.104 -0.9649 -0.3202 -0.7525
  679MOL0     N89513   9.228   7.011   8.126 -0.2999 -0.8486 -1.1983
  679MOL0     C89514   9.157   6.969   8.236  0.5684 -1.0110  0.3175
  679MOL0     C89515   9.028   7.003   8.212 -1.2491  0.4166  0.0074
  679MOL0     C89516   8.918   6.958   8.306  0.0484  0.5962 -0.2866
  679MOL0     C89517   8.783   6.971   8.238  0.7736 -0.5049 -0.7521
  679MOL0     C89518   8.666   6.925   8.329  0.0244 -0.3347  0.5808
  679MOL0     C89519   8.535   6.918   8.249 -0.3007 -0.2114  0.8890
  679MOL0     O89520   8.433   6.897   8.348 -0.1976  0.6968 -0.0291
  679MOL0     C89521   8.311   6.870   8.302 -0.4156  0.5046 -0.4528
  679MOL0     C89522   8.274   6.801   8.186 -0.0917 -0.1462  0.6090
  679MOL0     C89523   8.140   6.804   8.149  0.1221  0.1526 -0.7095
  679MOL0     C89524   8.037   6.864   8.230  0.6445  0.4050  0.5190
  679MOL0     C89525   7.892   6.870   8.188  0.9245 -0.2557 -0.3663
  679MOL0     O89526   7.809   6.933   8.271 -0.3664 -0.1456 -0.1522
  679MOL0     C89527   7.678   6.934   8.227 -0.2515 -0.3069 -0.1081
  679MOL0     C89528   7.590   6.875   8.311 -0.0277 -0.6747 -1.0175
  679MOL0     C89529   7.453   6.876   8.280  0.8537  0.5884  0.2596
  679MOL0     C89530   7.401   6.960   8.181 -0.6567  0.8369  0.1358
  679MOL0     O89531   7.264   6.963   8.174 -0.5026 -0.1598 -0.3607
  679MOL0     C89532   7.198   7.041   8.073 -0.3035 -0.8397 -0.0825
  679MOL0     C89533   7.055   7.048   8.096  1.2010 -0.1758  0.2130
  679MOL0     C89534   6.970   7.126   7.985  0.3519  0.7948  0.9337
  679MOL0     C89535   6.822   7.144   8.022  0.5572  0.0411 -0.5001
  679MOL0     C89536   6.743   7.206   7.908  0.3243 -0.3809  0.7499
  679MOL0     C89537   6.599   7.167   7.906  0.6800 -1.1065  0.0191
  679MOL0     C89538   6.515   7.266   7.814 -0.0418  0.0379  0.1796
  679MOL0     C89539   6.372   7.194   7.800  0.1106  0.0639  0.0605
  679MOL0    Cl89540   6.276   7.303   7.697  0.0623  0.7883  0.1793
  679MOL0     C89541   7.491   7.025   8.100 -0.3570  0.4171  0.6329
  679MOL0     C89542   7.628   7.013   8.124 -0.0576  0.1112 -0.1766
  679MOL0     O89543   7.859   6.801   8.091 -0.0337 -0.6239  0.2541
  679MOL0     C89544   8.079   6.906   8.353 -0.2436 -0.0946  0.1415
  679MOL0     C89545   8.213   6.906   8.398  1.1756 -0.1270  0.0033
  679MOL0     N89546   9.029   7.068   8.092  1.2616 -0.8215 -0.5675
  679MOL0     N89547   9.142   7.062   8.038  0.0249  0.2495  0.7491
  679MOL0     C89548  10.385   7.050   8.503  0.6140 -0.1021  0.3482
  679MOL0     C89549  10.482   7.088   8.600  0.7622  0.1171 -0.3181
  679MOL0     C89550  10.906   7.250   8.727  0.0135  0.5369  0.2834
  679MOL0     C89551  11.041   7.281   8.696  0.2023 -0.1607  0.7792
  679MOL0     C89552  11.147   7.280   8.792  0.0348 -0.1910 -1.2314
  679MOL0     C89553  11.107   7.246   8.924  0.8754 -0.5360  0.4989
  679MOL0     O89554  11.182   7.217   9.029  0.0909  0.1295  0.6537
  679MOL0     C89555  11.316   7.265   9.016 -0.4270  0.3365 -0.5818
  679MOL0     C89556  11.408   7.142   8.980  0.3996 -0.5843  0.3689
  679MOL0     C89557  11.558   7.162   8.997 -0.3241 -0.6999  0.8440
  679MOL0     C89558  11.648   7.047   8.942 -0.0564 -0.2028  0.0952
  679MOL0     C89559  11.789   7.075   8.960 -0.9370 -0.4722 -0.0861
  679MOL0     C89560  11.907   7.074   8.966  0.2680 -0.2063 -0.4007
  679MOL0     C89561  10.976   7.205   8.954  0.3123 -1.4017  0.9433
  679MOL0     C89562  10.875   7.214   8.853 -0.2009 -0.1802 -0.2886
  679MOL0     H89563  10.624   7.333   8.429  2.2704 -0.8212  0.8686
  679MOL0     H89564  10.429   7.283   8.269 -1.7933  1.9832  1.4565
  679MOL0     H89565  10.105   7.179   8.287 -2.3140 -1.2031  0.0198
  679MOL0     H89566  10.124   7.051   8.413  0.3937 -0.9493  0.7343
  679MOL0     H89567  10.118   6.882   8.211 -2.6336 -0.6416 -0.5399
  679MOL0     H89568  10.069   7.017   8.105  0.7124  2.2731 -0.3716
  679MOL0     H89569   9.893   6.953   8.332 -2.0155  2.3505  0.3891
  679MOL0     H89570   9.867   6.899   8.164 -0.3749 -0.7107  0.5676
  679MOL0     H89571   9.899   7.191   8.237 -1.8843  1.0600  0.0178
  679MOL0     H89572   9.849   7.123   8.086 -0.9362  1.5688 -0.3234
  679MOL0     H89573   9.673   7.214   8.237 -0.9796 -0.3448 -0.1259
  679MOL0     H89574   9.716   7.085   8.351 -3.3456 -0.1371  0.7636
  679MOL0     H89575   9.630   6.914   8.215 -1.1863  1.6689  3.6763
  679MOL0     H89576   9.634   7.022   8.065 -1.8510 -0.3487 -0.8822
  679MOL0     H89577   9.459   7.011   8.303  2.8306  1.0071  1.2295
  679MOL0     H89578   9.461   7.159   8.205  1.6746  0.6015  1.7051
  679MOL0     H89579   9.387   6.879   8.103 -1.3414 -0.3819  0.1977
  679MOL0     H89580   9.398   7.017   8.001 -1.6866  1.4773 -0.4566
  679MOL0     H89581   9.183   6.911   8.324  2.6662 -0.0784  0.3654
  679MOL0     H89582   8.923   7.021   8.395 -0.6171  2.4450 -1.5083
  679MOL0     H89583   8.930   6.855   8.343 -1.0979  1.2073  1.9966
  679MOL0     H89584   8.788   6.902   8.153 -0.8244 -1.1878 -0.3405
  679MOL0     H89585   8.770   7.070   8.193  2.2378 -0.5343 -1.2908
  679MOL0     H89586   8.692   6.826   8.367 -1.9429 -0.5281  1.5583
  679MOL0     H89587   8.648   6.994   8.412 -0.9874  0.4092 -0.2420
  679MOL0     H89588   8.546   6.841   8.172 -3.1895  0.7318 -0.5868
  679MOL0     H89589   8.508   7.010   8.196  0.3268 -0.2580  0.4735
  679MOL0     H89590   8.340   6.759   8.112 -0.0020 -0.3561  0.8091
  679MOL0     H89591   8.127   6.776   8.045 -2.0471  1.9542 -1.0168
  679MOL0     H89592   7.627   6.832   8.404 -1.8042 -0.5834 -0.2410
  679MOL0     H89593   7.388   6.821   8.348 -0.7097  1.6265 -0.3539
  679MOL0     H89594   7.226   7.002   7.975  2.3871 -0.6606  0.5355
  679MOL0     H89595   7.227   7.146   8.078 -2.1778 -0.3384  2.9870
  679MOL0     H89596   7.033   7.095   8.192 -0.7666  0.0730 -0.3221
  679MOL0     H89597   7.016   6.946   8.107 -1.0112  0.7961  2.1899
  679MOL0     H89598   6.965   7.073   7.889  3.4745  0.0690  1.0593
  679MOL0     H89599   7.027   7.219   7.979  1.7324 -0.0823 -0.3636
  679MOL0     H89600   6.787   7.044   8.048 -0.8725  0.1384 -1.9283
  679MOL0     H89601   6.819   7.212   8.108  1.1069 -1.2420  0.5829
  679MOL0     H89602   6.792   7.183   7.812  0.9821  0.4487  0.8714
  679MOL0     H89603   6.745   7.315   7.916 -0.6969 -0.3095  0.1138
  679MOL0     H89604   6.560   7.169   8.008 -1.7098 -0.8239 -0.8329
  679MOL0     H89605   6.594   7.067   7.862 -2.4520 -1.4523  0.9351
  679MOL0     H89606   6.496   7.364   7.859 -2.8655 -0.6368  0.6707
  679MOL0     H89607   6.566   7.284   7.719 -0.6554 -2.3123 -0.6608
  679MOL0     H89608   6.323   7.184   7.898 -0.0322  1.4536  0.1523
  679MOL0     H89609   6.383   7.100   7.745  0.0559 -0.7472  1.3880
  679MOL0     H89610   7.454   7.081   8.015 -3.2145 -0.5071  1.1583
  679MOL0     H89611   7.696   7.058   8.052  0.3521  1.0193  0.7533
  679MOL0     H89612   8.001   6.938   8.422 -0.2345 -1.7735  0.9964
  679MOL0     H89613   8.234   6.941   8.499  0.4077  2.0470 -0.5312
  679MOL0     H89614  10.323   6.961   8.514  1.5551 -0.6694  1.2903
  679MOL0     H89615  10.472   7.042   8.698 -0.8689  0.5216 -0.2704
  679MOL0     H89616  11.064   7.295   8.591 -2.6515  0.8427  0.2176
  679MOL0     H89617  11.249   7.276   8.755  0.5604 -1.2150  0.2312
  679MOL0     H89618  11.334   7.293   9.120 -0.7285  0.6968 -0.6235
  679MOL0     H89619  11.333   7.353   8.953 -1.4324  2.3410  1.7675
  679MOL0     H89620  11.384   7.063   9.052 -2.9514  0.7445  0.8771
  679MOL0     H89621  11.388   7.105   8.879 -3.6826 -1.0268  1.1559
  679MOL0     H89622  11.586   7.178   9.102  2.8710 -1.5666  0.2419
  679MOL0     H89623  11.579   7.255   8.943 -2.4697  0.1296  1.3310
  679MOL0     H89624  11.622   6.954   8.993  0.1578  1.5124  3.5855
  679MOL0     H89625  11.638   7.036   8.833  0.8935  0.1859 -0.0386
  679MOL0     H89626  12.011   7.094   8.984 -0.0665  1.4053 -0.0747
  679MOL0     H89627  10.947   7.175   9.054 -1.5840  0.8936  1.1784
  679MOL0     H89628  10.777   7.172   8.874 -1.0206 -0.8755 -4.6104
  680MOL0     O89629   9.124   9.299   1.570  0.1199  0.1231  0.3697
  680MOL0     C89630   9.211   9.347   1.505  0.1489 -0.5341  0.0290
  680MOL0     O89631   9.205   9.464   1.442 -0.0099  0.0967  0.1711
  680MOL0     C89632   9.097   9.546   1.481 -0.1971 -0.5291  0.4110
  680MOL0     C89633   9.124   9.674   1.531  0.2126  1.2361  0.1600
  680MOL0     C89634   9.033   9.772   1.548 -0.6480  0.5924 -0.2214
  680MOL0     C89635   8.899   9.737   1.545 -0.7892 -0.1420  1.1368
  680MOL0     O89636   8.819   9.844   1.590  0.6290 -0.0111  0.1270
  680MOL0     C89637   8.703   9.822   1.677  0.2231 -0.4641  0.5588
  680MOL0     C89638   8.608   9.947   1.656 -0.6870 -0.6990  0.2681
  680MOL0     C89639   8.472   9.931   1.717 -0.2152 -1.2276  0.2122
  680MOL0     C89640   8.379  10.047   1.693  0.8958  0.1318  0.5079
  680MOL0     C89641   8.227  10.016   1.699 -0.2941  0.3826 -0.1424
  680MOL0     C89642   8.135  10.136   1.669 -0.1740  0.4375  0.0156
  680MOL0     C89643   7.996  10.109   1.723  1.0140 -0.0103 -0.9202
  680MOL0     C89644   7.983  10.131   1.876  0.6310 -0.3841  0.7995
  680MOL0     N89645   7.829  10.163   1.895  1.0768  1.2444 -1.0308
  680MOL0     C89646   7.780  10.292   1.915 -0.3516  1.4534  2.0329
  680MOL0     C89647   7.643  10.270   1.911 -1.1506 -0.3369  0.4073
  680MOL0     C89648   7.541  10.375   1.950 -0.4742  0.0594 -0.0333
  680MOL0     C89649   7.401  10.329   1.901  0.2037 -1.3058 -0.6668
  680MOL0     C89650   7.296  10.437   1.930  0.4307 -0.7008 -0.3797
  680MOL0     C89651   7.159  10.401   1.877 -0.4204  0.1365  0.4973
  680MOL0     O89652   7.058  10.485   1.919  0.0547  0.0279  0.5451
  680MOL0     C89653   6.943  10.502   1.850 -0.0363  0.5222 -0.6178
  680MOL0     C89654   6.868  10.398   1.812  0.5739  0.7245 -0.3336
  680MOL0     C89655   6.740  10.418   1.747  0.6919  0.2712 -0.2685
  680MOL0     C89656   6.695  10.552   1.727 -0.4526  0.9658 -0.2143
  680MOL0     C89657   6.558  10.580   1.691  0.1934 -0.0601  0.2151
  680MOL0     O89658   6.537  10.697   1.631  0.2253 -0.2966  0.3153
  680MOL0     C89659   6.416  10.733   1.572 -0.2495  0.0585 -0.0101
  680MOL0     C89660   6.286  10.696   1.618 -0.9053 -0.5290 -0.7721
  680MOL0     C89661   6.169  10.722   1.559  0.2200  0.0271 -0.0960
  680MOL0     C89662   6.166  10.803   1.441  0.6198  0.3553 -0.1573
  680MOL0     O89663   6.058  10.849   1.378  0.5514  0.1766 -0.2961
  680MOL0     C89664   5.956  10.752   1.358 -0.1157  0.4076  0.1528
  680MOL0     C89665   6.022  10.618   1.298 -0.0332 -0.1036  0.7574
  680MOL0     C89666   5.907  10.545   1.235 -0.0240  0.6370  0.2693
  680MOL0     C89667   5.812  10.467   1.331 -0.4802  0.0617 -0.9328
  680MOL0     C89668   5.733  10.372   1.236  0.3609  0.8828  0.1658
  680MOL0     C89669   5.589  10.428   1.217 -0.0982  0.0705 -0.4868
  680MOL0     C89670   5.502  10.376   1.092 -0.3801 -0.8115  0.0021
  680MOL0     C89671   5.349  10.382   1.116 -0.6187  0.9034  0.3120
  680MOL0    Cl89672   5.302  10.535   1.195 -0.0669 -0.1960 -0.0081
  680MOL0     C89673   6.289  10.850   1.393 -0.2792 -0.0343  0.2134
  680MOL0     C89674   6.407  10.817   1.462  0.4128 -0.0585 -0.4351
  680MOL0     O89675   6.475  10.491   1.706  0.1677  0.0850 -0.1932
  680MOL0     C89676   6.777  10.655   1.770 -0.8880 -0.5763  0.2361
  680MOL0     C89677   6.898  10.627   1.825  0.6342  0.4119  0.2229
  680MOL0     N89678   7.619  10.130   1.888  0.8152 -0.0632 -0.2450
  680MOL0     N89679   7.731  10.072   1.897  0.3120  0.7328  0.6842
  680MOL0     C89680   8.857   9.617   1.500 -0.4756  0.4615  0.1236
  680MOL0     C89681   8.952   9.510   1.474 -0.1007  0.8478  0.4616
  680MOL0     C89682   9.328   9.273   1.482 -0.2414  0.3028  0.6735
  680MOL0     C89683   9.411   9.293   1.364  0.3016  0.3439  0.1009
  680MOL0     C89684   9.536   9.226   1.355  0.3902  0.2344  0.4761
  680MOL0     C89685   9.587   9.152   1.469  0.6559 -0.9047 -0.8131
  680MOL0     O89686   9.712   9.093   1.485  0.1140 -0.6266 -0.4869
  680MOL0     C89687   9.813   9.137   1.404 -0.1524 -0.8231 -0.3073
  680MOL0     C89688   9.957   9.102   1.452  0.1546 -0.2991  0.3822
  680MOL0     C89689   9.980   9.140   1.602 -1.0548 -0.1133  0.8898
  680MOL0     C89690  10.117   9.091   1.649 -0.5647  0.0506  0.3642
  680MOL0     C89691  10.227   9.122   1.555 -0.3825 -0.8161  0.7507
  680MOL0     C89692  10.322   9.140   1.477 -0.2429 -0.5179 -0.1950
  680MOL0     C89693   9.504   9.130   1.580 -0.1095  0.2352  0.3822
  680MOL0     C89694   9.382   9.191   1.587 -0.8789 -0.1472  0.6532
  680MOL0     H89695   9.227   9.702   1.554  0.8858  0.8652 -2.1781
  680MOL0     H89696   9.072   9.871   1.570  2.5468 -0.6351  0.1393
  680MOL0     H89697   8.742   9.808   1.778  0.1084 -0.6029  0.5842
  680MOL0     H89698   8.647   9.733   1.647 -0.8539  0.6730 -1.0019
  680MOL0     H89699   8.597   9.957   1.547 -1.0283 -0.5049  0.3186
  680MOL0     H89700   8.658  10.029   1.709  1.5266 -0.5075 -1.9134
  680MOL0     H89701   8.480   9.921   1.826  0.5800  1.5254  0.4798
  680MOL0     H89702   8.435   9.835   1.679 -0.8990 -1.1840  0.7589
  680MOL0     H89703   8.393  10.121   1.772  0.4422  1.5326 -0.6760
  680MOL0     H89704   8.397  10.106   1.603 -0.0244  3.6701  2.4491
  680MOL0     H89705   8.204   9.990   1.803 -0.7006 -0.3939 -0.4211
  680MOL0     H89706   8.211   9.930   1.634 -1.3260 -0.0095  0.6012
  680MOL0     H89707   8.135  10.140   1.560  0.4199 -2.4424 -0.1672
  680MOL0     H89708   8.180  10.228   1.708  0.8603 -0.4254  0.9276
  680MOL0     H89709   7.919  10.171   1.676 -0.7523 -0.7114  0.8885
  680MOL0     H89710   7.965  10.008   1.691  2.2337 -1.2558  1.5634
  680MOL0     H89711   8.050  10.200   1.929 -1.5460  1.2450  1.6217
  680MOL0     H89712   8.021  10.041   1.924 -1.4143 -2.1105 -0.6537
  680MOL0     H89713   7.848  10.376   1.922  2.4093 -0.1319 -2.0242
  680MOL0     H89714   7.567  10.469   1.900  5.7067 -0.8247  0.7965
  680MOL0     H89715   7.538  10.387   2.058  1.2107  0.3759 -0.0003
  680MOL0     H89716   7.364  10.245   1.961 -1.6921  0.2346  0.4483
  680MOL0     H89717   7.396  10.290   1.799 -2.7705  0.5762 -1.3465
  680MOL0     H89718   7.283  10.460   2.036 -0.3613  2.5459 -1.0554
  680MOL0     H89719   7.332  10.534   1.893  2.0073 -1.7592 -1.7865
  680MOL0     H89720   7.137  10.298   1.905 -0.7981 -1.2071 -3.9713
  680MOL0     H89721   7.168  10.406   1.768  1.2690  1.2446  0.6470
  680MOL0     H89722   6.898  10.298   1.841  0.6871  1.2188  1.3443
  680MOL0     H89723   6.682  10.328   1.730 -2.3658  2.1339 -0.4261
  680MOL0     H89724   6.279  10.636   1.708  0.7032  1.9259  1.1195
  680MOL0     H89725   6.087  10.682   1.618  0.6602 -1.0993 -0.2084
  680MOL0     H89726   5.885  10.783   1.280 -1.1219  0.9396  1.2500
  680MOL0     H89727   5.902  10.737   1.451  2.0814 -3.9495  0.9926
  680MOL0     H89728   6.081  10.575   1.379 -0.4478 -0.5385  0.8279
  680MOL0     H89729   6.094  10.646   1.221 -1.2368 -1.4883 -0.9288
  680MOL0     H89730   5.951  10.468   1.171 -1.8457 -0.3815  0.1728
  680MOL0     H89731   5.845  10.608   1.170  0.9244  1.1137 -0.1865
  680MOL0     H89732   5.880  10.412   1.397 -0.1188 -0.2711 -1.5634
  680MOL0     H89733   5.756  10.534   1.396 -2.7174 -1.2801 -1.3899
  680MOL0     H89734   5.722  10.272   1.280  0.6298 -0.2011 -2.0826
  680MOL0     H89735   5.775  10.345   1.139  0.7407  0.8187  0.3469
  680MOL0     H89736   5.602  10.537   1.219 -0.1490  0.1545  3.1371
  680MOL0     H89737   5.534  10.424   1.312  0.9447  1.9207  0.2428
  680MOL0     H89738   5.518  10.451   1.014 -2.0131 -0.1053  0.3108
  680MOL0     H89739   5.535  10.276   1.060  2.9231 -0.2407  1.3060
  680MOL0     H89740   5.324  10.292   1.173 -1.3421  0.0641 -1.2600
  680MOL0     H89741   5.289  10.381   1.025  1.1824  2.3257 -0.9625
  680MOL0     H89742   6.298  10.905   1.299 -1.4458 -0.1492  0.0205
  680MOL0     H89743   6.498  10.859   1.422  1.7690 -1.3401  1.1296
  680MOL0     H89744   6.744  10.758   1.757 -0.7921 -0.0932  3.1723
  680MOL0     H89745   6.955  10.711   1.862 -0.5029  0.8941  0.9219
  680MOL0     H89746   8.750   9.602   1.487 -0.5946  0.8092  0.6697
  680MOL0     H89747   8.927   9.412   1.437 -0.9519  1.1696  0.1755
  680MOL0     H89748   9.381   9.359   1.283  3.0598  0.5850 -0.8344
  680MOL0     H89749   9.582   9.229   1.257 -1.3050 -2.0299 -0.4715
  680MOL0     H89750   9.802   9.244   1.389 -0.7939 -1.1063 -2.0872
  680MOL0     H89751   9.793   9.105   1.301  1.1550 -0.9864 -0.5326
  680MOL0     H89752   9.966   8.993   1.447 -1.1708 -0.4894  1.5828
  680MOL0     H89753  10.028   9.146   1.381  0.4512  0.9557  1.4339
  680MOL0     H89754   9.889   9.116   1.657 -2.6759 -0.6631 -1.8574
  680MOL0     H89755   9.990   9.249   1.605 -3.2590  0.2380 -1.4868
  680MOL0     H89756  10.146   9.137   1.744  0.5666  0.5160 -0.1796
  680MOL0     H89757  10.115   8.983   1.661 -0.4545 -0.1313 -1.0578
  680MOL0     H89758  10.407   9.155   1.414 -1.6487 -1.0449 -2.3111
  680MOL0     H89759   9.538   9.066   1.661  1.7468 -1.2557 -1.4697
  680MOL0     H89760   9.320   9.181   1.675 -2.0554  3.3738  0.4052
  681MOL0     O89761   2.521   3.796   6.658 -0.1612 -0.3326 -0.0596
  681MOL0     C89762   2.547   3.834   6.544 -0.8323  0.4568 -0.1748
  681MOL0     O89763   2.464   3.844   6.447  0.2919  0.3450  0.7770
  681MOL0     C89764   2.331   3.840   6.473  0.0350 -0.7001  0.8795
  681MOL0     C89765   2.251   3.761   6.388 -0.0084  0.2738  0.2475
  681MOL0     C89766   2.111   3.761   6.384 -0.4634 -0.2198  0.5517
  681MOL0     C89767   2.042   3.849   6.477  0.5615  0.3796  0.4753
  681MOL0     O89768   1.903   3.852   6.490  0.1788 -0.5980  0.4149
  681MOL0     C89769   1.837   3.727   6.474 -0.0393 -0.6457 -0.0699
  681MOL0     C89770   1.704   3.726   6.551  0.2972  0.0238  0.1538
  681MOL0     C89771   1.586   3.783   6.469 -0.3140  0.1428  0.3186
  681MOL0     C89772   1.453   3.776   6.542 -0.0233 -0.4382 -0.3322
  681MOL0     C89773   1.334   3.774   6.447  0.3044 -0.1799  0.2708
  681MOL0     C89774   1.324   3.894   6.354  0.0949 -0.2942 -0.6470
  681MOL0     C89775   1.196   3.974   6.369  0.1771 -0.3271  0.1240
  681MOL0     C89776   1.196   4.067   6.495 -0.9380  0.3937 -0.6650
  681MOL0     N89777   1.064   4.098   6.505  0.3951 -0.5015  0.3726
  681MOL0     C89778   1.011   4.226   6.467 -0.0969 -0.7544  0.4480
  681MOL0     C89779   0.889   4.226   6.522 -0.9138 -0.3595  1.0576
  681MOL0     C89780   0.787   4.343   6.535 -0.4107  0.5055 -0.4029
  681MOL0     C89781   0.645   4.307   6.475 -1.0058 -0.0879  0.1949
  681MOL0     C89782   0.538   4.426   6.486  1.0774 -0.4024  0.1296
  681MOL0     C89783   0.577   4.549   6.394 -0.7178  0.5947  0.2744
  681MOL0     O89784   0.519   4.672   6.439  0.0331 -0.0238  0.9171
  681MOL0     C89785   0.385   4.698   6.401  0.6025  0.7591 -0.2235
  681MOL0     C89786   0.300   4.611   6.333 -0.4432  0.2972 -0.0851
  681MOL0     C89787   0.169   4.647   6.303  0.7045 -1.2073 -0.4742
  681MOL0     C89788   0.123   4.779   6.339 -0.5690 -0.7917  0.6706
  681MOL0     C89789  -0.016   4.825   6.296  0.5415 -0.0851  0.0477
  681MOL0     O89790  -0.040   4.960   6.305  0.4910  0.0980  0.0101
  681MOL0     C89791  -0.168   5.001   6.309 -0.3816  0.3508 -0.4466
  681MOL0     C89792  -0.229   5.045   6.424 -0.0741  0.0862 -0.2051
  681MOL0     C89793  -0.358   5.095   6.427 -0.7404  0.7265 -0.0603
  681MOL0     C89794  -0.437   5.088   6.315 -0.5093 -0.3474  0.0842
  681MOL0     O89795  -0.563   5.138   6.296  0.6640 -0.1360  0.1702
  681MOL0     C89796  -0.592   5.266   6.349 -1.3132  0.3844  0.8008
  681MOL0     C89797  -0.689   5.345   6.261 -0.5368  0.1025  0.1615
  681MOL0     C89798  -0.661   5.345   6.105  0.5530 -0.2637 -0.3292
  681MOL0     C89799  -0.520   5.400   6.062  0.3848  0.4935 -0.3314
  681MOL0     C89800  -0.479   5.372   5.915  0.6870  0.4147  0.5116
  681MOL0     C89801  -0.334   5.412   5.875 -0.1034  0.1771  0.2542
  681MOL0     C89802  -0.290   5.548   5.938  0.1606  0.2982 -0.0772
  681MOL0     C89803  -0.151   5.566   5.905 -0.1473  0.4455 -0.3914
  681MOL0    Cl89804  -0.110   5.724   5.973 -0.0992 -0.5144 -0.1884
  681MOL0     C89805  -0.378   5.027   6.200 -0.5833 -0.9626  0.2184
  681MOL0     C89806  -0.244   4.995   6.194 -1.1060  0.4809  0.7988
  681MOL0     O89807  -0.095   4.742   6.255  0.1194 -0.7659  0.3737
  681MOL0     C89808   0.206   4.865   6.404 -0.8734 -0.7599  0.5463
  681MOL0     C89809   0.333   4.825   6.434 -0.4246  0.2812 -0.0182
  681MOL0     N89810   0.872   4.103   6.587 -0.4711  1.4585 -0.2444
  681MOL0     N89811   0.980   4.028   6.578  0.5514 -0.5997 -0.2312
  681MOL0     C89812   2.119   3.926   6.559 -0.9347 -1.2371 -0.1802
  681MOL0     C89813   2.262   3.923   6.564 -0.6034  0.2663  0.7563
  681MOL0     C89814   2.683   3.864   6.500 -1.2325  0.1118 -0.8264
  681MOL0     C89815   2.715   3.899   6.372  0.4612  0.7800  0.4348
  681MOL0     C89816   2.848   3.922   6.323  0.6386  0.0153  0.4230
  681MOL0     C89817   2.951   3.880   6.402  0.2942  0.4369  0.5386
  681MOL0     O89818   3.082   3.860   6.361  0.1872  0.9835 -0.2071
  681MOL0     C89819   3.120   3.936   6.247  0.0454  1.2377  0.1394
  681MOL0     C89820   3.149   4.081   6.283  0.0028  0.5967 -0.9507
  681MOL0     C89821   3.238   4.153   6.175 -0.0369  0.4605 -0.8460
  681MOL0     C89822   3.381   4.110   6.189  0.0829 -0.2670  0.5920
  681MOL0     C89823   3.469   4.209   6.123 -0.3558  2.0569  0.7013
  681MOL0     C89824   3.536   4.285   6.056  0.2700 -0.3706 -0.5558
  681MOL0     C89825   2.936   3.848   6.538 -1.1322  0.0454  0.4864
  681MOL0     C89826   2.803   3.843   6.586  0.3013 -1.4196 -0.3810
  681MOL0     H89827   2.308   3.698   6.321 -2.1264 -0.4029 -1.0050
  681MOL0     H89828   2.062   3.699   6.310 -0.7819  0.1241  0.4715
  681MOL0     H89829   1.908   3.652   6.508 -0.1718 -0.6876  0.1160
  681MOL0     H89830   1.811   3.709   6.369 -2.4418 -3.1982  0.8434
  681MOL0     H89831   1.719   3.789   6.639 -1.0753  2.6932 -1.3637
  681MOL0     H89832   1.683   3.624   6.583  0.0221  0.1358  0.3383
  681MOL0     H89833   1.573   3.718   6.382 -0.4422  1.7874 -0.9300
  681MOL0     H89834   1.606   3.885   6.438  0.5742  1.1109  3.6412
  681MOL0     H89835   1.447   3.682   6.597 -1.4052  0.4142  1.0582
  681MOL0     H89836   1.446   3.860   6.612 -0.2863 -1.4548  0.9044
  681MOL0     H89837   1.240   3.763   6.502  1.4044  0.5477  2.4143
  681MOL0     H89838   1.367   3.689   6.387 -2.0674  1.5174 -3.8910
  681MOL0     H89839   1.324   3.858   6.251  0.0678 -0.2172 -0.6732
  681MOL0     H89840   1.404   3.968   6.370 -1.5873  2.2259 -2.9563
  681MOL0     H89841   1.181   4.037   6.281 -0.7489  0.3347  0.7336
  681MOL0     H89842   1.110   3.907   6.367  0.6195 -0.8958 -0.7318
  681MOL0     H89843   1.259   4.156   6.487 -0.4629  0.0491 -0.7245
  681MOL0     H89844   1.233   4.032   6.592 -0.3716  2.5921 -0.0173
  681MOL0     H89845   1.057   4.307   6.411  1.8437 -1.8733  0.3447
  681MOL0     H89846   0.815   4.442   6.497 -0.0342  1.9324  3.1217
  681MOL0     H89847   0.779   4.359   6.643 -2.7346 -1.4367 -0.2167
  681MOL0     H89848   0.597   4.229   6.533 -0.1095 -0.5525  0.3351
  681MOL0     H89849   0.660   4.262   6.376  2.3455 -0.2046  0.6363
  681MOL0     H89850   0.439   4.384   6.465  0.8866  0.1682 -0.1125
  681MOL0     H89851   0.520   4.455   6.590 -1.8617 -0.1705 -0.3466
  681MOL0     H89852   0.547   4.529   6.291 -1.7413 -0.1074  0.6924
  681MOL0     H89853   0.684   4.568   6.400 -0.9470  2.1640  0.0220
  681MOL0     H89854   0.339   4.518   6.293 -1.3306 -0.2782  0.3354
  681MOL0     H89855   0.090   4.581   6.267 -1.0517 -0.5388  1.8650
  681MOL0     H89856  -0.159   5.051   6.507  0.1058 -1.0470 -0.2623
  681MOL0     H89857  -0.402   5.145   6.513 -2.3623  0.7184 -0.8478
  681MOL0     H89858  -0.501   5.326   6.336 -0.4396 -1.4170 -3.0827
  681MOL0     H89859  -0.621   5.259   6.454 -1.7350  1.7720  0.7989
  681MOL0     H89860  -0.696   5.449   6.294  0.6863  0.2746 -0.0850
  681MOL0     H89861  -0.791   5.308   6.276 -1.3499  2.4798  0.9745
  681MOL0     H89862  -0.730   5.412   6.053  3.2069  1.6816 -1.5525
  681MOL0     H89863  -0.679   5.242   6.072  2.7753 -1.2158  1.1716
  681MOL0     H89864  -0.520   5.504   6.093 -1.1721  0.5237 -0.3460
  681MOL0     H89865  -0.446   5.350   6.124 -0.4396 -0.6784 -0.2498
  681MOL0     H89866  -0.555   5.419   5.852  0.5304  1.3860  1.4136
  681MOL0     H89867  -0.489   5.265   5.893  1.3697  0.0598  1.8528
  681MOL0     H89868  -0.332   5.416   5.765  1.0371 -4.7245 -0.1120
  681MOL0     H89869  -0.250   5.344   5.892 -0.3639 -0.3214 -0.3964
  681MOL0     H89870  -0.345   5.637   5.906  1.2108  0.6605 -0.9405
  681MOL0     H89871  -0.301   5.542   6.047 -0.3436 -0.3815 -0.1590
  681MOL0     H89872  -0.131   5.555   5.798  0.2388 -0.8884 -0.2037
  681MOL0     H89873  -0.090   5.497   5.964  0.0193  0.9577  0.0472
  681MOL0     H89874  -0.424   5.008   6.104 -1.5217  0.5508  0.3484
  681MOL0     H89875  -0.206   4.971   6.096 -0.6177  1.9924  0.5939
  681MOL0     H89876   0.173   4.958   6.447 -2.9011 -1.0557 -0.2788
  681MOL0     H89877   0.395   4.891   6.495 -2.5494  1.2285  1.2134
  681MOL0     H89878   2.066   3.996   6.621 -1.1509 -2.0525  0.5774
  681MOL0     H89879   2.321   3.991   6.624  1.0288  0.4463 -0.9516
  681MOL0     H89880   2.635   3.918   6.301 -0.4736 -0.6721  1.0617
  681MOL0     H89881   2.856   3.951   6.219 -2.1188 -1.2090 -0.2351
  681MOL0     H89882   3.046   3.921   6.168 -1.6967 -1.6859  2.1324
  681MOL0     H89883   3.218   3.906   6.210  0.4881  1.8405  0.7953
  681MOL0     H89884   3.057   4.136   6.305  0.2188  0.2418  0.9912
  681MOL0     H89885   3.198   4.081   6.381  1.2611  4.3700 -1.4095
  681MOL0     H89886   3.238   4.262   6.188  0.5936  0.3142  0.6100
  681MOL0     H89887   3.220   4.126   6.071  1.8982  1.0129 -1.3658
  681MOL0     H89888   3.407   4.124   6.295 -2.5720  2.1185  1.0294
  681MOL0     H89889   3.403   4.011   6.148 -3.5225 -1.7880  1.9220
  681MOL0     H89890   3.599   4.327   5.981  0.4488  0.2424 -0.0743
  681MOL0     H89891   3.025   3.827   6.597 -0.1272  0.6259 -0.7795
  681MOL0     H89892   2.786   3.801   6.685 -2.1067 -1.3906 -0.7357
  682MOL0     O89893  11.151   7.824   2.759 -1.2342 -0.6065 -1.2687
  682MOL0     C89894  11.200   7.721   2.720  0.8502 -0.0384 -0.1089
  682MOL0     O89895  11.137   7.607   2.676  0.0433  0.2943  0.3247
  682MOL0     C89896  11.005   7.610   2.628 -1.3294 -0.5523 -0.7732
  682MOL0     C89897  10.965   7.723   2.555  0.0839  0.7207 -0.0516
  682MOL0     C89898  10.836   7.731   2.506  1.0127 -0.1190 -0.1777
  682MOL0     C89899  10.737   7.637   2.533  0.0129  0.5829 -0.1397
  682MOL0     O89900  10.610   7.663   2.486 -1.0207 -0.6668  0.3499
  682MOL0     C89901  10.510   7.575   2.530  0.0306  0.3379 -0.1212
  682MOL0     C89902  10.379   7.602   2.450 -0.8335 -0.3174  0.3207
  682MOL0     C89903  10.275   7.492   2.476  0.6290  1.0113  0.0539
  682MOL0     C89904  10.152   7.512   2.386  0.0334  0.1364  0.8081
  682MOL0     C89905  10.023   7.453   2.427 -0.6468  0.3066 -0.1947
  682MOL0     C89906   9.966   7.529   2.551 -0.5594 -0.5676  0.5000
  682MOL0     C89907   9.820   7.503   2.585  0.5099 -0.1429 -0.0135
  682MOL0     C89908   9.768   7.552   2.723  0.1738 -0.1109  1.1488
  682MOL0     N89909   9.709   7.444   2.797  0.3427  0.9942 -0.6870
  682MOL0     C89910   9.578   7.441   2.818  0.9775  0.6707  0.0467
  682MOL0     C89911   9.549   7.325   2.875 -0.3078 -0.0405  0.1897
  682MOL0     C89912   9.421   7.301   2.944  0.4573 -0.4437  0.2185
  682MOL0     C89913   9.365   7.157   2.911  0.1746 -0.0644 -0.6897
  682MOL0     C89914   9.246   7.112   3.008 -0.2166 -0.3812  0.7848
  682MOL0     C89915   9.120   7.205   3.015 -0.1779  0.0059  0.3219
  682MOL0     O89916   9.015   7.135   3.080  0.0277  0.1572  0.0580
  682MOL0     C89917   8.881   7.150   3.071  0.1584  0.2232  1.0133
  682MOL0     C89918   8.815   7.215   2.962  0.3983 -0.6256  0.4767
  682MOL0     C89919   8.670   7.202   2.957 -0.6325  0.0292  0.0040
  682MOL0     C89920   8.596   7.123   3.056 -0.1236  0.1810  0.5857
  682MOL0     C89921   8.448   7.112   3.041  0.2597  0.2254  1.1040
  682MOL0     O89922   8.385   7.204   2.952  0.1218  0.0334  0.1343
  682MOL0     C89923   8.244   7.211   2.956 -0.2901  0.0559 -1.0422
  682MOL0     C89924   8.193   7.325   2.889  0.4313  0.5193  0.7568
  682MOL0     C89925   8.054   7.357   2.892  0.3221  0.1067 -0.3556
  682MOL0     C89926   7.962   7.273   2.973  0.0028  0.3466  0.6625
  682MOL0     O89927   7.829   7.288   2.997 -0.4373  0.9203  0.4915
  682MOL0     C89928   7.761   7.394   2.928 -1.2502  0.0218 -0.3078
  682MOL0     C89929   7.617   7.404   2.984  0.3202  0.6702  1.0534
  682MOL0     C89930   7.545   7.268   3.003  0.2806  0.3371  0.5256
  682MOL0     C89931   7.406   7.284   3.068  0.3914  0.5532 -0.4972
  682MOL0     C89932   7.303   7.169   3.053 -0.1432 -0.2022  0.5764
  682MOL0     C89933   7.166   7.174   3.132 -0.0837 -0.6623 -0.4919
  682MOL0     C89934   7.078   7.295   3.086  0.0241 -0.7097 -0.1089
  682MOL0     C89935   7.009   7.262   2.948 -0.1417 -0.0745  0.1466
  682MOL0    Cl89936   6.874   7.378   2.904 -0.0293 -0.2227 -0.1290
  682MOL0     C89937   8.017   7.163   3.030 -0.4707  0.4975 -0.2809
  682MOL0     C89938   8.150   7.129   3.019  0.0699  0.4613  0.0603
  682MOL0     O89939   8.397   7.019   3.103 -0.5153  0.2437 -0.3605
  682MOL0     C89940   8.670   7.074   3.170 -0.4244 -0.1955 -0.1791
  682MOL0     C89941   8.804   7.089   3.173  0.2914  0.6434 -0.4198
  682MOL0     N89942   9.669   7.259   2.902 -0.4153  0.7620  0.3309
  682MOL0     N89943   9.763   7.326   2.839 -1.2502 -0.2885 -0.8689
  682MOL0     C89944  10.789   7.512   2.592 -0.4336  0.7814  1.1487
  682MOL0     C89945  10.921   7.502   2.646  0.3212 -0.6011 -1.0078
  682MOL0     C89946  11.350   7.698   2.739 -0.2986 -0.1962  0.5084
  682MOL0     C89947  11.421   7.587   2.696  0.8122  0.1328  0.9995
  682MOL0     C89948  11.558   7.577   2.704  0.3794 -0.3513  0.3036
  682MOL0     C89949  11.635   7.676   2.763  0.7250  0.0564 -1.2006
  682MOL0     O89950  11.770   7.658   2.766  0.4545 -0.5027 -0.2994
  682MOL0     C89951  11.848   7.743   2.855 -0.0344 -0.7365  0.7876
  682MOL0     C89952  11.975   7.674   2.872 -0.1699  0.5658 -0.2593
  682MOL0     C89953  11.978   7.568   2.993  0.0595  0.0311 -0.1378
  682MOL0     C89954  12.112   7.519   3.016  1.0011  0.2644 -0.4755
  682MOL0     C89955  12.194   7.623   3.072  1.1971  0.2580 -0.1606
  682MOL0     C89956  12.256   7.705   3.125 -0.1103 -0.5811  0.2522
  682MOL0     C89957  11.561   7.787   2.820 -0.0560  0.2993  0.1855
  682MOL0     C89958  11.422   7.793   2.814  0.8585  0.6740  0.7384
  682MOL0     H89959  11.036   7.804   2.540 -0.1588  1.0747  0.6622
  682MOL0     H89960  10.808   7.818   2.447 -0.2978 -1.4007 -1.5487
  682MOL0     H89961  10.506   7.583   2.639  0.8602 -0.6423 -0.0039
  682MOL0     H89962  10.542   7.471   2.518 -2.3700 -0.5940  0.8194
  682MOL0     H89963  10.406   7.616   2.345  3.2016  3.8278  1.5679
  682MOL0     H89964  10.344   7.700   2.484 -2.9571 -1.9777  3.4929
  682MOL0     H89965  10.252   7.499   2.583 -2.8386 -2.3978 -0.2612
  682MOL0     H89966  10.316   7.392   2.457 -0.5760  0.1431  1.6841
  682MOL0     H89967  10.141   7.618   2.364  3.9839  0.6902  0.8143
  682MOL0     H89968  10.184   7.455   2.299  0.3516  1.5275 -0.0143
  682MOL0     H89969  10.041   7.347   2.445  1.6041  0.7695  0.5349
  682MOL0     H89970   9.954   7.475   2.345  0.1673  3.1410 -0.2533
  682MOL0     H89971   9.970   7.636   2.530  1.4616 -0.8958 -1.0136
  682MOL0     H89972  10.015   7.508   2.646 -2.3534  0.2251  1.6637
  682MOL0     H89973   9.758   7.551   2.509  0.6950 -1.3500 -0.9613
  682MOL0     H89974   9.804   7.395   2.572  1.6695 -0.1584 -1.5339
  682MOL0     H89975   9.690   7.621   2.691  1.3766  0.7338 -0.0747
  682MOL0     H89976   9.852   7.601   2.772  1.6328 -2.0693  0.7270
  682MOL0     H89977   9.508   7.521   2.794 -0.3847 -0.9970 -1.8916
  682MOL0     H89978   9.351   7.379   2.914 -0.5235 -0.7769  1.5421
  682MOL0     H89979   9.435   7.326   3.050 -1.8025  2.5014 -0.0493
  682MOL0     H89980   9.438   7.078   2.928 -1.2250 -0.9859  1.4645
  682MOL0     H89981   9.353   7.157   2.802  2.1168  2.8497 -1.0180
  682MOL0     H89982   9.212   7.017   2.965 -1.0709 -0.2118  1.0696
  682MOL0     H89983   9.289   7.101   3.108  1.6809  0.7734  0.1552
  682MOL0     H89984   9.079   7.220   2.915 -0.3514 -0.4861  0.3131
  682MOL0     H89985   9.149   7.304   3.051  1.4826 -0.7414  1.1535
  682MOL0     H89986   8.864   7.271   2.884  0.7766  1.6711  2.2422
  682MOL0     H89987   8.619   7.242   2.870  1.1125 -0.1860 -1.1717
  682MOL0     H89988   8.270   7.388   2.847 -0.1990  0.7897 -0.0112
  682MOL0     H89989   8.015   7.441   2.835 -0.4804  1.4014  1.9343
  682MOL0     H89990   7.770   7.376   2.821  1.5284  2.4344 -0.6241
  682MOL0     H89991   7.814   7.490   2.933  1.6054 -1.3679 -1.7143
  682MOL0     H89992   7.564   7.466   2.911  0.5715  2.2693  2.1652
  682MOL0     H89993   7.626   7.443   3.086  4.2607  2.7667  0.0931
  682MOL0     H89994   7.607   7.215   3.076  4.1523 -0.3516 -2.9114
  682MOL0     H89995   7.543   7.213   2.909  1.5508  0.4730  0.4059
  682MOL0     H89996   7.428   7.292   3.175 -0.7308 -2.3435  0.0603
  682MOL0     H89997   7.366   7.373   3.018 -0.3822 -0.0956 -1.0620
  682MOL0     H89998   7.347   7.078   3.093  0.5726 -3.1293 -5.7020
  682MOL0     H89999   7.305   7.154   2.945  1.5517 -0.6491  0.6458
  682MOL0     H90000   7.184   7.189   3.239  1.9332  2.1299 -1.1052
  682MOL0     H90001   7.114   7.080   3.112  0.2678 -1.0746  0.4936
  682MOL0     H90002   7.005   7.326   3.161  0.0923  1.1491 -0.7556
  682MOL0     H90003   7.140   7.384   3.074 -0.3409 -0.4697 -0.2244
  682MOL0     H90004   6.957   7.165   2.946 -0.7392  0.2574 -1.1080
  682MOL0     H90005   7.087   7.262   2.871  1.2248  1.2871  1.4679
  682MOL0     H90006   7.943   7.103   3.083 -0.4601  0.3284 -0.4563
  682MOL0     H90007   8.184   7.033   3.057  2.5251 -0.6270 -4.2494
  682MOL0     H90008   8.618   7.000   3.229  2.0484 -3.7674 -2.1472
  682MOL0     H90009   8.850   7.034   3.255 -0.3538  0.2262 -0.3275
  682MOL0     H90010  10.715   7.437   2.615 -2.9592  3.2505  1.6758
  682MOL0     H90011  10.960   7.414   2.696 -0.3572  0.0837  0.8287
  682MOL0     H90012  11.372   7.508   2.641 -0.8806 -0.1016  2.7431
  682MOL0     H90013  11.603   7.486   2.665  0.0114 -0.5608  0.3693
  682MOL0     H90014  11.810   7.762   2.956 -1.1242 -0.9574  0.4342
  682MOL0     H90015  11.866   7.845   2.819 -0.0175 -0.0629  2.5933
  682MOL0     H90016  11.986   7.625   2.774 -0.3907  1.5489 -0.7847
  682MOL0     H90017  12.052   7.752   2.880  0.2305  0.0130  1.9704
  682MOL0     H90018  11.920   7.479   2.968 -0.9979 -0.1962  2.7684
  682MOL0     H90019  11.939   7.610   3.086  1.4447 -0.1989  0.5822
  682MOL0     H90020  12.099   7.444   3.094 -3.1391  1.0536 -0.1565
  682MOL0     H90021  12.140   7.471   2.922 -1.5630  1.6790 -2.1051
  682MOL0     H90022  12.303   7.788   3.175  2.8129 -1.3578 -1.0171
  682MOL0     H90023  11.616   7.864   2.874  0.9850 -1.8343  2.3503
  682MOL0     H90024  11.361   7.878   2.841 -1.8677  0.2369 -3.1983
  683MOL0     O90025   8.158   4.378  10.035  0.1287 -0.4611 -0.6511
  683MOL0     C90026   8.246   4.410  10.115  0.1817  0.6122  0.3437
  683MOL0     O90027   8.242   4.475  10.235 -0.0504  0.1646  0.4124
  683MOL0     C90028   8.127   4.504  10.301 -0.1987  0.3154 -0.1596
  683MOL0     C90029   8.142   4.601  10.402 -0.7216  0.9885 -0.1046
  683MOL0     C90030   8.033   4.642  10.482 -0.9581  0.5771 -0.1152
  683MOL0     C90031   7.919   4.563  10.473  0.2778  0.6903 -0.4174
  683MOL0     O90032   7.829   4.595  10.576  0.5789  0.5282  0.2846
  683MOL0     C90033   7.698   4.624  10.514 -0.3546 -0.4101  0.0680
  683MOL0     C90034   7.631   4.733  10.600 -0.7076  0.3167 -0.6803
  683MOL0     C90035   7.503   4.779  10.527  1.0615  0.4662  0.3582
  683MOL0     C90036   7.417   4.874  10.616 -0.7342  0.7441  0.5276
  683MOL0     C90037   7.293   4.939  10.561  0.6226 -0.3441 -0.2211
  683MOL0     C90038   7.185   4.833  10.524  0.5842  0.0225  0.4781
  683MOL0     C90039   7.041   4.878  10.541 -0.3846 -0.4557  0.6922
  683MOL0     C90040   6.995   4.967  10.432 -0.0838 -0.2083  0.0267
  683MOL0     N90041   6.874   5.046  10.479  1.2350 -0.7429  0.5971
  683MOL0     C90042   6.858   5.131  10.580 -0.2683  0.7358 -1.2888
  683MOL0     C90043   6.736   5.183  10.575 -0.9499  1.1048  0.7129
  683MOL0     C90044   6.688   5.287  10.659 -1.0729  0.7375 -0.2163
  683MOL0     C90045   6.569   5.363  10.595  0.4113 -0.2027 -0.4709
  683MOL0     C90046   6.555   5.515  10.625 -0.4698 -0.1702  1.2052
  683MOL0     C90047   6.416   5.581  10.613 -0.1852  0.0129  0.2883
  683MOL0     O90048   6.378   5.576  10.474  0.0012  0.0722 -0.1106
  683MOL0     C90049   6.246   5.608  10.450  0.5834 -0.4368 -0.2706
  683MOL0     C90050   6.153   5.658  10.548 -0.0992 -0.0849  1.0711
  683MOL0     C90051   6.023   5.688  10.498  0.8254 -0.6653  0.5228
  683MOL0     C90052   5.973   5.639  10.375  0.6320 -0.2915 -0.7012
  683MOL0     C90053   5.840   5.646  10.339 -0.5666 -0.7060 -0.1651
  683MOL0     O90054   5.759   5.670  10.448 -0.7035  0.6419  0.0993
  683MOL0     C90055   5.624   5.677  10.430  0.0643 -0.3916 -1.0500
  683MOL0     C90056   5.541   5.595  10.508  0.0898  0.3114 -0.2641
  683MOL0     C90057   5.402   5.583  10.482  0.7971  0.0789  0.6298
  683MOL0     C90058   5.344   5.658  10.386 -0.4366  0.2400  0.4472
  683MOL0     O90059   5.204   5.643  10.383 -0.1832 -0.6301  0.6968
  683MOL0     C90060   5.126   5.723  10.296  0.4776  0.0671 -0.8111
  683MOL0     C90061   4.987   5.659  10.299 -0.9808 -0.9277 -0.2598
  683MOL0     C90062   4.895   5.750  10.209  0.3480  0.5341 -1.3511
  683MOL0     C90063   4.746   5.758  10.263  0.0896 -0.3567  0.6075
  683MOL0     C90064   4.653   5.811  10.160  0.0128 -0.5998  0.4070
  683MOL0     C90065   4.512   5.811  10.222 -0.7505  0.4430 -0.1047
  683MOL0     C90066   4.403   5.862  10.125  0.6284  1.3468 -0.3454
  683MOL0     C90067   4.268   5.813  10.177 -0.1677  0.5280  0.2101
  683MOL0    Cl90068   4.136   5.896  10.097  0.0862 -0.0688 -0.1347
  683MOL0     C90069   5.429   5.754  10.313  0.2617  0.5788 -0.2314
  683MOL0     C90070   5.570   5.766  10.336 -0.0371 -0.0111  0.1174
  683MOL0     O90071   5.795   5.624  10.229 -0.3835  0.5953 -0.0084
  683MOL0     C90072   6.067   5.592  10.281  0.0390  0.1234  0.2613
  683MOL0     C90073   6.205   5.583  10.323 -0.3442 -0.1622  0.6075
  683MOL0     N90074   6.673   5.121  10.466 -0.4224 -0.4711  0.7637
  683MOL0     N90075   6.753   5.044  10.404  0.3143  0.0534 -0.2914
  683MOL0     C90076   7.902   4.467  10.370  0.2406 -0.8065  0.1648
  683MOL0     C90077   8.008   4.442  10.282 -0.0264  0.1649 -0.8696
  683MOL0     C90078   8.381   4.357  10.074  0.3194 -0.5048  0.4951
  683MOL0     C90079   8.404   4.286   9.958 -0.6034 -0.5233  0.2434
  683MOL0     C90080   8.529   4.271   9.905 -0.1307 -0.0445  0.2771
  683MOL0     C90081   8.643   4.313   9.973  0.4624 -0.2494  0.6515
  683MOL0     O90082   8.767   4.296   9.910  0.3501 -0.1480 -0.2703
  683MOL0     C90083   8.885   4.319   9.987 -0.1908  0.1712 -0.0039
  683MOL0     C90084   9.008   4.287   9.906 -0.4829 -0.1618  0.5635
  683MOL0     C90085   9.036   4.380   9.785  0.0468  0.7971  0.3001
  683MOL0     C90086   9.119   4.308   9.670 -0.2476  0.0283  0.5970
  683MOL0     C90087   9.257   4.264   9.704 -0.1794 -0.1834 -0.1607
  683MOL0     C90088   9.372   4.236   9.727 -0.2037  0.7735  1.0478
  683MOL0     C90089   8.627   4.378  10.095  0.1530  0.0116 -0.0132
  683MOL0     C90090   8.493   4.399  10.144  0.0392  0.0503 -0.3033
  683MOL0     H90091   8.238   4.651  10.415 -1.4302  2.1343  0.8731
  683MOL0     H90092   8.038   4.720  10.557 -0.5192 -1.3872  1.9895
  683MOL0     H90093   7.640   4.531  10.510  0.5337 -0.9857  0.2516
  683MOL0     H90094   7.699   4.675  10.417 -0.4392  1.0054  0.7836
  683MOL0     H90095   7.691   4.822  10.619 -1.1714 -0.0074  3.1696
  683MOL0     H90096   7.603   4.689  10.696  1.7064 -0.1326 -0.1164
  683MOL0     H90097   7.449   4.688  10.500  0.6511  0.9021 -0.3187
  683MOL0     H90098   7.525   4.850  10.446  0.0700 -0.3769 -0.6797
  683MOL0     H90099   7.391   4.818  10.706 -0.6004 -0.2446 -0.0263
  683MOL0     H90100   7.482   4.958  10.643 -0.8188  2.0113 -2.7579
  683MOL0     H90101   7.315   4.993  10.469  0.2197  0.5926  0.2181
  683MOL0     H90102   7.257   5.002  10.643  4.2444 -2.3393  3.2398
  683MOL0     H90103   7.192   4.750  10.595 -1.2015  1.9273  3.0624
  683MOL0     H90104   7.189   4.798  10.420  2.0284  0.9293  0.1940
  683MOL0     H90105   6.981   4.787  10.544  1.3945 -1.7564 -0.8027
  683MOL0     H90106   7.035   4.928  10.638  1.2518  2.1361 -0.4452
  683MOL0     H90107   6.969   4.899  10.350 -1.5545  0.2737  0.0652
  683MOL0     H90108   7.077   5.035  10.407 -0.8302  0.6806 -0.0801
  683MOL0     H90109   6.931   5.146  10.659 -0.3699 -0.4114 -0.9559
  683MOL0     H90110   6.771   5.355  10.683 -0.1527 -0.9209  1.6207
  683MOL0     H90111   6.650   5.255  10.756  0.3972  2.2469  0.9305
  683MOL0     H90112   6.481   5.330  10.650  0.3367 -0.1143 -0.5392
  683MOL0     H90113   6.553   5.352  10.487 -3.1928  0.2334 -0.0786
  683MOL0     H90114   6.588   5.530  10.729  0.1723 -0.8538  1.1160
  683MOL0     H90115   6.625   5.576  10.567 -0.2295 -1.1988  0.3928
  683MOL0     H90116   6.422   5.680  10.660  0.0384  0.3503 -0.4406
  683MOL0     H90117   6.346   5.521  10.672 -0.7252  0.3644  0.0184
  683MOL0     H90118   6.182   5.691  10.647 -0.5776  1.1019  0.8378
  683MOL0     H90119   5.963   5.759  10.554  1.9406  3.5178 -3.0567
  683MOL0     H90120   5.590   5.531  10.581 -0.9638 -1.2767 -0.8833
  683MOL0     H90121   5.345   5.515  10.545 -0.4573  2.1566  1.8700
  683MOL0     H90122   5.164   5.703  10.195 -0.4728 -1.1943 -0.9445
  683MOL0     H90123   5.120   5.830  10.319 -1.1021 -0.0941 -0.2998
  683MOL0     H90124   4.942   5.660  10.399  0.3234  2.7044  0.4281
  683MOL0     H90125   4.989   5.563  10.248 -0.7191 -0.0504 -1.9574
  683MOL0     H90126   4.908   5.695  10.115  2.5944 -1.5500  0.0695
  683MOL0     H90127   4.944   5.847  10.203  2.5749 -0.3312  0.8895
  683MOL0     H90128   4.703   5.667  10.305 -2.0865  1.3751  2.3931
  683MOL0     H90129   4.746   5.817  10.355  0.3000 -0.0363  0.4036
  683MOL0     H90130   4.650   5.745  10.073  3.6681  1.7226 -1.7857
  683MOL0     H90131   4.677   5.915  10.133  0.3578 -0.5739  0.8055
  683MOL0     H90132   4.518   5.878  10.308  0.6988 -0.8566  0.8573
  683MOL0     H90133   4.496   5.713  10.267 -0.0707  1.3353  2.2329
  683MOL0     H90134   4.401   5.971  10.138 -0.9448  1.4878 -1.4195
  683MOL0     H90135   4.415   5.829  10.021  2.0170  3.2496 -0.8596
  683MOL0     H90136   4.260   5.823  10.285  0.9410 -3.7400  0.8709
  683MOL0     H90137   4.262   5.707  10.147  0.8392  1.1800 -2.6853
  683MOL0     H90138   5.388   5.826  10.242  1.3819 -0.6762 -2.2391
  683MOL0     H90139   5.646   5.831  10.294  1.7801 -1.6401  0.7305
  683MOL0     H90140   6.056   5.573  10.175  1.2969  1.0070 -0.0497
  683MOL0     H90141   6.270   5.548  10.244 -1.5231 -1.4930  0.1760
  683MOL0     H90142   7.807   4.415  10.372 -1.0092  1.2890 -1.0327
  683MOL0     H90143   7.995   4.352  10.223 -0.0072 -0.6712  0.3765
  683MOL0     H90144   8.316   4.250   9.905  0.8664  1.9575 -4.4557
  683MOL0     H90145   8.556   4.221   9.812 -1.1557  2.2208 -1.3074
  683MOL0     H90146   8.879   4.248  10.070 -0.1596 -1.4944 -1.3938
  683MOL0     H90147   8.893   4.424  10.019 -3.0158  0.6307 -0.5409
  683MOL0     H90148   9.100   4.284   9.965 -0.0636 -1.0591 -0.1238
  683MOL0     H90149   9.002   4.183   9.873  3.2645 -0.8633  1.5856
  683MOL0     H90150   9.103   4.455   9.827  2.0574 -1.6726  1.7503
  683MOL0     H90151   8.940   4.422   9.754 -0.3812 -1.2061 -1.2844
  683MOL0     H90152   9.065   4.221   9.632 -0.0805 -0.1492  0.7604
  683MOL0     H90153   9.136   4.374   9.585  1.5265 -1.8392 -0.6001
  683MOL0     H90154   9.475   4.208   9.738 -0.5098 -1.6779 -1.4563
  683MOL0     H90155   8.694   4.429  10.164 -1.4185  1.4112  0.5646
  683MOL0     H90156   8.473   4.454  10.235 -1.2579  2.5822 -1.9910
  684MOL0     O90157   0.093   9.988   6.679  0.1288 -0.0847  0.1635
  684MOL0     C90158   0.184  10.015   6.759 -0.4188 -0.8757  0.0758
  684MOL0     O90159   0.181  10.000   6.898  0.2437 -0.5347  0.6077
  684MOL0     C90160   0.069   9.938   6.947  0.1565 -0.5142 -0.1071
  684MOL0     C90161   0.078   9.817   6.997  0.4793  0.5042 -0.1560
  684MOL0     C90162  -0.030   9.749   7.062  1.0289 -0.5146 -0.0703
  684MOL0     C90163  -0.154   9.813   7.085 -0.5537  0.3351  0.8950
  684MOL0     O90164  -0.254   9.743   7.153  0.0507  0.0866 -0.1927
  684MOL0     C90165  -0.386   9.812   7.184  0.0835 -0.3820  0.1593
  684MOL0     C90166  -0.449   9.745   7.307  0.8297 -0.1733  0.4767
  684MOL0     C90167  -0.595   9.780   7.339  0.7218 -0.2446  0.3739
  684MOL0     C90168  -0.607   9.931   7.362 -0.3567  0.4614  0.5633
  684MOL0     C90169  -0.753   9.979   7.359 -0.0396  0.2732  0.4906
  684MOL0     C90170  -0.836   9.951   7.491  0.3746  0.4984  0.5248
  684MOL0     C90171  -0.991   9.969   7.474 -0.7030  0.1091  0.7167
  684MOL0     C90172  -1.066   9.961   7.602 -0.4745 -0.3615 -0.0567
  684MOL0     N90173  -1.200  10.012   7.595  0.6671 -0.4766 -0.0309
  684MOL0     C90174  -1.270  10.081   7.689 -0.7341  0.1606  0.4390
  684MOL0     C90175  -1.390  10.103   7.631 -0.2765  0.5486  0.2265
  684MOL0     C90176  -1.497  10.187   7.708 -0.1078 -0.6125  0.5620
  684MOL0     C90177  -1.554  10.102   7.827 -0.0994  0.0762 -0.5137
  684MOL0     C90178  -1.657   9.997   7.782 -0.6542  0.0506 -1.0676
  684MOL0     C90179  -1.734   9.953   7.914  0.1993 -0.0672  0.4278
  684MOL0     O90180  -1.811  10.058   7.965 -0.2051  0.0844  0.2445
  684MOL0     C90181  -1.919  10.009   8.034  0.7479  1.0540 -0.6778
  684MOL0     C90182  -1.907   9.956   8.157 -0.6565  0.8608  0.2940
  684MOL0     C90183  -2.015   9.903   8.231 -0.4000 -0.4225 -0.6899
  684MOL0     C90184  -2.144   9.906   8.171 -0.8951 -0.4030 -0.2912
  684MOL0     C90185  -2.255   9.865   8.254  0.0704  0.5107  0.7462
  684MOL0     O90186  -2.243   9.864   8.386  0.4327 -0.1746  0.1026
  684MOL0     C90187  -2.369   9.861   8.456 -1.2042 -0.4453 -0.2498
  684MOL0     C90188  -2.375   9.767   8.556  0.0611 -0.9136  0.2255
  684MOL0     C90189  -2.486   9.745   8.642 -0.3834 -0.5151  0.0126
  684MOL0     C90190  -2.602   9.828   8.629  0.6748 -0.0665  0.1645
  684MOL0     O90191  -2.709   9.803   8.708  0.4751  0.0718  0.0316
  684MOL0     C90192  -2.826   9.884   8.691 -1.0432 -0.3362  0.0158
  684MOL0     C90193  -2.921   9.876   8.811  0.3523 -0.1013  0.1900
  684MOL0     C90194  -3.027   9.988   8.794 -0.1976  0.4399 -0.1154
  684MOL0     C90195  -3.142   9.944   8.703  0.4315 -0.1238 -0.7761
  684MOL0     C90196  -3.232   9.845   8.766 -0.1240 -0.0763 -1.0246
  684MOL0     C90197  -3.313   9.895   8.892 -0.0540  0.7672  0.0386
  684MOL0     C90198  -3.352   9.772   8.966 -0.7228 -0.2497 -0.1101
  684MOL0     C90199  -3.443   9.808   9.083 -0.5755 -1.3728 -0.8629
  684MOL0    Cl90200  -3.595   9.869   9.005 -0.2118  0.4831  0.1492
  684MOL0     C90201  -2.602   9.919   8.520 -0.5057 -0.2141 -0.5045
  684MOL0     C90202  -2.482   9.945   8.441  0.5590  0.1645 -0.0358
  684MOL0     O90203  -2.358   9.840   8.189 -0.9129 -0.3270  0.2060
  684MOL0     C90204  -2.158   9.958   8.045 -0.4628 -0.2238  0.3199
  684MOL0     C90205  -2.049  10.010   7.979  0.5919 -0.5775  0.3867
  684MOL0     N90206  -1.393  10.044   7.507  0.3368  0.2569 -0.0076
  684MOL0     N90207  -1.278  10.002   7.480  0.1152 -0.4253 -0.4200
  684MOL0     C90208  -0.162   9.936   7.024 -0.6381 -0.8826 -1.1899
  684MOL0     C90209  -0.056   9.999   6.953  0.5165 -0.6559 -0.1718
  684MOL0     C90210   0.306  10.075   6.699 -0.3605  0.3363 -0.2597
  684MOL0     C90211   0.416  10.103   6.773  1.0006 -0.2587 -0.4837
  684MOL0     C90212   0.543  10.137   6.720 -0.4488 -0.9440  0.2715
  684MOL0     C90213   0.551  10.149   6.583 -0.3109  0.9309  0.4067
  684MOL0     O90214   0.682  10.171   6.534 -0.0213  0.4827 -0.2733
  684MOL0     C90215   0.692  10.181   6.391 -0.5052  0.3339  0.1494
  684MOL0     C90216   0.831  10.200   6.331  0.3996  0.2381 -0.2532
  684MOL0     C90217   0.930  10.098   6.391 -0.0568  0.6742  0.3693
  684MOL0     C90218   1.074  10.148   6.404 -0.6091  0.0973  0.4382
  684MOL0     C90219   1.131  10.196   6.276  0.8502 -0.0548  0.4066
  684MOL0     C90220   1.168  10.237   6.166 -0.4672  0.3552 -0.3920
  684MOL0     C90221   0.438  10.112   6.504  0.6928  0.4795  0.1169
  684MOL0     C90222   0.319  10.070   6.558  0.2861  1.0641 -0.0441
  684MOL0     H90223   0.170   9.764   6.975 -1.9790 -3.0762 -3.0541
  684MOL0     H90224  -0.019   9.645   7.090  1.4904 -0.0093  1.7988
  684MOL0     H90225  -0.461   9.809   7.104 -1.7533  2.2050  1.5997
  684MOL0     H90226  -0.376   9.920   7.202  0.7738 -0.4488  0.2107
  684MOL0     H90227  -0.394   9.773   7.397  2.1463  0.7780 -0.5850
  684MOL0     H90228  -0.453   9.636   7.302  0.8753 -0.1904  0.7806
  684MOL0     H90229  -0.632   9.734   7.432  0.5337  3.4864  2.3362
  684MOL0     H90230  -0.656   9.738   7.258 -0.5789 -2.8788  2.5418
  684MOL0     H90231  -0.561   9.956   7.458  0.0918  2.0199 -0.0252
  684MOL0     H90232  -0.549   9.985   7.286 -0.6324 -2.9748 -2.3673
  684MOL0     H90233  -0.809   9.929   7.279 -5.2477  1.5730  2.8622
  684MOL0     H90234  -0.751  10.088   7.347 -0.5769  0.2376  0.0302
  684MOL0     H90235  -0.795  10.018   7.568  2.8419 -0.1280 -0.1428
  684MOL0     H90236  -0.826   9.844   7.509 -1.4245 -0.3638 -2.8004
  684MOL0     H90237  -0.997  10.070   7.431  1.2106 -1.4082 -3.8031
  684MOL0     H90238  -1.037   9.904   7.399 -3.1164  0.7099  1.5592
  684MOL0     H90239  -1.003  10.016   7.672  3.0710  1.6974 -4.3080
  684MOL0     H90240  -1.068   9.862   7.649 -0.9044  0.7006  2.2917
  684MOL0     H90241  -1.248  10.107   7.792 -4.3622 -1.5921  1.8545
  684MOL0     H90242  -1.575  10.227   7.643 -0.0472 -1.7668 -0.2456
  684MOL0     H90243  -1.443  10.269   7.757 -2.1919  0.1274  1.7706
  684MOL0     H90244  -1.599  10.170   7.899  1.5669 -1.0451  1.6995
  684MOL0     H90245  -1.475  10.046   7.878 -0.2186 -0.0320 -0.4464
  684MOL0     H90246  -1.724  10.033   7.703 -0.1877 -1.0026 -1.9650
  684MOL0     H90247  -1.600   9.910   7.748  1.5545 -0.2559  2.8543
  684MOL0     H90248  -1.649   9.932   7.979 -0.0055 -0.1057  0.6852
  684MOL0     H90249  -1.794   9.862   7.901  3.3979 -2.0299 -2.4361
  684MOL0     H90250  -1.809   9.973   8.202  0.0525 -0.1552 -0.8055
  684MOL0     H90251  -2.005   9.880   8.336 -1.7832 -2.9018 -1.0479
  684MOL0     H90252  -2.283   9.713   8.574  2.2977  3.0071  1.8636
  684MOL0     H90253  -2.481   9.668   8.719 -3.2727 -1.6308 -0.7820
  684MOL0     H90254  -2.876   9.840   8.604 -0.8462 -2.2145  0.8285
  684MOL0     H90255  -2.794   9.989   8.682  4.4571 -1.3101  3.5320
  684MOL0     H90256  -2.874   9.899   8.907  0.8596  0.3275 -0.1562
  684MOL0     H90257  -2.972   9.783   8.836  1.0610  0.1819  3.1550
  684MOL0     H90258  -2.973  10.078   8.765  0.8315 -0.2552 -0.4270
  684MOL0     H90259  -3.051  10.021   8.896  2.4862 -0.6118  0.9568
  684MOL0     H90260  -3.187  10.041   8.678  1.3762 -0.0437 -2.2679
  684MOL0     H90261  -3.109   9.897   8.610 -0.4743  0.8911 -1.6513
  684MOL0     H90262  -3.173   9.759   8.800 -1.9086 -0.6087  0.9006
  684MOL0     H90263  -3.298   9.806   8.688  1.8918 -1.4245 -2.1741
  684MOL0     H90264  -3.395   9.960   8.859 -0.2522  2.2513  3.0869
  684MOL0     H90265  -3.246   9.958   8.950  2.1104 -0.6068 -0.8699
  684MOL0     H90266  -3.401   9.703   8.896 -1.7685  2.4023 -2.1446
  684MOL0     H90267  -3.264   9.725   9.010 -1.5744 -0.2157  1.7363
  684MOL0     H90268  -3.389   9.886   9.137  1.8251 -4.0295  0.8238
  684MOL0     H90269  -3.453   9.729   9.158 -0.9519  1.5564  2.4004
  684MOL0     H90270  -2.677   9.995   8.499  1.7990  2.9481  1.8381
  684MOL0     H90271  -2.479  10.015   8.358 -1.2499  1.4216  0.9172
  684MOL0     H90272  -2.255   9.948   7.997  0.3018 -2.7237 -0.8475
  684MOL0     H90273  -2.069  10.056   7.883 -0.3984  1.0835  1.3423
  684MOL0     H90274  -0.251   9.997   7.021  0.8633  1.4390 -1.4420
  684MOL0     H90275  -0.055  10.099   6.911  3.0982 -0.2836  0.6440
  684MOL0     H90276   0.402  10.083   6.879  0.8702 -2.7490 -0.9160
  684MOL0     H90277   0.636  10.155   6.772  0.8293  1.5796 -2.5906
  684MOL0     H90278   0.640  10.271   6.358  0.7448  0.8238 -0.5511
  684MOL0     H90279   0.658  10.088   6.347  1.1898 -0.5603  0.6299
  684MOL0     H90280   0.823  10.199   6.222  1.7375 -2.0287 -0.4095
  684MOL0     H90281   0.864  10.298   6.367  0.0718 -0.0832  0.9858
  684MOL0     H90282   0.939  10.001   6.341  3.1998  0.7687  0.5636
  684MOL0     H90283   0.903  10.077   6.495  2.0304  0.4024  0.9126
  684MOL0     H90284   1.065  10.229   6.477  0.2434 -1.2748  2.1225
  684MOL0     H90285   1.135  10.068   6.447  0.6343 -1.1925 -3.3649
  684MOL0     H90286   1.203  10.267   6.069 -0.1049  0.7289 -0.1519
  684MOL0     H90287   0.430  10.104   6.396 -2.5032 -1.6982  0.3658
  684MOL0     H90288   0.240  10.038   6.491  0.4865  1.9263 -0.7104
  685MOL0     O90289   2.217   0.459   1.449 -0.5867 -0.1569  0.9081
  685MOL0     C90290   2.227   0.500   1.332  0.9724  0.9864 -0.2554
  685MOL0     O90291   2.133   0.508   1.240 -0.2400 -0.4087  0.3769
  685MOL0     C90292   2.004   0.473   1.267  0.5145  0.5061  0.0525
  685MOL0     C90293   1.923   0.410   1.173  0.7379  0.4055 -0.6389
  685MOL0     C90294   1.787   0.371   1.195 -0.9140 -0.2203  0.2326
  685MOL0     C90295   1.726   0.394   1.320 -0.3674  0.2853 -0.3001
  685MOL0     O90296   1.603   0.360   1.363 -0.5490  0.0185  0.2402
  685MOL0     C90297   1.517   0.307   1.260 -0.5338 -0.4497 -0.2957
  685MOL0     C90298   1.376   0.338   1.313 -0.1809 -0.2914 -0.2725
  685MOL0     C90299   1.324   0.240   1.417 -0.2308  0.8120 -0.5170
  685MOL0     C90300   1.195   0.255   1.495 -0.0081 -0.5539  0.2263
  685MOL0     C90301   1.152   0.144   1.592 -0.2027 -1.0466 -0.1131
  685MOL0     C90302   1.124   0.020   1.513 -0.5248  0.3172 -0.8178
  685MOL0     C90303   1.062  -0.093   1.610  0.6878  0.7201  0.1593
  685MOL0     C90304   1.024  -0.221   1.525 -0.1696 -0.2974  0.5375
  685MOL0     N90305   0.901  -0.220   1.442  0.0330 -0.2982  0.9911
  685MOL0     C90306   0.779  -0.189   1.507  0.7362 -0.0240 -0.4672
  685MOL0     C90307   0.687  -0.235   1.419  0.7052  0.8027 -0.4709
  685MOL0     C90308   0.536  -0.255   1.448  0.6420  0.3229  0.0185
  685MOL0     C90309   0.508  -0.401   1.490 -0.6620  0.1815  0.8090
  685MOL0     C90310   0.378  -0.414   1.574 -0.3545 -0.1178 -0.1726
  685MOL0     C90311   0.366  -0.572   1.586 -0.1373  1.0840 -0.6278
  685MOL0     O90312   0.258  -0.616   1.668  0.2877  0.4297  0.0139
  685MOL0     C90313   0.128  -0.575   1.641  0.3459 -0.0757 -0.4580
  685MOL0     C90314   0.089  -0.538   1.511  0.0364  0.0390 -0.3040
  685MOL0     C90315  -0.044  -0.491   1.495 -0.2271 -0.3496 -0.3173
  685MOL0     C90316  -0.146  -0.496   1.594  0.8029  0.2472 -0.0098
  685MOL0     C90317  -0.293  -0.468   1.571 -0.0453  0.3111 -0.0669
  685MOL0     O90318  -0.373  -0.493   1.677 -0.0425 -0.4066 -0.0188
  685MOL0     C90319  -0.509  -0.467   1.687  0.1254 -0.0668 -0.6646
  685MOL0     C90320  -0.598  -0.474   1.578  0.5347  0.5655  0.0425
  685MOL0     C90321  -0.737  -0.445   1.597  0.1658 -1.0621  0.2630
  685MOL0     C90322  -0.784  -0.399   1.724  1.2760 -0.7199  0.5329
  685MOL0     O90323  -0.912  -0.383   1.751  0.5358 -0.1922 -0.0193
  685MOL0     C90324  -1.011  -0.463   1.682  1.1741  0.1552 -0.4746
  685MOL0     C90325  -1.080  -0.402   1.561 -0.4480 -0.4534 -0.4451
  685MOL0     C90326  -1.218  -0.464   1.536  0.1620 -0.5309  0.0696
  685MOL0     C90327  -1.344  -0.383   1.595  0.1580 -0.2285 -1.1069
  685MOL0     C90328  -1.378  -0.262   1.517 -0.2358  0.1365  0.7870
  685MOL0     C90329  -1.502  -0.200   1.577  0.2826  0.5248 -0.1639
  685MOL0     C90330  -1.467  -0.099   1.689 -0.0994  0.0062 -0.6560
  685MOL0     C90331  -1.587  -0.027   1.738 -0.3713 -0.1909  0.4924
  685MOL0    Cl90332  -1.566   0.073   1.879  0.2816 -0.5486 -0.7814
  685MOL0     C90333  -0.702  -0.394   1.828  0.1574  0.2882 -0.0256
  685MOL0     C90334  -0.567  -0.420   1.808 -1.0834 -0.0778 -0.9044
  685MOL0     O90335  -0.325  -0.418   1.466  0.2450 -0.4029  0.3155
  685MOL0     C90336  -0.099  -0.517   1.722 -0.2374  0.0557  0.1601
  685MOL0     C90337   0.036  -0.560   1.748  0.8227  1.0852 -0.8678
  685MOL0     N90338   0.750  -0.268   1.302 -0.3549  1.1358 -0.7711
  685MOL0     N90339   0.883  -0.258   1.317 -0.2369 -0.3320  0.2378
  685MOL0     C90340   1.809   0.443   1.419  0.3446 -0.1508  0.4920
  685MOL0     C90341   1.938   0.493   1.389  0.4264 -0.3558 -0.3932
  685MOL0     C90342   2.359   0.540   1.293  0.3893  0.0720 -0.3428
  685MOL0     C90343   2.386   0.607   1.163 -0.8127  0.2833  0.5316
  685MOL0     C90344   2.527   0.636   1.131  0.5411  0.4622  0.7512
  685MOL0     C90345   2.632   0.600   1.210  0.2258  0.6043 -0.3816
  685MOL0     O90346   2.767   0.637   1.195 -0.2359  0.0914 -0.2501
  685MOL0     C90347   2.795   0.712   1.073  0.2609 -0.2048  0.2783
  685MOL0     C90348   2.953   0.715   1.055  0.4496 -0.5203  0.2813
  685MOL0     C90349   3.016   0.583   1.015  0.0236  0.1911 -0.0712
  685MOL0     C90350   3.011   0.552   0.875  0.1990 -0.0372  0.6858
  685MOL0     C90351   3.085   0.430   0.842 -0.0840  0.6326 -0.5319
  685MOL0     C90352   3.141   0.330   0.819  0.1542 -0.0237 -0.0287
  685MOL0     C90353   2.601   0.533   1.328  0.6719  0.8521  0.5214
  685MOL0     C90354   2.473   0.509   1.374  0.1552 -1.1545 -0.2613
  685MOL0     H90355   1.966   0.411   1.074 -0.4401  1.2849 -1.1671
  685MOL0     H90356   1.742   0.341   1.101 -0.3775  0.5748 -0.2923
  685MOL0     H90357   1.537   0.200   1.253  0.9491 -0.4217  2.3284
  685MOL0     H90358   1.526   0.366   1.168 -4.3837  3.0985  1.2804
  685MOL0     H90359   1.317   0.324   1.222 -1.1894 -0.2328  0.3512
  685MOL0     H90360   1.357   0.442   1.343  2.9779 -0.1566  1.6586
  685MOL0     H90361   1.399   0.224   1.495 -0.2023  0.2271 -0.6620
  685MOL0     H90362   1.315   0.142   1.369 -2.2974  0.5616  0.2940
  685MOL0     H90363   1.223   0.350   1.542  4.4532 -0.7440 -1.5164
  685MOL0     H90364   1.110   0.277   1.429 -0.6386  0.3236  1.3034
  685MOL0     H90365   1.069   0.181   1.652 -0.9959 -2.1202 -0.5252
  685MOL0     H90366   1.228   0.126   1.668 -1.2968  1.5440  1.7236
  685MOL0     H90367   1.220  -0.019   1.478  0.0692 -2.3412  3.1552
  685MOL0     H90368   1.048   0.036   1.436 -2.1009 -2.6919 -0.0629
  685MOL0     H90369   1.131  -0.115   1.692  1.2592 -0.3325 -0.5826
  685MOL0     H90370   0.976  -0.041   1.655  0.0923 -1.8287  2.1883
  685MOL0     H90371   1.031  -0.318   1.576  0.8363 -1.2376 -1.2541
  685MOL0     H90372   1.106  -0.230   1.453  0.4304  1.6355  0.9300
  685MOL0     H90373   0.749  -0.155   1.605  0.2412 -1.8967  0.0765
  685MOL0     H90374   0.478  -0.242   1.356 -0.9587 -0.1746  0.9307
  685MOL0     H90375   0.505  -0.179   1.521  0.8462  1.1978 -0.7809
  685MOL0     H90376   0.600  -0.431   1.540  1.8760  4.5934 -0.6750
  685MOL0     H90377   0.516  -0.460   1.398 -1.0926  0.9181  0.2882
  685MOL0     H90378   0.404  -0.384   1.676 -0.7125 -1.3633  0.3017
  685MOL0     H90379   0.290  -0.362   1.536  0.1096  1.8008  1.2025
  685MOL0     H90380   0.458  -0.610   1.632  1.3182  3.3961 -1.4445
  685MOL0     H90381   0.352  -0.609   1.484 -0.9921  1.1989 -0.5600
  685MOL0     H90382   0.160  -0.560   1.431  1.4089 -0.6708  1.0569
  685MOL0     H90383  -0.069  -0.467   1.393 -0.4645 -3.2691 -1.0465
  685MOL0     H90384  -0.552  -0.508   1.485  1.1981 -0.8954  0.8704
  685MOL0     H90385  -0.806  -0.450   1.514 -1.9100 -0.1722  1.8539
  685MOL0     H90386  -1.085  -0.483   1.760  1.4668 -1.7956 -0.6493
  685MOL0     H90387  -0.962  -0.558   1.660  2.5627  0.6609  0.3499
  685MOL0     H90388  -1.025  -0.399   1.467 -0.6709 -1.7227 -0.6372
  685MOL0     H90389  -1.094  -0.297   1.590  2.1127  0.6639 -2.7935
  685MOL0     H90390  -1.212  -0.565   1.578  0.7414 -0.0327  1.2424
  685MOL0     H90391  -1.234  -0.466   1.428  1.0649  0.4869 -0.1001
  685MOL0     H90392  -1.430  -0.450   1.585  0.4148 -0.7023 -0.2357
  685MOL0     H90393  -1.337  -0.359   1.701 -4.3863  2.1448 -1.1116
  685MOL0     H90394  -1.399  -0.302   1.417 -0.6201 -0.1784  0.9901
  685MOL0     H90395  -1.296  -0.190   1.509 -0.0593  0.0922  2.0064
  685MOL0     H90396  -1.565  -0.286   1.602  2.7600 -1.9799 -1.9985
  685MOL0     H90397  -1.544  -0.133   1.501  4.6197  1.5970 -1.9412
  685MOL0     H90398  -1.406  -0.130   1.774  0.6330  1.7044 -0.5064
  685MOL0     H90399  -1.395  -0.031   1.641  0.5831 -0.0241  0.2996
  685MOL0     H90400  -1.671  -0.097   1.746 -0.3010 -0.4571 -0.9767
  685MOL0     H90401  -1.621   0.040   1.658  1.0592 -0.3285 -0.2377
  685MOL0     H90402  -0.731  -0.348   1.922 -2.0374  0.3661 -0.7021
  685MOL0     H90403  -0.505  -0.406   1.896 -1.0337  0.5736 -1.0323
  685MOL0     H90404  -0.167  -0.529   1.805  1.4177 -1.8828  1.3572
  685MOL0     H90405   0.044  -0.584   1.853  0.8226  1.5299 -0.7667
  685MOL0     H90406   1.780   0.464   1.521 -0.7699  1.9769 -0.2130
  685MOL0     H90407   1.993   0.541   1.468  0.9724 -3.3126  1.1694
  685MOL0     H90408   2.306   0.627   1.093 -0.6512 -1.4906 -0.2083
  685MOL0     H90409   2.538   0.704   1.047  0.4525  0.1431  0.4767
  685MOL0     H90410   2.750   0.810   1.058 -1.3209 -1.2021 -2.3629
  685MOL0     H90411   2.755   0.647   0.994  0.7757 -2.4870  1.8078
  685MOL0     H90412   2.983   0.791   0.983  1.6932 -0.4203  0.8740
  685MOL0     H90413   3.002   0.748   1.148  1.5657  0.7173 -0.7040
  685MOL0     H90414   2.973   0.502   1.073  0.8077 -0.5221 -0.4682
  685MOL0     H90415   3.123   0.584   1.038  0.1152  0.1857 -0.4923
  685MOL0     H90416   2.906   0.536   0.850  0.6315 -1.7738 -0.1622
  685MOL0     H90417   3.065   0.629   0.817 -0.2649  0.2882  0.6823
  685MOL0     H90418   3.199   0.241   0.806  1.0736  0.5933 -0.2568
  685MOL0     H90419   2.686   0.504   1.390 -1.7703  0.3442  3.9371
  685MOL0     H90420   2.459   0.467   1.473  1.6007 -4.0444 -1.1686
  686MOL0     O90421   7.640   6.642  10.586  0.3315  0.6386 -0.1315
  686MOL0     C90422   7.744   6.660  10.651  0.1422 -0.7379  0.6004
  686MOL0     O90423   7.749   6.706  10.780 -0.2811 -0.8844 -0.2412
  686MOL0     C90424   7.632   6.735  10.844 -0.6540 -0.2039 -0.1016
  686MOL0     C90425   7.543   6.632  10.870 -0.0551 -0.4294 -0.3449
  686MOL0     C90426   7.427   6.661  10.939 -0.1083  0.0029  0.4629
  686MOL0     C90427   7.400   6.786  10.986  0.2246 -0.3556  0.1613
  686MOL0     O90428   7.284   6.806  11.052  1.0335 -0.2118 -0.0431
  686MOL0     C90429   7.186   6.705  11.042  0.6701 -0.0325 -0.6319
  686MOL0     C90430   7.060   6.756  11.106  0.3851 -0.2239  0.0977
  686MOL0     C90431   6.959   6.646  11.121 -0.1919  0.0978 -0.3201
  686MOL0     C90432   6.838   6.681  11.205  0.1341 -0.7731 -0.1972
  686MOL0     C90433   6.727   6.576  11.191  0.1881  0.1187  0.0182
  686MOL0     C90434   6.596   6.626  11.246 -0.6324 -0.0468 -0.4041
  686MOL0     C90435   6.480   6.578  11.151  0.3200  0.6298 -0.8661
  686MOL0     C90436   6.468   6.420  11.128 -0.7053  0.2345 -0.2141
  686MOL0     N90437   6.336   6.387  11.065  0.0387 -0.7621  0.4900
  686MOL0     C90438   6.226   6.360  11.136 -0.5081  0.0779  0.5757
  686MOL0     C90439   6.127   6.339  11.043  0.0388  0.3590 -0.4244
  686MOL0     C90440   5.981   6.308  11.075 -0.4093  0.5102 -0.7749
  686MOL0     C90441   5.917   6.372  11.192 -0.6294  0.2565  0.4333
  686MOL0     C90442   5.862   6.276  11.304 -0.3953 -0.7817 -0.1243
  686MOL0     C90443   5.974   6.197  11.368 -0.4584  0.4069  0.0477
  686MOL0     O90444   6.073   6.278  11.438 -0.0776 -0.0040 -0.0199
  686MOL0     C90445   6.178   6.215  11.497  0.6238 -0.2468  0.6864
  686MOL0     C90446   6.283   6.305  11.535 -0.5903  0.0113  0.4537
  686MOL0     C90447   6.394   6.254  11.594 -0.5999 -0.4364  1.3386
  686MOL0     C90448   6.419   6.116  11.611  0.2509 -0.1439  0.7779
  686MOL0     C90449   6.533   6.063  11.684 -0.0852 -0.1796 -0.3402
  686MOL0     O90450   6.636   6.147  11.725  0.7326  0.4386 -0.1500
  686MOL0     C90451   6.741   6.105  11.800  0.8178 -0.4414 -1.1404
  686MOL0     C90452   6.733   5.997  11.888 -0.3652  0.0732  0.6702
  686MOL0     C90453   6.851   5.949  11.940 -0.1380  0.0831  0.9079
  686MOL0     C90454   6.973   6.011  11.929 -0.0953 -0.6567  0.5053
  686MOL0     O90455   7.083   5.979  12.003 -0.3894  0.4684 -0.1559
  686MOL0     C90456   7.095   5.862  12.085  0.0801  0.4039 -0.3709
  686MOL0     C90457   7.197   5.885  12.198 -0.1456 -0.2222 -0.9740
  686MOL0     C90458   7.250   5.744  12.230  0.7887  0.1740  0.3998
  686MOL0     C90459   7.354   5.768  12.341  1.0873  0.8431  0.1426
  686MOL0     C90460   7.393   5.630  12.395  0.8592 -0.0060 -0.2038
  686MOL0     C90461   7.317   5.609  12.518  0.7422 -0.4751 -0.4796
  686MOL0     C90462   7.324   5.467  12.576 -1.4634  0.1903  0.3096
  686MOL0     C90463   7.241   5.464  12.706 -0.1448  0.4590 -0.4357
  686MOL0    Cl90464   7.274   5.297  12.766  0.0744  0.2286 -0.0350
  686MOL0     C90465   6.974   6.131  11.857  0.4925 -0.3648 -0.0134
  686MOL0     C90466   6.865   6.173  11.789  0.2162  0.1690  0.1307
  686MOL0     O90467   6.534   5.942  11.698  0.2350  0.4917 -0.0182
  686MOL0     C90468   6.305   6.030  11.573  0.0916  0.2886  0.4164
  686MOL0     C90469   6.183   6.072  11.515  0.3063  0.0891  0.6183
  686MOL0     N90470   6.181   6.340  10.910  0.0696  0.8847 -0.5475
  686MOL0     N90471   6.304   6.379  10.921 -1.0563 -0.6107 -0.7858
  686MOL0     C90472   7.491   6.895  10.969  1.0119  0.3358 -0.2497
  686MOL0     C90473   7.602   6.867  10.888  0.2796  0.8828 -0.2018
  686MOL0     C90474   7.878   6.617  10.596 -0.1361  0.3203  0.1374
  686MOL0     C90475   7.891   6.598  10.465 -0.2709 -0.8994  1.0033
  686MOL0     C90476   8.012   6.557  10.402 -0.0718  0.5827 -0.5842
  686MOL0     C90477   8.120   6.520  10.478  0.3824  0.6100  0.1603
  686MOL0     O90478   8.233   6.453  10.430  0.5446 -0.1836 -0.7753
  686MOL0     C90479   8.314   6.556  10.378  0.6636 -0.3123 -0.3319
  686MOL0     C90480   8.423   6.500  10.299 -0.3496  0.5159  0.0584
  686MOL0     C90481   8.549   6.591  10.290  0.0022 -0.3213 -0.8898
  686MOL0     C90482   8.625   6.531  10.163  0.0441  1.4013 -0.1594
  686MOL0     C90483   8.762   6.582  10.157  0.8593 -0.3224  0.7854
  686MOL0     C90484   8.874   6.618  10.140  0.2938  0.3752  0.4177
  686MOL0     C90485   8.118   6.542  10.618  0.1920  0.1966 -0.0789
  686MOL0     C90486   7.992   6.587  10.677 -0.0964  0.1059  0.2605
  686MOL0     H90487   7.560   6.526  10.852 -0.5300 -0.1747 -2.4946
  686MOL0     H90488   7.368   6.574  10.965 -0.3824  0.1750  0.4277
  686MOL0     H90489   7.211   6.612  11.093 -2.5750 -0.2889  0.7689
  686MOL0     H90490   7.163   6.684  10.937  1.1168 -1.3963 -0.4773
  686MOL0     H90491   7.032   6.846  11.050  2.7624  0.2603 -0.3855
  686MOL0     H90492   7.083   6.798  11.204 -0.1053  0.0614  0.0957
  686MOL0     H90493   7.011   6.562  11.168  2.4212  1.3245 -0.8471
  686MOL0     H90494   6.918   6.613  11.025 -1.4868 -2.6517  1.0652
  686MOL0     H90495   6.881   6.675  11.305 -3.2540 -0.0449  1.4411
  686MOL0     H90496   6.798   6.782  11.190 -1.3022 -1.2218  0.4223
  686MOL0     H90497   6.750   6.486  11.247 -5.7314 -0.9683  1.3942
  686MOL0     H90498   6.718   6.551  11.085  3.1297 -1.4551  0.0352
  686MOL0     H90499   6.585   6.735  11.245  0.7726  0.1104 -1.1344
  686MOL0     H90500   6.588   6.586  11.347 -0.3695  4.7361  1.7869
  686MOL0     H90501   6.387   6.611  11.199 -0.0230  0.0444 -1.1191
  686MOL0     H90502   6.484   6.620  11.050  2.7906  0.8914 -0.7004
  686MOL0     H90503   6.472   6.385  11.231 -0.7427  5.0464  1.6775
  686MOL0     H90504   6.557   6.378  11.079 -0.0514  0.6963  0.5640
  686MOL0     H90505   6.226   6.357  11.244 -0.3282 -2.1501  0.5663
  686MOL0     H90506   5.964   6.200  11.074 -3.2615  0.8876 -1.7782
  686MOL0     H90507   5.931   6.331  10.980 -3.9235  0.1288  0.8317
  686MOL0     H90508   5.823   6.421  11.166 -0.7261 -1.5346 -3.3283
  686MOL0     H90509   5.981   6.450  11.234  0.3541  0.5513 -1.4946
  686MOL0     H90510   5.814   6.322  11.391  0.4914 -0.5339  0.2373
  686MOL0     H90511   5.783   6.213  11.262 -1.2543 -0.6571  1.2229
  686MOL0     H90512   6.028   6.152  11.285 -1.2111 -2.5711  1.0750
  686MOL0     H90513   5.926   6.118  11.426  1.5446 -0.6404  0.3421
  686MOL0     H90514   6.275   6.412  11.514  1.0899 -0.2328 -1.8103
  686MOL0     H90515   6.469   6.326  11.624 -0.1411 -0.1638 -0.3501
  686MOL0     H90516   6.644   5.941  11.915  0.4404 -0.6564  1.8747
  686MOL0     H90517   6.845   5.864  12.007 -0.1925 -0.6867 -0.0638
  686MOL0     H90518   7.119   5.778  12.019  0.6262 -0.1234  0.4873
  686MOL0     H90519   6.998   5.842  12.132  0.6985  1.3788  1.3931
  686MOL0     H90520   7.150   5.930  12.286 -1.1884 -1.5965 -0.7717
  686MOL0     H90521   7.270   5.954  12.156  0.8921  0.3823  1.6883
  686MOL0     H90522   7.309   5.712  12.144  0.2275  0.3597 -0.0578
  686MOL0     H90523   7.164   5.684  12.258  0.3302 -1.0036 -3.0446
  686MOL0     H90524   7.434   5.823  12.293 -0.5424  2.5893 -0.7124
  686MOL0     H90525   7.307   5.824  12.423  2.1940  1.7992  0.1388
  686MOL0     H90526   7.498   5.628  12.424 -0.1552 -0.8806  4.2203
  686MOL0     H90527   7.363   5.548  12.329 -0.0589 -2.2487  2.7442
  686MOL0     H90528   7.210   5.630  12.521  0.9378  0.4475  0.6969
  686MOL0     H90529   7.365   5.673  12.593 -1.9182 -0.8719  1.7345
  686MOL0     H90530   7.276   5.397  12.507 -0.3296  0.5138 -0.8454
  686MOL0     H90531   7.425   5.432  12.600 -2.4496 -0.9926  3.1976
  686MOL0     H90532   7.133   5.468  12.690  0.0306  3.3682 -1.4225
  686MOL0     H90533   7.289   5.534  12.774  0.5614  0.6452 -1.0985
  686MOL0     H90534   7.061   6.197  11.863  0.3350 -0.2060  0.5517
  686MOL0     H90535   6.875   6.258  11.722 -1.5452 -0.0863 -0.5113
  686MOL0     H90536   6.319   5.923  11.582  0.7905  0.2968 -0.3567
  686MOL0     H90537   6.101   6.007  11.485  1.2575 -0.1563 -1.6548
  686MOL0     H90538   7.472   6.995  11.007  0.5191  0.1182  0.0900
  686MOL0     H90539   7.672   6.946  10.858  1.5746  1.2763  3.3444
  686MOL0     H90540   7.801   6.613  10.406  0.1481 -1.8937  0.0839
  686MOL0     H90541   8.010   6.541  10.294 -1.3656  0.3327 -0.5404
  686MOL0     H90542   8.355   6.625  10.452 -0.0728  0.4964 -0.6624
  686MOL0     H90543   8.256   6.614  10.306  1.6234  1.2177  0.0842
  686MOL0     H90544   8.447   6.405  10.348 -0.9237  0.9521  1.2116
  686MOL0     H90545   8.390   6.470  10.199 -2.5808 -1.5800  1.3219
  686MOL0     H90546   8.609   6.576  10.381  0.9531  3.2425 -0.7803
  686MOL0     H90547   8.521   6.696  10.281  1.4486  0.2764  0.8340
  686MOL0     H90548   8.647   6.427  10.186 -1.2770  1.0282 -0.5390
  686MOL0     H90549   8.571   6.543  10.068 -0.3660 -0.4897 -0.1928
  686MOL0     H90550   8.966   6.665  10.114  0.5139 -0.3966 -0.2676
  686MOL0     H90551   8.198   6.521  10.689 -1.3856 -3.6104  0.7755
  686MOL0     H90552   7.965   6.605  10.781 -0.4622  2.8760 -0.2166
  687MOL0     O90553   6.032  11.157  10.018  0.2389  0.1863 -0.6000
  687MOL0     C90554   6.068  11.040  10.027 -0.5164  0.4394 -0.2600
  687MOL0     O90555   6.187  10.987   9.983 -0.2380  0.2361  0.5034
  687MOL0     C90556   6.284  11.051   9.913 -0.6041 -0.4012 -0.2028
  687MOL0     C90557   6.334  11.003   9.796 -0.0437  0.2863  0.1920
  687MOL0     C90558   6.431  11.075   9.725  0.1535 -0.1775 -0.0808
  687MOL0     C90559   6.474  11.205   9.781 -0.8004  0.4541 -0.2640
  687MOL0     O90560   6.553  11.290   9.704 -0.1428 -0.5398  0.4835
  687MOL0     C90561   6.647  11.240   9.609  0.3291  0.4879  0.0817
  687MOL0     C90562   6.756  11.162   9.680 -0.1467  0.6105 -0.5644
  687MOL0     C90563   6.829  11.077   9.575  0.9465 -0.0098  0.1104
  687MOL0     C90564   6.965  11.050   9.623 -0.3509  0.4179 -0.9025
  687MOL0     C90565   7.042  10.942   9.541  0.4218  0.0598 -0.2591
  687MOL0     C90566   7.133  10.847   9.631  0.5295  0.2530 -0.8566
  687MOL0     C90567   7.207  10.922   9.746 -0.7308  0.2125 -0.4531
  687MOL0     C90568   7.324  11.008   9.678 -0.2115  0.4673 -0.4437
  687MOL0     N90569   7.450  10.931   9.701  0.5124 -1.0715  0.2256
  687MOL0     C90570   7.543  10.963   9.796 -0.6913 -0.9001  0.1893
  687MOL0     C90571   7.628  10.858   9.779 -0.5346  0.6015  0.6332
  687MOL0     C90572   7.742  10.835   9.866  0.2326 -0.2212  0.4904
  687MOL0     C90573   7.835  10.726   9.801  0.0743 -0.1986 -0.1936
  687MOL0     C90574   7.984  10.745   9.833  0.3694 -0.1850  0.3089
  687MOL0     C90575   8.064  10.656   9.737  0.2532  0.1792 -1.4242
  687MOL0     O90576   8.202  10.654   9.780 -0.2581 -0.3576  1.3240
  687MOL0     C90577   8.292  10.568   9.711 -0.3639 -0.3151  0.3606
  687MOL0     C90578   8.412  10.559   9.776  0.1389  0.2473 -0.7910
  687MOL0     C90579   8.525  10.495   9.721  0.1969 -0.6360 -0.0096
  687MOL0     C90580   8.515  10.437   9.592 -0.3019  0.0710  0.4586
  687MOL0     C90581   8.631  10.364   9.542 -0.6524  0.4362  0.0449
  687MOL0     O90582   8.636  10.338   9.410 -0.4449  0.5160 -0.0777
  687MOL0     C90583   8.750  10.268   9.364  0.1588 -0.1263 -0.8298
  687MOL0     C90584   8.774  10.133   9.401 -0.5704 -1.1735 -0.1770
  687MOL0     C90585   8.891  10.065   9.359 -0.4316 -0.5841 -0.4067
  687MOL0     C90586   8.973  10.128   9.268 -0.6959  0.2077  0.2551
  687MOL0     O90587   9.091  10.064   9.249 -0.3414 -0.3400  0.8154
  687MOL0     C90588   9.206  10.133   9.204  0.2175  0.0620  0.4495
  687MOL0     C90589   9.328  10.054   9.242 -0.1571  0.4116 -0.7003
  687MOL0     C90590   9.467  10.113   9.177  0.8277 -0.0371 -0.1513
  687MOL0     C90591   9.588  10.030   9.204 -0.0119  0.0493 -0.5908
  687MOL0     C90592   9.687  10.060   9.097  0.8314  0.1899 -0.5808
  687MOL0     C90593   9.807   9.971   9.120 -0.0609  0.5196 -0.3236
  687MOL0     C90594   9.904  10.012   9.013 -0.7003  0.0644  0.2346
  687MOL0     C90595  10.009   9.906   9.006 -0.3942  0.4254  0.2045
  687MOL0    Cl90596  10.126   9.934   8.865 -0.2047  0.3499 -0.2462
  687MOL0     C90597   8.946  10.260   9.218  0.0279  0.2783  0.0301
  687MOL0     C90598   8.836  10.325   9.274  0.9914 -1.4201 -0.5081
  687MOL0     O90599   8.721  10.337   9.620 -0.5855  0.1764  0.0292
  687MOL0     C90600   8.388  10.461   9.527 -0.2773 -0.6720 -0.2281
  687MOL0     C90601   8.280  10.533   9.579  0.1399 -0.2434 -0.8520
  687MOL0     N90602   7.603  10.783   9.667  0.0268  0.5286 -0.2049
  687MOL0     N90603   7.493  10.825   9.622  0.6675 -0.9962 -0.5339
  687MOL0     C90604   6.430  11.247   9.905 -0.3251  0.2880 -0.2335
  687MOL0     C90605   6.338  11.169   9.973  0.2416 -0.1039  0.3863
  687MOL0     C90606   5.971  10.944  10.078 -0.4153 -0.3553  1.3402
  687MOL0     C90607   6.005  10.806  10.101 -0.4158  0.2263  0.7701
  687MOL0     C90608   5.921  10.710  10.168  0.1044  0.0176 -0.4268
  687MOL0     C90609   5.797  10.755  10.216  0.5476 -0.5055  0.2570
  687MOL0     O90610   5.693  10.671  10.263  0.3122  0.3427  0.3454
  687MOL0     C90611   5.707  10.529  10.285 -0.1669  0.3211 -0.8965
  687MOL0     C90612   5.772  10.501  10.417  0.3574 -0.1330  0.0719
  687MOL0     C90613   5.720  10.598  10.532 -0.3124  0.8721  0.2367
  687MOL0     C90614   5.564  10.632  10.527 -0.0107  0.1152  0.7796
  687MOL0     C90615   5.513  10.681  10.656  0.0713  0.6897 -0.1988
  687MOL0     C90616   5.474  10.708  10.769  0.7761 -0.7761  0.9231
  687MOL0     C90617   5.763  10.893  10.200  1.0810 -0.2866  1.0626
  687MOL0     C90618   5.850  10.985  10.131  0.1552  0.5647  0.2779
  687MOL0     H90619   6.297  10.909   9.757 -0.0975 -1.4046  3.8935
  687MOL0     H90620   6.467  11.036   9.631 -0.0164 -2.4379  0.7420
  687MOL0     H90621   6.699  11.323   9.560  2.0702  0.8171  2.2996
  687MOL0     H90622   6.600  11.172   9.538  0.9096 -0.1678  0.3067
  687MOL0     H90623   6.716  11.091   9.754  2.8994  2.2463  3.0069
  687MOL0     H90624   6.826  11.226   9.734  1.9700 -1.3223 -0.8391
  687MOL0     H90625   6.836  11.137   9.484  6.3468 -2.1891 -1.2518
  687MOL0     H90626   6.772  10.995   9.532  1.0527  0.8873 -1.8286
  687MOL0     H90627   7.019  11.142   9.648  0.7944 -0.3167 -0.5732
  687MOL0     H90628   6.945  11.001   9.719 -0.4522  1.3268 -0.4573
  687MOL0     H90629   7.100  10.994   9.465 -2.4122  1.1195 -1.8736
  687MOL0     H90630   6.984  10.873   9.478 -1.2127  0.3906  0.8007
  687MOL0     H90631   7.215  10.822   9.563  0.9108  1.2079 -0.7590
  687MOL0     H90632   7.083  10.756   9.667  1.8234  0.1494  0.7840
  687MOL0     H90633   7.151  10.983   9.817 -0.7817  0.9812 -1.1390
  687MOL0     H90634   7.246  10.851   9.819  2.1282  2.4767  0.4549
  687MOL0     H90635   7.336  11.103   9.731  0.2326 -0.6583  1.6247
  687MOL0     H90636   7.310  11.035   9.573  2.2500 -0.8330 -1.2043
  687MOL0     H90637   7.532  11.040   9.872 -0.8857 -1.2731  0.5400
  687MOL0     H90638   7.704  10.819   9.967 -1.8461 -0.7135 -0.3184
  687MOL0     H90639   7.801  10.927   9.859 -1.5202  0.8555 -1.5590
  687MOL0     H90640   7.825  10.720   9.692  1.3181 -3.0226 -0.2649
  687MOL0     H90641   7.789  10.634   9.838  0.1524 -1.5789 -3.1969
  687MOL0     H90642   8.023  10.847   9.841  0.3155  0.0945 -2.2574
  687MOL0     H90643   7.995  10.710   9.936 -3.7139 -1.1582  0.5877
  687MOL0     H90644   8.057  10.686   9.632 -0.9334 -0.1566 -1.4571
  687MOL0     H90645   8.019  10.556   9.737 -3.1915  1.5689  0.4199
  687MOL0     H90646   8.413  10.610   9.872  2.6792 -1.8903  0.4366
  687MOL0     H90647   8.614  10.497   9.782  0.8704 -0.8806 -0.9742
  687MOL0     H90648   8.703  10.078   9.461 -2.5470  1.0113 -0.3434
  687MOL0     H90649   8.913   9.963   9.390 -0.3218 -0.6896 -0.8198
  687MOL0     H90650   9.217  10.229   9.256  2.5192  2.0407 -3.2337
  687MOL0     H90651   9.203  10.164   9.099  0.5821  0.9360  0.6846
  687MOL0     H90652   9.325   9.953   9.200 -0.3212 -0.1574  0.6184
  687MOL0     H90653   9.326  10.042   9.351 -0.3493  1.5530 -0.5694
  687MOL0     H90654   9.485  10.217   9.205  0.8943 -0.2894  0.7736
  687MOL0     H90655   9.432  10.116   9.073 -1.3756  0.4965  0.5665
  687MOL0     H90656   9.631  10.043   9.304 -1.2436 -1.6217  0.2275
  687MOL0     H90657   9.549   9.928   9.205 -2.6831  0.9821 -1.0162
  687MOL0     H90658   9.702  10.168   9.093  1.2063  0.1171 -3.2330
  687MOL0     H90659   9.641  10.031   9.002 -0.0274 -1.5271  0.3163
  687MOL0     H90660   9.769   9.869   9.105  0.0700  0.4212  0.0134
  687MOL0     H90661   9.847  10.004   9.216 -1.6355  0.3444  0.4231
  687MOL0     H90662   9.860  10.022   8.913 -0.9336 -0.0031  0.3319
  687MOL0     H90663   9.938  10.114   9.037 -2.0680  0.8927 -1.1000
  687MOL0     H90664   9.951   9.815   8.991  0.1570  0.1187 -0.0823
  687MOL0     H90665  10.054   9.900   9.105 -0.1092  1.9210  0.1966
  687MOL0     H90666   8.995  10.310   9.135  0.5135 -2.0870 -1.1968
  687MOL0     H90667   8.809  10.427   9.248  1.2067 -0.3861  2.7876
  687MOL0     H90668   8.378  10.438   9.421  2.9753 -0.2271 -0.7204
  687MOL0     H90669   8.185  10.538   9.526  0.7682  4.8550 -1.9945
  687MOL0     H90670   6.462  11.341   9.950 -2.8540  0.0034  2.4223
  687MOL0     H90671   6.310  11.200  10.073 -0.2377  1.7988 -0.2779
  687MOL0     H90672   6.102  10.770  10.069 -1.3456 -0.9443 -0.9018
  687MOL0     H90673   5.954  10.606  10.174  0.8330  0.3194  2.2318
  687MOL0     H90674   5.770  10.491  10.204  1.3056 -1.5745  1.0365
  687MOL0     H90675   5.612  10.474  10.281  0.3990 -0.8623  0.8717
  687MOL0     H90676   5.767  10.394  10.438  2.5953 -0.7102 -1.9018
  687MOL0     H90677   5.880  10.518  10.407  0.3399 -0.6461 -1.0786
  687MOL0     H90678   5.776  10.690  10.514  2.5111 -1.0860 -1.9771
  687MOL0     H90679   5.740  10.552  10.629  1.3838 -1.5766 -1.1448
  687MOL0     H90680   5.537  10.705  10.450 -3.3699 -3.0822 -1.4304
  687MOL0     H90681   5.502  10.545  10.503  0.5672  0.1580 -1.0293
  687MOL0     H90682   5.425  10.734  10.860  1.0899  0.4229  0.7772
  687MOL0     H90683   5.663  10.919  10.233  1.1836 -0.9979  1.9764
  687MOL0     H90684   5.804  11.083  10.127 -3.3190 -0.9448 -0.4223
  688MOL0     O90685   7.089   1.793   1.782  0.2987  0.3288 -0.5362
  688MOL0     C90686   7.138   1.825   1.886  0.2781 -0.0617  0.5729
  688MOL0     O90687   7.068   1.873   2.000 -0.3388 -0.3032 -0.4449
  688MOL0     C90688   6.933   1.891   1.999  0.1381 -0.5537 -0.1342
  688MOL0     C90689   6.878   1.916   2.130  0.3155 -0.1258 -0.1167
  688MOL0     C90690   6.740   1.933   2.145  0.2971 -0.6631  0.3785
  688MOL0     C90691   6.656   1.941   2.029  0.8414 -0.8454 -0.7682
  688MOL0     O90692   6.518   1.970   2.039  0.2794 -0.0069 -0.0300
  688MOL0     C90693   6.481   2.070   2.136 -0.7732 -0.2499  0.4947
  688MOL0     C90694   6.338   2.115   2.111 -0.6695 -0.9450 -0.3299
  688MOL0     C90695   6.226   1.998   2.101  0.2638  0.4653  0.3818
  688MOL0     C90696   6.091   2.054   2.133  0.2575  0.2034  0.3283
  688MOL0     C90697   5.999   1.939   2.129  0.4780  0.6759  0.8156
  688MOL0     C90698   5.858   1.973   2.183 -0.4685 -0.1731 -0.1603
  688MOL0     C90699   5.778   1.838   2.199  0.0902 -0.4922  0.3903
  688MOL0     C90700   5.632   1.846   2.147  0.1615 -0.0000  0.2663
  688MOL0     N90701   5.556   1.962   2.195 -0.7847  0.1988  0.7479
  688MOL0     C90702   5.488   2.047   2.110 -0.4986  0.1193  0.2439
  688MOL0     C90703   5.429   2.131   2.199 -0.3049 -0.0101  0.7364
  688MOL0     C90704   5.327   2.234   2.159  0.4747  0.3053  1.3026
  688MOL0     C90705   5.201   2.190   2.236  0.2173 -0.6247  0.2757
  688MOL0     C90706   5.099   2.305   2.228 -0.7010 -0.3961 -0.2009
  688MOL0     C90707   4.955   2.261   2.253 -0.5262  0.3669  0.4346
  688MOL0     O90708   4.871   2.375   2.227  0.2024 -0.2277  0.1242
  688MOL0     C90709   4.741   2.357   2.229  1.0766  0.1615 -0.0126
  688MOL0     C90710   4.682   2.228   2.217  0.4290  0.4706  0.1195
  688MOL0     C90711   4.542   2.206   2.224 -0.0539 -0.5527  0.1762
  688MOL0     C90712   4.458   2.312   2.268 -0.3422  0.3313  0.6180
  688MOL0     C90713   4.304   2.281   2.284 -0.3867 -0.2942 -0.3002
  688MOL0     O90714   4.221   2.389   2.316  0.4021  0.0429 -0.1166
  688MOL0     C90715   4.081   2.378   2.327  0.2070 -0.4372 -0.6256
  688MOL0     C90716   4.028   2.403   2.454 -0.0586 -0.5033 -0.6180
  688MOL0     C90717   3.890   2.408   2.478  0.1287 -0.1610  0.9408
  688MOL0     C90718   3.803   2.367   2.380  0.2662  0.1101  0.2656
  688MOL0     O90719   3.664   2.356   2.413 -0.3672  0.5825 -0.4910
  688MOL0     C90720   3.574   2.307   2.312  0.2300 -0.4743  0.8983
  688MOL0     C90721   3.437   2.272   2.376 -0.4429 -0.2226  0.7951
  688MOL0     C90722   3.359   2.172   2.301  1.6448  0.1493  0.1831
  688MOL0     C90723   3.218   2.140   2.340 -0.4006 -0.4838 -0.5544
  688MOL0     C90724   3.204   2.075   2.478  0.0401 -0.1550  0.6189
  688MOL0     C90725   3.057   2.046   2.499  0.1323 -0.6841 -0.7023
  688MOL0     C90726   3.037   1.948   2.614  0.1492 -0.6983  0.5497
  688MOL0     C90727   3.061   1.796   2.579 -0.4652  0.1945 -0.0768
  688MOL0    Cl90728   2.938   1.734   2.461  0.0520 -0.6348 -0.3871
  688MOL0     C90729   3.855   2.346   2.246  0.3024 -0.1175 -0.2901
  688MOL0     C90730   3.998   2.351   2.220  0.2985 -0.6916 -0.3991
  688MOL0     O90731   4.263   2.170   2.256  0.3320  0.5312  0.1672
  688MOL0     C90732   4.518   2.439   2.273 -0.0055  0.5975 -0.6718
  688MOL0     C90733   4.657   2.461   2.253 -0.5433 -0.7580  1.0723
  688MOL0     N90734   5.470   2.095   2.324 -0.0578  0.1193  0.0163
  688MOL0     N90735   5.535   1.989   2.322 -0.8028 -1.0520 -0.3500
  688MOL0     C90736   6.708   1.921   1.898 -0.0209 -0.4009 -0.1534
  688MOL0     C90737   6.842   1.898   1.882 -0.0036  0.0772 -0.9310
  688MOL0     C90738   7.285   1.795   1.900 -0.4014 -1.1092  0.2370
  688MOL0     C90739   7.351   1.737   1.792  0.4534  0.1312 -0.0183
  688MOL0     C90740   7.489   1.727   1.799  0.2591  0.2765  0.0614
  688MOL0     C90741   7.559   1.775   1.911  0.8349 -0.4239  0.0765
  688MOL0     O90742   7.691   1.792   1.917 -0.3545 -0.4280  0.1621
  688MOL0     C90743   7.761   1.722   1.813 -0.2508 -0.0743 -0.3236
  688MOL0     C90744   7.912   1.762   1.819  0.0017 -0.2763  0.0754
  688MOL0     C90745   7.979   1.744   1.957  0.9861  0.3131  0.9188
  688MOL0     C90746   8.132   1.715   1.953 -0.3784  0.0037 -0.0125
  688MOL0     C90747   8.199   1.706   2.079 -0.4671 -0.4175 -0.0130
  688MOL0     C90748   8.249   1.694   2.190  0.3632  0.1743 -0.6569
  688MOL0     C90749   7.485   1.844   2.011  0.3500 -0.0823  0.2050
  688MOL0     C90750   7.353   1.857   2.007  0.5090 -1.0073  0.0387
  688MOL0     H90751   6.943   1.914   2.216  0.2537 -1.0096 -0.0782
  688MOL0     H90752   6.692   1.943   2.242  0.5510 -0.9709  0.5411
  688MOL0     H90753   6.553   2.152   2.131  1.1556 -1.7466  2.1257
  688MOL0     H90754   6.478   2.026   2.237  2.6293 -0.8646  0.4426
  688MOL0     H90755   6.344   2.200   2.042 -0.0868  0.2112  1.0831
  688MOL0     H90756   6.313   2.165   2.205 -1.3451 -4.3021  1.4283
  688MOL0     H90757   6.258   1.924   2.176 -1.6462  0.2886  1.0752
  688MOL0     H90758   6.228   1.952   2.002 -4.9451  2.1963 -0.8092
  688MOL0     H90759   6.087   2.115   2.224 -0.5385  1.3146 -0.4212
  688MOL0     H90760   6.060   2.119   2.050  1.5519  1.3788  0.7352
  688MOL0     H90761   6.041   1.864   2.197 -0.4417  0.2838  0.9641
  688MOL0     H90762   5.995   1.899   2.028 -0.3835 -0.4859  1.2926
  688MOL0     H90763   5.809   2.042   2.114 -1.8109  1.1864  2.0263
  688MOL0     H90764   5.862   2.027   2.278  0.4651  3.6601 -2.1870
  688MOL0     H90765   5.827   1.759   2.142  1.9717  0.9060 -0.0383
  688MOL0     H90766   5.769   1.807   2.303 -3.7762 -0.0519  0.3229
  688MOL0     H90767   5.574   1.758   2.177  0.8983  0.0249  1.9096
  688MOL0     H90768   5.627   1.849   2.038  0.2323 -0.0631  0.2610
  688MOL0     H90769   5.485   2.049   2.001 -2.6047  0.3622  0.2725
  688MOL0     H90770   5.330   2.241   2.050 -1.1075  0.1696  1.2332
  688MOL0     H90771   5.359   2.331   2.198 -0.4892  1.1980 -0.0375
  688MOL0     H90772   5.220   2.181   2.343 -0.7035  2.8154  0.8553
  688MOL0     H90773   5.165   2.090   2.209 -6.0249  1.0010  1.0048
  688MOL0     H90774   5.122   2.384   2.299 -2.1353  1.5147 -1.7465
  688MOL0     H90775   5.102   2.348   2.127 -2.2418 -0.1686 -0.1839
  688MOL0     H90776   4.938   2.206   2.346  0.8637 -2.1110 -0.6988
  688MOL0     H90777   4.942   2.189   2.172  0.7319 -0.8820  1.3053
  688MOL0     H90778   4.744   2.141   2.197  0.3847  0.5824 -0.5039
  688MOL0     H90779   4.509   2.109   2.188 -0.5833 -0.3978  0.2394
  688MOL0     H90780   4.092   2.419   2.540 -1.5994  3.7219  0.0279
  688MOL0     H90781   3.850   2.433   2.576  0.6973  4.4361  0.2093
  688MOL0     H90782   3.616   2.220   2.261 -0.8284 -0.3523 -0.2482
  688MOL0     H90783   3.566   2.385   2.236  0.5938 -1.3365 -0.0413
  688MOL0     H90784   3.376   2.360   2.396 -2.5724 -1.8804  2.0224
  688MOL0     H90785   3.453   2.223   2.473  0.3352  2.1085  1.9323
  688MOL0     H90786   3.406   2.074   2.314  1.6764  0.1569  0.1276
  688MOL0     H90787   3.365   2.195   2.194  0.8394  1.4235  0.3993
  688MOL0     H90788   3.153   2.228   2.339 -4.0244 -2.8975 -3.8764
  688MOL0     H90789   3.170   2.075   2.268 -1.4925  0.2676 -0.5275
  688MOL0     H90790   3.248   2.138   2.556 -0.1726  0.7354  0.0374
  688MOL0     H90791   3.259   1.980   2.480  0.1416 -0.1352 -0.5447
  688MOL0     H90792   3.007   2.012   2.407 -1.4348 -2.3402  0.6686
  688MOL0     H90793   3.006   2.136   2.534  1.9880 -0.3389  1.2819
  688MOL0     H90794   3.102   1.974   2.698  4.8193 -3.8963 -1.6721
  688MOL0     H90795   2.934   1.957   2.650 -0.6341  0.2335 -1.7377
  688MOL0     H90796   3.053   1.740   2.673  0.7862  0.4058  0.1724
  688MOL0     H90797   3.161   1.767   2.547 -1.2774 -0.2548 -2.3726
  688MOL0     H90798   3.802   2.316   2.156  1.5662  2.6014 -2.0832
  688MOL0     H90799   4.032   2.336   2.118 -0.2617 -0.9582 -0.5511
  688MOL0     H90800   4.464   2.532   2.289  0.6758  0.5525  2.5640
  688MOL0     H90801   4.696   2.562   2.246  0.0581 -1.0036  0.8449
  688MOL0     H90802   6.651   1.918   1.806 -2.5337 -1.9904  1.3567
  688MOL0     H90803   6.885   1.876   1.785  1.4768 -0.0549 -0.2825
  688MOL0     H90804   7.300   1.705   1.702  1.1197  0.3101 -0.4624
  688MOL0     H90805   7.534   1.673   1.716  0.4673 -0.7169  0.8073
  688MOL0     H90806   7.735   1.747   1.710 -0.4395 -2.2607 -0.8495
  688MOL0     H90807   7.762   1.614   1.830  0.9605 -0.4136 -2.1916
  688MOL0     H90808   7.973   1.722   1.736 -0.1809  3.8924 -2.3482
  688MOL0     H90809   7.917   1.870   1.804 -3.4609  0.0628  0.5233
  688MOL0     H90810   7.939   1.654   2.005  2.0369  0.1394  1.5044
  688MOL0     H90811   7.948   1.823   2.025 -3.5493 -0.4837  0.0513
  688MOL0     H90812   8.141   1.613   1.916 -1.1620 -0.0728 -0.0143
  688MOL0     H90813   8.196   1.774   1.887 -1.2765  0.5794 -0.3990
  688MOL0     H90814   8.305   1.689   2.281 -0.5225 -2.9368 -0.1431
  688MOL0     H90815   7.534   1.890   2.096 -0.3349 -1.2764  1.2964
  688MOL0     H90816   7.298   1.916   2.080  0.5673 -0.7651 -0.1103
  689MOL0     O90817  10.700   5.988   1.307  0.6234 -0.7845 -0.4566
  689MOL0     C90818  10.784   6.075   1.304  0.1182 -0.4618 -0.5144
  689MOL0     O90819  10.888   6.093   1.399  0.5493 -0.2664 -0.0341
  689MOL0     C90820  10.895   6.019   1.510 -1.0917 -0.7011  0.1037
  689MOL0     C90821  10.791   5.952   1.577  0.6209 -1.3207  0.3321
  689MOL0     C90822  10.814   5.892   1.696 -0.4818  0.4052  0.1071
  689MOL0     C90823  10.935   5.883   1.752 -0.0010 -0.3003 -0.1546
  689MOL0     O90824  10.967   5.821   1.875  0.6591  0.4575  0.3103
  689MOL0     C90825  10.871   5.827   1.976 -0.2283 -0.1341  0.6562
  689MOL0     C90826  10.856   5.976   2.009  0.5461  0.1770 -0.6138
  689MOL0     C90827  10.755   5.987   2.121 -0.3831 -0.1434 -0.7792
  689MOL0     C90828  10.797   5.929   2.256  0.2263 -0.7571 -0.6699
  689MOL0     C90829  10.700   5.956   2.375  0.4605  0.1789  0.3074
  689MOL0     C90830  10.553   5.928   2.340  0.7758 -0.5188  0.4588
  689MOL0     C90831  10.465   5.898   2.465 -0.0466  0.8924 -0.3721
  689MOL0     C90832  10.323   5.864   2.427 -0.5110 -0.6799  0.6828
  689MOL0     N90833  10.262   5.956   2.323 -0.1124  0.2898 -0.0275
  689MOL0     C90834  10.208   6.073   2.343 -0.2260  0.1098  0.5053
  689MOL0     C90835  10.150   6.111   2.229 -1.3871  0.7783 -0.3746
  689MOL0     C90836  10.087   6.247   2.222  0.7153  0.7917  0.9343
  689MOL0     C90837   9.939   6.238   2.260 -0.7514 -0.4090 -1.0429
  689MOL0     C90838   9.875   6.372   2.225  0.6990  0.1269 -0.4351
  689MOL0     C90839   9.723   6.358   2.260 -0.4972 -0.8802 -0.2529
  689MOL0     O90840   9.645   6.470   2.204  0.4105  0.2998 -0.3504
  689MOL0     C90841   9.507   6.453   2.201  0.1872 -0.1695  0.4237
  689MOL0     C90842   9.439   6.349   2.268  0.4802  0.1736  0.5492
  689MOL0     C90843   9.304   6.323   2.249 -0.5283  0.6580 -0.5043
  689MOL0     C90844   9.223   6.414   2.179 -0.3793 -0.2956  0.1827
  689MOL0     C90845   9.077   6.400   2.173 -0.7883 -0.7671  0.0805
  689MOL0     O90846   9.001   6.506   2.120  0.4147 -0.5698 -0.0229
  689MOL0     C90847   8.863   6.481   2.102 -0.7340  0.3602  0.0818
  689MOL0     C90848   8.782   6.500   2.214  0.2269  0.0335  0.5872
  689MOL0     C90849   8.647   6.456   2.200 -0.3551 -0.1320  0.1820
  689MOL0     C90850   8.598   6.408   2.072  0.8353 -0.1307  0.0011
  689MOL0     O90851   8.463   6.374   2.043 -0.2867  0.2131  0.1217
  689MOL0     C90852   8.400   6.308   2.151  0.1614  0.7722 -0.1574
  689MOL0     C90853   8.266   6.245   2.112 -0.7983 -0.2613  0.1497
  689MOL0     C90854   8.168   6.346   2.057 -0.3915  0.1605  0.4254
  689MOL0     C90855   8.020   6.276   2.055  0.2154  0.3015  0.2292
  689MOL0     C90856   7.917   6.376   2.004  0.2228  0.0608 -0.0405
  689MOL0     C90857   7.827   6.316   1.907  0.3754 -0.1691 -0.3906
  689MOL0     C90858   7.715   6.414   1.867  0.0758  0.3699 -0.6557
  689MOL0     C90859   7.607   6.349   1.770  0.2180 -1.0062  0.2460
  689MOL0    Cl90860   7.688   6.318   1.619  0.1148 -0.2623  0.0360
  689MOL0     C90861   8.693   6.391   1.973  0.7386  0.5559 -1.0640
  689MOL0     C90862   8.823   6.427   1.980  0.4610  1.1176 -0.3995
  689MOL0     O90863   9.025   6.305   2.229  0.3170 -0.3821  1.1152
  689MOL0     C90864   9.291   6.526   2.122  0.3412  0.2082  0.6042
  689MOL0     C90865   9.433   6.546   2.128  0.3749  0.4859 -0.0738
  689MOL0     N90866  10.177   6.015   2.129 -0.6378  0.8870 -0.3787
  689MOL0     N90867  10.253   5.920   2.189  0.9099 -1.2883  0.3371
  689MOL0     C90868  11.039   5.950   1.690  0.1573  0.1970 -0.5030
  689MOL0     C90869  11.022   6.021   1.571  0.3557 -0.1340  0.1207
  689MOL0     C90870  10.783   6.148   1.178 -0.1305 -0.2144 -0.3576
  689MOL0     C90871  10.657   6.146   1.105 -0.5419 -0.4061  0.3690
  689MOL0     C90872  10.648   6.201   0.979 -0.6131 -0.1304  0.6276
  689MOL0     C90873  10.764   6.260   0.919  0.1831 -0.2532 -0.3864
  689MOL0     O90874  10.761   6.323   0.797 -0.7622  0.2130 -0.4082
  689MOL0     C90875  10.882   6.333   0.714  0.5474 -0.2507 -1.1551
  689MOL0     C90876  10.825   6.316   0.576 -0.3984 -0.2258 -0.4681
  689MOL0     C90877  10.946   6.343   0.481  0.9631 -0.0584  0.1741
  689MOL0     C90878  10.894   6.327   0.336  0.0624  0.5584 -0.4107
  689MOL0     C90879  10.995   6.371   0.239 -0.4253  0.0004 -0.3993
  689MOL0     C90880  11.070   6.388   0.143  0.6092 -1.2123  0.0267
  689MOL0     C90881  10.884   6.265   0.993  0.3030  0.2931  0.3096
  689MOL0     C90882  10.899   6.207   1.123  0.4505  0.0347  0.4417
  689MOL0     H90883  10.686   5.971   1.555  0.7392 -1.9440 -0.8760
  689MOL0     H90884  10.735   5.830   1.739  1.4677 -1.9047  0.5879
  689MOL0     H90885  10.919   5.775   2.060  0.5254 -0.2734  0.1528
  689MOL0     H90886  10.775   5.781   1.954  0.2074 -0.8007  0.1238
  689MOL0     H90887  10.811   6.030   1.925 -5.3841 -2.5089  0.2654
  689MOL0     H90888  10.949   6.014   2.052 -0.5537 -1.5687  3.9264
  689MOL0     H90889  10.660   5.948   2.084  0.4309  0.5214 -3.8947
  689MOL0     H90890  10.744   6.094   2.139 -1.7598 -0.5889  1.3427
  689MOL0     H90891  10.805   5.820   2.245 -2.4386 -0.8337 -2.9355
  689MOL0     H90892  10.897   5.963   2.283 -1.2144  3.0624  0.5462
  689MOL0     H90893  10.708   6.049   2.432  0.8506  0.4631 -0.1992
  689MOL0     H90894  10.715   5.884   2.456 -3.8888 -2.3958 -0.8415
  689MOL0     H90895  10.552   5.839   2.275 -1.7521 -0.4291  0.2622
  689MOL0     H90896  10.504   6.011   2.288 -1.0578 -2.0416 -0.3877
  689MOL0     H90897  10.513   5.824   2.530 -3.1831  0.8796  2.1542
  689MOL0     H90898  10.473   5.993   2.519 -0.0091 -0.1266  1.4907
  689MOL0     H90899  10.271   5.866   2.523 -1.5881 -1.0199  0.1178
  689MOL0     H90900  10.319   5.762   2.388  0.1826 -0.1220 -0.9524
  689MOL0     H90901  10.203   6.115   2.443  4.2910 -0.2683  1.1006
  689MOL0     H90902  10.105   6.298   2.127  0.0166 -0.1635  0.2696
  689MOL0     H90903  10.138   6.311   2.294  1.1047  1.7672 -0.1848
  689MOL0     H90904   9.937   6.216   2.367 -1.7021 -2.2928 -1.4032
  689MOL0     H90905   9.889   6.162   2.199  1.1901  0.2305 -3.6364
  689MOL0     H90906   9.905   6.455   2.289  0.4154 -0.9517  1.1519
  689MOL0     H90907   9.890   6.394   2.119  1.0796 -2.6768 -1.0306
  689MOL0     H90908   9.723   6.341   2.368  2.1207 -2.4675 -0.4105
  689MOL0     H90909   9.684   6.270   2.207 -2.3652 -0.6212  0.6244
  689MOL0     H90910   9.489   6.269   2.322  3.2573  1.0166 -0.5813
  689MOL0     H90911   9.239   6.248   2.293 -2.9601  3.1686  0.4785
  689MOL0     H90912   8.815   6.534   2.312  1.2398  0.7686  0.0019
  689MOL0     H90913   8.585   6.480   2.286 -0.4246 -2.4714  0.8375
  689MOL0     H90914   8.384   6.378   2.233 -0.9776 -1.3946  1.5776
  689MOL0     H90915   8.463   6.228   2.191  0.4392  1.3527  0.5748
  689MOL0     H90916   8.215   6.200   2.198  0.5371 -1.9876  0.0966
  689MOL0     H90917   8.290   6.167   2.038 -0.0636 -0.6392  0.7757
  689MOL0     H90918   8.179   6.380   1.953 -5.0126  0.0401 -0.3074
  689MOL0     H90919   8.177   6.432   2.125  2.4795 -0.1174  0.5032
  689MOL0     H90920   8.020   6.192   1.985 -2.4327 -0.2117  0.7579
  689MOL0     H90921   7.992   6.228   2.149  0.8938 -1.7039 -0.5346
  689MOL0     H90922   7.960   6.461   1.949  1.4816 -2.3936 -3.1664
  689MOL0     H90923   7.866   6.435   2.081 -0.4384  0.6279 -0.9048
  689MOL0     H90924   7.775   6.230   1.951 -2.6303  1.7181  0.0805
  689MOL0     H90925   7.888   6.294   1.819  0.3812  1.2745 -0.7693
  689MOL0     H90926   7.659   6.435   1.958 -0.2790 -1.2183 -0.4909
  689MOL0     H90927   7.740   6.514   1.829 -2.4645  0.1346 -3.3636
  689MOL0     H90928   7.531   6.425   1.753  1.1828 -0.6458 -3.2978
  689MOL0     H90929   7.554   6.264   1.814 -2.7860 -0.3660 -1.8501
  689MOL0     H90930   8.663   6.347   1.878 -1.3577  0.0346 -0.2157
  689MOL0     H90931   8.882   6.426   1.889  1.3703  2.4425  0.1495
  689MOL0     H90932   9.242   6.598   2.058  1.4614 -1.5959 -2.4572
  689MOL0     H90933   9.473   6.629   2.070  2.0204  0.2390  0.6560
  689MOL0     H90934  11.129   5.935   1.750 -1.7229 -1.4122  2.1400
  689MOL0     H90935  11.097   6.069   1.509  1.5743 -2.9432 -0.7392
  689MOL0     H90936  10.569   6.095   1.143 -0.7903  0.5605  1.1418
  689MOL0     H90937  10.558   6.204   0.920  2.0881  0.9645 -3.9573
  689MOL0     H90938  10.963   6.262   0.727  1.4668  0.7656 -1.2120
  689MOL0     H90939  10.937   6.424   0.738  0.1688 -0.0504 -1.0470
  689MOL0     H90940  10.781   6.220   0.548  0.8719 -1.6068  1.9623
  689MOL0     H90941  10.748   6.393   0.565 -0.5621 -0.5394 -1.6799
  689MOL0     H90942  11.028   6.274   0.504 -0.4315 -2.0334 -0.4805
  689MOL0     H90943  10.985   6.443   0.501  2.0559 -0.3270 -0.4824
  689MOL0     H90944  10.882   6.221   0.313  2.6386 -0.4777  2.2783
  689MOL0     H90945  10.799   6.382   0.334  0.1263  0.6878 -0.0918
  689MOL0     H90946  11.136   6.395   0.059 -2.1246 -1.1941 -2.2596
  689MOL0     H90947  10.975   6.314   0.960  0.3033 -1.4813 -2.7501
  689MOL0     H90948  10.998   6.201   1.166  1.5440 -0.1619 -1.9114
  690MOL0     O90949  11.189   3.286   9.870  0.2024 -0.2381  0.2179
  690MOL0     C90950  11.272   3.207   9.911 -0.3925 -0.1978 -1.0980
  690MOL0     O90951  11.291   3.179  10.049 -0.2552 -0.5049  0.3748
  690MOL0     C90952  11.216   3.235  10.145 -0.5092 -0.5681 -0.3290
  690MOL0     C90953  11.189   3.164  10.264  0.2089 -0.2583  0.3652
  690MOL0     C90954  11.113   3.217  10.367  0.2764 -0.7304  0.2925
  690MOL0     C90955  11.062   3.349  10.364 -0.3849  0.2211 -0.3286
  690MOL0     O90956  10.984   3.404  10.462 -0.2560  0.4997 -0.0125
  690MOL0     C90957  10.910   3.313  10.545 -0.5727 -0.5405 -0.1851
  690MOL0     C90958  10.765   3.373  10.562 -0.7316  0.1078  0.1619
  690MOL0     C90959  10.771   3.488  10.666  0.2737  0.1523 -0.1302
  690MOL0     C90960  10.772   3.445  10.811  0.2228 -0.2020  0.6936
  690MOL0     C90961  10.753   3.569  10.901  1.1042  0.0855 -0.5221
  690MOL0     C90962  10.614   3.590  10.968 -0.4498  0.7011 -0.0076
  690MOL0     C90963  10.492   3.617  10.881 -0.5521 -0.3495 -0.7811
  690MOL0     C90964  10.403   3.712  10.954  0.1132 -1.1558 -1.3450
  690MOL0     N90965  10.278   3.722  10.884 -0.0088  0.2029  0.0476
  690MOL0     C90966  10.164   3.665  10.929 -0.1027  0.1520  0.5516
  690MOL0     C90967  10.079   3.674  10.828 -0.0492 -0.3579 -0.7815
  690MOL0     C90968   9.940   3.612  10.827 -0.3153  0.9681  0.0067
  690MOL0     C90969   9.937   3.466  10.795  0.6163  0.8083 -0.7678
  690MOL0     C90970   9.807   3.439  10.713 -0.1197  0.0570 -0.3778
  690MOL0     C90971   9.679   3.467  10.792  0.5662 -0.3942 -0.2355
  690MOL0     O90972   9.569   3.420  10.703 -0.2613  0.5520  0.0851
  690MOL0     C90973   9.443   3.450  10.752  0.8243  0.7345  0.3073
  690MOL0     C90974   9.415   3.502  10.876 -0.8843 -0.6278 -0.8098
  690MOL0     C90975   9.281   3.524  10.915  0.3801  0.2730 -0.1789
  690MOL0     C90976   9.175   3.479  10.829 -0.1539 -0.2577  1.1251
  690MOL0     C90977   9.032   3.493  10.864 -0.0602  0.2896  0.3697
  690MOL0     O90978   9.007   3.540  10.992  0.1579  0.4729  0.5396
  690MOL0     C90979   8.883   3.550  11.044  0.4319  0.7328 -0.2654
  690MOL0     C90980   8.790   3.439  11.042 -0.1043 -0.2756  0.4087
  690MOL0     C90981   8.659   3.458  11.078  0.1497  1.4989 -0.0700
  690MOL0     C90982   8.612   3.583  11.126  0.1371 -0.5263 -0.0173
  690MOL0     O90983   8.487   3.606  11.177 -0.8233  0.8747 -0.2712
  690MOL0     C90984   8.442   3.488  11.243  0.4055  0.3472 -0.8864
  690MOL0     C90985   8.326   3.536  11.336  0.1783  0.0090 -0.2517
  690MOL0     C90986   8.194   3.574  11.267 -0.3981  0.2133  0.2801
  690MOL0     C90987   8.097   3.631  11.371 -0.5428  0.1322 -0.2769
  690MOL0     C90988   7.968   3.680  11.313 -0.1535  0.3041  0.2398
  690MOL0     C90989   7.873   3.719  11.425  1.1661 -0.4194  0.4981
  690MOL0     C90990   7.743   3.774  11.375  0.3820  0.9105  0.1858
  690MOL0     C90991   7.658   3.862  11.479  0.3389 -0.0318  0.5454
  690MOL0    Cl90992   7.668   3.817  11.648  0.5609 -0.0427 -0.2597
  690MOL0     C90993   8.696   3.693  11.125 -0.7030 -0.3531  1.3673
  690MOL0     C90994   8.823   3.670  11.086 -0.6984 -1.0749  0.2661
  690MOL0     O90995   8.946   3.478  10.776  0.3252 -0.8820 -0.0124
  690MOL0     C90996   9.210   3.421  10.705  0.5071  0.6718 -0.0151
  690MOL0     C90997   9.340   3.410  10.672 -0.1805 -0.0630 -0.1798
  690MOL0     N90998  10.130   3.764  10.737  0.5982 -0.4494 -0.4444
  690MOL0     N90999  10.250   3.784  10.768  0.1782  0.6320  0.7954
  690MOL0     C91000  11.099   3.424  10.254  0.1583 -0.3393 -0.3959
  690MOL0     C91001  11.166   3.365  10.144 -0.5283  0.1779 -0.6767
  690MOL0     C91002  11.341   3.126   9.814 -0.4448  0.3824 -0.4283
  690MOL0     C91003  11.445   3.040   9.868 -0.6657  0.5393  0.8620
  690MOL0     C91004  11.522   2.956   9.787  0.2984  0.6656  0.6898
  690MOL0     C91005  11.489   2.961   9.650 -0.3885  0.0967  0.0936
  690MOL0     O91006  11.554   2.867   9.569 -0.3103 -0.1223 -0.7808
  690MOL0     C91007  11.660   2.916   9.484  0.0927  0.4104  0.6874
  690MOL0     C91008  11.795   2.900   9.549  0.2678  0.4033 -0.1886
  690MOL0     C91009  11.829   3.026   9.621  0.4501  0.0247 -0.7206
  690MOL0     C91010  11.976   3.029   9.664  0.2165  0.2916  0.6876
  690MOL0     C91011  12.001   3.164   9.710 -0.8253 -0.2711  0.4460
  690MOL0     C91012  12.011   3.278   9.751  0.8964 -0.0394 -0.5595
  690MOL0     C91013  11.393   3.046   9.595 -0.1500  0.3352 -0.0035
  690MOL0     C91014  11.325   3.130   9.676  0.3845 -1.3098  0.3267
  690MOL0     H91015  11.221   3.060  10.268  0.4800 -0.1689  0.5993
  690MOL0     H91016  11.087   3.148  10.447 -3.5987 -3.3431 -2.8060
  690MOL0     H91017  10.945   3.304  10.648  1.4703 -1.5635 -0.9341
  690MOL0     H91018  10.903   3.214  10.500  1.8047 -1.0472  0.4304
  690MOL0     H91019  10.700   3.298  10.607  0.0474 -0.1329  0.9268
  690MOL0     H91020  10.731   3.423  10.471 -0.6414  0.1217  0.1360
  690MOL0     H91021  10.687   3.555  10.648 -1.0815 -1.4435  0.0857
  690MOL0     H91022  10.860   3.549  10.646  0.4956 -0.4322 -0.9959
  690MOL0     H91023  10.699   3.364  10.823  1.8833 -1.9424 -0.2955
  690MOL0     H91024  10.871   3.400  10.823 -0.0059 -0.6324  0.9849
  690MOL0     H91025  10.777   3.660  10.845  2.5890  0.9948  1.4634
  690MOL0     H91026  10.818   3.558  10.989  1.7657 -2.5753 -1.2312
  690MOL0     H91027  10.635   3.662  11.048  0.8150 -1.2551  1.4935
  690MOL0     H91028  10.595   3.493  11.013 -0.3498  0.8089  0.2682
  690MOL0     H91029  10.523   3.660  10.785  1.4461  0.5938  0.2158
  690MOL0     H91030  10.435   3.524  10.871 -1.2853 -0.5306  3.2690
  690MOL0     H91031  10.439   3.815  10.969 -1.7939 -0.6818  0.6320
  690MOL0     H91032  10.376   3.679  11.055 -2.4192  2.6328 -0.5348
  690MOL0     H91033  10.153   3.602  11.016 -0.2692 -1.1154 -0.3594
  690MOL0     H91034   9.888   3.679  10.758  1.0175  1.5947 -0.4272
  690MOL0     H91035   9.897   3.611  10.927 -1.7729 -1.6571 -0.5709
  690MOL0     H91036   9.948   3.408  10.887 -1.6406  4.1744  1.8651
  690MOL0     H91037  10.019   3.432  10.730  0.5342  0.9309 -0.9364
  690MOL0     H91038   9.825   3.493  10.619  2.0128 -1.4647 -0.9256
  690MOL0     H91039   9.799   3.332  10.692  0.2257  0.3734 -2.3697
  690MOL0     H91040   9.671   3.573  10.817  4.4520  0.3775 -1.5442
  690MOL0     H91041   9.679   3.424  10.893  1.4161  0.8060  0.3137
  690MOL0     H91042   9.487   3.524  10.953 -1.2072 -0.3541 -0.5854
  690MOL0     H91043   9.274   3.566  11.015  0.1321 -1.6757  0.6580
  690MOL0     H91044   8.839   3.345  11.019  0.7548 -0.0633  1.3297
  690MOL0     H91045   8.589   3.375  11.071  1.1900  0.5202  0.7174
  690MOL0     H91046   8.519   3.445  11.307 -0.6001  2.8839  2.3363
  690MOL0     H91047   8.392   3.421  11.172 -1.4709  1.4828 -0.7148
  690MOL0     H91048   8.367   3.624  11.386 -2.2949  0.4775  1.0724
  690MOL0     H91049   8.302   3.465  11.415 -0.8722  0.6762  0.0390
  690MOL0     H91050   8.149   3.487  11.218  1.8372 -0.4863 -0.7106
  690MOL0     H91051   8.219   3.647  11.189 -3.4232  0.9987 -0.0558
  690MOL0     H91052   8.081   3.553  11.447  0.4889 -0.1786 -0.3552
  690MOL0     H91053   8.150   3.711  11.423  1.0171 -1.9799  1.6226
  690MOL0     H91054   7.926   3.602  11.249  0.1975  0.2800  0.0390
  690MOL0     H91055   7.993   3.756  11.239  1.2711  3.7949  3.9623
  690MOL0     H91056   7.924   3.803  11.473  0.4484 -1.2217  2.7748
  690MOL0     H91057   7.860   3.635  11.494 -0.4785 -0.2497  0.4501
  690MOL0     H91058   7.763   3.837  11.288  2.0265  0.2160  0.0387
  690MOL0     H91059   7.686   3.686  11.344  1.7283  0.3909 -0.9146
  690MOL0     H91060   7.553   3.866  11.447 -0.3280 -0.8764  2.4842
  690MOL0     H91061   7.691   3.966  11.471  0.0865 -0.0618 -1.6686
  690MOL0     H91062   8.667   3.794  11.152 -3.5348 -0.8495  0.4583
  690MOL0     H91063   8.881   3.762  11.082 -2.0381 -0.2361 -3.1710
  690MOL0     H91064   9.144   3.388  10.626  0.9039  0.4153 -0.2487
  690MOL0     H91065   9.354   3.353  10.580 -0.0042  1.5587 -1.2025
  690MOL0     H91066  11.063   3.522  10.224  0.7292  0.3066  0.9618
  690MOL0     H91067  11.188   3.434  10.063  0.3916  3.9167  2.4323
  690MOL0     H91068  11.466   3.028   9.974 -1.1956 -0.6566  0.8495
  690MOL0     H91069  11.607   2.898   9.820  1.7446  2.2732 -0.0430
  690MOL0     H91070  11.644   3.017   9.445 -4.4953 -1.5253 -3.6944
  690MOL0     H91071  11.653   2.861   9.389  1.8140 -0.9929  1.3072
  690MOL0     H91072  11.820   2.809   9.603 -0.4900  0.2879 -0.0140
  690MOL0     H91073  11.858   2.892   9.460  1.3781 -0.7204  0.6718
  690MOL0     H91074  11.758   3.038   9.703 -1.2472  0.4938 -2.1968
  690MOL0     H91075  11.806   3.117   9.564 -0.2549 -0.0229 -0.5277
  690MOL0     H91076  11.997   2.963   9.748  0.5035  0.5382  0.8142
  690MOL0     H91077  12.035   2.995   9.578 -1.6694 -5.9297  1.4153
  690MOL0     H91078  12.029   3.375   9.792 -0.2773 -1.0715  2.7977
  690MOL0     H91079  11.375   3.041   9.488  2.5134 -2.7360 -0.4630
  690MOL0     H91080  11.246   3.195   9.639  0.8324 -0.4850  0.7966
  691MOL0     O91081   7.100   1.450   0.502 -0.5710  0.1318 -0.5010
  691MOL0     C91082   7.137   1.345   0.441  0.0325 -0.3645 -0.0476
  691MOL0     O91083   7.072   1.219   0.456  0.6239 -0.2355  0.3791
  691MOL0     C91084   6.961   1.203   0.547 -0.2026 -1.4587  0.2334
  691MOL0     C91085   6.858   1.297   0.566  0.1393  0.0044 -0.3052
  691MOL0     C91086   6.757   1.276   0.660 -0.3185 -0.9884 -0.2263
  691MOL0     C91087   6.755   1.154   0.740  0.4314 -0.8375  0.0632
  691MOL0     O91088   6.673   1.133   0.844 -0.0290 -0.1276 -0.3921
  691MOL0     C91089   6.539   1.104   0.812 -0.3452  0.0680 -0.1205
  691MOL0     C91090   6.455   1.148   0.934  0.4221 -0.2942 -0.9046
  691MOL0     C91091   6.468   1.049   1.053 -0.0525  0.5275 -0.1812
  691MOL0     C91092   6.428   0.903   1.013 -0.2266 -0.5419 -1.1992
  691MOL0     C91093   6.409   0.828   1.140  0.0505  0.7628 -0.5782
  691MOL0     C91094   6.290   0.866   1.235  0.5593  0.2753 -0.0652
  691MOL0     C91095   6.152   0.869   1.171 -0.7834 -0.1157  0.9799
  691MOL0     C91096   6.043   0.885   1.271 -0.5202  0.2895 -0.3409
  691MOL0     N91097   5.916   0.871   1.203 -0.0596  0.0332 -0.0640
  691MOL0     C91098   5.815   0.968   1.202  0.6357 -0.1912 -0.2608
  691MOL0     C91099   5.716   0.917   1.135 -1.0405  0.5024 -0.9116
  691MOL0     C91100   5.590   0.990   1.095 -0.1698 -0.3713  0.6304
  691MOL0     C91101   5.475   0.945   1.185  0.3877 -1.1097 -0.8649
  691MOL0     C91102   5.475   0.992   1.330  0.8376  0.6739  0.6627
  691MOL0     C91103   5.342   0.979   1.405 -0.1792 -0.7617 -0.8494
  691MOL0     O91104   5.251   1.083   1.351 -0.1685  0.4908  0.2192
  691MOL0     C91105   5.195   1.168   1.444 -0.3873  0.5324 -0.4986
  691MOL0     C91106   5.054   1.168   1.463 -0.4545 -0.4542  0.1040
  691MOL0     C91107   4.994   1.268   1.544 -0.2012 -0.4034  0.9534
  691MOL0     C91108   5.073   1.372   1.596  0.3709  0.0685 -0.1676
  691MOL0     C91109   5.016   1.486   1.687  0.1168 -0.2632  0.2771
  691MOL0     O91110   4.892   1.464   1.733 -0.0632  0.3057 -0.3662
  691MOL0     C91111   4.823   1.572   1.779  0.8527 -0.4281  0.1129
  691MOL0     C91112   4.849   1.627   1.895  0.5318 -0.1183 -0.4154
  691MOL0     C91113   4.781   1.746   1.934 -0.1463 -0.2442 -0.2209
  691MOL0     C91114   4.675   1.798   1.860  0.1880 -0.3164 -0.6075
  691MOL0     O91115   4.611   1.900   1.923 -0.5515 -0.0837  0.5491
  691MOL0     C91116   4.490   1.944   1.874  0.9497 -0.0698 -0.7712
  691MOL0     C91117   4.381   1.840   1.936 -0.2401  0.0632 -0.3916
  691MOL0     C91118   4.235   1.884   1.914 -0.0112 -0.7426 -0.4981
  691MOL0     C91119   4.143   1.779   1.990  0.1033 -0.7239  0.8135
  691MOL0     C91120   3.996   1.825   1.994  0.9708  0.1223 -0.3202
  691MOL0     C91121   3.898   1.722   2.048  0.3431 -0.7496 -0.6140
  691MOL0     C91122   3.763   1.774   2.107 -0.2903 -0.7043  0.4726
  691MOL0     C91123   3.672   1.844   1.999 -0.2725  0.1755  0.2943
  691MOL0    Cl91124   3.527   1.912   2.069  0.0335  0.4387 -0.1442
  691MOL0     C91125   4.645   1.743   1.735 -0.8283 -0.6120  0.1061
  691MOL0     C91126   4.715   1.624   1.702  0.1849  0.5290  0.2806
  691MOL0     O91127   5.091   1.582   1.715  0.2871 -0.0248  0.1135
  691MOL0     C91128   5.201   1.370   1.560  0.1850  0.5773 -0.7998
  691MOL0     C91129   5.269   1.271   1.494 -0.2914  0.6875  0.2521
  691MOL0     N91130   5.752   0.783   1.096  0.2902 -0.1529 -0.1473
  691MOL0     N91131   5.874   0.767   1.132  0.1823  0.2772  0.7012
  691MOL0     C91132   6.863   1.065   0.725  1.1715 -0.0645 -0.1422
  691MOL0     C91133   6.967   1.091   0.636 -0.2245 -0.6612  0.0861
  691MOL0     C91134   7.255   1.358   0.358  0.1879  0.6995  0.1753
  691MOL0     C91135   7.303   1.482   0.315 -1.0566  0.0914 -0.3147
  691MOL0     C91136   7.417   1.484   0.232 -0.0761  0.4152 -0.0563
  691MOL0     C91137   7.480   1.363   0.188  0.7043  0.6088  0.4100
  691MOL0     O91138   7.591   1.353   0.105 -0.4870 -0.2848 -0.0819
  691MOL0     C91139   7.640   1.471   0.035  0.5685  0.3801  0.2655
  691MOL0     C91140   7.752   1.444  -0.062 -0.9185  0.6190 -0.4014
  691MOL0     C91141   7.828   1.573  -0.103  0.2623 -0.0476 -0.3291
  691MOL0     C91142   7.918   1.556  -0.224 -0.2347 -0.4713 -0.6285
  691MOL0     C91143   8.026   1.450  -0.209  0.3883 -0.2345 -0.5766
  691MOL0     C91144   8.103   1.356  -0.207  0.2715 -0.4398 -0.0914
  691MOL0     C91145   7.436   1.243   0.245  0.4779 -1.0173  1.0157
  691MOL0     C91146   7.326   1.239   0.325  0.0834 -0.2132 -0.0899
  691MOL0     H91147   6.853   1.389   0.509  1.6367  0.4086  0.1790
  691MOL0     H91148   6.690   1.361   0.666  0.0403 -0.3140 -3.6632
  691MOL0     H91149   6.549   0.997   0.793 -0.1120  0.6413 -3.9305
  691MOL0     H91150   6.503   1.146   0.718 -1.5931  2.5866  1.3544
  691MOL0     H91151   6.352   1.135   0.902 -0.0758 -0.3212  0.6366
  691MOL0     H91152   6.479   1.251   0.962  0.8407  0.2129 -2.9411
  691MOL0     H91153   6.408   1.094   1.133  1.5049  1.4659  0.4977
  691MOL0     H91154   6.569   1.054   1.093 -0.2482  2.9484  0.1984
  691MOL0     H91155   6.335   0.903   0.955 -1.3112 -0.1656  0.4900
  691MOL0     H91156   6.513   0.865   0.955  1.0740  3.1179 -2.0396
  691MOL0     H91157   6.497   0.839   1.205  2.6689  0.7255 -3.8241
  691MOL0     H91158   6.399   0.727   1.101 -1.6122  0.6700 -0.0005
  691MOL0     H91159   6.306   0.966   1.274  0.9191 -0.3079  1.3423
  691MOL0     H91160   6.280   0.803   1.324 -2.0992 -2.5467 -2.1083
  691MOL0     H91161   6.144   0.950   1.097  1.8961  0.6423  1.4330
  691MOL0     H91162   6.138   0.773   1.122 -0.8952 -0.3489  1.4685
  691MOL0     H91163   6.056   0.975   1.332 -1.7506  0.5947 -0.4970
  691MOL0     H91164   6.047   0.810   1.351 -0.8741  2.0172  1.3886
  691MOL0     H91165   5.805   1.063   1.254 -4.4620 -0.9213  0.6798
  691MOL0     H91166   5.574   0.981   0.987 -0.5684  2.6958  0.3566
  691MOL0     H91167   5.597   1.099   1.104  1.0461 -0.4382  0.6449
  691MOL0     H91168   5.466   0.836   1.171  2.1070 -1.1952 -1.5194
  691MOL0     H91169   5.389   1.001   1.147 -0.5626  0.8518  3.5348
  691MOL0     H91170   5.545   0.929   1.385 -1.9939 -2.8009  0.6193
  691MOL0     H91171   5.517   1.091   1.351 -0.2950  1.1170  0.9005
  691MOL0     H91172   5.364   1.001   1.510 -2.1283 -1.2073 -0.3181
  691MOL0     H91173   5.305   0.878   1.386  0.1911 -1.0052 -0.2874
  691MOL0     H91174   4.987   1.090   1.428 -2.9454  1.9032 -0.7788
  691MOL0     H91175   4.890   1.266   1.573 -0.3759 -1.7094  0.2834
  691MOL0     H91176   4.932   1.602   1.960 -1.2763  0.5972  2.3598
  691MOL0     H91177   4.831   1.790   2.020  0.8468 -2.1961  0.2674
  691MOL0     H91178   4.483   1.955   1.765  0.2059  1.1074 -0.6300
  691MOL0     H91179   4.462   2.048   1.897  0.8445  0.6668 -3.8446
  691MOL0     H91180   4.395   1.842   2.044  1.1087  0.6554 -0.5513
  691MOL0     H91181   4.387   1.738   1.898  1.6772 -0.7753  1.9350
  691MOL0     H91182   4.209   1.894   1.808  2.5089  0.2758 -1.0840
  691MOL0     H91183   4.205   1.982   1.955 -0.2613 -1.6680  1.6850
  691MOL0     H91184   4.171   1.678   1.959  0.6807 -0.8288  1.6473
  691MOL0     H91185   4.184   1.777   2.092 -2.8639  2.1280  2.2364
  691MOL0     H91186   3.957   1.859   1.897 -1.1302 -1.2567 -0.0177
  691MOL0     H91187   3.997   1.919   2.050 -0.9019  0.8570 -1.4390
  691MOL0     H91188   3.949   1.679   2.134 -0.5137 -1.6834 -0.5419
  691MOL0     H91189   3.890   1.640   1.976  1.4947 -3.3358  2.0083
  691MOL0     H91190   3.713   1.692   2.160  1.4163 -2.3429 -0.3421
  691MOL0     H91191   3.783   1.854   2.180 -0.3941 -0.0984 -0.1551
  691MOL0     H91192   3.666   1.777   1.913  1.4233  0.9851 -0.5067
  691MOL0     H91193   3.723   1.927   1.949 -1.6818  0.5714 -0.5494
  691MOL0     H91194   4.570   1.778   1.665  0.5973 -2.0080 -2.2992
  691MOL0     H91195   4.707   1.574   1.606  2.7810 -0.3756  0.4415
  691MOL0     H91196   5.259   1.456   1.593  0.9512  0.1439 -0.9796
  691MOL0     H91197   5.372   1.288   1.467 -1.3913  2.8606 -3.1661
  691MOL0     H91198   6.857   0.980   0.792  1.7465  0.2720  0.3433
  691MOL0     H91199   7.055   1.028   0.628  0.6065  0.5410 -0.5492
  691MOL0     H91200   7.255   1.571   0.353 -0.2984  0.4711 -0.2297
  691MOL0     H91201   7.450   1.585   0.209 -1.9702  0.9461 -0.6473
  691MOL0     H91202   7.665   1.550   0.106 -0.4812  1.7667 -0.8528
  691MOL0     H91203   7.554   1.504  -0.025  0.1433 -0.0234  0.6470
  691MOL0     H91204   7.822   1.382  -0.004 -0.8545  1.4976  0.4850
  691MOL0     H91205   7.711   1.384  -0.143 -1.0502 -1.9035  1.4039
  691MOL0     H91206   7.890   1.608  -0.020 -1.0496 -0.3726  0.8300
  691MOL0     H91207   7.745   1.640  -0.128 -0.8400 -2.3938 -3.5855
  691MOL0     H91208   7.864   1.533  -0.316  1.4748 -1.4003 -1.4565
  691MOL0     H91209   7.967   1.654  -0.235  1.4687 -1.3214 -1.0041
  691MOL0     H91210   8.172   1.275  -0.223 -1.3329 -2.0603  0.8509
  691MOL0     H91211   7.481   1.147   0.225 -0.5041 -1.4148  0.6735
  691MOL0     H91212   7.299   1.142   0.364  1.3062 -1.3921 -2.0435
  692MOL0     O91213   0.704   1.594   1.807 -0.5271  1.0347  0.6357
  692MOL0     C91214   0.799   1.676   1.810  0.0496  0.0482 -0.2490
  692MOL0     O91215   0.783   1.806   1.773  0.2010  0.3187 -0.5257
  692MOL0     C91216   0.652   1.857   1.764 -1.2214  1.0175  0.6703
  692MOL0     C91217   0.556   1.849   1.870 -0.5481  0.2325 -0.2498
  692MOL0     C91218   0.429   1.908   1.849  0.3386 -0.0523  0.4336
  692MOL0     C91219   0.395   1.969   1.723  1.0004 -1.1282  1.1465
  692MOL0     O91220   0.267   2.007   1.703  0.0762 -0.1922  0.5672
  692MOL0     C91221   0.243   2.125   1.629  0.5335  0.2334 -0.6043
  692MOL0     C91222   0.101   2.169   1.674 -0.7303 -0.0272  0.9052
  692MOL0     C91223   0.042   2.280   1.576  0.1330 -0.1044 -0.2833
  692MOL0     C91224  -0.098   2.319   1.620  0.2815 -0.1947  0.6081
  692MOL0     C91225  -0.205   2.210   1.606  0.2340  0.3259 -0.2285
  692MOL0     C91226  -0.341   2.262   1.647  0.1063  0.3011 -0.2172
  692MOL0     C91227  -0.431   2.165   1.722 -0.6895 -0.4798 -0.0098
  692MOL0     C91228  -0.565   2.230   1.753  0.6568 -0.3681  0.1843
  692MOL0     N91229  -0.639   2.255   1.627  0.1611  0.6314  0.1954
  692MOL0     C91230  -0.700   2.154   1.552  0.1495  0.5427  0.8236
  692MOL0     C91231  -0.782   2.226   1.473  0.4688 -0.1443 -0.3292
  692MOL0     C91232  -0.869   2.176   1.362  0.1988 -0.0704 -0.0145
  692MOL0     C91233  -0.991   2.088   1.410  0.0118  0.3499  0.1607
  692MOL0     C91234  -1.049   2.028   1.285  0.7800  0.6484 -0.5295
  692MOL0     C91235  -1.110   2.128   1.187 -0.7821  0.5888  0.0104
  692MOL0     O91236  -1.220   2.193   1.260  0.0865 -0.4040  0.0805
  692MOL0     C91237  -1.350   2.157   1.222  0.2479  0.1643 -1.1027
  692MOL0     C91238  -1.434   2.268   1.223 -0.6211 -0.3413 -0.8958
  692MOL0     C91239  -1.562   2.265   1.177 -0.4163  0.3541 -0.1476
  692MOL0     C91240  -1.627   2.142   1.147 -0.2701 -0.0018  0.4623
  692MOL0     C91241  -1.779   2.132   1.106  0.2122  0.1135  0.9079
  692MOL0     O91242  -1.852   2.245   1.122  0.5946 -0.1361 -0.3017
  692MOL0     C91243  -1.984   2.242   1.097 -0.3495  0.0595  0.6296
  692MOL0     C91244  -2.066   2.335   1.170  0.0923  0.9139  0.0267
  692MOL0     C91245  -2.202   2.339   1.159  0.9059 -0.8749  0.3190
  692MOL0     C91246  -2.273   2.262   1.067  0.3180  0.0245  0.3213
  692MOL0     O91247  -2.408   2.276   1.040 -0.0573  0.2567 -0.5429
  692MOL0     C91248  -2.470   2.398   1.101  0.3526  0.2526 -0.1527
  692MOL0     C91249  -2.620   2.396   1.055  0.7077 -0.0287 -0.8477
  692MOL0     C91250  -2.713   2.525   1.075  0.1352 -0.4034  0.3254
  692MOL0     C91251  -2.829   2.524   0.973 -0.2963  0.5211 -0.3597
  692MOL0     C91252  -2.945   2.621   1.007  0.1625  0.2070  0.1528
  692MOL0     C91253  -3.069   2.604   0.914  1.0613  0.7602  0.3957
  692MOL0     C91254  -3.125   2.460   0.896 -0.5022 -0.0886  0.0159
  692MOL0     C91255  -3.269   2.460   0.840  0.1259 -0.5962 -0.4159
  692MOL0    Cl91256  -3.280   2.540   0.674 -0.1026 -0.1465 -0.3080
  692MOL0     C91257  -2.198   2.175   0.983  0.1777  0.1944  0.0626
  692MOL0     C91258  -2.058   2.174   1.000 -0.7497 -0.1882 -0.3993
  692MOL0     O91259  -1.810   2.019   1.058  0.4932 -0.0148 -0.4212
  692MOL0     C91260  -1.548   2.019   1.163 -0.3123 -0.2305  0.8599
  692MOL0     C91261  -1.409   2.032   1.198 -0.4528  0.5864 -0.3668
  692MOL0     N91262  -0.780   2.359   1.506  0.8919 -0.2829 -0.0671
  692MOL0     N91263  -0.702   2.376   1.601  0.0139  0.1657  0.2278
  692MOL0     C91264   0.492   1.981   1.623  0.6858 -0.1239  0.3711
  692MOL0     C91265   0.615   1.921   1.643 -0.0923 -0.0190 -0.5998
  692MOL0     C91266   0.929   1.627   1.857 -0.3663 -1.0224  0.6231
  692MOL0     C91267   1.052   1.703   1.837  0.2023 -0.5148 -0.9820
  692MOL0     C91268   1.176   1.653   1.879  0.1234 -1.0069  0.2406
  692MOL0     C91269   1.178   1.525   1.939 -0.6964 -1.1983 -0.7145
  692MOL0     O91270   1.298   1.460   1.954  0.4297  0.4042  0.0433
  692MOL0     C91271   1.413   1.538   1.964  0.7919 -0.8087  0.6682
  692MOL0     C91272   1.533   1.455   1.997 -0.3840  1.1529  0.4674
  692MOL0     C91273   1.645   1.533   2.065  0.1945 -0.1558  0.3741
  692MOL0     C91274   1.761   1.588   1.983 -0.0030  0.0912  0.4041
  692MOL0     C91275   1.812   1.484   1.902  0.7059 -0.0817  0.1595
  692MOL0     C91276   1.859   1.380   1.872 -1.0109 -0.3908  0.1054
  692MOL0     C91277   1.067   1.447   1.941  0.5996 -0.3611  0.2398
  692MOL0     C91278   0.945   1.496   1.902  0.0511  0.2858 -0.5524
  692MOL0     H91279   0.565   1.822   1.974 -2.7742  1.4800  0.3331
  692MOL0     H91280   0.359   1.899   1.931 -0.7750 -0.8394 -0.5718
  692MOL0     H91281   0.238   2.109   1.521 -1.8169 -2.1806 -0.2512
  692MOL0     H91282   0.317   2.203   1.652  1.8613 -1.3742  0.8698
  692MOL0     H91283   0.106   2.214   1.774  1.1604  1.5565  0.1696
  692MOL0     H91284   0.032   2.084   1.670  1.6386 -2.0935 -3.4873
  692MOL0     H91285   0.058   2.248   1.473  0.4480 -1.9885  0.3207
  692MOL0     H91286   0.090   2.377   1.590 -0.3383 -0.0289  0.8536
  692MOL0     H91287  -0.086   2.342   1.726 -2.3503  2.1177  0.5165
  692MOL0     H91288  -0.118   2.415   1.572  1.8071  0.8811  1.9943
  692MOL0     H91289  -0.178   2.120   1.661  0.6209 -0.3405 -1.4688
  692MOL0     H91290  -0.204   2.168   1.505 -1.4571 -2.7523  0.9020
  692MOL0     H91291  -0.391   2.312   1.564  0.7821 -0.5592 -1.1768
  692MOL0     H91292  -0.310   2.339   1.717 -0.9522 -0.3040  0.9635
  692MOL0     H91293  -0.451   2.079   1.657  0.3763  1.3883 -2.9996
  692MOL0     H91294  -0.377   2.137   1.813 -0.1611 -2.1308 -0.7914
  692MOL0     H91295  -0.549   2.323   1.809  0.4371 -0.4064  0.3096
  692MOL0     H91296  -0.630   2.163   1.809  0.5057  0.2555  0.7693
  692MOL0     H91297  -0.668   2.050   1.556  4.0785  1.5560 -0.1955
  692MOL0     H91298  -0.813   2.129   1.280 -0.5901  0.9310 -1.1782
  692MOL0     H91299  -0.915   2.262   1.312  0.1166 -1.9816 -3.5556
  692MOL0     H91300  -1.066   2.142   1.468  1.5688  0.9344  1.7554
  692MOL0     H91301  -0.942   2.014   1.475 -1.2934  1.5100  2.6198
  692MOL0     H91302  -0.971   1.977   1.228 -0.1268 -1.3890 -0.0134
  692MOL0     H91303  -1.121   1.950   1.307  3.0230 -1.6726 -0.9160
  692MOL0     H91304  -1.162   2.078   1.105 -2.2822  0.8804  0.7373
  692MOL0     H91305  -1.051   2.211   1.148 -0.4523  1.0057  1.3332
  692MOL0     H91306  -1.399   2.371   1.221 -1.5185  0.0098  0.2125
  692MOL0     H91307  -1.616   2.358   1.165 -0.0868  0.1758 -4.1519
  692MOL0     H91308  -2.004   2.401   1.231  1.1967  1.0456 -1.1897
  692MOL0     H91309  -2.251   2.418   1.214 -2.1424 -2.4430  0.0300
  692MOL0     H91310  -2.419   2.489   1.069  0.8276 -0.3371 -1.1179
  692MOL0     H91311  -2.463   2.396   1.210 -1.6222  2.3399  0.0703
  692MOL0     H91312  -2.669   2.303   1.085  1.1259  0.0775  0.2382
  692MOL0     H91313  -2.613   2.394   0.946  3.1119 -0.9303 -0.7242
  692MOL0     H91314  -2.646   2.612   1.067  1.4282 -1.4282 -0.6345
  692MOL0     H91315  -2.753   2.528   1.176  4.7354  0.4604  2.3848
  692MOL0     H91316  -2.801   2.546   0.870  0.2839 -0.3148 -0.3866
  692MOL0     H91317  -2.872   2.424   0.961 -1.2065  1.0352 -1.6833
  692MOL0     H91318  -2.905   2.722   0.997  2.1370 -0.6922 -2.4866
  692MOL0     H91319  -2.976   2.609   1.111  1.7411 -2.7779  0.4189
  692MOL0     H91320  -3.028   2.635   0.818 -1.0165 -1.7603 -1.4682
  692MOL0     H91321  -3.150   2.676   0.931 -1.0384 -0.5967 -2.9246
  692MOL0     H91322  -3.066   2.410   0.819 -1.1481  0.4744 -0.8666
  692MOL0     H91323  -3.117   2.409   0.992 -4.0736  2.7929  2.1248
  692MOL0     H91324  -3.322   2.526   0.910 -0.4971  0.9509 -2.2849
  692MOL0     H91325  -3.312   2.359   0.835 -0.1188 -0.9118  3.7709
  692MOL0     H91326  -2.237   2.128   0.894 -0.2664 -1.5093  1.1057
  692MOL0     H91327  -2.003   2.112   0.930  0.4440  0.6612 -0.2554
  692MOL0     H91328  -1.582   1.916   1.156  0.7480 -0.5424  0.0807
  692MOL0     H91329  -1.352   1.943   1.225 -2.2154 -0.6478 -0.4931
  692MOL0     H91330   0.453   2.029   1.534 -0.1591 -1.1038  0.1934
  692MOL0     H91331   0.691   1.935   1.566  0.0140 -2.1668 -0.9283
  692MOL0     H91332   1.050   1.805   1.801  1.5953 -0.7744 -1.8875
  692MOL0     H91333   1.263   1.718   1.871  0.8588 -1.7836  1.5687
  692MOL0     H91334   1.391   1.622   2.031 -3.0054  1.2431 -2.6906
  692MOL0     H91335   1.439   1.576   1.864 -3.8388  0.1713 -0.3924
  692MOL0     H91336   1.494   1.379   2.066 -1.3287 -1.3223 -2.5615
  692MOL0     H91337   1.568   1.402   1.908  0.2186  0.0417  1.3328
  692MOL0     H91338   1.685   1.468   2.143  0.5888  2.4866  2.5085
  692MOL0     H91339   1.604   1.614   2.126 -0.8460 -1.2275  1.1323
  692MOL0     H91340   1.729   1.673   1.922  2.6958  1.9480  1.4000
  692MOL0     H91341   1.835   1.624   2.055 -0.1113 -1.6606  1.4572
  692MOL0     H91342   1.885   1.278   1.856  4.8611  0.9143 -0.7616
  692MOL0     H91343   1.084   1.344   1.972 -1.8899 -0.6293  0.9711
  692MOL0     H91344   0.852   1.439   1.910 -1.3577  2.6652  1.5427
  693MOL0     O91345   1.503   8.342   9.713 -1.1601 -0.8083 -0.3532
  693MOL0     C91346   1.526   8.386   9.824 -0.4553  0.5239  0.0531
  693MOL0     O91347   1.436   8.409   9.917  0.2323  0.0072 -0.0166
  693MOL0     C91348   1.311   8.349   9.923 -0.5858  0.0896  0.2438
  693MOL0     C91349   1.213   8.401   9.842 -0.0330 -0.0228 -0.7442
  693MOL0     C91350   1.088   8.342   9.840 -0.2667  0.0217  0.2644
  693MOL0     C91351   1.065   8.232   9.922  0.4056 -0.3693  0.6399
  693MOL0     O91352   0.929   8.198   9.914 -0.0689  0.0332 -0.5896
  693MOL0     C91353   0.873   8.177  10.045 -0.0285  0.6126 -0.0240
  693MOL0     C91354   0.821   8.037  10.074  0.6797 -0.2212  0.4568
  693MOL0     C91355   0.678   8.020  10.013 -0.4704  0.0232 -0.2430
  693MOL0     C91356   0.657   7.870   9.999  0.2882 -0.0408  0.3797
  693MOL0     C91357   0.528   7.835   9.915 -0.5334  1.1223  1.3374
  693MOL0     C91358   0.552   7.861   9.764 -0.1580 -0.8170 -0.2003
  693MOL0     C91359   0.644   7.767   9.686 -0.7233 -0.3169  0.0448
  693MOL0     C91360   0.625   7.760   9.526 -0.3866 -0.2121 -0.1908
  693MOL0     N91361   0.738   7.692   9.468  0.2348 -0.4995  0.0344
  693MOL0     C91362   0.855   7.760   9.451  0.3435  0.5066 -0.5592
  693MOL0     C91363   0.942   7.664   9.393  0.0337 -0.5994 -0.0690
  693MOL0     C91364   1.072   7.680   9.330 -0.7662 -0.2452 -0.2990
  693MOL0     C91365   1.181   7.694   9.435  0.1204 -0.3389  0.4232
  693MOL0     C91366   1.231   7.560   9.495 -0.3560  0.4120  0.5404
  693MOL0     C91367   1.133   7.449   9.555 -0.1183 -0.4792  0.2562
  693MOL0     O91368   1.083   7.528   9.668  0.2213  0.3143 -0.0908
  693MOL0     C91369   0.982   7.474   9.753 -0.5263 -0.2562 -0.0852
  693MOL0     C91370   0.937   7.560   9.855 -0.4233  0.2540  0.2734
  693MOL0     C91371   0.841   7.518   9.951  0.2753  0.2711  0.7263
  693MOL0     C91372   0.776   7.387   9.938 -0.2409 -0.6308 -1.3215
  693MOL0     C91373   0.667   7.356  10.029  0.5228 -0.6541 -0.1790
  693MOL0     O91374   0.631   7.459  10.107  0.4644 -0.5908 -0.6923
  693MOL0     C91375   0.503   7.453  10.160  0.2216 -1.2423  0.4359
  693MOL0     C91376   0.440   7.347  10.222 -0.6387 -0.4890 -0.2615
  693MOL0     C91377   0.313   7.357  10.281 -0.3999  1.0015 -0.9498
  693MOL0     C91378   0.248   7.479  10.289 -0.4915 -0.0504 -0.1417
  693MOL0     O91379   0.129   7.489  10.351 -0.2490  0.0189 -0.1157
  693MOL0     C91380   0.152   7.455  10.493  0.1567 -0.4907  0.7218
  693MOL0     C91381   0.030   7.363  10.539  0.3050 -0.7942 -0.2694
  693MOL0     C91382  -0.115   7.424  10.526  0.1952  0.1930  0.3736
  693MOL0     C91383  -0.225   7.320  10.559 -0.1608 -0.5414  0.2236
  693MOL0     C91384  -0.366   7.377  10.520  0.1029  0.5030  0.0545
  693MOL0     C91385  -0.483   7.291  10.575 -0.4410  0.8109 -0.5752
  693MOL0     C91386  -0.605   7.345  10.518  0.7832 -0.9302 -0.1306
  693MOL0     C91387  -0.726   7.293  10.603 -0.1733  0.1072  0.4519
  693MOL0    Cl91388  -0.702   7.114  10.612  0.8282 -0.2923  0.3410
  693MOL0     C91389   0.305   7.585  10.216  0.3757 -0.2020 -0.0230
  693MOL0     C91390   0.428   7.568  10.152  0.6814  0.1195 -0.2113
  693MOL0     O91391   0.611   7.249  10.018  0.5036 -0.2472  0.6631
  693MOL0     C91392   0.832   7.302   9.839  0.2690 -0.0047 -0.1390
  693MOL0     C91393   0.939   7.337   9.747  0.9024  0.4618 -0.4102
  693MOL0     N91394   0.871   7.546   9.384  0.3835 -0.3596 -0.5662
  693MOL0     N91395   0.751   7.558   9.436 -0.0649 -0.5257  0.2878
  693MOL0     C91396   1.166   8.174  10.005  0.7982 -0.2067 -0.3340
  693MOL0     C91397   1.288   8.232  10.000  0.3527  0.4188  0.1698
  693MOL0     C91398   1.663   8.427   9.858 -0.0753  0.3950 -0.4104
  693MOL0     C91399   1.767   8.390   9.778  0.3709 -0.4496 -1.4338
  693MOL0     C91400   1.897   8.424   9.800  0.0095 -0.0436 -0.6913
  693MOL0     C91401   1.934   8.510   9.908 -0.2363 -0.0554  0.3615
  693MOL0     O91402   2.060   8.547   9.894 -0.9966 -0.6955 -1.3092
  693MOL0     C91403   2.133   8.611  10.008 -1.2890 -0.4021  0.2697
  693MOL0     C91404   2.158   8.752   9.950  0.3093 -0.6229 -0.4373
  693MOL0     C91405   2.251   8.760   9.829 -0.5178  0.6901 -0.0195
  693MOL0     C91406   2.291   8.896   9.787 -0.3004  0.0540 -0.0419
  693MOL0     C91407   2.183   8.968   9.721 -1.4758 -0.3733  0.1109
  693MOL0     C91408   2.095   9.036   9.676 -0.0420 -0.2811 -0.9610
  693MOL0     C91409   1.832   8.551   9.998 -0.7372  0.1930  0.2851
  693MOL0     C91410   1.698   8.501   9.974  0.0151  0.9717 -0.6189
  693MOL0     H91411   1.235   8.493   9.789  1.5782  0.1077  0.0833
  693MOL0     H91412   1.008   8.375   9.774 -0.2087 -0.9811 -0.3290
  693MOL0     H91413   0.793   8.249  10.065  0.6473  1.2282  0.5656
  693MOL0     H91414   0.950   8.186  10.123  0.6795 -0.3290 -0.5973
  693MOL0     H91415   0.822   8.025  10.182 -2.4257 -0.2099  0.5797
  693MOL0     H91416   0.890   7.967  10.027  0.4291  0.2641 -0.6955
  693MOL0     H91417   0.678   8.072   9.917 -0.0461  2.3411  0.9387
  693MOL0     H91418   0.600   8.067  10.074 -1.5935  2.1119 -3.1033
  693MOL0     H91419   0.742   7.829   9.945  1.3040  1.8635  0.4611
  693MOL0     H91420   0.657   7.827  10.100  1.7070 -0.9587  0.0138
  693MOL0     H91421   0.448   7.899   9.953 -1.8534  0.7172 -0.6605
  693MOL0     H91422   0.495   7.731   9.922  0.3079  0.5750 -1.4608
  693MOL0     H91423   0.569   7.968   9.755  0.2370 -0.8766 -0.1864
  693MOL0     H91424   0.458   7.838   9.712 -0.0682 -1.8334  0.0649
  693MOL0     H91425   0.747   7.788   9.719 -0.9788 -0.7000  1.1025
  693MOL0     H91426   0.613   7.669   9.721 -0.8760 -0.3579 -0.2063
  693MOL0     H91427   0.621   7.865   9.494  1.4045 -0.4936 -1.4194
  693MOL0     H91428   0.528   7.721   9.492 -1.5058  1.7150  0.6032
  693MOL0     H91429   0.863   7.865   9.476 -1.1870  0.4269  0.4109
  693MOL0     H91430   1.058   7.774   9.276  0.7072 -0.3619 -0.9368
  693MOL0     H91431   1.101   7.613   9.249 -0.3938 -0.7599  0.2523
  693MOL0     H91432   1.142   7.744   9.524  1.7341  1.0246  0.4164
  693MOL0     H91433   1.252   7.758   9.381 -1.9487  1.3807 -0.3874
  693MOL0     H91434   1.269   7.506   9.407 -1.1000  1.2964 -0.3375
  693MOL0     H91435   1.315   7.585   9.561 -0.6687 -0.8858  1.4729
  693MOL0     H91436   1.193   7.365   9.592  2.3876  3.1614  5.9882
  693MOL0     H91437   1.057   7.424   9.480 -1.0584  1.1361  0.6058
  693MOL0     H91438   0.963   7.665   9.856 -4.4714  1.4411  2.4725
  693MOL0     H91439   0.812   7.586  10.031 -3.9677 -0.2257 -0.1917
  693MOL0     H91440   0.496   7.254  10.232  1.1624  0.5629 -0.3651
  693MOL0     H91441   0.268   7.269  10.327  1.7980  1.9139  3.4534
  693MOL0     H91442   0.146   7.548  10.550 -1.8055  1.5064 -2.4204
  693MOL0     H91443   0.241   7.396  10.517  0.2266 -0.6593  0.0731
  693MOL0     H91444   0.051   7.339  10.643  3.3319  1.5208 -0.1792
  693MOL0     H91445   0.033   7.279  10.469 -1.4676 -0.5400 -0.6886
  693MOL0     H91446  -0.126   7.472  10.428  0.9630  3.4082  1.7598
  693MOL0     H91447  -0.127   7.511  10.590 -2.0980  0.2982 -0.1011
  693MOL0     H91448  -0.209   7.231  10.498 -0.8973 -1.0348  0.7450
  693MOL0     H91449  -0.217   7.288  10.663 -0.5554  0.5776  0.6174
  693MOL0     H91450  -0.373   7.381  10.410 -0.6662  0.8739  0.1106
  693MOL0     H91451  -0.378   7.481  10.551 -0.8308  0.7656 -1.1120
  693MOL0     H91452  -0.492   7.295  10.684  1.7193 -1.9539 -0.1964
  693MOL0     H91453  -0.470   7.189  10.538  1.0410  0.7728 -0.0023
  693MOL0     H91454  -0.606   7.454  10.528 -0.1774 -0.8615 -0.8814
  693MOL0     H91455  -0.622   7.323  10.413  2.9690 -2.0137 -0.3071
  693MOL0     H91456  -0.814   7.320  10.545 -0.1736 -0.1505  0.3340
  693MOL0     H91457  -0.744   7.334  10.703  0.9126 -0.0910  0.7397
  693MOL0     H91458   0.244   7.675  10.220 -2.3046 -1.8898 -0.1382
  693MOL0     H91459   0.472   7.648  10.094  1.4702 -1.2371 -1.5483
  693MOL0     H91460   0.792   7.201   9.842 -1.0645  0.5213  2.3225
  693MOL0     H91461   0.979   7.260   9.682  0.6630  0.8560 -1.0315
  693MOL0     H91462   1.145   8.081  10.058 -1.0923 -0.5629 -1.5823
  693MOL0     H91463   1.369   8.200  10.065 -1.7573  0.2217  2.9416
  693MOL0     H91464   1.752   8.326   9.691  0.4527 -1.5064 -0.6879
  693MOL0     H91465   1.961   8.387   9.720  1.2263 -0.5124  0.4616
  693MOL0     H91466   2.230   8.563  10.026 -2.1454 -1.7911  1.3313
  693MOL0     H91467   2.081   8.619  10.103  1.3691  2.4473  1.6737
  693MOL0     H91468   2.063   8.801   9.930  0.0956 -0.4550  0.9104
  693MOL0     H91469   2.217   8.821  10.012  0.7166 -1.5766  0.2492
  693MOL0     H91470   2.222   8.701   9.741 -0.6659 -0.8689  1.0385
  693MOL0     H91471   2.344   8.709   9.855 -0.0426  0.6935 -1.5779
  693MOL0     H91472   2.338   8.950   9.870 -1.6088 -1.5442  1.8509
  693MOL0     H91473   2.367   8.884   9.710 -0.5363 -1.9194 -0.0357
  693MOL0     H91474   2.009   9.088   9.641  0.9526 -0.4813 -3.9976
  693MOL0     H91475   1.848   8.620  10.080 -2.0694  2.8315 -1.5405
  693MOL0     H91476   1.624   8.532  10.048 -1.0518 -1.1446 -0.7370
  694MOL0     O91477   5.664   0.615   5.143 -0.0946  0.2875  0.0656
  694MOL0     C91478   5.704   0.542   5.053  0.1248  0.7710  0.2287
  694MOL0     O91479   5.624   0.465   4.970  0.0121  0.5493  1.6412
  694MOL0     C91480   5.492   0.464   4.971  0.8669  0.1750  0.0046
  694MOL0     C91481   5.432   0.346   5.022 -0.1000  0.8894  0.4304
  694MOL0     C91482   5.290   0.342   5.056  0.0436 -0.3992  0.1209
  694MOL0     C91483   5.201   0.439   5.006 -0.5850  0.3218 -0.4117
  694MOL0     O91484   5.070   0.423   5.024  0.0014 -0.3931  0.7143
  694MOL0     C91485   4.983   0.539   5.039 -0.1582  0.1081 -0.3796
  694MOL0     C91486   4.864   0.497   5.128 -0.3395  0.1036  1.3922
  694MOL0     C91487   4.906   0.500   5.274  0.4127 -0.2493  0.9571
  694MOL0     C91488   4.799   0.440   5.364  0.0989 -0.3026  0.2019
  694MOL0     C91489   4.835   0.436   5.520  0.5389  0.1122 -0.2636
  694MOL0     C91490   4.921   0.313   5.554 -0.9642  0.1674 -0.6007
  694MOL0     C91491   4.856   0.172   5.566 -0.8422  0.6857 -0.3874
  694MOL0     C91492   4.741   0.168   5.670  0.2944  0.2079  0.7119
  694MOL0     N91493   4.797   0.199   5.799  0.1159  0.1630 -0.9246
  694MOL0     C91494   4.830   0.124   5.908 -0.5546 -0.7382 -0.8501
  694MOL0     C91495   4.842   0.207   6.009  1.0905  0.3492  0.3845
  694MOL0     C91496   4.893   0.164   6.146 -0.0598 -0.3084  0.0948
  694MOL0     C91497   5.044   0.158   6.144  0.4223  0.0231  0.1041
  694MOL0     C91498   5.108   0.117   6.278 -0.4442 -1.3789 -0.4515
  694MOL0     C91499   5.249   0.061   6.262  0.1213  0.5416 -1.2506
  694MOL0     O91500   5.293   0.053   6.400  0.0985  0.0700 -0.5764
  694MOL0     C91501   5.433   0.047   6.404  0.3837 -0.7362  0.0179
  694MOL0     C91502   5.519   0.139   6.477  1.0481  0.2363  0.8113
  694MOL0     C91503   5.660   0.120   6.473  0.3708  0.5294 -0.6093
  694MOL0     C91504   5.719   0.021   6.389 -0.4243 -0.6750  0.0925
  694MOL0     C91505   5.869   0.003   6.396 -1.3195 -0.0428  0.1862
  694MOL0     O91506   5.916  -0.109   6.334 -0.4134 -0.0233  0.3492
  694MOL0     C91507   6.051  -0.109   6.309  1.1476 -0.6197  0.3603
  694MOL0     C91508   6.148  -0.121   6.407  0.0543  0.5380  0.2722
  694MOL0     C91509   6.280  -0.145   6.368 -0.7930 -0.0292 -0.5520
  694MOL0     C91510   6.323  -0.135   6.232  1.2461  0.6164  0.4160
  694MOL0     O91511   6.459  -0.154   6.195  0.3120 -0.1214  0.6653
  694MOL0     C91512   6.490  -0.161   6.059  0.0411 -0.2825  0.1330
  694MOL0     C91513   6.636  -0.218   6.048 -0.0886  0.4044 -0.3219
  694MOL0     C91514   6.660  -0.274   5.906 -0.4370 -0.0091  0.9452
  694MOL0     C91515   6.808  -0.307   5.902 -0.3912 -0.6280  0.3645
  694MOL0     C91516   6.847  -0.409   5.797 -0.9217  0.4657 -0.8940
  694MOL0     C91517   7.001  -0.418   5.811  0.1391 -0.0057 -0.4652
  694MOL0     C91518   7.056  -0.523   5.718  1.0263  0.4714  0.5039
  694MOL0     C91519   7.193  -0.555   5.749 -0.3423 -0.1273 -0.2294
  694MOL0    Cl91520   7.255  -0.657   5.621  0.2036  0.3456  0.5042
  694MOL0     C91521   6.223  -0.110   6.140  1.0494 -0.6491  1.2575
  694MOL0     C91522   6.089  -0.100   6.183 -0.3703 -0.7213  0.8089
  694MOL0     O91523   5.936   0.091   6.453 -0.2797 -0.2977 -0.5241
  694MOL0     C91524   5.640  -0.063   6.317  0.6716 -0.9107 -0.0862
  694MOL0     C91525   5.502  -0.052   6.328  0.8691  0.0163  0.5730
  694MOL0     N91526   4.808   0.333   5.974  0.0951 -0.0071 -0.4431
  694MOL0     N91527   4.796   0.326   5.847  0.3131  0.1972 -0.7049
  694MOL0     C91528   5.268   0.563   4.959  0.3406  0.9614 -0.2209
  694MOL0     C91529   5.402   0.577   4.950  1.0911 -0.3826 -0.5221
  694MOL0     C91530   5.852   0.537   5.028  0.4948 -0.4171 -0.3163
  694MOL0     C91531   5.905   0.470   4.917 -0.5061  1.6207 -0.4802
  694MOL0     C91532   6.034   0.485   4.871  0.0210 -0.0931 -0.7696
  694MOL0     C91533   6.120   0.555   4.949 -0.1845 -0.4104 -0.7178
  694MOL0     O91534   6.258   0.560   4.909  0.9232 -0.2017  0.3693
  694MOL0     C91535   6.326   0.441   4.865 -0.4247 -0.2341 -0.3247
  694MOL0     C91536   6.477   0.460   4.880 -0.9487  0.3139  0.0153
  694MOL0     C91537   6.520   0.474   5.024 -0.1912  0.4136 -0.8287
  694MOL0     C91538   6.669   0.510   5.039 -0.0429 -0.3839  0.3284
  694MOL0     C91539   6.714   0.513   5.182  0.4731 -0.3513  0.3687
  694MOL0     C91540   6.742   0.518   5.299 -0.2704  0.4053 -0.3561
  694MOL0     C91541   6.078   0.608   5.074 -0.2425  0.3529  0.0363
  694MOL0     C91542   5.939   0.610   5.102 -0.7086  0.0102  0.8332
  694MOL0     H91543   5.489   0.258   5.046  1.9052  1.3448 -2.1282
  694MOL0     H91544   5.257   0.246   5.095 -0.4993  1.1608  3.8776
  694MOL0     H91545   4.932   0.551   4.943 -3.6739 -1.1982  1.1637
  694MOL0     H91546   5.033   0.629   5.076 -0.9944 -0.8554  3.4371
  694MOL0     H91547   4.842   0.391   5.112 -1.8748  0.6813 -0.9244
  694MOL0     H91548   4.777   0.561   5.106  0.9160  0.6666 -2.9573
  694MOL0     H91549   4.923   0.601   5.312 -0.3547  0.5827 -0.8013
  694MOL0     H91550   4.991   0.432   5.286 -0.2639 -1.0788  1.2645
  694MOL0     H91551   4.708   0.499   5.354 -0.1514 -0.5632  0.8836
  694MOL0     H91552   4.771   0.338   5.336 -3.9921  1.0383 -1.1711
  694MOL0     H91553   4.741   0.436   5.575  1.2379  1.8280  1.0210
  694MOL0     H91554   4.895   0.526   5.536  0.6100 -0.3934  2.8105
  694MOL0     H91555   4.970   0.330   5.650  2.3645  3.3330 -2.5933
  694MOL0     H91556   4.998   0.314   5.477 -0.7567  0.0076 -0.3948
  694MOL0     H91557   4.831   0.145   5.463 -2.5196  0.5754  0.0253
  694MOL0     H91558   4.929   0.101   5.604 -1.2753  1.4657  2.1144
  694MOL0     H91559   4.678   0.078   5.668  0.0682  0.3745 -0.8730
  694MOL0     H91560   4.660   0.236   5.642  1.8929  1.1709 -1.8507
  694MOL0     H91561   4.842   0.016   5.905 -0.3514 -0.7019 -2.4582
  694MOL0     H91562   4.845   0.068   6.166 -3.8099  1.0986 -1.2159
  694MOL0     H91563   4.851   0.230   6.223  0.7879 -0.2979  0.5669
  694MOL0     H91564   5.092   0.253   6.119  0.5742 -0.2566 -0.6900
  694MOL0     H91565   5.080   0.088   6.067  1.9841  2.8784 -1.9768
  694MOL0     H91566   5.118   0.209   6.336  3.6704 -0.8319 -1.6703
  694MOL0     H91567   5.048   0.048   6.337  0.8580 -1.4681  0.8270
  694MOL0     H91568   5.314   0.118   6.195  1.2329 -0.5367 -1.1286
  694MOL0     H91569   5.234  -0.035   6.212 -0.4384 -1.0754  1.7723
  694MOL0     H91570   5.480   0.222   6.535  1.6052  2.2245 -1.5086
  694MOL0     H91571   5.719   0.180   6.542  1.8680 -0.4305 -1.0019
  694MOL0     H91572   6.126  -0.133   6.512  2.2029  1.8813  0.9361
  694MOL0     H91573   6.347  -0.169   6.450 -1.5467 -0.4948 -0.0599
  694MOL0     H91574   6.475  -0.071   5.999 -0.0254  0.6549  1.4936
  694MOL0     H91575   6.425  -0.227   6.002 -0.3810 -1.1917  1.6017
  694MOL0     H91576   6.632  -0.305   6.114 -0.9257 -0.6062 -1.6494
  694MOL0     H91577   6.706  -0.140   6.079  0.8070 -0.1765 -0.8506
  694MOL0     H91578   6.632  -0.198   5.832  0.3779 -1.7422 -1.2377
  694MOL0     H91579   6.594  -0.360   5.894 -0.5588 -0.0737  1.9366
  694MOL0     H91580   6.861  -0.213   5.883 -1.1347 -0.1395  0.6864
  694MOL0     H91581   6.843  -0.338   6.001 -1.6644  1.2720  1.4635
  694MOL0     H91582   6.827  -0.384   5.693  1.4142  0.3906 -1.4264
  694MOL0     H91583   6.803  -0.505   5.823  2.4799 -1.1380 -0.5245
  694MOL0     H91584   7.026  -0.440   5.915 -0.6534 -2.8651 -0.8078
  694MOL0     H91585   7.042  -0.321   5.779  0.0954 -0.3353 -1.5827
  694MOL0     H91586   7.000  -0.617   5.719  0.1512  0.9493 -1.3318
  694MOL0     H91587   7.051  -0.485   5.616 -1.4308  1.9629  1.1107
  694MOL0     H91588   7.190  -0.616   5.840 -0.8677  2.9978  2.0025
  694MOL0     H91589   7.254  -0.465   5.764  1.2695 -1.2052 -0.0394
  694MOL0     H91590   6.243  -0.097   6.033 -1.0222  2.2657  1.1204
  694MOL0     H91591   6.025  -0.075   6.098  1.1483 -1.1077 -0.4899
  694MOL0     H91592   5.679  -0.137   6.248  0.4653  0.3968 -1.6561
  694MOL0     H91593   5.455  -0.136   6.277 -2.1736 -0.1811  3.4203
  694MOL0     H91594   5.201   0.640   4.922  0.1148  1.0736  0.4192
  694MOL0     H91595   5.433   0.678   4.923 -3.7666  1.1801 -1.1924
  694MOL0     H91596   5.843   0.400   4.861  2.2743 -1.2874 -0.1619
  694MOL0     H91597   6.044   0.429   4.779 -1.0172 -0.5199 -0.6382
  694MOL0     H91598   6.321   0.432   4.756  1.6438 -0.5388 -0.4498
  694MOL0     H91599   6.287   0.353   4.916 -1.5683 -0.1856 -1.0766
  694MOL0     H91600   6.517   0.362   4.850  0.0047  1.3124 -2.1582
  694MOL0     H91601   6.512   0.538   4.813 -0.0341 -1.1988 -1.3625
  694MOL0     H91602   6.473   0.393   5.081 -2.4153  2.2390  0.0914
  694MOL0     H91603   6.459   0.559   5.056  0.5656  0.6139  0.1576
  694MOL0     H91604   6.727   0.433   4.987  1.4719  0.7343  0.3222
  694MOL0     H91605   6.680   0.602   4.981 -4.2787 -0.9868 -1.8341
  694MOL0     H91606   6.778   0.537   5.398 -2.8986  2.3985  0.3506
  694MOL0     H91607   6.155   0.659   5.131  0.0597  0.0959 -0.1366
  694MOL0     H91608   5.909   0.661   5.193 -0.1072 -0.1605  1.1334
  695MOL0     O91609   6.823   1.419  11.002 -0.3780  0.8348  0.0131
  695MOL0     C91610   6.854   1.297  11.026 -0.2519  0.3274 -0.2348
  695MOL0     O91611   6.781   1.199  11.085  0.7592  0.0563  0.6520
  695MOL0     C91612   6.656   1.206  11.143 -0.3175 -0.2626  0.1456
  695MOL0     C91613   6.586   1.086  11.161  1.0957 -0.3958  0.2584
  695MOL0     C91614   6.471   1.093  11.239 -0.1178 -0.1084 -0.3841
  695MOL0     C91615   6.411   1.208  11.281 -0.3177  0.3838  0.2368
  695MOL0     O91616   6.285   1.187  11.339 -0.3613 -0.1347  0.3911
  695MOL0     C91617   6.247   1.296  11.422  0.1198  0.4389 -0.7451
  695MOL0     C91618   6.127   1.263  11.511  0.2765  0.4394  0.1285
  695MOL0     C91619   6.081   1.381  11.600  0.5522 -0.3673  0.1144
  695MOL0     C91620   5.943   1.345  11.663  0.6066 -1.0619  0.4247
  695MOL0     C91621   5.890   1.449  11.765  0.7098  0.4310 -0.3978
  695MOL0     C91622   5.782   1.384  11.857  0.2013 -0.0454 -0.2571
  695MOL0     C91623   5.740   1.492  11.952 -0.2783 -0.0967  0.6097
  695MOL0     C91624   5.623   1.458  12.045  0.1276  0.3285 -0.5074
  695MOL0     N91625   5.493   1.496  11.992  0.7072 -0.1898  0.8860
  695MOL0     C91626   5.417   1.420  11.905 -0.1051 -0.3986 -0.2528
  695MOL0     C91627   5.297   1.486  11.905 -0.3526 -0.8743 -0.2810
  695MOL0     C91628   5.172   1.460  11.822  0.6928  0.0843  0.1464
  695MOL0     C91629   5.169   1.536  11.687 -0.3655 -0.4605  0.1912
  695MOL0     C91630   5.033   1.520  11.612  0.3515 -0.0412  0.5243
  695MOL0     C91631   4.934   1.625  11.661 -0.1173 -0.7985  0.4668
  695MOL0     O91632   4.818   1.625  11.580 -0.5516  0.4374 -0.7108
  695MOL0     C91633   4.737   1.726  11.585 -0.5693 -0.5080  0.6744
  695MOL0     C91634   4.733   1.822  11.688 -0.2446  0.4636 -0.7185
  695MOL0     C91635   4.630   1.914  11.694  0.2828  0.0850 -0.4050
  695MOL0     C91636   4.527   1.919  11.600 -0.1312  0.7738  0.8735
  695MOL0     C91637   4.398   1.995  11.616 -0.4907 -0.0430  0.3101
  695MOL0     O91638   4.310   1.990  11.510 -0.0493 -0.1263  0.1227
  695MOL0     C91639   4.191   2.042  11.509 -0.2833  0.0484  0.3388
  695MOL0     C91640   4.133   2.136  11.593 -0.9733 -0.7065 -0.1873
  695MOL0     C91641   4.006   2.180  11.571  0.3760  0.5782 -0.2099
  695MOL0     C91642   3.929   2.134  11.459 -0.3807  0.3010 -0.0101
  695MOL0     O91643   3.800   2.178  11.419  0.3516 -0.8913 -0.4866
  695MOL0     C91644   3.751   2.291  11.496 -0.6543  0.1152  0.4207
  695MOL0     C91645   3.616   2.334  11.439 -0.5372 -0.1039 -0.0381
  695MOL0     C91646   3.550   2.442  11.524  0.3824 -0.0245 -0.1433
  695MOL0     C91647   3.406   2.488  11.484 -0.1073  0.1476 -0.2790
  695MOL0     C91648   3.307   2.371  11.482  0.4891  0.2699 -0.7113
  695MOL0     C91649   3.157   2.426  11.474  0.0896  0.6690 -0.7039
  695MOL0     C91650   3.119   2.509  11.347 -0.6188 -0.1626  0.9500
  695MOL0     C91651   3.140   2.429  11.220 -0.5115  0.4652  0.2662
  695MOL0    Cl91652   2.997   2.309  11.199  0.0893  0.0623 -0.2711
  695MOL0     C91653   3.982   2.035  11.375  0.6692  1.0047  0.6901
  695MOL0     C91654   4.112   1.982  11.411  0.4975 -0.2761 -0.1310
  695MOL0     O91655   4.377   2.032  11.725  0.4748  0.6365  0.1141
  695MOL0     C91656   4.536   1.822  11.496  0.0962  0.0939  0.0182
  695MOL0     C91657   4.645   1.727  11.487  0.4590 -0.4452 -0.9265
  695MOL0     N91658   5.311   1.591  11.995 -0.0641  0.3225 -0.0492
  695MOL0     N91659   5.423   1.591  12.048 -0.7529 -0.7987  0.1235
  695MOL0     C91660   6.483   1.323  11.270  0.1524 -0.2302 -0.2844
  695MOL0     C91661   6.608   1.333  11.193 -0.3421  0.2626 -0.4046
  695MOL0     C91662   6.984   1.260  10.966  0.0869 -0.4214  0.1841
  695MOL0     C91663   7.052   1.135  10.998 -0.0584 -0.6268 -0.2537
  695MOL0     C91664   7.181   1.112  10.963  0.4501 -0.2818  0.2508
  695MOL0     C91665   7.256   1.197  10.881  0.8253 -0.5743  1.1330
  695MOL0     O91666   7.379   1.153  10.845  0.4210 -0.9266  0.1708
  695MOL0     C91667   7.464   1.240  10.780  0.5866 -0.4609 -0.0925
  695MOL0     C91668   7.452   1.243  10.617 -0.0440  0.1820  0.3776
  695MOL0     C91669   7.511   1.126  10.547  0.3110 -0.1921  0.5059
  695MOL0     C91670   7.463   0.990  10.600 -0.7552 -0.4469  0.0153
  695MOL0     C91671   7.499   0.865  10.527  0.0962  0.0212  0.1317
  695MOL0     C91672   7.513   0.757  10.466 -0.8803 -0.2342  0.9126
  695MOL0     C91673   7.188   1.314  10.838  0.8770  0.4278  0.0870
  695MOL0     C91674   7.066   1.353  10.894 -0.2713  0.2358 -0.6870
  695MOL0     H91675   6.615   0.985  11.135  0.6061 -0.1424 -1.3776
  695MOL0     H91676   6.417   1.002  11.267 -0.4118  0.5170  1.1988
  695MOL0     H91677   6.224   1.379  11.354 -1.1409  1.3657  0.7452
  695MOL0     H91678   6.336   1.324  11.478  0.7812 -2.0854 -0.3970
  695MOL0     H91679   6.157   1.169  11.558  0.2583  0.5285  0.3211
  695MOL0     H91680   6.047   1.252  11.438  1.1959 -3.0675 -0.5532
  695MOL0     H91681   6.078   1.475  11.544  2.2644  0.5102  1.4027
  695MOL0     H91682   6.152   1.406  11.680 -0.2160 -3.8399  2.0823
  695MOL0     H91683   5.877   1.330  11.578  2.5698 -0.9624 -1.1903
  695MOL0     H91684   5.958   1.252  11.720  5.3110 -1.3074 -0.7918
  695MOL0     H91685   5.840   1.536  11.722 -0.9467  0.4930  1.4897
  695MOL0     H91686   5.975   1.485  11.824 -0.1769 -0.4233  1.4825
  695MOL0     H91687   5.823   1.291  11.898 -0.4621  0.0132  0.5549
  695MOL0     H91688   5.695   1.348  11.802  2.3515 -2.6236 -2.2633
  695MOL0     H91689   5.816   1.524  12.024  1.3807 -2.6941  0.1245
  695MOL0     H91690   5.711   1.571  11.881  0.1783  0.2654  0.8147
  695MOL0     H91691   5.654   1.493  12.143  1.1777 -0.8916 -0.3727
  695MOL0     H91692   5.639   1.350  12.053  2.5762  0.7189  1.0165
  695MOL0     H91693   5.448   1.334  11.848  5.2234  1.4433 -0.7382
  695MOL0     H91694   5.087   1.488  11.885  1.8386 -0.7700  2.1451
  695MOL0     H91695   5.172   1.352  11.805  1.8470  0.3460 -1.7973
  695MOL0     H91696   5.244   1.489  11.622  1.2961 -0.2345  1.8435
  695MOL0     H91697   5.198   1.641  11.698  2.5304 -1.1542 -0.0718
  695MOL0     H91698   5.040   1.532  11.503  1.3476  0.6037  0.6417
  695MOL0     H91699   4.999   1.416  11.613  0.3527 -0.0479  2.0009
  695MOL0     H91700   4.993   1.718  11.662  2.1524 -2.1474  2.2419
  695MOL0     H91701   4.903   1.604  11.763 -1.1123  1.4486  0.6788
  695MOL0     H91702   4.803   1.816  11.771 -0.6422 -2.6799 -0.4609
  695MOL0     H91703   4.621   1.979  11.780  1.4953  1.9168 -1.5969
  695MOL0     H91704   4.198   2.172  11.672 -0.4916 -1.7380 -0.1034
  695MOL0     H91705   3.981   2.256  11.643 -0.5619 -1.1314  1.3503
  695MOL0     H91706   3.826   2.371  11.490 -0.7550  0.1000 -2.2362
  695MOL0     H91707   3.736   2.267  11.602  3.7633  1.4457  1.5393
  695MOL0     H91708   3.555   2.244  11.451  0.3469 -0.6388  0.5600
  695MOL0     H91709   3.627   2.361  11.334  0.2505 -1.2289 -0.2617
  695MOL0     H91710   3.605   2.537  11.513  2.2864 -1.3282 -3.1580
  695MOL0     H91711   3.558   2.419  11.631 -2.2991  0.4363  0.2121
  695MOL0     H91712   3.376   2.561  11.560 -0.6171  1.0784 -1.3429
  695MOL0     H91713   3.416   2.531  11.384  1.1615  3.5556  1.1668
  695MOL0     H91714   3.317   2.323  11.580  1.7728  0.7939 -0.5716
  695MOL0     H91715   3.342   2.299  11.408 -2.1193  0.3631 -2.1412
  695MOL0     H91716   3.135   2.497  11.554  1.2498  2.7970 -2.1804
  695MOL0     H91717   3.086   2.344  11.488 -0.5203  1.6797  3.1736
  695MOL0     H91718   3.012   2.534  11.349 -0.4972  1.1386 -2.5562
  695MOL0     H91719   3.183   2.597  11.348 -0.1999 -0.4433 -0.2175
  695MOL0     H91720   3.237   2.379  11.215 -0.7364 -0.3786  2.7711
  695MOL0     H91721   3.128   2.483  11.126  1.3793 -0.5026 -0.5881
  695MOL0     H91722   3.926   2.005  11.287 -2.3586 -0.8057  2.9959
  695MOL0     H91723   4.160   1.905  11.352  0.4896  1.2897 -2.2775
  695MOL0     H91724   4.459   1.808  11.421  1.2695 -1.3215 -0.9846
  695MOL0     H91725   4.642   1.648  11.413  0.1350  0.4623 -1.9101
  695MOL0     H91726   6.451   1.418  11.312 -0.0157 -0.5044  0.2160
  695MOL0     H91727   6.663   1.427  11.185 -1.3669  1.0790  1.4350
  695MOL0     H91728   7.013   1.050  11.053  0.0631 -0.3073  0.3469
  695MOL0     H91729   7.230   1.020  10.994 -0.6388 -1.0866 -0.3419
  695MOL0     H91730   7.564   1.201  10.800  0.7935  0.1724  0.1554
  695MOL0     H91731   7.457   1.336  10.833  0.2197 -0.0531 -0.8680
  695MOL0     H91732   7.344   1.249  10.599  0.0817  0.3998 -0.3523
  695MOL0     H91733   7.489   1.338  10.578 -1.6098  0.5188 -0.3834
  695MOL0     H91734   7.617   1.133  10.571  0.8007  0.3983 -1.6715
  695MOL0     H91735   7.495   1.129  10.439 -3.6213  1.1277  0.9468
  695MOL0     H91736   7.515   0.986  10.697 -0.4046 -0.5297 -0.1771
  695MOL0     H91737   7.360   0.989  10.637 -0.1078 -1.8410  1.9485
  695MOL0     H91738   7.543   0.660  10.431 -1.2757 -0.0339 -0.0293
  695MOL0     H91739   7.246   1.390  10.788 -0.0658  0.5949 -0.7894
  695MOL0     H91740   7.040   1.451  10.855 -2.4251 -0.0811 -0.1789
  696MOL0     O91741   2.931   1.006   7.372 -0.9475  0.0855 -0.3826
  696MOL0     C91742   3.027   0.953   7.432 -0.4930 -0.7396 -0.2743
  696MOL0     O91743   3.024   0.858   7.529 -0.5881 -0.2869 -0.7039
  696MOL0     C91744   2.906   0.799   7.572 -1.0064 -0.9163  0.1479
  696MOL0     C91745   2.867   0.795   7.700  0.3174  0.0030 -1.1874
  696MOL0     C91746   2.739   0.753   7.743 -0.3757  0.5038  0.2621
  696MOL0     C91747   2.650   0.701   7.653 -0.0216  0.9092 -0.4665
  696MOL0     O91748   2.522   0.657   7.675 -0.0794 -0.2092 -0.6921
  696MOL0     C91749   2.439   0.720   7.770 -0.0510  0.6354  0.0038
  696MOL0     C91750   2.301   0.722   7.705  0.2047 -0.2229 -0.5308
  696MOL0     C91751   2.205   0.786   7.802  0.2157  0.1632  0.7070
  696MOL0     C91752   2.066   0.789   7.732 -0.2838  0.7916  0.1072
  696MOL0     C91753   1.961   0.862   7.816  1.0045  0.3480  0.3062
  696MOL0     C91754   1.822   0.832   7.767  0.0041  0.2944  0.3066
  696MOL0     C91755   1.701   0.889   7.851 -0.1514  0.1940 -0.6071
  696MOL0     C91756   1.559   0.875   7.780 -0.2271 -0.4052  0.4114
  696MOL0     N91757   1.459   0.899   7.883 -0.2689 -0.4848  0.6195
  696MOL0     C91758   1.383   0.807   7.947 -0.1574 -0.1643  0.2000
  696MOL0     C91759   1.301   0.873   8.033  0.4749  0.4002  0.3028
  696MOL0     C91760   1.208   0.820   8.130  0.1388  0.1997  0.4447
  696MOL0     C91761   1.057   0.860   8.095 -0.0315  0.7084 -0.3528
  696MOL0     C91762   1.023   0.852   7.945 -0.2440 -0.2599  0.5890
  696MOL0     C91763   0.867   0.840   7.935  0.4187  0.2010  0.2247
  696MOL0     O91764   0.827   0.800   7.800 -0.3570  0.2102  0.3327
  696MOL0     C91765   0.696   0.825   7.754 -0.1599 -0.0569 -0.2074
  696MOL0     C91766   0.682   0.827   7.622  1.1756  0.0805 -0.0186
  696MOL0     C91767   0.558   0.849   7.563  0.2637 -0.8221  0.1186
  696MOL0     C91768   0.445   0.868   7.648 -0.9156 -0.5954 -0.8400
  696MOL0     C91769   0.308   0.893   7.601 -0.5412  0.2083  0.6700
  696MOL0     O91770   0.215   0.934   7.685 -0.0387 -0.0070 -1.0144
  696MOL0     C91771   0.089   0.936   7.640 -0.3106 -0.8235 -0.0614
  696MOL0     C91772  -0.002   0.844   7.669  0.1995  0.6147  0.2809
  696MOL0     C91773  -0.127   0.854   7.607  0.1150  0.3035 -0.3843
  696MOL0     C91774  -0.169   0.960   7.531 -0.6302  0.1868  0.5444
  696MOL0     O91775  -0.289   0.979   7.477  0.0327  0.1613  0.4763
  696MOL0     C91776  -0.405   0.889   7.477  0.6562  0.0829 -0.1240
  696MOL0     C91777  -0.496   0.904   7.602 -0.2817 -0.1048  0.4116
  696MOL0     C91778  -0.597   0.787   7.600  0.5715  0.2802 -0.7738
  696MOL0     C91779  -0.727   0.811   7.687 -1.0383 -0.4581 -0.1764
  696MOL0     C91780  -0.816   0.690   7.682 -0.7893  0.2653  0.5090
  696MOL0     C91781  -0.868   0.664   7.822  0.2137 -0.0463  0.5256
  696MOL0     C91782  -0.986   0.564   7.822 -0.3007 -0.3344  0.0678
  696MOL0     C91783  -1.069   0.568   7.944  0.6405 -0.1482  0.0747
  696MOL0    Cl91784  -1.202   0.683   7.928 -0.4778 -0.4377 -0.1737
  696MOL0     C91785  -0.077   1.066   7.512 -0.0042 -0.1249  0.0662
  696MOL0     C91786   0.049   1.051   7.569 -0.9493 -0.4539 -0.9785
  696MOL0     O91787   0.288   0.861   7.486  0.4729 -0.5784  0.3869
  696MOL0     C91788   0.463   0.860   7.783  0.2115  0.2690  0.1147
  696MOL0     C91789   0.584   0.830   7.837  0.0974 -0.3002  0.1177
  696MOL0     N91790   1.328   1.011   8.010  0.2090 -0.0596  0.6027
  696MOL0     N91791   1.418   1.025   7.922 -0.0601  0.2252  0.3893
  696MOL0     C91792   2.697   0.688   7.521  0.2257  1.1048 -0.3236
  696MOL0     C91793   2.820   0.740   7.479  0.2130  0.2797  0.7333
  696MOL0     C91794   3.158   1.024   7.414 -0.5690  0.2769  0.0647
  696MOL0     C91795   3.192   1.073   7.286  0.3073  0.5529 -1.6328
  696MOL0     C91796   3.298   1.170   7.288  0.4050 -0.3034  0.5871
  696MOL0     C91797   3.372   1.199   7.411 -0.6328 -0.0857 -0.6204
  696MOL0     O91798   3.478   1.287   7.413  0.0147  0.3312  0.0769
  696MOL0     C91799   3.486   1.390   7.318 -0.2662  0.5629  0.5691
  696MOL0     C91800   3.624   1.451   7.341  0.1159  0.0363  0.6752
  696MOL0     C91801   3.664   1.565   7.243  0.0683  0.0353 -1.3602
  696MOL0     C91802   3.784   1.642   7.307  0.4323  0.5945  0.2094
  696MOL0     C91803   3.743   1.738   7.409  0.4695 -0.4619  0.9801
  696MOL0     C91804   3.728   1.825   7.494 -0.2906  0.0026 -0.4694
  696MOL0     C91805   3.334   1.148   7.537  0.0696  0.4171 -0.3401
  696MOL0     C91806   3.232   1.055   7.532 -0.2659  0.6233  0.4938
  696MOL0     H91807   2.926   0.842   7.778 -0.6492  1.2113 -1.1569
  696MOL0     H91808   2.708   0.767   7.846 -0.1380  0.5077  0.3345
  696MOL0     H91809   2.466   0.825   7.787  4.5017  0.2463 -3.0728
  696MOL0     H91810   2.441   0.665   7.864  3.4216  0.1872 -0.1916
  696MOL0     H91811   2.262   0.624   7.674 -2.5432  1.2803 -2.1911
  696MOL0     H91812   2.307   0.785   7.616  0.7967  1.1226  0.4317
  696MOL0     H91813   2.233   0.890   7.821  4.1004 -0.2419 -1.8745
  696MOL0     H91814   2.196   0.741   7.902  2.3344  2.7728  2.2147
  696MOL0     H91815   2.076   0.838   7.634 -0.7409 -2.4519 -1.6835
  696MOL0     H91816   2.035   0.685   7.723  1.5210  0.1839  0.4111
  696MOL0     H91817   1.970   0.971   7.807 -2.1409  0.7638  1.0873
  696MOL0     H91818   1.965   0.825   7.919 -2.6861 -0.5190  0.2794
  696MOL0     H91819   1.814   0.724   7.776  2.8762  0.1183  2.1615
  696MOL0     H91820   1.807   0.868   7.664 -5.0242 -3.2315 -0.5365
  696MOL0     H91821   1.704   0.838   7.948 -2.9762  2.0404  0.5741
  696MOL0     H91822   1.709   0.996   7.869  0.9912 -0.1566  1.2623
  696MOL0     H91823   1.551   0.783   7.721 -0.7992  0.3205 -0.6763
  696MOL0     H91824   1.550   0.952   7.703  0.3443 -0.5599  0.1802
  696MOL0     H91825   1.393   0.700   7.931 -1.4733 -0.3020  0.1898
  696MOL0     H91826   1.228   0.875   8.223  0.2523 -1.0780  1.2012
  696MOL0     H91827   1.215   0.711   8.138 -0.3382  0.2218  1.3027
  696MOL0     H91828   1.045   0.965   8.123 -1.0154  1.3065 -2.8142
  696MOL0     H91829   0.995   0.806   8.167 -0.7867  0.7286 -0.9763
  696MOL0     H91830   1.057   0.945   7.899  0.7246 -1.4516 -1.1952
  696MOL0     H91831   1.068   0.768   7.891 -0.3049  1.3931 -2.2237
  696MOL0     H91832   0.810   0.930   7.957 -1.2583 -1.0092  1.1193
  696MOL0     H91833   0.843   0.766   8.012  1.6157 -0.6740 -0.2144
  696MOL0     H91834   0.769   0.806   7.561  0.6395  0.2263 -0.8470
  696MOL0     H91835   0.547   0.871   7.457  2.1103  2.6376  0.4923
  696MOL0     H91836   0.025   0.766   7.739  1.1231  1.2135  0.6182
  696MOL0     H91837  -0.205   0.781   7.625  0.4469 -0.4785 -1.8909
  696MOL0     H91838  -0.360   0.789   7.484 -0.0771 -0.2104  0.5275
  696MOL0     H91839  -0.456   0.893   7.380  0.2436  0.3375  0.1044
  696MOL0     H91840  -0.543   1.003   7.592  3.1815  1.8718  1.6435
  696MOL0     H91841  -0.435   0.906   7.693  1.7983  5.9184 -0.6162
  696MOL0     H91842  -0.549   0.695   7.633  1.0287  1.9607  3.9311
  696MOL0     H91843  -0.633   0.766   7.499 -0.1706 -0.0606 -0.4474
  696MOL0     H91844  -0.697   0.847   7.786  0.6247 -0.4646 -0.6487
  696MOL0     H91845  -0.786   0.889   7.639  0.2156  0.7019  0.1180
  696MOL0     H91846  -0.769   0.598   7.645 -1.8247  0.6113 -1.8791
  696MOL0     H91847  -0.895   0.719   7.612  1.2005  1.0847 -1.5192
  696MOL0     H91848  -0.898   0.753   7.878  0.6609  1.9647 -2.2116
  696MOL0     H91849  -0.787   0.628   7.887  0.0424 -0.1514  0.6802
  696MOL0     H91850  -1.042   0.570   7.729 -1.0252  2.5712  0.6152
  696MOL0     H91851  -0.926   0.472   7.824  2.5187  1.1446 -3.8807
  696MOL0     H91852  -1.004   0.588   8.030 -1.4721 -0.3795  1.8286
  696MOL0     H91853  -1.124   0.473   7.949 -0.3953  0.4386  0.2817
  696MOL0     H91854  -0.105   1.157   7.458 -1.0251 -0.5432 -0.1447
  696MOL0     H91855   0.122   1.131   7.557 -0.7688 -0.5053 -0.2651
  696MOL0     H91856   0.378   0.883   7.846 -0.8613 -0.9621 -0.8411
  696MOL0     H91857   0.598   0.821   7.944  1.5503  0.4114  0.0200
  696MOL0     H91858   2.638   0.652   7.437  1.2145  1.2673 -1.1008
  696MOL0     H91859   2.847   0.755   7.375  2.6684 -0.6597  1.1568
  696MOL0     H91860   3.129   1.056   7.199 -0.4977  0.5505 -1.0648
  696MOL0     H91861   3.330   1.221   7.198  1.8118 -0.3861  1.0111
  696MOL0     H91862   3.398   1.450   7.341 -0.9315  0.2293 -0.9887
  696MOL0     H91863   3.472   1.360   7.213 -0.0949  1.3283  0.3222
  696MOL0     H91864   3.629   1.476   7.448 -3.8918  4.2657  0.1557
  696MOL0     H91865   3.699   1.374   7.320  1.7187  1.7536 -0.2383
  696MOL0     H91866   3.572   1.623   7.246  0.0962  0.0377  0.1809
  696MOL0     H91867   3.695   1.520   7.148  0.8389  0.6478 -1.4151
  696MOL0     H91868   3.845   1.580   7.373 -0.6022  1.5291  2.1544
  696MOL0     H91869   3.842   1.713   7.248  0.2604  2.8582  2.5487
  696MOL0     H91870   3.706   1.884   7.581 -0.5843 -0.6860 -0.0656
  696MOL0     H91871   3.382   1.175   7.631  2.2457 -0.3833 -1.1783
  696MOL0     H91872   3.208   1.003   7.624  0.5598 -0.1195  0.3100
  697MOL0     O91873   5.695   6.936   0.712  0.0985 -0.8631 -0.4351
  697MOL0     C91874   5.700   6.968   0.599  0.3407 -0.1566  0.6532
  697MOL0     O91875   5.790   6.925   0.512 -0.0338 -0.0629 -0.0975
  697MOL0     C91876   5.894   6.845   0.557  0.9939 -0.6530  0.0297
  697MOL0     C91877   6.002   6.906   0.631  0.3763  0.4754  0.1182
  697MOL0     C91878   6.115   6.834   0.665  0.8639 -0.8164 -0.3249
  697MOL0     C91879   6.124   6.693   0.617 -0.5754 -0.5813  0.5044
  697MOL0     O91880   6.249   6.641   0.623  0.0420  0.5278  0.1378
  697MOL0     C91881   6.269   6.510   0.570  0.5510 -0.9451 -0.2132
  697MOL0     C91882   6.416   6.467   0.601  0.2024 -1.1994  0.1023
  697MOL0     C91883   6.425   6.407   0.746 -0.0213  0.2242 -0.0260
  697MOL0     C91884   6.547   6.314   0.749 -0.0082 -0.3563  0.0661
  697MOL0     C91885   6.609   6.296   0.893  0.1913  0.0472  1.0559
  697MOL0     C91886   6.686   6.165   0.899  0.1259 -0.0962 -0.6287
  697MOL0     C91887   6.744   6.153   1.033 -1.6413  0.1391 -0.1538
  697MOL0     C91888   6.860   6.051   1.050 -0.0876  0.1981 -0.1089
  697MOL0     N91889   6.817   5.914   1.052  0.6772  0.2882 -0.5861
  697MOL0     C91890   6.860   5.837   1.155  0.1070  1.4361  0.1574
  697MOL0     C91891   6.826   5.711   1.127  0.2120  1.2716 -0.4221
  697MOL0     C91892   6.854   5.587   1.206  0.8113  0.9837 -0.6369
  697MOL0     C91893   6.719   5.519   1.256 -1.1304 -0.4029  0.7578
  697MOL0     C91894   6.641   5.463   1.141 -0.9408  0.2326 -0.6245
  697MOL0     C91895   6.533   5.379   1.186  0.2527  0.2123  0.0747
  697MOL0     O91896   6.438   5.464   1.260  0.0460  0.3957  0.6216
  697MOL0     C91897   6.305   5.422   1.261 -0.6893 -0.4455 -0.1642
  697MOL0     C91898   6.258   5.294   1.231 -0.2775  1.5327  0.3591
  697MOL0     C91899   6.132   5.256   1.260 -0.0024  0.0217 -0.4380
  697MOL0     C91900   6.037   5.347   1.311 -0.2992  0.8801  0.6645
  697MOL0     C91901   5.908   5.307   1.371 -0.0317 -0.9165  0.4025
  697MOL0     O91902   5.817   5.413   1.410 -0.3367 -0.4297  1.0247
  697MOL0     C91903   5.700   5.388   1.477  0.2996  0.3838 -0.3734
  697MOL0     C91904   5.565   5.411   1.438  0.1208  0.1569  0.2788
  697MOL0     C91905   5.452   5.373   1.515 -0.3234  1.0380 -0.1229
  697MOL0     C91906   5.472   5.307   1.633 -0.0575  0.2627  0.3221
  697MOL0     O91907   5.370   5.248   1.706 -0.2502 -0.1340 -1.0610
  697MOL0     C91908   5.236   5.308   1.712 -0.6663 -0.1747  0.5092
  697MOL0     C91909   5.141   5.197   1.682  0.3135 -0.4057 -0.3191
  697MOL0     C91910   5.016   5.242   1.603 -0.5296  0.1941 -0.2716
  697MOL0     C91911   4.933   5.114   1.575  0.8055 -0.2310 -0.8473
  697MOL0     C91912   4.789   5.155   1.547 -0.1990  0.3677  0.3131
  697MOL0     C91913   4.712   5.200   1.670 -1.0491  0.6524  0.6089
  697MOL0     C91914   4.579   5.261   1.623 -1.1631 -0.2459 -1.0269
  697MOL0     C91915   4.492   5.313   1.742 -0.2391  0.3614 -0.3847
  697MOL0    Cl91916   4.418   5.172   1.823 -0.1538  0.2144 -0.2324
  697MOL0     C91917   5.600   5.297   1.685  0.2882 -0.6562  0.3177
  697MOL0     C91918   5.711   5.336   1.609 -0.5340  0.4521 -0.0377
  697MOL0     O91919   5.882   5.191   1.371  0.8987  0.2413  0.0478
  697MOL0     C91920   6.073   5.479   1.311 -0.7245 -0.1167 -0.0130
  697MOL0     C91921   6.204   5.514   1.301 -0.0516  0.1328  0.6207
  697MOL0     N91922   6.763   5.714   1.003 -0.8408  0.2357  0.2760
  697MOL0     N91923   6.760   5.838   0.957 -0.1923 -0.0646  0.2085
  697MOL0     C91924   6.008   6.638   0.556 -0.1501 -0.6606  0.0454
  697MOL0     C91925   5.892   6.711   0.533 -0.2702  0.5634  0.7588
  697MOL0     C91926   5.609   7.061   0.537 -0.0740  0.1703 -0.8597
  697MOL0     C91927   5.624   7.133   0.417  0.1065  0.0822 -0.1255
  697MOL0     C91928   5.519   7.212   0.365 -0.0283 -0.7268  1.1007
  697MOL0     C91929   5.392   7.205   0.418 -0.2043  1.3278 -0.4286
  697MOL0     O91930   5.287   7.261   0.343  0.1438  0.5240 -0.4299
  697MOL0     C91931   5.153   7.235   0.399 -0.6863 -0.5380 -0.0399
  697MOL0     C91932   5.102   7.086   0.378 -0.0792 -0.0600 -0.5730
  697MOL0     C91933   5.052   7.064   0.240  0.3177 -0.6984  0.7207
  697MOL0     C91934   4.907   7.117   0.198 -0.3371  0.0210  0.6286
  697MOL0     C91935   4.804   7.029   0.262  0.4492  0.4534 -0.2828
  697MOL0     C91936   4.708   6.976   0.320  0.0893  0.1149  0.6928
  697MOL0     C91937   5.384   7.139   0.549 -0.7659  0.4856  0.0975
  697MOL0     C91938   5.497   7.075   0.603  0.0220 -0.7961  0.5220
  697MOL0     H91939   6.001   7.013   0.649 -2.9153  0.4435  0.8173
  697MOL0     H91940   6.198   6.892   0.705 -0.7804  0.1704  1.8790
  697MOL0     H91941   6.245   6.503   0.463 -1.3417 -3.2023  0.2715
  697MOL0     H91942   6.197   6.438   0.610 -0.8217 -1.5413 -3.4064
  697MOL0     H91943   6.492   6.542   0.576  0.6596 -2.4873 -2.6942
  697MOL0     H91944   6.436   6.384   0.532 -1.2715 -2.4736  1.1264
  697MOL0     H91945   6.339   6.348   0.779  1.8661 -4.2283 -2.2189
  697MOL0     H91946   6.436   6.490   0.816 -1.6882 -0.7901  1.5155
  697MOL0     H91947   6.530   6.214   0.708  2.5230 -1.3994  1.3028
  697MOL0     H91948   6.621   6.358   0.681 -1.1270 -0.8643 -1.5399
  697MOL0     H91949   6.526   6.293   0.964 -0.1218  1.5792  0.8044
  697MOL0     H91950   6.670   6.386   0.907 -0.9927  0.9359  0.7390
  697MOL0     H91951   6.773   6.168   0.832 -0.1630  0.9985 -0.9758
  697MOL0     H91952   6.626   6.077   0.876 -0.6525 -0.3367  1.9957
  697MOL0     H91953   6.788   6.246   1.070  0.2013 -0.2351 -1.3196
  697MOL0     H91954   6.662   6.126   1.100 -0.6782  1.2816  1.5564
  697MOL0     H91955   6.915   6.064   1.143  0.2343 -3.6023  0.3693
  697MOL0     H91956   6.927   6.058   0.964 -0.7226  0.2135 -0.6097
  697MOL0     H91957   6.915   5.859   1.245 -0.7541 -2.6973  1.9623
  697MOL0     H91958   6.898   5.606   1.305  0.3225  0.9943 -0.4177
  697MOL0     H91959   6.912   5.519   1.144 -1.9481 -2.1138 -0.0906
  697MOL0     H91960   6.660   5.595   1.308 -2.5179 -0.2134 -1.0161
  697MOL0     H91961   6.747   5.442   1.329  1.2871  0.7274  1.1191
  697MOL0     H91962   6.593   5.544   1.086  2.7493  1.0034 -3.1168
  697MOL0     H91963   6.697   5.399   1.071 -3.1202 -0.5115 -1.7904
  697MOL0     H91964   6.572   5.292   1.240  0.8640  0.9802  0.9087
  697MOL0     H91965   6.488   5.341   1.094 -1.5488  0.8079  0.6618
  697MOL0     H91966   6.317   5.211   1.195  3.2974  3.3918  1.3940
  697MOL0     H91967   6.102   5.155   1.236  1.1533 -0.2948 -0.6060
  697MOL0     H91968   5.552   5.463   1.343 -0.8498  2.3783  1.5421
  697MOL0     H91969   5.353   5.393   1.474  0.7860 -1.4422 -4.7212
  697MOL0     H91970   5.226   5.390   1.639  0.7654 -0.1832  0.2549
  697MOL0     H91971   5.218   5.354   1.809  2.5889  1.1750  0.6211
  697MOL0     H91972   5.119   5.135   1.769 -0.4189 -0.5065 -0.5651
  697MOL0     H91973   5.191   5.125   1.617 -1.3631 -0.9614 -1.0443
  697MOL0     H91974   5.048   5.289   1.510  2.3422  2.1867  1.5555
  697MOL0     H91975   4.977   5.321   1.669  0.6303  1.1183 -0.6664
  697MOL0     H91976   4.976   5.065   1.488  0.5854 -1.4081 -0.3175
  697MOL0     H91977   4.942   5.033   1.648  2.1491 -0.2866 -1.0532
  697MOL0     H91978   4.746   5.071   1.491  4.0422  0.6725 -4.0437
  697MOL0     H91979   4.794   5.241   1.481 -0.8165 -0.9409 -1.5185
  697MOL0     H91980   4.774   5.270   1.727  1.9530  1.5101 -3.2794
  697MOL0     H91981   4.684   5.111   1.727  1.7528 -0.2710  0.6665
  697MOL0     H91982   4.595   5.355   1.570  0.9591 -0.9889 -1.7839
  697MOL0     H91983   4.524   5.185   1.566 -3.1491  0.1745  0.2130
  697MOL0     H91984   4.414   5.382   1.710 -0.3374  1.0146  1.1501
  697MOL0     H91985   4.559   5.367   1.810 -0.8424 -0.4140  0.8783
  697MOL0     H91986   5.606   5.260   1.787 -2.2606 -1.8540  0.0922
  697MOL0     H91987   5.811   5.324   1.649 -0.1670 -0.9054 -1.2857
  697MOL0     H91988   5.995   5.554   1.327 -0.5744  0.7634 -2.9047
  697MOL0     H91989   6.241   5.610   1.336 -4.4442  1.5273  2.1553
  697MOL0     H91990   6.000   6.540   0.511  0.6413  0.3743 -2.5399
  697MOL0     H91991   5.811   6.665   0.478  0.8687 -2.1465  1.2021
  697MOL0     H91992   5.710   7.114   0.354  0.8556 -2.1921  1.4860
  697MOL0     H91993   5.522   7.254   0.265 -0.1370 -2.4293  0.3419
  697MOL0     H91994   5.089   7.317   0.367 -0.7342 -1.2819 -2.0001
  697MOL0     H91995   5.164   7.264   0.504 -1.9845  1.8126 -0.4922
  697MOL0     H91996   5.174   7.009   0.405  0.0283 -0.2668 -1.4219
  697MOL0     H91997   5.016   7.074   0.445 -0.2451 -2.2227 -1.1218
  697MOL0     H91998   5.038   6.957   0.222 -2.3643 -0.0197 -2.2958
  697MOL0     H91999   5.122   7.102   0.165 -0.9339  1.5891  0.6101
  697MOL0     H92000   4.905   7.225   0.216  0.5589  0.0787  0.4312
  697MOL0     H92001   4.883   7.100   0.093 -2.3643  0.6583  0.9587
  697MOL0     H92002   4.630   6.924   0.371 -1.5731 -0.0470 -1.8301
  697MOL0     H92003   5.293   7.124   0.606 -2.3034  0.5623 -2.1953
  697MOL0     H92004   5.476   7.025   0.698 -1.7692 -0.8682  0.1203
  698MOL0     O92005   5.260   0.347   2.303  0.8760  1.3315 -0.8222
  698MOL0     C92006   5.269   0.458   2.271 -1.0765 -0.5800 -0.3939
  698MOL0     O92007   5.169   0.547   2.267 -0.0766 -0.2880 -0.2107
  698MOL0     C92008   5.046   0.508   2.317  0.2500 -0.3867  0.1182
  698MOL0     C92009   5.019   0.555   2.441  0.4155  0.7632  0.0047
  698MOL0     C92010   4.914   0.492   2.515  0.1707 -0.8115 -1.7213
  698MOL0     C92011   4.832   0.400   2.446  0.2471 -0.1334  0.6111
  698MOL0     O92012   4.716   0.358   2.506  0.5435  0.3508  0.3907
  698MOL0     C92013   4.591   0.424   2.471  0.0219 -0.3141  0.4994
  698MOL0     C92014   4.488   0.311   2.457  0.7018  0.4625 -0.6426
  698MOL0     C92015   4.355   0.382   2.422 -0.2393 -1.0007  0.6147
  698MOL0     C92016   4.232   0.300   2.463  0.2202  0.2083 -0.3266
  698MOL0     C92017   4.089   0.354   2.422 -0.1900 -0.0042  0.5142
  698MOL0     C92018   4.083   0.385   2.269  0.1865  0.5573 -0.2241
  698MOL0     C92019   3.935   0.417   2.233 -0.2123  0.6295  0.2454
  698MOL0     C92020   3.867   0.527   2.312 -0.6446  0.0183 -0.0867
  698MOL0     N92021   3.720   0.518   2.312 -0.7804  0.5880  0.6137
  698MOL0     C92022   3.651   0.505   2.198  0.7936 -0.5128 -0.4146
  698MOL0     C92023   3.524   0.477   2.237 -0.8352 -0.1376 -0.5019
  698MOL0     C92024   3.423   0.432   2.131  0.4886  0.3935 -0.4930
  698MOL0     C92025   3.291   0.372   2.183  0.2621 -1.8254 -0.4208
  698MOL0     C92026   3.192   0.346   2.072 -0.4120  0.3904  0.3624
  698MOL0     C92027   3.054   0.290   2.130  0.4273  0.3207 -0.2256
  698MOL0     O92028   2.977   0.387   2.205  0.4420  0.4725  0.0562
  698MOL0     C92029   2.848   0.405   2.152  0.2165  0.1290 -0.1535
  698MOL0     C92030   2.739   0.317   2.164  0.0805  0.5373  0.2003
  698MOL0     C92031   2.616   0.351   2.110 -0.0097  0.0596 -0.0568
  698MOL0     C92032   2.581   0.474   2.062 -0.2295 -0.4872  0.6530
  698MOL0     C92033   2.452   0.509   2.003  0.0352  0.2770 -0.5030
  698MOL0     O92034   2.372   0.402   1.960  0.2386  0.1572 -0.2741
  698MOL0     C92035   2.246   0.426   1.920 -1.3199  0.0373 -0.3328
  698MOL0     C92036   2.205   0.402   1.787  0.8041  0.2861 -0.6646
  698MOL0     C92037   2.078   0.433   1.745  0.1131 -0.4818 -0.0407
  698MOL0     C92038   1.984   0.487   1.826  0.1737 -0.6791 -0.6533
  698MOL0     O92039   1.858   0.509   1.775  0.1815  0.3582  0.8495
  698MOL0     C92040   1.759   0.553   1.861  0.0419 -0.3960  0.2537
  698MOL0     C92041   1.622   0.512   1.784  0.1551 -0.3229 -0.2159
  698MOL0     C92042   1.503   0.479   1.873 -0.1349 -0.1158 -0.1454
  698MOL0     C92043   1.401   0.396   1.803 -0.3211  0.0910  0.7390
  698MOL0     C92044   1.265   0.420   1.870  0.7096 -0.4135 -0.8233
  698MOL0     C92045   1.249   0.364   2.013  0.1342  0.5568 -0.3020
  698MOL0     C92046   1.125   0.425   2.085 -0.3836  0.0040 -0.3098
  698MOL0     C92047   1.164   0.514   2.206  0.3842  0.1537 -1.2987
  698MOL0    Cl92048   1.287   0.640   2.157 -0.0965 -0.0244 -0.5210
  698MOL0     C92049   2.018   0.504   1.962  0.2545  0.9995 -0.4543
  698MOL0     C92050   2.149   0.480   2.009 -0.1615  0.4990  0.7665
  698MOL0     O92051   2.421   0.623   2.020 -0.0677  0.7957 -0.3375
  698MOL0     C92052   2.679   0.573   2.092 -0.3386 -0.2823  0.0845
  698MOL0     C92053   2.807   0.532   2.134  0.3996  0.0769  0.4391
  698MOL0     N92054   3.521   0.463   2.375 -0.2195  0.3012 -0.3062
  698MOL0     N92055   3.642   0.486   2.418  0.7755  0.3964 -0.6739
  698MOL0     C92056   4.864   0.355   2.322 -0.2902  0.7601  0.0889
  698MOL0     C92057   4.975   0.407   2.256  0.0236  0.5911  0.8080
  698MOL0     C92058   5.403   0.513   2.235 -0.3082  0.8383 -0.0285
  698MOL0     C92059   5.421   0.647   2.194 -0.3022 -0.0057  0.7104
  698MOL0     C92060   5.544   0.689   2.137  0.4731  0.5013  0.0373
  698MOL0     C92061   5.655   0.610   2.136  0.2204 -0.3750  0.0907
  698MOL0     O92062   5.774   0.662   2.077 -0.0426 -0.2610 -0.5799
  698MOL0     C92063   5.905   0.615   2.111  0.7108  0.4913  0.3997
  698MOL0     C92064   6.011   0.690   2.022  0.1038 -0.4224 -0.3830
  698MOL0     C92065   6.158   0.657   2.044  0.5527 -0.1495  0.4498
  698MOL0     C92066   6.245   0.762   1.978 -0.5080  0.0993 -0.2470
  698MOL0     C92067   6.379   0.700   1.968 -0.4641 -0.3080 -0.6427
  698MOL0     C92068   6.492   0.647   1.964  0.3808 -0.5595 -0.1656
  698MOL0     C92069   5.643   0.473   2.188  0.3024  0.4159 -0.3376
  698MOL0     C92070   5.514   0.429   2.223 -0.1184  0.5172  0.7595
  698MOL0     H92071   5.087   0.629   2.484  1.8226 -0.7006  0.3871
  698MOL0     H92072   4.872   0.514   2.613 -0.5011 -1.3021 -1.8935
  698MOL0     H92073   4.599   0.483   2.379 -1.9160  0.5561  0.8467
  698MOL0     H92074   4.580   0.493   2.555  1.2694 -1.5124  1.7102
  698MOL0     H92075   4.474   0.253   2.549 -0.8652  0.4914 -0.8301
  698MOL0     H92076   4.520   0.244   2.377 -0.3194 -0.7716 -0.0626
  698MOL0     H92077   4.347   0.411   2.317 -2.4202 -1.1256  0.6978
  698MOL0     H92078   4.344   0.476   2.477  0.7508 -0.6752  0.2751
  698MOL0     H92079   4.243   0.199   2.424  2.2967  0.2760 -0.0119
  698MOL0     H92080   4.235   0.291   2.572 -2.3944 -2.4633 -0.3516
  698MOL0     H92081   4.077   0.448   2.475  3.6950  0.8387  0.1924
  698MOL0     H92082   4.014   0.277   2.443 -0.7705  0.1317 -0.9747
  698MOL0     H92083   4.115   0.295   2.216 -0.3805 -1.8278  3.1418
  698MOL0     H92084   4.154   0.464   2.241  1.8536 -0.4879  0.8763
  698MOL0     H92085   3.912   0.433   2.127  3.2670  1.5266 -0.5055
  698MOL0     H92086   3.874   0.331   2.262  1.7043 -0.8229  0.1659
  698MOL0     H92087   3.892   0.623   2.265  2.0939 -1.2174 -1.3552
  698MOL0     H92088   3.890   0.519   2.418 -2.4263 -2.9161  0.2024
  698MOL0     H92089   3.686   0.521   2.097 -0.4902  1.1202 -0.6376
  698MOL0     H92090   3.461   0.353   2.066 -0.3004 -1.4495  1.1744
  698MOL0     H92091   3.391   0.524   2.082 -5.6947 -1.5123 -0.9636
  698MOL0     H92092   3.249   0.432   2.264  0.5852 -3.2681  0.8678
  698MOL0     H92093   3.320   0.279   2.234 -0.7913 -0.9617  1.8584
  698MOL0     H92094   3.172   0.439   2.017 -1.7113  0.0073  0.1625
  698MOL0     H92095   3.232   0.272   2.002  0.1030 -1.7207  2.7259
  698MOL0     H92096   3.087   0.212   2.199 -3.1221 -1.2467 -0.0821
  698MOL0     H92097   2.988   0.239   2.059 -1.2438 -2.2039  2.8547
  698MOL0     H92098   2.756   0.213   2.191  2.5502 -0.0929 -3.1216
  698MOL0     H92099   2.549   0.267   2.100  3.2634 -2.6814 -0.6001
  698MOL0     H92100   2.275   0.356   1.718  3.3505  0.8031  1.4009
  698MOL0     H92101   2.056   0.420   1.639 -0.8026 -3.7482  0.4464
  698MOL0     H92102   1.774   0.659   1.884  2.6389 -0.4831 -0.7117
  698MOL0     H92103   1.760   0.486   1.948 -0.0414 -0.1408  0.4541
  698MOL0     H92104   1.629   0.429   1.712 -2.0859  0.5216 -1.5267
  698MOL0     H92105   1.590   0.587   1.711  0.8027  0.0298 -0.1386
  698MOL0     H92106   1.456   0.573   1.905  0.8370 -0.1638  1.5271
  698MOL0     H92107   1.532   0.433   1.968 -1.7889 -0.5871  0.1641
  698MOL0     H92108   1.399   0.435   1.701 -0.8892  1.6758  1.3162
  698MOL0     H92109   1.430   0.291   1.802  1.8853  0.4352  4.7829
  698MOL0     H92110   1.185   0.374   1.810  0.5355 -2.7501  1.0544
  698MOL0     H92111   1.237   0.526   1.866 -1.4063 -0.9050 -0.3659
  698MOL0     H92112   1.339   0.387   2.071  0.3704  1.7082 -1.1029
  698MOL0     H92113   1.231   0.256   2.018  0.6817  0.3726  5.7403
  698MOL0     H92114   1.087   0.503   2.019  1.3454  1.4253  0.2745
  698MOL0     H92115   1.051   0.347   2.105 -1.4820 -0.2082 -4.3221
  698MOL0     H92116   1.227   0.455   2.272  0.8124  0.5991 -1.3049
  698MOL0     H92117   1.075   0.551   2.260  0.8170 -1.7373  0.8683
  698MOL0     H92118   1.954   0.549   2.038  1.1952 -1.3031  1.8471
  698MOL0     H92119   2.177   0.519   2.107 -1.0436 -0.8192  1.5728
  698MOL0     H92120   2.663   0.673   2.053 -0.1976 -0.0027  0.7319
  698MOL0     H92121   2.875   0.610   2.166  1.5897 -0.3005 -1.0424
  698MOL0     H92122   4.792   0.284   2.284 -3.2996  0.7298  4.9764
  698MOL0     H92123   5.009   0.362   2.163 -2.2091  1.0973 -0.3291
  698MOL0     H92124   5.344   0.723   2.194  0.4875  0.8483 -0.9607
  698MOL0     H92125   5.549   0.791   2.101 -1.2204  0.5196 -0.2390
  698MOL0     H92126   5.908   0.513   2.070 -1.3002  0.1691  0.9624
  698MOL0     H92127   5.942   0.622   2.214  1.6023 -1.3271  0.2601
  698MOL0     H92128   5.987   0.676   1.916  2.8040  0.5514 -1.2075
  698MOL0     H92129   5.986   0.795   2.040  0.8239 -0.3729  0.3632
  698MOL0     H92130   6.172   0.561   1.993 -1.0523  0.4583 -1.2470
  698MOL0     H92131   6.182   0.654   2.151  0.3249  0.3805  0.5210
  698MOL0     H92132   6.220   0.785   1.874  2.2764 -1.2722 -1.3338
  698MOL0     H92133   6.241   0.853   2.038 -2.3010 -0.8189  1.1303
  698MOL0     H92134   6.572   0.575   1.964 -0.2891 -1.3157 -0.4407
  698MOL0     H92135   5.718   0.395   2.196 -0.8631 -0.7951 -0.8487
  698MOL0     H92136   5.510   0.323   2.248 -0.3720 -0.2841 -2.2361
  699MOL0     O92137   8.688   8.026   9.739 -0.0339 -0.5641  0.2780
  699MOL0     C92138   8.688   8.082   9.851  0.3415 -0.6899 -0.4398
  699MOL0     O92139   8.804   8.121   9.922 -0.0749 -0.1533 -0.3624
  699MOL0     C92140   8.922   8.122   9.853 -0.8950 -0.2698 -0.1756
  699MOL0     C92141   9.002   8.242   9.862  1.0859  0.8703  0.4213
  699MOL0     C92142   9.142   8.237   9.836  0.2807 -0.7117 -1.1566
  699MOL0     C92143   9.199   8.122   9.793 -0.2870  0.2751  0.5453
  699MOL0     O92144   9.333   8.133   9.779  0.6317  0.0536 -0.2973
  699MOL0     C92145   9.409   8.020   9.744  0.2798 -0.2359 -1.0244
  699MOL0     C92146   9.555   8.056   9.710 -0.1221 -0.3651 -0.1120
  699MOL0     C92147   9.634   7.934   9.671 -0.4101  0.2061  0.2241
  699MOL0     C92148   9.777   7.953   9.615  1.0887  0.3883  1.4616
  699MOL0     C92149   9.873   7.981   9.723 -0.2999 -0.0826 -0.7423
  699MOL0     C92150  10.009   8.014   9.652 -0.1251 -0.1562 -0.4649
  699MOL0     C92151  10.053   7.922   9.541 -0.9517 -0.2473  0.3616
  699MOL0     C92152  10.193   7.968   9.494  0.2265 -0.4608  1.1216
  699MOL0     N92153  10.220   7.918   9.360  0.6184  0.2987 -0.0328
  699MOL0     C92154  10.234   7.784   9.328 -0.2934  0.7330  0.1078
  699MOL0     C92155  10.268   7.784   9.194 -0.5911 -0.0337  0.2789
  699MOL0     C92156  10.297   7.660   9.120 -0.5773  0.2489  0.0056
  699MOL0     C92157  10.176   7.565   9.096  0.7495  0.7779  0.8185
  699MOL0     C92158  10.063   7.612   8.996  0.3424  0.5577  0.3672
  699MOL0     C92159   9.959   7.711   9.053 -0.3158 -0.0939 -0.3187
  699MOL0     O92160   9.953   7.690   9.196 -0.4731 -1.1465  0.1652
  699MOL0     C92161   9.828   7.706   9.249 -0.1628 -0.0715 -0.9802
  699MOL0     C92162   9.740   7.810   9.210 -0.0838 -0.4987  0.2840
  699MOL0     C92163   9.610   7.811   9.267 -0.2828  0.0326  0.2241
  699MOL0     C92164   9.566   7.727   9.369 -1.3216 -1.2636 -0.4866
  699MOL0     C92165   9.431   7.740   9.424 -1.2168  1.0150  0.1298
  699MOL0     O92166   9.383   7.632   9.498 -0.2341  0.3619 -0.2733
  699MOL0     C92167   9.251   7.628   9.530  0.0042 -0.3494 -0.3562
  699MOL0     C92168   9.223   7.586   9.655  1.1595  0.0813  0.0101
  699MOL0     C92169   9.100   7.585   9.703  0.2968 -0.9252  0.3768
  699MOL0     C92170   8.995   7.623   9.619  0.0612 -0.0756  0.2678
  699MOL0     O92171   8.867   7.623   9.674  0.0240  0.0345 -0.0604
  699MOL0     C92172   8.773   7.731   9.633  0.1299  0.2721  0.4461
  699MOL0     C92173   8.632   7.689   9.680 -0.0069 -0.5068 -0.6651
  699MOL0     C92174   8.631   7.689   9.839 -0.5243 -0.2146  0.2991
  699MOL0     C92175   8.496   7.664   9.906  0.7198 -0.2266 -0.4014
  699MOL0     C92176   8.495   7.669  10.061  0.4471  0.0537 -0.2231
  699MOL0     C92177   8.544   7.525  10.099 -0.2166 -1.1433 -0.3454
  699MOL0     C92178   8.566   7.493  10.244  0.5894  0.8035 -0.1862
  699MOL0     C92179   8.431   7.493  10.315 -0.0471  0.5782 -0.7779
  699MOL0    Cl92180   8.319   7.372  10.285 -0.1755  0.3724 -0.4933
  699MOL0     C92181   9.017   7.662   9.484  0.3043 -0.7284  0.0666
  699MOL0     C92182   9.154   7.667   9.442  0.3286  0.3418 -0.0898
  699MOL0     O92183   9.389   7.858   9.426  0.4095  0.3487  0.4541
  699MOL0     C92184   9.654   7.629   9.411 -0.3294 -0.7124 -0.8389
  699MOL0     C92185   9.781   7.612   9.342  0.2080  0.3609 -0.1190
  699MOL0     N92186  10.279   7.913   9.157 -0.7600  0.0313  0.7542
  699MOL0     N92187  10.253   7.992   9.252  0.0003  0.3705 -0.5633
  699MOL0     C92188   9.126   8.004   9.779 -0.4715 -0.1495 -0.0457
  699MOL0     C92189   8.990   8.006   9.808  0.0241  0.0182 -0.0698
  699MOL0     C92190   8.567   8.080   9.938 -0.0732  1.3004  0.2338
  699MOL0     C92191   8.446   8.043   9.889  0.2527 -0.4466  0.4093
  699MOL0     C92192   8.333   8.051   9.967  0.2646  0.3298  1.1247
  699MOL0     C92193   8.341   8.085  10.102  0.3131 -0.1323 -0.7629
  699MOL0     O92194   8.229   8.112  10.185 -0.7152  0.3222  1.0329
  699MOL0     C92195   8.097   8.064  10.148 -0.4648  0.4470 -0.4377
  699MOL0     C92196   8.011   8.180  10.086  0.2878  0.5263 -0.1046
  699MOL0     C92197   7.865   8.138  10.093  0.3784  0.8551  0.2088
  699MOL0     C92198   7.772   8.243  10.027 -0.0811  0.0052 -0.1510
  699MOL0     C92199   7.635   8.190   9.998  0.1268 -0.6455  0.2070
  699MOL0     C92200   7.531   8.148   9.968 -0.0372 -0.4422 -0.4597
  699MOL0     C92201   8.464   8.117  10.156 -0.0180 -0.0228  0.5339
  699MOL0     C92202   8.581   8.119  10.069  0.4462  0.0505 -0.4900
  699MOL0     H92203   8.961   8.326   9.917  1.2013  0.9419  0.3979
  699MOL0     H92204   9.213   8.318   9.851 -0.0240 -0.8286  1.4253
  699MOL0     H92205   9.372   7.972   9.653  2.2899 -0.5238 -1.7158
  699MOL0     H92206   9.405   7.959   9.834  1.0600  2.9856  1.3907
  699MOL0     H92207   9.603   8.096   9.799  0.4526  1.5417 -1.2195
  699MOL0     H92208   9.552   8.123   9.623  1.3270 -1.8189 -1.3469
  699MOL0     H92209   9.573   7.897   9.588  1.2714  2.9843 -2.4879
  699MOL0     H92210   9.631   7.867   9.757  2.1764  0.0222  0.2368
  699MOL0     H92211   9.803   7.864   9.557 -1.2411  1.4747 -1.5338
  699MOL0     H92212   9.773   8.035   9.542  0.0133 -1.6694 -0.9388
  699MOL0     H92213   9.880   7.892   9.786  0.4162 -1.5314 -2.7631
  699MOL0     H92214   9.849   8.063   9.792  0.4581 -2.0294  1.9708
  699MOL0     H92215  10.077   8.002   9.737 -1.0709 -0.2763  0.2871
  699MOL0     H92216  10.001   8.111   9.601 -0.2614 -1.5303 -3.2554
  699MOL0     H92217  10.061   7.817   9.571  1.4408 -1.2271 -3.0262
  699MOL0     H92218   9.991   7.919   9.451  2.0899  0.6729 -1.9514
  699MOL0     H92219  10.269   7.943   9.568  1.0092 -1.0565  0.1524
  699MOL0     H92220  10.190   8.076   9.481  1.9644 -0.7636 -4.4769
  699MOL0     H92221  10.216   7.704   9.399  1.1039  1.1480  0.9718
  699MOL0     H92222  10.377   7.603   9.168 -3.2606 -2.4475  1.6190
  699MOL0     H92223  10.324   7.682   9.016 -1.4527  0.5478 -0.1682
  699MOL0     H92224  10.130   7.529   9.189  3.3131 -0.9764  1.5221
  699MOL0     H92225  10.225   7.482   9.044 -0.6259  0.5874 -0.2237
  699MOL0     H92226  10.123   7.657   8.916  1.6823 -0.4857  0.7586
  699MOL0     H92227  10.004   7.529   8.958  2.9005 -1.1026 -0.2388
  699MOL0     H92228   9.861   7.700   9.006 -0.5900  0.1738  0.1853
  699MOL0     H92229   9.997   7.812   9.036  1.8414 -0.3572  2.3154
  699MOL0     H92230   9.763   7.889   9.139  1.7796 -0.9883  0.2991
  699MOL0     H92231   9.555   7.897   9.231  1.1592  0.8574 -0.1235
  699MOL0     H92232   9.296   7.566   9.733 -1.1294  0.5375  2.3889
  699MOL0     H92233   9.078   7.553   9.805 -1.4179 -0.5229  0.1693
  699MOL0     H92234   8.767   7.752   9.526 -1.5791 -0.4395  0.3773
  699MOL0     H92235   8.794   7.830   9.675  3.0913 -0.1240  0.1466
  699MOL0     H92236   8.605   7.594   9.633  0.5588 -1.2535  0.4689
  699MOL0     H92237   8.568   7.767   9.638 -1.0317 -1.3427 -0.6695
  699MOL0     H92238   8.654   7.795   9.858 -2.7515  0.2799  0.5135
  699MOL0     H92239   8.710   7.624   9.878  0.1306  0.9500  0.9854
  699MOL0     H92240   8.427   7.743   9.873 -2.6715 -3.2266 -1.1045
  699MOL0     H92241   8.461   7.577   9.851  2.2602 -0.1100 -1.6421
  699MOL0     H92242   8.397   7.698  10.100  0.8448 -0.1823  1.0045
  699MOL0     H92243   8.562   7.746  10.099 -2.3625  2.2898  0.5688
  699MOL0     H92244   8.636   7.502  10.045  0.4944 -0.0977  0.3863
  699MOL0     H92245   8.474   7.455  10.052 -0.5717 -0.4982 -0.7998
  699MOL0     H92246   8.601   7.390  10.248 -0.7652  0.3076 -0.5170
  699MOL0     H92247   8.632   7.564  10.295 -1.2127 -0.4695  4.5047
  699MOL0     H92248   8.383   7.591  10.302  1.6591  1.1788 -3.2385
  699MOL0     H92249   8.454   7.495  10.422 -0.7782  2.1549 -0.6182
  699MOL0     H92250   8.935   7.671   9.414  0.8437 -2.1316 -0.7856
  699MOL0     H92251   9.176   7.697   9.340 -1.9457 -0.2630 -0.8070
  699MOL0     H92252   9.623   7.572   9.498 -2.8007  1.0727 -0.4236
  699MOL0     H92253   9.841   7.526   9.369 -0.9568 -0.4910 -0.1686
  699MOL0     H92254   9.180   7.912   9.758 -2.0975 -1.3247  0.7273
  699MOL0     H92255   8.945   7.908   9.818 -0.6342  0.5145  2.9374
  699MOL0     H92256   8.444   8.003   9.788  2.3037  0.1931  0.0833
  699MOL0     H92257   8.242   8.016   9.919  0.9710 -3.1013  1.9850
  699MOL0     H92258   8.045   8.029  10.238  0.4731  0.1934  0.0095
  699MOL0     H92259   8.111   7.982  10.077  3.1143  0.9030 -0.4264
  699MOL0     H92260   8.024   8.264  10.154  0.1811  0.5968 -0.1724
  699MOL0     H92261   8.049   8.210   9.988 -0.4045  1.5203 -0.0850
  699MOL0     H92262   7.829   8.122  10.195 -0.9304 -2.7530 -0.6683
  699MOL0     H92263   7.856   8.043  10.038 -0.4214  0.3239  1.2223
  699MOL0     H92264   7.749   8.328  10.092  0.3989 -1.1426  1.5917
  699MOL0     H92265   7.816   8.267   9.930 -3.6096  5.7594 -0.8261
  699MOL0     H92266   7.433   8.108   9.949 -0.0896 -2.0250  2.5608
  699MOL0     H92267   8.465   8.153  10.258 -1.3308 -1.8493  1.2447
  699MOL0     H92268   8.665   8.168  10.117  1.0675 -0.9681 -0.5132
  700MOL0     O92269   4.078   5.519   3.152 -0.1271 -0.2371 -0.3559
  700MOL0     C92270   4.153   5.517   3.053  0.4143 -0.2860 -0.1716
  700MOL0     O92271   4.113   5.476   2.926  0.3881  0.4279 -0.1433
  700MOL0     C92272   3.982   5.488   2.902 -0.1039  0.1870  0.4555
  700MOL0     C92273   3.937   5.600   2.826 -0.0274 -0.4377  0.4881
  700MOL0     C92274   3.802   5.611   2.786 -0.4050 -0.1027 -0.5080
  700MOL0     C92275   3.709   5.518   2.834  0.4177  0.0921 -0.3603
  700MOL0     O92276   3.579   5.555   2.806  0.1665 -0.7103 -0.3446
  700MOL0     C92277   3.466   5.473   2.843  0.2735  0.3695 -0.1558
  700MOL0     C92278   3.379   5.440   2.730 -0.3244 -0.3065 -0.7296
  700MOL0     C92279   3.269   5.551   2.706 -0.0150  0.3549  0.3155
  700MOL0     C92280   3.194   5.531   2.575  0.4670  0.1463  0.2358
  700MOL0     C92281   3.098   5.637   2.519 -0.5926 -0.5233  0.0704
  700MOL0     C92282   2.986   5.687   2.608 -0.0150  1.1294  0.4820
  700MOL0     C92283   2.890   5.569   2.655  0.0391 -1.4234 -0.6090
  700MOL0     C92284   2.834   5.495   2.544 -0.1629 -0.0217  0.1563
  700MOL0     N92285   2.713   5.422   2.577 -0.6221 -0.1056  0.4969
  700MOL0     C92286   2.599   5.490   2.613 -0.3627  0.7449  0.1750
  700MOL0     C92287   2.513   5.382   2.639 -0.0396 -0.5315  0.3062
  700MOL0     C92288   2.375   5.412   2.688 -0.1415  0.2210 -0.3900
  700MOL0     C92289   2.287   5.410   2.569 -1.1608 -0.4511  0.1131
  700MOL0     C92290   2.146   5.437   2.604  0.6925 -0.6238  0.6953
  700MOL0     C92291   2.062   5.499   2.486  0.7547 -0.4211  0.2534
  700MOL0     O92292   1.924   5.510   2.525 -0.4915 -0.6456 -0.5820
  700MOL0     C92293   1.820   5.519   2.438 -0.2041  0.7418  0.0871
  700MOL0     C92294   1.823   5.546   2.301 -0.3755 -0.0796 -0.0510
  700MOL0     C92295   1.708   5.573   2.225  0.4535  0.5038  0.2421
  700MOL0     C92296   1.583   5.565   2.291 -0.9094  0.6134 -0.1251
  700MOL0     C92297   1.453   5.576   2.208  0.1673 -0.2065  0.3960
  700MOL0     O92298   1.458   5.557   2.071  0.0362  0.0704  0.2931
  700MOL0     C92299   1.341   5.548   2.004  0.5791 -0.2604  0.6392
  700MOL0     C92300   1.327   5.640   1.896  0.6768 -0.1713 -0.4384
  700MOL0     C92301   1.210   5.641   1.818 -0.2860 -0.5168  0.1988
  700MOL0     C92302   1.115   5.545   1.845  0.0274  0.8772  1.1767
  700MOL0     O92303   0.998   5.548   1.766 -0.5483 -0.2229  0.6083
  700MOL0     C92304   0.884   5.469   1.787  0.5355  0.6598 -0.2472
  700MOL0     C92305   0.805   5.508   1.915 -0.5539 -0.2421  0.1606
  700MOL0     C92306   0.686   5.410   1.940  0.2237 -0.0129  0.2171
  700MOL0     C92307   0.605   5.444   2.069 -0.7894  0.3298 -0.1227
  700MOL0     C92308   0.521   5.330   2.126  0.0775  1.0426 -0.5038
  700MOL0     C92309   0.465   5.353   2.262  0.8242 -0.7306  0.4625
  700MOL0     C92310   0.389   5.227   2.308  0.6009 -0.1638 -0.1201
  700MOL0     C92311   0.267   5.291   2.385  0.0578  0.2422  0.0736
  700MOL0    Cl92312   0.329   5.412   2.495  0.0054  0.0170  0.0242
  700MOL0     C92313   1.130   5.440   1.937  0.6752 -0.4716  0.6727
  700MOL0     C92314   1.244   5.447   2.020  0.3150 -0.5104 -0.2741
  700MOL0     O92315   1.354   5.607   2.273 -0.3806 -0.7189  0.8449
  700MOL0     C92316   1.579   5.550   2.431 -0.5820 -0.6157 -0.2187
  700MOL0     C92317   1.691   5.514   2.500 -1.1534 -0.9178 -0.3368
  700MOL0     N92318   2.561   5.262   2.603  0.1567  0.6172  0.5039
  700MOL0     N92319   2.687   5.286   2.568  1.0829  0.4646 -0.2674
  700MOL0     C92320   3.755   5.398   2.892  0.2831  0.7712  0.6821
  700MOL0     C92321   3.884   5.389   2.939  0.1277  0.2503  0.0981
  700MOL0     C92322   4.289   5.582   3.057  0.3727 -0.0250  0.4709
  700MOL0     C92323   4.385   5.555   2.954  0.4679  0.3438  0.3539
  700MOL0     C92324   4.501   5.616   2.947  0.7777  0.1749  0.2569
  700MOL0     C92325   4.524   5.716   3.033 -0.7136 -0.2898  0.1750
  700MOL0     O92326   4.648   5.783   3.033  0.0989  0.1329  0.1988
  700MOL0     C92327   4.700   5.806   2.899  0.8364 -0.2820 -0.3119
  700MOL0     C92328   4.829   5.882   2.917 -0.7199 -0.8431 -0.4824
  700MOL0     C92329   4.816   6.013   2.991  0.0613  0.3264 -1.0188
  700MOL0     C92330   4.938   6.091   2.953  0.2329  0.8681 -0.7986
  700MOL0     C92331   4.960   6.216   3.023  1.5674 -0.1138 -0.9364
  700MOL0     C92332   4.977   6.318   3.083  0.3619  0.4129 -0.0751
  700MOL0     C92333   4.428   5.758   3.133 -0.0579 -0.1231 -0.0264
  700MOL0     C92334   4.317   5.681   3.145 -0.3617  0.1745 -0.1349
  700MOL0     H92335   4.014   5.670   2.799  0.9262 -1.5937  0.1497
  700MOL0     H92336   3.772   5.697   2.727  1.7914  0.2431 -1.2276
  700MOL0     H92337   3.409   5.530   2.916  4.0776  1.9414  1.9004
  700MOL0     H92338   3.487   5.374   2.884 -3.2106 -0.6716 -0.5911
  700MOL0     H92339   3.340   5.350   2.778 -0.2532  0.0572  0.0205
  700MOL0     H92340   3.436   5.412   2.641  0.2771  0.0554 -0.4613
  700MOL0     H92341   3.311   5.652   2.702  0.1881  0.4438  3.0896
  700MOL0     H92342   3.202   5.557   2.792 -1.7499  0.1664 -0.9579
  700MOL0     H92343   3.270   5.510   2.500  1.3595  2.3031  0.4534
  700MOL0     H92344   3.132   5.442   2.586 -1.8299  1.2715 -2.3424
  700MOL0     H92345   3.056   5.596   2.427 -1.4269 -2.7209  1.3398
  700MOL0     H92346   3.146   5.733   2.499 -4.2114  1.6793  1.0751
  700MOL0     H92347   2.922   5.766   2.568 -2.6930  0.5671  3.2768
  700MOL0     H92348   3.028   5.740   2.694 -0.5249  2.2438  0.0652
  700MOL0     H92349   2.942   5.496   2.718  2.0161 -0.7789 -1.4285
  700MOL0     H92350   2.813   5.618   2.715  0.1316 -1.6099 -0.3329
  700MOL0     H92351   2.902   5.416   2.511 -1.1930 -1.6840  1.8516
  700MOL0     H92352   2.813   5.554   2.454  2.1448 -1.3194 -1.3388
  700MOL0     H92353   2.580   5.597   2.625  1.5600  1.3178 -1.4164
  700MOL0     H92354   2.373   5.509   2.738 -1.3778 -0.0712  0.1625
  700MOL0     H92355   2.349   5.332   2.757  1.9404 -0.7800 -0.6829
  700MOL0     H92356   2.296   5.314   2.519  0.1377 -1.6936  2.5586
  700MOL0     H92357   2.324   5.481   2.494 -1.2643  1.1161  1.4686
  700MOL0     H92358   2.095   5.340   2.615 -2.8562  0.9016 -0.7532
  700MOL0     H92359   2.134   5.497   2.695  3.4088  2.1290 -0.5717
  700MOL0     H92360   2.069   5.427   2.404  1.1110  0.9595 -0.9832
  700MOL0     H92361   2.116   5.590   2.459  0.3062  0.1147  1.1205
  700MOL0     H92362   1.919   5.548   2.252  0.5306  0.9706  1.6782
  700MOL0     H92363   1.712   5.586   2.117 -0.9896  1.8974  0.3200
  700MOL0     H92364   1.409   5.711   1.889  0.9718 -0.0575  2.6185
  700MOL0     H92365   1.189   5.720   1.747  0.5080 -0.8105 -0.3757
  700MOL0     H92366   0.909   5.364   1.799  0.7212  0.9204  2.0601
  700MOL0     H92367   0.815   5.489   1.704 -2.4879  0.3234  1.9838
  700MOL0     H92368   0.779   5.614   1.907  0.4556  0.2239  2.2628
  700MOL0     H92369   0.868   5.499   2.004 -2.3596  0.6983  1.6112
  700MOL0     H92370   0.734   5.315   1.964  0.6523  0.5292  1.5915
  700MOL0     H92371   0.616   5.398   1.856  0.7545 -1.5606 -0.0322
  700MOL0     H92372   0.665   5.496   2.144 -0.2055 -2.9032  1.7991
  700MOL0     H92373   0.522   5.502   2.026 -0.8633 -0.7190 -1.4609
  700MOL0     H92374   0.569   5.233   2.140 -1.9451 -0.3084 -2.3850
  700MOL0     H92375   0.445   5.322   2.048  0.0475  3.2702 -0.7659
  700MOL0     H92376   0.397   5.439   2.256 -1.7948 -2.6305  0.9103
  700MOL0     H92377   0.555   5.370   2.322  1.2673  1.5238 -0.7165
  700MOL0     H92378   0.350   5.169   2.224 -0.8909  0.6551 -0.0247
  700MOL0     H92379   0.445   5.163   2.377 -2.8178 -1.4098  1.7314
  700MOL0     H92380   0.217   5.217   2.449  0.3770  1.4874  1.8562
  700MOL0     H92381   0.192   5.336   2.319  1.4965  2.9319  0.1259
  700MOL0     H92382   1.053   5.363   1.944 -2.3662  2.4070  1.6307
  700MOL0     H92383   1.257   5.370   2.096 -2.7660 -1.8333 -0.9359
  700MOL0     H92384   1.486   5.547   2.488  0.0998  3.8397  1.5708
  700MOL0     H92385   1.691   5.493   2.606 -0.2544  0.4404 -0.0506
  700MOL0     H92386   3.689   5.314   2.911  1.9656 -1.1520 -1.3935
  700MOL0     H92387   3.917   5.308   3.003  1.2869  0.6209 -0.0094
  700MOL0     H92388   4.369   5.463   2.899 -1.8727  1.2276 -0.5927
  700MOL0     H92389   4.574   5.575   2.877  0.4201 -0.1600  0.0767
  700MOL0     H92390   4.629   5.864   2.839  1.8059  0.8619 -0.3997
  700MOL0     H92391   4.716   5.720   2.833  0.0836  0.4853 -1.5472
  700MOL0     H92392   4.903   5.815   2.962 -0.6564  1.3413  3.0771
  700MOL0     H92393   4.856   5.911   2.815  0.2385 -1.5121 -0.4352
  700MOL0     H92394   4.817   6.006   3.100  1.6495 -0.6982 -1.0730
  700MOL0     H92395   4.719   6.057   2.964 -1.0569 -0.8000  0.9310
  700MOL0     H92396   5.024   6.026   2.968 -0.0618  0.5438 -0.5105
  700MOL0     H92397   4.933   6.116   2.846 -1.3513 -1.1681 -1.2581
  700MOL0     H92398   5.014   6.408   3.127  0.4841  0.0230  0.6265
  700MOL0     H92399   4.444   5.837   3.205 -0.5795 -0.6620  0.7074
  700MOL0     H92400   4.246   5.706   3.223 -1.9036 -1.9227 -0.7627
  701MOL0     O92401   5.495   9.120   7.600  0.0332  0.6758  0.0066
  701MOL0     C92402   5.541   9.205   7.680 -0.0592  0.3352 -0.3026
  701MOL0     O92403   5.470   9.269   7.773  0.2180  0.0714  0.0508
  701MOL0     C92404   5.332   9.235   7.798 -0.5277 -0.4403  0.7318
  701MOL0     C92405   5.245   9.339   7.769 -0.2502  0.3193 -0.5553
  701MOL0     C92406   5.105   9.327   7.795 -0.1196 -0.7267  0.5002
  701MOL0     C92407   5.061   9.206   7.838  0.2631 -0.5397  0.3209
  701MOL0     O92408   4.935   9.177   7.893 -0.1323  0.4520 -0.3504
  701MOL0     C92409   4.836   9.275   7.895  0.3499  0.7014 -0.2792
  701MOL0     C92410   4.729   9.227   7.999 -0.4129 -0.1692  0.0566
  701MOL0     C92411   4.601   9.294   7.975  0.4313  0.1722 -0.6033
  701MOL0     C92412   4.490   9.288   8.082  1.0756  0.7108  0.1368
  701MOL0     C92413   4.366   9.368   8.025 -1.0559 -0.0028  0.3476
  701MOL0     C92414   4.266   9.386   8.141  0.8414 -1.1309 -0.2918
  701MOL0     C92415   4.137   9.459   8.094  0.6709 -0.4812  1.2508
  701MOL0     C92416   4.039   9.470   8.205 -0.7898 -0.1904  0.1015
  701MOL0     N92417   3.902   9.506   8.169  0.4940  0.4865 -1.1246
  701MOL0     C92418   3.813   9.411   8.115  1.4288 -0.0365 -0.0450
  701MOL0     C92419   3.694   9.484   8.112 -0.4461  0.7030  0.0185
  701MOL0     C92420   3.568   9.416   8.064 -0.8778  0.2845  0.2599
  701MOL0     C92421   3.449   9.502   8.107 -1.0730  0.5322 -0.7992
  701MOL0     C92422   3.320   9.423   8.106 -0.0602 -0.0719  0.4436
  701MOL0     C92423   3.210   9.484   8.187 -0.8878  0.1614  0.1650
  701MOL0     O92424   3.108   9.389   8.191  0.6572 -0.4566 -0.1518
  701MOL0     C92425   2.982   9.435   8.228 -0.4932 -0.3593 -0.2038
  701MOL0     C92426   2.947   9.566   8.265  0.0546  0.4356  0.3230
  701MOL0     C92427   2.811   9.600   8.285 -0.6365 -0.0287 -0.4098
  701MOL0     C92428   2.711   9.503   8.274 -0.7901 -0.4254  0.1309
  701MOL0     C92429   2.566   9.551   8.301 -0.2303  0.2327 -0.3626
  701MOL0     O92430   2.472   9.452   8.304 -0.2916  0.3122 -0.3801
  701MOL0     C92431   2.337   9.479   8.307  1.0341 -0.5547 -0.9121
  701MOL0     C92432   2.273   9.577   8.383 -0.6610  0.5210 -0.5313
  701MOL0     C92433   2.137   9.593   8.372 -0.4741 -0.5523 -0.2441
  701MOL0     C92434   2.060   9.524   8.281  0.5471  0.2445  0.4378
  701MOL0     O92435   1.921   9.534   8.263 -0.0273 -0.4044 -0.3394
  701MOL0     C92436   1.880   9.629   8.163 -0.4780  0.3601  0.1351
  701MOL0     C92437   1.754   9.712   8.195 -0.2639 -0.2118  0.5446
  701MOL0     C92438   1.772   9.819   8.300  1.3075 -0.5200  0.8180
  701MOL0     C92439   1.674   9.928   8.273  0.7678 -0.1901  0.1160
  701MOL0     C92440   1.682  10.063   8.361 -0.4444  0.5100 -0.2300
  701MOL0     C92441   1.701  10.034   8.508 -0.3272 -0.1052 -0.2397
  701MOL0     C92442   1.586   9.964   8.580  0.4581  0.9285 -0.0156
  701MOL0     C92443   1.635   9.916   8.718  0.0586  0.1357  0.5242
  701MOL0    Cl92444   1.650  10.059   8.822  0.0111 -0.0529  0.5797
  701MOL0     C92445   2.123   9.426   8.207 -0.4431 -0.4556 -0.4344
  701MOL0     C92446   2.265   9.404   8.214  0.3755 -1.6449  0.4192
  701MOL0     O92447   2.544   9.677   8.296 -0.0555  0.9083  0.2075
  701MOL0     C92448   2.747   9.380   8.244  0.4206  0.3690  0.1112
  701MOL0     C92449   2.879   9.346   8.210  0.2339  0.1583 -0.4168
  701MOL0     N92450   3.711   9.617   8.168 -1.0626 -0.2281  0.2818
  701MOL0     N92451   3.839   9.625   8.204  0.3065 -0.2353  0.1549
  701MOL0     C92452   5.144   9.097   7.839 -0.4061  1.0324 -0.1282
  701MOL0     C92453   5.278   9.111   7.826  0.1886 -0.1086 -0.4587
  701MOL0     C92454   5.686   9.238   7.679 -0.6457 -0.5168 -0.1554
  701MOL0     C92455   5.787   9.151   7.631  0.5728 -1.0716  0.3703
  701MOL0     C92456   5.917   9.186   7.651  0.3690 -0.1186  0.5420
  701MOL0     C92457   5.958   9.311   7.705  0.2056 -0.0939  0.4636
  701MOL0     O92458   6.085   9.353   7.722 -0.4998  0.4564 -0.1556
  701MOL0     C92459   6.178   9.266   7.673  0.1442  0.5305 -0.0384
  701MOL0     C92460   6.314   9.324   7.709  0.2800  0.0130  0.2611
  701MOL0     C92461   6.339   9.286   7.855 -0.0344 -0.4141 -0.9222
  701MOL0     C92462   6.351   9.422   7.931  1.6679  0.0653  0.2740
  701MOL0     C92463   6.417   9.395   8.066 -0.2654 -0.3614 -0.1879
  701MOL0     C92464   6.471   9.363   8.167 -0.2938 -0.3945  0.0234
  701MOL0     C92465   5.857   9.394   7.747  0.1473  0.1704 -0.3499
  701MOL0     C92466   5.725   9.361   7.738 -0.6812  0.8062  0.6687
  701MOL0     H92467   5.292   9.435   7.755 -0.3414  0.7727  1.8454
  701MOL0     H92468   5.048   9.419   7.780  2.4803  0.8519 -0.4778
  701MOL0     H92469   4.787   9.290   7.798  1.8291  2.0134 -0.8726
  701MOL0     H92470   4.881   9.368   7.930  3.2423 -0.5579 -0.3281
  701MOL0     H92471   4.753   9.247   8.104 -1.6415  2.7908 -0.1075
  701MOL0     H92472   4.704   9.121   7.993 -1.1430  0.0186 -0.3100
  701MOL0     H92473   4.561   9.255   7.881  2.4960  1.1409 -1.9575
  701MOL0     H92474   4.619   9.402   7.966  0.7257  0.3072  1.2242
  701MOL0     H92475   4.465   9.186   8.112  2.3911 -0.1172 -1.3833
  701MOL0     H92476   4.531   9.336   8.171  0.9287 -0.1330  0.6669
  701MOL0     H92477   4.324   9.316   7.938  0.8230 -1.5863  0.2954
  701MOL0     H92478   4.398   9.465   7.987 -0.0538 -1.0155 -1.6145
  701MOL0     H92479   4.312   9.459   8.208 -1.2430 -0.6538  0.7128
  701MOL0     H92480   4.235   9.290   8.185 -2.3965 -0.6989 -1.3465
  701MOL0     H92481   4.157   9.564   8.071 -2.1679  0.1436  1.3005
  701MOL0     H92482   4.086   9.415   8.008  0.3338 -2.0359  2.2031
  701MOL0     H92483   4.078   9.538   8.281 -2.0381 -0.7001  1.2257
  701MOL0     H92484   4.031   9.374   8.257  3.1373 -1.0376 -0.6002
  701MOL0     H92485   3.825   9.304   8.101  0.1927  0.0428 -2.0714
  701MOL0     H92486   3.569   9.314   8.105 -0.4637  1.3813  3.2646
  701MOL0     H92487   3.563   9.407   7.955  0.3496 -4.2764  0.3458
  701MOL0     H92488   3.434   9.592   8.047  1.1178  1.8486  0.4771
  701MOL0     H92489   3.467   9.543   8.207 -0.3926  1.2891 -1.2170
  701MOL0     H92490   3.270   9.425   8.008  2.2281 -0.4585 -0.7961
  701MOL0     H92491   3.343   9.319   8.132  1.4301 -0.3514 -1.7609
  701MOL0     H92492   3.182   9.576   8.134 -1.7661  0.1423  0.5826
  701MOL0     H92493   3.247   9.519   8.284  0.2428  2.5941 -1.0329
  701MOL0     H92494   3.026   9.639   8.282  0.4570 -0.3304  1.9383
  701MOL0     H92495   2.789   9.703   8.308  1.8658  0.2710  0.9549
  701MOL0     H92496   2.350   9.627   8.442 -0.5961 -0.8117  0.5822
  701MOL0     H92497   2.077   9.661   8.432 -0.3293 -2.0587  1.6933
  701MOL0     H92498   1.873   9.579   8.066  2.0148  0.1336  0.0091
  701MOL0     H92499   1.949   9.713   8.154 -0.9994  0.9657  1.5167
  701MOL0     H92500   1.673   9.646   8.226 -0.0361  0.4928  2.7919
  701MOL0     H92501   1.734   9.758   8.097 -0.1702  1.0135  1.0907
  701MOL0     H92502   1.875   9.855   8.299  0.8038  0.9646  0.4213
  701MOL0     H92503   1.753   9.780   8.401 -1.4720  0.6652  0.8495
  701MOL0     H92504   1.681   9.968   8.172 -0.5851  1.6353  0.6898
  701MOL0     H92505   1.573   9.891   8.291  0.3199  1.1280  0.4334
  701MOL0     H92506   1.595  10.129   8.357 -1.2847 -0.4702  0.8303
  701MOL0     H92507   1.765  10.125   8.327 -0.0128  0.2060  0.2550
  701MOL0     H92508   1.729  10.132   8.550 -0.4848  0.1553 -0.7380
  701MOL0     H92509   1.794   9.977   8.523  0.9757  0.2213 -5.1636
  701MOL0     H92510   1.504  10.033   8.598  0.6320  1.1811 -0.1938
  701MOL0     H92511   1.536   9.886   8.522  0.0910  1.2760 -0.1720
  701MOL0     H92512   1.720   9.848   8.712  1.5675  2.0667 -2.8638
  701MOL0     H92513   1.566   9.848   8.769 -0.0085  0.5051  0.9324
  701MOL0     H92514   2.066   9.369   8.135  0.2405 -2.1205  0.2926
  701MOL0     H92515   2.309   9.326   8.153 -1.2150 -0.7593 -1.9893
  701MOL0     H92516   2.666   9.308   8.232  0.0775  0.7160  0.2979
  701MOL0     H92517   2.907   9.243   8.188 -3.9348 -1.4536  0.9238
  701MOL0     H92518   5.103   8.999   7.859  0.7192  0.8530  1.4761
  701MOL0     H92519   5.344   9.026   7.841 -1.5993 -1.1384  2.1772
  701MOL0     H92520   5.749   9.057   7.591  0.8682 -0.8115 -0.5294
  701MOL0     H92521   5.989   9.114   7.614  0.0475  0.1521 -0.6470
  701MOL0     H92522   6.181   9.256   7.565  1.0358  1.7061 -0.1459
  701MOL0     H92523   6.167   9.163   7.707 -2.9575 -0.3041 -3.0519
  701MOL0     H92524   6.393   9.275   7.651  1.9881 -0.2982  2.6791
  701MOL0     H92525   6.317   9.429   7.680  1.1317  0.0685  0.5290
  701MOL0     H92526   6.432   9.230   7.871 -0.1048  0.1388  1.9695
  701MOL0     H92527   6.258   9.235   7.908  0.0969  1.7284  1.5662
  701MOL0     H92528   6.400   9.502   7.876  2.7853  0.5970  1.9608
  701MOL0     H92529   6.253   9.466   7.952  1.7710 -0.5015  2.1284
  701MOL0     H92530   6.506   9.338   8.265  1.0804 -1.7726 -0.7846
  701MOL0     H92531   5.883   9.490   7.790 -1.9858  0.5928  0.0897
  701MOL0     H92532   5.651   9.412   7.798 -2.2347 -1.2902  0.6674
  702MOL0     O92533   8.028   9.401   4.391 -0.3932 -0.7883 -0.3620
  702MOL0     C92534   8.071   9.518   4.388  0.1345  0.7662  0.1972
  702MOL0     O92535   8.076   9.601   4.487  0.4238 -0.0288 -0.2660
  702MOL0     C92536   8.007   9.585   4.605  0.0089  0.6974  0.7718
  702MOL0     C92537   7.883   9.648   4.627 -0.5109 -0.1850 -0.4990
  702MOL0     C92538   7.824   9.631   4.753  0.0426 -0.2400  0.2664
  702MOL0     C92539   7.883   9.551   4.848  0.4239 -0.4389  0.3977
  702MOL0     O92540   7.825   9.545   4.975 -0.8779 -0.5672  0.2854
  702MOL0     C92541   7.802   9.414   5.033 -0.4511 -0.3907  0.1153
  702MOL0     C92542   7.718   9.416   5.151 -0.0284 -0.1358  0.3370
  702MOL0     C92543   7.602   9.523   5.152  0.6459 -0.0467 -0.3041
  702MOL0     C92544   7.498   9.523   5.037  0.2848  0.4474 -1.2016
  702MOL0     C92545   7.379   9.612   5.069  0.2209 -0.1517 -0.3403
  702MOL0     C92546   7.408   9.754   5.103  0.8816 -0.0325  0.2686
  702MOL0     C92547   7.486   9.817   4.987 -0.5634  0.0959 -0.3001
  702MOL0     C92548   7.523   9.963   5.017 -1.2708  0.2675  0.5904
  702MOL0     N92549   7.595  10.004   4.894  0.4346 -0.2732 -0.4241
  702MOL0     C92550   7.731   9.990   4.875 -0.2107 -0.7805  0.4742
  702MOL0     C92551   7.746  10.063   4.760 -0.2432 -0.0554  0.0488
  702MOL0     C92552   7.868  10.115   4.687 -0.0655  0.7046 -0.4385
  702MOL0     C92553   7.982  10.112   4.795  0.0217  0.2893  0.1538
  702MOL0     C92554   8.040   9.964   4.817  0.0481 -0.6522 -0.9993
  702MOL0     C92555   8.137   9.957   4.929  0.2659  0.3256 -1.0027
  702MOL0     O92556   8.098  10.020   5.048  0.1640  0.0624 -0.3119
  702MOL0     C92557   7.997   9.975   5.132 -0.5821 -0.2642 -0.0285
  702MOL0     C92558   7.960   9.841   5.159 -0.5701  0.0760  0.4282
  702MOL0     C92559   7.859   9.819   5.258  0.0097 -0.1772 -0.4652
  702MOL0     C92560   7.803   9.926   5.327  0.1030  0.6853  0.3968
  702MOL0     C92561   7.696   9.903   5.427  0.3635  0.0275 -0.6939
  702MOL0     O92562   7.683   9.769   5.469  0.2076 -0.4584 -0.7621
  702MOL0     C92563   7.578   9.726   5.547  0.1006  0.5200 -0.6864
  702MOL0     C92564   7.611   9.627   5.640  0.7219 -0.0339 -0.3821
  702MOL0     C92565   7.513   9.566   5.713  0.1520 -0.5198 -0.1359
  702MOL0     C92566   7.382   9.613   5.709  0.2590 -0.6871  0.0344
  702MOL0     O92567   7.281   9.561   5.789 -0.8777  0.2030  0.4216
  702MOL0     C92568   7.265   9.421   5.771 -0.8115 -0.5103  0.2282
  702MOL0     C92569   7.126   9.386   5.822  0.4041 -0.2112 -0.5070
  702MOL0     C92570   7.009   9.380   5.714 -0.1108  0.0006 -0.2429
  702MOL0     C92571   6.980   9.512   5.629 -0.4865  0.4996 -0.1163
  702MOL0     C92572   6.944   9.633   5.718  0.1736  0.2350  0.1684
  702MOL0     C92573   6.941   9.765   5.637 -0.6189 -0.1631  0.2725
  702MOL0     C92574   6.804   9.799   5.572 -0.2745 -0.1336  0.3319
  702MOL0     C92575   6.788   9.942   5.525 -0.0286 -0.3552 -0.4055
  702MOL0    Cl92576   6.924   9.995   5.422  0.0309  0.0043 -0.1100
  702MOL0     C92577   7.352   9.719   5.614  0.2854  1.2952  0.4530
  702MOL0     C92578   7.448   9.765   5.527  0.5286  0.1134  0.3940
  702MOL0     O92579   7.621   9.997   5.470 -0.1861  0.7008  0.0442
  702MOL0     C92580   7.844  10.058   5.296  1.1952  0.1279 -0.2294
  702MOL0     C92581   7.945  10.080   5.212  0.8167  0.2714  0.7022
  702MOL0     N92582   7.620  10.109   4.722 -0.3890  0.7537 -0.5098
  702MOL0     N92583   7.527  10.070   4.801  0.0168  0.0972 -0.4661
  702MOL0     C92584   8.005   9.485   4.820 -0.3431 -0.5485  0.1544
  702MOL0     C92585   8.067   9.499   4.699  0.9111  0.7400  0.1948
  702MOL0     C92586   8.147   9.552   4.269 -0.7889 -0.1207  0.0422
  702MOL0     C92587   8.183   9.462   4.170 -0.8330 -0.3358 -0.4220
  702MOL0     C92588   8.246   9.505   4.053 -0.1000 -1.3121 -0.6617
  702MOL0     C92589   8.281   9.648   4.047  0.7626 -0.3395 -0.9382
  702MOL0     O92590   8.340   9.697   3.933  0.1967  0.0905 -0.7209
  702MOL0     C92591   8.480   9.729   3.948 -0.5006  0.1461 -0.2663
  702MOL0     C92592   8.502   9.872   3.925  0.2655 -0.4942  0.0372
  702MOL0     C92593   8.447   9.909   3.791  0.2538  0.6463  0.1712
  702MOL0     C92594   8.386  10.044   3.769  0.0761  0.2304  0.7158
  702MOL0     C92595   8.260  10.059   3.855 -0.3310 -0.6882 -0.5629
  702MOL0     C92596   8.146  10.080   3.902 -0.0461 -1.2270 -0.1132
  702MOL0     C92597   8.246   9.737   4.147 -0.2764  0.8894  0.0492
  702MOL0     C92598   8.179   9.692   4.256  0.4015 -0.9860  0.3261
  702MOL0     H92599   7.842   9.715   4.552  1.0656  0.8430 -0.4920
  702MOL0     H92600   7.734   9.688   4.774 -0.1146  0.2815 -1.6330
  702MOL0     H92601   7.895   9.367   5.063  0.3548  0.2402 -1.2856
  702MOL0     H92602   7.759   9.342   4.962  0.7698 -1.6381  0.6191
  702MOL0     H92603   7.779   9.438   5.239  1.2553 -2.6597  0.1488
  702MOL0     H92604   7.683   9.314   5.167 -0.1846 -0.0126  0.7966
  702MOL0     H92605   7.660   9.616   5.146  1.5253 -0.5675  0.0687
  702MOL0     H92606   7.550   9.518   5.248 -2.3106  0.6885 -1.7575
  702MOL0     H92607   7.555   9.553   4.949  2.4202  2.7664  0.7857
  702MOL0     H92608   7.467   9.419   5.019  1.0631  0.3066 -1.7833
  702MOL0     H92609   7.315   9.572   5.148  0.2373 -0.4123 -0.4595
  702MOL0     H92610   7.311   9.609   4.983  0.4750  0.7017 -0.5819
  702MOL0     H92611   7.461   9.754   5.198 -1.0011 -0.7985  1.3854
  702MOL0     H92612   7.312   9.806   5.110  1.0252  0.2034  0.5324
  702MOL0     H92613   7.577   9.760   4.966 -0.2469  1.0679 -1.7628
  702MOL0     H92614   7.424   9.808   4.897  1.2773 -1.4976 -1.4969
  702MOL0     H92615   7.589   9.985   5.100  1.3813  0.9581 -1.5533
  702MOL0     H92616   7.434  10.026   5.032 -1.5626  1.2251 -3.7339
  702MOL0     H92617   7.811   9.948   4.935  1.4346  0.8558 -0.4516
  702MOL0     H92618   7.850  10.212   4.639 -2.8574  0.0390 -0.8979
  702MOL0     H92619   7.893  10.041   4.610  2.6757  1.4240 -0.3535
  702MOL0     H92620   7.950  10.154   4.891  1.6309 -0.9312  1.2691
  702MOL0     H92621   8.064  10.170   4.751 -0.3827  0.8680  0.1503
  702MOL0     H92622   7.963   9.889   4.835 -2.7539  1.9939 -1.0441
  702MOL0     H92623   8.090   9.926   4.727 -0.5710 -3.7352 -0.1426
  702MOL0     H92624   8.232  10.007   4.906  1.2377 -0.9039  0.1336
  702MOL0     H92625   8.154   9.849   4.937 -0.0993  0.1056 -2.8656
  702MOL0     H92626   8.011   9.759   5.108 -0.6465 -0.9583  1.9390
  702MOL0     H92627   7.835   9.716   5.281 -0.9146  0.1460  0.0787
  702MOL0     H92628   7.716   9.603   5.652  0.8252  0.1996 -0.7807
  702MOL0     H92629   7.534   9.474   5.766  4.1722  0.0840 -0.3651
  702MOL0     H92630   7.343   9.373   5.830  0.4111 -0.0404 -0.9592
  702MOL0     H92631   7.271   9.396   5.665  1.1413 -0.0917  0.2026
  702MOL0     H92632   7.102   9.458   5.901  3.8342 -0.2772  0.7623
  702MOL0     H92633   7.127   9.284   5.862  0.8482  0.4154  1.1684
  702MOL0     H92634   6.916   9.355   5.764 -1.0627  0.8334 -1.5311
  702MOL0     H92635   7.035   9.298   5.646  4.2157 -1.4324  2.7058
  702MOL0     H92636   7.065   9.535   5.564  2.3423  1.4439  3.5727
  702MOL0     H92637   6.892   9.500   5.566 -1.0040 -0.1180  0.7126
  702MOL0     H92638   7.022   9.649   5.793  2.2408 -0.9437 -1.6296
  702MOL0     H92639   6.846   9.617   5.764 -0.0266  0.2979 -0.2321
  702MOL0     H92640   7.016   9.764   5.558 -2.5767  0.0061 -1.6630
  702MOL0     H92641   6.963   9.845   5.708  2.2254  2.0150 -2.8083
  702MOL0     H92642   6.781   9.736   5.486 -0.2889 -0.6008  0.6776
  702MOL0     H92643   6.722   9.779   5.641 -0.6996  0.9032  0.1431
  702MOL0     H92644   6.779  10.011   5.610 -1.4126 -0.3005 -0.5711
  702MOL0     H92645   6.693   9.946   5.471 -0.5581 -0.8794  0.4618
  702MOL0     H92646   7.251   9.757   5.608 -0.8416 -1.6161 -2.9853
  702MOL0     H92647   7.436   9.834   5.444 -0.0693  0.7203  0.9735
  702MOL0     H92648   7.795  10.146   5.338  0.3418 -0.2052 -0.5048
  702MOL0     H92649   7.966  10.185   5.193 -2.6458  0.7048 -1.5643
  702MOL0     H92650   8.049   9.420   4.895 -1.0835  1.4758  2.4761
  702MOL0     H92651   8.158   9.447   4.669  0.0949 -2.4631  2.7071
  702MOL0     H92652   8.148   9.361   4.192 -0.4814  0.0498  2.3060
  702MOL0     H92653   8.276   9.444   3.969  5.0685  0.1504 -0.2398
  702MOL0     H92654   8.528   9.666   3.873 -1.1924 -0.5896 -0.1014
  702MOL0     H92655   8.518   9.710   4.049 -3.4510  1.6996  1.2754
  702MOL0     H92656   8.451   9.928   4.005  0.3772 -2.1133  1.2812
  702MOL0     H92657   8.607   9.901   3.939 -0.0556 -0.0773  1.9202
  702MOL0     H92658   8.369   9.837   3.766  0.1830  0.8068 -0.0777
  702MOL0     H92659   8.532   9.902   3.722 -0.7601  1.4429 -1.2151
  702MOL0     H92660   8.462  10.123   3.775  0.5862 -0.2002  0.1423
  702MOL0     H92661   8.353  10.043   3.665 -0.2442  2.1392  0.7659
  702MOL0     H92662   8.043  10.091   3.930 -0.0408 -2.3563  0.4468
  702MOL0     H92663   8.282   9.837   4.126 -1.0931  0.9457 -1.1746
  702MOL0     H92664   8.141   9.766   4.325  1.2712 -1.3408  1.2122
  703MOL0     O92665   5.312   8.360   8.262 -0.4573 -0.4944  0.1684
  703MOL0     C92666   5.371   8.363   8.374 -0.4668 -0.6053  0.3429
  703MOL0     O92667   5.311   8.358   8.491 -0.2230  0.6700 -0.1929
  703MOL0     C92668   5.174   8.358   8.508 -0.3645 -0.3200 -0.1380
  703MOL0     C92669   5.113   8.256   8.586 -0.0706  0.3611 -0.2432
  703MOL0     C92670   4.976   8.263   8.619  0.1468  0.3064  0.6893
  703MOL0     C92671   4.903   8.375   8.587  0.9942 -0.1124 -0.1374
  703MOL0     O92672   4.766   8.397   8.627 -0.2851  0.5895 -0.1752
  703MOL0     C92673   4.687   8.283   8.625 -0.2425  0.7253 -1.3838
  703MOL0     C92674   4.545   8.333   8.587 -0.4534  0.2078 -0.1603
  703MOL0     C92675   4.456   8.232   8.510  0.2052  0.3439 -0.6138
  703MOL0     C92676   4.307   8.256   8.513  0.1788 -0.2293 -0.2148
  703MOL0     C92677   4.236   8.152   8.422 -0.6229  0.4043 -0.0781
  703MOL0     C92678   4.081   8.168   8.429  0.1979 -0.4734 -0.5712
  703MOL0     C92679   4.018   8.050   8.357  0.2886 -0.3807  0.0649
  703MOL0     C92680   3.998   8.076   8.210 -0.3606 -0.6336 -0.2892
  703MOL0     N92681   3.895   8.171   8.163  0.4707 -0.2244 -0.3158
  703MOL0     C92682   3.762   8.177   8.189 -1.0563 -0.4792  0.5005
  703MOL0     C92683   3.709   8.280   8.127  0.8970  0.4311 -0.5044
  703MOL0     C92684   3.566   8.322   8.136  0.9530 -0.2025  0.4311
  703MOL0     C92685   3.553   8.415   8.253 -0.1534 -0.3414 -0.2961
  703MOL0     C92686   3.423   8.497   8.255  0.1607 -0.1992 -0.0174
  703MOL0     C92687   3.388   8.597   8.139 -1.4960 -0.6442 -0.3916
  703MOL0     O92688   3.291   8.537   8.053 -0.3186  0.6752 -0.4447
  703MOL0     C92689   3.164   8.526   8.087 -0.2769  0.0690  0.3334
  703MOL0     C92690   3.101   8.592   8.195  0.1190  0.6348 -1.4677
  703MOL0     C92691   2.966   8.582   8.226  1.3165 -0.1731  0.2099
  703MOL0     C92692   2.875   8.519   8.137 -0.7915 -0.3577 -0.1165
  703MOL0     C92693   2.732   8.505   8.166 -1.0170  0.2254  0.0173
  703MOL0     O92694   2.695   8.503   8.298 -0.3277 -0.3044  0.4519
  703MOL0     C92695   2.562   8.516   8.316  0.3971 -0.7855 -0.0671
  703MOL0     C92696   2.482   8.414   8.371 -0.2376 -0.6020 -0.5269
  703MOL0     C92697   2.345   8.439   8.403  0.2551 -0.3363  0.4717
  703MOL0     C92698   2.289   8.572   8.394 -0.9126  0.6854 -0.3367
  703MOL0     O92699   2.158   8.602   8.428 -0.4313 -0.2871  0.0378
  703MOL0     C92700   2.052   8.523   8.356  0.1165 -0.4902  0.4530
  703MOL0     C92701   1.912   8.566   8.366  0.4418  0.0816  0.2431
  703MOL0     C92702   1.861   8.536   8.503 -0.5998 -0.7626  0.1437
  703MOL0     C92703   1.725   8.601   8.539 -0.2947 -0.8710 -0.1027
  703MOL0     C92704   1.728   8.754   8.530  0.1909  0.5384 -0.4590
  703MOL0     C92705   1.639   8.824   8.639  0.2381 -0.1862 -0.3677
  703MOL0     C92706   1.492   8.776   8.614 -0.4690 -0.4002  0.2336
  703MOL0     C92707   1.396   8.844   8.710 -0.3364 -0.3924 -0.2893
  703MOL0    Cl92708   1.370   9.019   8.684 -0.2630 -0.4123  0.0251
  703MOL0     C92709   2.373   8.678   8.351  0.1017 -1.2006  0.0028
  703MOL0     C92710   2.507   8.643   8.310  0.1030 -0.7917 -0.3554
  703MOL0     O92711   2.660   8.486   8.070 -0.7749 -0.6817  0.0948
  703MOL0     C92712   2.933   8.464   8.022 -0.4093  0.3980  0.3854
  703MOL0     C92713   3.075   8.474   8.000 -0.4405  0.3500  0.3286
  703MOL0     N92714   3.806   8.351   8.066  0.4040  0.5515 -0.0258
  703MOL0     N92715   3.919   8.281   8.080  0.6436  0.6100  0.3458
  703MOL0     C92716   4.961   8.483   8.511  0.4079  0.2563 -0.5139
  703MOL0     C92717   5.093   8.464   8.463 -0.0122  0.3187  0.1811
  703MOL0     C92718   5.518   8.338   8.367  0.6349 -0.2242  1.4216
  703MOL0     C92719   5.589   8.322   8.483  0.9106  0.5800  0.2458
  703MOL0     C92720   5.729   8.295   8.478 -0.0172  0.3832  0.1303
  703MOL0     C92721   5.797   8.296   8.363 -0.0676 -0.6977 -0.0506
  703MOL0     O92722   5.936   8.280   8.367  0.7485  0.2975 -0.1625
  703MOL0     C92723   6.018   8.274   8.245 -0.2629  0.0284 -0.4009
  703MOL0     C92724   6.155   8.217   8.285  0.2215 -0.3280 -0.2314
  703MOL0     C92725   6.228   8.307   8.379 -0.9238  0.6143  1.2343
  703MOL0     C92726   6.227   8.263   8.523  0.1682  0.7583  0.5039
  703MOL0     C92727   6.303   8.354   8.599 -0.4251 -0.1668  0.0234
  703MOL0     C92728   6.387   8.430   8.659 -0.0575 -0.5640  0.5238
  703MOL0     C92729   5.731   8.336   8.244  0.9397 -0.9516  0.1138
  703MOL0     C92730   5.591   8.354   8.242 -0.0640 -0.1993  0.6466
  703MOL0     H92731   5.169   8.166   8.610 -1.1632 -0.3037 -0.0787
  703MOL0     H92732   4.924   8.185   8.675 -1.7913  0.7371 -0.4188
  703MOL0     H92733   4.681   8.232   8.722 -0.3835  2.2190 -0.5922
  703MOL0     H92734   4.719   8.209   8.550  1.8982  0.3189 -0.1655
  703MOL0     H92735   4.552   8.424   8.526  2.6447  0.4638  0.4104
  703MOL0     H92736   4.503   8.361   8.684 -2.2935 -0.6055 -0.6854
  703MOL0     H92737   4.475   8.129   8.541 -0.2516  0.7504  1.1253
  703MOL0     H92738   4.485   8.229   8.404 -2.5748 -0.5319 -1.4219
  703MOL0     H92739   4.263   8.263   8.613 -0.1865  2.0590 -0.4929
  703MOL0     H92740   4.296   8.358   8.476  0.2203 -0.9981 -2.4965
  703MOL0     H92741   4.260   8.053   8.462 -0.4011  1.3710  2.3898
  703MOL0     H92742   4.278   8.159   8.321 -1.3985  1.0272 -0.3730
  703MOL0     H92743   4.044   8.261   8.385 -1.3484 -0.1084  1.3450
  703MOL0     H92744   4.062   8.165   8.537 -1.1136 -1.2100 -0.7934
  703MOL0     H92745   4.071   7.955   8.371 -1.2115 -1.4002 -0.9558
  703MOL0     H92746   3.919   8.033   8.401 -0.1608 -1.1079 -1.1775
  703MOL0     H92747   3.975   7.978   8.166 -2.8520 -0.6811  0.9607
  703MOL0     H92748   4.095   8.118   8.180 -1.4558  0.1949 -2.8825
  703MOL0     H92749   3.707   8.117   8.261 -1.1885 -1.1675 -0.1540
  703MOL0     H92750   3.493   8.244   8.161  1.9557 -0.3998  2.9926
  703MOL0     H92751   3.539   8.368   8.040  1.9076 -0.5039  0.0047
  703MOL0     H92752   3.648   8.468   8.259  2.1206 -3.7178 -2.6506
  703MOL0     H92753   3.544   8.351   8.341  0.0822 -0.5893 -0.4519
  703MOL0     H92754   3.335   8.439   8.284  0.5027  0.4023  2.3751
  703MOL0     H92755   3.430   8.565   8.340  3.7568  1.7679 -1.6527
  703MOL0     H92756   3.478   8.630   8.085 -1.3398  2.8665  1.7286
  703MOL0     H92757   3.342   8.689   8.176 -1.6369 -0.6842 -0.4655
  703MOL0     H92758   3.165   8.655   8.255  0.3142 -1.7722  1.0794
  703MOL0     H92759   2.942   8.612   8.328  0.2901 -0.8143  0.1715
  703MOL0     H92760   2.521   8.313   8.382 -1.7140 -1.2330 -0.8050
  703MOL0     H92761   2.296   8.350   8.441 -1.3172  0.4329  0.3198
  703MOL0     H92762   2.067   8.422   8.395 -1.2714 -1.0022 -0.2809
  703MOL0     H92763   2.086   8.534   8.252  2.4751  3.5599  1.4248
  703MOL0     H92764   1.841   8.524   8.294 -0.3529  0.2351  0.9173
  703MOL0     H92765   1.907   8.674   8.353  0.7253  0.3721  2.3016
  703MOL0     H92766   1.935   8.570   8.576 -1.0005  1.0789 -0.2598
  703MOL0     H92767   1.854   8.427   8.499 -0.8791 -0.7323 -2.9029
  703MOL0     H92768   1.647   8.571   8.468 -0.1736 -0.0786 -0.5767
  703MOL0     H92769   1.696   8.581   8.642  0.3239 -0.2367  0.2054
  703MOL0     H92770   1.703   8.782   8.428  2.1343  3.8131 -0.1704
  703MOL0     H92771   1.834   8.779   8.540  0.0377  2.1318 -2.3094
  703MOL0     H92772   1.629   8.932   8.627 -1.5862 -0.3187 -0.3318
  703MOL0     H92773   1.677   8.795   8.737  2.2123 -2.9429 -1.8197
  703MOL0     H92774   1.469   8.806   8.511 -0.4155  1.4257  0.7177
  703MOL0     H92775   1.474   8.670   8.631 -0.5534 -0.5965 -1.0046
  703MOL0     H92776   1.445   8.825   8.805 -1.4538  0.3432  0.4526
  703MOL0     H92777   1.297   8.798   8.715 -1.2330  1.4553 -0.1196
  703MOL0     H92778   2.334   8.779   8.351 -0.8493 -1.5522 -0.7110
  703MOL0     H92779   2.578   8.719   8.279 -1.0043  0.2053 -0.5221
  703MOL0     H92780   2.860   8.425   7.951  0.1245 -1.1557  0.6607
  703MOL0     H92781   3.109   8.417   7.914  0.3296  1.1256  0.1044
  703MOL0     H92782   4.888   8.562   8.494 -0.6231 -0.3205  0.9876
  703MOL0     H92783   5.130   8.522   8.379  3.6639 -1.3396  0.4777
  703MOL0     H92784   5.529   8.308   8.573  1.6303  2.8905  1.1809
  703MOL0     H92785   5.784   8.254   8.562  3.8577  1.1073 -1.8697
  703MOL0     H92786   6.017   8.375   8.201 -0.0261  1.5552  2.8282
  703MOL0     H92787   5.983   8.198   8.175  2.2087 -1.6163 -0.0137
  703MOL0     H92788   6.140   8.123   8.338  0.3339 -0.3838 -0.2978
  703MOL0     H92789   6.218   8.199   8.196 -0.8674 -2.7216 -0.5892
  703MOL0     H92790   6.184   8.407   8.367  0.0651  0.6939 -3.1416
  703MOL0     H92791   6.335   8.310   8.358 -1.0326  0.7168  0.6715
  703MOL0     H92792   6.124   8.252   8.557 -0.1141  0.3768 -0.4576
  703MOL0     H92793   6.273   8.165   8.538 -0.9777  0.1303 -0.0338
  703MOL0     H92794   6.460   8.495   8.703 -1.2340  2.2821 -1.4434
  703MOL0     H92795   5.790   8.349   8.155 -0.6889  0.6875 -0.7904
  703MOL0     H92796   5.533   8.378   8.154  0.7503  3.2393  0.9288
  704MOL0     O92797   3.875   2.231   5.072  0.5637  0.6023  0.5624
  704MOL0     C92798   3.853   2.349   5.095 -0.3823 -1.2876 -0.0006
  704MOL0     O92799   3.737   2.415   5.083  0.2565  0.2254 -0.2783
  704MOL0     C92800   3.621   2.345   5.041 -0.8627  0.0374 -0.2651
  704MOL0     C92801   3.508   2.359   5.125 -0.6552  0.5768  0.5265
  704MOL0     C92802   3.384   2.286   5.087 -0.3964  0.2338  0.2472
  704MOL0     C92803   3.386   2.210   4.975  0.1234  0.1184  0.9922
  704MOL0     O92804   3.272   2.133   4.930 -0.2986 -0.6898  0.7696
  704MOL0     C92805   3.150   2.159   4.988 -0.3375 -0.3605 -0.1632
  704MOL0     C92806   3.052   2.074   4.915 -0.4621 -0.2994  0.3201
  704MOL0     C92807   2.908   2.084   4.957 -0.0163 -0.1676 -0.4749
  704MOL0     C92808   2.814   2.011   4.860  0.5314 -0.1167 -0.6354
  704MOL0     C92809   2.674   2.009   4.923 -0.2858 -0.1577 -0.2114
  704MOL0     C92810   2.575   1.946   4.828 -0.4039  0.3129  0.1601
  704MOL0     C92811   2.450   1.911   4.908  0.4900  0.8163 -0.1406
  704MOL0     C92812   2.323   1.880   4.824 -0.5166  0.7057 -0.1238
  704MOL0     N92813   2.191   1.907   4.891 -0.1040  0.2215 -0.1813
  704MOL0     C92814   2.137   2.026   4.898 -0.1598  0.4725 -0.2725
  704MOL0     C92815   2.028   2.011   4.972  0.5524  0.2701  0.5743
  704MOL0     C92816   1.939   2.122   4.995  0.3097  0.5306  0.7782
  704MOL0     C92817   1.969   2.189   5.123 -1.0958  0.1402 -0.3258
  704MOL0     C92818   1.901   2.325   5.132 -0.1758 -0.1650  0.3507
  704MOL0     C92819   1.801   2.327   5.251 -0.8744 -0.5985  0.1148
  704MOL0     O92820   1.755   2.460   5.280 -0.0163 -0.5034 -0.6330
  704MOL0     C92821   1.624   2.481   5.315  0.9216 -0.7166  0.2663
  704MOL0     C92822   1.543   2.390   5.370  0.7286 -0.4122  0.6647
  704MOL0     C92823   1.409   2.418   5.403  0.8125 -0.1458  0.5248
  704MOL0     C92824   1.350   2.544   5.372 -0.6118  0.7335 -0.0774
  704MOL0     C92825   1.214   2.573   5.405  0.5443  0.3194  0.7757
  704MOL0     O92826   1.159   2.677   5.343  0.1831  0.2932 -0.0612
  704MOL0     C92827   1.026   2.719   5.357 -0.5821 -0.0493  0.0765
  704MOL0     C92828   0.984   2.838   5.293 -0.4384  0.8021 -0.0891
  704MOL0     C92829   0.861   2.877   5.285 -0.0490 -0.6289 -0.3567
  704MOL0     C92830   0.761   2.814   5.353 -0.5007  0.2216  0.4994
  704MOL0     O92831   0.636   2.869   5.370  0.5229  0.6011  0.3775
  704MOL0     C92832   0.603   2.979   5.283 -0.8546 -0.8488 -0.2679
  704MOL0     C92833   0.456   3.022   5.320 -0.2474 -0.4456 -0.7935
  704MOL0     C92834   0.424   3.164   5.256  0.0176 -0.4381  0.6454
  704MOL0     C92835   0.279   3.199   5.253  1.7084 -1.5016  0.6651
  704MOL0     C92836   0.245   3.286   5.132 -0.6180  1.1062 -0.2169
  704MOL0     C92837   0.319   3.417   5.122 -0.1406  0.2336  0.2650
  704MOL0     C92838   0.288   3.512   5.241  0.2789 -0.3100  0.3653
  704MOL0     C92839   0.280   3.664   5.179  0.5052 -0.3516  0.3379
  704MOL0    Cl92840   0.442   3.715   5.142 -0.1821 -0.1569 -0.1772
  704MOL0     C92841   0.792   2.691   5.408 -0.4915 -0.2270 -0.1411
  704MOL0     C92842   0.924   2.647   5.412 -0.7444  1.5059  0.2191
  704MOL0     O92843   1.161   2.499   5.489  0.2830  0.1884  0.3437
  704MOL0     C92844   1.439   2.645   5.321 -0.8672  0.3454  1.2693
  704MOL0     C92845   1.572   2.607   5.291 -0.5582  0.0288 -1.9810
  704MOL0     N92846   2.026   1.881   5.025 -0.2122  0.4571 -0.6495
  704MOL0     N92847   2.127   1.814   4.983 -0.1679  0.1019 -0.6299
  704MOL0     C92848   3.494   2.204   4.885 -0.3022  0.0997 -0.3853
  704MOL0     C92849   3.608   2.273   4.923 -0.4765 -0.2478 -0.6686
  704MOL0     C92850   3.988   2.412   5.119 -1.0250 -1.0015 -0.2673
  704MOL0     C92851   4.092   2.346   5.174 -0.2995  1.5273 -0.3916
  704MOL0     C92852   4.214   2.415   5.203 -0.1219  0.5601  0.4534
  704MOL0     C92853   4.229   2.555   5.187 -0.1786  0.1572  0.5224
  704MOL0     O92854   4.343   2.627   5.196 -0.6748  0.9389 -0.3816
  704MOL0     C92855   4.460   2.556   5.243  0.4073 -0.1444  0.2960
  704MOL0     C92856   4.561   2.645   5.286  0.0580 -0.0084  0.4761
  704MOL0     C92857   4.590   2.768   5.189 -1.0581 -0.0683 -0.2858
  704MOL0     C92858   4.685   2.859   5.272  0.3535  0.0138 -0.6451
  704MOL0     C92859   4.737   2.975   5.194  0.4285  0.2951  0.2031
  704MOL0     C92860   4.772   3.077   5.136 -1.0137 -0.2542 -0.0766
  704MOL0     C92861   4.122   2.620   5.137 -0.7145 -0.2570 -0.0019
  704MOL0     C92862   4.004   2.553   5.103 -0.2685  0.1536  0.0278
  704MOL0     H92863   3.522   2.414   5.218  2.3290 -0.9126  1.0620
  704MOL0     H92864   3.301   2.293   5.157 -3.3813  0.4653 -3.0490
  704MOL0     H92865   3.121   2.263   4.966  1.1584  1.1818  4.0687
  704MOL0     H92866   3.148   2.131   5.094  1.9111 -1.6714 -0.4206
  704MOL0     H92867   3.084   1.969   4.917  0.0336 -0.3119 -2.6289
  704MOL0     H92868   3.062   2.098   4.808  0.7976 -0.6940  0.3300
  704MOL0     H92869   2.877   2.187   4.976 -0.4779 -0.3153 -0.4103
  704MOL0     H92870   2.894   2.047   5.059  1.1087 -0.8233 -0.5358
  704MOL0     H92871   2.811   2.078   4.774  3.5122 -0.0531 -0.7973
  704MOL0     H92872   2.850   1.917   4.817 -2.5021 -0.5898 -2.4280
  704MOL0     H92873   2.652   2.116   4.932 -1.1066 -0.1311 -1.9715
  704MOL0     H92874   2.675   1.957   5.019  0.6474 -1.5485 -0.9453
  704MOL0     H92875   2.619   1.854   4.788  2.3495  1.8750 -0.7414
  704MOL0     H92876   2.555   2.016   4.746  1.8424  1.3303  0.3985
  704MOL0     H92877   2.479   1.825   4.969  0.8927  0.8293 -0.3088
  704MOL0     H92878   2.420   1.999   4.965 -0.9680 -0.0916  0.5514
  704MOL0     H92879   2.319   1.771   4.809 -1.1767 -0.1084  4.4634
  704MOL0     H92880   2.346   1.931   4.731  2.9317 -2.0211 -1.0164
  704MOL0     H92881   2.167   2.112   4.839 -2.3124 -1.0134 -3.8701
  704MOL0     H92882   1.837   2.084   5.012  0.4148  0.3714  1.0587
  704MOL0     H92883   1.935   2.182   4.904  2.7917 -0.2192  0.1091
  704MOL0     H92884   2.075   2.203   5.148 -1.4564  0.0339  1.4385
  704MOL0     H92885   1.943   2.115   5.199 -0.0976 -0.1647 -0.2635
  704MOL0     H92886   1.981   2.395   5.157 -1.5494  1.4545  0.4798
  704MOL0     H92887   1.859   2.364   5.038  1.3197  1.9701  0.4914
  704MOL0     H92888   1.843   2.280   5.340 -1.0869 -0.9815  0.0162
  704MOL0     H92889   1.712   2.273   5.216 -1.4774 -0.3317  1.1899
  704MOL0     H92890   1.580   2.292   5.396  0.5326 -0.1537  1.9972
  704MOL0     H92891   1.362   2.338   5.458  0.9840 -1.2754 -0.9005
  704MOL0     H92892   1.052   2.911   5.250 -0.9952  1.2923 -0.1485
  704MOL0     H92893   0.855   2.969   5.228  2.6539  1.6180  2.6342
  704MOL0     H92894   0.612   2.957   5.176 -0.6932 -0.2291 -0.3829
  704MOL0     H92895   0.650   3.075   5.305  2.1874 -2.3658  0.3592
  704MOL0     H92896   0.452   3.017   5.429  1.4982 -2.0690 -0.7729
  704MOL0     H92897   0.393   2.944   5.276  3.2890 -2.2182 -3.1253
  704MOL0     H92898   0.467   3.156   5.156  0.2775 -1.0273  0.8041
  704MOL0     H92899   0.470   3.255   5.297  0.8549 -0.1292 -0.9015
  704MOL0     H92900   0.218   3.111   5.226 -1.0244  0.3929  0.2551
  704MOL0     H92901   0.246   3.220   5.355  1.4561 -2.2024  0.7374
  704MOL0     H92902   0.137   3.300   5.133 -0.2387  5.2722 -0.5118
  704MOL0     H92903   0.262   3.227   5.042 -0.7480  0.5776  0.0990
  704MOL0     H92904   0.296   3.463   5.026 -1.5499  1.4709  1.1660
  704MOL0     H92905   0.428   3.402   5.115  0.0154  2.0016 -1.9824
  704MOL0     H92906   0.189   3.482   5.277  0.1635 -1.9186 -1.1040
  704MOL0     H92907   0.360   3.516   5.323  0.1708 -0.4406  0.4680
  704MOL0     H92908   0.237   3.737   5.247  1.0082  0.5235 -0.2654
  704MOL0     H92909   0.207   3.653   5.098  1.2360  1.1224 -0.5588
  704MOL0     H92910   0.715   2.632   5.457  2.1642 -2.9176  1.0575
  704MOL0     H92911   0.940   2.548   5.454  1.9782  1.4780 -0.6650
  704MOL0     H92912   1.407   2.749   5.316 -0.3391  0.4619 -0.7087
  704MOL0     H92913   1.645   2.684   5.268 -0.1689  0.7661  1.1870
  704MOL0     H92914   3.514   2.125   4.814  0.7522 -1.8259  1.8883
  704MOL0     H92915   3.692   2.268   4.853 -0.8870  0.5494 -1.2402
  704MOL0     H92916   4.082   2.243   5.205  0.0170  2.3282  2.7142
  704MOL0     H92917   4.284   2.352   5.257 -1.6353 -1.1960  0.4730
  704MOL0     H92918   4.502   2.504   5.156 -0.9890 -0.1357 -0.4002
  704MOL0     H92919   4.441   2.494   5.331  1.3553 -3.5403 -1.6936
  704MOL0     H92920   4.537   2.683   5.385 -0.3479 -0.0240  0.3862
  704MOL0     H92921   4.655   2.591   5.300  0.4004  1.0429  2.5100
  704MOL0     H92922   4.498   2.817   5.156 -2.2551 -1.1347  1.3188
  704MOL0     H92923   4.640   2.749   5.094  0.2228  3.7653 -0.5877
  704MOL0     H92924   4.634   2.893   5.363 -2.9325 -0.5762 -2.1127
  704MOL0     H92925   4.770   2.801   5.308 -0.4716 -0.1978  1.0604
  704MOL0     H92926   4.813   3.157   5.077 -0.1265 -1.0593 -0.5861
  704MOL0     H92927   4.141   2.723   5.108  2.4581 -1.0622 -1.2639
  704MOL0     H92928   3.916   2.601   5.063  1.0596  2.2861 -0.5391
  705MOL0     O92929   4.417  10.935   7.372 -0.0059  0.5277 -0.0673
  705MOL0     C92930   4.471  11.009   7.291  0.2380  0.3033 -0.0630
  705MOL0     O92931   4.417  11.048   7.170 -0.2179 -0.3775 -0.7010
  705MOL0     C92932   4.286  11.029   7.140 -0.7201  0.0431 -0.6346
  705MOL0     C92933   4.233  11.132   7.056  0.0666 -0.0794 -0.5962
  705MOL0     C92934   4.104  11.121   7.015  0.9685  0.1987 -0.2092
  705MOL0     C92935   4.024  11.015   7.061 -0.1392 -0.0735  0.3144
  705MOL0     O92936   3.890  11.022   7.020  0.3457  0.3050  0.1228
  705MOL0     C92937   3.807  10.906   7.051  0.0047 -0.4868 -0.2352
  705MOL0     C92938   3.672  10.913   6.988  0.4744  0.7327  0.0698
  705MOL0     C92939   3.595  10.775   7.005  0.7578 -0.4620 -0.6647
  705MOL0     C92940   3.455  10.791   6.934  0.3034  0.2597 -0.1448
  705MOL0     C92941   3.366  10.667   6.968 -0.4413  0.3655 -0.5238
  705MOL0     C92942   3.215  10.683   6.949  0.9289 -0.3604 -0.1605
  705MOL0     C92943   3.145  10.552   6.989  0.6187 -0.0115 -0.0077
  705MOL0     C92944   2.996  10.580   6.988 -0.0089 -0.2475 -0.7681
  705MOL0     N92945   2.913  10.469   7.035  0.3934  0.2302 -0.3155
  705MOL0     C92946   2.911  10.423   7.165 -0.5184  0.1053  0.6989
  705MOL0     C92947   2.822  10.325   7.169 -0.0958  0.1055  0.1134
  705MOL0     C92948   2.772  10.248   7.285 -0.2350 -0.1166 -0.6733
  705MOL0     C92949   2.610  10.220   7.279 -0.3161 -0.6523  0.4504
  705MOL0     C92950   2.546  10.328   7.365 -0.3652 -0.0112  0.0042
  705MOL0     C92951   2.404  10.300   7.392 -0.1105 -0.9051  0.0578
  705MOL0     O92952   2.384  10.192   7.493 -0.0946  0.0250  0.4782
  705MOL0     C92953   2.261  10.137   7.487 -0.8450  0.3253 -0.1719
  705MOL0     C92954   2.238  10.041   7.581  0.6967  0.0250  0.0047
  705MOL0     C92955   2.108   9.995   7.612 -0.2565  0.3534  0.4915
  705MOL0     C92956   1.993  10.047   7.546  0.6285 -0.2411  0.9435
  705MOL0     C92957   1.865   9.994   7.581 -0.4733  0.4981  0.5732
  705MOL0     O92958   1.850   9.918   7.691 -0.6457 -0.5752 -0.1502
  705MOL0     C92959   1.725   9.865   7.711 -0.4050  0.4223  0.0718
  705MOL0     C92960   1.681   9.761   7.634  0.0873 -0.0539 -0.0570
  705MOL0     C92961   1.548   9.709   7.658 -0.4431  0.3663  0.7320
  705MOL0     C92962   1.469   9.762   7.757 -1.0755 -1.0667  0.3334
  705MOL0     O92963   1.345   9.711   7.765  0.2886  0.1554  0.1179
  705MOL0     C92964   1.243   9.785   7.836  0.9432  0.2025  0.7549
  705MOL0     C92965   1.098   9.738   7.802 -0.5464  0.0833 -0.8840
  705MOL0     C92966   0.995   9.831   7.842  0.4295 -0.1953  0.3972
  705MOL0     C92967   0.874   9.737   7.842  0.9329 -0.4844 -0.2727
  705MOL0     C92968   0.750   9.822   7.834  0.2281  0.1243  1.6036
  705MOL0     C92969   0.625   9.745   7.863 -0.9969 -0.5709  0.3158
  705MOL0     C92970   0.497   9.825   7.828 -0.1046  0.0844  0.2092
  705MOL0     C92971   0.381   9.744   7.879  0.4411 -0.0276 -0.4933
  705MOL0    Cl92972   0.383   9.735   8.066  0.1926  0.9313  0.1898
  705MOL0     C92973   1.519   9.860   7.844 -0.3375  0.5449  0.1750
  705MOL0     C92974   1.651   9.902   7.823 -0.3833  0.0122  0.4184
  705MOL0     O92975   1.768  10.025   7.506 -0.1596  0.1639 -0.4724
  705MOL0     C92976   2.015  10.144   7.449 -0.7778  0.2989  1.1980
  705MOL0     C92977   2.147  10.191   7.422  0.2118 -0.5922  0.4644
  705MOL0     N92978   2.773  10.310   7.037 -0.1837 -0.6414  0.5748
  705MOL0     N92979   2.831  10.400   6.956  0.5844 -0.2159  0.2079
  705MOL0     C92980   4.074  10.923   7.147  0.7673 -0.0597  0.2157
  705MOL0     C92981   4.203  10.920   7.174  0.5822 -0.0357 -0.6326
  705MOL0     C92982   4.611  11.057   7.318 -0.8167 -0.0917  0.2192
  705MOL0     C92983   4.670  11.015   7.437  0.5035 -0.5159  0.3371
  705MOL0     C92984   4.804  11.046   7.460  0.1675 -0.1369 -0.5107
  705MOL0     C92985   4.874  11.129   7.366 -0.7380  0.2782 -0.0951
  705MOL0     O92986   5.007  11.169   7.369 -0.2213 -0.3126 -0.6080
  705MOL0     C92987   5.075  11.169   7.493 -0.6363 -0.0006 -0.7682
  705MOL0     C92988   5.223  11.198   7.481  0.6605  0.2637  0.7453
  705MOL0     C92989   5.271  11.284   7.595  0.8628  0.4126 -0.1631
  705MOL0     C92990   5.405  11.348   7.558 -0.0096  1.0057  0.4625
  705MOL0     C92991   5.518  11.256   7.583  0.6302  0.0175 -0.6543
  705MOL0     C92992   5.606  11.171   7.602  0.8676  0.6605 -0.0552
  705MOL0     C92993   4.810  11.174   7.250 -0.1691 -0.2340 -0.4845
  705MOL0     C92994   4.682  11.137   7.227  0.4761 -0.1755  1.0442
  705MOL0     H92995   4.284  11.222   7.024 -1.0877  0.6651 -0.3914
  705MOL0     H92996   4.048  11.198   6.962  1.8840  0.6863 -0.5030
  705MOL0     H92997   3.791  10.894   7.158 -1.1834  0.0725 -0.3371
  705MOL0     H92998   3.852  10.817   7.006  0.9727  1.5011 -3.5415
  705MOL0     H92999   3.671  10.944   6.883  1.1488 -0.4179 -0.2915
  705MOL0     H93000   3.614  10.996   7.031 -1.3412  1.1481 -2.8983
  705MOL0     H93001   3.565  10.750   7.107  1.1448 -1.8958 -0.8859
  705MOL0     H93002   3.649  10.689   6.966 -0.5032  0.0399 -3.7910
  705MOL0     H93003   3.411  10.884   6.971 -0.0374  0.7440 -1.7112
  705MOL0     H93004   3.468  10.802   6.826  1.8144  1.7517  0.1426
  705MOL0     H93005   3.377  10.627   7.069 -1.3554  1.5277  0.0628
  705MOL0     H93006   3.408  10.592   6.900 -0.0733  1.6435 -1.7667
  705MOL0     H93007   3.199  10.722   6.847  3.5856  2.3835  0.3034
  705MOL0     H93008   3.184  10.762   7.018 -2.1437 -2.3923  0.9434
  705MOL0     H93009   3.169  10.473   6.917 -1.6224 -0.9179  0.1609
  705MOL0     H93010   3.170  10.515   7.089  0.5399 -1.6596 -0.5697
  705MOL0     H93011   2.966  10.614   6.888 -0.1042 -0.2691 -0.7479
  705MOL0     H93012   2.964  10.665   7.048 -0.4957  0.1576 -1.5785
  705MOL0     H93013   2.956  10.469   7.252 -0.9413 -1.8681  2.0294
  705MOL0     H93014   2.795  10.300   7.378 -1.6765 -1.9941  0.8313
  705MOL0     H93015   2.834  10.158   7.296  0.8990  0.9247  2.5090
  705MOL0     H93016   2.597  10.121   7.325  0.7810  0.3962  3.2035
  705MOL0     H93017   2.575  10.216   7.175 -0.2353 -0.0593  0.3957
  705MOL0     H93018   2.597  10.338   7.461  0.4182  0.2670 -0.4372
  705MOL0     H93019   2.560  10.426   7.319  1.9103 -1.4130 -2.5481
  705MOL0     H93020   2.362  10.268   7.296 -1.2983  0.6111  0.0441
  705MOL0     H93021   2.359  10.388   7.436  3.2114  0.1041  1.7815
  705MOL0     H93022   2.328  10.006   7.631  1.8113  1.2728 -1.0460
  705MOL0     H93023   2.095   9.933   7.700  0.4118 -2.3041 -1.1447
  705MOL0     H93024   1.746   9.723   7.556 -1.2837 -1.6322 -0.4885
  705MOL0     H93025   1.503   9.634   7.593  1.1691 -2.5583  2.7751
  705MOL0     H93026   1.242   9.890   7.804 -1.9280 -0.2226 -0.9474
  705MOL0     H93027   1.261   9.768   7.943  2.2956 -3.6517  0.0546
  705MOL0     H93028   1.091   9.647   7.862  1.2320  1.2786  1.2691
  705MOL0     H93029   1.084   9.717   7.695 -1.7001  0.8035 -0.8899
  705MOL0     H93030   0.995   9.901   7.758  3.6775 -0.2858  0.2000
  705MOL0     H93031   1.021   9.884   7.934  2.2472  0.7875 -0.6194
  705MOL0     H93032   0.872   9.664   7.761 -1.0532 -3.2025  2.0221
  705MOL0     H93033   0.867   9.681   7.937  1.8538  1.7339  1.1797
  705MOL0     H93034   0.736   9.862   7.733 -1.0635  1.3073  2.2209
  705MOL0     H93035   0.756   9.913   7.894  2.5852  1.5131 -0.5294
  705MOL0     H93036   0.642   9.722   7.969 -0.3982  0.9076  0.5622
  705MOL0     H93037   0.629   9.659   7.796 -0.1493  1.0824 -1.8870
  705MOL0     H93038   0.497   9.926   7.870 -0.0041 -0.6392  2.0332
  705MOL0     H93039   0.478   9.841   7.721 -1.7287  2.9141  0.8223
  705MOL0     H93040   0.383   9.643   7.837 -1.7026 -0.1570 -0.3921
  705MOL0     H93041   0.287   9.793   7.850 -0.3528 -0.7425  0.7820
  705MOL0     H93042   1.453   9.893   7.924 -0.8279 -0.8968  0.3941
  705MOL0     H93043   1.690   9.984   7.882  1.0021 -1.0344  1.0006
  705MOL0     H93044   1.933  10.196   7.400 -0.6437 -1.5702 -1.2230
  705MOL0     H93045   2.156  10.282   7.365  3.1086  0.5712  2.5250
  705MOL0     H93046   4.004  10.844   7.174  1.4741 -1.6103 -2.1825
  705MOL0     H93047   4.233  10.844   7.245  0.1785 -0.6169 -1.0818
  705MOL0     H93048   4.626  10.954   7.515 -1.0640  0.0991 -0.0334
  705MOL0     H93049   4.871  11.002   7.533  2.3077  0.2915 -2.1143
  705MOL0     H93050   5.063  11.066   7.529 -0.7752 -0.8457 -3.0442
  705MOL0     H93051   5.023  11.239   7.558  0.3395  0.2377 -0.2316
  705MOL0     H93052   5.280  11.104   7.482  1.0577  0.4659 -0.4028
  705MOL0     H93053   5.240  11.256   7.390 -0.8115  1.4397  1.1855
  705MOL0     H93054   5.282  11.220   7.683  0.4533 -1.2770 -1.2850
  705MOL0     H93055   5.200  11.364   7.618 -0.0891 -0.1809 -0.9422
  705MOL0     H93056   5.414  11.392   7.458  2.5196  1.3466  0.7650
  705MOL0     H93057   5.425  11.433   7.625 -0.3874  0.9565  0.6379
  705MOL0     H93058   5.686  11.100   7.602  0.7792  0.5589 -0.5377
  705MOL0     H93059   4.857  11.244   7.181 -2.6906  1.0922 -0.9703
  705MOL0     H93060   4.640  11.169   7.132 -2.2050  0.7392  2.4305
  706MOL0     O93061   2.748   4.075  10.531  0.5522  0.7051 -0.4345
  706MOL0     C93062   2.840   3.991  10.549 -0.2838  0.2184  0.7406
  706MOL0     O93063   2.970   4.015  10.569 -0.2868 -0.1794  0.2664
  706MOL0     C93064   3.006   4.143  10.604  0.4240 -0.0389 -0.9349
  706MOL0     C93065   2.938   4.207  10.703  0.4080 -0.0824 -0.0119
  706MOL0     C93066   2.969   4.335  10.747  0.2514  0.0075 -0.0461
  706MOL0     C93067   3.067   4.409  10.681  0.0579  0.8055  0.6936
  706MOL0     O93068   3.103   4.536  10.726 -0.4692  0.2808 -0.3558
  706MOL0     C93069   3.239   4.574  10.722  0.2143 -0.6744 -0.0727
  706MOL0     C93070   3.287   4.650  10.838  0.1995  0.4520 -1.0730
  706MOL0     C93071   3.198   4.774  10.867 -0.5686  1.3620  0.1602
  706MOL0     C93072   3.235   4.852  10.997 -0.4557  0.6737 -0.7526
  706MOL0     C93073   3.194   4.781  11.130 -0.1790 -0.6975 -0.1567
  706MOL0     C93074   3.188   4.875  11.261 -0.1096  0.3348  0.8820
  706MOL0     C93075   3.325   4.952  11.280 -0.1911  0.1531  0.0174
  706MOL0     C93076   3.448   4.860  11.283 -0.2976  0.7692 -0.0424
  706MOL0     N93077   3.447   4.770  11.405  0.0603 -0.2297 -0.0619
  706MOL0     C93078   3.485   4.802  11.537  0.3904 -0.4166  1.4597
  706MOL0     C93079   3.460   4.693  11.619 -1.1120 -0.4063  0.4062
  706MOL0     C93080   3.496   4.683  11.772  0.5195  0.2120  0.1928
  706MOL0     C93081   3.375   4.670  11.863  0.4224 -0.9560 -0.0986
  706MOL0     C93082   3.329   4.812  11.888  0.7142 -0.1128  0.2295
  706MOL0     C93083   3.194   4.809  11.953  0.3467 -0.7014 -0.1248
  706MOL0     O93084   3.084   4.751  11.879 -0.2285 -0.2062  0.6711
  706MOL0     C93085   2.965   4.740  11.950 -0.2019 -0.9927 -0.7544
  706MOL0     C93086   2.866   4.653  11.908  0.6977 -0.1224 -0.8035
  706MOL0     C93087   2.749   4.633  11.979 -0.9145 -1.1904 -0.5340
  706MOL0     C93088   2.726   4.708  12.099  0.1747  0.1520  0.0114
  706MOL0     C93089   2.607   4.691  12.172  0.2551  0.1276 -0.3838
  706MOL0     O93090   2.494   4.632  12.111 -0.6764  0.2562 -0.4287
  706MOL0     C93091   2.373   4.620  12.175  0.3922 -0.3544  0.4778
  706MOL0     C93092   2.331   4.693  12.289  0.6491 -0.4935 -0.4317
  706MOL0     C93093   2.209   4.666  12.354  0.1399  0.7093  0.9135
  706MOL0     C93094   2.137   4.548  12.312 -0.3090 -0.4180  0.0979
  706MOL0     O93095   2.026   4.510  12.388 -0.1307  0.8281 -0.1001
  706MOL0     C93096   1.972   4.382  12.364 -0.0361 -0.2176 -0.3003
  706MOL0     C93097   1.854   4.337  12.453 -0.4219 -0.2528  0.6145
  706MOL0     C93098   1.732   4.413  12.422 -0.3117  0.4503  0.1445
  706MOL0     C93099   1.638   4.366  12.534  0.2780  0.7263 -0.1088
  706MOL0     C93100   1.491   4.418  12.521  0.4674 -0.4444 -0.0244
  706MOL0     C93101   1.490   4.572  12.512 -0.2178  0.2942  0.4131
  706MOL0     C93102   1.345   4.636  12.511 -0.0631  0.6834 -0.3943
  706MOL0     C93103   1.363   4.783  12.549 -0.2327  0.5178  0.3269
  706MOL0    Cl93104   1.443   4.879  12.414 -0.0703 -0.2919  0.5372
  706MOL0     C93105   2.183   4.473  12.207 -0.5991 -0.5496  0.9752
  706MOL0     C93106   2.293   4.510  12.139  0.1913 -0.5977 -0.1430
  706MOL0     O93107   2.611   4.726  12.293 -0.0846  0.2668  0.4770
  706MOL0     C93108   2.817   4.798  12.142 -0.7013  0.1496  0.1221
  706MOL0     C93109   2.935   4.816  12.069  0.2366  0.1701  0.0087
  706MOL0     N93110   3.431   4.590  11.525  0.8085 -1.2854 -0.1222
  706MOL0     N93111   3.416   4.635  11.402 -0.0653  0.0908 -0.4324
  706MOL0     C93112   3.134   4.339  10.580 -0.4549 -0.2832  0.5393
  706MOL0     C93113   3.106   4.212  10.547 -0.1056  0.4109  0.1893
  706MOL0     C93114   2.807   3.847  10.571  0.1627 -0.6419 -1.1581
  706MOL0     C93115   2.902   3.746  10.613  0.4695  0.1981 -0.1792
  706MOL0     C93116   2.861   3.614  10.634  1.2324 -0.9662  0.1332
  706MOL0     C93117   2.723   3.573  10.605 -0.6269  0.2312 -0.2209
  706MOL0     O93118   2.679   3.445  10.620 -0.0128  0.8072 -0.7584
  706MOL0     C93119   2.780   3.343  10.647  0.5540 -0.2577  0.2930
  706MOL0     C93120   2.708   3.215  10.668  0.6208  0.5182 -0.1910
  706MOL0     C93121   2.692   3.141  10.531  0.0663 -0.2177  0.3676
  706MOL0     C93122   2.604   3.012  10.538  0.3148  0.4062  0.2569
  706MOL0     C93123   2.458   3.036  10.555 -0.9032 -0.4459 -0.0284
  706MOL0     C93124   2.339   3.065  10.572  0.1366  0.2050  0.1794
  706MOL0     C93125   2.638   3.669  10.568 -0.1048 -0.1833 -0.7745
  706MOL0     C93126   2.674   3.807  10.554 -0.4065 -0.2692  0.2300
  706MOL0     H93127   2.857   4.160  10.757 -1.0168  2.3077  0.0989
  706MOL0     H93128   2.922   4.387  10.829  0.4372 -0.6031  0.4533
  706MOL0     H93129   3.246   4.637  10.632 -3.1494  0.5966  0.4027
  706MOL0     H93130   3.306   4.488  10.722 -0.0589 -0.9281  1.9728
  706MOL0     H93131   3.386   4.682  10.806  1.1234 -0.6152  0.5965
  706MOL0     H93132   3.298   4.591  10.930  0.7283  1.3357 -0.5588
  706MOL0     H93133   3.096   4.736  10.876  0.0143 -0.6558 -1.1018
  706MOL0     H93134   3.205   4.835  10.777  0.9110  1.5016  0.3502
  706MOL0     H93135   3.342   4.867  10.986 -0.4196  1.0950  0.0557
  706MOL0     H93136   3.181   4.948  10.992 -1.7985 -0.0294 -0.3183
  706MOL0     H93137   3.252   4.690  11.148  0.2454 -0.7133 -1.4632
  706MOL0     H93138   3.094   4.738  11.118  0.0841 -1.6781  0.9847
  706MOL0     H93139   3.154   4.821  11.350 -3.0021 -1.7077 -1.2901
  706MOL0     H93140   3.116   4.955  11.241 -0.0602 -0.1822 -1.6595
  706MOL0     H93141   3.329   5.029  11.203 -2.9762 -0.0232 -0.4196
  706MOL0     H93142   3.323   5.008  11.374  0.1396  1.3126 -0.6443
  706MOL0     H93143   3.540   4.919  11.280  0.3383 -0.1636  0.5266
  706MOL0     H93144   3.458   4.813  11.185 -0.1199  1.8437 -0.5578
  706MOL0     H93145   3.520   4.902  11.560  0.8252 -0.6512  1.8154
  706MOL0     H93146   3.551   4.773  11.801 -0.6718  0.8497  0.5568
  706MOL0     H93147   3.556   4.592  11.783 -3.7374 -2.6485  2.8095
  706MOL0     H93148   3.409   4.610  11.948  1.2541 -1.2535 -0.6264
  706MOL0     H93149   3.294   4.615  11.815  0.2514 -1.6805  0.9923
  706MOL0     H93150   3.391   4.868  11.959  3.0973 -0.2680 -1.6184
  706MOL0     H93151   3.320   4.871  11.796 -1.1729 -1.4657 -0.5274
  706MOL0     H93152   3.159   4.913  11.963  1.3375 -0.1432 -1.9634
  706MOL0     H93153   3.206   4.767  12.053 -2.1065 -1.1484  0.0504
  706MOL0     H93154   2.876   4.618  11.805 -1.8965  0.6805 -1.3931
  706MOL0     H93155   2.674   4.573  11.926 -1.0338 -0.9247 -0.6687
  706MOL0     H93156   2.384   4.783  12.320 -1.9889  0.9287  0.2528
  706MOL0     H93157   2.171   4.728  12.434 -0.4438  2.1224 -0.3951
  706MOL0     H93158   2.055   4.311  12.360 -0.7129 -1.0358 -0.1219
  706MOL0     H93159   1.946   4.373  12.258 -1.2716 -1.9621  0.1034
  706MOL0     H93160   1.884   4.342  12.558 -0.3293  0.7499  0.5551
  706MOL0     H93161   1.842   4.231  12.431  1.5944 -0.6247  1.0995
  706MOL0     H93162   1.688   4.402  12.322  0.8139 -1.0625 -0.2151
  706MOL0     H93163   1.751   4.521  12.425 -0.9892  0.5614  0.6061
  706MOL0     H93164   1.637   4.256  12.532  1.8496  0.7098 -1.4069
  706MOL0     H93165   1.670   4.389  12.636 -2.1142  1.8472  0.4662
  706MOL0     H93166   1.430   4.379  12.603 -1.2396 -1.0293 -1.5005
  706MOL0     H93167   1.446   4.378  12.429 -1.5257  2.8919 -0.6516
  706MOL0     H93168   1.546   4.614  12.427 -1.6216 -1.1206 -1.3040
  706MOL0     H93169   1.544   4.600  12.603  0.2541  2.2847 -0.4220
  706MOL0     H93170   1.305   4.626  12.410 -0.2369  0.9094 -0.3465
  706MOL0     H93171   1.291   4.586  12.593  0.9687 -0.2812 -0.2783
  706MOL0     H93172   1.417   4.790  12.644  0.8673 -5.7422  0.5868
  706MOL0     H93173   1.265   4.829  12.565  0.0392  0.6316  1.8601
  706MOL0     H93174   2.124   4.395  12.160 -0.5721  0.1359 -0.2455
  706MOL0     H93175   2.315   4.466  12.042 -1.8646  0.7321 -1.2714
  706MOL0     H93176   2.789   4.874  12.214 -1.1416  1.3037 -1.2083
  706MOL0     H93177   3.010   4.889  12.100  0.6073 -1.1530  2.4783
  706MOL0     H93178   3.217   4.390  10.533  0.5051 -2.6571 -0.4823
  706MOL0     H93179   3.160   4.157  10.470  1.9054  0.1096  1.7403
  706MOL0     H93180   3.005   3.775  10.633 -0.7965  4.2579  1.6150
  706MOL0     H93181   2.936   3.554  10.685 -0.4992 -2.5697  0.9333
  706MOL0     H93182   2.842   3.375  10.732 -0.2555 -0.1408  0.8536
  706MOL0     H93183   2.855   3.334  10.568  2.2374  0.3974  1.7449
  706MOL0     H93184   2.756   3.155  10.745 -2.1086 -0.4681  0.8767
  706MOL0     H93185   2.613   3.243  10.716  1.4653 -1.1851  2.7439
  706MOL0     H93186   2.785   3.111  10.482 -1.5731 -1.0659 -2.5057
  706MOL0     H93187   2.642   3.207  10.459  1.3829 -0.4471 -0.7952
  706MOL0     H93188   2.618   2.964  10.441 -0.6707  0.4712  0.0620
  706MOL0     H93189   2.643   2.943  10.613  0.6514 -1.2709 -1.3961
  706MOL0     H93190   2.235   3.074  10.597  0.2159  0.9359  0.2522
  706MOL0     H93191   2.537   3.637  10.547 -0.4579 -0.4838  1.1988
  706MOL0     H93192   2.604   3.880  10.514  0.4326  0.0903 -0.6418
  707MOL0     O93193   1.005   5.465  10.812 -0.5448  0.2672 -0.1277
  707MOL0     C93194   0.970   5.490  10.692 -0.0130 -0.2006 -1.3293
  707MOL0     O93195   1.060   5.529  10.604  0.3828  0.6570  0.6857
  707MOL0     C93196   1.199   5.529  10.635 -0.4611  0.9577  0.0743
  707MOL0     C93197   1.262   5.644  10.601  0.1353  0.0604  0.3426
  707MOL0     C93198   1.396   5.653  10.605  0.5751  0.3352 -0.1179
  707MOL0     C93199   1.471   5.533  10.616 -0.6648  0.3109  0.4745
  707MOL0     O93200   1.605   5.530  10.609  0.1999 -0.4421  0.3109
  707MOL0     C93201   1.676   5.633  10.540 -0.4593  0.4447  0.0956
  707MOL0     C93202   1.818   5.590  10.534  0.3962  0.3948  0.7078
  707MOL0     C93203   1.911   5.691  10.473  0.1423  0.0031 -0.5659
  707MOL0     C93204   1.900   5.708  10.318 -0.6617  0.3168 -0.7080
  707MOL0     C93205   2.002   5.798  10.258  0.1928 -0.1018  0.1649
  707MOL0     C93206   1.949   5.936  10.203 -0.2875  0.2910 -0.0621
  707MOL0     C93207   2.068   6.027  10.152  0.6257  0.8596  0.3451
  707MOL0     C93208   2.003   6.153  10.096  0.3945 -0.0481  0.6996
  707MOL0     N93209   1.957   6.251  10.193 -0.4296  0.0323 -0.3059
  707MOL0     C93210   1.839   6.241  10.261  0.2621  0.4164  0.0695
  707MOL0     C93211   1.823   6.354  10.327  0.0126  0.3403  0.2989
  707MOL0     C93212   1.714   6.372  10.429 -0.3173 -0.4015 -0.3138
  707MOL0     C93213   1.760   6.406  10.574  0.2775 -0.4205 -0.7084
  707MOL0     C93214   1.657   6.395  10.682  1.4130 -0.7159  0.0254
  707MOL0     C93215   1.547   6.505  10.676  0.4024 -0.0613  0.4693
  707MOL0     O93216   1.425   6.429  10.639  0.2924 -1.4395 -0.4152
  707MOL0     C93217   1.316   6.507  10.599 -1.0452  0.3152 -0.5298
  707MOL0     C93218   1.221   6.452  10.510  0.2613  0.7153  0.1763
  707MOL0     C93219   1.114   6.528  10.453 -0.9200  0.5227  0.4067
  707MOL0     C93220   1.107   6.668  10.479  0.0393 -0.2515 -0.9296
  707MOL0     C93221   0.992   6.749  10.426 -0.3836 -0.6664  0.0911
  707MOL0     O93222   0.926   6.717  10.313  0.6292 -0.3678 -0.0681
  707MOL0     C93223   0.797   6.756  10.310  0.3490 -0.3852  0.3273
  707MOL0     C93224   0.756   6.853  10.215 -0.0786  0.0856  0.0500
  707MOL0     C93225   0.617   6.897  10.227 -1.3349  0.1908  0.5451
  707MOL0     C93226   0.526   6.847  10.315  0.2567  0.1926  0.3394
  707MOL0     O93227   0.398   6.894  10.303  0.0471  0.2991  0.3680
  707MOL0     C93228   0.301   6.840  10.398  0.7342  0.7379 -0.3386
  707MOL0     C93229   0.163   6.897  10.357 -0.3962  0.5669 -0.2074
  707MOL0     C93230   0.045   6.858  10.450 -0.2753  0.0250  0.2600
  707MOL0     C93231  -0.085   6.920  10.416 -0.6044  0.6164  0.5835
  707MOL0     C93232  -0.207   6.860  10.478 -0.6973 -0.0858  0.1865
  707MOL0     C93233  -0.216   6.887  10.629 -0.0529  0.2034  0.1192
  707MOL0     C93234  -0.347   6.822  10.682  0.4526  0.5155  1.4857
  707MOL0     C93235  -0.409   6.919  10.781 -0.1327 -0.6045  0.2224
  707MOL0    Cl93236  -0.558   6.854  10.840  0.2849  0.1322 -0.0279
  707MOL0     C93237   0.571   6.745  10.402 -0.2003 -0.5460  0.0045
  707MOL0     C93238   0.707   6.705  10.401  0.3963 -0.6888 -0.7723
  707MOL0     O93239   0.965   6.850  10.500  0.5316  0.7443 -0.4272
  707MOL0     C93240   1.197   6.723  10.569  0.7459  0.2344 -0.7512
  707MOL0     C93241   1.292   6.641  10.640  0.4873 -0.1242  0.2320
  707MOL0     N93242   1.936   6.432  10.300 -0.9646 -1.0164  0.8637
  707MOL0     N93243   2.000   6.383  10.205 -0.3350 -0.3985  0.0788
  707MOL0     C93244   1.407   5.419  10.676 -0.4387 -0.3704  0.3319
  707MOL0     C93245   1.264   5.415  10.684  0.3378  0.6977  1.0365
  707MOL0     C93246   0.823   5.483  10.662  0.3544 -0.4577  0.3480
  707MOL0     C93247   0.766   5.529  10.542  0.3621  0.5949  0.8362
  707MOL0     C93248   0.628   5.531  10.507  0.7504 -0.1808 -0.3598
  707MOL0     C93249   0.542   5.506  10.615 -0.6698 -0.0384  0.6562
  707MOL0     O93250   0.407   5.522  10.629  0.0001 -0.0945  0.2785
  707MOL0     C93251   0.348   5.631  10.563 -0.0723  0.2818  0.4614
  707MOL0     C93252   0.211   5.650  10.611 -0.4341 -0.5085  0.2870
  707MOL0     C93253   0.121   5.552  10.532  0.4181  0.5617 -0.0234
  707MOL0     C93254  -0.024   5.603  10.528 -0.2150  0.1190 -0.6979
  707MOL0     C93255  -0.044   5.716  10.440  0.2739  0.0497  0.6040
  707MOL0     C93256  -0.073   5.807  10.362  0.3728  0.0531 -0.9651
  707MOL0     C93257   0.597   5.456  10.735  0.5869 -0.3209 -0.4542
  707MOL0     C93258   0.732   5.444  10.758  0.1959  0.4898 -0.0845
  707MOL0     H93259   1.200   5.733  10.599  2.0717  1.5067  0.5176
  707MOL0     H93260   1.437   5.751  10.584 -0.9500  0.7892 -1.0885
  707MOL0     H93261   1.677   5.724  10.600  0.1572 -0.4787  1.5239
  707MOL0     H93262   1.635   5.652  10.440 -0.6603 -2.5423 -0.4840
  707MOL0     H93263   1.822   5.496  10.478 -1.0377  0.2125  0.8568
  707MOL0     H93264   1.852   5.580  10.638 -3.1666  0.3817  2.0490
  707MOL0     H93265   2.010   5.652  10.499 -1.0006 -1.8535  1.1869
  707MOL0     H93266   1.892   5.792  10.510 -2.5290 -0.3211 -0.8754
  707MOL0     H93267   1.922   5.607  10.281  0.4750  0.7331 -1.2290
  707MOL0     H93268   1.805   5.751  10.285  0.9270  0.3174 -6.3284
  707MOL0     H93269   2.034   5.740  10.171 -1.8789 -0.5049 -0.3850
  707MOL0     H93270   2.094   5.809  10.315  1.2152 -0.5805 -1.3292
  707MOL0     H93271   1.884   5.974  10.281  1.0758 -0.2628  1.3945
  707MOL0     H93272   1.882   5.912  10.120 -1.3000 -0.3904  0.9259
  707MOL0     H93273   2.139   6.053  10.231 -0.1102 -0.9589  1.6688
  707MOL0     H93274   2.115   5.977  10.067 -0.8997  1.2986 -0.7831
  707MOL0     H93275   1.913   6.126  10.040 -0.4402 -0.1040  2.0466
  707MOL0     H93276   2.074   6.205  10.030  1.7857  0.2941  2.4107
  707MOL0     H93277   1.762   6.165  10.264  1.4725 -0.9337 -1.3403
  707MOL0     H93278   1.656   6.279  10.421  0.7942 -1.5789  3.4702
  707MOL0     H93279   1.657   6.457  10.389  0.8154 -0.0554 -1.2507
  707MOL0     H93280   1.797   6.508  10.564 -1.7525  0.2628 -1.9086
  707MOL0     H93281   1.835   6.332  10.605  0.3878  1.0127  2.8876
  707MOL0     H93282   1.616   6.294  10.670  4.0397 -2.1676  2.0220
  707MOL0     H93283   1.710   6.398  10.778  2.4635  0.9662 -0.5500
  707MOL0     H93284   1.567   6.588  10.607 -1.8830  1.1702  1.1843
  707MOL0     H93285   1.547   6.546  10.777 -0.6820  1.7212 -0.1945
  707MOL0     H93286   1.232   6.347  10.484  0.0942  0.9740 -1.0059
  707MOL0     H93287   1.051   6.481  10.379  0.5673  0.8146 -1.1166
  707MOL0     H93288   0.827   6.880  10.138  1.7332 -1.5196  1.0487
  707MOL0     H93289   0.584   6.974  10.158 -0.3053  1.3733  1.3314
  707MOL0     H93290   0.328   6.873  10.499  4.0128 -2.7731  0.1773
  707MOL0     H93291   0.296   6.731  10.393 -1.6331  0.6631  1.6382
  707MOL0     H93292   0.150   6.863  10.254  0.0683 -1.1234  0.2650
  707MOL0     H93293   0.168   7.006  10.351 -1.7310  0.5790 -2.0907
  707MOL0     H93294   0.066   6.887  10.553 -0.6204  0.9956  0.0675
  707MOL0     H93295   0.022   6.752  10.445  0.1558 -0.0170 -1.2304
  707MOL0     H93296  -0.082   7.025  10.446 -0.9598  0.5066  0.9960
  707MOL0     H93297  -0.105   6.921  10.308  0.5357 -1.5605  0.2969
  707MOL0     H93298  -0.212   6.751  10.463  0.9142 -0.0068 -1.2268
  707MOL0     H93299  -0.290   6.904  10.424  0.8046  1.0279 -1.3202
  707MOL0     H93300  -0.213   6.995  10.644  2.0648  0.1632  0.2690
  707MOL0     H93301  -0.132   6.840  10.681 -0.9679 -4.4892 -2.0604
  707MOL0     H93302  -0.429   6.812  10.610 -0.8409 -0.8527  3.0534
  707MOL0     H93303  -0.340   6.720  10.721  1.0960  0.0381  0.1664
  707MOL0     H93304  -0.420   7.016  10.731 -0.5725 -0.7554  0.0188
  707MOL0     H93305  -0.340   6.925  10.865 -0.3765  0.2314  0.3718
  707MOL0     H93306   0.501   6.699  10.470  0.6738  1.3065  2.2799
  707MOL0     H93307   0.742   6.625  10.466  2.5724 -1.0929 -2.2924
  707MOL0     H93308   1.187   6.831  10.581 -3.9609 -0.1969  1.7914
  707MOL0     H93309   1.358   6.690  10.711 -0.5530 -0.9748  1.8462
  707MOL0     H93310   1.455   5.334  10.724 -0.4492 -0.6768 -0.1986
  707MOL0     H93311   1.214   5.326  10.720 -0.5480  0.7932  0.0880
  707MOL0     H93312   0.840   5.564  10.470  0.9146 -3.5471 -0.8778
  707MOL0     H93313   0.590   5.580  10.418 -0.2843 -1.8904 -0.8980
  707MOL0     H93314   0.347   5.611  10.455  0.2115 -1.6340  0.7791
  707MOL0     H93315   0.409   5.719  10.583  0.6111  0.0047 -0.3116
  707MOL0     H93316   0.208   5.607  10.712 -0.6528  1.8986  1.3818
  707MOL0     H93317   0.184   5.756  10.606  1.0496 -0.1594 -2.5425
  707MOL0     H93318   0.115   5.457  10.585  3.4136  0.6933  0.7376
  707MOL0     H93319   0.158   5.528  10.432  0.4841  4.2508 -1.0477
  707MOL0     H93320  -0.087   5.515  10.509  1.2847 -1.3933  0.9664
  707MOL0     H93321  -0.050   5.634  10.630 -0.2392  1.7913 -1.1900
  707MOL0     H93322  -0.096   5.879  10.286  1.4984  1.5770  0.0733
  707MOL0     H93323   0.532   5.434  10.819  1.5665 -3.9823 -0.5011
  707MOL0     H93324   0.769   5.403  10.851 -2.3902 -2.1248 -0.0406
  708MOL0     O93325   3.508   9.482   9.669 -0.4682 -0.2588 -0.8396
  708MOL0     C93326   3.525   9.372   9.612  0.3254  0.3352 -0.5478
  708MOL0     O93327   3.437   9.293   9.541 -0.0691  0.1280 -0.8959
  708MOL0     C93328   3.301   9.320   9.557  0.2723 -0.5463  0.1144
  708MOL0     C93329   3.225   9.308   9.440 -0.6384  0.1247 -1.1047
  708MOL0     C93330   3.089   9.322   9.444 -0.5053  0.5826 -0.1225
  708MOL0     C93331   3.030   9.366   9.566 -0.6795 -0.2864  0.2242
  708MOL0     O93332   2.894   9.368   9.568 -0.1985 -0.2222 -0.5694
  708MOL0     C93333   2.819   9.344   9.688 -0.7103  0.0310 -1.2839
  708MOL0     C93334   2.667   9.346   9.662 -0.2101  0.2951  0.2021
  708MOL0     C93335   2.580   9.291   9.775 -0.2907 -0.0420 -0.0827
  708MOL0     C93336   2.430   9.332   9.750  0.2043 -0.2146 -0.1590
  708MOL0     C93337   2.358   9.314   9.881  0.2488  1.1733 -0.1635
  708MOL0     C93338   2.205   9.333   9.860 -0.6637 -0.0251  0.6906
  708MOL0     C93339   2.124   9.357   9.978  0.0354  0.4991  0.2933
  708MOL0     C93340   1.971   9.392   9.945 -0.2921  0.1659 -0.6184
  708MOL0     N93341   1.899   9.273   9.906 -0.1689 -0.0379  0.5145
  708MOL0     C93342   1.891   9.154   9.964  0.8609  0.7888 -0.2515
  708MOL0     C93343   1.795   9.092   9.892  0.4848  0.7738 -0.0017
  708MOL0     C93344   1.741   8.956   9.933 -0.2152  0.0971  0.4261
  708MOL0     C93345   1.717   8.945  10.090 -0.0964  0.2750  0.0642
  708MOL0     C93346   1.611   9.042  10.139 -0.4474  1.1895 -0.0355
  708MOL0     C93347   1.463   9.018  10.096 -0.6446 -0.3921 -0.6460
  708MOL0     O93348   1.369   9.102  10.173 -0.0844  0.3820 -0.5322
  708MOL0     C93349   1.237   9.079  10.156  0.1672 -0.0286  0.6395
  708MOL0     C93350   1.184   9.020  10.039 -0.2058 -0.5334  0.0810
  708MOL0     C93351   1.047   9.013  10.017  0.8011  0.3274  0.0082
  708MOL0     C93352   0.958   9.050  10.121  0.3345  0.4190  0.6225
  708MOL0     C93353   0.807   9.048  10.088 -0.3205  0.0719  0.5504
  708MOL0     O93354   0.720   9.059  10.196  0.0712 -0.5569  0.0512
  708MOL0     C93355   0.585   9.042  10.186 -0.1954 -0.0527 -0.1854
  708MOL0     C93356   0.516   9.091  10.298 -0.4415 -0.9394 -0.3302
  708MOL0     C93357   0.386   9.059  10.321 -0.8377 -0.5405  0.0153
  708MOL0     C93358   0.311   8.990  10.235 -0.0639  0.6137 -1.1468
  708MOL0     O93359   0.183   8.965  10.289 -0.3756 -0.5184 -0.5681
  708MOL0     C93360   0.091   8.891  10.214  0.4088 -0.0815 -0.2631
  708MOL0     C93361  -0.042   8.852  10.286 -0.3984 -0.2829 -0.4813
  708MOL0     C93362  -0.026   8.738  10.375  0.2935 -0.3233  0.0997
  708MOL0     C93363  -0.151   8.689  10.441  0.6201 -0.0656  0.0352
  708MOL0     C93364  -0.121   8.576  10.538 -0.0109 -0.5868  0.6829
  708MOL0     C93365  -0.251   8.524  10.609  0.0150  0.8112 -0.3262
  708MOL0     C93366  -0.213   8.392  10.682 -0.2390  0.6391 -0.6098
  708MOL0     C93367  -0.328   8.372  10.792 -0.1179 -0.1120  1.0309
  708MOL0    Cl93368  -0.492   8.328  10.719 -0.1815 -0.2452  0.0717
  708MOL0     C93369   0.370   8.947  10.115 -0.4231 -0.9335  0.7377
  708MOL0     C93370   0.512   8.970  10.093  0.9435 -0.0391  0.0050
  708MOL0     O93371   0.779   9.028   9.967  0.2649 -0.3062 -0.3002
  708MOL0     C93372   1.010   9.103  10.234 -0.1053  0.3061  0.3437
  708MOL0     C93373   1.147   9.120  10.247 -0.8067  0.5920  0.2605
  708MOL0     N93374   1.756   9.163   9.779  0.1900 -0.5760 -0.6637
  708MOL0     N93375   1.816   9.283   9.799 -0.4717 -0.8441 -0.0145
  708MOL0     C93376   3.106   9.381   9.683 -0.1766  0.0682  0.8679
  708MOL0     C93377   3.241   9.367   9.680 -0.0729  0.0532 -1.8678
  708MOL0     C93378   3.666   9.326   9.621 -0.1339 -0.0269  0.3186
  708MOL0     C93379   3.700   9.189   9.592 -0.1113 -0.7726  0.5403
  708MOL0     C93380   3.834   9.139   9.594  0.1018  0.4527  0.5715
  708MOL0     C93381   3.940   9.231   9.624 -0.7431 -0.3556  0.8254
  708MOL0     O93382   4.069   9.194   9.655 -0.0081 -1.0696  0.2534
  708MOL0     C93383   4.121   9.060   9.636  0.5791  0.6073 -0.3598
  708MOL0     C93384   4.269   9.052   9.675 -0.1461  0.2043 -0.5689
  708MOL0     C93385   4.340   9.184   9.639 -1.0220 -0.5399  0.0328
  708MOL0     C93386   4.495   9.162   9.657  0.6870  0.0944 -0.1943
  708MOL0     C93387   4.562   9.281   9.607  0.1959  0.0763 -0.1571
  708MOL0     C93388   4.615   9.389   9.590 -0.1178 -0.7372 -0.5568
  708MOL0     C93389   3.906   9.361   9.647  0.0317  0.7061  0.4843
  708MOL0     C93390   3.777   9.409   9.656  0.0778  1.0632  0.3275
  708MOL0     H93391   3.273   9.281   9.346  1.6958  3.0562 -0.9319
  708MOL0     H93392   3.033   9.301   9.353 -0.6610 -0.7121  0.2508
  708MOL0     H93393   2.834   9.420   9.766  1.7406 -1.6506 -0.0196
  708MOL0     H93394   2.854   9.248   9.725 -1.7237 -1.1250 -3.1571
  708MOL0     H93395   2.670   9.287   9.570  0.9843 -1.9773  1.6084
  708MOL0     H93396   2.632   9.445   9.631  1.5512  0.8135 -0.2348
  708MOL0     H93397   2.606   9.340   9.870  0.5067 -1.7319  0.6228
  708MOL0     H93398   2.606   9.186   9.789  2.9603  0.6846  0.0976
  708MOL0     H93399   2.423   9.439   9.728  0.8424 -0.3235 -0.9793
  708MOL0     H93400   2.390   9.259   9.679  0.4398  1.2503 -1.8931
  708MOL0     H93401   2.395   9.389   9.952 -0.6614 -1.5096  3.4654
  708MOL0     H93402   2.367   9.217   9.931  1.0710  0.8845 -0.8514
  708MOL0     H93403   2.169   9.249   9.799  2.5389 -2.4880  1.9368
  708MOL0     H93404   2.204   9.428   9.805  2.2745  0.6347  1.6321
  708MOL0     H93405   2.124   9.274  10.049  0.2829  0.0166 -0.2615
  708MOL0     H93406   2.166   9.447  10.024 -3.4074  2.7077 -0.4849
  708MOL0     H93407   1.967   9.479   9.880 -0.8581  2.1145  1.8721
  708MOL0     H93408   1.918   9.416  10.038 -1.3627  0.0325 -1.1784
  708MOL0     H93409   1.934   9.127  10.061  0.9113  2.7224  0.2985
  708MOL0     H93410   1.808   8.876   9.899 -1.9602 -1.5338  0.6721
  708MOL0     H93411   1.650   8.940   9.875  0.6358  1.4635 -1.3957
  708MOL0     H93412   1.799   8.950  10.163 -1.2834  0.9944  1.4196
  708MOL0     H93413   1.688   8.842  10.108 -1.4434  0.6312 -0.0105
  708MOL0     H93414   1.624   9.060  10.246  2.2056 -0.2223 -0.0276
  708MOL0     H93415   1.640   9.140  10.098  0.9722  1.0767  0.6218
  708MOL0     H93416   1.444   8.914  10.123  2.9284 -0.7630  0.9497
  708MOL0     H93417   1.448   9.036   9.989 -4.9511 -2.6573 -0.6450
  708MOL0     H93418   1.244   8.983   9.957  0.2697 -1.0705  0.6614
  708MOL0     H93419   1.005   8.970   9.927 -1.1271  0.6227  0.7354
  708MOL0     H93420   0.569   9.163  10.361  0.5283 -2.2081  0.3391
  708MOL0     H93421   0.339   9.099  10.410 -0.1667  2.5731 -0.8866
  708MOL0     H93422   0.140   8.800  10.180  0.4647 -0.3006  0.3802
  708MOL0     H93423   0.067   8.941  10.120  3.3798  0.3244 -0.8958
  708MOL0     H93424  -0.126   8.840  10.218 -0.1279  1.5022 -1.2021
  708MOL0     H93425  -0.065   8.945  10.340  0.2250  0.1174 -0.8906
  708MOL0     H93426   0.052   8.752  10.451  0.8441 -2.0289 -0.1101
  708MOL0     H93427   0.016   8.655  10.318  1.4756  0.0004  0.4687
  708MOL0     H93428  -0.201   8.774  10.488 -1.5438 -0.4492 -1.3993
  708MOL0     H93429  -0.212   8.652  10.358 -0.8030 -0.2728  1.1405
  708MOL0     H93430  -0.061   8.622  10.618  0.1078  1.2007 -0.3785
  708MOL0     H93431  -0.052   8.503  10.495  1.6771  0.2877  1.7597
  708MOL0     H93432  -0.335   8.494  10.545 -0.3403  0.9141  0.0922
  708MOL0     H93433  -0.284   8.605  10.674  0.6491  1.1066 -0.3660
  708MOL0     H93434  -0.205   8.305  10.616 -1.6511 -0.3542  0.4550
  708MOL0     H93435  -0.118   8.396  10.735 -2.1217 -0.9856  3.2792
  708MOL0     H93436  -0.360   8.456  10.854 -2.2600 -0.5923  0.6705
  708MOL0     H93437  -0.302   8.285  10.853  1.0885 -0.7217 -0.2956
  708MOL0     H93438   0.302   8.888  10.053 -1.3283 -0.5111  1.2992
  708MOL0     H93439   0.570   8.915  10.020 -1.1332 -0.6519 -1.2811
  708MOL0     H93440   0.949   9.127  10.320 -1.1908 -0.4291 -0.2053
  708MOL0     H93441   1.197   9.170  10.329  1.2998 -1.9984  0.6742
  708MOL0     H93442   3.050   9.409   9.772 -2.2377 -0.7932 -0.0822
  708MOL0     H93443   3.293   9.392   9.771 -3.6210 -0.1779  0.4396
  708MOL0     H93444   3.623   9.118   9.564 -0.3917 -0.6720  1.0481
  708MOL0     H93445   3.843   9.031   9.599 -1.2790  0.2846 -0.0466
  708MOL0     H93446   4.115   9.033   9.531 -0.3024  0.4319 -0.2720
  708MOL0     H93447   4.067   8.991   9.701  2.1016 -0.5229 -0.2338
  708MOL0     H93448   4.270   9.028   9.782 -0.6808  0.2076 -0.5603
  708MOL0     H93449   4.324   8.968   9.631  1.6415  0.7323  0.5582
  708MOL0     H93450   4.309   9.271   9.697 -0.3700 -0.1841 -0.1460
  708MOL0     H93451   4.334   9.206   9.532  1.4902  2.4595  0.3703
  708MOL0     H93452   4.520   9.139   9.761 -1.1949 -0.9576  0.0870
  708MOL0     H93453   4.523   9.083   9.587 -0.0679  0.5447 -1.0426
  708MOL0     H93454   4.635   9.490   9.560 -0.6452 -1.9091 -5.7649
  708MOL0     H93455   3.987   9.423   9.683  0.8759 -0.3617  0.4460
  708MOL0     H93456   3.772   9.517   9.664  1.3297  1.1426  0.2254
  709MOL0     O93457   5.201   4.470   6.194 -0.2393  0.4020  0.6147
  709MOL0     C93458   5.243   4.421   6.086  0.1364 -1.1768 -0.4760
  709MOL0     O93459   5.371   4.449   6.040  0.3763 -0.2871  0.3244
  709MOL0     C93460   5.466   4.514   6.117  0.0838  0.5172  0.7829
  709MOL0     C93461   5.526   4.450   6.225  0.0123 -0.5781  0.9190
  709MOL0     C93462   5.615   4.518   6.305  0.5869 -0.5188  0.0922
  709MOL0     C93463   5.658   4.653   6.279 -0.1121  0.7589 -0.0295
  709MOL0     O93464   5.737   4.723   6.366  0.0256  0.3352 -0.2539
  709MOL0     C93465   5.862   4.665   6.395  0.2003 -0.4794  0.2015
  709MOL0     C93466   5.955   4.769   6.470  1.1016  0.7842  0.8699
  709MOL0     C93467   5.997   4.876   6.374  0.2539 -0.2023 -0.9485
  709MOL0     C93468   6.096   4.968   6.451 -0.2010 -0.5094 -0.7949
  709MOL0     C93469   6.024   5.062   6.562  0.5893 -0.3004  1.1102
  709MOL0     C93470   6.122   5.090   6.667 -0.0877 -0.5323 -0.6539
  709MOL0     C93471   6.066   5.187   6.769 -0.6193 -0.7376  0.9335
  709MOL0     C93472   6.027   5.131   6.907 -0.8743 -0.5255  0.2041
  709MOL0     N93473   5.909   5.050   6.889 -0.6518  0.0019 -0.5408
  709MOL0     C93474   5.790   5.089   6.859  0.3365 -0.2871  0.2258
  709MOL0     C93475   5.714   4.979   6.837  0.2475  0.5783  0.5955
  709MOL0     C93476   5.573   4.963   6.793 -0.2854  0.6738 -0.4730
  709MOL0     C93477   5.488   5.021   6.904 -0.2918 -0.3466  0.0846
  709MOL0     C93478   5.339   4.976   6.881  0.1440 -0.1723 -0.0445
  709MOL0     C93479   5.267   5.061   6.776 -0.2137  0.6013  0.2891
  709MOL0     O93480   5.129   5.020   6.755  0.1979  0.1100 -0.4192
  709MOL0     C93481   5.017   5.090   6.805  1.0128 -1.1643  0.3579
  709MOL0     C93482   5.027   5.200   6.899 -0.5311 -0.2935 -0.2904
  709MOL0     C93483   4.918   5.266   6.945 -0.1399 -0.4280 -0.5941
  709MOL0     C93484   4.785   5.237   6.895 -0.2636 -0.3675 -1.0171
  709MOL0     C93485   4.669   5.287   6.961  0.2512  0.2792 -0.3142
  709MOL0     O93486   4.544   5.254   6.905  0.2627 -0.2032 -0.1945
  709MOL0     C93487   4.429   5.291   6.972  0.4414  0.0818 -0.3385
  709MOL0     C93488   4.403   5.240   7.100  0.0425  0.6694 -0.3394
  709MOL0     C93489   4.298   5.287   7.180  0.0752  0.8758  0.2111
  709MOL0     C93490   4.198   5.372   7.129  0.9486 -0.0712  0.3776
  709MOL0     O93491   4.091   5.417   7.210  0.1830 -0.3347 -0.9103
  709MOL0     C93492   3.971   5.458   7.149  0.7015 -0.6369  0.3091
  709MOL0     C93493   3.872   5.445   7.271  0.2440 -0.0297 -0.5310
  709MOL0     C93494   3.903   5.547   7.383 -0.1102  0.0725 -0.0771
  709MOL0     C93495   3.788   5.561   7.479 -0.0865 -0.9558 -0.1212
  709MOL0     C93496   3.816   5.647   7.599  1.1013  0.2078  0.3616
  709MOL0     C93497   3.683   5.681   7.678  0.0102  0.2022 -0.7271
  709MOL0     C93498   3.728   5.758   7.796  0.3710  0.1775  0.3934
  709MOL0     C93499   3.616   5.813   7.876 -0.0241  0.8856 -1.4877
  709MOL0    Cl93500   3.690   5.868   8.035 -0.0278 -0.1867  0.0527
  709MOL0     C93501   4.218   5.420   6.995  0.3172 -0.4722  0.1970
  709MOL0     C93502   4.338   5.380   6.923  0.7290  0.1221 -0.3476
  709MOL0     O93503   4.691   5.338   7.073  0.5959 -0.2334 -0.0655
  709MOL0     C93504   4.775   5.130   6.804 -0.1138  0.3309 -0.0854
  709MOL0     C93505   4.889   5.072   6.755 -0.6676 -0.0742  0.3866
  709MOL0     N93506   5.800   4.874   6.851 -0.3980  0.1192  0.9669
  709MOL0     N93507   5.908   4.915   6.891 -0.3223  0.5681 -0.0344
  709MOL0     C93508   5.599   4.718   6.167  0.7673 -0.7658  0.6985
  709MOL0     C93509   5.506   4.647   6.089  0.8068  1.0857  0.0708
  709MOL0     C93510   5.152   4.331   6.003 -0.3420  0.3559 -0.1922
  709MOL0     C93511   5.015   4.313   6.024 -0.1585  0.6531  0.6689
  709MOL0     C93512   4.943   4.213   5.956 -0.2563 -0.1443  0.2415
  709MOL0     C93513   5.001   4.140   5.856  0.3842 -0.1862  0.1426
  709MOL0     O93514   4.938   4.044   5.777  0.5445 -0.1671 -0.5497
  709MOL0     C93515   4.796   4.050   5.754 -0.6683 -0.1521 -0.0508
  709MOL0     C93516   4.729   3.948   5.850 -0.7370  0.0808 -0.2289
  709MOL0     C93517   4.576   3.944   5.830 -0.1270 -0.0193 -0.5425
  709MOL0     C93518   4.519   3.838   5.927  0.7197 -0.1577  0.7602
  709MOL0     C93519   4.375   3.851   5.889  0.2924  0.4400  0.3083
  709MOL0     C93520   4.258   3.862   5.853  0.2945 -0.6654 -0.8244
  709MOL0     C93521   5.130   4.166   5.828 -0.3288  0.2547 -0.4219
  709MOL0     C93522   5.204   4.265   5.900  0.5578 -0.4491  0.0755
  709MOL0     H93523   5.519   4.343   6.242  3.6800 -0.7472  2.2939
  709MOL0     H93524   5.666   4.479   6.392  0.2693  0.2089  0.6150
  709MOL0     H93525   5.897   4.635   6.296 -0.2590  0.8869 -0.4022
  709MOL0     H93526   5.861   4.573   6.454  1.5729  1.1212  2.9423
  709MOL0     H93527   6.039   4.718   6.519  0.3744  0.8211  2.2195
  709MOL0     H93528   5.899   4.801   6.559 -2.0430  0.7893 -0.9406
  709MOL0     H93529   5.912   4.932   6.334 -0.2744 -1.2529 -1.3127
  709MOL0     H93530   6.052   4.834   6.289  1.9274  3.6311 -2.0194
  709MOL0     H93531   6.173   4.906   6.499  1.0712  2.0680  0.7440
  709MOL0     H93532   6.149   5.038   6.385  0.2324 -3.3608 -3.6760
  709MOL0     H93533   5.937   5.009   6.602 -0.7121 -0.3293 -1.5323
  709MOL0     H93534   5.997   5.149   6.501  1.8815 -0.2512  0.5752
  709MOL0     H93535   6.217   5.126   6.627  0.3544  1.5701  2.0242
  709MOL0     H93536   6.146   4.998   6.720 -0.9197 -0.7324 -0.6142
  709MOL0     H93537   6.150   5.255   6.789 -0.8425 -0.3830  0.6555
  709MOL0     H93538   5.984   5.248   6.732  0.1891  0.7163  1.4553
  709MOL0     H93539   6.012   5.216   6.975  1.0261  0.5572 -0.6383
  709MOL0     H93540   6.107   5.069   6.950  1.0679  0.0847 -2.2846
  709MOL0     H93541   5.756   5.192   6.853  2.1285  0.2599 -1.1702
  709MOL0     H93542   5.546   4.858   6.781 -0.3476  0.4902  1.1642
  709MOL0     H93543   5.552   5.016   6.700 -3.0680 -0.4634 -0.5707
  709MOL0     H93544   5.485   5.130   6.910 -0.3007 -0.0268 -3.3655
  709MOL0     H93545   5.519   4.989   7.004  1.8377  2.6113  0.5129
  709MOL0     H93546   5.333   4.872   6.850  0.0246  0.3822 -2.0056
  709MOL0     H93547   5.279   4.985   6.972 -1.7049 -1.4082 -1.0837
  709MOL0     H93548   5.318   5.043   6.680 -0.5450  2.4384 -0.2705
  709MOL0     H93549   5.290   5.162   6.810  0.4263  0.2115  1.0714
  709MOL0     H93550   5.122   5.225   6.945  0.4398 -4.0240  0.0933
  709MOL0     H93551   4.942   5.331   7.029  0.9226 -2.0311  0.3987
  709MOL0     H93552   4.464   5.160   7.141 -1.6840 -0.3376  0.4134
  709MOL0     H93553   4.271   5.254   7.280 -1.2075 -2.7183 -1.1653
  709MOL0     H93554   3.947   5.395   7.063 -4.0342 -0.0018  0.8649
  709MOL0     H93555   3.973   5.559   7.107  1.9155 -0.7958 -0.0290
  709MOL0     H93556   3.865   5.342   7.306  2.0110  0.3329  1.0050
  709MOL0     H93557   3.777   5.468   7.220 -0.7421  0.8724  1.6024
  709MOL0     H93558   3.923   5.641   7.331  1.8566 -1.9535 -3.2684
  709MOL0     H93559   3.991   5.515   7.438  0.2336  1.0023 -0.0632
  709MOL0     H93560   3.708   5.602   7.417  0.4127 -2.7661 -2.0800
  709MOL0     H93561   3.756   5.461   7.511  0.2618 -1.9254 -2.5778
  709MOL0     H93562   3.870   5.740   7.578  1.3176 -0.2930 -1.4623
  709MOL0     H93563   3.887   5.604   7.672  1.7812  0.5945 -0.0608
  709MOL0     H93564   3.647   5.581   7.705  1.4739  0.6408  3.7370
  709MOL0     H93565   3.624   5.748   7.615  1.6758  1.3855 -1.0970
  709MOL0     H93566   3.789   5.687   7.853  2.2893  1.5486  0.1384
  709MOL0     H93567   3.785   5.846   7.766  0.5224 -0.2325 -0.5749
  709MOL0     H93568   3.541   5.733   7.888  0.9265 -0.0259 -1.5035
  709MOL0     H93569   3.566   5.899   7.832  1.3170  2.0222 -0.8681
  709MOL0     H93570   4.143   5.493   6.966 -1.4018 -1.9912  0.6207
  709MOL0     H93571   4.361   5.434   6.832  0.0040 -0.0712 -0.6508
  709MOL0     H93572   4.679   5.098   6.765 -0.5191  1.3602  0.0280
  709MOL0     H93573   4.879   4.999   6.675 -3.9121  0.2605  0.3589
  709MOL0     H93574   5.621   4.823   6.150  1.0022 -1.0816 -1.0976
  709MOL0     H93575   5.453   4.695   6.007 -2.0591  0.9249  1.6919
  709MOL0     H93576   4.968   4.357   6.112  0.4497  1.8076  0.4413
  709MOL0     H93577   4.838   4.191   5.978 -0.1180 -1.2231 -0.1067
  709MOL0     H93578   4.789   4.022   5.648  2.1037 -1.4704  0.0355
  709MOL0     H93579   4.765   4.152   5.781  1.8436  0.0437  2.5644
  709MOL0     H93580   4.778   3.851   5.850  2.8948  1.7213  1.7764
  709MOL0     H93581   4.742   3.983   5.953  0.2976 -1.6769  0.2700
  709MOL0     H93582   4.568   3.913   5.725 -2.9590 -2.1657  0.1877
  709MOL0     H93583   4.523   4.039   5.836 -1.3417 -0.7750  3.4421
  709MOL0     H93584   4.554   3.739   5.898 -1.5440 -0.2606 -2.1570
  709MOL0     H93585   4.534   3.853   6.034 -0.1201 -2.8173  1.3276
  709MOL0     H93586   4.155   3.850   5.825  0.0766 -0.4774 -0.1346
  709MOL0     H93587   5.175   4.104   5.751 -2.1135 -0.3446 -1.0315
  709MOL0     H93588   5.307   4.286   5.872  0.3072 -1.5252 -1.8091
  710MOL0     O93589   1.842   1.733   0.338 -0.2667 -0.8540  0.5267
  710MOL0     C93590   1.895   1.677   0.243 -0.1382  0.1708 -0.6143
  710MOL0     O93591   1.830   1.625   0.123 -0.0804 -0.1529 -0.7135
  710MOL0     C93592   1.694   1.626   0.125  0.0986 -0.6084 -0.3287
  710MOL0     C93593   1.632   1.732   0.057 -0.4486  1.2116  0.0220
  710MOL0     C93594   1.502   1.758   0.080 -0.4711 -0.6958 -0.2073
  710MOL0     C93595   1.415   1.682   0.161 -0.1387 -0.0516 -1.2058
  710MOL0     O93596   1.286   1.729   0.189 -0.1169 -0.4148 -0.4184
  710MOL0     C93597   1.186   1.629   0.218  0.1349 -0.6814 -0.1421
  710MOL0     C93598   1.118   1.672   0.350  0.0684  0.4209 -0.9426
  710MOL0     C93599   1.021   1.790   0.324 -0.0769  0.0001 -0.7915
  710MOL0     C93600   0.927   1.822   0.437  0.4722  0.4291 -0.6905
  710MOL0     C93601   0.795   1.741   0.425  0.0978 -0.6949 -1.0072
  710MOL0     C93602   0.721   1.754   0.555  0.3749  0.6222 -0.0525
  710MOL0     C93603   0.571   1.700   0.541  0.4302 -0.6617 -1.0375
  710MOL0     C93604   0.557   1.565   0.472 -0.1952  0.0019  0.0203
  710MOL0     N93605   0.416   1.515   0.480 -1.0153  0.3432 -0.4544
  710MOL0     C93606   0.367   1.438   0.574 -0.0480  0.7420  0.2198
  710MOL0     C93607   0.235   1.414   0.529 -0.4261 -0.3544 -0.5260
  710MOL0     C93608   0.132   1.327   0.605 -0.3619  0.9221 -0.2335
  710MOL0     C93609  -0.007   1.311   0.535 -1.1692  0.5838  0.9813
  710MOL0     C93610  -0.102   1.427   0.567 -0.4504  0.7600  0.7474
  710MOL0     C93611  -0.241   1.402   0.512  0.8639 -1.2293 -0.4133
  710MOL0     O93612  -0.317   1.526   0.497 -0.4007 -0.4591 -0.5027
  710MOL0     C93613  -0.448   1.509   0.441 -0.0855  0.9616 -1.1384
  710MOL0     C93614  -0.532   1.398   0.433 -1.4239 -0.3993  0.1894
  710MOL0     C93615  -0.651   1.396   0.360 -0.8301 -0.4951  0.0030
  710MOL0     C93616  -0.681   1.504   0.277  0.1848 -0.0798  0.9828
  710MOL0     C93617  -0.803   1.509   0.189  0.5833 -0.3109  0.3173
  710MOL0     O93618  -0.901   1.413   0.191 -0.0428 -0.2326 -1.1883
  710MOL0     C93619  -1.014   1.419   0.120  0.6184  0.3009  0.4885
  710MOL0     C93620  -1.034   1.487  -0.005  0.4505  0.1362  0.4941
  710MOL0     C93621  -1.158   1.482  -0.069 -0.3357 -0.0061  0.3238
  710MOL0     C93622  -1.265   1.419  -0.016 -0.2345 -0.2199  0.4386
  710MOL0     O93623  -1.382   1.426  -0.082 -0.4847  0.5952  0.2839
  710MOL0     C93624  -1.496   1.346  -0.048 -0.3241  0.4389 -0.5107
  710MOL0     C93625  -1.576   1.326  -0.175  0.4507 -0.1524  0.0795
  710MOL0     C93626  -1.714   1.272  -0.151  0.1688  0.7248 -0.9497
  710MOL0     C93627  -1.789   1.261  -0.285 -0.1744  0.5570 -0.6678
  710MOL0     C93628  -1.938   1.215  -0.253  0.6123  0.4734  0.1880
  710MOL0     C93629  -2.021   1.211  -0.387  0.2421 -0.2587 -0.0279
  710MOL0     C93630  -2.168   1.221  -0.358 -0.5872 -0.7544 -0.0090
  710MOL0     C93631  -2.250   1.223  -0.491 -0.2615 -0.1479  0.1300
  710MOL0    Cl93632  -2.427   1.231  -0.463 -0.3900 -0.0667 -0.2015
  710MOL0     C93633  -1.244   1.354   0.099 -1.1364  0.2561 -0.7357
  710MOL0     C93634  -1.122   1.349   0.168  0.5448  0.3515  0.1657
  710MOL0     O93635  -0.817   1.616   0.129 -0.6064  0.5578 -0.4714
  710MOL0     C93636  -0.599   1.612   0.277 -0.0467  0.5812  0.5909
  710MOL0     C93637  -0.491   1.623   0.364 -0.2313  1.2339  0.6711
  710MOL0     N93638   0.210   1.484   0.424 -0.1486 -0.9885 -0.2626
  710MOL0     N93639   0.322   1.546   0.389 -0.3246  0.1906  0.4024
  710MOL0     C93640   1.471   1.571   0.225 -0.1090 -0.2890  0.4263
  710MOL0     C93641   1.612   1.551   0.208 -0.7943 -0.0576 -0.1989
  710MOL0     C93642   2.049   1.675   0.238  1.0270  0.5074  0.6803
  710MOL0     C93643   2.119   1.629   0.125  0.3483  0.7803 -0.5334
  710MOL0     C93644   2.256   1.625   0.109 -0.3983  1.0510  0.6444
  710MOL0     C93645   2.327   1.662   0.220  0.2728 -0.1566 -0.2021
  710MOL0     O93646   2.466   1.670   0.210  0.0583 -0.0746  0.1567
  710MOL0     C93647   2.545   1.561   0.259  0.1117 -0.0336 -0.8211
  710MOL0     C93648   2.677   1.615   0.316  0.5085  0.7405 -0.1541
  710MOL0     C93649   2.762   1.660   0.194  1.1604 -1.0419 -0.5779
  710MOL0     C93650   2.898   1.688   0.237  0.3788  0.2735 -1.2176
  710MOL0     C93651   2.992   1.720   0.135 -0.4657  0.3287  0.9019
  710MOL0     C93652   3.076   1.745   0.058 -0.4437 -0.0659  0.2533
  710MOL0     C93653   2.260   1.705   0.335 -0.2512  0.0737  0.1053
  710MOL0     C93654   2.125   1.710   0.352 -0.1580  0.3905 -0.2166
  710MOL0     H93655   1.686   1.802  -0.006 -1.2143  0.6001 -1.3600
  710MOL0     H93656   1.452   1.831   0.018 -4.9989 -2.5405  0.8473
  710MOL0     H93657   1.221   1.526   0.216 -1.0222 -1.0853 -0.2757
  710MOL0     H93658   1.110   1.631   0.139  0.6238 -2.5669 -0.7130
  710MOL0     H93659   1.192   1.699   0.427 -1.1903 -0.5325  0.6707
  710MOL0     H93660   1.063   1.584   0.386  0.4035  0.5606 -0.0510
  710MOL0     H93661   0.970   1.762   0.232 -0.0678 -0.7698 -0.5689
  710MOL0     H93662   1.080   1.880   0.302 -0.7104  0.5142 -0.4113
  710MOL0     H93663   0.970   1.804   0.536 -2.0731 -0.5016  0.3341
  710MOL0     H93664   0.908   1.930   0.437  0.4225  0.4205 -1.1418
  710MOL0     H93665   0.818   1.636   0.402 -1.5323 -1.4766  0.6388
  710MOL0     H93666   0.735   1.763   0.337 -1.4429 -1.4758 -0.1971
  710MOL0     H93667   0.717   1.852   0.603  0.6427 -0.7489  2.9464
  710MOL0     H93668   0.780   1.697   0.626 -0.0460 -2.4951 -2.0027
  710MOL0     H93669   0.528   1.696   0.642 -0.8060 -0.7208 -1.5573
  710MOL0     H93670   0.504   1.762   0.482 -0.8933 -0.4488  0.6054
  710MOL0     H93671   0.625   1.499   0.527 -2.1961 -0.4829  2.0835
  710MOL0     H93672   0.592   1.574   0.369 -0.8561  2.5507 -0.0439
  710MOL0     H93673   0.413   1.381   0.654  0.9436  0.9895 -0.1549
  710MOL0     H93674   0.124   1.356   0.710 -0.1836 -1.7916  0.5880
  710MOL0     H93675   0.179   1.229   0.612  1.1461  1.7279  2.2880
  710MOL0     H93676  -0.051   1.219   0.577  0.2245  0.0369  1.2946
  710MOL0     H93677   0.002   1.313   0.426  2.2741  0.9311  1.1782
  710MOL0     H93678  -0.115   1.430   0.676  3.2453 -0.2988  1.3473
  710MOL0     H93679  -0.060   1.522   0.532  0.5155 -0.5847 -1.9755
  710MOL0     H93680  -0.303   1.333   0.571 -1.8230  1.1734 -0.2018
  710MOL0     H93681  -0.220   1.349   0.419  1.2551 -3.0469  0.6590
  710MOL0     H93682  -0.504   1.315   0.497  0.1809  0.3361  0.4626
  710MOL0     H93683  -0.725   1.317   0.368  2.2684 -3.5267  1.8679
  710MOL0     H93684  -0.952   1.532  -0.061  2.8620 -3.6593  0.6290
  710MOL0     H93685  -1.183   1.545  -0.153  3.5153  1.5701  0.1767
  710MOL0     H93686  -1.561   1.407   0.015 -1.0610 -2.7213  2.0367
  710MOL0     H93687  -1.467   1.253   0.003  1.5892  0.2278 -1.8788
  710MOL0     H93688  -1.520   1.263  -0.244  0.2365  2.1513 -2.3733
  710MOL0     H93689  -1.593   1.425  -0.217 -2.2044 -1.1652 -1.5121
  710MOL0     H93690  -1.764   1.343  -0.085  0.8459  1.0084 -0.7354
  710MOL0     H93691  -1.716   1.178  -0.096  0.9363 -0.3215 -2.6367
  710MOL0     H93692  -1.793   1.360  -0.331 -1.2636  1.7140  1.7207
  710MOL0     H93693  -1.738   1.188  -0.349 -2.8801  0.3167 -2.7253
  710MOL0     H93694  -1.980   1.289  -0.184 -1.3382 -2.3261  2.2798
  710MOL0     H93695  -1.937   1.122  -0.195  0.9480  1.8811  2.5637
  710MOL0     H93696  -1.994   1.123  -0.446  0.4290  1.0182 -1.9358
  710MOL0     H93697  -1.996   1.304  -0.439 -1.1332  1.8227  2.7810
  710MOL0     H93698  -2.196   1.131  -0.304  0.5877 -0.2764  1.4604
  710MOL0     H93699  -2.183   1.306  -0.291 -1.0493 -0.3154 -0.6461
  710MOL0     H93700  -2.225   1.136  -0.551  2.9466 -1.4567  2.9958
  710MOL0     H93701  -2.211   1.304  -0.554 -0.1837 -0.5137 -0.2931
  710MOL0     H93702  -1.331   1.303   0.141 -0.4449  1.0348  1.8513
  710MOL0     H93703  -1.116   1.299   0.265  1.4937  0.5635  0.2265
  710MOL0     H93704  -0.608   1.696   0.208  0.7966  0.5628  0.4509
  710MOL0     H93705  -0.430   1.712   0.352 -0.7945  1.4392 -1.0291
  710MOL0     H93706   1.408   1.514   0.293  0.1624  1.8023  2.6057
  710MOL0     H93707   1.652   1.478   0.278 -2.3533  1.1880  2.1663
  710MOL0     H93708   2.061   1.596   0.039  0.8435  2.2624 -1.4762
  710MOL0     H93709   2.299   1.588   0.017  0.4278 -0.5245  1.6207
  710MOL0     H93710   2.546   1.484   0.181 -0.7600 -2.5279  1.4365
  710MOL0     H93711   2.499   1.509   0.344  3.8359  2.2236  2.9576
  710MOL0     H93712   2.659   1.703   0.379 -1.4308  1.2733 -1.3687
  710MOL0     H93713   2.726   1.549   0.388  0.2829 -0.5839 -1.1783
  710MOL0     H93714   2.714   1.751   0.158  2.4724  0.6242  1.6275
  710MOL0     H93715   2.751   1.574   0.128 -1.2153 -1.2659  0.0400
  710MOL0     H93716   2.892   1.773   0.307 -0.2448 -1.0711  0.4373
  710MOL0     H93717   2.945   1.607   0.294  0.4042  0.2974 -1.2038
  710MOL0     H93718   3.154   1.765  -0.012  1.1414  1.7081  2.3986
  710MOL0     H93719   2.316   1.740   0.421 -3.3577 -0.0667  2.3726
  710MOL0     H93720   2.086   1.743   0.447  0.9472 -0.1634  0.4508
  711MOL0     O93721   1.031  10.840   8.775  0.4714  0.4048  0.7687
  711MOL0     C93722   1.061  10.800   8.660 -0.4347 -0.7830 -0.4091
  711MOL0     O93723   0.972  10.734   8.584 -0.4399 -0.4203  0.4454
  711MOL0     C93724   0.868  10.664   8.656 -0.3664 -0.6875 -0.6747
  711MOL0     C93725   0.882  10.531   8.709 -0.6619  0.1673 -0.2377
  711MOL0     C93726   0.783  10.474   8.790  0.7138  0.2304 -0.0496
  711MOL0     C93727   0.662  10.543   8.810  0.1178 -0.9715  0.4212
  711MOL0     O93728   0.563  10.484   8.890  0.5284 -0.2164 -0.3485
  711MOL0     C93729   0.589  10.362   8.962 -0.8807 -0.2956 -0.2352
  711MOL0     C93730   0.458  10.315   9.035  0.7892 -0.5258  0.5537
  711MOL0     C93731   0.469  10.177   9.115 -0.5485 -0.0814 -0.0406
  711MOL0     C93732   0.335  10.156   9.191 -0.2882  0.6882 -0.1810
  711MOL0     C93733   0.217  10.149   9.093 -0.3910 -0.1377  0.5457
  711MOL0     C93734   0.107  10.057   9.140 -0.9778  0.2941 -0.0565
  711MOL0     C93735  -0.022  10.068   9.056  0.1984 -0.1630 -0.4605
  711MOL0     C93736  -0.115   9.956   9.105 -0.2634  0.1069 -0.2648
  711MOL0     N93737  -0.252   9.964   9.045 -0.1760 -0.6877  0.4294
  711MOL0     C93738  -0.313  10.062   8.970 -0.8938  0.3235 -0.1442
  711MOL0     C93739  -0.443  10.030   8.965  0.2945 -0.0677  0.0823
  711MOL0     C93740  -0.559  10.102   8.890 -0.8038  0.0344 -0.2481
  711MOL0     C93741  -0.669  10.142   8.986  0.4880 -0.4095  0.0545
  711MOL0     C93742  -0.765  10.246   8.927  0.3573  0.1545 -0.3543
  711MOL0     C93743  -0.894  10.235   9.014  0.5877  0.1250 -0.6333
  711MOL0     O93744  -0.988  10.351   8.989  0.4757 -0.2000 -0.5926
  711MOL0     C93745  -1.093  10.370   9.074 -0.3192 -0.2635  0.1904
  711MOL0     C93746  -1.146  10.261   9.151  0.2727 -0.1465  0.7664
  711MOL0     C93747  -1.257  10.283   9.231 -0.0469 -0.1127  0.3060
  711MOL0     C93748  -1.323  10.413   9.240 -0.7500  0.4702 -0.4887
  711MOL0     C93749  -1.445  10.430   9.316  0.4542 -0.1880 -0.7085
  711MOL0     O93750  -1.492  10.318   9.380 -0.4450  0.4029 -0.0106
  711MOL0     C93751  -1.609  10.314   9.450  0.4627  0.3009 -0.4621
  711MOL0     C93752  -1.615  10.210   9.539 -0.5209 -0.5075 -0.3000
  711MOL0     C93753  -1.740  10.178   9.602 -0.6299 -0.2202  0.1199
  711MOL0     C93754  -1.857  10.249   9.576  0.5304 -0.0432  0.9010
  711MOL0     O93755  -1.984  10.194   9.619  0.8174 -0.3132 -0.4080
  711MOL0     C93756  -2.100  10.278   9.586  0.0056  1.2272 -0.2724
  711MOL0     C93757  -2.233  10.216   9.636  0.1780  0.9484  0.2062
  711MOL0     C93758  -2.212  10.135   9.767  1.4895  0.0272  0.6362
  711MOL0     C93759  -2.341  10.085   9.829  0.7261 -0.8788 -0.1254
  711MOL0     C93760  -2.316  10.054   9.980 -0.0056 -1.0449  0.4578
  711MOL0     C93761  -2.435   9.974  10.040 -0.0444 -0.5686  0.0587
  711MOL0     C93762  -2.571  10.040  10.006  0.7210  0.4442 -0.5819
  711MOL0     C93763  -2.688   9.994  10.106 -0.7172 -0.0153  0.8743
  711MOL0    Cl93764  -2.839  10.091  10.076 -0.2246 -0.3717  0.0757
  711MOL0     C93765  -1.849  10.359   9.488  0.1292  0.2351  0.4404
  711MOL0     C93766  -1.723  10.385   9.430 -0.1112  0.1893  0.2688
  711MOL0     O93767  -1.515  10.530   9.292  0.2352  0.3425  0.2375
  711MOL0     C93768  -1.260  10.518   9.157 -0.2254 -0.2968 -0.7259
  711MOL0     C93769  -1.149  10.490   9.076  0.1655  0.7717 -0.1363
  711MOL0     N93770  -0.463   9.913   9.032 -0.1365 -0.4193 -0.7226
  711MOL0     N93771  -0.352   9.879   9.068 -0.2718 -0.4928  0.0067
  711MOL0     C93772   0.638  10.665   8.746 -0.3863 -0.0760  0.4156
  711MOL0     C93773   0.740  10.730   8.674  0.0496 -0.0858  0.2129
  711MOL0     C93774   1.195  10.831   8.601 -0.9529  0.7477 -0.1607
  711MOL0     C93775   1.219  10.789   8.469 -0.6217  0.3352  0.6756
  711MOL0     C93776   1.343  10.808   8.409 -0.5166 -0.6340  0.9521
  711MOL0     C93777   1.447  10.869   8.489 -1.0098 -0.7551  0.3728
  711MOL0     O93778   1.573  10.899   8.443  0.0787 -0.4282 -0.0723
  711MOL0     C93779   1.609  10.861   8.310  0.4069  0.6575  0.4448
  711MOL0     C93780   1.751  10.881   8.266  0.0747  0.3344  0.1408
  711MOL0     C93781   1.844  10.759   8.286  0.0963 -0.3062  0.0644
  711MOL0     C93782   1.988  10.785   8.250 -1.0736 -1.1177  0.8619
  711MOL0     C93783   2.008  10.767   8.109  0.2214 -1.1702  0.7968
  711MOL0     C93784   2.013  10.753   7.989  0.2464  0.2326 -1.1669
  711MOL0     C93785   1.425  10.906   8.623  0.1709  1.1569  0.6025
  711MOL0     C93786   1.300  10.890   8.682  0.2891 -0.4600  0.0282
  711MOL0     H93787   0.976  10.479   8.696 -1.3535 -0.7566 -1.7562
  711MOL0     H93788   0.798  10.377   8.835  1.2292  1.2395  2.1170
  711MOL0     H93789   0.670  10.385   9.032 -0.9142  0.3401 -0.4020
  711MOL0     H93790   0.625  10.283   8.895  0.5714  2.3629 -2.8367
  711MOL0     H93791   0.381  10.315   8.958 -0.4890  0.4700  1.7945
  711MOL0     H93792   0.437  10.393   9.109  2.5503 -1.4431  2.0950
  711MOL0     H93793   0.554  10.185   9.184 -0.4749  2.1163 -0.3166
  711MOL0     H93794   0.496  10.104   9.038  1.1361  1.3497 -0.8724
  711MOL0     H93795   0.349  10.063   9.245  1.9222  2.0554  1.8166
  711MOL0     H93796   0.320  10.235   9.266  0.2582 -0.8690  1.6276
  711MOL0     H93797   0.267  10.113   9.003 -1.9492 -3.3709  0.8206
  711MOL0     H93798   0.174  10.246   9.069  0.3008  0.1004  0.2246
  711MOL0     H93799   0.081  10.080   9.244 -0.9465 -0.9660  0.2425
  711MOL0     H93800   0.147   9.956   9.149  0.3030  0.8379  0.6767
  711MOL0     H93801  -0.071  10.165   9.070 -4.1081 -2.5687  4.4366
  711MOL0     H93802  -0.010  10.074   8.947 -1.7127  0.4545 -0.6782
  711MOL0     H93803  -0.135   9.965   9.212 -1.0042  2.9096 -0.5706
  711MOL0     H93804  -0.074   9.856   9.087  0.1338  0.2654 -0.2410
  711MOL0     H93805  -0.266  10.154   8.936 -0.5017 -0.6101 -2.2491
  711MOL0     H93806  -0.602  10.043   8.809  0.7291 -1.9400  0.2814
  711MOL0     H93807  -0.519  10.190   8.839 -1.5731 -0.4301 -1.7047
  711MOL0     H93808  -0.648  10.182   9.085 -3.1436 -0.5601  1.0134
  711MOL0     H93809  -0.712  10.042   8.996  0.3731 -0.6812 -2.4862
  711MOL0     H93810  -0.718  10.345   8.932 -0.8169  0.8981 -2.4945
  711MOL0     H93811  -0.793  10.222   8.824 -1.7125 -0.9576  0.4032
  711MOL0     H93812  -0.860  10.245   9.118  1.5451  0.8150 -0.9884
  711MOL0     H93813  -0.931  10.133   9.003  0.2844 -0.0286  1.4092
  711MOL0     H93814  -1.093  10.166   9.155  2.4279  0.9232 -0.5291
  711MOL0     H93815  -1.279  10.204   9.302 -0.6457  1.4654  1.9651
  711MOL0     H93816  -1.531  10.145   9.560  2.6357  3.2234 -0.3595
  711MOL0     H93817  -1.747  10.098   9.675 -2.0977 -1.0643 -0.8891
  711MOL0     H93818  -2.110  10.272   9.477 -1.3247 -0.0620 -0.1159
  711MOL0     H93819  -2.097  10.382   9.619 -4.7177  0.6444  2.7938
  711MOL0     H93820  -2.267  10.144   9.561  0.5626  1.3359 -0.3390
  711MOL0     H93821  -2.308  10.294   9.650 -0.2453  0.6920 -0.5638
  711MOL0     H93822  -2.158  10.197   9.839 -1.5046  1.7313  1.6231
  711MOL0     H93823  -2.151  10.050   9.736  2.6744  1.5941 -1.5906
  711MOL0     H93824  -2.426  10.152   9.814  1.0231 -0.5257 -0.2462
  711MOL0     H93825  -2.371   9.997   9.771  0.5785 -0.9478  0.0563
  711MOL0     H93826  -2.300  10.147  10.035 -2.0233 -1.1462  1.3163
  711MOL0     H93827  -2.230   9.989   9.997  0.2979 -0.5409  0.8720
  711MOL0     H93828  -2.418   9.981  10.148  3.0249  2.3073 -0.4353
  711MOL0     H93829  -2.437   9.869  10.008 -1.2355 -0.6573  0.3497
  711MOL0     H93830  -2.566  10.148  10.015  0.5298  0.8435 -3.8710
  711MOL0     H93831  -2.597  10.016   9.902 -2.7482  3.0336 -0.4602
  711MOL0     H93832  -2.654  10.003  10.209 -1.4850 -0.0252  1.1324
  711MOL0     H93833  -2.708   9.889  10.084  2.3022 -0.9948  2.2751
  711MOL0     H93834  -1.939  10.418   9.473  1.7007  2.1185 -2.4485
  711MOL0     H93835  -1.721  10.461   9.352 -1.4648  0.3334  0.3410
  711MOL0     H93836  -1.299  10.620   9.149  0.3072  0.0920  1.1644
  711MOL0     H93837  -1.106  10.567   9.013  2.1033  0.9409  1.3012
  711MOL0     H93838   0.537  10.705   8.756 -1.4968 -2.7648  0.7816
  711MOL0     H93839   0.711  10.823   8.626 -2.8063 -0.7785  0.4449
  711MOL0     H93840   1.141  10.751   8.404  1.8866 -1.9592 -1.2330
  711MOL0     H93841   1.353  10.780   8.305 -1.8209 -0.1315  0.6660
  711MOL0     H93842   1.538  10.912   8.243 -1.2055 -0.0278  1.5813
  711MOL0     H93843   1.581  10.758   8.288 -2.1721  1.2996  0.3404
  711MOL0     H93844   1.751  10.914   8.162 -1.2572  1.8183  0.5624
  711MOL0     H93845   1.792  10.962   8.328  1.3643 -1.0460  1.1500
  711MOL0     H93846   1.817  10.661   8.245  2.3726 -1.8693  1.9603
  711MOL0     H93847   1.854  10.749   8.394  3.1197  3.0615  0.2762
  711MOL0     H93848   2.016  10.887   8.278 -1.0097 -0.1170 -2.3821
  711MOL0     H93849   2.059  10.719   8.301  1.2996  3.0182  3.5372
  711MOL0     H93850   2.008  10.727   7.885  0.6002  0.8662 -1.3446
  711MOL0     H93851   1.504  10.939   8.690 -0.2038  1.7351  0.7650
  711MOL0     H93852   1.279  10.934   8.779  0.3799  3.4472 -1.5312
  712MOL0     O93853   2.039   9.675   6.190 -0.8166 -0.5567 -0.2754
  712MOL0     C93854   2.018   9.789   6.151  0.1053 -0.3946  0.4722
  712MOL0     O93855   1.894   9.837   6.111  0.6164 -0.6691  0.7292
  712MOL0     C93856   1.787   9.756   6.144 -0.0436  0.3938 -0.0303
  712MOL0     C93857   1.767   9.716   6.275  0.9179  0.3926 -0.4358
  712MOL0     C93858   1.669   9.620   6.301 -0.5696  0.4795  0.1734
  712MOL0     C93859   1.585   9.569   6.199 -0.4932  0.7280 -0.0683
  712MOL0     O93860   1.483   9.481   6.216 -0.5382  0.1261  0.4850
  712MOL0     C93861   1.492   9.396   6.324  0.6297  0.7157  0.1288
  712MOL0     C93862   1.358   9.315   6.328 -0.2806  0.1363  0.1503
  712MOL0     C93863   1.344   9.200   6.437  0.6080 -0.7772 -0.2603
  712MOL0     C93864   1.201   9.156   6.462  0.2013 -0.3329  0.0892
  712MOL0     C93865   1.144   9.037   6.382  0.0593  0.7802  0.1090
  712MOL0     C93866   0.990   9.032   6.401 -0.4555  0.7166  0.3414
  712MOL0     C93867   0.931   8.928   6.316 -0.0691 -0.2980  0.4244
  712MOL0     C93868   0.934   8.789   6.384 -0.0574  0.4163 -0.6669
  712MOL0     N93869   0.887   8.680   6.297  1.1941  0.7643 -0.5232
  712MOL0     C93870   0.757   8.639   6.329  0.0824 -0.0610  1.1142
  712MOL0     C93871   0.752   8.523   6.251  0.4389 -0.0972 -0.0007
  712MOL0     C93872   0.634   8.438   6.216  0.8207  0.7924 -0.2063
  712MOL0     C93873   0.517   8.529   6.177  0.3391 -0.9085  1.0608
  712MOL0     C93874   0.411   8.442   6.103 -0.0732 -0.0114  0.2913
  712MOL0     C93875   0.271   8.509   6.108  0.2595 -0.2296 -0.1594
  712MOL0     O93876   0.161   8.442   6.050  0.2511  0.3838  1.0730
  712MOL0     C93877   0.046   8.510   6.020 -0.9606  0.0462  0.3974
  712MOL0     C93878   0.016   8.649   6.042 -0.0308 -0.4293  0.0738
  712MOL0     C93879  -0.103   8.708   6.028 -0.0196 -0.2003  0.1534
  712MOL0     C93880  -0.197   8.634   5.965 -0.5614  0.5912  0.0695
  712MOL0     C93881  -0.335   8.691   5.945  0.3518 -0.0550 -0.3025
  712MOL0     O93882  -0.372   8.801   6.008  0.0034 -0.8583  0.2803
  712MOL0     C93883  -0.508   8.834   5.995 -0.1130  0.6554 -0.5286
  712MOL0     C93884  -0.540   8.954   5.928 -1.1789  0.5489 -0.6430
  712MOL0     C93885  -0.675   8.988   5.916  0.0789  0.5439 -0.5379
  712MOL0     C93886  -0.774   8.913   5.984 -0.1026 -0.1488 -0.0760
  712MOL0     O93887  -0.904   8.953   5.948 -0.7487 -0.1837 -0.0235
  712MOL0     C93888  -1.011   8.897   6.025 -0.5097 -0.5738  0.5728
  712MOL0     C93889  -1.135   8.988   5.989  0.5523 -1.3148 -0.1037
  712MOL0     C93890  -1.151   9.013   5.838 -0.1115  0.4920 -0.2487
  712MOL0     C93891  -1.285   9.084   5.802  0.3785  0.9082 -0.8568
  712MOL0     C93892  -1.302   9.082   5.650 -0.8039 -0.5127 -0.4189
  712MOL0     C93893  -1.425   9.174   5.621  0.4750  0.6906 -0.0437
  712MOL0     C93894  -1.560   9.120   5.675  0.2586 -0.1416  0.4221
  712MOL0     C93895  -1.679   9.223   5.646 -0.4421  0.8489 -0.6071
  712MOL0    Cl93896  -1.707   9.239   5.470  0.2174 -0.3909 -0.4327
  712MOL0     C93897  -0.736   8.796   6.046 -0.4568 -0.3811 -0.9138
  712MOL0     C93898  -0.609   8.758   6.051 -0.7664 -0.6164 -0.6511
  712MOL0     O93899  -0.408   8.626   5.872  0.0950  0.4147  0.1318
  712MOL0     C93900  -0.176   8.499   5.927 -0.6218 -0.3112 -0.2590
  712MOL0     C93901  -0.049   8.441   5.954  1.0138  1.6934  0.2893
  712MOL0     N93902   0.875   8.497   6.192 -0.0029  0.6969  0.0244
  712MOL0     N93903   0.953   8.594   6.219 -0.2002 -0.0476 -0.0178
  712MOL0     C93904   1.613   9.607   6.068 -0.4179  0.3944 -0.5393
  712MOL0     C93905   1.708   9.703   6.038 -0.3629 -0.2848  0.6566
  712MOL0     C93906   2.138   9.874   6.122 -0.0559  0.7400 -0.2398
  712MOL0     C93907   2.270   9.823   6.140 -0.0348 -0.7632 -0.3039
  712MOL0     C93908   2.387   9.901   6.117  0.4012 -0.6912  0.3246
  712MOL0     C93909   2.374  10.039   6.069  1.5354  0.1237  0.6109
  712MOL0     O93910   2.490  10.114   6.054  0.5734 -0.7016 -0.0564
  712MOL0     C93911   2.470  10.246   6.008 -0.2841 -0.0011 -0.0770
  712MOL0     C93912   2.600  10.309   5.953 -0.2436 -0.0197 -0.4344
  712MOL0     C93913   2.722  10.289   6.050  0.1988 -0.7435 -0.0722
  712MOL0     C93914   2.777  10.422   6.090 -0.8309  0.0685  1.0065
  712MOL0     C93915   2.858  10.483   5.980 -0.8997 -0.5253  0.0759
  712MOL0     C93916   2.928  10.522   5.893 -0.1197 -0.1503 -0.6061
  712MOL0     C93917   2.241  10.084   6.058 -0.6914  0.5820  0.2056
  712MOL0     C93918   2.128  10.005   6.081  1.0404  0.3670 -0.0238
  712MOL0     H93919   1.841   9.747   6.347  2.0532  0.6188 -1.6498
  712MOL0     H93920   1.633   9.608   6.402  0.3075  2.3216  0.7470
  712MOL0     H93921   1.487   9.450   6.419 -0.9181 -1.6349  1.4865
  712MOL0     H93922   1.575   9.325   6.329 -1.8374 -2.3549  0.8846
  712MOL0     H93923   1.349   9.272   6.228  1.0619 -1.1425  0.5409
  712MOL0     H93924   1.281   9.392   6.330  0.4086  0.8418  0.2609
  712MOL0     H93925   1.384   9.236   6.532  1.8509 -0.5881 -0.8466
  712MOL0     H93926   1.414   9.118   6.420  0.8262 -0.5848 -0.2953
  712MOL0     H93927   1.206   9.134   6.569  3.6558 -2.0013 -0.2967
  712MOL0     H93928   1.137   9.243   6.443 -0.2756 -1.0324 -1.6355
  712MOL0     H93929   1.203   8.950   6.414  1.2179  1.9554  1.2747
  712MOL0     H93930   1.161   9.068   6.279 -0.9183  1.2994  0.0983
  712MOL0     H93931   0.949   9.129   6.374  0.3086  0.9156 -0.1373
  712MOL0     H93932   0.959   9.015   6.505 -1.0511 -1.0337 -0.0847
  712MOL0     H93933   0.827   8.952   6.294 -0.0769 -0.2355  0.5311
  712MOL0     H93934   0.984   8.931   6.221  2.4835  2.3636  1.7722
  712MOL0     H93935   0.873   8.799   6.474 -1.5211  0.8434 -1.6589
  712MOL0     H93936   1.033   8.762   6.421  1.0361  2.3639 -1.9552
  712MOL0     H93937   0.671   8.682   6.378 -0.0485 -0.3792  1.1649
  712MOL0     H93938   0.599   8.381   6.302 -0.2628 -0.4119 -1.4040
  712MOL0     H93939   0.657   8.364   6.139 -0.9514 -2.1992  1.9356
  712MOL0     H93940   0.550   8.608   6.110  0.5235 -2.5501 -0.8874
  712MOL0     H93941   0.465   8.570   6.264 -0.1831  0.1454  0.2738
  712MOL0     H93942   0.439   8.416   6.001 -1.5564  1.7994 -0.6454
  712MOL0     H93943   0.394   8.349   6.157  1.5113 -0.1042  0.6793
  712MOL0     H93944   0.275   8.604   6.054 -0.5857 -0.4303 -0.5886
  712MOL0     H93945   0.248   8.530   6.213  1.4875 -1.7131  0.4412
  712MOL0     H93946   0.090   8.698   6.105  0.1506 -0.4331 -0.1342
  712MOL0     H93947  -0.124   8.810   6.060 -0.4242 -0.9273  2.3184
  712MOL0     H93948  -0.465   9.021   5.889 -0.4603 -0.0309 -0.2801
  712MOL0     H93949  -0.698   9.072   5.851  2.3091  0.8670 -0.9933
  712MOL0     H93950  -0.995   8.895   6.133  0.3420  0.6794  0.4858
  712MOL0     H93951  -1.041   8.799   5.985 -1.0643  0.2865 -1.2006
  712MOL0     H93952  -1.129   9.080   6.048 -2.0794 -0.3033 -1.2677
  712MOL0     H93953  -1.224   8.945   6.035 -0.3895 -0.2797 -0.8982
  712MOL0     H93954  -1.146   8.920   5.780  4.2311 -0.1377  0.7504
  712MOL0     H93955  -1.064   9.076   5.815  0.4073  0.5474  1.6639
  712MOL0     H93956  -1.373   9.027   5.834  1.9631  0.3689  3.1364
  712MOL0     H93957  -1.290   9.183   5.848  2.2694  0.6528  0.0142
  712MOL0     H93958  -1.316   8.980   5.613 -0.6562 -1.4631  1.9875
  712MOL0     H93959  -1.211   9.116   5.599  0.7416 -0.1142  2.4070
  712MOL0     H93960  -1.439   9.184   5.513  0.3314 -2.8383 -0.4758
  712MOL0     H93961  -1.412   9.270   5.671 -0.2890 -0.0876  1.7517
  712MOL0     H93962  -1.581   9.019   5.636 -1.7788  0.2684  0.3184
  712MOL0     H93963  -1.568   9.104   5.783 -0.7506 -1.6769  0.1665
  712MOL0     H93964  -1.653   9.316   5.696 -0.7058 -0.1765  1.5445
  712MOL0     H93965  -1.767   9.173   5.688  1.4942 -1.0384  1.4600
  712MOL0     H93966  -0.814   8.727   6.077 -0.3934 -0.9813 -2.0444
  712MOL0     H93967  -0.578   8.668   6.102  0.0048 -0.2078 -0.3789
  712MOL0     H93968  -0.248   8.435   5.877  1.5287 -1.1162 -2.4896
  712MOL0     H93969  -0.028   8.341   5.917  0.6931  2.3906 -1.8819
  712MOL0     H93970   1.547   9.568   5.990 -0.8470  1.3508 -0.6627
  712MOL0     H93971   1.740   9.724   5.936  0.5704 -1.1653  0.7455
  712MOL0     H93972   2.286   9.719   6.169  1.2668 -0.4845  0.0456
  712MOL0     H93973   2.486   9.856   6.121  1.2117  0.6615 -2.2011
  712MOL0     H93974   2.445  10.310   6.093  4.8354  0.8276  1.1379
  712MOL0     H93975   2.397  10.249   5.926  0.1192 -4.0409 -0.7764
  712MOL0     H93976   2.627  10.279   5.851 -2.1117 -1.5238 -0.5295
  712MOL0     H93977   2.581  10.416   5.938 -3.4337 -0.4612 -0.2941
  712MOL0     H93978   2.795  10.225   6.000  0.9454 -1.7098  2.1265
  712MOL0     H93979   2.697  10.240   6.144 -0.6322  1.1040  0.7201
  712MOL0     H93980   2.712  10.500   6.132  0.3034  0.6470  1.7289
  712MOL0     H93981   2.842  10.405   6.176 -1.7029 -0.8032  1.5133
  712MOL0     H93982   2.974  10.580   5.816  0.6130 -0.9373 -0.7868
  712MOL0     H93983   2.215  10.185   6.028  2.7265  1.8665  1.1483
  712MOL0     H93984   2.025  10.037   6.075  0.7590 -0.3477  0.7567
  713MOL0     O93985   3.032   5.292   6.498  0.4193  0.3722 -0.3129
  713MOL0     C93986   3.086   5.369   6.578 -0.4921  0.0944 -0.2699
  713MOL0     O93987   3.045   5.385   6.708  0.3222 -0.5854  0.3343
  713MOL0     C93988   2.919   5.332   6.757 -0.4510 -0.2867  0.0904
  713MOL0     C93989   2.900   5.281   6.886  0.1804 -0.2131 -0.2565
  713MOL0     C93990   2.769   5.247   6.928  1.1444 -0.6829 -0.3746
  713MOL0     C93991   2.660   5.252   6.839 -0.2911  0.8380  0.7838
  713MOL0     O93992   2.541   5.193   6.860 -0.0830  0.6375 -1.1303
  713MOL0     C93993   2.513   5.132   6.984  0.6094  0.0258 -0.4207
  713MOL0     C93994   2.360   5.086   6.995 -0.8714  0.3988  0.6977
  713MOL0     C93995   2.327   5.033   7.139 -0.0686  0.7063  0.3958
  713MOL0     C93996   2.202   4.960   7.161  0.0538 -0.4377  0.6503
  713MOL0     C93997   2.154   4.958   7.310  0.4743 -0.6382  0.1145
  713MOL0     C93998   2.126   5.092   7.371  0.0914 -0.6718 -0.9829
  713MOL0     C93999   2.083   5.083   7.518  0.0507 -0.5091  0.2254
  713MOL0     C94000   1.950   5.004   7.538  0.3070 -0.2147 -0.9745
  713MOL0     N94001   1.892   5.019   7.665  0.5409 -0.5572 -1.5368
  713MOL0     C94002   1.773   4.982   7.705 -0.6554  0.0162 -0.4717
  713MOL0     C94003   1.763   5.007   7.840  0.0209  0.2960 -0.0941
  713MOL0     C94004   1.635   5.011   7.907  0.9787 -0.3621 -0.3673
  713MOL0     C94005   1.531   5.104   7.840  0.3501  0.0196 -0.4285
  713MOL0     C94006   1.454   5.176   7.950  0.7868 -0.0765 -0.2513
  713MOL0     C94007   1.331   5.253   7.905 -0.3363  0.5582 -0.2860
  713MOL0     O94008   1.276   5.302   8.023 -0.8143 -0.1264 -0.0677
  713MOL0     C94009   1.149   5.334   8.009  0.5008 -0.7405  0.3970
  713MOL0     C94010   1.082   5.391   7.897  0.7436 -1.0763  0.3386
  713MOL0     C94011   0.944   5.426   7.905 -0.1726  0.4952 -0.4871
  713MOL0     C94012   0.872   5.412   8.028  0.3923 -0.1608 -0.0392
  713MOL0     C94013   0.731   5.455   8.034 -0.3720  0.5685 -0.4597
  713MOL0     O94014   0.654   5.395   8.132  0.0212 -0.5208  0.4456
  713MOL0     C94015   0.533   5.447   8.148  0.4132  0.6287  0.1787
  713MOL0     C94016   0.420   5.367   8.136 -0.1822  0.3820  0.5485
  713MOL0     C94017   0.288   5.408   8.170  0.1771  0.0877 -0.0450
  713MOL0     C94018   0.264   5.543   8.211  0.1840  0.2473  0.5897
  713MOL0     O94019   0.138   5.592   8.237 -0.3813 -0.4021  0.1951
  713MOL0     C94020   0.024   5.517   8.178  0.5727  0.1278 -0.5824
  713MOL0     C94021  -0.104   5.603   8.191  0.1936  0.9709  0.0741
  713MOL0     C94022  -0.100   5.719   8.103 -0.1185  0.0479 -0.5305
  713MOL0     C94023  -0.229   5.805   8.132  0.1074  0.2225 -0.0929
  713MOL0     C94024  -0.239   5.931   8.040 -1.1282 -1.1698  0.0067
  713MOL0     C94025  -0.354   6.031   8.071  0.7743 -0.4654  0.5990
  713MOL0     C94026  -0.387   6.139   7.966 -0.1213 -0.1745  1.1147
  713MOL0     C94027  -0.512   6.224   7.984 -0.2180  0.9652 -0.9395
  713MOL0    Cl94028  -0.654   6.113   7.991  0.0731  0.3431  0.4657
  713MOL0     C94029   0.376   5.623   8.219  0.0760  0.5587 -0.3079
  713MOL0     C94030   0.507   5.578   8.182  0.6111  1.2924  0.2727
  713MOL0     O94031   0.683   5.513   7.939 -0.1024  0.1718  0.0327
  713MOL0     C94032   0.942   5.347   8.135  0.0987  0.4136  0.0315
  713MOL0     C94033   1.076   5.319   8.132 -0.1066 -0.6826 -0.0491
  713MOL0     N94034   1.887   5.044   7.888 -0.8495 -0.9482 -0.1280
  713MOL0     N94035   1.959   5.060   7.779 -0.4564  0.0802  0.0541
  713MOL0     C94036   2.687   5.303   6.706  0.7734  1.1768  0.2443
  713MOL0     C94037   2.809   5.360   6.671  1.0518 -0.6710 -0.2300
  713MOL0     C94038   3.219   5.414   6.528  0.1577 -1.2564 -0.2597
  713MOL0     C94039   3.284   5.397   6.401  0.2743 -1.3507 -0.3461
  713MOL0     C94040   3.411   5.464   6.366  0.4986  0.5091 -0.0042
  713MOL0     C94041   3.462   5.558   6.452 -0.0911  0.0748 -0.0941
  713MOL0     O94042   3.569   5.636   6.411  0.1625  0.2593 -0.3137
  713MOL0     C94043   3.628   5.727   6.499  0.2736 -0.9118 -1.1948
  713MOL0     C94044   3.707   5.836   6.445 -0.5735 -0.0961  0.4590
  713MOL0     C94045   3.801   5.789   6.341 -0.4635 -0.7120 -0.2200
  713MOL0     C94046   3.881   5.907   6.269  0.1105  0.0752 -0.0934
  713MOL0     C94047   4.011   5.856   6.213  0.0248  0.6431  0.4476
  713MOL0     C94048   4.123   5.824   6.167 -0.4006 -0.5384  0.7428
  713MOL0     C94049   3.407   5.563   6.581 -0.3163  0.4172  0.5896
  713MOL0     C94050   3.305   5.481   6.616  0.5929  0.9155 -0.2220
  713MOL0     H94051   2.984   5.268   6.954  1.6343  0.0881 -1.9405
  713MOL0     H94052   2.739   5.251   7.032 -0.6837 -1.1536 -0.8581
  713MOL0     H94053   2.527   5.193   7.074  3.5653 -2.4244  0.9576
  713MOL0     H94054   2.578   5.045   6.997  0.9387  0.5611  2.1251
  713MOL0     H94055   2.347   5.004   6.924 -1.1846  4.0078 -3.9379
  713MOL0     H94056   2.290   5.158   6.952  2.1503  1.3404 -3.2277
  713MOL0     H94057   2.336   5.125   7.198  2.2166  1.7405 -1.4287
  713MOL0     H94058   2.407   4.969   7.178 -1.1847 -1.2581 -0.4132
  713MOL0     H94059   2.119   5.018   7.119 -0.5557  0.9295  3.5601
  713MOL0     H94060   2.202   4.860   7.116  1.0024 -0.8359  1.5050
  713MOL0     H94061   2.240   4.914   7.361  1.3148  0.9854  0.1603
  713MOL0     H94062   2.065   4.897   7.322 -0.8106  0.8608 -1.3115
  713MOL0     H94063   2.045   5.148   7.322  0.9950  2.9803  1.3042
  713MOL0     H94064   2.213   5.158   7.378 -0.7240  0.3268  4.3018
  713MOL0     H94065   2.158   5.040   7.585 -1.1190 -1.0392  1.2317
  713MOL0     H94066   2.061   5.187   7.542  1.0469  0.4908 -2.7022
  713MOL0     H94067   1.969   4.898   7.520 -3.1719 -0.8310 -1.8207
  713MOL0     H94068   1.885   5.047   7.461  0.3082  1.4388 -0.0968
  713MOL0     H94069   1.694   4.942   7.641 -0.0207 -0.4178 -0.9965
  713MOL0     H94070   1.656   5.045   8.009  0.7120  0.4258 -0.5631
  713MOL0     H94071   1.592   4.912   7.921  0.1296  0.1123  0.5722
  713MOL0     H94072   1.463   5.042   7.782 -2.5192  1.2889  1.3451
  713MOL0     H94073   1.580   5.180   7.779  0.5238 -0.5329 -0.9867
  713MOL0     H94074   1.414   5.103   8.021 -1.2965  0.2724 -0.9760
  713MOL0     H94075   1.515   5.250   8.003 -1.2869  2.0160 -0.5951
  713MOL0     H94076   1.266   5.184   7.850  1.3582 -0.6890 -0.8089
  713MOL0     H94077   1.349   5.335   7.835 -0.8784 -0.1618 -1.2856
  713MOL0     H94078   1.127   5.433   7.808  6.5764  1.3812  3.8321
  713MOL0     H94079   0.896   5.456   7.812  0.9802 -3.1324 -2.4574
  713MOL0     H94080   0.443   5.268   8.096  0.5183  1.8972 -3.2060
  713MOL0     H94081   0.207   5.341   8.141 -1.3227  0.3890  2.9899
  713MOL0     H94082  -0.000   5.433   8.243 -2.0425 -0.1301 -1.7435
  713MOL0     H94083   0.033   5.498   8.070  0.6673  0.2305 -0.5922
  713MOL0     H94084  -0.128   5.625   8.295  1.9544  1.7185  0.3588
  713MOL0     H94085  -0.176   5.534   8.145 -1.1337  1.5173  1.2747
  713MOL0     H94086  -0.089   5.689   7.998 -0.0882 -2.9511  0.2334
  713MOL0     H94087  -0.018   5.783   8.136  2.4929 -3.2991  0.0565
  713MOL0     H94088  -0.320   5.759   8.093  1.6995 -1.0933 -2.4967
  713MOL0     H94089  -0.236   5.836   8.237 -4.8850 -0.5035  0.0511
  713MOL0     H94090  -0.245   5.902   7.935 -2.2557 -0.8544 -0.0229
  713MOL0     H94091  -0.148   5.992   8.049 -0.7962 -1.7728  1.0703
  713MOL0     H94092  -0.321   6.075   8.166 -1.6340  0.0172  1.2795
  713MOL0     H94093  -0.444   5.976   8.099  0.3622 -0.4749 -0.6991
  713MOL0     H94094  -0.310   6.212   7.940 -1.9455  0.7581 -2.2785
  713MOL0     H94095  -0.392   6.079   7.875  1.6634  3.0328 -1.2951
  713MOL0     H94096  -0.520   6.292   7.898 -1.6644  1.8491 -0.1567
  713MOL0     H94097  -0.494   6.290   8.069  0.7189  0.6236 -0.8713
  713MOL0     H94098   0.365   5.730   8.239 -1.3178  0.4171 -0.1878
  713MOL0     H94099   0.586   5.651   8.195  0.0037  1.9053  0.6184
  713MOL0     H94100   0.886   5.324   8.226  0.0173 -2.6093 -0.6713
  713MOL0     H94101   1.129   5.299   8.224  0.3863 -1.7310 -0.5390
  713MOL0     H94102   2.603   5.303   6.637  0.0196  0.0944  1.1334
  713MOL0     H94103   2.816   5.414   6.577 -0.9339  3.0309  1.5326
  713MOL0     H94104   3.243   5.345   6.315  0.1429  1.1894 -1.9128
  713MOL0     H94105   3.456   5.456   6.267 -0.4763  0.3221 -0.4478
  713MOL0     H94106   3.697   5.676   6.567  0.5094 -0.5112 -1.1325
  713MOL0     H94107   3.550   5.772   6.560 -1.0005  2.0015 -4.5740
  713MOL0     H94108   3.646   5.914   6.400  1.0143  0.4737 -0.8036
  713MOL0     H94109   3.765   5.876   6.528  1.1116 -0.1748 -0.6376
  713MOL0     H94110   3.742   5.738   6.264 -1.0104  1.4127 -1.2785
  713MOL0     H94111   3.869   5.710   6.374 -1.1877 -1.8453 -1.3022
  713MOL0     H94112   3.816   5.959   6.199  2.1326  3.7152  0.4951
  713MOL0     H94113   3.900   5.998   6.326 -0.2624 -0.0771  0.2738
  713MOL0     H94114   4.224   5.794   6.147 -0.4871 -0.2306 -0.2064
  713MOL0     H94115   3.451   5.609   6.669  1.4792 -1.7634  0.9159
  713MOL0     H94116   3.289   5.471   6.723  3.0597  0.0360  0.1286
  714MOL0     O94117   2.004   4.395   0.588 -0.1174  0.0004  0.5130
  714MOL0     C94118   2.039   4.510   0.603  0.0500  0.6762  0.8636
  714MOL0     O94119   1.955   4.611   0.669  0.1576 -0.0655  0.8851
  714MOL0     C94120   1.823   4.585   0.693  0.2709 -0.1513  0.3962
  714MOL0     C94121   1.741   4.482   0.629  0.4847 -0.1915 -0.4176
  714MOL0     C94122   1.613   4.448   0.676  0.8318  0.4482  0.9644
  714MOL0     C94123   1.566   4.505   0.795 -0.4197 -0.9619  0.1665
  714MOL0     O94124   1.441   4.463   0.839  0.5572 -0.6860 -0.4528
  714MOL0     C94125   1.334   4.527   0.771 -0.7541 -0.7380  0.5357
  714MOL0     C94126   1.206   4.504   0.844 -0.0522  0.3346  0.3451
  714MOL0     C94127   1.080   4.578   0.798  0.4559  0.4246 -0.0675
  714MOL0     C94128   0.958   4.538   0.868  0.7752 -0.3478 -0.0511
  714MOL0     C94129   0.831   4.578   0.788  0.2984 -1.6704  0.0923
  714MOL0     C94130   0.812   4.735   0.796  0.1474  0.2725 -0.3996
  714MOL0     C94131   0.684   4.785   0.718  0.0342 -0.5197  0.2897
  714MOL0     C94132   0.646   4.933   0.739 -0.5065  0.1198 -0.3450
  714MOL0     N94133   0.575   4.966   0.865 -0.6124 -0.2949  0.1353
  714MOL0     C94134   0.451   4.928   0.908 -0.2078 -0.3272 -0.3365
  714MOL0     C94135   0.428   4.985   1.037  0.1465  0.3227  1.0609
  714MOL0     C94136   0.324   4.946   1.141  0.7442  0.7656  0.4435
  714MOL0     C94137   0.190   4.908   1.081 -0.0130  0.1013 -0.5807
  714MOL0     C94138   0.179   4.762   1.032  0.6617 -0.0418  0.3115
  714MOL0     C94139   0.043   4.746   0.961 -0.3298 -0.3653 -0.0872
  714MOL0     O94140   0.026   4.813   0.834  0.3653 -0.2578 -1.2128
  714MOL0     C94141   0.121   4.787   0.735 -0.9211 -0.3531  0.0956
  714MOL0     C94142   0.183   4.665   0.705  0.1271 -0.1604  0.0266
  714MOL0     C94143   0.281   4.647   0.605  0.7277  0.8290 -0.1182
  714MOL0     C94144   0.324   4.753   0.531  0.4807 -0.7033  1.0274
  714MOL0     C94145   0.432   4.738   0.429  0.5595 -1.3788  0.7471
  714MOL0     O94146   0.490   4.614   0.425 -0.0750  0.6598 -0.5863
  714MOL0     C94147   0.556   4.575   0.316 -0.2520 -0.3065 -0.6274
  714MOL0     C94148   0.493   4.588   0.189 -0.2860  0.6418  0.1191
  714MOL0     C94149   0.578   4.571   0.077  0.2936 -0.8611  0.0806
  714MOL0     C94150   0.709   4.538   0.088 -0.2739  0.5868 -0.7674
  714MOL0     O94151   0.779   4.513  -0.026 -0.1773  1.1142  0.4942
  714MOL0     C94152   0.909   4.435  -0.025  0.6454  0.5064 -0.2165
  714MOL0     C94153   0.975   4.431  -0.167 -0.2123  0.0156 -0.0971
  714MOL0     C94154   1.114   4.370  -0.168 -0.9372  0.3955  0.0296
  714MOL0     C94155   1.215   4.481  -0.133 -0.6246 -0.1783 -0.5464
  714MOL0     C94156   1.355   4.422  -0.146  0.8522 -0.7334  0.4766
  714MOL0     C94157   1.461   4.523  -0.121  0.3081  0.4914  0.6142
  714MOL0     C94158   1.594   4.479  -0.169  0.4317 -1.1480  0.2196
  714MOL0     C94159   1.701   4.591  -0.127 -0.0140 -0.3034  0.6408
  714MOL0    Cl94160   1.860   4.536  -0.203  0.1653  0.2270 -0.3135
  714MOL0     C94161   0.762   4.517   0.219 -0.2743  0.1893  0.0642
  714MOL0     C94162   0.688   4.536   0.335  0.3513 -0.6461  0.6729
  714MOL0     O94163   0.472   4.837   0.367 -0.4647  0.2110 -0.5259
  714MOL0     C94164   0.263   4.881   0.547  0.4198  0.1397  0.1815
  714MOL0     C94165   0.162   4.896   0.653 -1.0054  0.4403 -0.0844
  714MOL0     N94166   0.544   5.065   1.055 -0.7823 -0.0404  0.2892
  714MOL0     N94167   0.616   5.063   0.944  0.3701  0.1697  0.3615
  714MOL0     C94168   1.648   4.600   0.860 -0.1032  0.8282  0.1843
  714MOL0     C94169   1.770   4.640   0.809  0.0281  0.2329  0.4718
  714MOL0     C94170   2.165   4.550   0.549 -0.6056 -0.1678  0.1621
  714MOL0     C94171   2.247   4.463   0.469  0.0316  1.1357  0.0676
  714MOL0     C94172   2.375   4.491   0.432 -0.7034  0.2803 -0.3516
  714MOL0     C94173   2.433   4.619   0.452 -0.2305  0.4916  0.1238
  714MOL0     O94174   2.566   4.643   0.418 -0.2158  0.2375  0.0101
  714MOL0     C94175   2.582   4.781   0.366 -0.4119  0.1214 -0.6197
  714MOL0     C94176   2.700   4.782   0.272 -0.0044  0.1117 -0.0633
  714MOL0     C94177   2.701   4.663   0.167  0.0807 -0.4387 -0.1338
  714MOL0     C94178   2.826   4.658   0.086  0.0517  0.0640 -0.4434
  714MOL0     C94179   2.953   4.659   0.164 -0.2549 -0.0024 -0.1500
  714MOL0     C94180   3.055   4.653   0.236  0.3306 -0.4580 -0.0342
  714MOL0     C94181   2.340   4.719   0.500 -0.7528  0.4062 -0.0824
  714MOL0     C94182   2.214   4.680   0.557 -0.2674  0.6016 -0.7027
  714MOL0     H94183   1.763   4.431   0.536  4.6382 -0.4973  0.5632
  714MOL0     H94184   1.545   4.372   0.638 -0.2406  1.3684  0.9720
  714MOL0     H94185   1.318   4.486   0.671 -0.3587 -1.0528  0.6009
  714MOL0     H94186   1.351   4.635   0.776  0.0707 -0.8836  1.0589
  714MOL0     H94187   1.239   4.533   0.945 -0.1576  0.2810  0.3957
  714MOL0     H94188   1.183   4.397   0.850 -0.1878  0.1237 -2.7211
  714MOL0     H94189   1.064   4.551   0.693 -0.9982 -0.3458  0.3296
  714MOL0     H94190   1.101   4.684   0.817 -1.4917  1.4515 -2.9180
  714MOL0     H94191   0.943   4.431   0.886  0.9118 -1.0507 -3.4709
  714MOL0     H94192   0.955   4.593   0.962 -0.1312  1.6010 -1.1684
  714MOL0     H94193   0.735   4.540   0.825 -0.8769  2.2191  1.5143
  714MOL0     H94194   0.841   4.549   0.683  1.8196 -1.4361  0.1573
  714MOL0     H94195   0.895   4.785   0.746 -0.3613  0.4456 -1.0966
  714MOL0     H94196   0.800   4.764   0.900 -0.9273 -0.9065 -0.1707
  714MOL0     H94197   0.728   4.780   0.618  1.2667  0.8652  0.7234
  714MOL0     H94198   0.596   4.722   0.735 -0.4539  0.1212  0.1646
  714MOL0     H94199   0.574   4.951   0.658  0.1997 -1.8031 -1.4543
  714MOL0     H94200   0.738   4.991   0.724 -1.0786  0.9183 -0.8542
  714MOL0     H94201   0.386   4.859   0.855 -0.0187 -1.9830  1.4726
  714MOL0     H94202   0.314   5.039   1.198  2.2940  0.8159  0.6681
  714MOL0     H94203   0.361   4.863   1.203 -0.2742  0.0254  0.0870
  714MOL0     H94204   0.171   4.981   1.001  0.5253 -0.2883 -1.0723
  714MOL0     H94205   0.121   4.936   1.161  0.6276 -0.5143  0.2044
  714MOL0     H94206   0.263   4.732   0.969 -0.8924 -3.1174 -0.5227
  714MOL0     H94207   0.187   4.691   1.115 -0.8037 -1.9780 -1.1182
  714MOL0     H94208  -0.035   4.758   1.037  1.8038  0.0430  2.2102
  714MOL0     H94209   0.038   4.639   0.938 -1.1339  0.1089 -2.3513
  714MOL0     H94210   0.161   4.583   0.773  1.2320 -0.1838  0.3727
  714MOL0     H94211   0.333   4.552   0.611 -0.0894  0.3198 -0.9071
  714MOL0     H94212   0.387   4.610   0.195  0.0548  2.0498  2.1778
  714MOL0     H94213   0.528   4.573  -0.020 -2.7480  0.0940  1.5276
  714MOL0     H94214   0.879   4.337   0.014 -0.9184  1.2252  0.4772
  714MOL0     H94215   0.980   4.481   0.044  0.7846 -1.9105  1.3616
  714MOL0     H94216   0.963   4.520  -0.229  0.4168 -1.3029 -2.2183
  714MOL0     H94217   0.903   4.360  -0.209 -1.8953  0.4824  1.8086
  714MOL0     H94218   1.143   4.338  -0.269  2.6789  1.1048  0.7101
  714MOL0     H94219   1.127   4.289  -0.094  2.3839  3.6971  3.4962
  714MOL0     H94220   1.201   4.565  -0.202 -0.0360  1.2390  0.9894
  714MOL0     H94221   1.195   4.509  -0.029 -0.6889 -4.8947  0.9391
  714MOL0     H94222   1.350   4.390  -0.250 -1.1677 -1.7211  0.8157
  714MOL0     H94223   1.371   4.329  -0.090  1.9946 -0.6176  0.3699
  714MOL0     H94224   1.468   4.520  -0.012  0.6452 -1.6610  0.5760
  714MOL0     H94225   1.435   4.617  -0.170  2.8296 -1.5290 -5.5940
  714MOL0     H94226   1.630   4.383  -0.132  0.8741 -0.6134  1.2269
  714MOL0     H94227   1.584   4.485  -0.278 -2.2878  1.7795  0.4786
  714MOL0     H94228   1.696   4.595  -0.018  1.4420  3.3627  0.6975
  714MOL0     H94229   1.676   4.686  -0.173  1.4123  0.3499  1.1600
  714MOL0     H94230   0.870   4.509   0.226 -0.2414  1.0959  0.6324
  714MOL0     H94231   0.721   4.523   0.437  0.1607 -0.9553  0.6954
  714MOL0     H94232   0.309   4.957   0.484  2.0667 -2.0993 -1.4878
  714MOL0     H94233   0.112   4.992   0.662 -0.4161  0.6862  0.6657
  714MOL0     H94234   1.621   4.661   0.945 -0.3968  0.2814  0.4912
  714MOL0     H94235   1.833   4.712   0.861  1.4341  1.8458 -3.0979
  714MOL0     H94236   2.211   4.362   0.450  1.6607  0.8944 -2.1404
  714MOL0     H94237   2.438   4.416   0.385 -2.5407 -0.9258 -0.9825
  714MOL0     H94238   2.600   4.846   0.452  0.4847 -0.7606 -0.1188
  714MOL0     H94239   2.495   4.822   0.314  0.8158  0.9220 -2.1283
  714MOL0     H94240   2.707   4.882   0.228 -1.6067  1.6794  3.0126
  714MOL0     H94241   2.786   4.765   0.337 -0.3885 -0.1132  0.3825
  714MOL0     H94242   2.624   4.674   0.090  0.1987 -0.6854 -0.2869
  714MOL0     H94243   2.688   4.570   0.222  2.9011 -0.2716  0.9754
  714MOL0     H94244   2.822   4.566   0.026 -0.0214 -1.2748  1.5076
  714MOL0     H94245   2.827   4.749   0.026 -1.5177  2.0666  2.3567
  714MOL0     H94246   3.142   4.646   0.298  0.0027  0.2110  0.5167
  714MOL0     H94247   2.358   4.824   0.519 -3.5989  1.2002 -1.1522
  714MOL0     H94248   2.148   4.757   0.597 -0.8481  0.7433 -1.9063
  715MOL0     O94249   1.191   6.180   1.904 -0.4812  0.1078  0.1899
  715MOL0     C94250   1.216   6.073   1.970 -0.4843 -0.2819 -0.1853
  715MOL0     O94251   1.123   5.985   2.012 -0.3190 -0.2234  0.6905
  715MOL0     C94252   0.999   6.008   1.965  0.6910 -0.0088  0.2253
  715MOL0     C94253   0.930   6.121   1.989  0.8571  0.0438 -0.1054
  715MOL0     C94254   0.795   6.129   1.955  0.3753 -0.9345 -0.8320
  715MOL0     C94255   0.730   6.027   1.885  0.3357  0.2194 -0.0532
  715MOL0     O94256   0.593   6.038   1.854  1.0679 -0.4964  0.1199
  715MOL0     C94257   0.511   6.126   1.933  0.0597 -0.9511 -0.2952
  715MOL0     C94258   0.498   6.080   2.083  0.2406 -0.2848 -0.0803
  715MOL0     C94259   0.408   5.955   2.078  0.2864  0.0649  0.1190
  715MOL0     C94260   0.373   5.929   2.226 -0.6016 -0.1539 -0.0817
  715MOL0     C94261   0.266   6.024   2.284  0.3599  0.1267  1.2171
  715MOL0     C94262   0.136   6.038   2.207  0.2884 -0.5485 -0.7146
  715MOL0     C94263   0.070   5.906   2.176  0.3766  0.1121  0.4027
  715MOL0     C94264   0.053   5.810   2.297 -0.0880  0.0066 -0.5102
  715MOL0     N94265  -0.055   5.864   2.383 -0.2618 -0.6436 -0.1809
  715MOL0     C94266  -0.024   5.968   2.469  0.3384 -0.5241 -0.0562
  715MOL0     C94267  -0.141   6.002   2.515  0.4714 -0.4698  0.1473
  715MOL0     C94268  -0.175   6.116   2.617  0.7509 -0.3676  0.4735
  715MOL0     C94269  -0.137   6.079   2.755  0.2317 -0.0936 -0.0747
  715MOL0     C94270  -0.205   5.953   2.809  0.4414  0.7545  0.1913
  715MOL0     C94271  -0.360   5.946   2.828  0.2059  0.2398  0.6611
  715MOL0     O94272  -0.408   6.073   2.873 -0.3438  0.5539 -0.2795
  715MOL0     C94273  -0.542   6.106   2.862 -0.2246  0.2974  0.4916
  715MOL0     C94274  -0.635   6.041   2.780 -0.2176 -0.6409 -0.1907
  715MOL0     C94275  -0.766   6.067   2.793 -0.5671 -1.0280  0.4472
  715MOL0     C94276  -0.830   6.164   2.874 -0.5677  0.7865 -0.1936
  715MOL0     C94277  -0.969   6.175   2.892  0.5342  0.0428 -0.6368
  715MOL0     O94278  -1.017   6.239   2.997  0.1181  0.0376  0.2907
  715MOL0     C94279  -1.149   6.268   3.000  0.3749  0.2067 -0.6121
  715MOL0     C94280  -1.183   6.395   2.981  0.9158 -0.5600 -0.2165
  715MOL0     C94281  -1.322   6.436   2.989  0.3460  0.1220  0.2792
  715MOL0     C94282  -1.427   6.344   3.015 -0.9489  0.2054  0.1386
  715MOL0     O94283  -1.558   6.376   3.017  0.7258  0.2056  0.2670
  715MOL0     C94284  -1.596   6.514   3.038 -0.2338 -0.3571 -0.5659
  715MOL0     C94285  -1.746   6.501   3.059  0.2529  0.2337 -0.5049
  715MOL0     C94286  -1.816   6.619   3.126  0.5145  1.4340  0.2111
  715MOL0     C94287  -1.966   6.601   3.126  0.2029  0.3697 -0.1402
  715MOL0     C94288  -2.042   6.714   3.198  0.8224 -0.9887 -0.4154
  715MOL0     C94289  -2.190   6.691   3.211  0.2363  0.1469  0.7053
  715MOL0     C94290  -2.282   6.694   3.086 -0.2773  0.1486  0.4893
  715MOL0     C94291  -2.434   6.662   3.113 -0.1670  0.5214  0.9114
  715MOL0    Cl94292  -2.492   6.770   3.234 -0.0366  0.0770 -0.2909
  715MOL0     C94293  -1.382   6.213   3.041 -0.0677  0.4113  0.0188
  715MOL0     C94294  -1.251   6.176   3.039 -0.3207 -0.5114  0.3593
  715MOL0     O94295  -1.043   6.129   2.809 -0.7465  0.1470  0.1448
  715MOL0     C94296  -0.732   6.240   2.941  0.6616  0.3810 -0.2125
  715MOL0     C94297  -0.590   6.217   2.933  0.8439 -1.0806  0.6689
  715MOL0     N94298  -0.239   5.915   2.465  1.3432  0.1260 -0.9038
  715MOL0     N94299  -0.183   5.828   2.395 -0.2557  0.1808 -0.0016
  715MOL0     C94300   0.808   5.914   1.852 -0.9733  0.8994 -1.0151
  715MOL0     C94301   0.939   5.910   1.893  0.0059 -0.3440 -0.3402
  715MOL0     C94302   1.356   6.051   2.023 -0.0861  0.2045  0.5393
  715MOL0     C94303   1.475   6.087   1.950  0.3737 -0.1424  0.5705
  715MOL0     C94304   1.597   6.058   2.010 -0.3254  0.4029 -0.4777
  715MOL0     C94305   1.623   5.976   2.117  0.3933  0.4670 -1.1381
  715MOL0     O94306   1.750   5.933   2.151 -0.1400  0.1369  0.6165
  715MOL0     C94307   1.831   6.027   2.225  0.5738 -0.7684 -0.0923
  715MOL0     C94308   1.947   5.947   2.283  0.1673  0.7368 -0.4896
  715MOL0     C94309   2.053   5.925   2.186  0.3587 -0.2667  0.2692
  715MOL0     C94310   2.169   5.868   2.252 -0.4211  0.1343 -0.3921
  715MOL0     C94311   2.260   5.976   2.294 -0.3542  0.2406 -0.2413
  715MOL0     C94312   2.328   6.064   2.339 -0.6290 -0.0574  1.0171
  715MOL0     C94313   1.505   5.940   2.192  0.6731  0.4461  0.3269
  715MOL0     C94314   1.372   5.970   2.146  0.7239 -0.8785  0.8633
  715MOL0     H94315   0.972   6.213   2.029 -2.3443  2.3288 -1.5857
  715MOL0     H94316   0.736   6.215   1.987 -2.2931 -2.3317 -1.7486
  715MOL0     H94317   0.410   6.124   1.893 -0.3090  1.9378  0.3119
  715MOL0     H94318   0.544   6.230   1.932 -1.8648 -0.3104  0.6098
  715MOL0     H94319   0.449   6.160   2.139 -2.2104 -2.3724  0.9309
  715MOL0     H94320   0.591   6.052   2.134 -1.2326  0.5764  3.3895
  715MOL0     H94321   0.468   5.870   2.046  0.7310 -0.0605  1.2230
  715MOL0     H94322   0.324   5.978   2.012 -0.0585  4.5048  1.7778
  715MOL0     H94323   0.335   5.827   2.238  0.4352 -0.3705  1.7385
  715MOL0     H94324   0.469   5.922   2.278  0.5456 -2.8535 -2.2879
  715MOL0     H94325   0.318   6.119   2.293  0.1111  0.5382 -0.9949
  715MOL0     H94326   0.254   5.987   2.386 -3.3810  0.0700  0.8858
  715MOL0     H94327   0.157   6.087   2.112 -0.5515  1.9122  0.2674
  715MOL0     H94328   0.061   6.103   2.253 -2.4390 -0.5963 -4.6711
  715MOL0     H94329  -0.020   5.929   2.117  0.5825 -0.3338 -0.0921
  715MOL0     H94330   0.138   5.866   2.101 -1.4088 -0.3834 -1.0249
  715MOL0     H94331   0.142   5.788   2.357  0.7500 -0.8200 -1.9945
  715MOL0     H94332   0.013   5.716   2.258  1.4282  0.7912 -4.4537
  715MOL0     H94333   0.067   6.022   2.494 -1.2997  1.6864  1.5031
  715MOL0     H94334  -0.284   6.118   2.621  0.7658  2.3370  1.4902
  715MOL0     H94335  -0.153   6.218   2.584 -1.5297  0.5986  1.7011
  715MOL0     H94336  -0.157   6.169   2.814  3.7125  0.9042 -0.2124
  715MOL0     H94337  -0.029   6.065   2.762  0.5567  2.6286  1.3694
  715MOL0     H94338  -0.170   5.864   2.756 -1.6446  0.5811 -1.0271
  715MOL0     H94339  -0.172   5.922   2.908  0.6000  1.3110  0.3120
  715MOL0     H94340  -0.390   5.866   2.896 -2.9440 -1.6887 -2.6077
  715MOL0     H94341  -0.410   5.926   2.732 -0.7867 -0.9069  1.3894
  715MOL0     H94342  -0.601   5.968   2.707  0.7292 -0.6628  0.2579
  715MOL0     H94343  -0.833   6.014   2.725  0.5678  0.1249 -1.6653
  715MOL0     H94344  -1.102   6.459   2.945  1.7022 -1.1051  0.5421
  715MOL0     H94345  -1.344   6.542   2.983  1.7231  0.5073  1.4335
  715MOL0     H94346  -1.563   6.585   2.960  3.5400  1.5364  2.3744
  715MOL0     H94347  -1.552   6.545   3.134 -0.1004 -2.1351 -0.0273
  715MOL0     H94348  -1.764   6.405   3.107  0.2320 -0.4502 -1.8169
  715MOL0     H94349  -1.785   6.503   2.956  1.0938  0.4260 -0.8311
  715MOL0     H94350  -1.798   6.718   3.084  0.8815  0.7424 -1.3047
  715MOL0     H94351  -1.790   6.624   3.233 -3.0784 -0.8560  1.3625
  715MOL0     H94352  -2.007   6.601   3.025  0.8737 -0.0458 -0.4189
  715MOL0     H94353  -1.992   6.506   3.173  0.7780  1.0100  1.5704
  715MOL0     H94354  -2.024   6.818   3.168  0.2169 -0.4837  0.9177
  715MOL0     H94355  -2.017   6.711   3.304 -0.9643  0.4312  0.1016
  715MOL0     H94356  -2.229   6.768   3.278  3.1438  2.0734  0.3360
  715MOL0     H94357  -2.204   6.592   3.257 -2.4086 -0.1117 -0.4777
  715MOL0     H94358  -2.286   6.793   3.040  2.5628 -0.0064 -0.2479
  715MOL0     H94359  -2.237   6.625   3.015 -0.0152  0.8603 -0.0428
  715MOL0     H94360  -2.450   6.559   3.148 -1.4281  0.3676 -0.0437
  715MOL0     H94361  -2.477   6.681   3.014  2.0801 -0.4150 -0.3307
  715MOL0     H94362  -1.461   6.143   3.067  1.9355 -1.8937  0.2703
  715MOL0     H94363  -1.221   6.073   3.061 -2.3848 -0.6039  3.2983
  715MOL0     H94364  -0.770   6.315   3.010  0.8460  0.0469  0.2533
  715MOL0     H94365  -0.524   6.277   2.994  3.2962 -1.7254 -1.1874
  715MOL0     H94366   0.758   5.825   1.815 -0.4503 -1.8919  4.1218
  715MOL0     H94367   0.982   5.814   1.866 -4.0135 -1.9429 -1.8347
  715MOL0     H94368   1.461   6.151   1.864  1.0024 -0.1606  0.4511
  715MOL0     H94369   1.683   6.099   1.957 -0.2664  1.6539  0.5424
  715MOL0     H94370   1.770   6.066   2.307  0.6861  1.1624 -0.8593
  715MOL0     H94371   1.868   6.107   2.159 -1.0746 -0.3040 -0.4960
  715MOL0     H94372   1.992   6.011   2.360  2.0610  1.6785 -2.3031
  715MOL0     H94373   1.910   5.851   2.321  1.1993  0.8383  0.8611
  715MOL0     H94374   2.082   6.018   2.136 -0.4455 -0.5619 -0.7682
  715MOL0     H94375   2.024   5.845   2.118  0.2802 -1.6498  1.8534
  715MOL0     H94376   2.133   5.804   2.333  1.2621 -1.6469 -0.9432
  715MOL0     H94377   2.237   5.815   2.184  0.7619  3.0826 -1.6556
  715MOL0     H94378   2.383   6.145   2.383  0.1786  0.4586 -0.8394
  715MOL0     H94379   1.512   5.881   2.283 -0.3272  1.5097  1.1371
  715MOL0     H94380   1.280   5.935   2.191 -0.4661  1.2129  0.2100
  716MOL0     O94381   3.835   9.524   8.790  0.4073  0.3825  0.7090
  716MOL0     C94382   3.925   9.602   8.773  0.3698 -0.1888 -0.0481
  716MOL0     O94383   3.921   9.736   8.818 -0.3204  0.5457  0.6574
  716MOL0     C94384   3.800   9.807   8.848  0.2823 -1.0615 -0.4730
  716MOL0     C94385   3.810   9.922   8.924  0.0648 -0.6648 -0.4390
  716MOL0     C94386   3.699   9.998   8.958 -0.1126  0.0478  0.5417
  716MOL0     C94387   3.564   9.945   8.922 -0.4656 -0.4406  0.4060
  716MOL0     O94388   3.436   9.994   8.951 -0.2084  0.3665 -0.0739
  716MOL0     C94389   3.429  10.099   9.047  0.3135 -0.2525 -0.3404
  716MOL0     C94390   3.284  10.150   9.067 -0.6219  0.1338 -0.0412
  716MOL0     C94391   3.181  10.055   9.141  0.1497 -0.2570  0.5098
  716MOL0     C94392   3.064  10.133   9.208 -0.9183 -0.9340  0.8940
  716MOL0     C94393   2.954  10.044   9.283 -0.5519 -0.5145  1.0653
  716MOL0     C94394   2.846  10.151   9.317 -0.5210  0.6185 -0.1676
  716MOL0     C94395   2.744  10.080   9.396  0.8290  0.1021 -0.2899
  716MOL0     C94396   2.647   9.982   9.311 -0.0498 -0.7610  0.5718
  716MOL0     N94397   2.539   9.945   9.401  0.1511  0.1836 -0.2043
  716MOL0     C94398   2.424  10.011   9.417 -0.1381 -1.3436  0.5126
  716MOL0     C94399   2.345   9.935   9.502 -0.5332 -0.1755  0.2049
  716MOL0     C94400   2.210   9.992   9.552 -0.0031  0.3178  0.8579
  716MOL0     C94401   2.234  10.035   9.698  0.7978  0.1223  0.1248
  716MOL0     C94402   2.127  10.111   9.775  0.7968 -0.0577 -0.2557
  716MOL0     C94403   2.015  10.020   9.816 -0.1250  0.4297  0.1013
  716MOL0     O94404   1.935  10.085   9.912 -0.0241  0.6443  0.2265
  716MOL0     C94405   1.826  10.015   9.967 -0.1582 -0.7556  0.5205
  716MOL0     C94406   1.783  10.051  10.093 -0.0787 -0.2978 -0.0728
  716MOL0     C94407   1.677   9.988  10.157 -0.7354  0.0435  0.4525
  716MOL0     C94408   1.615   9.878  10.087  0.2107 -0.2177 -0.7443
  716MOL0     C94409   1.503   9.819  10.153  0.3716 -0.3402  0.1600
  716MOL0     O94410   1.444   9.721  10.082  0.7299  0.2118  0.1404
  716MOL0     C94411   1.323   9.655  10.118  0.5719  0.6398 -0.2417
  716MOL0     C94412   1.308   9.517  10.076 -0.0015 -0.1215 -0.3487
  716MOL0     C94413   1.184   9.449  10.110  0.1392 -0.5522  0.2644
  716MOL0     C94414   1.071   9.515  10.158 -0.0029 -0.2363  0.3373
  716MOL0     O94415   0.965   9.432  10.189 -0.5730 -0.6221 -0.3569
  716MOL0     C94416   0.841   9.477  10.131  0.8532  0.2236  0.7781
  716MOL0     C94417   0.718   9.401  10.175 -0.0778  0.1845  0.0868
  716MOL0     C94418   0.593   9.470  10.130  0.3375 -0.2779  0.7318
  716MOL0     C94419   0.473   9.385  10.118 -0.2253 -0.2495  0.1714
  716MOL0     C94420   0.339   9.460  10.110  0.8235 -0.2849  0.2493
  716MOL0     C94421   0.221   9.365  10.120 -0.3000  0.3005  0.0976
  716MOL0     C94422   0.152   9.343  10.250  0.3176 -0.9806 -0.0003
  716MOL0     C94423   0.088   9.469  10.290  1.1043 -0.6245 -0.1003
  716MOL0    Cl94424  -0.008   9.452  10.444  0.7474  0.1573  0.1413
  716MOL0     C94425   1.086   9.650  10.194 -0.4860  0.0128  0.7644
  716MOL0     C94426   1.214   9.722  10.178  0.3999  0.0131  0.0980
  716MOL0     O94427   1.474   9.858  10.271  0.4888 -0.2310  0.1341
  716MOL0     C94428   1.662   9.829   9.964 -0.8277  0.5032 -0.5962
  716MOL0     C94429   1.765   9.900   9.907  1.3784  0.6096 -1.1132
  716MOL0     N94430   2.422   9.822   9.535  0.7958  0.5293  0.1618
  716MOL0     N94431   2.530   9.824   9.457  0.4348 -0.5292 -0.6409
  716MOL0     C94432   3.564   9.827   8.844 -0.1266  0.1266 -0.5874
  716MOL0     C94433   3.680   9.763   8.803  0.9513 -0.0067 -0.7933
  716MOL0     C94434   4.053   9.553   8.710  0.0629 -0.6672 -0.0640
  716MOL0     C94435   4.161   9.631   8.688 -0.7428  0.0965 -0.4888
  716MOL0     C94436   4.275   9.582   8.633 -0.3497  0.3285  0.2742
  716MOL0     C94437   4.286   9.446   8.596  0.0372 -0.3104 -0.9119
  716MOL0     O94438   4.405   9.411   8.536 -0.0458 -0.5217 -0.9633
  716MOL0     C94439   4.440   9.280   8.515 -0.3602  0.1573  0.1846
  716MOL0     C94440   4.589   9.263   8.491  0.0981  0.4644 -0.2893
  716MOL0     C94441   4.684   9.327   8.593 -0.1101 -0.6629 -0.3457
  716MOL0     C94442   4.657   9.315   8.748 -0.4385 -0.7276  0.3669
  716MOL0     C94443   4.763   9.374   8.828 -0.1088 -0.0095 -0.8103
  716MOL0     C94444   4.861   9.425   8.872 -0.3825  0.3558  0.1214
  716MOL0     C94445   4.180   9.362   8.623 -0.4964  0.6559 -0.1677
  716MOL0     C94446   4.063   9.416   8.680 -0.1252  0.1531 -0.2830
  716MOL0     H94447   3.912   9.951   8.948 -0.2405  1.3819 -1.3939
  716MOL0     H94448   3.708  10.093   9.008  2.5886 -1.5261  3.3852
  716MOL0     H94449   3.476  10.189   9.006 -2.0720  1.0641 -0.4065
  716MOL0     H94450   3.471  10.068   9.143  1.8389  2.4578 -0.0160
  716MOL0     H94451   3.250  10.170   8.965 -1.2628 -0.2640  0.0842
  716MOL0     H94452   3.298  10.236   9.133  0.9812 -1.3404  1.6362
  716MOL0     H94453   3.223   9.997   9.223 -5.4016 -1.1294  3.2459
  716MOL0     H94454   3.150   9.979   9.069 -0.4305 -1.9326  2.4178
  716MOL0     H94455   3.109  10.192   9.288 -2.2648  4.7962 -2.0262
  716MOL0     H94456   3.028  10.204   9.133  2.1518 -2.0434 -1.8118
  716MOL0     H94457   2.986   9.994   9.374 -0.2052 -2.1153  0.0930
  716MOL0     H94458   2.915   9.963   9.221 -1.5271  1.8857 -1.7042
  716MOL0     H94459   2.802  10.203   9.232 -3.8393 -1.0472  0.3812
  716MOL0     H94460   2.890  10.220   9.389  3.6009 -1.8613  0.0648
  716MOL0     H94461   2.791  10.040   9.485  0.9335  2.4350  0.7897
  716MOL0     H94462   2.676  10.161   9.427 -0.9709 -1.3135 -0.3643
  716MOL0     H94463   2.695   9.894   9.267 -0.9879  0.1754 -2.5902
  716MOL0     H94464   2.615  10.040   9.224 -1.4439  0.7844  2.0513
  716MOL0     H94465   2.399  10.110   9.382 -0.6139 -0.5009  3.0149
  716MOL0     H94466   2.136   9.912   9.543 -1.2391  1.4139  1.0359
  716MOL0     H94467   2.165  10.080   9.504 -1.2972 -0.4596  0.6141
  716MOL0     H94468   2.304  10.119   9.698  3.4482 -1.8524  3.3160
  716MOL0     H94469   2.272   9.955   9.761  0.1635 -0.1207  0.2078
  716MOL0     H94470   2.180  10.140   9.866  1.6551  0.3917 -0.8766
  716MOL0     H94471   2.095  10.197   9.716  1.1598 -0.3878 -0.9457
  716MOL0     H94472   2.057   9.931   9.863  2.0110  2.2781  1.9233
  716MOL0     H94473   1.952   9.987   9.733  0.2418 -0.0387 -0.0002
  716MOL0     H94474   1.833  10.137  10.137  2.7260 -0.9885 -1.6803
  716MOL0     H94475   1.646  10.024  10.255 -0.5672  1.6297 -0.0378
  716MOL0     H94476   1.397   9.469  10.035  1.5915  2.5735 -0.3349
  716MOL0     H94477   1.159   9.345  10.092 -0.9074  0.0950 -2.5208
  716MOL0     H94478   0.860   9.462  10.024  0.2808  1.1407  0.5387
  716MOL0     H94479   0.819   9.583  10.147  0.9863  0.5019 -0.7286
  716MOL0     H94480   0.714   9.388  10.283 -2.9329  2.0276  0.3087
  716MOL0     H94481   0.710   9.305  10.122 -1.8865  0.5441 -0.3421
  716MOL0     H94482   0.611   9.514  10.032 -1.7388  0.1573  0.5061
  716MOL0     H94483   0.559   9.554  10.192  0.6490  1.5991 -1.5277
  716MOL0     H94484   0.487   9.325  10.028  1.1000 -0.0903  0.2593
  716MOL0     H94485   0.466   9.312  10.199  0.6132 -0.5281 -0.0080
  716MOL0     H94486   0.335   9.499  10.008  1.2264 -0.1163  0.2948
  716MOL0     H94487   0.338   9.548  10.175 -0.1926  0.7673 -1.1508
  716MOL0     H94488   0.235   9.263  10.082  1.8659 -1.1502  4.0820
  716MOL0     H94489   0.143   9.412  10.060  1.1888  0.0809 -2.1242
  716MOL0     H94490   0.066   9.277  10.240 -2.9652  2.9807 -0.6329
  716MOL0     H94491   0.215   9.320  10.336 -0.5428  2.1868  1.6661
  716MOL0     H94492   0.028   9.514  10.210 -0.4506 -3.7180 -0.8312
  716MOL0     H94493   0.175   9.530  10.316  0.8919  0.8665 -2.5328
  716MOL0     H94494   1.000   9.700  10.236 -2.9458 -0.0353 -3.6174
  716MOL0     H94495   1.217   9.826  10.208  0.0545 -0.6198  2.5707
  716MOL0     H94496   1.614   9.743   9.918 -3.2859  1.2390  0.4067
  716MOL0     H94497   1.805   9.866   9.812  2.6687 -0.7004 -0.1362
  716MOL0     H94498   3.468   9.784   8.816  0.4613 -1.0702 -0.8350
  716MOL0     H94499   3.668   9.679   8.735 -1.6752  0.6526 -1.2793
  716MOL0     H94500   4.155   9.737   8.711 -6.5199 -0.1550  0.7997
  716MOL0     H94501   4.364   9.643   8.620 -1.0880  1.3099 -0.2868
  716MOL0     H94502   4.385   9.243   8.428 -0.2827  1.2392 -0.3278
  716MOL0     H94503   4.412   9.222   8.604  1.5076  2.9618  2.7943
  716MOL0     H94504   4.606   9.155   8.492 -1.7691  0.0917 -2.5096
  716MOL0     H94505   4.616   9.301   8.392  1.8428 -1.6567 -0.7038
  716MOL0     H94506   4.689   9.435   8.574 -2.2560 -0.1257  1.6123
  716MOL0     H94507   4.784   9.287   8.572  2.0282  4.1599 -0.8045
  716MOL0     H94508   4.560   9.360   8.771  0.4136  0.4503  1.8084
  716MOL0     H94509   4.649   9.210   8.775 -1.1932 -0.7504  0.0709
  716MOL0     H94510   4.955   9.467   8.900 -2.1457  2.7382  3.1485
  716MOL0     H94511   4.184   9.258   8.595  1.9664  0.9263 -1.1406
  716MOL0     H94512   3.976   9.353   8.694  0.6400 -1.0983 -0.9083
  717MOL0     O94513   8.029   4.923   5.919  0.0920  0.0527  0.3010
  717MOL0     C94514   8.012   4.812   5.963  0.1070  0.6900 -0.0901
  717MOL0     O94515   8.107   4.718   6.008 -0.3290  0.4441  0.5777
  717MOL0     C94516   8.244   4.742   6.034 -0.0070 -1.0204  0.0943
  717MOL0     C94517   8.299   4.867   6.058 -0.0125 -0.4030 -0.2478
  717MOL0     C94518   8.437   4.881   6.093  0.2917 -0.0790  0.3641
  717MOL0     C94519   8.509   4.762   6.099  0.9437 -0.6718  0.0228
  717MOL0     O94520   8.639   4.795   6.120 -0.8796 -0.3968  0.1032
  717MOL0     C94521   8.725   4.724   6.217  0.1777 -0.4686  0.5738
  717MOL0     C94522   8.829   4.817   6.286 -0.4826  0.4253  0.1627
  717MOL0     C94523   8.956   4.736   6.317 -0.2439  0.4879  0.3457
  717MOL0     C94524   9.055   4.688   6.210 -0.0958  0.2862  0.1223
  717MOL0     C94525   9.193   4.646   6.260 -0.2138  0.5177 -0.2499
  717MOL0     C94526   9.283   4.584   6.154  0.1625 -0.1654 -0.6074
  717MOL0     C94527   9.390   4.488   6.214  0.5910 -0.0145  1.3581
  717MOL0     C94528   9.335   4.365   6.284 -0.4595  0.2509 -0.3340
  717MOL0     N94529   9.442   4.267   6.309  0.5884  0.5638  0.0349
  717MOL0     C94530   9.441   4.141   6.254 -0.3723  0.3962  0.7177
  717MOL0     C94531   9.521   4.063   6.325  0.3017  0.3144  0.0155
  717MOL0     C94532   9.545   3.915   6.313 -1.6963 -0.4215  0.2292
  717MOL0     C94533   9.424   3.836   6.367  0.7961  0.0179  0.5657
  717MOL0     C94534   9.446   3.685   6.358 -1.1896  0.0715 -0.3358
  717MOL0     C94535   9.384   3.611   6.470  0.6197 -0.1507 -0.3178
  717MOL0     O94536   9.245   3.604   6.438 -0.8167 -0.4615 -0.4375
  717MOL0     C94537   9.168   3.506   6.496  0.1640 -0.8238  0.5176
  717MOL0     C94538   9.210   3.423   6.602 -0.8192 -0.6913  0.5911
  717MOL0     C94539   9.128   3.323   6.661 -0.5592  0.7616 -0.1808
  717MOL0     C94540   9.001   3.302   6.614  0.5597 -1.8992 -1.0752
  717MOL0     C94541   8.915   3.206   6.676  0.5384 -0.2384  0.0377
  717MOL0     O94542   8.785   3.182   6.631  0.0982  0.2168  0.2175
  717MOL0     C94543   8.719   3.066   6.677 -0.4434 -0.1970  0.2047
  717MOL0     C94544   8.767   2.944   6.648  0.1831 -0.5948 -0.2314
  717MOL0     C94545   8.705   2.829   6.705  0.3156  0.8581 -0.4124
  717MOL0     C94546   8.601   2.845   6.799  0.4370 -0.2926  0.7200
  717MOL0     O94547   8.545   2.732   6.848  0.0428  1.1548  0.5092
  717MOL0     C94548   8.407   2.708   6.818  0.2601  0.0039 -0.1419
  717MOL0     C94549   8.376   2.563   6.773  0.2671 -0.1238 -1.0849
  717MOL0     C94550   8.233   2.512   6.753 -0.6184 -0.1598  0.0295
  717MOL0     C94551   8.233   2.393   6.656 -0.3238  0.3514 -0.5162
  717MOL0     C94552   8.110   2.296   6.656 -0.5925 -0.5903  0.2276
  717MOL0     C94553   7.969   2.360   6.636 -0.4162  0.2234 -0.2127
  717MOL0     C94554   7.941   2.398   6.488 -0.0256 -0.0427 -0.1373
  717MOL0     C94555   7.806   2.460   6.485  0.4235  0.0194  0.4919
  717MOL0    Cl94556   7.761   2.464   6.314 -0.4009  0.4014 -0.7344
  717MOL0     C94557   8.564   2.968   6.837 -0.5083 -0.6599  0.3135
  717MOL0     C94558   8.621   3.079   6.775 -0.0321 -0.2786  0.4823
  717MOL0     O94559   8.969   3.141   6.770 -0.4792  0.1134  0.3438
  717MOL0     C94560   8.954   3.386   6.506  0.2393 -0.5467 -0.1662
  717MOL0     C94561   9.037   3.479   6.447  0.3142 -0.2765 -0.4800
  717MOL0     N94562   9.571   4.143   6.426 -0.2945  0.2770 -0.2371
  717MOL0     N94563   9.532   4.266   6.409 -0.0073 -0.0842  0.5024
  717MOL0     C94564   8.460   4.635   6.073  0.1088 -0.3174 -0.2761
  717MOL0     C94565   8.319   4.628   6.047 -0.1724 -0.7780 -0.0062
  717MOL0     C94566   7.868   4.778   5.988 -0.7038 -0.7817 -0.5184
  717MOL0     C94567   7.762   4.865   5.958  0.1345  0.9466  0.9158
  717MOL0     C94568   7.627   4.834   5.973 -0.0523 -0.0442 -0.2610
  717MOL0     C94569   7.588   4.717   6.039 -0.0421  0.3267  0.2905
  717MOL0     O94570   7.461   4.699   6.083  1.0586  0.7217 -0.0342
  717MOL0     C94571   7.350   4.748   5.996  0.0611 -0.4144 -0.4675
  717MOL0     C94572   7.236   4.653   5.980 -0.1354 -0.2972 -0.6189
  717MOL0     C94573   7.249   4.563   5.855 -0.7387 -0.4641  0.0599
  717MOL0     C94574   7.156   4.437   5.872 -0.2740  0.1927 -0.0113
  717MOL0     C94575   7.021   4.467   5.847  0.0929 -0.3844  0.1409
  717MOL0     C94576   6.904   4.501   5.826 -0.3352 -0.3456 -0.3118
  717MOL0     C94577   7.695   4.631   6.082 -0.9771  0.3720  0.1473
  717MOL0     C94578   7.827   4.666   6.055  0.1079  1.2625  0.1996
  717MOL0     H94579   8.236   4.955   6.051  3.1472  2.0572  0.0119
  717MOL0     H94580   8.480   4.979   6.111  0.1990 -0.2907  1.9168
  717MOL0     H94581   8.770   4.641   6.161 -0.3035  0.9150 -2.0521
  717MOL0     H94582   8.672   4.665   6.292  0.1495 -0.1784  0.7840
  717MOL0     H94583   8.795   4.855   6.383 -1.5254  4.9481 -1.7571
  717MOL0     H94584   8.850   4.904   6.224 -1.3999 -0.4557 -1.4413
  717MOL0     H94585   8.925   4.653   6.380  1.4094  0.3215  0.9797
  717MOL0     H94586   9.022   4.799   6.378  1.7654 -0.1673 -1.0575
  717MOL0     H94587   9.013   4.601   6.160  0.1105 -1.0810  2.1816
  717MOL0     H94588   9.070   4.767   6.136  0.4036 -1.2603 -1.4891
  717MOL0     H94589   9.181   4.589   6.353 -0.3022  0.9392 -0.0009
  717MOL0     H94590   9.247   4.734   6.298  1.8047  0.0411 -1.8345
  717MOL0     H94591   9.344   4.658   6.101  1.4746 -0.0166  1.0221
  717MOL0     H94592   9.225   4.532   6.077 -0.0381 -1.0332  0.1063
  717MOL0     H94593   9.440   4.451   6.124 -0.0952 -0.7932  1.2794
  717MOL0     H94594   9.462   4.538   6.279  0.3793  1.4426  0.5052
  717MOL0     H94595   9.266   4.316   6.215  0.4662  0.0215 -1.1182
  717MOL0     H94596   9.288   4.398   6.377  0.7088 -0.1026  0.4053
  717MOL0     H94597   9.395   4.117   6.159  0.3464  2.3792 -0.1876
  717MOL0     H94598   9.632   3.888   6.373 -1.8268 -0.2424  0.5036
  717MOL0     H94599   9.560   3.884   6.210 -3.1653  3.1199 -1.2282
  717MOL0     H94600   9.338   3.859   6.303  0.5573 -1.2167  0.3997
  717MOL0     H94601   9.399   3.862   6.470  0.3528 -1.1468  0.7679
  717MOL0     H94602   9.426   3.643   6.260 -0.2381  1.7203 -1.2941
  717MOL0     H94603   9.552   3.659   6.365 -1.5494 -1.7123 -1.0280
  717MOL0     H94604   9.408   3.670   6.559  0.2037  0.8937 -0.8911
  717MOL0     H94605   9.430   3.511   6.473 -0.1814 -0.5103  0.1565
  717MOL0     H94606   9.304   3.433   6.655 -0.5089  0.9319 -0.1863
  717MOL0     H94607   9.172   3.270   6.745 -1.2159  0.1461 -0.2120
  717MOL0     H94608   8.850   2.926   6.580  0.1795  0.5041 -0.5469
  717MOL0     H94609   8.732   2.726   6.684 -2.3355 -0.1657  0.8078
  717MOL0     H94610   8.361   2.782   6.751  0.4622  1.4013  1.2233
  717MOL0     H94611   8.352   2.715   6.912 -0.7673 -1.9636 -0.5447
  717MOL0     H94612   8.415   2.487   6.841 -1.1781  1.4426  1.6830
  717MOL0     H94613   8.430   2.559   6.678 -0.0743  0.6759 -1.3219
  717MOL0     H94614   8.173   2.595   6.715 -0.0204 -0.4665 -1.6753
  717MOL0     H94615   8.191   2.489   6.852  0.2895 -0.4291  0.3605
  717MOL0     H94616   8.219   2.442   6.560  0.0317 -1.8352 -1.7394
  717MOL0     H94617   8.322   2.330   6.663  0.1038  1.1058  1.4306
  717MOL0     H94618   8.114   2.222   6.736 -2.4709 -1.9190 -0.8011
  717MOL0     H94619   8.130   2.229   6.572 -0.7326 -0.9419  0.4743
  717MOL0     H94620   7.953   2.440   6.708 -0.2330 -1.3388  1.6514
  717MOL0     H94621   7.891   2.285   6.651 -0.6350 -0.2891 -3.3255
  717MOL0     H94622   8.024   2.454   6.445 -0.2321  1.2954  1.1457
  717MOL0     H94623   7.934   2.301   6.436  2.7188  0.9719 -2.6867
  717MOL0     H94624   7.812   2.563   6.522 -0.6928 -0.6549  2.7123
  717MOL0     H94625   7.725   2.409   6.536  1.2087 -2.5501 -0.6632
  717MOL0     H94626   8.476   2.987   6.898  0.1580 -1.0605  1.4472
  717MOL0     H94627   8.598   3.179   6.809 -2.6390 -0.0111 -1.7209
  717MOL0     H94628   8.853   3.389   6.465 -0.3426  1.5874  1.2795
  717MOL0     H94629   9.004   3.542   6.365 -0.8113 -1.1636 -0.7223
  717MOL0     H94630   8.542   4.565   6.061  1.7071  1.5543 -0.7711
  717MOL0     H94631   8.271   4.532   6.027  1.1861 -1.2357 -1.2040
  717MOL0     H94632   7.787   4.960   5.911 -0.0131  0.9041  0.7494
  717MOL0     H94633   7.558   4.917   5.955  0.8142  0.7233 -0.1129
  717MOL0     H94634   7.382   4.772   5.894 -2.8650 -0.8988 -1.5918
  717MOL0     H94635   7.316   4.840   6.043 -1.5671 -2.6536  3.1180
  717MOL0     H94636   7.224   4.594   6.072 -1.5365  1.8276  0.6388
  717MOL0     H94637   7.142   4.705   5.967  0.0689  0.0819 -0.5894
  717MOL0     H94638   7.351   4.534   5.830 -0.3541  1.9813 -1.5531
  717MOL0     H94639   7.213   4.618   5.767 -1.6325  1.2763  1.4537
  717MOL0     H94640   7.170   4.352   5.804 -1.9838  0.0584 -0.2422
  717MOL0     H94641   7.171   4.395   5.972 -0.6379 -2.9555 -1.1445
  717MOL0     H94642   6.799   4.519   5.812  0.0365  0.2523 -2.7735
  717MOL0     H94643   7.681   4.539   6.138  0.3427 -0.1399 -0.3067
  717MOL0     H94644   7.903   4.591   6.075  1.8146  0.6086 -6.3836
  718MOL0     O94645   8.103   7.562   1.875  0.5992  0.1218  1.0201
  718MOL0     C94646   8.059   7.457   1.822  0.4394 -0.3901  0.0698
  718MOL0     O94647   7.926   7.403   1.838 -0.0288  0.1263  0.0717
  718MOL0     C94648   7.825   7.455   1.915  0.3367  0.4954  0.3967
  718MOL0     C94649   7.828   7.551   2.013 -0.1159 -0.7369 -0.4933
  718MOL0     C94650   7.706   7.584   2.080 -0.2011  0.2511  0.1752
  718MOL0     C94651   7.581   7.518   2.048  0.6230 -0.2199  0.0324
  718MOL0     O94652   7.457   7.539   2.091 -0.1664 -0.2742 -0.3252
  718MOL0     C94653   7.433   7.668   2.159  0.4578 -0.3276 -0.2330
  718MOL0     C94654   7.288   7.719   2.147  0.3951  0.5194  0.1766
  718MOL0     C94655   7.190   7.604   2.187  0.7752 -0.3461  0.4706
  718MOL0     C94656   7.053   7.628   2.120  0.7448  0.3584  0.3825
  718MOL0     C94657   6.938   7.564   2.200 -0.5663  0.7401 -0.1244
  718MOL0     C94658   6.806   7.580   2.127 -0.0612 -0.9557 -0.0245
  718MOL0     C94659   6.780   7.487   2.009 -0.3431 -0.4447  1.3574
  718MOL0     C94660   6.640   7.495   1.955 -0.3746 -0.2640  0.1438
  718MOL0     N94661   6.645   7.443   1.819 -0.6770 -0.2261  0.6731
  718MOL0     C94662   6.705   7.508   1.714  0.1804 -0.3985 -0.6058
  718MOL0     C94663   6.718   7.415   1.612  0.5502  0.7133 -0.3103
  718MOL0     C94664   6.739   7.453   1.468 -0.3210  0.1251 -0.5862
  718MOL0     C94665   6.599   7.477   1.406 -0.2540 -0.3050 -0.0053
  718MOL0     C94666   6.623   7.507   1.256 -0.0611 -1.0028 -0.2169
  718MOL0     C94667   6.490   7.507   1.178  0.6285 -0.0878 -0.0604
  718MOL0     O94668   6.513   7.561   1.048  0.2509  1.1658  0.5655
  718MOL0     C94669   6.409   7.633   0.977 -0.6266 -0.5522 -0.9964
  718MOL0     C94670   6.438   7.750   0.896  0.0988  1.0343 -0.2565
  718MOL0     C94671   6.336   7.826   0.842 -0.5033 -0.2928 -0.5522
  718MOL0     C94672   6.200   7.789   0.857  0.5496  0.7429  1.1340
  718MOL0     C94673   6.109   7.872   0.787  0.7310 -0.1794 -0.0692
  718MOL0     O94674   6.128   8.011   0.776 -0.1759  0.2879 -0.1049
  718MOL0     C94675   6.027   8.072   0.713 -0.9152 -0.3934 -0.1269
  718MOL0     C94676   5.921   8.112   0.790  0.4092 -0.0723 -0.7361
  718MOL0     C94677   5.827   8.193   0.714 -0.4526  0.5212  0.3191
  718MOL0     C94678   5.831   8.209   0.573 -0.8683 -0.0927  0.2225
  718MOL0     O94679   5.750   8.297   0.511  0.3978 -0.0955 -0.2798
  718MOL0     C94680   5.625   8.245   0.462  0.2689  0.0503 -0.4539
  718MOL0     C94681   5.649   8.138   0.358 -0.3205  0.2459  0.5463
  718MOL0     C94682   5.523   8.077   0.301 -0.5399 -0.6301  0.6756
  718MOL0     C94683   5.461   7.969   0.387  0.0498  0.6973 -0.0253
  718MOL0     C94684   5.349   7.894   0.314  0.6513 -0.1110 -0.3672
  718MOL0     C94685   5.333   7.764   0.391  1.0984  0.7657 -0.5524
  718MOL0     C94686   5.253   7.647   0.328  0.3315  0.7376  0.6473
  718MOL0     C94687   5.101   7.677   0.336  0.0780  0.7504  0.5719
  718MOL0    Cl94688   5.024   7.592   0.195 -0.2575 -0.5257 -0.0846
  718MOL0     C94689   5.945   8.158   0.506 -0.0230  0.8246  0.1626
  718MOL0     C94690   6.049   8.100   0.581 -0.3350  0.2309 -0.8186
  718MOL0     O94691   6.020   7.810   0.732  0.0330  0.2967  0.1661
  718MOL0     C94692   6.175   7.663   0.917 -0.7634 -0.3369  0.3086
  718MOL0     C94693   6.278   7.588   0.977 -0.1868 -0.1518  0.0364
  718MOL0     N94694   6.673   7.292   1.664 -0.1607  0.1373  0.4580
  718MOL0     N94695   6.626   7.312   1.783  0.1000 -0.2421  0.5460
  718MOL0     C94696   7.584   7.428   1.942 -0.5074  0.4722 -0.3962
  718MOL0     C94697   7.702   7.399   1.872  0.0056  0.4504 -0.1208
  718MOL0     C94698   8.150   7.382   1.734  0.1784  0.5633 -0.1912
  718MOL0     C94699   8.103   7.288   1.642 -0.2164  0.2269  0.0661
  718MOL0     C94700   8.193   7.218   1.559  0.7306 -0.0677 -0.2335
  718MOL0     C94701   8.331   7.242   1.558  0.5504  0.5527  0.6712
  718MOL0     O94702   8.407   7.178   1.461  0.8898  0.6224  0.6335
  718MOL0     C94703   8.474   7.062   1.510 -0.5014 -0.5034  0.0883
  718MOL0     C94704   8.379   6.957   1.549  0.0801  0.3598  0.5056
  718MOL0     C94705   8.293   6.889   1.423 -0.2430 -0.3463 -0.3627
  718MOL0     C94706   8.383   6.778   1.355  0.0095  0.7407  0.5489
  718MOL0     C94707   8.428   6.666   1.439 -0.2092  0.4929  0.1116
  718MOL0     C94708   8.470   6.590   1.529 -0.2874  1.0067  0.0484
  718MOL0     C94709   8.377   7.343   1.645 -0.7197 -0.1096 -0.9061
  718MOL0     C94710   8.291   7.411   1.734  1.1756  0.2878  0.7467
  718MOL0     H94711   7.924   7.597   2.032  0.2331 -1.3822 -0.6677
  718MOL0     H94712   7.709   7.659   2.159  0.9975  0.1331  0.2634
  718MOL0     H94713   7.489   7.743   2.101  0.3062 -1.0062 -1.2904
  718MOL0     H94714   7.471   7.665   2.262  1.6232  0.4359 -0.6176
  718MOL0     H94715   7.265   7.737   2.042 -2.9697 -1.6601  0.3747
  718MOL0     H94716   7.262   7.806   2.208 -4.5215 -1.8971  2.1490
  718MOL0     H94717   7.178   7.609   2.296 -0.0626  0.9918  0.3410
  718MOL0     H94718   7.224   7.500   2.173  1.5369  0.0704 -0.9588
  718MOL0     H94719   7.033   7.734   2.099  0.2199  0.2470  0.3013
  718MOL0     H94720   7.038   7.578   2.024 -2.8383  1.3659  0.2845
  718MOL0     H94721   6.942   7.613   2.297 -1.2333  1.2602 -0.3505
  718MOL0     H94722   6.955   7.459   2.225 -0.1351  1.0917  1.1056
  718MOL0     H94723   6.797   7.685   2.097 -1.1066 -0.1603  2.7467
  718MOL0     H94724   6.728   7.570   2.203  1.7365  1.3428  2.2992
  718MOL0     H94725   6.856   7.504   1.933  0.1131  0.3647  1.9850
  718MOL0     H94726   6.808   7.382   2.022 -0.0788 -0.9166 -2.1235
  718MOL0     H94727   6.605   7.599   1.944  0.3227 -0.0688 -0.2952
  718MOL0     H94728   6.579   7.427   2.015 -2.8572 -0.3966 -2.2998
  718MOL0     H94729   6.724   7.614   1.698  0.2194 -0.5655 -1.7656
  718MOL0     H94730   6.778   7.363   1.418 -1.4526  0.2256 -1.7275
  718MOL0     H94731   6.808   7.537   1.457  0.0522 -0.1918 -0.6820
  718MOL0     H94732   6.535   7.551   1.454 -1.6135 -1.8369  0.6639
  718MOL0     H94733   6.543   7.384   1.418  0.4780 -0.7724 -0.1465
  718MOL0     H94734   6.663   7.608   1.264 -0.7032 -0.5378 -2.1800
  718MOL0     H94735   6.694   7.435   1.214  2.0738  0.4046  0.8082
  718MOL0     H94736   6.416   7.562   1.237 -0.1875 -2.5760  1.4221
  718MOL0     H94737   6.449   7.405   1.173  0.2305  0.1311 -2.2038
  718MOL0     H94738   6.540   7.788   0.900 -0.8519  3.8139 -0.4245
  718MOL0     H94739   6.362   7.929   0.819  3.1140 -0.4937  1.8394
  718MOL0     H94740   5.916   8.099   0.897  2.3359  2.8083 -0.1831
  718MOL0     H94741   5.749   8.237   0.775  0.0465  3.2147 -0.8505
  718MOL0     H94742   5.564   8.321   0.413 -0.1551 -0.9216 -1.4873
  718MOL0     H94743   5.560   8.198   0.536 -1.0772  0.8551 -1.0931
  718MOL0     H94744   5.708   8.060   0.409  1.0026  0.4507 -0.6014
  718MOL0     H94745   5.720   8.179   0.285 -1.8039  0.9485 -0.5370
  718MOL0     H94746   5.536   8.042   0.198  0.0992  0.8568  0.2157
  718MOL0     H94747   5.454   8.159   0.282  1.1366  0.6871 -0.0802
  718MOL0     H94748   5.553   7.914   0.411  0.2414 -0.6519 -3.3025
  718MOL0     H94749   5.425   8.018   0.478  0.7886  2.2576 -0.5484
  718MOL0     H94750   5.385   7.878   0.211  1.4422 -2.6409  0.2267
  718MOL0     H94751   5.256   7.950   0.302  0.4047 -0.7738 -1.7302
  718MOL0     H94752   5.295   7.796   0.488  0.2985 -0.2515 -0.5134
  718MOL0     H94753   5.436   7.729   0.405  0.2480 -1.3094  1.1708
  718MOL0     H94754   5.291   7.629   0.227  0.4373  0.1418  0.7867
  718MOL0     H94755   5.282   7.559   0.386  2.2786  0.2326 -0.9871
  718MOL0     H94756   5.088   7.784   0.319  0.3501  0.8428  0.9347
  718MOL0     H94757   5.053   7.664   0.433  2.8205 -4.3235  1.6418
  718MOL0     H94758   5.963   8.187   0.403 -0.1127 -1.3330 -0.5091
  718MOL0     H94759   6.147   8.077   0.541 -0.6617 -1.1553 -0.8827
  718MOL0     H94760   6.075   7.621   0.920 -0.6505 -0.7945 -1.2312
  718MOL0     H94761   6.249   7.504   1.040 -1.9053  1.3503  1.3522
  718MOL0     H94762   7.490   7.383   1.913 -2.5787  3.4488  1.1432
  718MOL0     H94763   7.694   7.329   1.789 -3.2472 -1.6655  1.7567
  718MOL0     H94764   7.998   7.261   1.631 -0.4609  1.6573 -1.4885
  718MOL0     H94765   8.166   7.140   1.487  1.8000 -0.9246  0.2589
  718MOL0     H94766   8.537   7.098   1.592  2.2901 -0.2445 -2.0173
  718MOL0     H94767   8.539   7.020   1.433  1.8373  1.9662  0.5574
  718MOL0     H94768   8.438   6.880   1.599  0.2308  1.2680  1.7614
  718MOL0     H94769   8.315   7.004   1.623  3.1019  1.8614  2.3695
  718MOL0     H94770   8.268   6.959   1.343  1.3907  0.2522 -0.3867
  718MOL0     H94771   8.197   6.852   1.462 -0.9155  1.6363 -0.0327
  718MOL0     H94772   8.331   6.742   1.266  0.0885 -0.8374  1.0998
  718MOL0     H94773   8.471   6.830   1.317  0.4685  0.1959  0.8426
  718MOL0     H94774   8.514   6.540   1.613  0.2988  2.4914  0.6535
  718MOL0     H94775   8.485   7.355   1.640 -0.1999 -2.4866  1.9402
  718MOL0     H94776   8.331   7.481   1.806  1.5627  0.9880 -0.1252
  719MOL0     O94777   9.808   4.321   7.850  0.1351 -0.1765 -0.6342
  719MOL0     C94778   9.732   4.343   7.948  0.3378 -0.0091  0.0140
  719MOL0     O94779   9.598   4.360   7.947 -0.6663  0.0416  0.1768
  719MOL0     C94780   9.521   4.351   7.834  0.9769 -0.0803  0.0735
  719MOL0     C94781   9.384   4.372   7.866  0.0656  0.9250 -0.5905
  719MOL0     C94782   9.284   4.359   7.771  0.7797 -0.8895 -1.0753
  719MOL0     C94783   9.317   4.315   7.646  0.0475  0.4188  0.3445
  719MOL0     O94784   9.212   4.290   7.556 -0.2185  0.7107 -0.3368
  719MOL0     C94785   9.233   4.253   7.421  0.2504 -1.1624  0.5088
  719MOL0     C94786   9.088   4.247   7.362 -0.0621  0.3247  0.1597
  719MOL0     C94787   9.034   4.384   7.308  0.2288 -0.3389  0.4161
  719MOL0     C94788   8.892   4.362   7.261  0.0249  0.0461  0.1516
  719MOL0     C94789   8.815   4.497   7.225 -1.0392 -0.0736  0.2871
  719MOL0     C94790   8.671   4.471   7.193  0.0576 -0.2158 -0.6650
  719MOL0     C94791   8.626   4.509   7.047  0.0022 -0.0553 -1.0924
  719MOL0     C94792   8.482   4.453   7.019  0.3959 -0.7529 -0.5755
  719MOL0     N94793   8.387   4.538   7.094 -0.6823 -0.2287 -0.1617
  719MOL0     C94794   8.333   4.505   7.225 -0.2115  1.0288  0.1447
  719MOL0     C94795   8.255   4.613   7.251  0.8125  0.7216  0.1875
  719MOL0     C94796   8.169   4.613   7.378  0.5241 -0.1620  0.0488
  719MOL0     C94797   8.053   4.707   7.350 -0.1347  0.1969 -0.2931
  719MOL0     C94798   7.950   4.709   7.461 -0.6664 -0.5541  0.0238
  719MOL0     C94799   7.831   4.808   7.437  0.4974 -0.4521  0.4443
  719MOL0     O94800   7.726   4.794   7.533  0.8896 -0.5415 -0.3679
  719MOL0     C94801   7.613   4.866   7.520 -0.1425 -0.0504 -0.1213
  719MOL0     C94802   7.573   4.924   7.398  0.1317 -0.6111  0.2292
  719MOL0     C94803   7.454   4.991   7.387 -0.4278  0.1248 -0.6378
  719MOL0     C94804   7.366   4.997   7.500 -0.5791  0.4636  0.2807
  719MOL0     C94805   7.238   5.064   7.483 -0.3396  0.0935  0.9871
  719MOL0     O94806   7.193   5.102   7.356  0.3709  0.0270 -0.0211
  719MOL0     C94807   7.093   5.193   7.354  0.3809 -0.2738 -0.2470
  719MOL0     C94808   6.971   5.157   7.294  0.9337  0.3004 -0.4206
  719MOL0     C94809   6.862   5.245   7.302  0.0924  0.2905 -0.2133
  719MOL0     C94810   6.873   5.368   7.369  0.1871  0.9100  0.7440
  719MOL0     O94811   6.774   5.459   7.375  0.3526 -0.2116  0.2072
  719MOL0     C94812   6.633   5.421   7.376 -0.8239 -0.3140 -0.0119
  719MOL0     C94813   6.547   5.542   7.391 -0.2463 -0.0551  0.1649
  719MOL0     C94814   6.488   5.583   7.527  0.1202 -0.4600  0.9158
  719MOL0     C94815   6.597   5.625   7.621  0.5012 -0.0194 -0.4604
  719MOL0     C94816   6.538   5.638   7.765 -0.0657  0.1771 -0.2296
  719MOL0     C94817   6.632   5.705   7.866  0.5743 -0.3903  0.5190
  719MOL0     C94818   6.769   5.635   7.864  0.6016  0.1470  0.9552
  719MOL0     C94819   6.856   5.666   7.991  0.2987  0.3191 -0.7960
  719MOL0    Cl94820   6.804   5.577   8.146  0.1589  0.3572 -0.5801
  719MOL0     C94821   7.003   5.410   7.408 -0.5211 -0.1845  0.5274
  719MOL0     C94822   7.102   5.321   7.404 -0.6089 -0.7211 -0.4864
  719MOL0     O94823   7.170   5.072   7.578 -0.0808  0.1342 -1.0184
  719MOL0     C94824   7.402   4.925   7.612 -0.0573  0.1797 -0.6809
  719MOL0     C94825   7.528   4.871   7.627 -0.5232 -0.5678 -0.1082
  719MOL0     N94826   8.256   4.698   7.150 -0.0914 -0.0576  0.2210
  719MOL0     N94827   8.341   4.658   7.060  0.4200 -0.2806  0.7053
  719MOL0     C94828   9.444   4.297   7.613 -0.6057  0.1170 -0.2154
  719MOL0     C94829   9.547   4.321   7.698  0.3272  0.6955  0.0453
  719MOL0     C94830   9.797   4.333   8.079 -1.6468  0.4688 -0.4850
  719MOL0     C94831   9.937   4.353   8.079 -0.0780 -0.1422 -0.4788
  719MOL0     C94832   9.991   4.369   8.205 -0.4447  1.4558  0.0319
  719MOL0     C94833   9.916   4.349   8.325  0.1097 -0.2082 -0.3374
  719MOL0     O94834   9.970   4.366   8.457 -0.2108  0.0293  1.2132
  719MOL0     C94835  10.112   4.399   8.472  0.1025 -0.1194  0.0074
  719MOL0     C94836  10.154   4.374   8.622 -0.4059  0.1526  0.8124
  719MOL0     C94837  10.156   4.221   8.664 -0.1703 -0.5252  0.2753
  719MOL0     C94838  10.247   4.140   8.569  0.4480  0.1492 -0.3735
  719MOL0     C94839  10.297   4.026   8.656  1.0094  0.0385  0.5493
  719MOL0     C94840  10.349   3.939   8.727  0.9085 -0.1198  0.4748
  719MOL0     C94841   9.782   4.313   8.318 -0.0496 -0.6309 -0.3060
  719MOL0     C94842   9.718   4.312   8.193  0.2056 -0.0369  0.8085
  719MOL0     H94843   9.356   4.379   7.971 -0.3931 -1.9872 -0.4336
  719MOL0     H94844   9.180   4.378   7.799  0.8032  0.4732 -1.8437
  719MOL0     H94845   9.277   4.153   7.417 -1.0568 -1.7115 -0.8262
  719MOL0     H94846   9.296   4.336   7.388 -2.3005  1.9338  2.7931
  719MOL0     H94847   9.016   4.232   7.443  1.2682  0.6289  1.4480
  719MOL0     H94848   9.087   4.169   7.285 -0.3117 -1.6332  2.0618
  719MOL0     H94849   9.099   4.420   7.228 -0.2682  1.5734  0.8232
  719MOL0     H94850   9.039   4.464   7.382 -0.4938 -0.2397  0.3639
  719MOL0     H94851   8.893   4.295   7.175 -0.3480 -2.0938  1.7459
  719MOL0     H94852   8.847   4.301   7.339  0.6643 -1.3635 -0.5597
  719MOL0     H94853   8.860   4.560   7.147 -0.5679 -0.3279  0.3431
  719MOL0     H94854   8.806   4.561   7.313  1.1253  0.7651 -0.0272
  719MOL0     H94855   8.611   4.524   7.267  3.8754  1.7264  1.3823
  719MOL0     H94856   8.661   4.363   7.208  3.0774 -0.4065  0.8299
  719MOL0     H94857   8.635   4.618   7.041 -0.1800 -0.0212 -0.7001
  719MOL0     H94858   8.692   4.463   6.972  0.6500  0.6862 -0.9887
  719MOL0     H94859   8.465   4.351   7.056 -1.1317 -0.0526  0.7724
  719MOL0     H94860   8.465   4.462   6.911 -1.5215  0.6549 -0.1985
  719MOL0     H94861   8.361   4.413   7.276 -0.1733 -0.8344 -2.9684
  719MOL0     H94862   8.231   4.651   7.460  0.1809  1.1308 -0.2720
  719MOL0     H94863   8.120   4.517   7.394  0.5450 -1.1636 -4.5602
  719MOL0     H94864   8.014   4.666   7.257  0.3132 -1.9796  0.3935
  719MOL0     H94865   8.100   4.805   7.341  3.3785 -1.1325  1.4855
  719MOL0     H94866   7.916   4.605   7.459 -0.7314 -0.5959 -3.4480
  719MOL0     H94867   7.994   4.751   7.552 -1.7405  1.9967 -0.5367
  719MOL0     H94868   7.791   4.791   7.337  2.6343  1.3186 -0.8250
  719MOL0     H94869   7.876   4.908   7.426  0.6772 -0.4387  1.2240
  719MOL0     H94870   7.632   4.928   7.307 -1.1338 -0.6097 -0.6288
  719MOL0     H94871   7.424   5.050   7.301 -1.0075  0.8519  0.0497
  719MOL0     H94872   6.954   5.056   7.259 -3.1671  0.5317  0.4343
  719MOL0     H94873   6.771   5.206   7.257  0.9797 -1.8605 -0.2766
  719MOL0     H94874   6.605   5.354   7.458  2.3049 -0.2284  1.2985
  719MOL0     H94875   6.611   5.371   7.282  2.8098 -1.3170 -0.4956
  719MOL0     H94876   6.460   5.534   7.325 -0.6384  0.0006  0.6626
  719MOL0     H94877   6.610   5.623   7.354  1.3624 -2.1866 -2.1221
  719MOL0     H94878   6.430   5.498   7.565  1.5657 -1.5031  0.8642
  719MOL0     H94879   6.428   5.670   7.500 -0.3201  0.3115  4.0466
  719MOL0     H94880   6.676   5.549   7.626 -0.2311 -0.8507 -1.4217
  719MOL0     H94881   6.654   5.711   7.584  2.5546 -1.1784 -0.1869
  719MOL0     H94882   6.518   5.541   7.814  0.3395  0.0783 -0.2588
  719MOL0     H94883   6.445   5.695   7.765 -0.1995 -0.0303  0.1738
  719MOL0     H94884   6.585   5.700   7.965 -2.3047 -5.0966 -0.7515
  719MOL0     H94885   6.646   5.808   7.833  1.0120 -0.5250  0.2763
  719MOL0     H94886   6.752   5.532   7.832 -2.5060  1.1383 -1.1938
  719MOL0     H94887   6.828   5.665   7.777 -0.2762 -0.4214  0.1420
  719MOL0     H94888   6.847   5.771   8.021 -4.2588 -0.5743  2.0332
  719MOL0     H94889   6.960   5.642   7.971  0.1563  0.5125 -1.7887
  719MOL0     H94890   7.027   5.509   7.445  3.2728 -0.2926 -1.1488
  719MOL0     H94891   7.203   5.340   7.439 -0.5765  1.2330 -1.5149
  719MOL0     H94892   7.340   4.906   7.698  0.4796 -1.5410 -0.6429
  719MOL0     H94893   7.556   4.833   7.725 -1.1964 -0.5686  0.0822
  719MOL0     H94894   9.458   4.263   7.511 -3.2716  1.2693 -1.0785
  719MOL0     H94895   9.649   4.313   7.661  1.1881 -1.4209  2.5547
  719MOL0     H94896   9.992   4.379   7.989 -2.9664  2.3096 -1.6871
  719MOL0     H94897  10.097   4.391   8.201 -0.4824  1.6325 -0.0357
  719MOL0     H94898  10.139   4.502   8.448  0.7411 -0.3952 -0.4689
  719MOL0     H94899  10.177   4.333   8.414 -0.4346  0.6754 -1.5448
  719MOL0     H94900  10.257   4.405   8.637 -0.0713  0.3154 -1.5338
  719MOL0     H94901  10.097   4.440   8.688 -1.0327  1.1629 -0.6904
  719MOL0     H94902  10.059   4.171   8.652 -0.7559  0.9565 -1.7518
  719MOL0     H94903  10.196   4.213   8.766 -3.7469  0.8458  1.9456
  719MOL0     H94904  10.199   4.106   8.476 -2.0486  2.4590 -0.0539
  719MOL0     H94905  10.334   4.197   8.533 -0.5699 -0.6950 -4.7979
  719MOL0     H94906  10.378   3.853   8.784 -1.2414  0.2455  2.2558
  719MOL0     H94907   9.723   4.318   8.409  1.0069  0.8909  0.3346
  719MOL0     H94908   9.612   4.292   8.178 -1.3399  3.2897  5.0708
  720MOL0     O94909   6.724   1.372   4.437  0.2944 -0.2853 -0.0719
  720MOL0     C94910   6.783   1.346   4.543 -0.0640 -0.8771 -0.5045
  720MOL0     O94911   6.742   1.388   4.670 -0.1913  0.5829  0.2748
  720MOL0     C94912   6.615   1.424   4.690  0.7951 -0.4354  0.0490
  720MOL0     C94913   6.580   1.523   4.777 -0.1912 -0.8431 -0.3228
  720MOL0     C94914   6.451   1.554   4.801  1.0007  0.2815  0.4860
  720MOL0     C94915   6.344   1.475   4.748 -0.4370 -0.2558 -0.2535
  720MOL0     O94916   6.212   1.500   4.786  0.3882 -0.3137  0.6734
  720MOL0     C94917   6.178   1.634   4.842 -0.0745  0.2973  0.3210
  720MOL0     C94918   6.024   1.645   4.858 -0.1400 -0.5594 -0.6183
  720MOL0     C94919   5.945   1.631   4.728 -0.4814 -0.5921 -0.7378
  720MOL0     C94920   5.799   1.679   4.745 -1.4376 -0.1480 -1.5741
  720MOL0     C94921   5.706   1.568   4.693 -0.1041  0.2864 -0.1877
  720MOL0     C94922   5.564   1.579   4.756  0.1438  0.1624 -0.2378
  720MOL0     C94923   5.450   1.513   4.681  0.4451  1.1929  0.2175
  720MOL0     C94924   5.437   1.552   4.534 -0.5382  0.4472  0.1154
  720MOL0     N94925   5.304   1.515   4.483  0.3862 -0.0322 -0.2279
  720MOL0     C94926   5.195   1.588   4.488 -0.3451 -0.8108 -0.0799
  720MOL0     C94927   5.095   1.529   4.420 -0.6663 -0.2137  0.5821
  720MOL0     C94928   4.965   1.596   4.383 -0.4140 -0.3067  0.7915
  720MOL0     C94929   4.919   1.548   4.240  0.3429  0.3510 -0.4337
  720MOL0     C94930   4.808   1.618   4.172 -1.3551 -0.5588  0.4499
  720MOL0     C94931   4.675   1.588   4.240 -0.3019  0.1103 -0.9254
  720MOL0     O94932   4.566   1.603   4.151  0.0178 -0.3197  0.3024
  720MOL0     C94933   4.444   1.559   4.194 -0.3172 -0.6066  0.1941
  720MOL0     C94934   4.400   1.444   4.138  0.3177  0.7118 -0.0011
  720MOL0     C94935   4.271   1.390   4.172 -0.4315  0.5638 -0.0560
  720MOL0     C94936   4.191   1.455   4.269 -0.0356  0.5768  0.2734
  720MOL0     C94937   4.066   1.383   4.312  0.0781  0.4462  1.5478
  720MOL0     O94938   4.052   1.254   4.286 -0.0741  0.3214  0.3228
  720MOL0     C94939   3.947   1.185   4.348 -0.4344  0.0080  0.5242
  720MOL0     C94940   3.986   1.061   4.404 -0.0596 -0.4709  0.3076
  720MOL0     C94941   3.884   0.960   4.438  1.0659 -0.2730 -0.5133
  720MOL0     C94942   3.746   0.993   4.431 -0.1250 -0.4502  0.2499
  720MOL0     O94943   3.637   0.916   4.477  0.8270 -0.1528 -0.3510
  720MOL0     C94944   3.663   0.781   4.529 -0.1957 -0.1714 -0.0380
  720MOL0     C94945   3.522   0.738   4.587 -1.0296 -0.2316  1.2283
  720MOL0     C94946   3.417   0.746   4.480 -0.1270 -0.1805  0.0632
  720MOL0     C94947   3.439   0.655   4.361 -0.8417  0.4686 -0.2491
  720MOL0     C94948   3.320   0.619   4.267  0.5918 -0.1200  0.0686
  720MOL0     C94949   3.253   0.741   4.204 -0.0055 -0.0268  0.1162
  720MOL0     C94950   3.133   0.714   4.102  0.1061 -0.5660 -0.3651
  720MOL0     C94951   3.109   0.582   4.023 -0.4858 -0.3322  0.1625
  720MOL0    Cl94952   3.240   0.565   3.906  0.5889 -0.4351  0.2982
  720MOL0     C94953   3.719   1.128   4.382 -0.2381 -0.1440  0.2232
  720MOL0     C94954   3.811   1.211   4.328  0.0955 -0.6882 -0.2033
  720MOL0     O94955   3.983   1.452   4.374 -0.7275  0.2286  0.2658
  720MOL0     C94956   4.233   1.577   4.316  0.6417  0.2066 -0.0181
  720MOL0     C94957   4.356   1.628   4.283  0.0537  0.2046  0.3447
  720MOL0     N94958   5.148   1.414   4.370  0.5528 -0.1011 -1.0408
  720MOL0     N94959   5.265   1.407   4.412 -0.6675 -0.3724 -0.4489
  720MOL0     C94960   6.378   1.367   4.670  0.8739 -0.6994 -1.0686
  720MOL0     C94961   6.512   1.340   4.643  0.9580  1.2296 -0.3955
  720MOL0     C94962   6.908   1.262   4.536 -0.4692 -0.9727  0.0206
  720MOL0     C94963   6.945   1.218   4.410 -0.3478  0.8670 -0.2175
  720MOL0     C94964   7.052   1.138   4.384  0.6189  0.8375  1.1452
  720MOL0     C94965   7.126   1.086   4.496 -0.3308  0.4297 -0.0384
  720MOL0     O94966   7.239   1.008   4.498 -0.3256 -0.2049  0.2905
  720MOL0     C94967   7.316   0.998   4.381 -0.8902 -0.3246 -0.2997
  720MOL0     C94968   7.411   0.879   4.396 -0.3570  0.0989 -0.6480
  720MOL0     C94969   7.326   0.754   4.407 -0.2394  0.8007 -0.0621
  720MOL0     C94970   7.412   0.639   4.458  0.6109 -0.7158 -1.6042
  720MOL0     C94971   7.313   0.531   4.492 -0.3629  0.1419  0.3689
  720MOL0     C94972   7.230   0.449   4.514 -0.1930 -0.1049 -0.3754
  720MOL0     C94973   7.091   1.132   4.623  0.2933 -0.5009  0.6076
  720MOL0     C94974   6.991   1.234   4.642 -0.6250  0.6759 -0.2208
  720MOL0     H94975   6.660   1.567   4.837  0.8444 -1.9311 -0.8759
  720MOL0     H94976   6.418   1.632   4.869  0.0619 -0.8458  1.3679
  720MOL0     H94977   6.225   1.707   4.775  1.1771 -1.6071 -0.9797
  720MOL0     H94978   6.216   1.655   4.943 -0.6885  1.1603  0.3849
  720MOL0     H94979   5.998   1.738   4.909  1.0201  1.0997 -2.9287
  720MOL0     H94980   5.969   1.570   4.917  0.6571  1.5165  3.0463
  720MOL0     H94981   5.952   1.525   4.700 -2.2946  0.0337 -4.1634
  720MOL0     H94982   5.989   1.698   4.653 -2.5307  0.2888 -1.2085
  720MOL0     H94983   5.767   1.680   4.849 -1.0063 -1.6955 -1.3942
  720MOL0     H94984   5.785   1.784   4.719 -0.1979  1.0869  2.1485
  720MOL0     H94985   5.750   1.470   4.712  5.0646  2.9106  4.2912
  720MOL0     H94986   5.709   1.582   4.585 -1.3881  2.0177 -0.0421
  720MOL0     H94987   5.544   1.686   4.769 -0.7044 -0.3399  4.0806
  720MOL0     H94988   5.554   1.539   4.857 -1.5313  1.4583  0.1529
  720MOL0     H94989   5.464   1.406   4.697 -2.5329  0.9197  1.5194
  720MOL0     H94990   5.354   1.542   4.725  0.9354  0.0188  2.1790
  720MOL0     H94991   5.519   1.516   4.472  0.3383 -0.1760  1.5821
  720MOL0     H94992   5.446   1.661   4.523 -1.0074  0.4560 -0.1981
  720MOL0     H94993   5.190   1.682   4.543  0.2883  0.4343 -2.0711
  720MOL0     H94994   4.969   1.705   4.393 -0.9897 -0.2137  0.0301
  720MOL0     H94995   4.890   1.571   4.459 -2.4944 -0.6538 -1.2851
  720MOL0     H94996   4.896   1.441   4.247  2.8643 -0.2028  0.4902
  720MOL0     H94997   5.007   1.557   4.176  0.8186 -1.6127 -0.1311
  720MOL0     H94998   4.843   1.722   4.168  1.9247 -1.5735 -0.3359
  720MOL0     H94999   4.796   1.574   4.073  0.4276 -2.1349  0.8831
  720MOL0     H95000   4.664   1.648   4.331 -0.4326  0.3821 -1.1177
  720MOL0     H95001   4.673   1.484   4.272 -0.9758 -0.1511 -1.7961
  720MOL0     H95002   4.468   1.374   4.091 -0.3025  1.0311 -1.4323
  720MOL0     H95003   4.245   1.296   4.123 -0.6148  1.0109 -0.8390
  720MOL0     H95004   4.093   1.043   4.405  0.3066  1.4568  0.4216
  720MOL0     H95005   3.897   0.857   4.471 -1.2259 -0.9971 -1.6809
  720MOL0     H95006   3.732   0.783   4.614 -1.5443  3.0094  1.1539
  720MOL0     H95007   3.697   0.706   4.457  1.1006 -0.3450  0.7246
  720MOL0     H95008   3.498   0.792   4.679  1.8342 -0.8643  2.4881
  720MOL0     H95009   3.538   0.632   4.611  0.6581  0.0669  1.5501
  720MOL0     H95010   3.405   0.848   4.443 -0.5859 -0.1694  0.2339
  720MOL0     H95011   3.319   0.721   4.521 -0.5588  0.9405 -0.2375
  720MOL0     H95012   3.520   0.704   4.307  1.0114  0.6795  2.5094
  720MOL0     H95013   3.489   0.564   4.395 -0.2346  0.2591 -1.6332
  720MOL0     H95014   3.252   0.557   4.326  1.9636 -1.8533 -0.0731
  720MOL0     H95015   3.347   0.542   4.193 -2.2324 -0.5385 -0.6820
  720MOL0     H95016   3.331   0.795   4.149 -0.3640  1.2392  0.8214
  720MOL0     H95017   3.209   0.803   4.283 -0.1813  0.5287 -0.4115
  720MOL0     H95018   3.043   0.734   4.160  1.5540 -0.4007  1.9797
  720MOL0     H95019   3.137   0.800   4.035 -0.4034  0.4273  0.8486
  720MOL0     H95020   3.013   0.589   3.970 -0.1932  1.0759 -0.2141
  720MOL0     H95021   3.113   0.492   4.086  2.0231 -2.0939 -2.2689
  720MOL0     H95022   3.615   1.160   4.383 -0.5138 -0.9787 -0.3594
  720MOL0     H95023   3.779   1.304   4.282  0.6047 -1.1668 -1.5876
  720MOL0     H95024   4.181   1.640   4.388  1.6749  0.4555  0.5365
  720MOL0     H95025   4.385   1.726   4.321  1.4746  0.3839 -1.0961
  720MOL0     H95026   6.300   1.313   4.617 -0.5486 -1.0006  1.1686
  720MOL0     H95027   6.539   1.258   4.578  2.7270  1.3470  0.1375
  720MOL0     H95028   6.894   1.252   4.321  0.6785 -0.7328 -1.4713
  720MOL0     H95029   7.089   1.124   4.283 -1.5824  0.8414  0.2686
  720MOL0     H95030   7.371   1.090   4.361 -1.8796  0.4306  0.3182
  720MOL0     H95031   7.245   0.979   4.300 -1.8492 -5.6027  1.4242
  720MOL0     H95032   7.475   0.861   4.309  0.7935 -0.7237  0.3324
  720MOL0     H95033   7.476   0.889   4.484 -2.8195  2.1189  1.0883
  720MOL0     H95034   7.281   0.727   4.311  1.9739  1.8176 -1.4439
  720MOL0     H95035   7.240   0.766   4.474 -0.3868 -2.2353  0.4628
  720MOL0     H95036   7.479   0.603   4.380  1.9292 -1.8959 -0.0113
  720MOL0     H95037   7.470   0.676   4.543  0.2354  1.0727 -2.0720
  720MOL0     H95038   7.147   0.383   4.530 -0.1298 -0.1420 -0.1942
  720MOL0     H95039   7.144   1.093   4.709  0.5379 -1.9777 -0.1835
  720MOL0     H95040   6.965   1.274   4.740  0.5019  0.4446  0.1858
  721MOL0     O95041   4.557   2.889   6.335 -0.5464  0.5603  0.6510
  721MOL0     C95042   4.625   2.982   6.297  0.6168  0.1370 -0.5026
  721MOL0     O95043   4.579   3.078   6.203  0.3646 -0.0068  1.1633
  721MOL0     C95044   4.451   3.080   6.160  0.8416 -0.2501  0.6049
  721MOL0     C95045   4.341   3.035   6.235  0.3665 -0.4619  0.0345
  721MOL0     C95046   4.215   3.043   6.182 -0.6274 -0.3721 -0.1215
  721MOL0     C95047   4.197   3.090   6.051 -0.7776 -0.6650 -0.6715
  721MOL0     O95048   4.072   3.104   5.995  0.5844  0.1840  0.2346
  721MOL0     C95049   3.960   3.023   6.049  0.1986 -0.0121  1.1509
  721MOL0     C95050   3.832   3.025   5.964  0.7404 -0.9159  0.0689
  721MOL0     C95051   3.788   3.175   5.925 -0.0111 -0.0803  0.2764
  721MOL0     C95052   3.649   3.186   5.859 -0.0498 -0.1998 -0.3837
  721MOL0     C95053   3.599   3.331   5.826  0.6125 -0.4280  0.0545
  721MOL0     C95054   3.472   3.349   5.738 -0.6577 -0.0352  0.2679
  721MOL0     C95055   3.351   3.261   5.763  0.4579 -0.0813 -0.3875
  721MOL0     C95056   3.286   3.307   5.891 -0.0874 -0.0049 -0.2245
  721MOL0     N95057   3.180   3.219   5.943  0.0693 -1.0186  0.0131
  721MOL0     C95058   3.199   3.126   6.041 -0.4743  0.4019  0.6416
  721MOL0     C95059   3.083   3.086   6.080  0.9773  0.2549  0.1691
  721MOL0     C95060   3.061   2.990   6.196  0.2112 -1.2072  0.0717
  721MOL0     C95061   2.967   2.871   6.173 -0.5902 -0.6917  0.5922
  721MOL0     C95062   3.023   2.785   6.055  0.0976 -0.3254 -0.0747
  721MOL0     C95063   2.927   2.671   6.002  0.2498 -1.0893 -0.8821
  721MOL0     O95064   2.784   2.697   6.024 -0.0797  0.1604 -0.5705
  721MOL0     C95065   2.716   2.634   6.126  0.4670 -0.2527 -0.6113
  721MOL0     C95066   2.773   2.552   6.235 -0.3126  0.1216 -1.3066
  721MOL0     C95067   2.695   2.513   6.346 -0.0124  0.2378 -0.0220
  721MOL0     C95068   2.557   2.526   6.334  0.0274  0.3829 -0.9211
  721MOL0     C95069   2.476   2.465   6.442  0.8335  0.6403  0.1217
  721MOL0     O95070   2.343   2.432   6.413  0.9011 -0.3875 -0.7239
  721MOL0     C95071   2.250   2.406   6.508 -0.0920 -0.5569 -0.0557
  721MOL0     C95072   2.181   2.285   6.504  0.3236  0.2200 -0.2171
  721MOL0     C95073   2.091   2.237   6.599  0.7140 -0.2415 -0.5059
  721MOL0     C95074   2.062   2.322   6.703 -0.1084 -0.2222 -0.2281
  721MOL0     O95075   1.964   2.278   6.785 -0.0406 -0.3803 -0.3603
  721MOL0     C95076   1.948   2.352   6.907  1.0924 -0.3639 -0.2930
  721MOL0     C95077   1.854   2.290   7.010  0.4044 -0.4393  0.0071
  721MOL0     C95078   1.830   2.382   7.128 -0.9570 -0.5010 -0.6282
  721MOL0     C95079   1.742   2.501   7.096  0.2694  0.3828 -0.2259
  721MOL0     C95080   1.689   2.566   7.220  0.0111 -0.2419 -0.0571
  721MOL0     C95081   1.605   2.681   7.171  0.4760  0.0021 -0.1792
  721MOL0     C95082   1.540   2.746   7.302 -0.1068 -0.1823  1.3995
  721MOL0     C95083   1.436   2.661   7.372  0.4072  0.1737 -0.7844
  721MOL0    Cl95084   1.329   2.779   7.460  0.2901 -0.3197  0.3205
  721MOL0     C95085   2.125   2.446   6.716  0.0385  1.5423 -1.1449
  721MOL0     C95086   2.211   2.493   6.618 -0.4878 -0.8328 -0.4223
  721MOL0     O95087   2.525   2.444   6.551 -0.2790 -0.0173  0.6823
  721MOL0     C95088   2.501   2.593   6.220  0.0369 -0.4955 -0.3078
  721MOL0     C95089   2.578   2.661   6.123  0.6971  0.2265  0.2573
  721MOL0     N95090   2.985   3.158   6.012 -0.3330  0.4925 -0.3881
  721MOL0     N95091   3.042   3.240   5.943  0.2127 -0.7158 -0.3877
  721MOL0     C95092   4.309   3.130   5.976 -0.4288  0.6081  0.2261
  721MOL0     C95093   4.434   3.137   6.035 -0.3599  0.3048 -1.0463
  721MOL0     C95094   4.769   2.985   6.324  1.0247 -0.9047 -0.2178
  721MOL0     C95095   4.855   3.074   6.251 -0.1482  0.0543 -0.5746
  721MOL0     C95096   4.986   3.086   6.274 -1.3095  0.0288  0.5221
  721MOL0     C95097   5.042   3.004   6.370  0.5712  0.4223  0.6983
  721MOL0     O95098   5.181   2.995   6.381 -0.2126 -1.2275 -0.0892
  721MOL0     C95099   5.238   3.130   6.387 -0.3054  0.3205  0.1417
  721MOL0     C95100   5.389   3.096   6.386 -0.5655  0.5830  0.6788
  721MOL0     C95101   5.489   3.206   6.428  0.1865  0.0080  0.7130
  721MOL0     C95102   5.620   3.153   6.486 -0.0544 -0.3019  0.4265
  721MOL0     C95103   5.736   3.251   6.477 -0.4488 -0.0167 -0.1649
  721MOL0     C95104   5.837   3.319   6.451  0.2550 -1.0109 -0.1429
  721MOL0     C95105   4.972   2.895   6.421 -0.7898 -0.3322 -0.1989
  721MOL0     C95106   4.837   2.895   6.409  0.4922 -0.4090  0.8387
  721MOL0     H95107   4.334   2.987   6.332 -3.6546 -0.2636  0.0067
  721MOL0     H95108   4.139   2.996   6.243 -1.0836 -3.6242 -2.9156
  721MOL0     H95109   3.931   3.064   6.146  1.1487 -0.2170  1.5320
  721MOL0     H95110   4.001   2.923   6.058  1.6656  0.4013 -0.2986
  721MOL0     H95111   3.746   2.987   6.019 -0.4801  2.3656  0.6827
  721MOL0     H95112   3.852   2.959   5.879  0.8023 -0.8323  0.0179
  721MOL0     H95113   3.864   3.237   5.876 -1.1472  1.5070  0.4500
  721MOL0     H95114   3.775   3.217   6.025  2.4362 -2.0277  1.5334
  721MOL0     H95115   3.631   3.130   5.767 -3.7253  0.4082 -0.1498
  721MOL0     H95116   3.580   3.157   5.939 -1.1769  3.5221  0.2131
  721MOL0     H95117   3.673   3.393   5.775  0.5585 -1.5155 -1.3870
  721MOL0     H95118   3.586   3.374   5.926  0.1675 -1.4396  0.4417
  721MOL0     H95119   3.513   3.335   5.637  3.0690  0.1839  1.5887
  721MOL0     H95120   3.435   3.451   5.751  0.1172  0.0349  2.2201
  721MOL0     H95121   3.284   3.267   5.677  2.3039  5.3149 -1.8156
  721MOL0     H95122   3.394   3.161   5.777 -0.3643 -0.1068  2.7566
  721MOL0     H95123   3.244   3.408   5.887 -1.6291 -0.5813  0.4395
  721MOL0     H95124   3.370   3.303   5.961  0.3128 -0.9614 -0.7363
  721MOL0     H95125   3.295   3.087   6.074  0.4615  1.3239 -0.8586
  721MOL0     H95126   3.015   3.057   6.270 -2.0461 -2.7087  0.1349
  721MOL0     H95127   3.160   2.962   6.231  1.0246 -0.2126 -1.3486
  721MOL0     H95128   2.867   2.907   6.147  1.2392  5.3025  0.3913
  721MOL0     H95129   2.952   2.818   6.267 -0.5418 -0.0253  0.9810
  721MOL0     H95130   3.043   2.854   5.974 -0.4940  0.2426  0.2525
  721MOL0     H95131   3.113   2.737   6.095 -0.0620 -2.0821 -1.6583
  721MOL0     H95132   2.949   2.576   6.050 -1.6591 -0.7978  0.6852
  721MOL0     H95133   2.932   2.659   5.893  2.2984  2.8015 -1.4013
  721MOL0     H95134   2.878   2.538   6.257 -0.8329 -1.0676  0.7111
  721MOL0     H95135   2.746   2.480   6.436 -2.6702  0.7129  1.7530
  721MOL0     H95136   2.210   2.230   6.415 -2.4862 -1.1722 -0.3678
  721MOL0     H95137   2.046   2.138   6.598  1.4532 -0.5927 -0.4939
  721MOL0     H95138   1.907   2.452   6.888  2.4053  0.4869  1.0830
  721MOL0     H95139   2.045   2.377   6.952  0.4615  0.4631  0.6473
  721MOL0     H95140   1.899   2.193   7.033  2.5128  0.5477  0.3188
  721MOL0     H95141   1.755   2.272   6.968 -0.4258  0.0972  1.6762
  721MOL0     H95142   1.920   2.432   7.166 -1.0721  0.0944 -1.1185
  721MOL0     H95143   1.791   2.324   7.212  0.3763 -0.3425  0.1336
  721MOL0     H95144   1.798   2.582   7.049  1.2825  2.0801  3.4822
  721MOL0     H95145   1.662   2.470   7.028 -1.5092  0.7361  1.5945
  721MOL0     H95146   1.771   2.599   7.285  0.0487  0.1106 -0.2798
  721MOL0     H95147   1.618   2.498   7.269 -2.1488  2.1650  0.4311
  721MOL0     H95148   1.517   2.646   7.117 -0.5264  2.6084 -0.3611
  721MOL0     H95149   1.657   2.760   7.117 -0.6746 -0.1103 -1.5112
  721MOL0     H95150   1.624   2.771   7.367 -0.0998 -1.0283  1.7213
  721MOL0     H95151   1.499   2.839   7.261  3.4376  1.7410  1.7647
  721MOL0     H95152   1.488   2.603   7.449 -1.2389 -0.0413  0.1936
  721MOL0     H95153   1.376   2.598   7.306 -3.9802  1.9995  1.1098
  721MOL0     H95154   2.122   2.505   6.806  3.5157 -0.4790  0.5250
  721MOL0     H95155   2.241   2.595   6.641 -0.9804 -0.3204 -1.9563
  721MOL0     H95156   2.393   2.597   6.216  0.1046  2.7644 -3.1417
  721MOL0     H95157   2.529   2.709   6.039 -0.9122 -0.7803  0.5984
  721MOL0     H95158   4.291   3.150   5.871 -0.0910 -3.1556 -0.6830
  721MOL0     H95159   4.515   3.194   5.990 -0.3961  0.8222 -0.4707
  721MOL0     H95160   4.807   3.139   6.178 -2.0521 -1.1545 -0.4702
  721MOL0     H95161   5.032   3.157   6.205 -0.8763  0.4118  1.2017
  721MOL0     H95162   5.186   3.181   6.469 -2.8122 -1.3657 -0.2872
  721MOL0     H95163   5.216   3.196   6.302 -2.2264 -0.7365 -0.2413
  721MOL0     H95164   5.391   3.041   6.481 -0.6214  2.8832  2.0974
  721MOL0     H95165   5.426   3.046   6.296  0.5434  2.8244 -0.1861
  721MOL0     H95166   5.428   3.267   6.495  2.2693 -0.3969  3.1437
  721MOL0     H95167   5.502   3.272   6.342 -2.5494  0.6459  0.6992
  721MOL0     H95168   5.595   3.134   6.591 -0.3024 -0.7740  0.2841
  721MOL0     H95169   5.654   3.062   6.436 -0.6060  0.2032 -0.9114
  721MOL0     H95170   5.931   3.364   6.427  0.6812 -3.0522 -2.7858
  721MOL0     H95171   5.040   2.832   6.478  2.5871  2.4660 -0.7849
  721MOL0     H95172   4.778   2.815   6.453  1.2641 -0.4912  1.7394
  722MOL0     O95173  11.270   8.810   7.566  0.0685  0.2132 -0.1050
  722MOL0     C95174  11.249   8.892   7.652  0.4211 -0.9607  0.3526
  722MOL0     O95175  11.126   8.950   7.679  0.1605  0.4750  0.5051
  722MOL0     C95176  11.014   8.904   7.618  0.0372  0.5789 -0.0186
  722MOL0     C95177  10.946   8.794   7.676  0.1027  0.4439 -0.5446
  722MOL0     C95178  10.824   8.747   7.620  0.4871 -0.3292 -0.9608
  722MOL0     C95179  10.774   8.800   7.503  0.0210  0.8364  0.2153
  722MOL0     O95180  10.673   8.753   7.422 -0.2034 -0.2793 -0.3604
  722MOL0     C95181  10.609   8.632   7.470  0.1166 -1.5621  0.1605
  722MOL0     C95182  10.469   8.633   7.394  0.0875  0.1067 -0.5201
  722MOL0     C95183  10.389   8.507   7.416  0.0698  0.3696  0.7350
  722MOL0     C95184  10.237   8.526   7.386 -0.9111 -0.3989  0.4082
  722MOL0     C95185  10.159   8.408   7.450 -0.1713  0.4723 -0.4416
  722MOL0     C95186  10.181   8.270   7.376  1.0216 -0.3085  0.0408
  722MOL0     C95187  10.076   8.168   7.440 -0.2338 -0.3251 -0.5554
  722MOL0     C95188   9.937   8.187   7.379  0.0034 -0.4618  0.2354
  722MOL0     N95189   9.823   8.128   7.456 -0.0073 -0.1341 -0.2241
  722MOL0     C95190   9.759   8.010   7.434  0.0780  0.2413  0.2708
  722MOL0     C95191   9.666   7.999   7.531  0.7749  0.3305 -0.3474
  722MOL0     C95192   9.575   7.871   7.545  0.4729 -0.1191 -0.3722
  722MOL0     C95193   9.461   7.877   7.439  0.5805  0.0324 -0.3792
  722MOL0     C95194   9.491   7.814   7.304 -1.2224  0.3212 -0.9705
  722MOL0     C95195   9.549   7.669   7.310 -1.0081  0.4213  0.5181
  722MOL0     O95196   9.446   7.571   7.348  0.0490 -0.0560 -0.2465
  722MOL0     C95197   9.319   7.584   7.293 -0.8115 -0.0466  0.2583
  722MOL0     C95198   9.299   7.588   7.156 -0.4263 -0.0096 -0.3411
  722MOL0     C95199   9.175   7.572   7.100  0.7265  0.0348  0.1559
  722MOL0     C95200   9.071   7.526   7.183  0.0725 -1.5992  0.4249
  722MOL0     C95201   8.929   7.492   7.124 -0.2300 -0.5707 -0.7589
  722MOL0     O95202   8.825   7.473   7.205 -0.3803 -0.7229  0.9209
  722MOL0     C95203   8.703   7.448   7.143 -0.9847  0.0938  0.0044
  722MOL0     C95204   8.647   7.496   6.944  0.1254 -1.1611  0.4737
  722MOL0     C95205   8.452   7.459   6.879  0.0005  0.5465  0.1878
  722MOL0     C95206   8.312   7.363   7.009 -0.3697  0.1667  0.2015
  722MOL0     O95207   8.182   7.350   6.972  0.1197 -0.0182 -0.2033
  722MOL0     C95208   8.135   7.380   6.836 -0.4575 -0.6673  0.5133
  722MOL0     C95209   7.988   7.355   6.844 -0.9207 -0.2931  0.1877
  722MOL0     C95210   7.937   7.395   6.703  0.0944  0.1543  0.3925
  722MOL0     C95211   7.793   7.337   6.688 -0.0029  0.5537  1.1030
  722MOL0     C95212   7.745   7.377   6.548  0.0801 -0.0996 -0.2414
  722MOL0     C95213   7.594   7.369   6.533 -1.1739  0.4679 -1.5819
  722MOL0     C95214   7.547   7.394   6.396 -0.8030  0.8146 -1.1374
  722MOL0     C95215   7.396   7.428   6.385  0.2499 -0.0723  0.1214
  722MOL0    Cl95216   7.282   7.314   6.466 -0.1076  0.5711  0.2980
  722MOL0     C95217   8.367   7.309   7.201  0.3576 -0.2998 -0.9262
  722MOL0     C95218   8.561   7.347   7.271 -0.5495 -0.6572  0.0795
  722MOL0     O95219   8.927   7.472   7.009 -0.2648  0.0434  0.4231
  722MOL0     C95220   9.094   7.534   7.323 -0.1135 -0.1318  1.2000
  722MOL0     C95221   9.213   7.559   7.380  0.0159 -0.1149 -0.4996
  722MOL0     N95222   9.665   8.115   7.596 -0.1859 -0.1348  0.3627
  722MOL0     N95223   9.760   8.196   7.562 -0.3318  0.6747 -1.1976
  722MOL0     C95224  10.852   8.902   7.440  0.3909 -1.5988  0.0048
  722MOL0     C95225  10.963   8.960   7.500  0.0685  0.8525  0.5539
  722MOL0     C95226  11.365   8.929   7.733  0.0871 -0.4432  0.1035
  722MOL0     C95227  11.350   8.978   7.863  0.4108  0.8757  0.0922
  722MOL0     C95228  11.456   9.023   7.941  0.9495 -0.5148 -0.8899
  722MOL0     C95229  11.579   9.016   7.898 -0.2922 -0.1320 -0.3515
  722MOL0     O95230  11.684   9.050   7.980 -0.7211 -0.1958 -0.0821
  722MOL0     C95231  11.762   9.160   7.941  0.1244  0.1992  0.1397
  722MOL0     C95232  11.869   9.201   8.037 -0.0234 -1.0195  0.5536
  722MOL0     C95233  11.930   9.344   8.003 -0.2020 -0.6285 -0.9110
  722MOL0     C95234  12.038   9.385   8.101  0.0658 -0.3163 -0.0865
  722MOL0     C95235  11.963   9.420   8.222  0.2641  0.3204 -0.0041
  722MOL0     C95236  11.886   9.444   8.313  0.7468 -0.1443  0.5919
  722MOL0     C95237  11.607   8.963   7.767 -0.7418  0.2026  0.3509
  722MOL0     C95238  11.491   8.937   7.681  0.0001  0.3322 -0.3435
  722MOL0     H95239  10.988   8.761   7.771  1.5297  0.0206 -1.2940
  722MOL0     H95240  10.768   8.671   7.674 -2.3360  0.5310 -2.4712
  722MOL0     H95241  10.592   8.635   7.578 -1.4001 -2.1546 -0.0434
  722MOL0     H95242  10.671   8.546   7.442 -1.4962 -2.6457 -0.2492
  722MOL0     H95243  10.483   8.652   7.288  0.3583 -0.7463 -0.6502
  722MOL0     H95244  10.415   8.717   7.437 -1.6471 -0.3004 -1.7820
  722MOL0     H95245  10.401   8.474   7.520  0.5860  2.6419  1.4513
  722MOL0     H95246  10.433   8.428   7.354 -0.8913  0.2138  0.2396
  722MOL0     H95247  10.211   8.619   7.437  1.6295  1.2738 -1.1259
  722MOL0     H95248  10.225   8.537   7.278 -2.2599  0.4821  0.6333
  722MOL0     H95249  10.054   8.436   7.450 -1.1945 -2.5942  2.9189
  722MOL0     H95250  10.183   8.388   7.554 -0.8693  0.7831 -0.2158
  722MOL0     H95251  10.287   8.244   7.385  1.5321  1.1688 -1.3247
  722MOL0     H95252  10.147   8.276   7.272 -1.8697 -2.4330  0.7171
  722MOL0     H95253  10.115   8.067   7.422  1.3775  0.3326 -0.9475
  722MOL0     H95254  10.075   8.181   7.549  1.2050  0.1753 -0.5767
  722MOL0     H95255   9.940   8.156   7.274  1.3337  0.9881 -0.1947
  722MOL0     H95256   9.921   8.295   7.376  2.0673 -0.1227 -0.1820
  722MOL0     H95257   9.797   7.933   7.368 -0.6203  1.2646 -1.3892
  722MOL0     H95258   9.530   7.865   7.645  0.2101 -2.4098 -0.5604
  722MOL0     H95259   9.629   7.777   7.531 -0.1176 -0.6711  0.8588
  722MOL0     H95260   9.430   7.978   7.410  1.5935 -0.1944 -2.5054
  722MOL0     H95261   9.378   7.826   7.487  2.6759  0.8293  4.6761
  722MOL0     H95262   9.396   7.818   7.250 -1.7216  1.7041 -0.0215
  722MOL0     H95263   9.566   7.871   7.247  3.6340 -1.6585  2.7064
  722MOL0     H95264   9.634   7.662   7.378  0.6690  1.0962 -1.4021
  722MOL0     H95265   9.574   7.641   7.207 -4.9335 -0.1294 -0.4438
  722MOL0     H95266   9.387   7.609   7.095  1.7335 -0.9918  2.2118
  722MOL0     H95267   9.159   7.582   6.993  1.1196  0.7711  0.1648
  722MOL0     H95268   8.726   7.518   6.872 -0.4532 -1.0095 -0.1270
  722MOL0     H95269   8.429   7.478   6.775  2.2351 -1.5465 -0.8007
  722MOL0     H95270   8.192   7.319   6.766 -0.9776 -2.0718  1.2636
  722MOL0     H95271   8.149   7.485   6.811  1.6011 -0.8051  0.9220
  722MOL0     H95272   7.955   7.426   6.920  2.9770  1.8608  0.1242
  722MOL0     H95273   7.962   7.253   6.875  0.8786 -1.1525 -0.9272
  722MOL0     H95274   7.999   7.359   6.620  1.3207 -2.2491  2.2306
  722MOL0     H95275   7.928   7.504   6.696 -0.7693  0.0329 -0.7731
  722MOL0     H95276   7.801   7.227   6.687  3.7461  0.6456 -1.6818
  722MOL0     H95277   7.729   7.360   6.774  0.9551  1.0386  1.7019
  722MOL0     H95278   7.800   7.311   6.481  1.6588 -0.4698  1.3569
  722MOL0     H95279   7.777   7.477   6.521 -0.7724  0.0869 -0.5933
  722MOL0     H95280   7.563   7.459   6.587  0.7977  0.2634 -0.0070
  722MOL0     H95281   7.561   7.275   6.580 -0.4623 -0.6006 -3.1352
  722MOL0     H95282   7.591   7.489   6.366 -0.1552  1.3198  1.2094
  722MOL0     H95283   7.564   7.301   6.341 -0.9413  0.9913 -1.4805
  722MOL0     H95284   7.362   7.446   6.283 -0.2168  1.3116  0.4984
  722MOL0     H95285   7.383   7.525   6.434 -0.4260  1.0973 -2.2226
  722MOL0     H95286   8.302   7.280   7.282  1.7371  0.2635  0.4308
  722MOL0     H95287   8.592   7.311   7.368  0.2017  1.7375  0.7962
  722MOL0     H95288   9.009   7.509   7.385 -0.7350  0.5644  0.6506
  722MOL0     H95289   9.239   7.562   7.485 -1.6979  2.9797 -0.0423
  722MOL0     H95290  10.807   8.936   7.347  1.8293 -0.0191 -0.1634
  722MOL0     H95291  11.011   9.048   7.458 -3.0333  0.7091 -3.9326
  722MOL0     H95292  11.251   8.985   7.907  0.6393  2.4819  0.3957
  722MOL0     H95293  11.448   9.058   8.043 -0.3838 -1.8894 -0.4925
  722MOL0     H95294  11.696   9.247   7.927  1.0332  0.7499 -0.8285
  722MOL0     H95295  11.802   9.129   7.844 -1.4506  0.4348 -0.6213
  722MOL0     H95296  11.827   9.196   8.138 -3.6890 -2.8052 -0.8746
  722MOL0     H95297  11.953   9.131   8.028  2.0146  1.4294 -1.0520
  722MOL0     H95298  11.845   9.413   8.012  0.6991  0.8941 -3.2274
  722MOL0     H95299  11.967   9.351   7.901  0.2065  0.7993 -0.6756
  722MOL0     H95300  12.106   9.300   8.112  1.8912  0.7666 -2.1942
  722MOL0     H95301  12.079   9.478   8.062  0.3240 -1.0641 -1.6802
  722MOL0     H95302  11.814   9.465   8.389  0.4573 -1.3027  0.6483
  722MOL0     H95303  11.708   8.971   7.730 -1.1438  1.1868 -0.6131
  722MOL0     H95304  11.506   8.909   7.577 -2.5358 -1.6886 -0.2493
  723MOL0     O95305   8.706   5.777   8.286  1.0340  0.9029  0.3993
  723MOL0     C95306   8.780   5.706   8.349 -0.8297 -0.8894  0.1762
  723MOL0     O95307   8.752   5.627   8.454 -0.0487 -0.3227 -0.4147
  723MOL0     C95308   8.629   5.606   8.516  0.1556 -0.4876 -0.1926
  723MOL0     C95309   8.642   5.535   8.643 -0.1807 -0.9377  1.0237
  723MOL0     C95310   8.529   5.520   8.723  0.9022 -0.1864  0.5245
  723MOL0     C95311   8.403   5.569   8.687  0.0428 -1.4984 -1.1317
  723MOL0     O95312   8.290   5.577   8.765 -0.3039  0.6204 -0.5868
  723MOL0     C95313   8.292   5.519   8.896  0.4489  0.3523 -0.0487
  723MOL0     C95314   8.153   5.521   8.948 -0.4205  0.4751  0.5318
  723MOL0     C95315   8.089   5.654   8.974  0.0981  0.1096  0.0899
  723MOL0     C95316   7.947   5.640   9.045 -0.6254 -1.4359 -0.1240
  723MOL0     C95317   7.904   5.753   9.143  0.3234  0.0746  0.7002
  723MOL0     C95318   7.900   5.895   9.082  0.4341  1.3538 -0.1836
  723MOL0     C95319   7.861   6.000   9.189 -0.2156  0.8513 -0.1999
  723MOL0     C95320   7.938   5.984   9.325 -0.1358 -0.8047  0.4088
  723MOL0     N95321   8.088   5.988   9.301  0.1782  0.3194  0.2612
  723MOL0     C95322   8.180   5.889   9.328 -0.0339  0.0361  0.1071
  723MOL0     C95323   8.287   5.960   9.341 -0.1043  0.6624  0.0298
  723MOL0     C95324   8.415   5.910   9.402 -0.8128  0.7588 -0.2405
  723MOL0     C95325   8.515   5.886   9.285  0.2737  0.3798 -0.1384
  723MOL0     C95326   8.494   5.754   9.210 -0.5753 -0.1463  0.3720
  723MOL0     C95327   8.622   5.717   9.134  0.4887 -0.1481 -0.7642
  723MOL0     O95328   8.616   5.594   9.066 -0.5814  0.6408  0.3591
  723MOL0     C95329   8.729   5.550   9.004  0.3924  0.1769  0.4843
  723MOL0     C95330   8.824   5.639   8.972 -0.0475 -0.4749  0.8736
  723MOL0     C95331   8.941   5.594   8.918 -0.8308 -0.5500  0.6016
  723MOL0     C95332   8.978   5.463   8.903 -1.2665 -0.1954 -1.1017
  723MOL0     C95333   9.116   5.420   8.867 -0.0479  0.4899  0.4586
  723MOL0     O95334   9.214   5.515   8.834  0.5378  0.4362  0.0518
  723MOL0     C95335   9.346   5.468   8.817  0.9663  0.1102  0.7449
  723MOL0     C95336   9.381   5.436   8.686 -0.1173 -0.4451  0.9593
  723MOL0     C95337   9.509   5.404   8.657  0.1070 -0.4879 -0.5301
  723MOL0     C95338   9.600   5.383   8.761 -0.2764 -0.3827 -0.6504
  723MOL0     O95339   9.732   5.352   8.723 -0.4250 -0.2710 -0.0819
  723MOL0     C95340   9.822   5.274   8.806  0.0462  0.2995  0.3334
  723MOL0     C95341   9.945   5.203   8.737 -1.1348 -0.3753 -0.0869
  723MOL0     C95342  10.051   5.311   8.699  0.2256  0.8360 -0.2450
  723MOL0     C95343  10.173   5.246   8.631  0.0180 -0.3400 -0.3758
  723MOL0     C95344  10.167   5.223   8.486  0.3622 -0.2824 -0.5824
  723MOL0     C95345  10.295   5.170   8.432 -0.8699  0.1570  0.4770
  723MOL0     C95346  10.327   5.026   8.473  0.3034  0.0538 -0.8817
  723MOL0     C95347  10.464   4.987   8.421 -0.1809 -0.0379 -0.3921
  723MOL0    Cl95348  10.585   5.086   8.491 -0.6754 -0.0213 -0.1647
  723MOL0     C95349   9.566   5.400   8.894  0.4160  0.8665  0.7516
  723MOL0     C95350   9.433   5.433   8.926 -0.5534  0.5380  0.1197
  723MOL0     O95351   9.134   5.301   8.874 -0.4089  0.0523  0.1900
  723MOL0     C95352   8.875   5.363   8.941  0.1409 -0.1733 -0.2794
  723MOL0     C95353   8.751   5.417   8.988  0.9972 -0.8094 -0.1878
  723MOL0     N95354   8.281   6.077   9.264  0.2190 -0.3296 -0.3702
  723MOL0     N95355   8.158   6.093   9.246  0.9696  0.7434 -0.7399
  723MOL0     C95356   8.388   5.633   8.561 -0.0020 -0.5734  0.4078
  723MOL0     C95357   8.507   5.650   8.473 -0.7054 -0.2678  0.1671
  723MOL0     C95358   8.924   5.708   8.321  0.4093  0.0884  0.5700
  723MOL0     C95359   9.019   5.624   8.383 -0.2990 -1.1655  0.3409
  723MOL0     C95360   9.158   5.634   8.358  0.1783  0.1862  0.1148
  723MOL0     C95361   9.199   5.721   8.250  0.5748  0.1079  0.4081
  723MOL0     O95362   9.330   5.734   8.212  0.2214 -0.4672 -0.0859
  723MOL0     C95363   9.436   5.644   8.250 -0.1759 -0.3829  0.2935
  723MOL0     C95364   9.543   5.618   8.139 -0.0409 -0.0844 -0.4735
  723MOL0     C95365   9.575   5.755   8.079  0.2469 -0.0050 -0.5257
  723MOL0     C95366   9.729   5.798   8.104 -0.9967 -1.2180 -0.1199
  723MOL0     C95367   9.805   5.702   8.026 -0.5958 -0.2039 -0.1129
  723MOL0     C95368   9.878   5.627   7.979  0.0562  0.5002  0.8372
  723MOL0     C95369   9.103   5.806   8.200 -0.0532  0.4244  0.2739
  723MOL0     C95370   8.972   5.796   8.224  0.8056  0.1486  0.1377
  723MOL0     H95371   8.744   5.504   8.663 -0.2637 -1.2473  0.9729
  723MOL0     H95372   8.542   5.472   8.820 -0.8819 -3.4237 -0.6624
  723MOL0     H95373   8.354   5.571   8.970  1.2021 -1.3047  0.5301
  723MOL0     H95374   8.328   5.417   8.879  1.6964  1.2367 -3.6992
  723MOL0     H95375   8.167   5.468   9.043 -1.5779 -0.3594  0.2606
  723MOL0     H95376   8.093   5.466   8.875  0.2756  1.0192 -0.4827
  723MOL0     H95377   8.064   5.703   8.879 -0.7539  1.3603  0.9217
  723MOL0     H95378   8.156   5.719   9.031 -1.3427  2.4070 -0.6702
  723MOL0     H95379   7.871   5.629   8.966 -0.8232 -1.3258  0.0487
  723MOL0     H95380   7.938   5.544   9.096 -0.7200 -1.6828 -0.5936
  723MOL0     H95381   7.971   5.740   9.228  1.2417 -2.4910 -0.3278
  723MOL0     H95382   7.799   5.725   9.158 -0.0240  0.3156 -1.0864
  723MOL0     H95383   7.825   5.894   9.003  2.4904  1.8707 -2.2452
  723MOL0     H95384   8.001   5.924   9.050  1.6511 -2.1743  0.0334
  723MOL0     H95385   7.888   6.098   9.149 -1.1039  2.1877  2.2631
  723MOL0     H95386   7.753   5.994   9.202 -0.4795  2.6597 -1.1691
  723MOL0     H95387   7.916   5.885   9.367  1.4713 -1.4042 -0.0729
  723MOL0     H95388   7.899   6.062   9.390  0.7381 -0.9943  1.1789
  723MOL0     H95389   8.161   5.797   9.382  1.0358  1.6793  3.5964
  723MOL0     H95390   8.396   5.823   9.466  1.7024  0.4300  0.1634
  723MOL0     H95391   8.454   5.987   9.469 -1.0002  1.4474 -0.9062
  723MOL0     H95392   8.612   5.886   9.334 -1.0094 -1.2613  2.6910
  723MOL0     H95393   8.501   5.960   9.206 -1.0290 -1.8322 -2.1300
  723MOL0     H95394   8.477   5.675   9.284 -3.2100 -1.5853 -1.5597
  723MOL0     H95395   8.420   5.753   9.129 -0.3250 -2.5298  0.0976
  723MOL0     H95396   8.704   5.718   9.207  1.5282 -3.3121 -1.7319
  723MOL0     H95397   8.630   5.805   9.069  3.7832  2.7575  3.0537
  723MOL0     H95398   8.820   5.747   8.968  1.2203 -0.4456 -0.7156
  723MOL0     H95399   9.005   5.671   8.876 -5.1263  3.2398  0.3009
  723MOL0     H95400   9.319   5.463   8.601 -2.3326 -0.3018  2.5269
  723MOL0     H95401   9.552   5.396   8.558  0.8936 -0.1664 -0.2256
  723MOL0     H95402   9.759   5.193   8.843 -1.5526  1.6909  0.8353
  723MOL0     H95403   9.855   5.329   8.894 -0.3280 -0.0281  0.6818
  723MOL0     H95404   9.906   5.143   8.655 -1.4512  3.0361 -2.6410
  723MOL0     H95405   9.985   5.130   8.808  0.6565 -0.7538 -1.4211
  723MOL0     H95406  10.079   5.367   8.789 -0.1044  2.4135 -1.0841
  723MOL0     H95407  10.005   5.384   8.632  0.8678 -0.1989 -1.8599
  723MOL0     H95408  10.258   5.303   8.667 -0.0739  1.9018 -3.3291
  723MOL0     H95409  10.177   5.144   8.671 -1.1463  0.4708  2.0304
  723MOL0     H95410  10.140   5.317   8.437  0.8857  0.4612  0.5360
  723MOL0     H95411  10.095   5.146   8.455  0.4580 -0.4609 -0.3679
  723MOL0     H95412  10.379   5.232   8.465  0.4538 -0.7919 -0.9574
  723MOL0     H95413  10.288   5.173   8.323  4.5057  1.5881 -0.1286
  723MOL0     H95414  10.323   5.024   8.583  3.1019  4.3891 -0.4532
  723MOL0     H95415  10.260   4.955   8.423 -0.0317 -2.4194  2.6528
  723MOL0     H95416  10.462   4.996   8.312  0.0470 -1.2610 -0.5150
  723MOL0     H95417  10.489   4.883   8.443 -0.4885 -0.2201 -0.8673
  723MOL0     H95418   9.646   5.380   8.964  0.0411 -1.3885  0.5959
  723MOL0     H95419   9.400   5.462   9.025 -2.0846  0.6933 -0.4081
  723MOL0     H95420   8.897   5.257   8.940  0.6555 -0.1525  2.4506
  723MOL0     H95421   8.685   5.345   9.037  0.3751  0.7897  1.4602
  723MOL0     H95422   8.294   5.677   8.528  0.7867 -0.1792 -1.4579
  723MOL0     H95423   8.500   5.705   8.379  0.3063 -0.9528 -0.3289
  723MOL0     H95424   8.986   5.564   8.467 -0.4359  1.3714  2.2093
  723MOL0     H95425   9.231   5.572   8.409  3.0993  0.8543 -2.8887
  723MOL0     H95426   9.392   5.552   8.290 -0.5053  0.0374  0.9192
  723MOL0     H95427   9.497   5.686   8.331 -0.6055  0.6619  0.0791
  723MOL0     H95428   9.631   5.581   8.193 -0.9091 -1.3768  0.0983
  723MOL0     H95429   9.507   5.540   8.072  1.5573 -1.5022  0.2749
  723MOL0     H95430   9.516   5.833   8.128  1.1707  0.5564 -0.2745
  723MOL0     H95431   9.549   5.761   7.973  3.2361  1.1535 -1.2862
  723MOL0     H95432   9.749   5.903   8.079 -1.0440 -0.6012  2.1907
  723MOL0     H95433   9.761   5.785   8.208  1.5841  1.3932 -0.4586
  723MOL0     H95434   9.961   5.576   7.934  1.0623  2.3290  0.5432
  723MOL0     H95435   9.137   5.881   8.129 -1.2252  0.8109  0.0972
  723MOL0     H95436   8.902   5.863   8.176 -1.0397 -1.2599  0.7468
  724MOL0     O95437  11.183   0.884   2.294  0.2263  0.5061  0.0174
  724MOL0     C95438  11.185   0.906   2.173  0.4060 -0.1561 -0.4700
  724MOL0     O95439  11.075   0.907   2.083 -0.5021 -0.6497  0.0252
  724MOL0     C95440  10.945   0.918   2.129  0.1349 -0.9805 -0.2327
  724MOL0     C95441  10.851   0.859   2.039 -0.0260  0.0236  0.3172
  724MOL0     C95442  10.714   0.878   2.080  0.3961  0.5263 -0.1618
  724MOL0     C95443  10.670   0.944   2.200 -0.0133 -0.3063 -0.2996
  724MOL0     O95444  10.540   0.950   2.250  0.7228 -0.1693 -0.1919
  724MOL0     C95445  10.443   0.850   2.213  0.1288  0.5488  0.4979
  724MOL0     C95446  10.320   0.901   2.283 -0.6597 -0.1152  0.0980
  724MOL0     C95447  10.208   0.799   2.243 -0.1056 -0.3021  0.4108
  724MOL0     C95448  10.067   0.843   2.297  0.2331  0.2866 -0.0627
  724MOL0     C95449   9.948   0.767   2.230  0.7342 -1.1678  0.1339
  724MOL0     C95450   9.947   0.616   2.260  0.6340  0.3730 -0.8161
  724MOL0     C95451   9.816   0.544   2.214 -0.0010 -0.1003 -0.2107
  724MOL0     C95452   9.717   0.611   2.120  0.6625 -0.0258 -0.4984
  724MOL0     N95453   9.605   0.525   2.093  0.1105  0.0112  0.3073
  724MOL0     C95454   9.597   0.419   2.007 -0.5609  0.1485  0.6041
  724MOL0     C95455   9.465   0.373   2.003 -0.4604 -0.9318 -0.4470
  724MOL0     C95456   9.427   0.258   1.922  0.1161 -0.7985 -0.0634
  724MOL0     C95457   9.278   0.240   1.914  0.7633  0.4499  0.0766
  724MOL0     C95458   9.224   0.155   1.795  0.2375 -0.0955  0.0175
  724MOL0     C95459   9.077   0.143   1.815  0.7177  0.5628 -0.0711
  724MOL0     O95460   9.000   0.265   1.798  0.0614 -0.0381  0.4604
  724MOL0     C95461   8.864   0.278   1.824  0.0993  0.3492 -0.2854
  724MOL0     C95462   8.778   0.166   1.851  0.5196 -0.7747 -0.3955
  724MOL0     C95463   8.641   0.195   1.840  0.3751  0.5834  0.6933
  724MOL0     C95464   8.587   0.323   1.830 -0.4186  0.3680  0.5683
  724MOL0     C95465   8.444   0.344   1.848  0.0204 -0.1382 -0.6566
  724MOL0     O95466   8.400   0.477   1.848  0.1480 -0.4897 -0.7594
  724MOL0     C95467   8.270   0.507   1.872  0.3009 -0.7874  0.0856
  724MOL0     C95468   8.162   0.447   1.798  0.4526 -0.6390  0.2938
  724MOL0     C95469   8.033   0.474   1.823  0.4697  0.7294 -0.1334
  724MOL0     C95470   7.995   0.565   1.922 -0.0917  0.5087 -0.3232
  724MOL0     O95471   7.857   0.587   1.951  0.5439 -0.2626 -0.2905
  724MOL0     C95472   7.816   0.711   2.020  0.5601  0.7241 -0.0898
  724MOL0     C95473   7.674   0.711   2.056  1.0287 -0.6300 -0.4863
  724MOL0     C95474   7.613   0.598   2.134  0.0192  0.4095  0.3207
  724MOL0     C95475   7.472   0.586   2.149  0.5451 -0.4148  0.2531
  724MOL0     C95476   7.435   0.501   2.264 -0.6764  0.0168 -0.3606
  724MOL0     C95477   7.298   0.532   2.313  1.5059  0.2185 -0.8883
  724MOL0     C95478   7.191   0.470   2.224 -0.6320  0.2602  0.3351
  724MOL0     C95479   7.124   0.569   2.127  0.2665  0.2799  0.4154
  724MOL0    Cl95480   7.052   0.471   1.997 -0.8209  0.1048 -0.1460
  724MOL0     C95481   8.097   0.649   1.986  0.2467 -0.4593 -0.3433
  724MOL0     C95482   8.234   0.614   1.957 -0.4680  0.0213  0.0966
  724MOL0     O95483   8.368   0.246   1.870 -1.1472 -0.5506  0.3872
  724MOL0     C95484   8.680   0.422   1.790 -0.2684 -0.1411  0.0727
  724MOL0     C95485   8.815   0.400   1.789  0.6221 -0.4112 -0.8824
  724MOL0     N95486   9.397   0.461   2.086 -0.0880  0.5526  0.1396
  724MOL0     N95487   9.482   0.533   2.149 -0.3730  0.3518  0.2343
  724MOL0     C95488  10.772   0.983   2.289  0.1643 -1.0870  0.2542
  724MOL0     C95489  10.907   0.982   2.256  0.3859  0.9002  0.6051
  724MOL0     C95490  11.317   0.925   2.117  0.2095  0.3360 -0.4762
  724MOL0     C95491  11.436   0.894   2.193  1.1577 -0.5587 -0.7353
  724MOL0     C95492  11.554   0.884   2.121 -0.5641 -0.1915 -0.6169
  724MOL0     C95493  11.558   0.908   1.980 -0.1122  0.1000  0.0716
  724MOL0     O95494  11.676   0.890   1.916  0.1173 -0.6930 -0.1506
  724MOL0     C95495  11.696   0.953   1.787  0.1628 -0.0642 -0.3271
  724MOL0     C95496  11.831   0.903   1.723 -0.2525  0.1606  0.8990
  724MOL0     C95497  11.961   0.955   1.783 -0.3700  0.1717 -0.4751
  724MOL0     C95498  12.080   0.881   1.718  1.1398  0.2154  0.6252
  724MOL0     C95499  12.197   0.918   1.796  0.9577  0.3298  0.3283
  724MOL0     C95500  12.278   0.971   1.863  0.8768 -0.6328  0.5751
  724MOL0     C95501  11.434   0.938   1.915 -0.9232  0.0632  0.3511
  724MOL0     C95502  11.316   0.942   1.981  0.2243  0.5347 -0.3383
  724MOL0     H95503  10.880   0.803   1.951 -2.7423 -0.3913 -0.4139
  724MOL0     H95504  10.647   0.831   2.009 -0.1873  0.1615  0.6159
  724MOL0     H95505  10.478   0.748   2.233 -0.2956 -0.0181 -1.4389
  724MOL0     H95506  10.428   0.856   2.105  2.7665 -2.0890 -0.1551
  724MOL0     H95507  10.290   1.002   2.257 -2.4918 -0.5511  0.3822
  724MOL0     H95508  10.323   0.897   2.393  0.3802 -0.2551  0.0741
  724MOL0     H95509  10.240   0.703   2.286 -0.8225 -0.8224 -0.1695
  724MOL0     H95510  10.203   0.786   2.134  0.8738  1.5839  0.1121
  724MOL0     H95511  10.070   0.835   2.406  2.0958 -2.1638 -0.1993
  724MOL0     H95512  10.057   0.949   2.272 -0.9078  0.1359 -0.3318
  724MOL0     H95513   9.945   0.780   2.121 -1.1928  0.5164  0.3233
  724MOL0     H95514   9.861   0.809   2.281  1.1981 -1.4656  1.2032
  724MOL0     H95515   9.959   0.606   2.368 -0.0572  0.6212 -0.7113
  724MOL0     H95516  10.027   0.553   2.221  0.7773 -0.0441  0.1458
  724MOL0     H95517   9.845   0.447   2.174  0.6691  0.3637 -0.8865
  724MOL0     H95518   9.755   0.530   2.304 -3.2296 -0.2636 -2.2677
  724MOL0     H95519   9.762   0.643   2.026  2.3779  2.1453  0.9510
  724MOL0     H95520   9.682   0.709   2.154  1.6795  0.5005 -0.9299
  724MOL0     H95521   9.675   0.362   1.957 -0.8214  0.8189 -0.6117
  724MOL0     H95522   9.480   0.173   1.967  1.1173 -0.6388 -0.8814
  724MOL0     H95523   9.467   0.263   1.820 -3.9438 -1.6074 -1.8997
  724MOL0     H95524   9.223   0.334   1.902 -1.6730 -1.0209 -1.1149
  724MOL0     H95525   9.242   0.201   2.010  1.0943  2.9533  1.3098
  724MOL0     H95526   9.249   0.208   1.703  2.2045  0.3612  0.7488
  724MOL0     H95527   9.272   0.057   1.798  0.5014 -0.0638 -2.1925
  724MOL0     H95528   9.059   0.112   1.918  0.3995  0.8781 -0.0335
  724MOL0     H95529   9.031   0.062   1.757 -2.6094  2.0694  0.2845
  724MOL0     H95530   8.814   0.064   1.855  0.5690 -0.7710 -0.7073
  724MOL0     H95531   8.568   0.116   1.854 -1.0952  1.2864 -2.2999
  724MOL0     H95532   8.187   0.364   1.732 -1.1918 -1.4686  0.6493
  724MOL0     H95533   7.957   0.413   1.774  1.9158 -0.3016 -1.1636
  724MOL0     H95534   7.838   0.799   1.959 -0.4757  2.0933  1.4335
  724MOL0     H95535   7.870   0.725   2.114 -0.0241 -0.0765  0.3757
  724MOL0     H95536   7.621   0.728   1.962 -0.3256  0.8566  0.4745
  724MOL0     H95537   7.659   0.803   2.114  0.7198  1.0293 -3.0263
  724MOL0     H95538   7.647   0.606   2.238 -1.6222  0.5472  0.8650
  724MOL0     H95539   7.649   0.501   2.097  0.0964  0.6068 -0.1311
  724MOL0     H95540   7.419   0.681   2.163 -0.7440 -1.1760  0.7441
  724MOL0     H95541   7.426   0.550   2.056 -1.6159  2.6072 -0.0222
  724MOL0     H95542   7.507   0.517   2.345 -1.5219  0.5295  0.2985
  724MOL0     H95543   7.437   0.397   2.231 -0.8522  0.2456 -1.1315
  724MOL0     H95544   7.275   0.638   2.328  2.4939  0.0288  3.0926
  724MOL0     H95545   7.276   0.497   2.415 -1.6213 -1.3470 -1.9424
  724MOL0     H95546   7.231   0.385   2.167 -0.6657 -1.5314  2.8311
  724MOL0     H95547   7.109   0.430   2.284 -1.1805  2.5072  1.1852
  724MOL0     H95548   7.203   0.637   2.093 -0.7513  1.6519  0.7034
  724MOL0     H95549   7.038   0.609   2.181  0.2060 -0.8373  1.1665
  724MOL0     H95550   8.081   0.723   2.064  2.4342 -0.8801  0.5845
  724MOL0     H95551   8.317   0.662   2.008 -0.4515 -0.5662  0.6307
  724MOL0     H95552   8.639   0.517   1.758  2.6189  0.3075 -2.8023
  724MOL0     H95553   8.878   0.481   1.753 -1.4257  1.5791 -0.1444
  724MOL0     H95554  10.749   1.025   2.386 -0.3385  0.7415 -0.6187
  724MOL0     H95555  10.984   1.018   2.324  2.5689 -1.2120 -0.5471
  724MOL0     H95556  11.431   0.857   2.295  1.3029 -1.6606 -1.1245
  724MOL0     H95557  11.644   0.841   2.164  0.4212  1.9100 -0.4490
  724MOL0     H95558  11.708   1.060   1.807 -0.6163 -0.0627  0.1941
  724MOL0     H95559  11.618   0.924   1.717 -1.6733 -1.0281  1.9515
  724MOL0     H95560  11.849   0.798   1.748 -0.1684  0.4084  1.9285
  724MOL0     H95561  11.829   0.923   1.615  0.2615  1.5257  1.1140
  724MOL0     H95562  11.951   0.927   1.889 -0.8927 -0.8689 -0.7843
  724MOL0     H95563  11.976   1.063   1.784 -0.1707  0.3525  4.5924
  724MOL0     H95564  12.072   0.772   1.730 -0.2157  0.4018  1.7014
  724MOL0     H95565  12.094   0.905   1.612 -2.4280  3.3300  0.6597
  724MOL0     H95566  12.360   1.023   1.908  0.8166 -2.7149  3.3592
  724MOL0     H95567  11.433   0.947   1.807  0.6521 -2.0570  0.0881
  724MOL0     H95568  11.227   0.959   1.922 -0.2561 -0.7334 -0.0089
  725MOL0     O95569  10.377   1.474   8.394 -0.3906  0.0692 -0.2547
  725MOL0     C95570  10.318   1.405   8.317  0.0627  0.4013  0.4474
  725MOL0     O95571  10.379   1.321   8.238 -0.5528  0.3497  0.0366
  725MOL0     C95572  10.516   1.336   8.238 -0.0075 -0.9170  0.8722
  725MOL0     C95573  10.567   1.447   8.174 -0.1372  0.0488  0.3635
  725MOL0     C95574  10.706   1.475   8.181  0.4222 -0.2666 -0.1380
  725MOL0     C95575  10.799   1.383   8.227 -0.1833 -0.4472 -0.6300
  725MOL0     O95576  10.923   1.418   8.210  0.3109  0.0518 -0.2655
  725MOL0     C95577  11.026   1.325   8.198 -0.3571  0.4706 -0.0400
  725MOL0     C95578  11.146   1.387   8.127  0.2736 -0.5352  0.1237
  725MOL0     C95579  11.190   1.508   8.211  0.6322 -0.0291 -0.0470
  725MOL0     C95580  11.331   1.570   8.157  0.6613 -0.1394 -0.4180
  725MOL0     C95581  11.447   1.493   8.228 -1.0729  0.9351  0.0996
  725MOL0     C95582  11.582   1.559   8.197  0.5722  0.4814 -0.5094
  725MOL0     C95583  11.697   1.479   8.256 -0.0022 -0.2162  0.3105
  725MOL0     C95584  11.831   1.563   8.254 -0.0209 -0.8323  0.3622
  725MOL0     N95585  11.899   1.602   8.129 -0.4138 -0.2926  0.3601
  725MOL0     C95586  11.858   1.563   7.998 -0.1311  1.1244 -0.7143
  725MOL0     C95587  11.949   1.619   7.909 -0.2152 -0.7161  0.0526
  725MOL0     C95588  11.952   1.582   7.754  0.0750  0.4048  0.5671
  725MOL0     C95589  11.846   1.637   7.666 -1.1480 -0.4816 -0.4605
  725MOL0     C95590  11.815   1.549   7.547 -0.4982 -0.9779  0.1818
  725MOL0     C95591  11.688   1.598   7.464  0.0853 -0.8956 -0.0475
  725MOL0     O95592  11.573   1.609   7.554 -0.7434 -0.1279 -0.5802
  725MOL0     C95593  11.449   1.561   7.524 -1.1975 -0.1849 -0.5477
  725MOL0     C95594  11.366   1.574   7.635  0.3257  0.0405  0.0034
  725MOL0     C95595  11.227   1.541   7.622  0.0246  0.0072 -0.0005
  725MOL0     C95596  11.189   1.481   7.495  0.6196  0.8628 -0.4041
  725MOL0     C95597  11.051   1.425   7.483 -0.1426 -0.1696  0.1793
  725MOL0     O95598  10.982   1.408   7.606 -0.5875  0.4684 -0.2935
  725MOL0     C95599  10.841   1.409   7.588  0.3027  0.2259  0.2700
  725MOL0     C95600  10.785   1.277   7.571 -0.2830 -0.4520  0.3582
  725MOL0     C95601  10.653   1.270   7.526  0.0128  0.7907 -0.1324
  725MOL0     C95602  10.575   1.379   7.514  0.3503 -1.2953  0.4762
  725MOL0     O95603  10.447   1.349   7.485 -0.7851  0.3748 -0.4284
  725MOL0     C95604  10.347   1.456   7.474  0.4539  0.1732  0.1140
  725MOL0     C95605  10.211   1.388   7.473 -0.0049 -0.3677  0.0535
  725MOL0     C95606  10.117   1.482   7.405  0.4297 -0.3885  0.5843
  725MOL0     C95607   9.967   1.460   7.427  0.2066  0.0477 -0.2479
  725MOL0     C95608   9.911   1.343   7.351  0.4156  1.1421 -0.7765
  725MOL0     C95609   9.901   1.380   7.198  0.2668  0.2246  0.2280
  725MOL0     C95610   9.793   1.478   7.188 -0.4619  0.9362 -0.4185
  725MOL0     C95611   9.683   1.437   7.076 -0.5180  0.3873 -0.3964
  725MOL0    Cl95612   9.520   1.515   7.110  0.3631 -0.3768  0.4726
  725MOL0     C95613  10.623   1.502   7.535 -0.7085 -0.6777 -0.0605
  725MOL0     C95614  10.760   1.524   7.562  0.1349  0.4524  0.5377
  725MOL0     O95615  10.995   1.434   7.373 -0.2477  0.3699  0.6723
  725MOL0     C95616  11.266   1.480   7.384 -0.1143  0.3205 -0.3258
  725MOL0     C95617  11.398   1.523   7.402 -0.8895 -0.1001  0.3672
  725MOL0     N95618  12.039   1.693   7.986 -1.1362 -0.0785 -0.4464
  725MOL0     N95619  12.009   1.684   8.112  0.4743  0.3858 -0.0763
  725MOL0     C95620  10.743   1.275   8.292  0.2209  0.3689  0.1606
  725MOL0     C95621  10.611   1.244   8.299 -0.3078 -0.1380  0.6504
  725MOL0     C95622  10.162   1.409   8.308 -0.1651  0.9692  0.6067
  725MOL0     C95623  10.090   1.359   8.201 -0.4911  0.3893  0.5917
  725MOL0     C95624   9.955   1.384   8.185 -0.3717 -0.4956  0.6503
  725MOL0     C95625   9.886   1.446   8.287 -0.3037 -0.9558  0.1533
  725MOL0     O95626   9.747   1.466   8.291 -0.3124 -0.2235 -0.1395
  725MOL0     C95627   9.676   1.479   8.165  0.6253  1.0299 -0.1001
  725MOL0     C95628   9.531   1.518   8.199 -0.2046  0.2194 -0.2651
  725MOL0     C95629   9.440   1.531   8.071 -0.1012  0.8329 -0.0850
  725MOL0     C95630   9.301   1.591   8.102 -0.2661 -0.4104  0.3886
  725MOL0     C95631   9.237   1.632   7.978  0.1987  0.0577  0.1345
  725MOL0     C95632   9.179   1.687   7.883 -0.2051 -0.2016 -0.3522
  725MOL0     C95633   9.957   1.491   8.402  0.4850 -0.1117  1.3671
  725MOL0     C95634  10.094   1.470   8.410 -0.0504  0.0192  0.3170
  725MOL0     H95635  10.504   1.529   8.141 -2.0160 -0.5031  2.3738
  725MOL0     H95636  10.745   1.565   8.135  1.8650 -0.3270  0.9184
  725MOL0     H95637  10.993   1.231   8.153  0.3967  0.7879 -1.3065
  725MOL0     H95638  11.056   1.305   8.301  2.9338 -1.1778 -1.1865
  725MOL0     H95639  11.126   1.415   8.023  0.1476  0.0095  0.2915
  725MOL0     H95640  11.233   1.320   8.127  0.2376 -0.6662 -2.2907
  725MOL0     H95641  11.195   1.477   8.315  1.4065  0.1007 -0.0396
  725MOL0     H95642  11.107   1.580   8.214  0.1448 -0.6266  2.2517
  725MOL0     H95643  11.347   1.544   8.052  2.1229 -0.5481 -0.1340
  725MOL0     H95644  11.331   1.677   8.177 -0.8869 -0.6892  3.3198
  725MOL0     H95645  11.444   1.394   8.182  2.2150 -0.8617  3.2036
  725MOL0     H95646  11.436   1.476   8.335  2.1352 -2.2504  0.1443
  725MOL0     H95647  11.574   1.663   8.230 -2.7501 -0.5664  2.7162
  725MOL0     H95648  11.587   1.566   8.088  0.8176 -0.9375 -0.6067
  725MOL0     H95649  11.668   1.461   8.360 -1.5233 -2.6083 -0.4310
  725MOL0     H95650  11.701   1.382   8.205 -1.5321  0.8163 -1.9395
  725MOL0     H95651  11.909   1.500   8.298  0.5587  0.8832  1.9508
  725MOL0     H95652  11.818   1.651   8.318 -0.7763 -0.0929 -0.7778
  725MOL0     H95653  11.782   1.497   7.959  0.5999  0.8436 -1.6906
  725MOL0     H95654  11.962   1.474   7.738 -0.2948  0.2497  1.3087
  725MOL0     H95655  12.043   1.626   7.714  0.3255 -0.4030  0.2247
  725MOL0     H95656  11.869   1.740   7.640 -1.3685  0.0893  1.4074
  725MOL0     H95657  11.753   1.635   7.725 -3.0893 -2.2988 -3.3249
  725MOL0     H95658  11.892   1.542   7.470 -1.3641 -3.7984 -0.5772
  725MOL0     H95659  11.790   1.447   7.579  0.1282 -1.4948 -0.9122
  725MOL0     H95660  11.674   1.530   7.379  2.5170  0.6665 -1.8128
  725MOL0     H95661  11.710   1.695   7.418 -1.4508 -0.4861  0.0083
  725MOL0     H95662  11.401   1.617   7.729 -4.8002  0.1602  2.2437
  725MOL0     H95663  11.159   1.551   7.707  2.5514  0.6502  2.0695
  725MOL0     H95664  10.854   1.194   7.579  0.0794 -0.0694  1.5466
  725MOL0     H95665  10.603   1.180   7.490 -0.7588  0.9689  0.4447
  725MOL0     H95666  10.367   1.517   7.386 -1.7292  1.7854  0.6385
  725MOL0     H95667  10.332   1.533   7.551 -1.1689  1.7609 -1.6964
  725MOL0     H95668  10.175   1.379   7.576 -0.6199 -1.4446 -0.2364
  725MOL0     H95669  10.205   1.292   7.420  2.3094  0.1705 -1.3188
  725MOL0     H95670  10.141   1.484   7.298 -0.8175  2.9102  0.2644
  725MOL0     H95671  10.131   1.578   7.455  1.0966  1.6285 -3.1163
  725MOL0     H95672   9.955   1.449   7.535 -1.3844  1.0018 -0.3109
  725MOL0     H95673   9.907   1.549   7.411  0.1181 -0.3087 -2.1257
  725MOL0     H95674   9.815   1.324   7.400  0.9407  2.2484  0.7566
  725MOL0     H95675   9.969   1.252   7.367  0.6732  1.4520  0.0566
  725MOL0     H95676   9.873   1.284   7.154  2.0886 -0.9644  1.5322
  725MOL0     H95677   9.992   1.426   7.158 -0.2900 -0.8165 -2.4096
  725MOL0     H95678   9.740   1.484   7.284 -0.2966 -1.7329 -0.0818
  725MOL0     H95679   9.849   1.568   7.163 -1.3250  1.6876  0.3004
  725MOL0     H95680   9.671   1.328   7.081  0.8283  0.2645  1.7806
  725MOL0     H95681   9.722   1.462   6.977  4.2976  1.3357  1.4673
  725MOL0     H95682  10.565   1.592   7.520  1.9874  1.1332 -0.3416
  725MOL0     H95683  10.812   1.619   7.562  0.7912  0.0987  0.8504
  725MOL0     H95684  11.223   1.447   7.290 -3.4129  2.9413  0.0777
  725MOL0     H95685  11.460   1.524   7.313 -0.0945  2.8977  0.8311
  725MOL0     H95686  10.817   1.213   8.342 -2.5590 -2.3836  1.1694
  725MOL0     H95687  10.566   1.161   8.353 -0.9633 -0.6027 -0.5765
  725MOL0     H95688  10.134   1.308   8.116 -1.0770  0.9840 -0.0948
  725MOL0     H95689   9.895   1.374   8.095  0.7418  0.7624 -0.2765
  725MOL0     H95690   9.677   1.389   8.104 -1.4525  0.3276  0.8450
  725MOL0     H95691   9.716   1.556   8.098  1.3784 -0.5945 -1.5887
  725MOL0     H95692   9.502   1.448   8.277  2.4192 -1.3345 -0.5828
  725MOL0     H95693   9.536   1.619   8.241  1.9030 -0.4716  1.3063
  725MOL0     H95694   9.420   1.433   8.029 -0.1878  1.5041 -1.6755
  725MOL0     H95695   9.486   1.591   7.992 -0.7957 -0.5388 -1.5644
  725MOL0     H95696   9.232   1.518   8.147 -0.5629  0.1627  0.8710
  725MOL0     H95697   9.312   1.682   8.161 -3.0217  0.6007 -0.4742
  725MOL0     H95698   9.129   1.749   7.812 -1.1808  0.8625  1.2008
  725MOL0     H95699   9.905   1.538   8.485  1.3954 -0.0244  1.8979
  725MOL0     H95700  10.140   1.503   8.502 -0.8350  2.6369 -0.1646
  726MOL0     O95701   3.336   4.620   8.817 -0.2520  0.0790  0.1907
  726MOL0     C95702   3.369   4.719   8.882  0.4285 -0.4362 -0.5146
  726MOL0     O95703   3.286   4.802   8.960  0.9351  0.5983  0.4881
  726MOL0     C95704   3.147   4.791   8.975 -0.9496 -0.4621  0.3817
  726MOL0     C95705   3.064   4.901   8.951 -1.0634 -0.5118  0.2801
  726MOL0     C95706   2.924   4.887   8.948  0.7600  0.0127 -0.2681
  726MOL0     C95707   2.871   4.760   8.968  0.1194 -0.6485 -0.0991
  726MOL0     O95708   2.732   4.730   8.952 -0.3896 -0.0916 -0.5938
  726MOL0     C95709   2.675   4.742   8.826  0.3631  0.6447 -0.9031
  726MOL0     C95710   2.646   4.606   8.753 -0.6902 -0.3148  0.2902
  726MOL0     C95711   2.518   4.532   8.789  0.6487  0.1209  0.2500
  726MOL0     C95712   2.382   4.606   8.763  0.6664  0.2248 -0.5087
  726MOL0     C95713   2.252   4.526   8.789  0.5404  0.1928  0.2545
  726MOL0     C95714   2.132   4.632   8.786 -0.7223  0.6460 -0.1323
  726MOL0     C95715   1.996   4.586   8.796 -0.1635  0.3684  0.2593
  726MOL0     C95716   1.900   4.704   8.818 -1.1253  0.3759  0.1008
  726MOL0     N95717   1.866   4.758   8.689  0.2896 -0.5015 -0.6959
  726MOL0     C95718   1.751   4.734   8.620 -0.2517  0.4213  0.3328
  726MOL0     C95719   1.762   4.801   8.500  0.1340  0.8407  0.5920
  726MOL0     C95720   1.667   4.801   8.381 -0.0294  0.2045  0.3127
  726MOL0     C95721   1.573   4.929   8.392  0.2119 -0.4674 -0.6745
  726MOL0     C95722   1.440   4.922   8.317 -0.0502  0.7502  0.8963
  726MOL0     C95723   1.342   5.028   8.361  0.1022 -0.1615 -0.5310
  726MOL0     O95724   1.213   4.988   8.313  0.6758 -0.1030 -0.8967
  726MOL0     C95725   1.105   5.044   8.389  0.2839  0.7199  1.3241
  726MOL0     C95726   0.979   5.026   8.332  0.0022  0.0200  0.3514
  726MOL0     C95727   0.868   5.068   8.404 -0.4696 -0.0282  0.3975
  726MOL0     C95728   0.868   5.112   8.532 -0.2583 -1.1831 -0.4535
  726MOL0     C95729   0.740   5.154   8.597  0.1264 -0.0878  0.4263
  726MOL0     O95730   0.631   5.148   8.519 -0.9515  0.4363  0.4205
  726MOL0     C95731   0.513   5.198   8.560  0.0005 -0.8482 -0.7456
  726MOL0     C95732   0.445   5.125   8.660  0.1952 -0.1099 -0.6558
  726MOL0     C95733   0.321   5.171   8.706  0.2830  0.5561  0.2571
  726MOL0     C95734   0.247   5.272   8.641 -1.2083 -0.1343 -1.3890
  726MOL0     O95735   0.121   5.319   8.680 -0.3434 -0.1003  0.1478
  726MOL0     C95736   0.058   5.255   8.790 -0.0086  0.4513  0.0943
  726MOL0     C95737  -0.058   5.337   8.849 -0.0774 -0.7223  0.0355
  726MOL0     C95738  -0.170   5.378   8.743 -0.2926  0.6351 -0.7520
  726MOL0     C95739  -0.276   5.452   8.830  0.1316  0.6816  0.9809
  726MOL0     C95740  -0.401   5.468   8.735 -0.1411  0.4399  0.0166
  726MOL0     C95741  -0.503   5.551   8.820  0.2568 -0.6742  0.0766
  726MOL0     C95742  -0.564   5.489   8.934  0.1805  0.2468 -0.4193
  726MOL0     C95743  -0.686   5.568   8.989  0.0419  0.6306 -0.0971
  726MOL0    Cl95744  -0.806   5.609   8.854 -0.1484 -0.0003  0.0396
  726MOL0     C95745   0.313   5.333   8.532  0.7348 -0.5355  0.4163
  726MOL0     C95746   0.441   5.301   8.488 -0.8272  0.3219  0.6391
  726MOL0     O95747   0.741   5.189   8.711  0.4327 -0.1985 -0.1459
  726MOL0     C95748   0.996   5.129   8.587 -0.0948  0.2051 -0.1652
  726MOL0     C95749   1.108   5.088   8.518  0.7039 -0.0875  0.4414
  726MOL0     N95750   1.867   4.886   8.521 -0.4168  0.1754 -0.8186
  726MOL0     N95751   1.929   4.861   8.637  0.0577  0.4555  0.6044
  726MOL0     C95752   2.958   4.657   9.007  0.1617  1.3111 -0.1550
  726MOL0     C95753   3.095   4.670   9.011  0.6730 -0.3585 -0.2101
  726MOL0     C95754   3.510   4.761   8.877  0.2100 -0.1931  1.3264
  726MOL0     C95755   3.540   4.889   8.920  0.1267  1.0469 -0.9385
  726MOL0     C95756   3.667   4.940   8.915 -0.0621  0.0481 -0.1822
  726MOL0     C95757   3.779   4.867   8.882  0.7189 -0.7900 -0.5719
  726MOL0     O95758   3.914   4.905   8.868  0.1038 -0.6871  0.1922
  726MOL0     C95759   3.972   5.003   8.961 -0.4151  0.4692  0.2536
  726MOL0     C95760   4.051   5.117   8.899  0.3163  0.2656  0.1931
  726MOL0     C95761   3.975   5.169   8.778 -0.4338 -0.0431  0.0764
  726MOL0     C95762   4.048   5.254   8.681  0.2310 -0.2546 -0.2112
  726MOL0     C95763   4.152   5.184   8.603  0.5312 -0.7313  0.6771
  726MOL0     C95764   4.219   5.133   8.522 -1.4453  0.0356  0.3297
  726MOL0     C95765   3.752   4.742   8.823  0.3252 -0.3691 -0.3180
  726MOL0     C95766   3.616   4.687   8.816 -0.4282 -0.7307  0.0771
  726MOL0     H95767   3.121   4.994   8.949  0.8670 -1.6374  0.4183
  726MOL0     H95768   2.874   4.983   8.942 -4.1402 -2.2573 -0.0608
  726MOL0     H95769   2.737   4.797   8.755 -1.6768  3.4674 -0.6798
  726MOL0     H95770   2.579   4.794   8.834  0.3939  0.6160 -0.3307
  726MOL0     H95771   2.726   4.535   8.775  0.9174  0.9710 -1.1646
  726MOL0     H95772   2.632   4.617   8.645 -0.6111  1.1661  0.4195
  726MOL0     H95773   2.523   4.504   8.894 -2.2484  0.5417  0.5624
  726MOL0     H95774   2.507   4.442   8.729  1.8687  0.0112  0.1645
  726MOL0     H95775   2.384   4.694   8.828  0.4226 -1.2202  1.5611
  726MOL0     H95776   2.381   4.633   8.657 -0.0469  2.9782  0.1137
  726MOL0     H95777   2.257   4.470   8.883 -0.9585 -4.0153 -1.9246
  726MOL0     H95778   2.262   4.441   8.721  1.6962 -0.5099  1.2429
  726MOL0     H95779   2.150   4.674   8.686  0.3391 -1.2189 -0.7714
  726MOL0     H95780   2.164   4.709   8.856 -1.2972  3.6111 -2.8764
  726MOL0     H95781   1.972   4.523   8.711  1.5834  0.1224 -0.0792
  726MOL0     H95782   1.982   4.530   8.889  0.4338  3.1552  2.1877
  726MOL0     H95783   1.944   4.775   8.889  1.3710 -0.9700  0.0181
  726MOL0     H95784   1.813   4.662   8.869 -1.3569  3.2662  2.3509
  726MOL0     H95785   1.676   4.663   8.652 -1.7294  1.9364  0.3911
  726MOL0     H95786   1.615   4.705   8.392  1.4041 -0.3401  3.4138
  726MOL0     H95787   1.720   4.803   8.286  1.5706 -0.8764  1.1403
  726MOL0     H95788   1.619   5.021   8.356  0.1811 -1.3851 -3.2308
  726MOL0     H95789   1.553   4.944   8.499 -0.3669  0.5470 -0.9244
  726MOL0     H95790   1.460   4.940   8.211  2.0649 -1.4825  0.8284
  726MOL0     H95791   1.394   4.824   8.330 -0.0211  0.5828 -0.1827
  726MOL0     H95792   1.367   5.129   8.327 -0.5835  0.9559  2.0702
  726MOL0     H95793   1.348   5.029   8.470  1.8215 -0.1876 -0.5858
  726MOL0     H95794   0.969   4.990   8.230  3.0493  1.3209 -0.5163
  726MOL0     H95795   0.776   5.051   8.349  1.0502 -3.4481 -1.4033
  726MOL0     H95796   0.494   5.041   8.709  0.2759  0.0970 -0.3786
  726MOL0     H95797   0.278   5.108   8.783 -3.5183  1.7129 -0.7307
  726MOL0     H95798   0.139   5.239   8.862  0.8634  3.4683 -0.0697
  726MOL0     H95799   0.020   5.159   8.755  2.6048 -0.6046 -0.0168
  726MOL0     H95800  -0.027   5.426   8.904 -3.1133 -1.8752  4.0467
  726MOL0     H95801  -0.099   5.288   8.937 -1.5435 -1.5026 -1.0210
  726MOL0     H95802  -0.206   5.288   8.693  0.0565 -0.4924  0.9271
  726MOL0     H95803  -0.127   5.437   8.662 -0.0772  0.3759 -0.8285
  726MOL0     H95804  -0.312   5.386   8.910 -0.0066 -0.0789  0.2986
  726MOL0     H95805  -0.239   5.547   8.870  1.6665 -0.1321  1.5805
  726MOL0     H95806  -0.438   5.371   8.700  2.4645  0.3377 -2.7770
  726MOL0     H95807  -0.372   5.519   8.644  0.4036  2.1266  1.0917
  726MOL0     H95808  -0.580   5.571   8.745 -0.0112 -2.2854 -0.1302
  726MOL0     H95809  -0.465   5.648   8.851 -1.7190 -0.2220  1.2637
  726MOL0     H95810  -0.596   5.385   8.921  0.2456  0.1930 -0.1571
  726MOL0     H95811  -0.482   5.480   9.006  0.5327 -0.1115 -0.8592
  726MOL0     H95812  -0.658   5.666   9.029 -1.6223  0.5748  1.3049
  726MOL0     H95813  -0.744   5.503   9.055  0.3461 -4.4285 -4.1414
  726MOL0     H95814   0.253   5.411   8.485 -0.4248 -1.3613  0.4735
  726MOL0     H95815   0.477   5.366   8.409  0.5284  1.4714  2.1421
  726MOL0     H95816   1.000   5.169   8.688  1.1594 -0.8655  0.2304
  726MOL0     H95817   1.197   5.107   8.578  0.2980 -0.2657  1.1107
  726MOL0     H95818   2.914   4.560   9.027  1.7145  0.1283 -2.0058
  726MOL0     H95819   3.154   4.580   9.022 -2.5330 -2.4860  1.2992
  726MOL0     H95820   3.462   4.955   8.957 -0.7349  0.5881 -1.9159
  726MOL0     H95821   3.689   5.037   8.957 -0.2076  0.0962 -0.2195
  726MOL0     H95822   4.024   4.952   9.043  0.3878 -0.8072 -1.0024
  726MOL0     H95823   3.887   5.060   8.999 -0.7998  0.6691 -0.8786
  726MOL0     H95824   4.064   5.195   8.974  2.0844 -0.4901  0.7307
  726MOL0     H95825   4.144   5.065   8.875 -0.0327 -0.1961 -0.2020
  726MOL0     H95826   3.890   5.221   8.824 -2.3728 -1.6833 -1.4333
  726MOL0     H95827   3.939   5.090   8.712 -1.8912  1.6625 -1.2553
  726MOL0     H95828   3.978   5.287   8.603  1.3245 -2.4403 -2.2697
  726MOL0     H95829   4.084   5.344   8.732 -1.1007  1.0415 -1.4313
  726MOL0     H95830   4.281   5.087   8.447 -0.5448  1.7228 -0.0288
  726MOL0     H95831   3.828   4.678   8.780  2.0707  1.8110 -0.6733
  726MOL0     H95832   3.600   4.588   8.775  1.1670 -0.6921 -0.6969
  727MOL0     O95833   4.848   3.579   1.040  0.5968 -0.7422 -0.6166
  727MOL0     C95834   4.870   3.556   0.925 -0.5525  0.5875  0.0385
  727MOL0     O95835   4.782   3.564   0.823 -0.0565 -0.2435 -0.3470
  727MOL0     C95836   4.649   3.593   0.848 -0.6785 -0.0406 -1.3184
  727MOL0     C95837   4.570   3.508   0.938  0.1299 -0.6471  0.1539
  727MOL0     C95838   4.435   3.539   0.956  0.0319 -0.6979  0.1373
  727MOL0     C95839   4.385   3.646   0.878  0.1287  1.0030 -0.9206
  727MOL0     O95840   4.258   3.696   0.900 -0.3071 -0.5617 -0.4776
  727MOL0     C95841   4.150   3.615   0.948  0.4649  0.6321 -0.1650
  727MOL0     C95842   4.022   3.693   0.921 -0.4709 -0.1100 -0.1183
  727MOL0     C95843   3.901   3.633   0.991  0.0040 -0.7451  0.1170
  727MOL0     C95844   3.771   3.710   0.958  0.4363  0.6379 -0.7187
  727MOL0     C95845   3.651   3.631   1.006  0.8738 -0.6519 -0.7572
  727MOL0     C95846   3.526   3.720   1.028 -0.2836  0.0503  0.2660
  727MOL0     C95847   3.418   3.649   1.099  0.2288 -0.4013  0.0280
  727MOL0     C95848   3.334   3.734   1.190 -0.2064  0.2200 -0.3569
  727MOL0     N95849   3.206   3.670   1.223 -1.0606 -0.0589 -0.2264
  727MOL0     C95850   3.151   3.550   1.169  0.3038 -0.6296  1.0520
  727MOL0     C95851   3.022   3.545   1.211 -0.3946  0.7506  0.3635
  727MOL0     C95852   2.936   3.423   1.172 -0.8536  0.8157 -0.0717
  727MOL0     C95853   2.803   3.406   1.246  0.5160 -0.9054  0.4875
  727MOL0     C95854   2.697   3.499   1.189  0.0378  0.3602 -0.3957
  727MOL0     C95855   2.552   3.480   1.236 -0.3899 -0.9219 -0.2875
  727MOL0     O95856   2.464   3.553   1.146 -0.4136  0.5079 -0.6210
  727MOL0     C95857   2.329   3.544   1.143  0.6244 -0.4156 -0.5178
  727MOL0     C95858   2.262   3.564   1.029  0.3430 -0.1821  0.6998
  727MOL0     C95859   2.120   3.569   1.028 -0.6640 -0.4342  0.1939
  727MOL0     C95860   2.045   3.552   1.145  0.0666  0.4571  0.6952
  727MOL0     C95861   1.897   3.552   1.142 -0.1476  0.3530 -0.5208
  727MOL0     O95862   1.832   3.534   1.261  0.1387  0.9917  0.1383
  727MOL0     C95863   1.695   3.505   1.251 -0.4499  0.3373  0.4870
  727MOL0     C95864   1.637   3.395   1.188 -1.1026  0.4793 -1.7055
  727MOL0     C95865   1.513   3.345   1.222  0.1400 -0.4671 -0.1843
  727MOL0     C95866   1.436   3.414   1.321 -0.5983 -0.4120 -0.2235
  727MOL0     O95867   1.313   3.366   1.350 -0.1642  0.3585  0.6305
  727MOL0     C95868   1.266   3.373   1.487  0.4457 -0.2630 -0.0935
  727MOL0     C95869   1.116   3.346   1.494  0.1044 -0.6663  0.0918
  727MOL0     C95870   1.057   3.326   1.634 -0.3188 -0.8264 -0.8895
  727MOL0     C95871   1.039   3.458   1.721  0.5110  0.0295 -0.1421
  727MOL0     C95872   0.983   3.430   1.860 -0.0043  0.1363 -0.6491
  727MOL0     C95873   1.098   3.384   1.950 -0.5679  0.8153  1.2171
  727MOL0     C95874   1.055   3.348   2.093 -0.7611  0.0964 -0.6458
  727MOL0     C95875   1.115   3.217   2.141  0.2826  0.2950  0.3022
  727MOL0    Cl95876   1.300   3.229   2.144 -0.0512 -0.4312  0.3689
  727MOL0     C95877   1.482   3.542   1.367  0.0536  0.2940  0.0776
  727MOL0     C95878   1.610   3.577   1.341  0.0658  0.6358  0.1122
  727MOL0     O95879   1.843   3.576   1.031 -0.5600  0.3964 -0.2219
  727MOL0     C95880   2.117   3.527   1.259 -0.1801 -0.2201 -0.6596
  727MOL0     C95881   2.253   3.528   1.262 -0.0403  0.0883 -0.5490
  727MOL0     N95882   2.994   3.666   1.266 -0.1610 -0.0820 -0.2169
  727MOL0     N95883   3.100   3.738   1.284 -0.1959  0.2731  0.4127
  727MOL0     C95884   4.455   3.713   0.790 -0.9605 -0.1935  0.6575
  727MOL0     C95885   4.586   3.685   0.771 -0.2036  0.2057  0.0302
  727MOL0     C95886   5.004   3.513   0.887  0.4557  0.6303 -0.0380
  727MOL0     C95887   5.035   3.513   0.749 -0.5201 -0.2002  0.8918
  727MOL0     C95888   5.170   3.496   0.710 -0.3235  0.7817  0.3137
  727MOL0     C95889   5.270   3.471   0.793 -0.0165 -0.2840 -0.6146
  727MOL0     O95890   5.403   3.475   0.766  0.6660  0.0871 -0.7267
  727MOL0     C95891   5.451   3.496   0.636  0.4632 -0.5141 -0.6530
  727MOL0     C95892   5.603   3.496   0.626 -0.4952  0.1618  0.4494
  727MOL0     C95893   5.658   3.586   0.517 -0.3022 -0.2927  0.0882
  727MOL0     C95894   5.684   3.517   0.376  0.7348  0.6103 -0.2271
  727MOL0     C95895   5.708   3.622   0.282  0.6504 -0.1886 -0.4295
  727MOL0     C95896   5.713   3.728   0.218 -0.0337  0.5261  1.0338
  727MOL0     C95897   5.235   3.461   0.931 -0.2673  0.1477  0.2822
  727MOL0     C95898   5.107   3.481   0.971  0.7263 -0.2838 -0.5193
  727MOL0     H95899   4.616   3.423   0.988 -2.2323 -1.7178  0.6018
  727MOL0     H95900   4.376   3.507   1.041  1.5031 -0.4269  1.3059
  727MOL0     H95901   4.160   3.586   1.053  0.8818 -0.5106 -0.5116
  727MOL0     H95902   4.132   3.521   0.895 -0.7756 -1.2413  3.2297
  727MOL0     H95903   4.005   3.694   0.813  1.7160  1.6699 -0.5267
  727MOL0     H95904   4.042   3.796   0.953  1.1444 -0.3128 -0.3854
  727MOL0     H95905   3.923   3.621   1.097  0.0607  2.1755  0.4986
  727MOL0     H95906   3.894   3.528   0.959  2.0362 -0.9573  0.2219
  727MOL0     H95907   3.786   3.803   1.014  0.4199 -1.6735  3.4743
  727MOL0     H95908   3.751   3.729   0.852  0.5000  1.6449 -0.5603
  727MOL0     H95909   3.681   3.563   1.087  0.5209  0.1703  0.0744
  727MOL0     H95910   3.631   3.565   0.921  2.9533 -1.6578 -0.5441
  727MOL0     H95911   3.486   3.760   0.934  1.2129 -1.5589 -1.1340
  727MOL0     H95912   3.549   3.817   1.074 -1.5672  1.2738 -1.5694
  727MOL0     H95913   3.352   3.601   1.026 -0.0256  1.6266 -1.1388
  727MOL0     H95914   3.465   3.584   1.173  0.6348 -0.6162 -0.4165
  727MOL0     H95915   3.314   3.831   1.143 -3.5527 -1.5426 -3.0134
  727MOL0     H95916   3.378   3.749   1.289 -2.3508  0.2701  0.6426
  727MOL0     H95917   3.195   3.469   1.112 -1.9900  0.7009 -3.0125
  727MOL0     H95918   2.993   3.335   1.200 -1.6126  1.0924  2.6192
  727MOL0     H95919   2.918   3.425   1.064  2.0245 -1.3505 -0.6947
  727MOL0     H95920   2.819   3.416   1.353  3.2044 -1.8518  0.2505
  727MOL0     H95921   2.767   3.304   1.233 -4.4376  0.8488 -2.2594
  727MOL0     H95922   2.730   3.603   1.196 -0.5973  0.5339  0.1255
  727MOL0     H95923   2.705   3.476   1.083  4.2516 -0.2971 -0.1095
  727MOL0     H95924   2.546   3.517   1.338 -3.3278  3.3483 -1.7435
  727MOL0     H95925   2.526   3.374   1.229 -0.1319 -0.8779 -4.0489
  727MOL0     H95926   2.309   3.590   0.935 -0.3319  3.3398  1.2045
  727MOL0     H95927   2.070   3.580   0.932 -2.2924 -3.1322  0.5983
  727MOL0     H95928   1.702   3.340   1.121 -0.7343  0.1231 -1.0676
  727MOL0     H95929   1.467   3.258   1.177 -0.6684  0.6271 -1.5572
  727MOL0     H95930   1.291   3.462   1.545  1.9413  0.3199 -1.5187
  727MOL0     H95931   1.309   3.294   1.548  0.7180  0.1657  0.2812
  727MOL0     H95932   1.107   3.260   1.427  2.3194  0.9078 -2.4345
  727MOL0     H95933   1.054   3.414   1.435  0.4277 -0.3877  0.0694
  727MOL0     H95934   1.121   3.251   1.682 -2.1606 -1.3514  0.8862
  727MOL0     H95935   0.959   3.280   1.618 -0.6869 -0.8130  1.0715
  727MOL0     H95936   1.139   3.502   1.727 -0.3750  2.8392 -3.1063
  727MOL0     H95937   0.969   3.526   1.671  0.0588 -1.6206 -1.8430
  727MOL0     H95938   0.909   3.350   1.854 -0.0032  0.2171 -2.0529
  727MOL0     H95939   0.941   3.522   1.900  1.6235  0.3165  0.7453
  727MOL0     H95940   1.180   3.456   1.961  1.0075 -0.5348 -0.7037
  727MOL0     H95941   1.150   3.298   1.906  1.0982  0.2981  3.9860
  727MOL0     H95942   1.086   3.426   2.163 -2.4682 -1.4516  2.0525
  727MOL0     H95943   0.946   3.338   2.096 -0.7712  0.3307  1.0668
  727MOL0     H95944   1.076   3.133   2.083 -1.6695  1.7218 -0.5508
  727MOL0     H95945   1.074   3.202   2.242  1.6463  1.9736  1.1520
  727MOL0     H95946   1.421   3.598   1.436 -1.9529  1.1605 -2.2636
  727MOL0     H95947   1.644   3.656   1.407 -3.0340 -0.2128  3.0320
  727MOL0     H95948   2.066   3.503   1.351  3.8992  0.0111  1.9345
  727MOL0     H95949   2.298   3.523   1.360 -1.1430  0.1491 -0.0286
  727MOL0     H95950   4.444   3.807   0.736  3.7501 -0.9007 -2.0999
  727MOL0     H95951   4.643   3.744   0.700  1.1753  0.7021  1.5056
  727MOL0     H95952   4.971   3.538   0.665 -1.0270  0.7216  1.5326
  727MOL0     H95953   5.191   3.520   0.606  1.3602  1.5653  0.7979
  727MOL0     H95954   5.418   3.596   0.606  0.3583 -0.3356  0.0302
  727MOL0     H95955   5.411   3.425   0.563 -1.8357  0.5068 -0.4775
  727MOL0     H95956   5.650   3.535   0.717  1.3374 -0.7882 -0.0429
  727MOL0     H95957   5.636   3.395   0.598 -3.0089 -0.3327 -1.0780
  727MOL0     H95958   5.752   3.622   0.561  1.0438 -0.2862 -2.5890
  727MOL0     H95959   5.594   3.673   0.503 -0.2982 -0.4312 -0.8854
  727MOL0     H95960   5.772   3.454   0.365  1.6568  1.8215  0.0254
  727MOL0     H95961   5.597   3.464   0.336  0.6596 -1.6579  2.5661
  727MOL0     H95962   5.719   3.816   0.158  0.2985 -1.7600 -2.6231
  727MOL0     H95963   5.310   3.426   1.002  0.0091 -1.5233 -0.7910
  727MOL0     H95964   5.077   3.491   1.075 -0.2609  0.5599 -0.8638
  728MOL0     O95965   6.589  10.361  10.114  0.0872 -0.5452 -0.5910
  728MOL0     C95966   6.681  10.285  10.151  0.2714  0.2760 -0.2687
  728MOL0     O95967   6.663  10.160  10.186 -0.7373 -0.0022 -0.3848
  728MOL0     C95968   6.540  10.102  10.188  0.3085 -0.0079  1.1980
  728MOL0     C95969   6.427  10.158  10.241  0.3106  0.3295 -0.7956
  728MOL0     C95970   6.311  10.093  10.260  0.5342 -0.2908 -0.8705
  728MOL0     C95971   6.294   9.959  10.220  0.2155  0.2801 -0.6161
  728MOL0     O95972   6.178   9.884  10.243 -0.2212 -0.0080 -0.4346
  728MOL0     C95973   6.054   9.966  10.236 -0.3141  0.1430  0.2107
  728MOL0     C95974   5.927   9.883  10.248 -0.1818 -0.3241 -0.1099
  728MOL0     C95975   5.907   9.829  10.114 -0.0385  0.3527  1.4711
  728MOL0     C95976   5.763   9.785  10.101 -0.0544  0.5564  0.5823
  728MOL0     C95977   5.726   9.725   9.957  0.0872 -0.4370 -0.6393
  728MOL0     C95978   5.582   9.708   9.957  0.4606 -0.8535 -0.2605
  728MOL0     C95979   5.534   9.618   9.842  0.7322 -0.1022  0.1959
  728MOL0     C95980   5.382   9.630   9.827  0.1575 -0.3707 -0.7410
  728MOL0     N95981   5.303   9.619   9.949  0.2839  0.1087  0.5044
  728MOL0     C95982   5.296   9.508  10.032 -0.0813 -0.3432  0.3194
  728MOL0     C95983   5.213   9.549  10.132 -1.1265  1.0495  0.2261
  728MOL0     C95984   5.175   9.462  10.257 -0.1701 -0.0768  0.0268
  728MOL0     C95985   5.088   9.328  10.226 -0.3330 -0.4845  0.5555
  728MOL0     C95986   5.019   9.276  10.347 -0.8651 -0.2170 -0.6246
  728MOL0     C95987   5.020   9.123  10.368 -0.5369 -0.6768 -0.3674
  728MOL0     O95988   4.951   9.073  10.484 -0.1326 -0.5389 -0.1663
  728MOL0     C95989   4.815   9.063  10.489 -0.3558  0.1790 -0.1496
  728MOL0     C95990   4.727   9.105  10.388 -0.2038 -0.2864  0.1819
  728MOL0     C95991   4.588   9.071  10.403 -0.0946  0.0227  0.1631
  728MOL0     C95992   4.536   8.992  10.507  0.2666 -0.8240 -0.3208
  728MOL0     C95993   4.392   8.941  10.500 -0.0942 -0.7254  0.5383
  728MOL0     O95994   4.315   8.967  10.389 -0.3260  0.8489 -0.1185
  728MOL0     C95995   4.184   8.979  10.406  0.3034 -0.2880 -0.4721
  728MOL0     C95996   4.112   8.867  10.412  1.0578  1.5141  1.3270
  728MOL0     C95997   3.973   8.871  10.423 -0.4224 -0.3115 -0.2084
  728MOL0     C95998   3.903   8.987  10.421 -0.2694  0.1865 -0.2414
  728MOL0     O95999   3.770   8.972  10.422  0.8041 -0.0965  0.4550
  728MOL0     C96000   3.684   9.082  10.443  1.0238 -0.0606 -0.7598
  728MOL0     C96001   3.544   9.016  10.472  0.4691  0.6932 -0.0979
  728MOL0     C96002   3.441   9.115  10.437  0.6311 -0.4455  0.5559
  728MOL0     C96003   3.303   9.072  10.481 -0.0571  0.5866 -0.6687
  728MOL0     C96004   3.196   9.188  10.464  0.1745 -0.0319  0.5526
  728MOL0     C96005   3.047   9.147  10.500 -0.0151 -0.4876  0.8503
  728MOL0     C96006   2.980   9.024  10.429  0.5753 -0.0811  0.1598
  728MOL0     C96007   3.016   9.031  10.279 -0.3169  0.6862 -0.9387
  728MOL0    Cl96008   2.905   8.917  10.196 -0.0431  0.1064 -0.3869
  728MOL0     C96009   3.976   9.107  10.405 -0.2258 -0.5763 -0.7237
  728MOL0     C96010   4.121   9.108  10.405 -0.2638  0.0522 -0.2047
  728MOL0     O96011   4.357   8.878  10.600  0.7197 -0.0373 -0.5348
  728MOL0     C96012   4.626   8.944  10.602 -0.1592  0.0689 -0.5282
  728MOL0     C96013   4.760   8.983  10.591 -0.4783 -0.4905 -0.1412
  728MOL0     N96014   5.169   9.675  10.106 -1.0945 -0.0632  0.2668
  728MOL0     N96015   5.227   9.718   9.996  0.6471 -0.2779 -0.1088
  728MOL0     C96016   6.404   9.892  10.171 -0.7276  0.4066 -0.5349
  728MOL0     C96017   6.526   9.968  10.161  0.0027  0.1015 -0.1188
  728MOL0     C96018   6.819  10.334  10.146 -0.1579 -0.5198 -0.1185
  728MOL0     C96019   6.856  10.475  10.142  0.5645 -0.6303  0.2359
  728MOL0     C96020   6.984  10.517  10.127 -0.7625 -0.7817  0.7734
  728MOL0     C96021   7.088  10.426  10.135 -0.1550  0.2562 -0.1476
  728MOL0     O96022   7.218  10.482  10.138  0.0652 -0.1370 -0.4434
  728MOL0     C96023   7.331  10.393  10.159  1.1049  0.2475 -0.9126
  728MOL0     C96024   7.449  10.473  10.205  0.0589  0.2214  0.2705
  728MOL0     C96025   7.477  10.596  10.118  1.1147  0.2221  0.6104
  728MOL0     C96026   7.477  10.562   9.965  0.6465 -0.1404 -1.2098
  728MOL0     C96027   7.581  10.464   9.937 -0.3821  0.0051 -0.4050
  728MOL0     C96028   7.673  10.384   9.920  0.8139 -0.1911 -0.4652
  728MOL0     C96029   7.064  10.289  10.126  0.7506  0.2106  1.0720
  728MOL0     C96030   6.928  10.239  10.137 -0.8260  0.5950 -0.1086
  728MOL0     H96031   6.420  10.260  10.279 -3.4623  0.6167 -1.8572
  728MOL0     H96032   6.231  10.152  10.304  1.5222  0.2749  0.2111
  728MOL0     H96033   6.062  10.029  10.147  2.6881 -0.1455  0.1679
  728MOL0     H96034   6.047  10.043  10.313 -0.6358  0.7650 -0.4255
  728MOL0     H96035   5.845   9.952  10.270  1.4873  2.0320 -0.9037
  728MOL0     H96036   5.934   9.802  10.320  3.2713 -0.9120 -0.9207
  728MOL0     H96037   5.972   9.743  10.097 -1.2253 -0.0038 -1.9103
  728MOL0     H96038   5.928   9.893  10.028 -0.7942 -3.3023 -1.7152
  728MOL0     H96039   5.734   9.719  10.183  1.7721  1.9603  2.4551
  728MOL0     H96040   5.699   9.872  10.117  0.4659  0.6299  2.4820
  728MOL0     H96041   5.774   9.629   9.933 -1.1365 -1.0048 -0.8639
  728MOL0     H96042   5.757   9.800   9.884  1.0447  1.7374  1.8689
  728MOL0     H96043   5.543   9.809   9.953 -0.8813 -0.9816  3.9178
  728MOL0     H96044   5.554   9.657  10.050 -0.3027 -0.2358 -0.1484
  728MOL0     H96045   5.596   9.653   9.758  3.7793  3.7877  3.5894
  728MOL0     H96046   5.553   9.517   9.878 -0.8069 -1.5087 -2.6513
  728MOL0     H96047   5.339   9.565   9.751 -2.8363  0.2999  0.2726
  728MOL0     H96048   5.362   9.725   9.776  2.4855 -0.2461 -1.5507
  728MOL0     H96049   5.354   9.417  10.022 -2.0671 -1.5909 -0.4503
  728MOL0     H96050   5.107   9.526  10.314 -3.3620 -1.1255 -2.3158
  728MOL0     H96051   5.261   9.445  10.322  0.3903 -1.1272 -0.9542
  728MOL0     H96052   5.156   9.249  10.192 -0.8702 -0.3068 -1.0169
  728MOL0     H96053   5.023   9.349  10.141 -0.7222  0.7573  1.1369
  728MOL0     H96054   5.077   9.316  10.431 -2.7538 -0.5604  0.9230
  728MOL0     H96055   4.917   9.314  10.354 -0.0389  1.8575  1.9166
  728MOL0     H96056   5.125   9.093  10.356 -1.7050 -5.0323 -1.9007
  728MOL0     H96057   4.983   9.065  10.282 -1.5822 -0.3858 -0.1164
  728MOL0     H96058   4.763   9.159  10.300 -3.4353  0.2781 -0.9398
  728MOL0     H96059   4.521   9.112  10.328 -1.4675  0.8278  1.7723
  728MOL0     H96060   4.173   8.778  10.407  1.8121  1.9400  2.5239
  728MOL0     H96061   3.926   8.776  10.447 -1.8474  0.4482  0.0680
  728MOL0     H96062   3.689   9.143  10.352 -2.4381 -1.4248 -2.0399
  728MOL0     H96063   3.695   9.154  10.525 -1.8385  2.0557 -2.0534
  728MOL0     H96064   3.541   8.988  10.577 -2.8982 -0.8945 -0.4720
  728MOL0     H96065   3.533   8.926  10.411  2.0661 -1.0207  1.9734
  728MOL0     H96066   3.442   9.126  10.329 -2.5619 -4.1084 -0.0509
  728MOL0     H96067   3.468   9.208  10.489 -2.1510 -0.5156  2.3441
  728MOL0     H96068   3.269   8.988  10.420 -4.5688  1.4793  0.2948
  728MOL0     H96069   3.297   9.036  10.584  4.4393 -5.7776 -2.0718
  728MOL0     H96070   3.199   9.215  10.358 -2.3906 -0.2898  0.3471
  728MOL0     H96071   3.219   9.273  10.529  0.4181 -1.2574  2.1574
  728MOL0     H96072   2.986   9.229  10.461  0.2971 -1.1732 -1.1838
  728MOL0     H96073   3.030   9.136  10.608  1.0899 -0.7824  1.0019
  728MOL0     H96074   3.034   8.937  10.469  0.8194 -0.0251 -0.0425
  728MOL0     H96075   2.873   9.019  10.450  0.5447  1.2304  0.4034
  728MOL0     H96076   3.121   9.002  10.266  0.5779  0.9624  3.9285
  728MOL0     H96077   3.009   9.132  10.237  0.6665  0.1606 -2.4704
  728MOL0     H96078   3.926   9.203  10.405 -0.8296 -0.8443  0.8850
  728MOL0     H96079   4.187   9.194  10.410  0.0802 -0.2560  0.6406
  728MOL0     H96080   4.578   8.885  10.679 -2.5304  3.3993  0.8175
  728MOL0     H96081   4.839   8.940  10.652  1.2507  1.0879 -1.1537
  728MOL0     H96082   6.392   9.786  10.152 -0.7826 -0.6568  4.2870
  728MOL0     H96083   6.618   9.915  10.138 -0.3723 -0.9164  0.6865
  728MOL0     H96084   6.780  10.552  10.133  0.5123 -0.9133 -2.2447
  728MOL0     H96085   7.017  10.620  10.119 -2.8297 -0.1876 -1.0801
  728MOL0     H96086   7.348  10.354  10.058  0.6940  1.6973 -1.5627
  728MOL0     H96087   7.301  10.310  10.224  2.0677 -0.1345 -0.9406
  728MOL0     H96088   7.435  10.486  10.312  0.9297 -2.8849  0.8578
  728MOL0     H96089   7.530  10.400  10.212  0.4424  0.8318  2.8735
  728MOL0     H96090   7.570  10.644  10.152  1.7515 -0.3505 -0.2897
  728MOL0     H96091   7.401  10.671  10.140 -1.7549 -1.7870 -1.6820
  728MOL0     H96092   7.378  10.533   9.930  0.5945  0.6415 -1.7386
  728MOL0     H96093   7.509  10.650   9.909  1.3044  0.8074  0.5713
  728MOL0     H96094   7.734  10.297   9.903  1.2746  0.2926 -1.3696
  728MOL0     H96095   7.151  10.224  10.121  0.6231  0.1067 -0.1611
  728MOL0     H96096   6.920  10.132  10.153 -2.0607  0.7494  0.3742
  729MOL0     O96097   2.307   4.190   7.079 -0.0787 -0.7541 -0.7649
  729MOL0     C96098   2.362   4.123   6.988 -0.1956 -0.4734 -0.0859
  729MOL0     O96099   2.290   4.053   6.901  0.2199  0.6617  0.0908
  729MOL0     C96100   2.154   4.050   6.911  0.4048 -0.2212 -0.6630
  729MOL0     C96101   2.091   3.932   6.918 -0.1170  0.1693 -0.5626
  729MOL0     C96102   1.953   3.924   6.928  0.9142  1.0207 -0.2831
  729MOL0     C96103   1.876   4.041   6.935 -0.7840  0.5131  0.1585
  729MOL0     O96104   1.744   4.045   6.941 -0.7485  0.1781  1.2025
  729MOL0     C96105   1.697   4.103   7.067  0.0762  0.4434 -0.0331
  729MOL0     C96106   1.620   4.234   7.060  0.6382 -0.8263  1.0670
  729MOL0     C96107   1.586   4.301   7.189 -0.1977 -0.7456  0.0581
  729MOL0     C96108   1.465   4.231   7.262 -0.0063  0.3424  0.1428
  729MOL0     C96109   1.345   4.334   7.276  0.0136 -0.3353  0.7020
  729MOL0     C96110   1.216   4.261   7.321 -0.3851  0.1480  0.6552
  729MOL0     C96111   1.112   4.370   7.364 -0.5945  0.2026  0.4381
  729MOL0     C96112   0.969   4.311   7.368  0.3849 -0.9790 -0.1497
  729MOL0     N96113   0.874   4.409   7.427 -0.4882 -0.4205 -0.8618
  729MOL0     C96114   0.878   4.438   7.562 -0.6686 -0.4147  0.1067
  729MOL0     C96115   0.767   4.505   7.584 -1.1088 -0.1039  0.1073
  729MOL0     C96116   0.739   4.567   7.717  1.4380 -0.3609 -0.7238
  729MOL0     C96117   0.655   4.693   7.717 -0.1813  0.1066  0.2343
  729MOL0     C96118   0.506   4.638   7.710 -0.0248  0.2150 -0.3351
  729MOL0     C96119   0.420   4.764   7.741  0.8495  0.3414  0.6217
  729MOL0     O96120   0.291   4.706   7.744 -0.1450 -0.8428  0.7366
  729MOL0     C96121   0.183   4.792   7.753 -0.7824 -1.3762 -0.1590
  729MOL0     C96122   0.200   4.920   7.807 -0.0604  0.8551 -0.4918
  729MOL0     C96123   0.090   5.006   7.807  0.4108  0.0265  0.1107
  729MOL0     C96124  -0.034   4.965   7.756 -0.3340  0.0915  0.5950
  729MOL0     C96125  -0.161   5.053   7.774 -0.5720 -0.5708  0.2505
  729MOL0     O96126  -0.132   5.171   7.829  0.1526  0.2129 -0.2988
  729MOL0     C96127  -0.224   5.266   7.837 -0.1402  0.6562 -0.3064
  729MOL0     C96128  -0.192   5.399   7.807 -0.2948  0.0171 -0.3566
  729MOL0     C96129  -0.284   5.503   7.816 -0.1711 -1.2603 -0.7970
  729MOL0     C96130  -0.411   5.479   7.881 -0.1451  0.8626 -0.0795
  729MOL0     O96131  -0.505   5.564   7.905  0.4203 -1.0296 -0.6676
  729MOL0     C96132  -0.504   5.698   7.851 -0.5331  0.5292 -0.1905
  729MOL0     C96133  -0.604   5.780   7.917  0.4453 -0.0951 -0.2162
  729MOL0     C96134  -0.747   5.715   7.915 -0.0406 -0.0911 -0.8804
  729MOL0     C96135  -0.854   5.804   7.962  0.3689 -0.3933 -1.2182
  729MOL0     C96136  -0.998   5.751   7.968 -1.1960  0.3071  0.0300
  729MOL0     C96137  -1.084   5.834   8.057  0.7708 -0.1983 -0.6773
  729MOL0     C96138  -1.100   5.973   7.990 -0.6940  0.2187  0.3448
  729MOL0     C96139  -1.219   6.042   8.044 -0.0202  0.5510  0.0313
  729MOL0    Cl96140  -1.220   6.091   8.214  0.4067  0.1432  0.2154
  729MOL0     C96141  -0.443   5.349   7.897  1.1732  1.1100 -0.4037
  729MOL0     C96142  -0.358   5.240   7.876 -0.4030  0.0854  0.1429
  729MOL0     O96143  -0.267   5.022   7.711  0.1399 -0.3694  0.1699
  729MOL0     C96144  -0.041   4.842   7.693  0.4405  0.5748 -0.3605
  729MOL0     C96145   0.067   4.755   7.698 -0.5146  0.1595 -0.7521
  729MOL0     N96146   0.706   4.513   7.467  0.1081 -0.0732  0.0742
  729MOL0     N96147   0.767   4.459   7.370 -0.0784  0.3668  0.2816
  729MOL0     C96148   1.943   4.161   6.914  0.6406 -1.5909 -0.0510
  729MOL0     C96149   2.078   4.171   6.921  0.4985 -0.1336  0.9909
  729MOL0     C96150   2.509   4.137   6.965 -0.6245  0.0086 -1.0299
  729MOL0     C96151   2.592   4.213   7.052  0.2746 -0.8083  0.2395
  729MOL0     C96152   2.729   4.213   7.033 -0.3325 -0.5453  0.3716
  729MOL0     C96153   2.788   4.156   6.927 -0.0687  0.6383  0.1393
  729MOL0     O96154   2.925   4.174   6.916 -0.4215 -0.1075 -0.2961
  729MOL0     C96155   2.999   4.100   6.811 -0.5348  0.1545 -0.4534
  729MOL0     C96156   3.152   4.077   6.811  0.7716 -0.5149  0.3397
  729MOL0     C96157   3.226   4.204   6.836 -0.2616 -0.5597  0.7796
  729MOL0     C96158   3.381   4.172   6.864 -0.1278  0.3288  0.1307
  729MOL0     C96159   3.449   4.132   6.742 -0.6496  1.0962  0.0396
  729MOL0     C96160   3.482   4.116   6.628  0.2510  0.3422  0.2588
  729MOL0     C96161   2.712   4.082   6.833  0.4429  0.3918  0.3297
  729MOL0     C96162   2.575   4.070   6.852 -0.4472 -0.0358  0.5816
  729MOL0     H96163   2.151   3.842   6.930  0.7881  0.6614 -1.2321
  729MOL0     H96164   1.905   3.827   6.929  0.8279  0.8571  4.6927
  729MOL0     H96165   1.778   4.105   7.140  0.6576  0.0223 -0.6521
  729MOL0     H96166   1.623   4.031   7.103  1.8100 -1.0384  0.7017
  729MOL0     H96167   1.522   4.231   7.013  0.8627 -0.8546  0.5909
  729MOL0     H96168   1.686   4.298   6.999  0.1253  0.8778  2.2198
  729MOL0     H96169   1.575   4.408   7.171  3.4641 -0.0738  1.0677
  729MOL0     H96170   1.680   4.297   7.244  0.7672  2.1126 -1.2392
  729MOL0     H96171   1.434   4.151   7.194 -0.9984  0.9161 -0.0972
  729MOL0     H96172   1.471   4.179   7.358  0.1296 -1.0153 -0.5827
  729MOL0     H96173   1.326   4.392   7.185 -1.8150  0.5620  1.5954
  729MOL0     H96174   1.354   4.408   7.357 -1.7951 -1.2379  1.7914
  729MOL0     H96175   1.238   4.193   7.403  2.7067 -0.0328 -0.2011
  729MOL0     H96176   1.181   4.200   7.237  1.0920 -1.6351  1.2740
  729MOL0     H96177   1.152   4.391   7.463  4.7158 -1.0594 -1.1316
  729MOL0     H96178   1.113   4.456   7.297  1.6588  0.7764  1.1132
  729MOL0     H96179   0.972   4.222   7.431 -1.0704 -2.3578 -1.9149
  729MOL0     H96180   0.938   4.293   7.265 -1.5323 -0.5513  0.3191
  729MOL0     H96181   0.963   4.408   7.623  1.1284 -1.1879 -2.6012
  729MOL0     H96182   0.832   4.597   7.766  1.2751 -2.5120  1.0290
  729MOL0     H96183   0.693   4.481   7.767  2.9449 -1.5574 -1.3550
  729MOL0     H96184   0.691   4.759   7.637  2.5128  1.1978  2.2150
  729MOL0     H96185   0.675   4.762   7.800  2.0609  0.8912 -0.8800
  729MOL0     H96186   0.470   4.604   7.613 -1.8440 -0.7686  0.6346
  729MOL0     H96187   0.505   4.562   7.789  2.7163  0.2565 -0.1632
  729MOL0     H96188   0.434   4.842   7.666  0.7766  0.3963  0.6656
  729MOL0     H96189   0.445   4.809   7.837 -0.4313  0.9527  0.6955
  729MOL0     H96190   0.291   4.961   7.848 -0.3958 -0.4457  1.7085
  729MOL0     H96191   0.094   5.108   7.842 -0.9908 -0.1318  0.7954
  729MOL0     H96192  -0.095   5.425   7.768  0.3614  0.7691  1.6435
  729MOL0     H96193  -0.250   5.600   7.780  2.3066 -1.9749 -0.5737
  729MOL0     H96194  -0.526   5.675   7.746 -1.0123 -0.5981  0.1439
  729MOL0     H96195  -0.414   5.758   7.864 -1.2157  1.0860  2.7738
  729MOL0     H96196  -0.602   5.882   7.876  1.1488  0.5863  1.4517
  729MOL0     H96197  -0.577   5.788   8.022  3.3060 -0.1959 -0.8578
  729MOL0     H96198  -0.734   5.621   7.969 -0.4481 -0.6268 -1.6878
  729MOL0     H96199  -0.776   5.697   7.811 -0.9221  0.0435 -0.6662
  729MOL0     H96200  -0.824   5.825   8.065  0.5941 -1.8213 -0.9658
  729MOL0     H96201  -0.852   5.898   7.906 -3.8052  0.8105  0.2765
  729MOL0     H96202  -0.993   5.647   8.002 -0.4479  0.3053 -0.0612
  729MOL0     H96203  -1.031   5.755   7.864  1.1157 -1.6186 -0.8792
  729MOL0     H96204  -1.040   5.844   8.156  1.6391  1.1290 -1.1713
  729MOL0     H96205  -1.179   5.783   8.074 -1.2612  4.1811  3.0525
  729MOL0     H96206  -1.023   6.036   8.035  1.4294 -2.0831  0.1756
  729MOL0     H96207  -1.080   5.976   7.883  4.1043  0.0681  1.0416
  729MOL0     H96208  -1.305   5.973   8.043  0.3866  0.0416 -0.3946
  729MOL0     H96209  -1.238   6.134   7.988 -1.2409  0.4544  0.2485
  729MOL0     H96210  -0.544   5.328   7.931  2.5401 -0.4337  3.1749
  729MOL0     H96211  -0.393   5.139   7.895  2.0573 -0.3037  3.7102
  729MOL0     H96212  -0.132   4.800   7.653 -0.4027  0.9736  1.0448
  729MOL0     H96213   0.060   4.662   7.642  2.8161 -0.8053  0.2308
  729MOL0     H96214   1.886   4.253   6.904  1.2146 -1.2472 -0.1678
  729MOL0     H96215   2.125   4.268   6.918 -1.3593  0.7942 -0.3253
  729MOL0     H96216   2.547   4.266   7.135  0.9262  1.8738 -1.0055
  729MOL0     H96217   2.790   4.267   7.105 -0.7781  2.1527 -1.0950
  729MOL0     H96218   2.962   4.152   6.723 -4.6838  1.4242  1.7889
  729MOL0     H96219   2.953   4.001   6.811 -0.7897  0.2558  0.5567
  729MOL0     H96220   3.184   4.004   6.885 -0.8638 -1.9526 -0.2828
  729MOL0     H96221   3.176   4.040   6.711  1.5218  1.9911 -0.4916
  729MOL0     H96222   3.192   4.263   6.922 -0.0491  0.4124  0.2024
  729MOL0     H96223   3.224   4.267   6.747  2.7340  0.0210  1.0228
  729MOL0     H96224   3.438   4.263   6.884 -3.0426  1.9244  1.8648
  729MOL0     H96225   3.389   4.104   6.949 -0.7601  1.2794  0.9781
  729MOL0     H96226   3.510   4.106   6.525 -1.1910  0.8693 -0.2100
  729MOL0     H96227   2.759   4.045   6.743 -3.2114  1.5750 -2.2817
  729MOL0     H96228   2.511   4.014   6.785 -0.2546  0.8651 -0.3627
  730MOL0     O96229   6.135   8.183   7.829  0.4619 -0.5512  0.9472
  730MOL0     C96230   6.050   8.097   7.837  0.4857 -0.6812 -0.8022
  730MOL0     O96231   6.072   7.965   7.855 -0.5636 -0.4502 -0.0434
  730MOL0     C96232   6.200   7.915   7.859  0.8008 -1.0165 -0.4299
  730MOL0     C96233   6.290   7.962   7.952 -0.3956 -0.2323  0.0886
  730MOL0     C96234   6.410   7.898   7.968 -0.1277  0.7881  0.1904
  730MOL0     C96235   6.452   7.800   7.876 -0.9316  0.6188 -0.6121
  730MOL0     O96236   6.578   7.739   7.871 -0.4097 -0.0878  0.7317
  730MOL0     C96237   6.697   7.775   7.949  0.1617 -0.7017  0.2436
  730MOL0     C96238   6.811   7.667   7.945  0.8050 -0.0338 -0.2356
  730MOL0     C96239   6.832   7.616   7.809  0.0116  0.3720  0.4252
  730MOL0     C96240   6.952   7.527   7.824  0.3857 -0.4586  0.5153
  730MOL0     C96241   6.967   7.457   7.693 -0.3478 -0.0050  0.2324
  730MOL0     C96242   7.102   7.393   7.665  0.2833 -0.5298  0.4488
  730MOL0     C96243   7.230   7.474   7.677 -0.1361 -0.9140 -0.0779
  730MOL0     C96244   7.356   7.385   7.649 -0.0814 -0.0282  0.3428
  730MOL0     N96245   7.467   7.433   7.731 -0.1016 -0.4929 -0.3704
  730MOL0     C96246   7.526   7.557   7.709  0.1402  0.7325  0.1387
  730MOL0     C96247   7.626   7.559   7.801  0.1903 -0.2452 -1.0157
  730MOL0     C96248   7.726   7.672   7.828 -0.5974 -0.2671  0.3605
  730MOL0     C96249   7.863   7.635   7.894 -0.6677 -0.5525  0.4807
  730MOL0     C96250   7.851   7.640   8.043  0.6411  0.4870  0.3860
  730MOL0     C96251   7.988   7.634   8.103  0.2887  0.8722 -0.0576
  730MOL0     O96252   8.040   7.763   8.110 -0.5024  0.0218  0.7889
  730MOL0     C96253   8.177   7.777   8.115  1.1507 -0.3210  0.1262
  730MOL0     C96254   8.238   7.824   8.232 -0.4164 -0.3914  1.5908
  730MOL0     C96255   8.374   7.844   8.237 -0.7403 -0.3770 -0.2447
  730MOL0     C96256   8.451   7.800   8.130  0.0811  0.0242 -0.6008
  730MOL0     C96257   8.597   7.838   8.140 -0.8798  0.4361 -0.3144
  730MOL0     O96258   8.676   7.808   8.033 -0.1504  0.0362  0.8195
  730MOL0     C96259   8.804   7.852   8.047 -0.3182 -0.3325  0.5593
  730MOL0     C96260   8.903   7.773   8.114  0.0288  0.1808  0.0927
  730MOL0     C96261   9.037   7.809   8.120 -1.0904 -0.0650 -0.4340
  730MOL0     C96262   9.086   7.931   8.083  0.2365  0.5437 -0.1206
  730MOL0     O96263   9.222   7.963   8.094  0.1857  0.4510  0.5628
  730MOL0     C96264   9.326   7.858   8.104 -0.2084  0.7867  0.2606
  730MOL0     C96265   9.469   7.893   8.090 -0.8183  1.0031  0.9310
  730MOL0     C96266   9.551   7.797   7.992  0.9236 -0.8444 -0.4635
  730MOL0     C96267   9.708   7.814   8.000 -1.4135 -0.3028 -0.4596
  730MOL0     C96268   9.793   7.825   7.870  0.3364  0.1903 -0.3103
  730MOL0     C96269   9.943   7.816   7.891 -0.3063  0.8269 -0.4203
  730MOL0     C96270  10.020   7.826   7.756  0.4284  0.3715  0.3584
  730MOL0     C96271  10.174   7.831   7.773  0.1311 -0.8026 -0.9039
  730MOL0    Cl96272  10.247   7.987   7.837  0.4041 -0.5262 -0.1037
  730MOL0     C96273   8.997   8.015   8.013  0.8855  0.5273  0.0562
  730MOL0     C96274   8.858   7.983   8.009  0.1768  0.0431 -0.0514
  730MOL0     O96275   8.634   7.882   8.247  0.2177 -0.8031 -0.5839
  730MOL0     C96276   8.396   7.728   8.017  0.4648  0.9004  0.0056
  730MOL0     C96277   8.257   7.728   8.012  0.2825  0.2401  0.3652
  730MOL0     N96278   7.632   7.438   7.860 -0.1353  0.9987  0.3592
  730MOL0     N96279   7.534   7.360   7.822 -0.8596 -0.0806 -0.1074
  730MOL0     C96280   6.367   7.759   7.774 -0.0262 -0.2067  0.4924
  730MOL0     C96281   6.238   7.817   7.769 -0.1932  0.4261 -0.5733
  730MOL0     C96282   5.905   8.148   7.840  0.7917  0.4616 -0.5085
  730MOL0     C96283   5.799   8.059   7.861 -0.0935 -0.1651  0.4305
  730MOL0     C96284   5.663   8.103   7.873  0.6440 -0.4274 -0.2497
  730MOL0     C96285   5.640   8.241   7.878  0.3436 -0.4366 -0.1619
  730MOL0     O96286   5.513   8.289   7.904  0.3604  0.8218  0.7790
  730MOL0     C96287   5.434   8.302   7.780 -0.7690  0.4720  0.6448
  730MOL0     C96288   5.304   8.362   7.795 -0.9454  0.0922 -0.7438
  730MOL0     C96289   5.236   8.305   7.920 -0.1370  0.1544 -0.0708
  730MOL0     C96290   5.086   8.362   7.948  0.0059 -0.3170 -0.0487
  730MOL0     C96291   4.985   8.332   7.841 -0.6533  0.0819  0.1508
  730MOL0     C96292   4.909   8.305   7.749  0.5751 -0.3969  0.0949
  730MOL0     C96293   5.745   8.329   7.870  0.5307 -0.0666  0.5453
  730MOL0     C96294   5.877   8.287   7.844 -0.1363  0.8330 -0.9893
  730MOL0     H96295   6.251   8.034   8.023  3.4314  0.9134  1.2806
  730MOL0     H96296   6.468   7.926   8.055 -0.6668  0.4207  0.6802
  730MOL0     H96297   6.664   7.799   8.050 -2.2646 -3.8908  0.3508
  730MOL0     H96298   6.746   7.864   7.907  1.1772 -1.3362  0.0408
  730MOL0     H96299   6.788   7.589   8.018 -2.2132 -0.1387 -1.1549
  730MOL0     H96300   6.903   7.723   7.964  1.2007 -1.0062  0.8052
  730MOL0     H96301   6.851   7.703   7.745  0.3647 -0.5050 -0.7182
  730MOL0     H96302   6.745   7.557   7.778  1.9922 -1.9398 -1.1696
  730MOL0     H96303   7.043   7.585   7.844  0.7189  0.3127 -2.6117
  730MOL0     H96304   6.935   7.454   7.903 -1.2889 -0.5267  0.1261
  730MOL0     H96305   6.932   7.515   7.607 -1.8888 -1.4556 -0.1681
  730MOL0     H96306   6.903   7.369   7.703  2.2578 -2.2898 -1.3515
  730MOL0     H96307   7.106   7.353   7.563  1.6479  2.2488 -0.6700
  730MOL0     H96308   7.118   7.317   7.742 -2.2201 -0.0709  1.5273
  730MOL0     H96309   7.222   7.570   7.626 -4.5477 -0.4933  0.9815
  730MOL0     H96310   7.233   7.505   7.782  3.2557 -3.6631  0.8257
  730MOL0     H96311   7.395   7.391   7.547  0.9035 -1.8413  0.5545
  730MOL0     H96312   7.339   7.279   7.673 -3.4821  0.5111  0.7582
  730MOL0     H96313   7.494   7.629   7.634 -0.4675  2.3492  1.8570
  730MOL0     H96314   7.681   7.762   7.872 -0.5096  1.6313 -3.0702
  730MOL0     H96315   7.753   7.708   7.728  1.0892 -0.7373  0.6127
  730MOL0     H96316   7.946   7.696   7.859 -0.9771 -1.5715 -2.2895
  730MOL0     H96317   7.870   7.535   7.850 -2.2330  0.2456 -1.8374
  730MOL0     H96318   7.804   7.730   8.085 -1.4235  0.8730 -2.4224
  730MOL0     H96319   7.792   7.551   8.068  2.1073 -0.5300  0.3330
  730MOL0     H96320   8.046   7.559   8.047 -0.5111 -0.3654  0.7152
  730MOL0     H96321   7.984   7.583   8.200 -2.1423  0.4607 -0.3097
  730MOL0     H96322   8.182   7.874   8.310 -0.8488  1.9031 -0.0654
  730MOL0     H96323   8.410   7.892   8.327 -1.2745 -2.5910  1.2372
  730MOL0     H96324   8.875   7.674   8.149 -0.4051 -0.3097 -1.5568
  730MOL0     H96325   9.101   7.733   8.166 -0.1161  1.4671  0.8580
  730MOL0     H96326   9.302   7.796   8.017 -1.5157  0.8497  0.5628
  730MOL0     H96327   9.305   7.792   8.188  0.7220  1.1292  0.7780
  730MOL0     H96328   9.520   7.881   8.186  1.4069 -1.7679 -0.4615
  730MOL0     H96329   9.484   7.997   8.058  0.5230  0.6964  0.4956
  730MOL0     H96330   9.514   7.803   7.889 -3.9281 -0.9357  1.0080
  730MOL0     H96331   9.533   7.695   8.027 -1.0445  0.4151  2.6210
  730MOL0     H96332   9.724   7.908   8.052  1.4575 -0.1531 -1.4445
  730MOL0     H96333   9.741   7.727   8.058 -2.9501 -0.4463  0.2585
  730MOL0     H96334   9.767   7.919   7.821  2.2459  1.0933  0.3178
  730MOL0     H96335   9.751   7.742   7.811 -0.8683  1.6343 -1.5740
  730MOL0     H96336   9.961   7.721   7.943 -1.0707  2.1232  2.4195
  730MOL0     H96337   9.971   7.905   7.949 -1.9607  3.1384 -2.9378
  730MOL0     H96338   9.978   7.749   7.690 -1.2405  1.5424 -0.0398
  730MOL0     H96339   9.991   7.922   7.712 -0.8380  1.6055  3.5984
  730MOL0     H96340  10.202   7.816   7.668  1.2703 -0.0826 -0.7257
  730MOL0     H96341  10.208   7.741   7.825 -2.3329 -2.1564 -1.4681
  730MOL0     H96342   9.021   8.112   7.969  2.4374  0.0428 -0.2393
  730MOL0     H96343   8.799   8.050   7.948  0.3232 -0.8334 -1.1859
  730MOL0     H96344   8.445   7.674   7.937  0.6968 -1.9019  1.8993
  730MOL0     H96345   8.201   7.689   7.927  1.2694 -1.7927  0.5877
  730MOL0     H96346   6.388   7.671   7.714 -1.5653 -1.2020  1.3551
  730MOL0     H96347   6.158   7.779   7.706  0.6323 -2.4764 -0.0181
  730MOL0     H96348   5.806   7.951   7.873  1.6690  0.0360  1.4706
  730MOL0     H96349   5.581   8.033   7.884 -0.2438  0.4732 -0.9230
  730MOL0     H96350   5.428   8.199   7.744 -0.6912  0.4530  0.6880
  730MOL0     H96351   5.487   8.365   7.708  0.3815 -1.2374 -0.0482
  730MOL0     H96352   5.318   8.469   7.815 -0.8098 -0.3687  2.1546
  730MOL0     H96353   5.237   8.355   7.709  0.3499 -0.1370 -1.7637
  730MOL0     H96354   5.301   8.332   8.004 -1.7382 -2.4406  2.1761
  730MOL0     H96355   5.236   8.196   7.906 -0.0635  0.1138  0.2470
  730MOL0     H96356   5.059   8.332   8.049  0.8056  0.8490  0.5407
  730MOL0     H96357   5.105   8.470   7.957  1.5583 -0.4911 -0.8528
  730MOL0     H96358   4.832   8.281   7.679 -0.5186 -0.5518  1.2930
  730MOL0     H96359   5.727   8.435   7.877 -1.6328 -0.4404  1.4487
  730MOL0     H96360   5.951   8.366   7.839  3.0432 -1.8575  0.2395
  731MOL0     O96361   5.901   0.542   2.548 -0.1479 -0.1883 -0.5999
  731MOL0     C96362   5.850   0.648   2.514 -0.2318 -0.0887 -1.0779
  731MOL0     O96363   5.723   0.688   2.548 -0.0791 -0.3509 -0.0251
  731MOL0     C96364   5.628   0.599   2.589  0.4178 -0.2983  0.1143
  731MOL0     C96365   5.491   0.607   2.544  0.4125 -1.1709 -0.0335
  731MOL0     C96366   5.400   0.514   2.581 -0.0314 -0.1811  0.0882
  731MOL0     C96367   5.435   0.411   2.667  0.4795 -0.1382 -0.2321
  731MOL0     O96368   5.339   0.334   2.729 -0.2831  0.0441  1.0077
  731MOL0     C96369   5.235   0.285   2.638 -0.0792 -0.2497 -0.0076
  731MOL0     C96370   5.131   0.192   2.698  0.2983 -0.0126 -0.7830
  731MOL0     C96371   5.024   0.262   2.787  0.7219  0.1544 -0.5326
  731MOL0     C96372   4.890   0.181   2.803 -0.0402 -0.7221  0.1891
  731MOL0     C96373   4.790   0.249   2.892 -0.7065 -0.5874 -0.5634
  731MOL0     C96374   4.650   0.256   2.822  0.1601 -0.2946 -0.3912
  731MOL0     C96375   4.553   0.349   2.898  1.3444  0.0003 -0.1069
  731MOL0     C96376   4.496   0.292   3.031  0.3685  0.3211 -0.3341
  731MOL0     N96377   4.389   0.193   3.009 -0.5504 -0.4064 -0.2341
  731MOL0     C96378   4.266   0.226   2.980  1.2909  0.7934 -0.7820
  731MOL0     C96379   4.210   0.104   2.959 -0.4664  0.4221  0.1653
  731MOL0     C96380   4.064   0.086   2.927  0.5775 -0.0806  0.3755
  731MOL0     C96381   4.030   0.172   2.811  0.5831  0.4692 -0.4332
  731MOL0     C96382   3.888   0.142   2.760 -0.2531  0.7313  0.3525
  731MOL0     C96383   3.832   0.263   2.680 -0.3530 -0.4969  0.6102
  731MOL0     O96384   3.762   0.231   2.553  0.9317  0.2059  0.0082
  731MOL0     C96385   3.627   0.197   2.552  0.4803 -0.0536  0.0674
  731MOL0     C96386   3.539   0.272   2.632  0.0706  0.0925 -0.5841
  731MOL0     C96387   3.403   0.235   2.643 -0.2937 -0.0229  0.0384
  731MOL0     C96388   3.365   0.110   2.580 -0.1942 -0.8681  0.2353
  731MOL0     C96389   3.230   0.054   2.590 -0.8545  0.7071  0.4307
  731MOL0     O96390   3.132   0.135   2.636  0.2238 -0.3346 -0.3833
  731MOL0     C96391   3.000   0.093   2.632 -0.2568  0.1512  0.0395
  731MOL0     C96392   2.948  -0.009   2.714  0.3411  0.5863 -0.1230
  731MOL0     C96393   2.816  -0.021   2.720 -0.0043  0.8049  0.1890
  731MOL0     C96394   2.719   0.050   2.636 -0.1293 -0.2131 -0.3924
  731MOL0     O96395   2.587   0.016   2.645  0.0886 -0.0441  0.0528
  731MOL0     C96396   2.502   0.055   2.531  0.0294 -0.6248  0.5463
  731MOL0     C96397   2.360   0.001   2.540  0.1235  0.4650  0.6602
  731MOL0     C96398   2.351  -0.133   2.464  0.3320 -0.2203  0.0970
  731MOL0     C96399   2.201  -0.170   2.438  0.4363 -0.3404  0.5885
  731MOL0     C96400   2.181  -0.314   2.392 -0.2578  0.1102  1.1288
  731MOL0     C96401   2.028  -0.348   2.392  0.0714 -0.2508 -0.2349
  731MOL0     C96402   2.014  -0.502   2.396 -0.0956  0.2074  0.1979
  731MOL0     C96403   1.867  -0.550   2.381  0.7017  0.0215 -0.7891
  731MOL0    Cl96404   1.772  -0.511   2.531 -0.4843 -0.1467 -0.0244
  731MOL0     C96405   2.773   0.140   2.545  0.1192  1.1570  0.3539
  731MOL0     C96406   2.911   0.171   2.553  0.3319  0.1455  0.7044
  731MOL0     O96407   3.219  -0.070   2.561  0.6474  0.2982 -0.6385
  731MOL0     C96408   3.468   0.030   2.508  0.0956 -0.1634  0.5066
  731MOL0     C96409   3.595   0.085   2.483 -0.1938 -0.6974 -0.2675
  731MOL0     N96410   4.306   0.002   2.981 -0.3879  0.0077 -0.4548
  731MOL0     N96411   4.418   0.061   3.009 -0.7049 -0.4444 -0.1430
  731MOL0     C96412   5.559   0.394   2.711 -0.0610  0.0653 -0.2517
  731MOL0     C96413   5.658   0.484   2.670  0.1175 -0.2298  0.0982
  731MOL0     C96414   5.931   0.751   2.454 -0.7575 -1.4068 -0.2441
  731MOL0     C96415   6.071   0.751   2.467 -0.8139  0.3967  0.6044
  731MOL0     C96416   6.150   0.855   2.411  0.1843  0.6698  0.4775
  731MOL0     C96417   6.094   0.956   2.326 -0.5418 -0.0885 -0.2490
  731MOL0     O96418   6.163   1.071   2.278 -0.4979  0.3499  0.0762
  731MOL0     C96419   6.305   1.069   2.301  0.2745 -0.7437 -0.4603
  731MOL0     C96420   6.360   1.178   2.208  0.1251 -0.7248  0.2692
  731MOL0     C96421   6.520   1.190   2.192  0.3204 -0.1794  0.2136
  731MOL0     C96422   6.587   1.199   2.327 -0.0172  0.7258  0.7409
  731MOL0     C96423   6.738   1.200   2.325 -0.3472  0.6165 -0.3045
  731MOL0     C96424   6.857   1.220   2.346  0.4664 -0.1079 -0.6473
  731MOL0     C96425   5.959   0.949   2.309 -0.0442 -0.1596 -0.5344
  731MOL0     C96426   5.878   0.854   2.376  0.5483 -0.2696  0.6117
  731MOL0     H96427   5.464   0.683   2.471  0.9125  1.9567  2.7756
  731MOL0     H96428   5.301   0.535   2.540  0.2321  1.9269  0.4290
  731MOL0     H96429   5.294   0.224   2.568 -1.6341  0.6093 -2.1795
  731MOL0     H96430   5.177   0.350   2.572  0.3490 -2.3431 -2.6099
  731MOL0     H96431   5.181   0.111   2.751 -1.8870 -0.1132  1.2490
  731MOL0     H96432   5.074   0.146   2.617 -2.4807  1.5776  0.1351
  731MOL0     H96433   4.993   0.359   2.746 -0.0778  0.5449  0.9290
  731MOL0     H96434   5.075   0.279   2.882 -2.2554  0.5310  1.1492
  731MOL0     H96435   4.850   0.169   2.702  0.4244 -3.0311  0.2390
  731MOL0     H96436   4.901   0.079   2.842  0.4863 -1.4526 -1.7713
  731MOL0     H96437   4.823   0.353   2.902 -1.8353  0.0188 -2.6438
  731MOL0     H96438   4.797   0.200   2.989  1.6044  0.4057 -0.1516
  731MOL0     H96439   4.600   0.159   2.808  0.3583 -0.0938 -2.7169
  731MOL0     H96440   4.664   0.301   2.724 -0.1009 -0.9579 -0.7450
  731MOL0     H96441   4.619   0.435   2.910  2.6471 -1.0925  0.9328
  731MOL0     H96442   4.466   0.371   2.836 -2.2259 -5.4505  2.2378
  731MOL0     H96443   4.441   0.362   3.094 -1.1299 -1.5305  0.5020
  731MOL0     H96444   4.564   0.233   3.092 -0.7686 -2.5194 -1.6443
  731MOL0     H96445   4.220   0.324   2.985  0.9807  0.6177 -0.1439
  731MOL0     H96446   4.016   0.104   3.024 -0.1842  0.4847 -0.1026
  731MOL0     H96447   4.036  -0.012   2.888 -3.0227  1.5753 -1.6110
  731MOL0     H96448   4.096   0.146   2.729  0.8046  0.3408 -0.2158
  731MOL0     H96449   4.040   0.277   2.839  1.3480  1.6457 -4.4966
  731MOL0     H96450   3.898   0.055   2.694  0.6068 -1.1774  2.8373
  731MOL0     H96451   3.820   0.122   2.843  0.3588  1.6683  1.0963
  731MOL0     H96452   3.911   0.334   2.653 -2.0334  0.7254 -1.3152
  731MOL0     H96453   3.773   0.318   2.754  0.3691  0.2506  0.6419
  731MOL0     H96454   3.573   0.367   2.672  0.0107  1.0907 -2.7106
  731MOL0     H96455   3.340   0.307   2.694  0.6268 -0.1268  1.3866
  731MOL0     H96456   3.022  -0.065   2.769  0.6374  0.4419 -0.6666
  731MOL0     H96457   2.780  -0.100   2.785  1.8987 -1.4999 -1.3789
  731MOL0     H96458   2.539   0.022   2.434  0.6571  0.4274  0.4187
  731MOL0     H96459   2.499   0.164   2.538 -2.9591 -0.4970 -1.2503
  731MOL0     H96460   2.300   0.070   2.479 -0.7161 -1.5078 -0.8739
  731MOL0     H96461   2.313   0.010   2.639 -1.0849  1.9252  0.0059
  731MOL0     H96462   2.408  -0.211   2.517 -0.0456 -0.3516  0.3149
  731MOL0     H96463   2.401  -0.132   2.367  2.8628 -0.1991  1.3282
  731MOL0     H96464   2.153  -0.163   2.536  2.2325 -1.7528  1.6294
  731MOL0     H96465   2.158  -0.097   2.369 -0.3466  0.0201  1.4304
  731MOL0     H96466   2.236  -0.385   2.454  1.0240  1.0836  1.1579
  731MOL0     H96467   2.217  -0.323   2.289 -1.7672  1.0761  0.4713
  731MOL0     H96468   1.992  -0.320   2.293 -1.9345 -1.1914  0.1654
  731MOL0     H96469   1.963  -0.299   2.466 -1.6958  0.2980 -2.0539
  731MOL0     H96470   2.075  -0.549   2.318  1.8527  1.3796  0.9224
  731MOL0     H96471   2.055  -0.536   2.491  0.1295  1.8216  0.7089
  731MOL0     H96472   1.858  -0.656   2.355  0.7788  0.0170 -0.7976
  731MOL0     H96473   1.821  -0.492   2.300 -1.2531  1.5246  1.2752
  731MOL0     H96474   2.719   0.194   2.468 -0.1194 -0.1048 -0.3856
  731MOL0     H96475   2.943   0.250   2.486 -2.2044  0.7041  0.0675
  731MOL0     H96476   3.440  -0.053   2.444 -0.9474  2.1006 -2.1973
  731MOL0     H96477   3.680   0.045   2.427 -0.2249 -2.0190  0.5887
  731MOL0     H96478   5.587   0.322   2.787  0.1900  0.8580  0.4179
  731MOL0     H96479   5.755   0.469   2.717  0.1988  2.7051  1.0388
  731MOL0     H96480   6.120   0.666   2.514  1.0190 -1.6066 -4.2392
  731MOL0     H96481   6.254   0.851   2.440  0.9601 -1.1644 -2.1696
  731MOL0     H96482   6.356   0.973   2.290 -1.7729 -1.9284 -0.0599
  731MOL0     H96483   6.319   1.097   2.406 -1.1403 -0.6970 -0.2548
  731MOL0     H96484   6.330   1.158   2.105  0.3834 -2.7717  0.5594
  731MOL0     H96485   6.318   1.274   2.238  1.6850  1.1224 -2.8642
  731MOL0     H96486   6.540   1.272   2.122 -0.3221 -1.8742 -2.0672
  731MOL0     H96487   6.566   1.108   2.137  0.9771  0.8065 -0.7417
  731MOL0     H96488   6.548   1.282   2.386  0.1888  2.1609 -1.0861
  731MOL0     H96489   6.558   1.111   2.386  2.4468  0.0522  1.0735
  731MOL0     H96490   6.961   1.237   2.365  0.5062  0.8736 -1.6062
  731MOL0     H96491   5.933   1.030   2.241 -2.3670  0.8725  1.4329
  731MOL0     H96492   5.773   0.879   2.373  0.3555 -1.1067  0.1376
  732MOL0     O96493   6.819   7.013  10.307  0.4514  0.0317 -0.6640
  732MOL0     C96494   6.809   7.128  10.358  1.1383  0.3027 -0.3420
  732MOL0     O96495   6.696   7.181  10.412 -0.5213  0.1217 -0.3076
  732MOL0     C96496   6.581   7.112  10.390  0.1668 -0.1138  0.2328
  732MOL0     C96497   6.520   7.092  10.266 -0.2386  0.2788 -0.0264
  732MOL0     C96498   6.399   7.027  10.256  0.0207  1.0694 -0.7808
  732MOL0     C96499   6.335   6.985  10.373 -0.3368  0.3051  0.2083
  732MOL0     O96500   6.211   6.919  10.372 -0.1673 -0.6256  0.3894
  732MOL0     C96501   6.130   6.906  10.252  0.4083 -0.4790 -0.2061
  732MOL0     C96502   6.028   6.793  10.285 -0.3736  0.1154  0.1004
  732MOL0     C96503   5.945   6.760  10.155 -0.7345 -0.4721 -0.6354
  732MOL0     C96504   5.818   6.685  10.187  0.6093  0.4395 -0.3746
  732MOL0     C96505   5.750   6.629  10.065  0.2291  0.1719 -0.0391
  732MOL0     C96506   5.607   6.605  10.118 -0.4287  0.5112 -0.1167
  732MOL0     C96507   5.546   6.491  10.028  0.1213 -0.0508 -0.0054
  732MOL0     C96508   5.493   6.536   9.898  0.4553 -0.1305 -0.2266
  732MOL0     N96509   5.365   6.603   9.902 -0.8508 -0.6875  0.7276
  732MOL0     C96510   5.247   6.543   9.925  0.7962  0.0527 -0.0879
  732MOL0     C96511   5.159   6.640   9.967  0.1315  0.3412 -0.7755
  732MOL0     C96512   5.014   6.605   9.998 -0.9327 -0.0647  0.1062
  732MOL0     C96513   4.938   6.581   9.877  0.2387  0.1670 -0.2464
  732MOL0     C96514   4.860   6.699   9.824 -0.0193  0.4594 -0.5501
  732MOL0     C96515   4.931   6.829   9.831 -0.9894 -0.0634  0.3868
  732MOL0     O96516   4.883   6.929   9.748 -0.0874 -0.2050  0.2390
  732MOL0     C96517   4.944   7.045   9.770  0.4445 -1.0308 -0.9931
  732MOL0     C96518   5.073   7.070   9.827 -0.2368 -1.0618 -0.3106
  732MOL0     C96519   5.125   7.202   9.827 -0.5368  0.5362  1.0342
  732MOL0     C96520   5.055   7.304   9.765 -0.1698  0.0650  0.0374
  732MOL0     C96521   5.114   7.437   9.754  1.1372 -0.9150 -0.1323
  732MOL0     O96522   5.250   7.450   9.776  0.2718  0.8592  0.1132
  732MOL0     C96523   5.310   7.579   9.770 -0.1517 -0.1345 -0.3868
  732MOL0     C96524   5.368   7.621   9.653 -0.5012  0.0350  0.3791
  732MOL0     C96525   5.421   7.750   9.640 -0.3191 -0.7196  1.1474
  732MOL0     C96526   5.412   7.839   9.753 -0.4248  0.3906  0.4825
  732MOL0     O96527   5.480   7.954   9.737 -0.3300 -0.5287  0.0382
  732MOL0     C96528   5.595   7.954   9.829 -0.7842  0.4171  0.5473
  732MOL0     C96529   5.676   8.074   9.844 -0.1877  0.0698 -0.6401
  732MOL0     C96530   5.789   8.087   9.743  0.2517  0.3192 -0.4028
  732MOL0     C96531   5.871   8.209   9.774  0.2147 -1.2257  0.6372
  732MOL0     C96532   5.994   8.223   9.677  0.0840  0.0027 -0.7234
  732MOL0     C96533   6.115   8.277   9.762  0.0698 -0.2953  0.3755
  732MOL0     C96534   6.234   8.307   9.668  0.8287  0.3098 -0.4864
  732MOL0     C96535   6.358   8.363   9.740  0.1618 -0.4289  0.6457
  732MOL0    Cl96536   6.306   8.523   9.815 -0.2464  0.3185 -0.0816
  732MOL0     C96537   5.357   7.791   9.873 -0.3986  0.2360 -0.0339
  732MOL0     C96538   5.317   7.662   9.881  0.3432 -0.1726  0.2520
  732MOL0     O96539   5.041   7.530   9.715 -0.2466 -0.3368 -0.2570
  732MOL0     C96540   4.917   7.283   9.717  0.0489  0.5967  0.6486
  732MOL0     C96541   4.867   7.155   9.726  0.3056 -0.2268  1.1416
  732MOL0     N96542   5.231   6.760   9.971 -0.8158  0.2964  0.1458
  732MOL0     N96543   5.352   6.741   9.937  0.5472  0.3140  1.2776
  732MOL0     C96544   6.388   7.010  10.491  0.3528  0.6709 -0.2611
  732MOL0     C96545   6.511   7.076  10.505  0.2658  0.2074  0.3627
  732MOL0     C96546   6.924   7.211  10.365 -0.2956  0.3997  0.1448
  732MOL0     C96547   6.926   7.317  10.456  0.1483 -0.5672  0.6761
  732MOL0     C96548   7.039   7.404  10.455 -0.7395 -0.5092 -0.7467
  732MOL0     C96549   7.148   7.393  10.365 -0.3056 -0.4127  0.1221
  732MOL0     O96550   7.252   7.479  10.369 -0.4049  0.0648  0.5169
  732MOL0     C96551   7.288   7.536  10.243  0.1434 -0.4117  0.0048
  732MOL0     C96552   7.346   7.675  10.257 -0.9499 -0.3674 -0.7812
  732MOL0     C96553   7.482   7.662  10.331  0.0572 -0.4906 -0.1207
  732MOL0     C96554   7.557   7.805  10.324 -0.4224  0.2095 -0.1399
  732MOL0     C96555   7.592   7.847  10.190  0.9188 -0.1213  0.6866
  732MOL0     C96556   7.618   7.870  10.076  0.6935 -0.8056 -0.5975
  732MOL0     C96557   7.153   7.270  10.291  0.0787 -0.2881  0.9212
  732MOL0     C96558   7.043   7.182  10.290  0.7312  0.1725  0.2941
  732MOL0     H96559   6.574   7.115  10.175  0.5604 -1.6980 -0.0966
  732MOL0     H96560   6.365   7.015  10.153 -0.0948  3.0425 -1.0204
  732MOL0     H96561   6.184   6.880  10.161  3.1710  0.3116  1.1129
  732MOL0     H96562   6.079   7.001  10.236  4.2349  1.9118  0.6627
  732MOL0     H96563   5.964   6.816  10.371 -2.9101 -1.3062 -1.3122
  732MOL0     H96564   6.099   6.712  10.303  0.1718  1.0013  2.2791
  732MOL0     H96565   6.013   6.706  10.087  0.6705 -0.7396  0.9110
  732MOL0     H96566   5.918   6.847  10.096  0.3084  0.6087  0.4131
  732MOL0     H96567   5.841   6.598  10.249 -2.6808 -0.9468 -0.9115
  732MOL0     H96568   5.755   6.750  10.249  0.1313 -2.7965  2.8310
  732MOL0     H96569   5.796   6.537  10.028  1.2562 -1.5288  4.6837
  732MOL0     H96570   5.754   6.706   9.988  1.3890  1.2555  1.0759
  732MOL0     H96571   5.545   6.691  10.142 -0.9397 -0.2009  1.2315
  732MOL0     H96572   5.625   6.558  10.216  4.3149  0.7900 -0.5958
  732MOL0     H96573   5.640   6.440  10.004  1.0184  1.9167 -0.9676
  732MOL0     H96574   5.467   6.434  10.077 -1.5009  1.0306 -1.2624
  732MOL0     H96575   5.475   6.451   9.832 -1.3369  0.4760 -0.5700
  732MOL0     H96576   5.568   6.602   9.854 -1.3704  1.1062 -1.6398
  732MOL0     H96577   5.232   6.435   9.931 -2.6000  0.4149  0.0404
  732MOL0     H96578   4.969   6.685  10.056  2.1418  2.1561 -0.2997
  732MOL0     H96579   5.017   6.515  10.061 -1.3239  0.2402  0.5622
  732MOL0     H96580   4.859   6.509   9.900 -0.4890  0.5679 -1.3757
  732MOL0     H96581   5.002   6.527   9.806 -1.7639 -2.2761 -0.3414
  732MOL0     H96582   4.835   6.672   9.721 -0.5731 -0.7989 -0.1091
  732MOL0     H96583   4.762   6.704   9.873 -0.0136 -2.9821  0.0398
  732MOL0     H96584   5.033   6.811   9.794 -0.7184  0.9201  0.6297
  732MOL0     H96585   4.934   6.868   9.933  0.3735 -0.0646  0.3685
  732MOL0     H96586   5.143   6.991   9.851 -0.7423 -1.3383  0.2790
  732MOL0     H96587   5.215   7.232   9.879 -1.3540  1.9660  1.6778
  732MOL0     H96588   5.383   7.550   9.572  2.6976 -1.3301  1.9889
  732MOL0     H96589   5.472   7.783   9.550 -0.1341  0.9623  1.8260
  732MOL0     H96590   5.665   7.877   9.796 -1.8582 -1.0128  1.4839
  732MOL0     H96591   5.566   7.939   9.933  1.1379 -0.4095  1.0148
  732MOL0     H96592   5.701   8.083   9.950 -0.8914  2.1809 -0.6100
  732MOL0     H96593   5.605   8.156   9.831  0.2300  1.2251  3.1900
  732MOL0     H96594   5.747   8.087   9.642 -0.6905 -0.2339 -0.0239
  732MOL0     H96595   5.857   8.001   9.744 -3.0087 -2.5404 -2.1375
  732MOL0     H96596   5.807   8.295   9.752  2.1160  0.2697  0.7835
  732MOL0     H96597   5.902   8.207   9.879 -0.3169 -2.8579  0.7971
  732MOL0     H96598   5.972   8.284   9.589  2.1752  2.5785  0.4238
  732MOL0     H96599   6.020   8.122   9.642  0.9926 -0.3494  0.8757
  732MOL0     H96600   6.153   8.201   9.830 -0.2878 -1.0876 -0.3016
  732MOL0     H96601   6.085   8.368   9.816 -0.4916 -0.2571  0.0089
  732MOL0     H96602   6.240   8.218   9.604 -3.3910 -0.0069 -0.7010
  732MOL0     H96603   6.206   8.364   9.579 -0.5587 -0.7009 -0.7269
  732MOL0     H96604   6.434   8.391   9.666  0.2783  2.3651  1.7353
  732MOL0     H96605   6.407   8.294   9.809 -1.7387 -3.4013 -0.7488
  732MOL0     H96606   5.358   7.851   9.963  0.7262 -0.9722  0.8013
  732MOL0     H96607   5.280   7.618   9.973 -1.7283 -2.2507 -1.4279
  732MOL0     H96608   4.848   7.358   9.679 -1.5068 -0.4907  1.2438
  732MOL0     H96609   4.762   7.152   9.698 -0.1053 -1.9640  2.7008
  732MOL0     H96610   6.343   6.986  10.587  5.2224  3.1774  3.0764
  732MOL0     H96611   6.540   7.089  10.608 -3.7216  0.0126  1.6692
  732MOL0     H96612   6.843   7.334  10.524 -0.5782 -0.0918 -0.3010
  732MOL0     H96613   7.047   7.482  10.530  0.2806 -2.6346  1.4894
  732MOL0     H96614   7.192   7.546  10.192 -0.1724  4.5246  1.0993
  732MOL0     H96615   7.355   7.474  10.183  1.2502 -0.5445  1.3305
  732MOL0     H96616   7.358   7.716  10.156  1.0961  0.5690 -0.2245
  732MOL0     H96617   7.275   7.737  10.312  0.0496 -0.7098  0.9722
  732MOL0     H96618   7.546   7.578  10.303  0.3411 -0.8551  1.4991
  732MOL0     H96619   7.461   7.643  10.437  1.6716 -1.3536  0.0717
  732MOL0     H96620   7.496   7.871  10.386 -0.7670 -0.6469  0.4642
  732MOL0     H96621   7.656   7.782  10.365  0.3328 -1.3796 -2.6502
  732MOL0     H96622   7.633   7.877   9.970 -1.4114 -2.0949 -1.0272
  732MOL0     H96623   7.245   7.242  10.239  0.7323  2.8983  0.1783
  732MOL0     H96624   7.047   7.095  10.225 -0.9647  1.3104 -1.4027
  733MOL0     O96625   1.941   1.392   4.621 -0.4001 -0.1247 -0.7856
  733MOL0     C96626   2.012   1.295   4.646 -0.0602  0.1618  0.9804
  733MOL0     O96627   1.977   1.168   4.667  0.5465 -0.5941 -0.8742
  733MOL0     C96628   1.861   1.114   4.612 -1.0589 -0.7775 -0.5203
  733MOL0     C96629   1.737   1.167   4.638  0.6533 -0.5979 -0.5953
  733MOL0     C96630   1.616   1.110   4.588 -0.0496 -0.3809  0.9332
  733MOL0     C96631   1.627   0.989   4.514 -0.2125  0.9799 -0.1288
  733MOL0     O96632   1.511   0.940   4.461  0.1215  0.0612 -0.1258
  733MOL0     C96633   1.499   0.803   4.434 -0.0635  0.5146 -0.0735
  733MOL0     C96634   1.360   0.775   4.375  0.0815  0.2905 -0.4769
  733MOL0     C96635   1.240   0.835   4.449 -0.2061 -0.6003  0.8004
  733MOL0     C96636   1.108   0.758   4.414 -0.7790 -0.7251 -0.6745
  733MOL0     C96637   0.976   0.791   4.486 -0.3264 -0.0450  0.5796
  733MOL0     C96638   0.861   0.725   4.414 -0.8283  0.3648 -0.3072
  733MOL0     C96639   0.827   0.576   4.414 -0.2870 -0.0528 -0.2022
  733MOL0     C96640   0.833   0.513   4.555  0.4530  0.0993 -0.3130
  733MOL0     N96641   0.741   0.577   4.658  0.5497  0.0654  0.6981
  733MOL0     C96642   0.604   0.575   4.660 -0.5007 -0.2736  1.2580
  733MOL0     C96643   0.564   0.665   4.755  0.3383  0.5821  0.0796
  733MOL0     C96644   0.429   0.702   4.791 -0.3384  0.1111  0.5701
  733MOL0     C96645   0.395   0.635   4.927 -0.6514  0.4618 -0.2431
  733MOL0     C96646   0.245   0.657   4.961 -0.1139  0.3092 -0.0702
  733MOL0     C96647   0.204   0.604   5.101  0.4104  0.3540  0.4913
  733MOL0     O96648   0.190   0.461   5.085  0.1723 -0.5746 -0.4820
  733MOL0     C96649   0.064   0.409   5.109 -0.5431  0.7806  0.4052
  733MOL0     C96650   0.058   0.280   5.172  0.1445 -0.4954 -0.5134
  733MOL0     C96651  -0.054   0.213   5.182  0.8209  0.0087  0.4214
  733MOL0     C96652  -0.172   0.267   5.128  0.7156  1.3858 -0.8454
  733MOL0     C96653  -0.294   0.177   5.118  0.3810 -0.1264 -0.4493
  733MOL0     O96654  -0.401   0.228   5.047  0.0363 -0.2680 -0.6450
  733MOL0     C96655  -0.527   0.184   5.066 -0.7346 -0.9987  0.0503
  733MOL0     C96656  -0.578   0.178   5.200  0.2940  0.5202  0.5091
  733MOL0     C96657  -0.706   0.133   5.220 -0.2938 -0.3426 -0.1847
  733MOL0     C96658  -0.794   0.098   5.115  0.2165  0.7231  0.2920
  733MOL0     O96659  -0.924   0.049   5.140 -0.0778  0.3288 -0.4283
  733MOL0     C96660  -0.969   0.036   5.276  0.6188  0.5657 -0.3146
  733MOL0     C96661  -1.116  -0.006   5.285  0.9201 -0.5107 -0.3273
  733MOL0     C96662  -1.170  -0.017   5.429 -0.8069  0.6331 -1.0326
  733MOL0     C96663  -1.319  -0.046   5.436  0.5873 -0.5770 -0.0735
  733MOL0     C96664  -1.381  -0.028   5.573 -0.3182 -0.5049 -0.0938
  733MOL0     C96665  -1.526  -0.056   5.573 -0.3457  0.0890 -0.3525
  733MOL0     C96666  -1.576  -0.025   5.712 -0.3553 -0.5822 -0.1228
  733MOL0     C96667  -1.733  -0.069   5.723 -0.1597 -0.4521 -0.0195
  733MOL0    Cl96668  -1.818   0.015   5.857 -0.3406 -0.3891 -0.2225
  733MOL0     C96669  -0.752   0.120   4.989 -0.4047  0.1982 -0.1844
  733MOL0     C96670  -0.621   0.161   4.965  0.2458 -0.1600 -0.3107
  733MOL0     O96671  -0.300   0.065   5.172  0.2534 -0.1206 -0.5027
  733MOL0     C96672  -0.176   0.394   5.071 -0.3038  0.5684 -0.5975
  733MOL0     C96673  -0.056   0.463   5.051  1.0462 -0.2094 -0.0490
  733MOL0     N96674   0.682   0.714   4.807 -0.6796 -0.1548 -0.9453
  733MOL0     N96675   0.780   0.657   4.760 -0.2480  1.4919  0.5916
  733MOL0     C96676   1.752   0.930   4.493 -0.1145 -0.3542  0.1282
  733MOL0     C96677   1.870   0.992   4.541 -0.1405  0.1019 -0.4798
  733MOL0     C96678   2.160   1.316   4.646 -0.3788 -0.9240 -0.7843
  733MOL0     C96679   2.239   1.225   4.717  0.3919 -0.1876 -0.0527
  733MOL0     C96680   2.378   1.244   4.711  0.1903  0.2768  0.1325
  733MOL0     C96681   2.439   1.347   4.643  0.0515  0.7618 -0.5922
  733MOL0     O96682   2.579   1.336   4.648  0.3827 -0.1816  0.1698
  733MOL0     C96683   2.652   1.436   4.571  0.5481 -0.0906 -0.0296
  733MOL0     C96684   2.790   1.413   4.613  0.1555  0.1909  0.8664
  733MOL0     C96685   2.848   1.277   4.560 -0.2925 -0.0835  0.8482
  733MOL0     C96686   2.934   1.294   4.424  0.1400  0.2994 -0.1328
  733MOL0     C96687   2.862   1.358   4.311  0.0332  0.2416  0.6211
  733MOL0     C96688   2.798   1.412   4.225  0.1384 -0.3196  0.2499
  733MOL0     C96689   2.361   1.441   4.575 -0.9430 -0.2795 -0.4463
  733MOL0     C96690   2.219   1.419   4.573  0.3442  0.1498  0.3033
  733MOL0     H96691   1.733   1.252   4.705 -1.1291 -1.7446  0.8524
  733MOL0     H96692   1.521   1.155   4.616  0.7166  0.5853  2.0664
  733MOL0     H96693   1.514   0.751   4.529  0.3820 -0.4031 -0.6364
  733MOL0     H96694   1.569   0.759   4.362 -1.3981 -1.6342 -0.1393
  733MOL0     H96695   1.343   0.670   4.349 -1.5082  0.2371  0.6311
  733MOL0     H96696   1.355   0.812   4.272  0.0795 -2.1038 -1.4069
  733MOL0     H96697   1.221   0.940   4.426  1.4951 -0.4789 -0.2218
  733MOL0     H96698   1.268   0.816   4.553  0.9242 -2.0319  0.2653
  733MOL0     H96699   1.096   0.752   4.305 -0.7850  0.5910 -0.7610
  733MOL0     H96700   1.128   0.655   4.445  2.8609 -0.0567 -0.4414
  733MOL0     H96701   0.979   0.900   4.482  2.3363  0.0657 -4.9228
  733MOL0     H96702   0.977   0.748   4.586 -2.5766 -1.6223  0.0094
  733MOL0     H96703   0.858   0.749   4.307  2.2835  0.0093 -0.5649
  733MOL0     H96704   0.768   0.773   4.446  0.9824  1.2950  4.2985
  733MOL0     H96705   0.719   0.569   4.394 -0.8659  0.4709  2.4161
  733MOL0     H96706   0.890   0.526   4.340  0.2528  1.3334 -0.7108
  733MOL0     H96707   0.934   0.516   4.597  0.5985  0.0951 -0.6568
  733MOL0     H96708   0.810   0.407   4.537  0.3831 -0.0865  0.8131
  733MOL0     H96709   0.542   0.503   4.608  0.2392 -3.5558  4.5007
  733MOL0     H96710   0.365   0.668   4.709  0.7271 -0.7432  0.0727
  733MOL0     H96711   0.422   0.811   4.804 -0.9137  0.1621 -0.0869
  733MOL0     H96712   0.459   0.684   5.002 -0.8237  0.7132 -0.2595
  733MOL0     H96713   0.421   0.531   4.910 -0.2577  0.8752 -2.3802
  733MOL0     H96714   0.216   0.763   4.960 -2.4458 -0.2640  0.4146
  733MOL0     H96715   0.183   0.605   4.889  0.0732  1.0506 -0.7817
  733MOL0     H96716   0.107   0.646   5.131  0.0599 -0.7432  0.9486
  733MOL0     H96717   0.287   0.631   5.168  2.2587 -1.1143 -1.1037
  733MOL0     H96718   0.152   0.241   5.210  0.4081  0.8831  0.3156
  733MOL0     H96719  -0.058   0.111   5.218 -3.1999  0.9680  3.4027
  733MOL0     H96720  -0.531   0.195   5.296  2.3130  1.2766 -0.5311
  733MOL0     H96721  -0.730   0.141   5.325  0.9359  0.8661  0.0337
  733MOL0     H96722  -0.970   0.132   5.329 -1.6083  0.9988 -1.0485
  733MOL0     H96723  -0.896  -0.022   5.333  1.4397  3.0655  1.3844
  733MOL0     H96724  -1.132  -0.102   5.234  1.3122  0.1729 -1.7926
  733MOL0     H96725  -1.173   0.081   5.252  0.2270 -0.5144  0.8538
  733MOL0     H96726  -1.147   0.078   5.479 -1.1078 -0.1197  0.6058
  733MOL0     H96727  -1.119  -0.103   5.474 -1.4020 -1.5080 -4.1314
  733MOL0     H96728  -1.366   0.030   5.373  0.3707 -0.4203  0.2705
  733MOL0     H96729  -1.343  -0.141   5.389 -0.7656  0.0253 -0.6258
  733MOL0     H96730  -1.374   0.079   5.598 -0.1785 -0.7997  1.1655
  733MOL0     H96731  -1.315  -0.074   5.647  1.9045 -0.0875 -1.6844
  733MOL0     H96732  -1.531  -0.165   5.563  0.2505 -0.6351  4.5875
  733MOL0     H96733  -1.588   0.003   5.505  1.2601  2.0563 -0.2012
  733MOL0     H96734  -1.524  -0.064   5.800 -0.0133  1.7990  0.8044
  733MOL0     H96735  -1.565   0.082   5.728  2.5578 -0.1833 -3.5876
  733MOL0     H96736  -1.747  -0.177   5.719 -1.3882 -0.2748 -1.2604
  733MOL0     H96737  -1.786  -0.029   5.636  0.8534  3.4806  0.9855
  733MOL0     H96738  -0.822   0.099   4.909 -0.7050  1.7065 -0.3546
  733MOL0     H96739  -0.589   0.188   4.864  0.7832 -2.3415 -0.7646
  733MOL0     H96740  -0.269   0.434   5.031  0.2729  0.8067 -1.7579
  733MOL0     H96741  -0.045   0.558   4.999 -0.2631 -1.4043 -2.6682
  733MOL0     H96742   1.768   0.839   4.436 -0.1359  0.1091 -0.6340
  733MOL0     H96743   1.966   0.942   4.533  0.6045  1.1202  1.3755
  733MOL0     H96744   2.189   1.139   4.760  0.2470 -0.2605 -0.3627
  733MOL0     H96745   2.442   1.176   4.766  0.3407  0.8321  0.6528
  733MOL0     H96746   2.622   1.533   4.611  0.4474 -0.4103  0.6878
  733MOL0     H96747   2.638   1.429   4.463  4.8457 -1.9133 -0.6846
  733MOL0     H96748   2.863   1.489   4.584  0.6667  0.6683  3.1546
  733MOL0     H96749   2.796   1.413   4.722  5.2186  1.8564  0.8538
  733MOL0     H96750   2.768   1.202   4.561 -1.9091  1.3240 -3.0967
  733MOL0     H96751   2.917   1.235   4.634  1.0836  1.9192  0.7910
  733MOL0     H96752   3.003   1.368   4.466  0.4527  0.7947 -1.4722
  733MOL0     H96753   2.988   1.206   4.389  4.5050  0.7878  4.2605
  733MOL0     H96754   2.735   1.466   4.157  0.1151  0.6050  0.9793
  733MOL0     H96755   2.405   1.521   4.517  1.5201 -1.2470 -0.0207
  733MOL0     H96756   2.149   1.483   4.519 -0.7584  0.2359  1.7713
  734MOL0     O96757   0.121   8.994   5.526  0.0951  0.1695  0.3430
  734MOL0     C96758   0.086   8.899   5.584 -0.7106  0.7715 -0.2412
  734MOL0     O96759  -0.038   8.859   5.610 -0.6699 -0.1404 -0.6382
  734MOL0     C96760  -0.145   8.921   5.551  0.6392  0.5836  0.7982
  734MOL0     C96761  -0.265   8.931   5.623  0.3413 -0.3967  0.9643
  734MOL0     C96762  -0.385   8.983   5.561 -0.9181  1.1840 -0.2608
  734MOL0     C96763  -0.391   9.009   5.426  0.2378  1.1836  0.2392
  734MOL0     O96764  -0.506   9.031   5.352 -0.2203 -0.1991 -0.2832
  734MOL0     C96765  -0.621   9.087   5.413 -0.2897  0.4262  0.5256
  734MOL0     C96766  -0.680   9.152   5.286  1.0261 -0.2158 -0.1259
  734MOL0     C96767  -0.813   9.224   5.317 -0.4682 -0.1506 -0.1334
  734MOL0     C96768  -0.919   9.130   5.384 -0.5450 -0.1371  0.0378
  734MOL0     C96769  -1.063   9.166   5.358 -0.1888 -0.5147  0.1052
  734MOL0     C96770  -1.118   9.171   5.209 -0.7622  0.8299  1.1828
  734MOL0     C96771  -1.230   9.262   5.197 -0.3046 -0.3182 -0.0040
  734MOL0     C96772  -1.300   9.262   5.061 -1.2824 -0.1976 -0.7302
  734MOL0     N96773  -1.431   9.329   5.065 -1.1993  0.1591 -0.1863
  734MOL0     C96774  -1.538   9.326   5.153  0.1859  0.2025  0.0444
  734MOL0     C96775  -1.633   9.416   5.096  0.0737  0.7728  0.0592
  734MOL0     C96776  -1.773   9.446   5.143 -0.1065 -0.0361  0.6826
  734MOL0     C96777  -1.856   9.323   5.114  0.0146 -0.4894  0.1573
  734MOL0     C96778  -1.992   9.332   5.185 -0.0135  0.1827 -0.6182
  734MOL0     C96779  -2.072   9.210   5.159  0.6970  0.8748 -0.7174
  734MOL0     O96780  -2.194   9.228   5.242 -0.6632 -0.6944  0.3528
  734MOL0     C96781  -2.226   9.122   5.313 -1.2167 -0.1550 -0.3876
  734MOL0     C96782  -2.193   9.109   5.446  0.4737 -0.1997  0.6931
  734MOL0     C96783  -2.215   8.997   5.523 -0.3661  0.4368  0.0840
  734MOL0     C96784  -2.253   8.880   5.451  0.0482 -0.3505  0.0723
  734MOL0     C96785  -2.260   8.749   5.526 -0.6241  0.2396  0.5234
  734MOL0     O96786  -2.229   8.742   5.661 -0.5145 -0.5810 -0.3068
  734MOL0     C96787  -2.257   8.627   5.722 -0.0290 -0.3752 -0.6734
  734MOL0     C96788  -2.163   8.551   5.799 -0.3132 -1.1356 -0.1173
  734MOL0     C96789  -2.187   8.429   5.862  0.2073 -0.7550 -0.2292
  734MOL0     C96790  -2.315   8.371   5.833 -0.3158  0.0209  0.0962
  734MOL0     O96791  -2.332   8.239   5.874  0.1809  0.4919  0.5364
  734MOL0     C96792  -2.459   8.181   5.836  0.2007  0.7411  0.7501
  734MOL0     C96793  -2.490   8.030   5.882 -1.1935  0.7660  0.3490
  734MOL0     C96794  -2.481   8.006   6.032  0.1891 -0.4314 -0.2742
  734MOL0     C96795  -2.497   7.861   6.079 -0.0997 -0.0241  1.2584
  734MOL0     C96796  -2.637   7.813   6.058  0.2791  0.6240  0.3341
  734MOL0     C96797  -2.633   7.674   6.131 -0.4594 -0.2415  0.1879
  734MOL0     C96798  -2.768   7.608   6.114  0.0471  0.2183 -0.4260
  734MOL0     C96799  -2.787   7.479   6.202  0.4773 -0.0646  0.7081
  734MOL0    Cl96800  -2.649   7.360   6.169 -0.5964  0.1833  0.4125
  734MOL0     C96801  -2.415   8.447   5.763 -0.6619  0.8847 -0.3148
  734MOL0     C96802  -2.392   8.579   5.722 -0.6157 -0.1327  0.0929
  734MOL0     O96803  -2.304   8.660   5.455 -0.0742 -0.1379  0.2445
  734MOL0     C96804  -2.273   8.887   5.308  0.4211  0.4669 -0.6401
  734MOL0     C96805  -2.264   9.008   5.247  0.3578 -0.1015  0.5895
  734MOL0     N96806  -1.576   9.475   4.993  0.0150 -0.1154  0.0219
  734MOL0     N96807  -1.462   9.419   4.973 -0.0113 -1.5219 -0.3052
  734MOL0     C96808  -0.271   8.995   5.355 -0.7887  0.2010  0.4118
  734MOL0     C96809  -0.149   8.959   5.418  0.2399 -0.2745  0.6658
  734MOL0     C96810   0.190   8.797   5.622  0.4244 -0.5231 -0.2399
  734MOL0     C96811   0.301   8.780   5.541  0.1280  0.8421 -0.4406
  734MOL0     C96812   0.392   8.678   5.555  0.5752 -0.4215 -0.7097
  734MOL0     C96813   0.379   8.592   5.662  0.3039 -0.5172  0.4951
  734MOL0     O96814   0.466   8.492   5.696 -0.3943  0.1028 -0.1055
  734MOL0     C96815   0.603   8.505   5.658  0.4081 -0.5970  0.0281
  734MOL0     C96816   0.672   8.395   5.731  0.2466 -1.0223 -0.1046
  734MOL0     C96817   0.822   8.436   5.725  1.2582  0.3404 -0.0071
  734MOL0     C96818   0.906   8.309   5.748 -0.6298  0.3972  0.5604
  734MOL0     C96819   0.930   8.237   5.623  0.0312 -0.8033 -0.2858
  734MOL0     C96820   0.932   8.189   5.513 -0.7614 -0.9425 -0.5432
  734MOL0     C96821   0.266   8.612   5.750  0.9454  1.2353 -0.1676
  734MOL0     C96822   0.167   8.707   5.724  0.4353  0.3761  0.6156
  734MOL0     H96823  -0.274   8.894   5.725 -0.1602 -2.5322  0.1952
  734MOL0     H96824  -0.479   8.983   5.615  0.6406  1.3684  2.6538
  734MOL0     H96825  -0.600   9.166   5.486 -1.3840  1.9218 -0.7078
  734MOL0     H96826  -0.687   9.016   5.463 -0.7200  2.2820  2.7909
  734MOL0     H96827  -0.705   9.073   5.214 -0.0022 -0.0748  0.0627
  734MOL0     H96828  -0.605   9.220   5.246  0.5165  0.1067 -0.5461
  734MOL0     H96829  -0.854   9.273   5.228 -0.8171  0.4424  0.3427
  734MOL0     H96830  -0.794   9.307   5.386  0.5111  1.2532 -1.9868
  734MOL0     H96831  -0.903   9.031   5.340  2.4852  0.3461 -0.1779
  734MOL0     H96832  -0.901   9.124   5.491 -1.1088 -1.2269  0.0810
  734MOL0     H96833  -1.081   9.262   5.408  1.2823 -1.0180  1.6928
  734MOL0     H96834  -1.115   9.091   5.417  3.0157 -1.7005  1.6908
  734MOL0     H96835  -1.137   9.071   5.170  2.0728  0.8660 -0.6083
  734MOL0     H96836  -1.040   9.206   5.140 -1.9945 -1.8091 -1.8145
  734MOL0     H96837  -1.302   9.235   5.274 -0.0232 -1.0518  0.0083
  734MOL0     H96838  -1.189   9.360   5.225 -0.4411 -0.4640  0.7195
  734MOL0     H96839  -1.315   9.157   5.032 -0.3118 -2.3578  5.2058
  734MOL0     H96840  -1.226   9.314   4.998  1.3212 -2.0930  0.5587
  734MOL0     H96841  -1.560   9.264   5.239  1.5285 -0.0489  0.2376
  734MOL0     H96842  -1.799   9.541   5.094  0.7687 -0.5100 -0.7763
  734MOL0     H96843  -1.766   9.458   5.251  1.2251  1.8110  0.4492
  734MOL0     H96844  -1.813   9.233   5.158 -3.0544 -0.4058  3.8036
  734MOL0     H96845  -1.878   9.316   5.007  0.2545 -1.0368  0.1412
  734MOL0     H96846  -1.983   9.342   5.294  0.8299 -0.4434 -0.6190
  734MOL0     H96847  -2.060   9.414   5.159 -1.8355 -1.1000 -0.1009
  734MOL0     H96848  -2.002   9.131   5.188 -0.6305  0.1983  0.8359
  734MOL0     H96849  -2.105   9.199   5.055  0.9425  1.7968 -0.9011
  734MOL0     H96850  -2.158   9.199   5.496  1.1522 -0.1123  0.0703
  734MOL0     H96851  -2.190   8.992   5.628 -1.0978  3.1057  0.4552
  734MOL0     H96852  -2.063   8.594   5.794 -1.2716  1.0534 -3.0440
  734MOL0     H96853  -2.110   8.379   5.922 -0.7641 -1.9355  0.0783
  734MOL0     H96854  -2.469   8.188   5.727  3.6978  0.5819  0.2917
  734MOL0     H96855  -2.542   8.239   5.878 -2.4357 -3.0050  1.2122
  734MOL0     H96856  -2.421   7.965   5.828 -0.3465  2.1993 -0.3518
  734MOL0     H96857  -2.593   8.009   5.851 -1.3777  1.5107  0.4262
  734MOL0     H96858  -2.556   8.070   6.080  0.4584  1.1989 -1.8880
  734MOL0     H96859  -2.388   8.050   6.070  0.0415  0.1871 -0.6072
  734MOL0     H96860  -2.429   7.800   6.020 -0.0370  2.8958 -2.0239
  734MOL0     H96861  -2.470   7.855   6.185  2.0622  1.3649  0.8719
  734MOL0     H96862  -2.673   7.816   5.955  0.5688 -0.0949  0.2073
  734MOL0     H96863  -2.695   7.884   6.117  2.9877  1.9618  1.5714
  734MOL0     H96864  -2.622   7.675   6.240  0.6426 -3.5959  0.2160
  734MOL0     H96865  -2.545   7.623   6.092  1.7435  2.1072  1.8158
  734MOL0     H96866  -2.846   7.678   6.145 -0.0280 -0.7693  1.7516
  734MOL0     H96867  -2.789   7.582   6.010 -0.2462  1.1257 -0.6036
  734MOL0     H96868  -2.883   7.439   6.168  0.6092  1.8426 -2.3127
  734MOL0     H96869  -2.785   7.505   6.308  1.7648  0.1236  0.6613
  734MOL0     H96870  -2.513   8.403   5.749  0.1313 -1.1503  0.2872
  734MOL0     H96871  -2.478   8.632   5.683  1.4719  2.5524 -1.1946
  734MOL0     H96872  -2.297   8.792   5.263 -3.7286  0.3493  1.3773
  734MOL0     H96873  -2.262   9.019   5.139 -0.0429  0.5207  0.6410
  734MOL0     H96874  -0.270   9.020   5.249 -2.6195  0.5347  0.4446
  734MOL0     H96875  -0.059   8.948   5.359  2.4676 -1.6148  4.0023
  734MOL0     H96876   0.324   8.851   5.463  0.7933  1.0286 -0.0804
  734MOL0     H96877   0.489   8.672   5.507  2.1165  0.4520  2.1182
  734MOL0     H96878   0.646   8.602   5.686 -0.7986  0.2135 -0.8363
  734MOL0     H96879   0.613   8.497   5.549 -2.4770 -0.5203 -0.3191
  734MOL0     H96880   0.643   8.396   5.836 -1.5543 -3.3242 -0.4879
  734MOL0     H96881   0.644   8.293   5.700  3.0103 -1.9441  0.1759
  734MOL0     H96882   0.831   8.511   5.804 -1.2093  1.1476 -0.3973
  734MOL0     H96883   0.846   8.494   5.635 -1.9994  1.6671 -0.1303
  734MOL0     H96884   1.003   8.343   5.786 -0.1311  1.0930 -1.2208
  734MOL0     H96885   0.865   8.241   5.823 -0.2246 -1.8503 -1.1810
  734MOL0     H96886   0.919   8.155   5.412 -1.7432  1.1677 -1.1874
  734MOL0     H96887   0.248   8.541   5.830  0.6985 -0.2295 -1.4793
  734MOL0     H96888   0.079   8.718   5.787 -0.2835 -1.4570  0.0278
  735MOL0     O96889   4.403   1.496   0.131 -0.5117 -0.8826 -0.5638
  735MOL0     C96890   4.318   1.430   0.193 -0.2147 -0.1014  0.7905
  735MOL0     O96891   4.345   1.323   0.272 -0.6152 -0.7909 -0.1946
  735MOL0     C96892   4.472   1.279   0.278  0.1203  0.5430  0.0950
  735MOL0     C96893   4.579   1.362   0.325  0.2361  0.6652 -0.4577
  735MOL0     C96894   4.704   1.303   0.336  0.5211 -0.1001  0.4945
  735MOL0     C96895   4.722   1.165   0.320 -0.8140 -1.4137  0.7120
  735MOL0     O96896   4.848   1.118   0.351  0.1683  0.0930  0.5841
  735MOL0     C96897   4.866   0.981   0.369 -0.0659  0.9811  0.1717
  735MOL0     C96898   5.013   0.956   0.425  0.3780  0.3119 -0.1972
  735MOL0     C96899   5.061   1.054   0.534  0.0836  0.6678 -0.0127
  735MOL0     C96900   5.165   0.981   0.628  0.0782  0.0307  0.4645
  735MOL0     C96901   5.241   1.073   0.725 -0.3336 -0.0267  0.0366
  735MOL0     C96902   5.140   1.159   0.815 -1.4399 -0.3887 -0.2478
  735MOL0     C96903   5.232   1.224   0.925 -0.3286 -0.7184  0.1650
  735MOL0     C96904   5.155   1.305   1.035 -0.4765  0.1982  0.3913
  735MOL0     N96905   5.075   1.418   0.997  0.1094 -0.8205  0.8232
  735MOL0     C96906   5.123   1.538   0.940  0.6940 -0.2238  0.2770
  735MOL0     C96907   5.011   1.597   0.887 -0.6814  0.1996 -0.0571
  735MOL0     C96908   4.987   1.722   0.795  0.7546 -0.0690 -0.2208
  735MOL0     C96909   4.850   1.790   0.819 -0.1889 -0.8214  0.7393
  735MOL0     C96910   4.830   1.858   0.951  0.4881  0.6416  0.9032
  735MOL0     C96911   4.680   1.881   0.985 -0.1471 -0.3020  0.4159
  735MOL0     O96912   4.617   1.972   0.886 -0.0555  0.3910  0.0753
  735MOL0     C96913   4.488   1.995   0.891  1.2874  0.0033  0.4019
  735MOL0     C96914   4.432   2.051   0.781  0.4862 -0.0247 -0.4462
  735MOL0     C96915   4.295   2.072   0.786 -0.7422 -0.2753 -0.1853
  735MOL0     C96916   4.212   2.039   0.892  0.6868  0.0248  0.0604
  735MOL0     C96917   4.069   2.060   0.905  0.8162 -0.0725 -0.0321
  735MOL0     O96918   4.010   2.053   1.028  0.0131  0.9075  0.0267
  735MOL0     C96919   3.875   2.030   1.029  0.6276 -0.2951 -0.5162
  735MOL0     C96920   3.777   2.120   1.082 -0.9146 -0.2798  0.8229
  735MOL0     C96921   3.641   2.100   1.089 -0.0840  1.2148 -0.2753
  735MOL0     C96922   3.585   1.979   1.037 -0.2832 -0.1026  0.5288
  735MOL0     O96923   3.459   1.938   1.045  0.1588 -0.5223 -0.2759
  735MOL0     C96924   3.364   2.038   0.999 -0.0316 -0.2712 -0.7128
  735MOL0     C96925   3.230   1.962   0.986 -0.5033 -0.2167 -0.9365
  735MOL0     C96926   3.128   2.050   0.923  0.8111 -0.2664 -0.4418
  735MOL0     C96927   3.015   1.964   0.893 -0.5784  0.5214  0.4974
  735MOL0     C96928   2.883   2.040   0.872  0.5760 -0.8458 -0.1374
  735MOL0     C96929   2.775   1.962   0.796 -0.3917  0.1706 -0.0531
  735MOL0     C96930   2.641   2.049   0.780  0.0450  0.3537  0.4041
  735MOL0     C96931   2.512   1.972   0.739  0.7064  0.1591  0.1449
  735MOL0    Cl96932   2.520   1.831   0.626  0.1749 -0.6709 -0.2757
  735MOL0     C96933   3.676   1.882   0.990 -0.3457 -0.2675  0.5567
  735MOL0     C96934   3.813   1.911   0.991  0.4481 -0.5809  0.6463
  735MOL0     O96935   4.011   2.093   0.808 -0.1621  0.2825  0.0680
  735MOL0     C96936   4.279   1.978   0.997  0.4970  0.1544 -0.7117
  735MOL0     C96937   4.412   1.955   0.997  0.2846 -0.1114 -0.7238
  735MOL0     N96938   4.907   1.517   0.912 -0.1327  0.0669  0.2027
  735MOL0     N96939   4.944   1.401   0.973 -0.7073 -0.4345  0.1431
  735MOL0     C96940   4.611   1.080   0.285 -0.5456 -0.1541  0.1991
  735MOL0     C96941   4.487   1.139   0.265  0.1126  0.3112 -0.3492
  735MOL0     C96942   4.183   1.483   0.188  0.5353  0.6040 -1.1432
  735MOL0     C96943   4.152   1.622   0.181  0.0274  0.5107 -0.2096
  735MOL0     C96944   4.020   1.667   0.206  1.1294 -0.1097 -0.4748
  735MOL0     C96945   3.910   1.571   0.210 -0.3656  0.4164  0.2498
  735MOL0     O96946   3.780   1.603   0.219  0.4060  0.6375  0.2380
  735MOL0     C96947   3.737   1.744   0.238  0.1728 -0.7892 -0.6188
  735MOL0     C96948   3.706   1.798   0.103 -0.6908 -0.7364  0.1543
  735MOL0     C96949   3.604   1.910   0.103 -0.9886 -0.2849 -0.1465
  735MOL0     C96950   3.469   1.843   0.088  0.3971  0.5353 -0.3604
  735MOL0     C96951   3.363   1.945   0.090 -0.7623  0.1729 -0.3948
  735MOL0     C96952   3.286   2.039   0.085  0.6487  0.5946 -1.2866
  735MOL0     C96953   3.945   1.432   0.202  0.0882 -0.7647  0.3158
  735MOL0     C96954   4.079   1.389   0.197 -0.4918 -0.4614 -0.3925
  735MOL0     H96955   4.563   1.467   0.345  1.0518  0.3901  1.9340
  735MOL0     H96956   4.784   1.377   0.340  0.8773 -0.4990  0.9447
  735MOL0     H96957   4.859   0.926   0.275  0.9545  2.2168 -0.6687
  735MOL0     H96958   4.788   0.929   0.425  1.3179 -0.6547  0.6858
  735MOL0     H96959   5.086   0.972   0.345  0.3517 -0.0855 -0.3029
  735MOL0     H96960   5.016   0.851   0.456 -3.3981  0.3872  0.9942
  735MOL0     H96961   4.976   1.076   0.599 -0.5706 -1.8206  0.0934
  735MOL0     H96962   5.094   1.151   0.495  0.2353  0.4420 -0.4656
  735MOL0     H96963   5.122   0.906   0.695  1.2304 -2.5145 -1.4699
  735MOL0     H96964   5.236   0.934   0.560 -3.9653  0.4460 -4.6800
  735MOL0     H96965   5.301   1.143   0.665 -3.7985  2.3268 -1.0123
  735MOL0     H96966   5.313   1.010   0.778 -1.5821 -1.6518 -0.1601
  735MOL0     H96967   5.064   1.096   0.863  0.3186 -0.3079  2.8737
  735MOL0     H96968   5.098   1.240   0.755  1.9824  0.8159 -1.2754
  735MOL0     H96969   5.290   1.155   0.987  1.2284  1.6864  1.5668
  735MOL0     H96970   5.295   1.297   0.874  1.0161 -0.5657  1.9348
  735MOL0     H96971   5.223   1.337   1.114  0.6119  0.3935 -0.6075
  735MOL0     H96972   5.082   1.239   1.083 -1.0605  0.8564  0.4261
  735MOL0     H96973   5.224   1.574   0.933  0.1576  1.3463  0.3326
  735MOL0     H96974   4.985   1.696   0.688  0.1939  2.3554 -0.8741
  735MOL0     H96975   5.064   1.794   0.822 -0.6835  0.6831  2.1103
  735MOL0     H96976   4.764   1.730   0.789  1.1935 -1.3140 -2.6648
  735MOL0     H96977   4.846   1.875   0.750 -1.1996 -0.7940  0.8271
  735MOL0     H96978   4.891   1.802   1.023 -0.6475 -2.6230 -0.4778
  735MOL0     H96979   4.874   1.958   0.948 -0.6108  1.1516 -2.3672
  735MOL0     H96980   4.669   1.916   1.088  0.0275  2.0871 -0.3227
  735MOL0     H96981   4.634   1.784   0.963 -0.2269  0.1475 -1.5491
  735MOL0     H96982   4.502   2.078   0.703  1.4746  1.2478  0.8228
  735MOL0     H96983   4.243   2.129   0.710  0.2505  1.3045  0.2842
  735MOL0     H96984   3.828   2.207   1.122  1.7148 -0.9313 -0.8162
  735MOL0     H96985   3.567   2.156   1.145 -0.3341 -0.1481  0.8132
  735MOL0     H96986   3.389   2.085   0.903  1.9652  0.8984  0.3088
  735MOL0     H96987   3.352   2.121   1.069  0.9990 -1.4899  0.9751
  735MOL0     H96988   3.188   1.916   1.076 -0.8255 -1.8534 -1.8919
  735MOL0     H96989   3.255   1.877   0.923 -1.0450 -0.0280 -1.4159
  735MOL0     H96990   3.166   2.100   0.834 -0.9247  0.2586 -0.9232
  735MOL0     H96991   3.095   2.127   0.993  1.2073  2.8825 -3.4531
  735MOL0     H96992   3.049   1.912   0.803  0.6678 -0.9156  1.7429
  735MOL0     H96993   3.003   1.889   0.972  1.1389 -1.1231 -0.7245
  735MOL0     H96994   2.904   2.130   0.813 -0.9873 -0.4084 -0.0558
  735MOL0     H96995   2.864   2.071   0.976  3.1551  0.1310  0.1329
  735MOL0     H96996   2.755   1.875   0.859  0.1798  2.9545  4.4552
  735MOL0     H96997   2.802   1.936   0.694  0.9635  1.6397 -0.1224
  735MOL0     H96998   2.618   2.098   0.875 -0.0663  2.6861 -0.7409
  735MOL0     H96999   2.666   2.132   0.713  3.3473  0.7505  1.9697
  735MOL0     H97000   2.436   2.039   0.700 -0.0284 -1.1469 -0.7637
  735MOL0     H97001   2.462   1.939   0.831 -0.1076 -1.2863 -0.7793
  735MOL0     H97002   3.650   1.781   0.961  3.7974 -0.5732 -3.3118
  735MOL0     H97003   3.877   1.832   0.952  1.3066  0.3319  0.1793
  735MOL0     H97004   4.219   1.962   1.086 -1.4586  3.0559 -1.3593
  735MOL0     H97005   4.446   1.920   1.094 -0.9834 -2.3926 -1.0473
  735MOL0     H97006   4.611   0.971   0.279 -2.2596 -0.4122  2.8623
  735MOL0     H97007   4.397   1.090   0.231  0.1593  0.6104 -0.9151
  735MOL0     H97008   4.239   1.684   0.164  1.0404 -0.0553  2.3604
  735MOL0     H97009   3.992   1.772   0.206 -1.1768 -0.6560  0.5992
  735MOL0     H97010   3.814   1.800   0.292 -1.2926 -0.5524  1.3456
  735MOL0     H97011   3.653   1.738   0.307  1.3483 -0.7312  0.8557
  735MOL0     H97012   3.804   1.820   0.059 -0.9828  0.9342  0.2710
  735MOL0     H97013   3.659   1.718   0.046 -2.6738 -0.9893  2.0007
  735MOL0     H97014   3.623   1.970   0.013 -0.1837 -0.6035 -0.1967
  735MOL0     H97015   3.621   1.965   0.195  2.7687 -0.7926 -0.3637
  735MOL0     H97016   3.465   1.792  -0.009 -0.7903 -1.1314  0.5068
  735MOL0     H97017   3.445   1.772   0.168 -1.2072  0.6130 -0.7356
  735MOL0     H97018   3.219   2.122   0.083 -1.9065 -1.2486  0.6433
  735MOL0     H97019   3.867   1.357   0.205  0.5586 -1.3876 -1.7453
  735MOL0     H97020   4.085   1.282   0.181 -2.2921 -0.7821  0.8055
  736MOL0     O97021   3.127   9.558   6.424 -0.3654 -0.5080  0.0816
  736MOL0     C97022   3.142   9.663   6.368 -0.2520  0.1133  0.7870
  736MOL0     O97023   3.042   9.753   6.355 -0.8090  0.4705 -0.3415
  736MOL0     C97024   2.914   9.715   6.368 -0.2738 -0.2565  0.1917
  736MOL0     C97025   2.864   9.598   6.314 -0.5431  0.2063 -0.4841
  736MOL0     C97026   2.725   9.577   6.310 -1.0731  0.0536 -0.7008
  736MOL0     C97027   2.644   9.660   6.390  0.1788  0.4791  0.8929
  736MOL0     O97028   2.512   9.615   6.410  0.2837  0.0694  0.9329
  736MOL0     C97029   2.432   9.704   6.485  0.7459  0.1788  0.0862
  736MOL0     C97030   2.289   9.651   6.493 -0.6478  0.2227  0.1606
  736MOL0     C97031   2.198   9.726   6.597  0.1470  0.2995  0.9855
  736MOL0     C97032   2.055   9.678   6.602 -0.7826  0.3680  0.3272
  736MOL0     C97033   1.954   9.776   6.667  0.1105  0.0036 -0.4657
  736MOL0     C97034   1.814   9.728   6.645 -0.1660 -0.6672  0.6038
  736MOL0     C97035   1.718   9.822   6.714 -0.1819  0.6828  0.2679
  736MOL0     C97036   1.576   9.816   6.659 -0.3554  0.0623 -0.1998
  736MOL0     N97037   1.505   9.696   6.691  0.9919  1.0082 -0.3157
  736MOL0     C97038   1.484   9.659   6.820  0.5403  0.3381  0.3690
  736MOL0     C97039   1.406   9.554   6.821  0.0420  0.2870  0.1080
  736MOL0     C97040   1.386   9.476   6.945  0.6200 -0.2902 -0.2467
  736MOL0     C97041   1.244   9.405   6.942  0.4301  0.3332 -0.1964
  736MOL0     C97042   1.202   9.336   7.086 -0.4972  0.6062  0.3557
  736MOL0     C97043   1.068   9.273   7.082  0.4135 -0.5277  0.1503
  736MOL0     O97044   1.061   9.210   7.213  0.7925  0.4680 -0.2517
  736MOL0     C97045   0.930   9.150   7.252 -1.2568  0.2263  0.3570
  736MOL0     C97046   0.823   9.145   7.165  0.4036  0.1414 -0.2325
  736MOL0     C97047   0.698   9.095   7.203  0.3941 -0.1658 -0.1481
  736MOL0     C97048   0.677   9.047   7.337 -0.4466  1.0492  0.5286
  736MOL0     C97049   0.553   8.970   7.363  0.5992 -0.0902  1.2008
  736MOL0     O97050   0.472   8.944   7.252 -0.2435 -0.9848  0.5814
  736MOL0     C97051   0.359   8.872   7.276 -0.2804 -0.5625  0.2017
  736MOL0     C97052   0.359   8.741   7.324 -0.0547 -0.2882 -0.4300
  736MOL0     C97053   0.246   8.665   7.333  0.9082  0.4061  1.2766
  736MOL0     C97054   0.118   8.726   7.312  0.1019  0.2942  0.2784
  736MOL0     O97055   0.014   8.638   7.314  0.2841 -0.2664 -0.6364
  736MOL0     C97056  -0.109   8.679   7.248  0.1530  0.7742  0.6168
  736MOL0     C97057  -0.210   8.577   7.294  0.1554  0.7023 -0.4889
  736MOL0     C97058  -0.362   8.591   7.235 -0.4822 -0.0789  0.4322
  736MOL0     C97059  -0.379   8.555   7.086 -0.6044 -0.1546 -0.9666
  736MOL0     C97060  -0.530   8.566   7.047 -0.1439 -0.3022  0.2396
  736MOL0     C97061  -0.546   8.553   6.893 -0.0921 -0.1871 -0.0246
  736MOL0     C97062  -0.683   8.509   6.868  0.0288  0.9067  0.7478
  736MOL0     C97063  -0.796   8.609   6.897  0.0399  0.2878  0.3937
  736MOL0    Cl97064  -0.960   8.522   6.872 -0.2479 -0.1748 -0.3796
  736MOL0     C97065   0.114   8.854   7.276 -0.4807 -0.1069 -0.1809
  736MOL0     C97066   0.232   8.921   7.257  0.0451 -0.3915  0.2818
  736MOL0     O97067   0.527   8.943   7.474 -0.4803  0.0698 -0.9768
  736MOL0     C97068   0.785   9.054   7.429  0.3617 -0.5893  0.8457
  736MOL0     C97069   0.913   9.104   7.380 -0.7883  0.9563 -0.1471
  736MOL0     N97070   1.392   9.517   6.694 -0.1551 -0.1203 -0.6435
  736MOL0     N97071   1.446   9.607   6.616 -0.0739 -0.2995 -0.7110
  736MOL0     C97072   2.710   9.769   6.455  0.5956  0.4467 -0.3163
  736MOL0     C97073   2.839   9.801   6.442  0.8255  0.8318 -0.7594
  736MOL0     C97074   3.280   9.694   6.325 -0.3352 -0.5900  0.9904
  736MOL0     C97075   3.386   9.598   6.343 -0.5621 -0.5035  0.3493
  736MOL0     C97076   3.513   9.644   6.302 -0.3682  0.7964 -0.0704
  736MOL0     C97077   3.539   9.774   6.268 -0.0195  0.3910 -0.5338
  736MOL0     O97078   3.666   9.799   6.236 -0.2459 -0.1871 -0.3645
  736MOL0     C97079   3.708   9.932   6.257  0.2707 -0.9049 -0.8205
  736MOL0     C97080   3.848   9.926   6.216 -0.3066 -0.5567  0.3497
  736MOL0     C97081   3.937   9.904   6.328  0.3030  0.9272 -0.0210
  736MOL0     C97082   4.074   9.844   6.289 -0.0531 -0.4013  0.2363
  736MOL0     C97083   4.165   9.937   6.220 -0.2136 -0.1826  0.0606
  736MOL0     C97084   4.230  10.018   6.159 -0.3536  0.3244  0.7031
  736MOL0     C97085   3.442   9.871   6.260  0.3360  0.5630 -0.3386
  736MOL0     C97086   3.312   9.825   6.278 -0.2114  0.6901  0.3041
  736MOL0     H97087   2.937   9.523   6.283 -0.6255 -0.4192  0.7525
  736MOL0     H97088   2.681   9.491   6.260 -1.4458  0.7042 -1.4991
  736MOL0     H97089   2.435   9.806   6.445 -4.2291  1.7351  2.8413
  736MOL0     H97090   2.458   9.720   6.590  0.0282  1.1879  0.1262
  736MOL0     H97091   2.285   9.542   6.509  0.7129  0.0934 -0.2410
  736MOL0     H97092   2.244   9.667   6.395  0.2415 -0.1531 -0.3135
  736MOL0     H97093   2.204   9.831   6.568  0.5101  0.4575  1.6260
  736MOL0     H97094   2.253   9.718   6.691  0.9791 -0.1610  0.4720
  736MOL0     H97095   2.029   9.655   6.498 -0.8267  1.7585  0.0126
  736MOL0     H97096   2.048   9.578   6.646  1.0016 -0.7522 -1.7403
  736MOL0     H97097   1.976   9.875   6.626  1.2282 -0.2158 -0.4246
  736MOL0     H97098   1.967   9.782   6.775 -1.4863 -1.7557 -0.1316
  736MOL0     H97099   1.795   9.628   6.684  0.4906 -0.7293  0.7788
  736MOL0     H97100   1.795   9.725   6.537 -0.1036 -2.1453  0.6228
  736MOL0     H97101   1.726   9.783   6.817 -0.4990 -1.6552 -0.5335
  736MOL0     H97102   1.759   9.923   6.715 -1.7682  1.3570 -0.1307
  736MOL0     H97103   1.564   9.840   6.553 -1.1311  0.5131 -0.0174
  736MOL0     H97104   1.528   9.896   6.717 -2.4147 -1.7429  0.7360
  736MOL0     H97105   1.533   9.715   6.899  2.3232  0.8828 -1.0604
  736MOL0     H97106   1.394   9.548   7.027 -1.0712 -0.8606  0.4537
  736MOL0     H97107   1.465   9.400   6.947  1.0137  0.0864 -1.0695
  736MOL0     H97108   1.240   9.322   6.871  0.8655  1.1637 -1.2210
  736MOL0     H97109   1.169   9.478   6.910  0.3709 -0.6645 -2.5792
  736MOL0     H97110   1.276   9.258   7.108 -1.8202 -1.0285 -0.7416
  736MOL0     H97111   1.210   9.419   7.157  2.0870  0.4282  0.3655
  736MOL0     H97112   1.058   9.210   6.993 -0.2069 -1.4029  0.8205
  736MOL0     H97113   0.992   9.352   7.078 -0.6939 -1.4757  1.4082
  736MOL0     H97114   0.821   9.202   7.073 -1.2403  0.5260  0.0053
  736MOL0     H97115   0.610   9.100   7.140 -2.1748 -1.1912  3.0855
  736MOL0     H97116   0.456   8.699   7.347 -0.7079 -2.3977 -1.3052
  736MOL0     H97117   0.243   8.561   7.361 -2.2764 -0.2256 -0.8194
  736MOL0     H97118  -0.094   8.659   7.141 -3.4951  0.4949  0.0268
  736MOL0     H97119  -0.148   8.778   7.274 -1.7224  0.4382 -0.7143
  736MOL0     H97120  -0.227   8.587   7.402 -2.8351 -2.3597 -0.5009
  736MOL0     H97121  -0.175   8.478   7.263 -2.5127 -0.2103 -0.9068
  736MOL0     H97122  -0.398   8.694   7.239  1.5149  0.6574  0.3759
  736MOL0     H97123  -0.430   8.527   7.293  1.3696 -2.6030 -0.0151
  736MOL0     H97124  -0.315   8.619   7.024  0.7033  0.7751  1.2194
  736MOL0     H97125  -0.334   8.457   7.068  1.1598  0.4936 -0.3221
  736MOL0     H97126  -0.565   8.667   7.073  2.3422  0.5618  0.5151
  736MOL0     H97127  -0.585   8.486   7.097  2.2629 -4.5758 -3.2198
  736MOL0     H97128  -0.477   8.476   6.855 -0.2422 -2.7292  4.2605
  736MOL0     H97129  -0.505   8.642   6.843  2.9639 -0.8436  1.1056
  736MOL0     H97130  -0.690   8.475   6.764  3.1277 -1.3967  1.1330
  736MOL0     H97131  -0.699   8.419   6.929  0.7051  1.4229  1.6985
  736MOL0     H97132  -0.769   8.705   6.852 -0.4160  1.1895  1.9658
  736MOL0     H97133  -0.788   8.635   7.003  0.1182 -2.3628  1.1026
  736MOL0     H97134   0.020   8.904   7.260 -0.7126  0.1142  1.6512
  736MOL0     H97135   0.228   9.022   7.217 -3.4981 -0.7053 -0.4374
  736MOL0     H97136   0.771   9.013   7.528 -0.5517  1.1531  1.4907
  736MOL0     H97137   0.996   9.097   7.450 -0.5309 -1.3606 -0.5932
  736MOL0     H97138   2.660   9.824   6.534  2.0057 -0.9727  1.6404
  736MOL0     H97139   2.885   9.888   6.488  2.9751 -1.7677  2.4323
  736MOL0     H97140   3.378   9.498   6.382 -1.0427 -1.6516 -2.4462
  736MOL0     H97141   3.591   9.568   6.302 -0.8865  0.2606 -0.2132
  736MOL0     H97142   3.693   9.959   6.362 -1.5784  0.2609 -1.3191
  736MOL0     H97143   3.663  10.000   6.183  3.0344  1.3984 -0.5377
  736MOL0     H97144   3.875   9.854   6.138  0.5801 -0.7245  0.7903
  736MOL0     H97145   3.874  10.025   6.178 -1.7295 -0.2036  0.2556
  736MOL0     H97146   3.892   9.832   6.397  1.1405 -0.4427 -0.8699
  736MOL0     H97147   3.966   9.999   6.376 -0.3040  1.3912 -0.5571
  736MOL0     H97148   4.125   9.824   6.383  1.3992 -1.4157 -0.7329
  736MOL0     H97149   4.067   9.746   6.241  0.1196 -0.0433 -0.5441
  736MOL0     H97150   4.292  10.081   6.098  4.7361 -2.6561  2.2307
  736MOL0     H97151   3.450   9.976   6.231  0.0432  1.2072  1.7725
  736MOL0     H97152   3.239   9.905   6.270  0.3253  1.8935  4.9987
  737MOL0     O97153   9.900   1.765   8.591  0.0631  1.0247 -0.5272
  737MOL0     C97154   9.876   1.740   8.712 -0.1340 -0.2342 -0.2397
  737MOL0     O97155   9.966   1.687   8.798  0.6067  0.3300  0.4243
  737MOL0     C97156  10.098   1.683   8.768 -0.3527 -0.4362 -0.1157
  737MOL0     C97157  10.181   1.577   8.818  0.0864 -0.2703  0.8370
  737MOL0     C97158  10.322   1.587   8.792 -0.1619  0.0480  0.5236
  737MOL0     C97159  10.385   1.695   8.723 -0.3882  0.5270 -0.6771
  737MOL0     O97160  10.517   1.702   8.694 -0.2848 -0.5073 -0.0133
  737MOL0     C97161  10.561   1.595   8.602  0.5592  0.6447 -0.3875
  737MOL0     C97162  10.708   1.567   8.611 -0.3689 -0.3220 -0.1414
  737MOL0     C97163  10.810   1.682   8.633 -0.1226  0.3803  0.3689
  737MOL0     C97164  10.948   1.616   8.630  0.6159 -0.0236 -0.0863
  737MOL0     C97165  11.066   1.722   8.648 -0.7849  1.0462  0.9766
  737MOL0     C97166  11.202   1.653   8.638  0.6548  0.4864  0.6077
  737MOL0     C97167  11.327   1.750   8.647  0.5426  0.4902 -0.7733
  737MOL0     C97168  11.382   1.770   8.515  0.4608 -1.5937 -0.5978
  737MOL0     N97169  11.486   1.879   8.507 -0.0901  0.3003 -0.0355
  737MOL0     C97170  11.615   1.865   8.555  0.2864  0.2704 -0.5038
  737MOL0     C97171  11.672   1.985   8.521 -0.0044 -1.5428 -0.3182
  737MOL0     C97172  11.822   2.016   8.524 -0.6274  0.3302 -0.0397
  737MOL0     C97173  11.888   1.979   8.392  0.2506  0.1990  0.3102
  737MOL0     C97174  11.854   2.077   8.282  0.0891 -0.7594  0.3960
  737MOL0     C97175  11.890   2.032   8.142 -0.0891 -0.6204  0.3026
  737MOL0     O97176  11.817   2.105   8.037 -0.3027  0.0736  0.1095
  737MOL0     C97177  11.690   2.057   8.006 -0.0456  0.1748  0.3969
  737MOL0     C97178  11.582   2.140   8.011  0.4092 -0.1122 -0.5240
  737MOL0     C97179  11.459   2.084   7.980  0.1555 -0.0025 -0.1100
  737MOL0     C97180  11.437   1.946   7.949 -0.6113 -0.2247 -0.5336
  737MOL0     C97181  11.303   1.891   7.921  0.6521  0.1893 -0.3773
  737MOL0     O97182  11.192   1.960   7.954  0.4305 -0.6994 -0.6033
  737MOL0     C97183  11.063   1.938   7.898 -0.1646  0.0163  0.0567
  737MOL0     C97184  10.999   2.043   7.828 -0.0637  0.4575  0.2311
  737MOL0     C97185  10.887   2.022   7.754 -0.2453 -0.0723  0.7543
  737MOL0     C97186  10.823   1.890   7.748 -0.3227 -0.7348  0.1375
  737MOL0     O97187  10.711   1.862   7.683  0.4746 -0.0281 -0.3008
  737MOL0     C97188  10.597   1.920   7.752  0.2030  0.0196 -0.2063
  737MOL0     C97189  10.571   1.868   7.890  0.3130  0.2447 -0.1773
  737MOL0     C97190  10.513   1.727   7.887 -0.9164 -0.1154 -0.5760
  737MOL0     C97191  10.369   1.708   7.872 -0.2938 -0.7342  0.3832
  737MOL0     C97192  10.317   1.562   7.879  0.1590 -1.3843 -0.6224
  737MOL0     C97193  10.176   1.543   7.826 -0.1788 -0.3732  0.5823
  737MOL0     C97194  10.076   1.648   7.880  0.7450  0.1518 -0.8212
  737MOL0     C97195   9.938   1.612   7.830 -1.2355 -1.1061  0.2300
  737MOL0    Cl97196   9.897   1.444   7.855  0.0409 -0.4934  0.0443
  737MOL0     C97197  10.881   1.797   7.837  0.9248 -0.8557 -0.0322
  737MOL0     C97198  10.991   1.812   7.908 -0.4117 -0.7213 -0.2219
  737MOL0     O97199  11.299   1.777   7.874 -0.2809  0.3244  0.2390
  737MOL0     C97200  11.548   1.865   7.948 -0.3595 -1.5078  0.3464
  737MOL0     C97201  11.675   1.917   7.964 -0.8336  0.3310  1.0847
  737MOL0     N97202  11.575   2.071   8.474  0.0766 -0.5132  0.2282
  737MOL0     N97203  11.464   2.000   8.456 -0.2813  0.9503 -0.3498
  737MOL0     C97204  10.302   1.801   8.686  0.6102 -0.3385  0.1633
  737MOL0     C97205  10.165   1.790   8.701  0.9209 -0.7737 -0.1178
  737MOL0     C97206   9.738   1.777   8.760 -0.3171  0.1979  0.0958
  737MOL0     C97207   9.709   1.802   8.897  0.1880  0.1721  0.5125
  737MOL0     C97208   9.577   1.813   8.936 -0.0844 -0.5088 -0.0192
  737MOL0     C97209   9.479   1.821   8.835  0.3588  0.3795 -0.5600
  737MOL0     O97210   9.350   1.855   8.873 -0.5386  0.0026 -0.0422
  737MOL0     C97211   9.261   1.763   8.907 -0.5138  0.2952 -0.4639
  737MOL0     C97212   9.126   1.818   8.866  0.4127  0.0392 -0.4032
  737MOL0     C97213   9.090   1.794   8.713  0.6988 -0.6274 -0.1222
  737MOL0     C97214   8.948   1.852   8.699  0.0365 -0.3812 -0.8763
  737MOL0     C97215   8.864   1.794   8.600  0.0910  0.9546 -0.5491
  737MOL0     C97216   8.812   1.714   8.529 -0.0661  0.7487 -0.0065
  737MOL0     C97217   9.511   1.800   8.701 -0.4879  1.8963 -0.2917
  737MOL0     C97218   9.640   1.767   8.665  0.6408 -0.8057  1.1636
  737MOL0     H97219  10.142   1.493   8.874  0.1065 -1.0408 -0.2693
  737MOL0     H97220  10.386   1.513   8.840 -0.7871 -0.5401  0.4752
  737MOL0     H97221  10.539   1.636   8.503  0.4113  3.0458  0.5964
  737MOL0     H97222  10.505   1.501   8.610  0.1669  0.6101 -2.6970
  737MOL0     H97223  10.733   1.504   8.526  0.9978  3.1089 -2.5038
  737MOL0     H97224  10.708   1.503   8.701 -0.4632 -0.9153 -0.5578
  737MOL0     H97225  10.796   1.734   8.728 -1.0370  0.8257 -0.0032
  737MOL0     H97226  10.812   1.758   8.554  0.8321  0.4601  0.4510
  737MOL0     H97227  10.949   1.543   8.711 -1.7865  0.5385  0.5292
  737MOL0     H97228  10.965   1.566   8.534 -0.5852 -1.3378  0.3543
  737MOL0     H97229  11.055   1.777   8.742  0.9440  1.3367  1.0238
  737MOL0     H97230  11.066   1.794   8.566  0.9981 -2.6701 -2.6675
  737MOL0     H97231  11.208   1.612   8.537  0.9389  4.5116 -1.2194
  737MOL0     H97232  11.221   1.583   8.719  1.7230 -0.9418 -0.8024
  737MOL0     H97233  11.301   1.848   8.689 -0.0733 -0.0248  0.0915
  737MOL0     H97234  11.398   1.716   8.723 -0.0372 -0.7924 -0.7857
  737MOL0     H97235  11.300   1.804   8.452  1.7935  5.4788  0.6521
  737MOL0     H97236  11.410   1.672   8.474  0.4189 -1.9659  0.2439
  737MOL0     H97237  11.654   1.770   8.591  0.4093  0.1702 -0.9018
  737MOL0     H97238  11.870   1.954   8.601  0.8445  3.1210  1.4476
  737MOL0     H97239  11.851   2.117   8.556  0.8277 -0.4869  1.4362
  737MOL0     H97240  11.843   1.884   8.361 -0.7163  0.9578 -0.6990
  737MOL0     H97241  11.996   1.974   8.409  0.5951  1.5223 -1.2195
  737MOL0     H97242  11.748   2.106   8.276  0.7458  1.4728 -2.7256
  737MOL0     H97243  11.907   2.170   8.303  4.4702 -3.2910  1.7808
  737MOL0     H97244  11.864   1.926   8.134 -2.2439 -0.0628 -0.8123
  737MOL0     H97245  11.997   2.043   8.120 -0.4441 -1.5967 -2.3091
  737MOL0     H97246  11.600   2.246   8.027 -4.3263  1.1050 -1.8191
  737MOL0     H97247  11.367   2.142   7.987  1.1520  1.8370 -1.4577
  737MOL0     H97248  11.044   2.140   7.813  1.0159  0.0248  0.5809
  737MOL0     H97249  10.860   2.092   7.676  0.0241 -0.5985  0.1879
  737MOL0     H97250  10.510   1.889   7.694 -0.9485  4.0469 -0.9608
  737MOL0     H97251  10.610   2.028   7.746 -0.8467  0.1998  0.5087
  737MOL0     H97252  10.502   1.941   7.932  0.1681  1.0643 -1.7908
  737MOL0     H97253  10.662   1.877   7.950  0.8530 -1.9100 -0.5872
  737MOL0     H97254  10.543   1.679   7.981  1.1123  1.1472 -0.5331
  737MOL0     H97255  10.572   1.674   7.812  3.7781  0.0580  2.5812
  737MOL0     H97256  10.320   1.768   7.950  2.3026  0.0921  1.5153
  737MOL0     H97257  10.342   1.754   7.776 -1.3645  2.8386  2.2035
  737MOL0     H97258  10.313   1.523   7.981 -2.4880  0.4336  0.0425
  737MOL0     H97259  10.382   1.495   7.822 -1.2710 -3.1260 -0.3071
  737MOL0     H97260  10.139   1.441   7.840 -1.3562  0.1550  1.4385
  737MOL0     H97261  10.178   1.560   7.718  1.1810 -1.0791  0.4803
  737MOL0     H97262  10.074   1.640   7.989  2.3538 -2.4373 -0.9000
  737MOL0     H97263  10.106   1.751   7.859 -0.7872  0.5624 -1.1415
  737MOL0     H97264   9.912   1.657   7.734  0.0839  0.7536  0.6866
  737MOL0     H97265   9.874   1.670   7.896 -0.0453  1.2164 -0.5337
  737MOL0     H97266  10.831   1.700   7.843 -2.7118  0.8802  0.2688
  737MOL0     H97267  11.034   1.724   7.957 -0.4019 -2.2417 -2.7862
  737MOL0     H97268  11.546   1.760   7.921 -0.1837 -1.1762 -0.9917
  737MOL0     H97269  11.754   1.845   7.944 -0.3211  0.7736  1.4980
  737MOL0     H97270  10.340   1.901   8.668 -1.3435  0.8286  2.0761
  737MOL0     H97271  10.099   1.874   8.678  1.2066 -0.3183  0.6924
  737MOL0     H97272   9.781   1.801   8.978 -2.4043  0.7921  2.9741
  737MOL0     H97273   9.553   1.807   9.042  1.1833 -0.1701  0.3001
  737MOL0     H97274   9.267   1.733   9.012  0.4870 -0.8987 -0.8382
  737MOL0     H97275   9.294   1.674   8.853  1.7404  0.4745  0.5114
  737MOL0     H97276   9.044   1.774   8.924  1.5698 -2.0561 -0.2460
  737MOL0     H97277   9.130   1.926   8.878  3.4546  0.2469 -2.2664
  737MOL0     H97278   9.094   1.689   8.681 -1.0331 -0.0922 -2.3735
  737MOL0     H97279   9.152   1.852   8.644  1.6867  0.1840  1.4107
  737MOL0     H97280   8.888   1.838   8.790  1.6596 -0.7214  0.1913
  737MOL0     H97281   8.950   1.960   8.680 -0.1591 -0.4443 -1.2648
  737MOL0     H97282   8.769   1.636   8.470  0.2541  0.0151  0.7202
  737MOL0     H97283   9.426   1.811   8.635 -0.4739  2.8913 -0.1501
  737MOL0     H97284   9.650   1.745   8.559  1.1522 -2.9990  1.6064
  738MOL0     O97285   6.010   9.051   0.246 -0.8983  0.8854 -0.4855
  738MOL0     C97286   5.897   9.073   0.230 -0.6960 -1.4528  0.2223
  738MOL0     O97287   5.795   9.044   0.331 -0.8123  0.2190  0.0622
  738MOL0     C97288   5.801   8.975   0.453 -0.4241  0.0878  0.9934
  738MOL0     C97289   5.675   8.950   0.521  0.5477  0.1774  0.0527
  738MOL0     C97290   5.670   8.873   0.639 -0.4839  0.3205 -0.5621
  738MOL0     C97291   5.791   8.814   0.699  0.1973 -0.2620  0.0879
  738MOL0     O97292   5.784   8.746   0.820 -0.4755  0.5013  0.0674
  738MOL0     C97293   5.838   8.611   0.813 -0.6570  0.6541 -0.0009
  738MOL0     C97294   5.743   8.508   0.884  0.0113  0.3318 -1.0594
  738MOL0     C97295   5.617   8.496   0.797 -0.0709 -0.1862 -0.5457
  738MOL0     C97296   5.518   8.389   0.854  0.7938  0.6769  0.1423
  738MOL0     C97297   5.390   8.352   0.768  0.0444 -0.0033 -0.1501
  738MOL0     C97298   5.355   8.205   0.777 -0.3330 -0.6201 -0.1715
  738MOL0     C97299   5.220   8.169   0.712 -0.7891  0.0777 -0.2345
  738MOL0     C97300   5.187   8.017   0.709  0.2814  0.7393  0.9030
  738MOL0     N97301   5.039   8.012   0.722  0.4766  1.0834 -0.0220
  738MOL0     C97302   4.968   8.007   0.838  0.4472  0.0467 -1.3433
  738MOL0     C97303   4.838   8.026   0.806  0.4458  0.9549 -0.5828
  738MOL0     C97304   4.721   8.056   0.900 -0.1243 -0.8280  0.6733
  738MOL0     C97305   4.635   7.946   0.936  0.2907 -1.4252  0.1558
  738MOL0     C97306   4.532   7.994   1.033  0.3693  0.7726 -0.8175
  738MOL0     C97307   4.423   7.893   1.056 -0.2331 -0.8091 -0.4716
  738MOL0     O97308   4.361   7.892   0.927 -0.3937 -0.2316 -0.8128
  738MOL0     C97309   4.236   7.833   0.914  0.1715  0.2877  0.3852
  738MOL0     C97310   4.200   7.834   0.780  0.3301 -0.3774  0.7409
  738MOL0     C97311   4.072   7.774   0.742 -0.6952  0.4973  0.9956
  738MOL0     C97312   3.985   7.727   0.851 -0.5345  0.9755 -0.1771
  738MOL0     C97313   3.850   7.681   0.832 -0.8998  0.6629  0.3224
  738MOL0     O97314   3.791   7.619   0.934 -0.2537  0.5411  0.8321
  738MOL0     C97315   3.678   7.542   0.902  0.1484  0.2564  0.3770
  738MOL0     C97316   3.548   7.553   0.960  0.7799 -1.1219  0.0537
  738MOL0     C97317   3.447   7.473   0.932  0.2488  1.0547 -0.2006
  738MOL0     C97318   3.471   7.358   0.858 -0.4954  0.4584  0.4574
  738MOL0     O97319   3.379   7.259   0.854  0.4650 -0.4525  0.7014
  738MOL0     C97320   3.324   7.252   0.720 -0.0075  0.2191 -0.4312
  738MOL0     C97321   3.172   7.212   0.719 -0.3727 -0.3218 -0.0594
  738MOL0     C97322   3.091   7.248   0.594 -0.5195  0.0368  0.9981
  738MOL0     C97323   2.946   7.207   0.594  0.0771  0.5367 -0.9838
  738MOL0     C97324   2.887   7.300   0.479  0.2517  0.4546 -0.2862
  738MOL0     C97325   2.740   7.274   0.465  0.6999 -0.0738 -0.3329
  738MOL0     C97326   2.677   7.347   0.346 -0.6699  0.2052  0.1194
  738MOL0     C97327   2.527   7.315   0.349 -0.1184 -0.7524  0.2795
  738MOL0    Cl97328   2.436   7.437   0.440 -0.1261 -0.1521 -0.2368
  738MOL0     C97329   3.588   7.349   0.794 -0.6650  0.5943  0.4645
  738MOL0     C97330   3.690   7.434   0.816 -0.9998  0.3545  0.1558
  738MOL0     O97331   3.799   7.703   0.721  0.6247 -0.3078  0.5120
  738MOL0     C97332   4.034   7.743   0.983  0.1064  1.0179  0.0161
  738MOL0     C97333   4.152   7.790   1.021 -0.7778  0.8823  0.5873
  738MOL0     N97334   4.837   8.046   0.672  0.4291  0.1761  0.1566
  738MOL0     N97335   4.956   8.050   0.621  0.4283  0.9822 -0.5751
  738MOL0     C97336   5.912   8.846   0.635 -0.0437 -0.3546  0.6292
  738MOL0     C97337   5.913   8.918   0.510  0.1412  0.5104 -0.2669
  738MOL0     C97338   5.847   9.122   0.101 -0.1358  0.2123  0.0710
  738MOL0     C97339   5.936   9.135  -0.007  0.3025 -0.6040 -0.6211
  738MOL0     C97340   5.896   9.194  -0.131 -0.1257 -0.4116 -1.2757
  738MOL0     C97341   5.761   9.229  -0.154  0.4522 -0.1891  0.3989
  738MOL0     O97342   5.714   9.267  -0.282 -0.3313  0.3873 -0.5592
  738MOL0     C97343   5.812   9.315  -0.377 -0.1559 -0.0848 -0.1658
  738MOL0     C97344   5.864   9.201  -0.462 -0.0892 -0.0874  0.1300
  738MOL0     C97345   5.749   9.117  -0.537  0.4030 -0.5089 -0.0206
  738MOL0     C97346   5.755   9.162  -0.689  0.3328  0.2059  0.7856
  738MOL0     C97347   5.644   9.102  -0.765 -0.0495  0.5101  0.4299
  738MOL0     C97348   5.555   9.048  -0.823  0.5824  0.0839 -0.2355
  738MOL0     C97349   5.662   9.200  -0.049 -0.2608 -0.6815 -0.8603
  738MOL0     C97350   5.711   9.167   0.082  0.0591  0.2044  0.5493
  738MOL0     H97351   5.580   8.974   0.475  0.5003 -1.5330 -0.8370
  738MOL0     H97352   5.576   8.856   0.690 -0.2858  0.7154 -0.0666
  738MOL0     H97353   5.930   8.601   0.872  0.6643 -1.4119 -2.1760
  738MOL0     H97354   5.873   8.585   0.712  0.2960  1.4294  0.1199
  738MOL0     H97355   5.733   8.540   0.988  1.2867  2.3295 -1.4893
  738MOL0     H97356   5.796   8.413   0.888  1.3215  0.9903 -2.1921
  738MOL0     H97357   5.644   8.474   0.694  2.2967 -3.8277  0.6338
  738MOL0     H97358   5.570   8.595   0.796 -3.4031 -1.5257  2.0518
  738MOL0     H97359   5.568   8.298   0.887 -0.1331  0.7665  1.8651
  738MOL0     H97360   5.489   8.426   0.953  0.5090  0.0415  0.3018
  738MOL0     H97361   5.412   8.364   0.662  1.0088 -2.7210 -0.3614
  738MOL0     H97362   5.308   8.420   0.790 -1.4672 -1.6726 -0.4209
  738MOL0     H97363   5.364   8.164   0.878  0.7907 -0.9806 -0.4045
  738MOL0     H97364   5.429   8.150   0.718  0.1088  0.4090 -0.5980
  738MOL0     H97365   5.151   8.213   0.785 -0.2137 -1.2292  1.1506
  738MOL0     H97366   5.196   8.214   0.615  1.4867 -2.7855 -2.3203
  738MOL0     H97367   5.225   7.963   0.796  1.3591 -0.8946 -0.5093
  738MOL0     H97368   5.222   7.972   0.615  0.5827 -0.1919  1.4564
  738MOL0     H97369   5.006   8.008   0.940 -1.0113  1.5808 -0.7453
  738MOL0     H97370   4.665   8.135   0.849 -1.4276 -2.3633 -0.3818
  738MOL0     H97371   4.763   8.092   0.994 -0.8754  1.8793  0.0317
  738MOL0     H97372   4.694   7.862   0.972  2.7931 -0.0069 -0.3721
  738MOL0     H97373   4.595   7.933   0.835  2.8091 -1.9152 -0.8553
  738MOL0     H97374   4.586   7.996   1.128  0.0560 -1.6303 -0.5178
  738MOL0     H97375   4.483   8.085   0.995  1.6934  0.7584 -2.7108
  738MOL0     H97376   4.353   7.933   1.130  2.1959  2.0652  0.4702
  738MOL0     H97377   4.459   7.795   1.090  1.1930  0.1348  0.8739
  738MOL0     H97378   4.261   7.875   0.700  1.1254  0.7328  1.8843
  738MOL0     H97379   4.030   7.766   0.642 -0.0245  0.4688  0.7100
  738MOL0     H97380   3.534   7.645   1.017 -1.3911 -1.0356 -0.5410
  738MOL0     H97381   3.353   7.480   0.986 -0.6459  2.6430 -1.8374
  738MOL0     H97382   3.369   7.169   0.666 -1.4376 -0.0189 -1.3248
  738MOL0     H97383   3.342   7.349   0.673  1.9563  0.0572 -0.0791
  738MOL0     H97384   3.124   7.253   0.808  1.6203  3.3383 -0.4909
  738MOL0     H97385   3.159   7.103   0.722 -1.2745 -0.4055 -3.2380
  738MOL0     H97386   3.145   7.212   0.507 -2.4502  1.2690 -0.8094
  738MOL0     H97387   3.095   7.357   0.584 -1.2599 -0.0170 -0.0536
  738MOL0     H97388   2.941   7.100   0.572 -0.7641 -0.1155  1.9223
  738MOL0     H97389   2.893   7.236   0.685 -1.7338 -0.0428 -1.7956
  738MOL0     H97390   2.947   7.275   0.391 -0.1240  0.3450 -0.5162
  738MOL0     H97391   2.916   7.403   0.503 -1.7657  1.1133 -0.4633
  738MOL0     H97392   2.699   7.301   0.563  2.2596 -2.1355  0.9725
  738MOL0     H97393   2.720   7.168   0.447 -1.5214  0.2319 -0.0238
  738MOL0     H97394   2.694   7.455   0.342  2.6191 -0.2457 -1.9870
  738MOL0     H97395   2.726   7.309   0.255 -0.0734  1.6088 -0.1708
  738MOL0     H97396   2.514   7.212   0.384  1.8859 -1.7892 -1.7630
  738MOL0     H97397   2.482   7.324   0.250 -0.6807 -1.8600  0.4155
  738MOL0     H97398   3.613   7.268   0.726  1.7941  2.7488 -1.3730
  738MOL0     H97399   3.787   7.422   0.768 -0.6280 -1.2999  1.2378
  738MOL0     H97400   3.972   7.713   1.067  1.4969 -1.8387  0.1343
  738MOL0     H97401   4.182   7.780   1.125  0.2042  1.3485  0.3662
  738MOL0     H97402   6.009   8.821   0.675  2.3244  2.4648 -2.7544
  738MOL0     H97403   6.009   8.919   0.460  0.5866 -2.7020  0.3123
  738MOL0     H97404   6.041   9.110  -0.005 -0.2364 -3.0640  0.6929
  738MOL0     H97405   5.974   9.204  -0.206 -2.5695 -0.8701 -4.0411
  738MOL0     H97406   5.893   9.363  -0.321 -0.9707  0.2369  0.7679
  738MOL0     H97407   5.773   9.393  -0.443 -1.0847 -2.5266 -2.6995
  738MOL0     H97408   5.937   9.242  -0.533 -1.1223  0.4119 -0.6690
  738MOL0     H97409   5.913   9.124  -0.402  0.8036 -1.5200 -2.2511
  738MOL0     H97410   5.651   9.138  -0.495  1.1055  0.6076  1.1449
  738MOL0     H97411   5.774   9.011  -0.524 -1.3627 -0.9499 -0.0423
  738MOL0     H97412   5.739   9.270  -0.677 -0.7457  0.0211  1.2091
  738MOL0     H97413   5.852   9.150  -0.737  0.0911  0.5720  0.1929
  738MOL0     H97414   5.478   8.994  -0.875 -0.2276 -0.0978  1.1088
  738MOL0     H97415   5.558   9.226  -0.070 -0.1125  2.6576  1.6731
  738MOL0     H97416   5.635   9.157   0.159  1.0957 -0.8776  1.4715
  739MOL0     O97417   6.421   1.441   3.074  0.3781  0.7189 -0.1081
  739MOL0     C97418   6.425   1.548   3.006  0.6812 -0.6369 -0.0757
  739MOL0     O97419   6.324   1.595   2.918 -0.3338 -0.5048 -0.0027
  739MOL0     C97420   6.192   1.591   2.954  0.3528 -1.3364  0.1653
  739MOL0     C97421   6.097   1.600   2.851 -0.0164 -0.1309  0.1281
  739MOL0     C97422   5.959   1.602   2.877 -0.3693 -0.1412  0.1166
  739MOL0     C97423   5.910   1.605   3.007  0.6030  1.0004  0.2334
  739MOL0     O97424   5.776   1.581   3.022  0.4501 -0.8767  0.2549
  739MOL0     C97425   5.714   1.658   3.121 -0.1928 -0.1722 -0.3968
  739MOL0     C97426   5.569   1.623   3.119 -0.2601  0.0510  1.2804
  739MOL0     C97427   5.490   1.689   3.234  0.0547  0.4798  0.2287
  739MOL0     C97428   5.336   1.663   3.220 -0.3635  0.3417 -0.3991
  739MOL0     C97429   5.295   1.515   3.230  0.8601 -0.0269  0.1098
  739MOL0     C97430   5.319   1.460   3.376  0.1528 -0.4324 -0.9253
  739MOL0     C97431   5.297   1.316   3.381 -0.2957  0.4816  0.3928
  739MOL0     C97432   5.317   1.259   3.520  1.2369 -0.2199  0.3005
  739MOL0     N97433   5.296   1.113   3.521 -1.0388  0.1643 -0.1478
  739MOL0     C97434   5.184   1.052   3.484  0.9266 -0.3090 -0.2696
  739MOL0     C97435   5.199   0.918   3.506 -0.4375 -0.0941 -0.8350
  739MOL0     C97436   5.116   0.806   3.471  0.2837 -0.2192  0.1370
  739MOL0     C97437   5.151   0.737   3.338 -0.1656  0.7691 -0.4388
  739MOL0     C97438   5.128   0.580   3.343 -0.3305  0.6432  0.4975
  739MOL0     C97439   4.998   0.535   3.412  0.7013  0.7771 -0.3596
  739MOL0     O97440   5.034   0.500   3.547 -0.2183 -0.0300  0.6764
  739MOL0     C97441   4.933   0.471   3.634  0.0152  0.3722 -0.1367
  739MOL0     C97442   4.911   0.538   3.756 -0.4935 -1.0324  0.6324
  739MOL0     C97443   4.807   0.493   3.840 -0.1868  0.0547 -0.9260
  739MOL0     C97444   4.735   0.374   3.813 -0.2694  0.7151  0.1681
  739MOL0     C97445   4.623   0.330   3.899 -0.0366 -0.1814 -1.0664
  739MOL0     O97446   4.532   0.251   3.840 -0.1719 -0.0288 -0.3759
  739MOL0     C97447   4.410   0.213   3.897  0.1653  0.2308 -0.8636
  739MOL0     C97448   4.344   0.139   3.804  0.1513 -0.2890 -0.9285
  739MOL0     C97449   4.226   0.073   3.831  0.0213 -0.0265  0.6610
  739MOL0     C97450   4.172   0.085   3.964 -1.0932  0.2658 -0.0883
  739MOL0     O97451   4.039   0.048   3.975 -0.3696  0.3457  0.2118
  739MOL0     C97452   3.962   0.145   4.052 -0.1257  0.1597 -0.3290
  739MOL0     C97453   3.814   0.146   4.011 -0.1407  0.2703 -0.4211
  739MOL0     C97454   3.774   0.007   3.961  0.9195 -0.0784  0.4459
  739MOL0     C97455   3.624  -0.004   3.942 -0.0051  0.9595 -0.2261
  739MOL0     C97456   3.578  -0.145   3.967 -0.2664  0.1713  0.4869
  739MOL0     C97457   3.465  -0.200   3.876 -0.5148 -0.5997  0.0067
  739MOL0     C97458   3.391  -0.314   3.939  0.8212 -0.0466 -0.8002
  739MOL0     C97459   3.261  -0.344   3.863  0.1571 -0.2569 -0.7527
  739MOL0    Cl97460   3.144  -0.210   3.896  0.1674  0.4962 -0.5264
  739MOL0     C97461   4.240   0.154   4.064 -0.4474 -0.0376 -0.3087
  739MOL0     C97462   4.364   0.212   4.028  0.4564  0.7551 -0.6233
  739MOL0     O97463   4.609   0.381   4.010 -0.5615  0.0300  0.1166
  739MOL0     C97464   4.763   0.301   3.694  0.0546 -0.9835  0.1348
  739MOL0     C97465   4.848   0.361   3.608 -0.5091 -0.3528 -0.9176
  739MOL0     N97466   5.312   0.909   3.585  0.0819 -0.3136  0.2717
  739MOL0     N97467   5.376   1.020   3.584  0.7954  0.9839  0.2160
  739MOL0     C97468   6.004   1.607   3.112 -0.3313 -0.4856 -0.1852
  739MOL0     C97469   6.137   1.601   3.085  0.3061 -0.0210  0.3602
  739MOL0     C97470   6.561   1.608   2.987 -0.4949  0.3406 -0.4198
  739MOL0     C97471   6.591   1.711   2.889  1.0758  0.4330  0.3215
  739MOL0     C97472   6.716   1.767   2.874 -0.4752 -0.2972 -0.2759
  739MOL0     C97473   6.818   1.737   2.966 -0.9529 -0.0656  0.4067
  739MOL0     O97474   6.933   1.812   2.966  0.7358  0.8092 -0.6796
  739MOL0     C97475   7.062   1.752   3.011 -0.3759 -0.8290 -1.0010
  739MOL0     C97476   7.143   1.878   3.055  0.0723  0.1948  0.1101
  739MOL0     C97477   7.198   1.958   2.939 -1.1654 -0.7049  0.0624
  739MOL0     C97478   7.282   2.081   2.967  0.2725 -0.0798 -0.3149
  739MOL0     C97479   7.385   2.039   3.061 -1.2044 -0.9332 -0.0710
  739MOL0     C97480   7.493   1.999   3.114 -0.3369 -0.5041  0.4186
  739MOL0     C97481   6.786   1.638   3.064 -0.7097 -0.5767 -0.9118
  739MOL0     C97482   6.661   1.573   3.077  0.1879  0.1561 -0.0761
  739MOL0     H97483   6.114   1.595   2.744 -1.5696 -1.0281 -0.1094
  739MOL0     H97484   5.892   1.590   2.792  2.7000 -0.8702 -2.3764
  739MOL0     H97485   5.738   1.762   3.098 -0.5653 -0.1033 -0.4821
  739MOL0     H97486   5.751   1.640   3.222 -0.0509  1.7091 -0.0727
  739MOL0     H97487   5.557   1.515   3.131 -0.7700  0.1168  1.3861
  739MOL0     H97488   5.523   1.659   3.026  2.6467  1.8890  0.4301
  739MOL0     H97489   5.507   1.797   3.235  0.8946  0.3473  0.4753
  739MOL0     H97490   5.525   1.644   3.327  2.4255 -0.5780 -1.1102
  739MOL0     H97491   5.290   1.726   3.296  0.2884  1.1859 -0.6792
  739MOL0     H97492   5.300   1.705   3.125  0.7572 -1.9553 -1.9315
  739MOL0     H97493   5.350   1.450   3.161  0.7111  1.3032 -1.3304
  739MOL0     H97494   5.187   1.507   3.213  0.6577 -2.0524  1.9613
  739MOL0     H97495   5.251   1.516   3.440 -1.6627 -0.9635 -2.3010
  739MOL0     H97496   5.422   1.471   3.410  0.1805  1.0694 -1.4254
  739MOL0     H97497   5.195   1.291   3.349 -0.0030 -1.8131  1.0442
  739MOL0     H97498   5.371   1.259   3.323 -0.0207 -0.3274  1.5062
  739MOL0     H97499   5.248   1.304   3.591  1.4298  2.6918 -1.2317
  739MOL0     H97500   5.420   1.291   3.537  1.7199  1.0023 -3.7779
  739MOL0     H97501   5.098   1.104   3.444  1.3293  0.9228  0.4214
  739MOL0     H97502   5.009   0.824   3.477 -0.3259 -1.6640 -3.3649
  739MOL0     H97503   5.129   0.730   3.549  3.0288 -0.7456 -0.7083
  739MOL0     H97504   5.257   0.752   3.318  0.2209 -0.5913  0.4466
  739MOL0     H97505   5.088   0.770   3.256 -0.0015  0.7160 -0.5868
  739MOL0     H97506   5.119   0.553   3.238 -3.3279  0.8587  0.6038
  739MOL0     H97507   5.217   0.525   3.374  0.6786  1.8109 -0.2579
  739MOL0     H97508   4.964   0.446   3.358  0.7776  0.4068  0.1971
  739MOL0     H97509   4.914   0.603   3.397 -1.3171 -1.6324 -0.6467
  739MOL0     H97510   4.981   0.617   3.782 -0.8640  0.4590 -2.4615
  739MOL0     H97511   4.790   0.542   3.936  4.1766 -0.9575  0.5588
  739MOL0     H97512   4.383   0.135   3.703  1.5264  1.2473 -0.5105
  739MOL0     H97513   4.186   0.028   3.741  1.1686  0.4236 -0.0948
  739MOL0     H97514   4.007   0.243   4.034  2.6410 -1.2798 -1.8337
  739MOL0     H97515   3.963   0.113   4.156 -0.7477 -4.7253 -1.5510
  739MOL0     H97516   3.793   0.231   3.947  0.1740  0.3502 -0.4202
  739MOL0     H97517   3.767   0.163   4.108  0.3254 -3.8704  0.7450
  739MOL0     H97518   3.807  -0.069   4.033 -0.8742  0.4317  1.8859
  739MOL0     H97519   3.826  -0.008   3.866  2.4609  2.7339  0.7274
  739MOL0     H97520   3.586   0.065   4.018 -1.1964  0.1261 -0.0543
  739MOL0     H97521   3.593   0.026   3.841 -2.2752 -2.6272 -0.7564
  739MOL0     H97522   3.545  -0.143   4.071  2.4604  0.4594  1.4340
  739MOL0     H97523   3.662  -0.215   3.955 -3.0349 -3.2408 -1.0619
  739MOL0     H97524   3.501  -0.239   3.781 -0.1229 -5.5219  1.9018
  739MOL0     H97525   3.391  -0.124   3.851 -0.8121 -0.6603  0.6667
  739MOL0     H97526   3.450  -0.405   3.923  1.2060  0.0474  0.0056
  739MOL0     H97527   3.370  -0.310   4.046  0.0936 -0.0689 -0.9425
  739MOL0     H97528   3.226  -0.440   3.902  1.1414  0.2233  1.4685
  739MOL0     H97529   3.295  -0.347   3.759  0.1459 -0.9322 -0.7416
  739MOL0     H97530   4.202   0.153   4.166  1.7132  1.0799  0.5735
  739MOL0     H97531   4.416   0.262   4.108 -0.7334  2.1171 -0.6541
  739MOL0     H97532   4.705   0.214   3.667 -2.8015  0.2651  1.7769
  739MOL0     H97533   4.857   0.324   3.507  2.5659 -0.1879 -0.7831
  739MOL0     H97534   5.963   1.601   3.212 -2.0713 -0.5848 -0.8529
  739MOL0     H97535   6.213   1.596   3.162 -0.6248 -1.2254  1.2201
  739MOL0     H97536   6.520   1.747   2.815 -0.5503 -1.3588  0.9216
  739MOL0     H97537   6.733   1.841   2.797 -0.3454  2.0761  1.8868
  739MOL0     H97538   7.101   1.706   2.919  5.0509 -1.2540  1.1824
  739MOL0     H97539   7.051   1.676   3.089  3.4041  0.7939  1.3905
  739MOL0     H97540   7.081   1.932   3.127  1.5193 -2.5257  3.6878
  739MOL0     H97541   7.230   1.837   3.107  0.9681  0.4116 -1.1897
  739MOL0     H97542   7.111   1.995   2.885  0.5717  2.4876 -0.7878
  739MOL0     H97543   7.249   1.887   2.873  0.8765  2.1404 -1.6206
  739MOL0     H97544   7.333   2.102   2.872  1.0038 -1.8964 -0.3613
  739MOL0     H97545   7.221   2.169   2.990  0.4007  0.4400 -1.8232
  739MOL0     H97546   7.590   1.973   3.149  0.3172  2.7884  1.3516
  739MOL0     H97547   6.859   1.621   3.143 -0.2703 -2.1900 -1.6342
  739MOL0     H97548   6.662   1.510   3.165 -0.0659 -0.9215 -0.8179
  740MOL0     O97549   2.613  10.028   5.252  0.1724  0.1217 -0.0730
  740MOL0     C97550   2.583   9.913   5.257  0.4251 -0.0360 -0.7559
  740MOL0     O97551   2.657   9.807   5.277  0.1706 -0.8252  1.2383
  740MOL0     C97552   2.794   9.820   5.309 -1.0885  0.4379  1.0041
  740MOL0     C97553   2.898   9.881   5.236  0.3809  0.6696  0.3374
  740MOL0     C97554   3.033   9.869   5.277  0.9603 -0.2346 -0.0612
  740MOL0     C97555   3.067   9.794   5.391  0.5308  0.4094 -0.5161
  740MOL0     O97556   3.202   9.795   5.418  0.3516 -0.3447  0.2485
  740MOL0     C97557   3.258   9.710   5.525  0.8731  0.1057 -0.1385
  740MOL0     C97558   3.359   9.790   5.608 -0.0956  0.0298 -0.3110
  740MOL0     C97559   3.440   9.704   5.708 -0.4792 -1.0300 -0.2076
  740MOL0     C97560   3.515   9.795   5.801  0.1133 -0.0398 -0.8773
  740MOL0     C97561   3.603   9.728   5.901  0.2035 -0.4495 -0.1343
  740MOL0     C97562   3.673   9.602   5.836 -1.2968  0.1361  0.2115
  740MOL0     C97563   3.793   9.552   5.933  0.2016 -0.3802  0.8262
  740MOL0     C97564   3.859   9.425   5.890 -0.4310 -0.2273  1.2141
  740MOL0     N97565   3.773   9.306   5.891 -0.0001 -0.4199 -0.4051
  740MOL0     C97566   3.819   9.186   5.846 -0.0171 -0.0653  0.8313
  740MOL0     C97567   3.738   9.097   5.902 -0.0873  0.4572  0.0048
  740MOL0     C97568   3.762   8.953   5.888 -0.3098 -0.3015  0.7813
  740MOL0     C97569   3.619   8.880   5.916 -0.2645 -0.3288  0.2808
  740MOL0     C97570   3.523   8.925   5.803  0.2326  0.3026  0.1296
  740MOL0     C97571   3.392   8.851   5.801  0.0894  0.3473 -0.0611
  740MOL0     O97572   3.289   8.921   5.733 -0.7069  0.0597  0.3590
  740MOL0     C97573   3.174   8.859   5.692 -0.3257 -0.2150 -0.2861
  740MOL0     C97574   3.081   8.947   5.643  0.3382 -0.0364  0.2148
  740MOL0     C97575   2.955   8.919   5.580 -0.9797 -0.0845  0.6136
  740MOL0     C97576   2.927   8.780   5.577  0.8254 -0.4968 -0.0433
  740MOL0     C97577   2.791   8.741   5.526 -0.0185  1.3729 -0.3734
  740MOL0     O97578   2.753   8.618   5.535  0.0803  0.4443 -0.8152
  740MOL0     C97579   2.624   8.577   5.507  0.1056 -0.4803  0.0495
  740MOL0     C97580   2.539   8.527   5.599  0.9442 -0.0730  0.9578
  740MOL0     C97581   2.402   8.493   5.559 -0.0961  0.9698  0.6690
  740MOL0     C97582   2.353   8.518   5.424  0.1454 -0.3075  0.3255
  740MOL0     O97583   2.232   8.482   5.372 -0.0668  0.4997  0.6526
  740MOL0     C97584   2.132   8.447   5.475  0.3634  1.0271  1.6163
  740MOL0     C97585   2.006   8.428   5.389 -0.7850  0.3358 -0.1289
  740MOL0     C97586   2.000   8.333   5.266 -0.1135 -0.4858 -0.1275
  740MOL0     C97587   1.856   8.315   5.226 -0.2113 -0.1688  0.3303
  740MOL0     C97588   1.770   8.217   5.303  0.0075  0.2321 -0.5013
  740MOL0     C97589   1.639   8.206   5.234 -0.3821  0.1060  0.2706
  740MOL0     C97590   1.637   8.117   5.108  0.1200  0.6019 -0.5516
  740MOL0     C97591   1.500   8.104   5.039 -0.2143  0.9629 -0.1704
  740MOL0    Cl97592   1.363   8.047   5.151 -0.1661 -0.3358 -0.1435
  740MOL0     C97593   2.442   8.570   5.337 -0.0136 -0.5177  0.2126
  740MOL0     C97594   2.573   8.602   5.380 -0.9779  0.1571 -0.0979
  740MOL0     O97595   2.723   8.830   5.485 -0.4314 -0.5527 -0.0446
  740MOL0     C97596   3.017   8.679   5.624  0.7233  0.3271 -0.6895
  740MOL0     C97597   3.138   8.729   5.683 -0.2532  0.1058  0.5948
  740MOL0     N97598   3.650   9.156   5.989  0.0378  1.4500  0.0423
  740MOL0     N97599   3.666   9.284   5.977  1.2856  0.0571 -0.0047
  740MOL0     C97600   2.962   9.731   5.452  0.6020  0.2431 -0.1178
  740MOL0     C97601   2.831   9.746   5.414 -0.2107  0.3132 -0.3176
  740MOL0     C97602   2.436   9.880   5.249  0.5871  0.6878  0.4491
  740MOL0     C97603   2.342   9.975   5.287 -0.5131 -0.3218 -0.4865
  740MOL0     C97604   2.209   9.953   5.314 -0.2589  0.6190 -0.0985
  740MOL0     C97605   2.156   9.823   5.286 -0.0360 -0.7996 -1.3359
  740MOL0     O97606   2.028   9.787   5.312 -0.4660  0.3906  0.0527
  740MOL0     C97607   1.934   9.888   5.345 -0.0363 -0.6473  0.4434
  740MOL0     C97608   1.795   9.820   5.342 -0.1721  0.4921  0.1901
  740MOL0     C97609   1.683   9.915   5.382  0.1777  0.2414 -0.1610
  740MOL0     C97610   1.539   9.865   5.368  0.5732  0.0963 -0.1669
  740MOL0     C97611   1.497   9.868   5.235  0.2857 -0.2774  0.3636
  740MOL0     C97612   1.446   9.861   5.122 -0.9585 -0.1686  0.2031
  740MOL0     C97613   2.246   9.729   5.246  1.0303  0.4253  0.1673
  740MOL0     C97614   2.381   9.748   5.226  0.2020 -0.1182 -0.7278
  740MOL0     H97615   2.868   9.927   5.142 -3.2562 -0.7646  0.6578
  740MOL0     H97616   3.106   9.926   5.220  0.2715 -0.0256 -0.7406
  740MOL0     H97617   3.297   9.623   5.471 -2.1465 -1.5079  0.0177
  740MOL0     H97618   3.174   9.671   5.583 -1.0948  2.2029 -1.4324
  740MOL0     H97619   3.298   9.865   5.659  1.0759  0.1519  0.9540
  740MOL0     H97620   3.427   9.846   5.543  0.9630  2.1499  2.4125
  740MOL0     H97621   3.503   9.632   5.655  1.0046 -0.4279  0.6490
  740MOL0     H97622   3.379   9.637   5.769 -0.5647 -0.7361  0.0343
  740MOL0     H97623   3.571   9.866   5.738  3.3347  0.3822  2.1400
  740MOL0     H97624   3.443   9.858   5.853 -1.5346 -1.0928 -1.8241
  740MOL0     H97625   3.549   9.704   5.992  1.5463 -1.2140  0.4977
  740MOL0     H97626   3.678   9.800   5.936  1.4269 -1.1412 -1.1983
  740MOL0     H97627   3.721   9.619   5.739 -2.5376 -1.7960 -0.8044
  740MOL0     H97628   3.603   9.521   5.815  0.0555 -1.7593  2.4877
  740MOL0     H97629   3.870   9.630   5.935  0.1461 -0.0649 -2.7316
  740MOL0     H97630   3.737   9.553   6.027 -1.0445  0.1764  0.1057
  740MOL0     H97631   3.949   9.408   5.950 -0.1316 -0.2515  0.7683
  740MOL0     H97632   3.881   9.434   5.783 -3.9661 -1.1912  0.2818
  740MOL0     H97633   3.891   9.155   5.771 -1.9645 -3.0623  0.0112
  740MOL0     H97634   3.833   8.910   5.959 -1.6910 -1.9025  1.2560
  740MOL0     H97635   3.800   8.942   5.786  2.6064 -0.1956  1.7605
  740MOL0     H97636   3.576   8.911   6.011  1.6297  0.2620  1.0059
  740MOL0     H97637   3.626   8.771   5.915 -2.8863 -0.5613  0.3335
  740MOL0     H97638   3.493   9.028   5.823 -3.3410 -0.5758  0.0268
  740MOL0     H97639   3.569   8.916   5.704 -0.9627  0.6427 -0.4864
  740MOL0     H97640   3.347   8.835   5.899 -1.7898  1.2339 -0.7133
  740MOL0     H97641   3.402   8.751   5.759  1.2356  0.7157 -0.7171
  740MOL0     H97642   3.108   9.051   5.659  0.6448 -0.4123  2.3861
  740MOL0     H97643   2.879   8.987   5.542  0.4869  0.8972 -0.6770
  740MOL0     H97644   2.578   8.505   5.698  1.2381  2.3231  1.4399
  740MOL0     H97645   2.348   8.445   5.640 -0.1858 -2.3208 -1.1643
  740MOL0     H97646   2.115   8.524   5.550  2.6344  1.0955  2.1421
  740MOL0     H97647   2.168   8.351   5.515  2.9598  1.6819  1.0405
  740MOL0     H97648   1.959   8.523   5.362 -1.2231  0.1358 -0.0619
  740MOL0     H97649   1.929   8.391   5.456  0.3759  0.8986  1.5788
  740MOL0     H97650   2.049   8.236   5.281 -0.3073 -0.2273  2.9705
  740MOL0     H97651   2.057   8.388   5.191 -1.2583  1.0509  0.0937
  740MOL0     H97652   1.801   8.409   5.237 -3.1814 -2.0036  2.6929
  740MOL0     H97653   1.859   8.272   5.125 -0.1767  0.1552  0.1929
  740MOL0     H97654   1.754   8.243   5.408 -0.2322 -2.3213  0.1577
  740MOL0     H97655   1.813   8.117   5.297 -2.4304 -0.7910 -3.4365
  740MOL0     H97656   1.596   8.303   5.207  1.0551  0.8043  0.3885
  740MOL0     H97657   1.577   8.162   5.313  1.8538  0.5254  2.3711
  740MOL0     H97658   1.716   8.148   5.038  1.1626  3.4236  1.6679
  740MOL0     H97659   1.663   8.018   5.146 -2.7451 -0.2363 -0.5603
  740MOL0     H97660   1.498   8.032   4.956 -1.4273  2.4157 -1.4529
  740MOL0     H97661   1.463   8.200   5.002 -1.3886  1.2930  1.7353
  740MOL0     H97662   2.408   8.578   5.234 -0.8366 -0.5720  0.4760
  740MOL0     H97663   2.651   8.629   5.309  0.4868 -0.0457  1.3857
  740MOL0     H97664   2.995   8.573   5.623  1.6138  0.1335 -0.3565
  740MOL0     H97665   3.211   8.663   5.728  1.0798  1.7896  1.0336
  740MOL0     H97666   2.980   9.669   5.540  2.6832  0.9141 -0.0269
  740MOL0     H97667   2.762   9.686   5.472  1.6407 -0.1525  1.4960
  740MOL0     H97668   2.380  10.073   5.315 -1.2043 -0.2731  0.3072
  740MOL0     H97669   2.150  10.036   5.351  1.4594  2.8230 -2.0201
  740MOL0     H97670   1.940   9.964   5.266  0.9433 -0.6737  0.4843
  740MOL0     H97671   1.949   9.945   5.437 -1.2814  2.0650 -0.9016
  740MOL0     H97672   1.783   9.773   5.244  1.9554  0.7307 -0.2402
  740MOL0     H97673   1.790   9.737   5.413  3.8417  0.8850  1.2040
  740MOL0     H97674   1.689  10.002   5.317  0.4252  2.0065  2.0883
  740MOL0     H97675   1.686   9.938   5.489 -2.5464 -1.2827  0.3313
  740MOL0     H97676   1.534   9.765   5.410 -2.7469  0.5837  0.8792
  740MOL0     H97677   1.462   9.924   5.418 -1.7342 -2.7513 -0.0993
  740MOL0     H97678   1.400   9.861   5.025 -1.8950  2.3234  0.5579
  740MOL0     H97679   2.193   9.635   5.233  0.8828  0.3812  1.0269
  740MOL0     H97680   2.444   9.672   5.180 -1.0025 -1.2978 -0.5016
  741MOL0     O97681   2.863   2.363   7.633 -0.4532 -0.5589 -0.3848
  741MOL0     C97682   2.935   2.342   7.726 -0.8157 -0.2222 -0.6309
  741MOL0     O97683   2.914   2.243   7.818  0.2397  0.4298 -0.4045
  741MOL0     C97684   2.803   2.166   7.794 -0.9978 -0.1501 -0.0958
  741MOL0     C97685   2.792   2.054   7.703  0.3754 -0.7537 -0.0271
  741MOL0     C97686   2.665   1.990   7.697 -0.2778 -0.4260  0.4968
  741MOL0     C97687   2.553   2.031   7.773 -0.0717 -0.5274 -1.8851
  741MOL0     O97688   2.437   1.966   7.753 -0.4909  0.7064 -0.1336
  741MOL0     C97689   2.320   2.010   7.832 -0.4349 -0.5172 -0.2631
  741MOL0     C97690   2.220   1.901   7.831 -0.9144 -0.5193  0.5890
  741MOL0     C97691   2.110   1.933   7.924  0.3159  1.3858 -0.0466
  741MOL0     C97692   2.012   1.815   7.908  0.1591  0.6379  0.1622
  741MOL0     C97693   1.892   1.834   7.993  0.8013  0.1927  0.5359
  741MOL0     C97694   1.790   1.717   7.950  0.6348 -0.5424 -0.1489
  741MOL0     C97695   1.648   1.750   7.995  0.0285  0.2439 -0.4334
  741MOL0     C97696   1.561   1.625   7.968 -0.1527  0.0786 -0.5331
  741MOL0     N97697   1.436   1.619   8.045  0.3704 -0.4553 -0.6008
  741MOL0     C97698   1.313   1.663   8.001  0.9404  0.1124 -0.2831
  741MOL0     C97699   1.224   1.668   8.104 -1.0116 -0.6381  0.6234
  741MOL0     C97700   1.078   1.695   8.101  0.1217 -0.5696  0.2148
  741MOL0     C97701   1.013   1.698   8.241 -0.0845 -0.2454 -0.3147
  741MOL0     C97702   0.984   1.560   8.293 -0.4574  0.0796  0.8856
  741MOL0     C97703   1.065   1.536   8.420 -0.0789 -0.9718  0.4869
  741MOL0     O97704   1.000   1.565   8.547 -0.1119 -0.4193 -0.0940
  741MOL0     C97705   0.873   1.520   8.557  0.0453 -0.8513  0.0632
  741MOL0     C97706   0.791   1.610   8.608  0.1997 -0.9383 -0.1512
  741MOL0     C97707   0.660   1.579   8.642  0.0584 -0.5401  0.2359
  741MOL0     C97708   0.599   1.457   8.601  0.4156  0.5902  0.2677
  741MOL0     C97709   0.460   1.431   8.631  0.5168  0.3381  0.6469
  741MOL0     O97710   0.429   1.297   8.617 -0.2049  0.0198 -0.8848
  741MOL0     C97711   0.298   1.263   8.594  0.0264 -0.4736  0.3629
  741MOL0     C97712   0.223   1.222   8.702 -1.0626  0.4508 -0.0622
  741MOL0     C97713   0.091   1.188   8.685  0.6970 -0.8030  0.7668
  741MOL0     C97714   0.028   1.185   8.558 -0.2173 -1.5177  0.6410
  741MOL0     O97715  -0.105   1.171   8.528  1.3001 -0.7357  0.1584
  741MOL0     C97716  -0.204   1.185   8.636 -1.1302 -0.7797  0.4843
  741MOL0     C97717  -0.341   1.206   8.592 -0.2159 -0.0733  0.3404
  741MOL0     C97718  -0.438   1.207   8.715  0.2173 -0.2937 -0.0308
  741MOL0     C97719  -0.586   1.198   8.659  0.3532 -1.0056 -0.8445
  741MOL0     C97720  -0.704   1.229   8.760  1.0326 -0.7023 -0.0777
  741MOL0     C97721  -0.825   1.198   8.677 -0.0633 -0.2151 -1.1791
  741MOL0     C97722  -0.948   1.208   8.776 -0.3235 -0.5763  0.4686
  741MOL0     C97723  -1.083   1.203   8.706 -0.1381 -0.1456  0.6301
  741MOL0    Cl97724  -1.101   1.047   8.642  0.3598 -0.1220  0.5444
  741MOL0     C97725   0.106   1.209   8.444 -0.0648  0.1649 -1.4728
  741MOL0     C97726   0.241   1.252   8.461 -0.6306  0.2683  0.6210
  741MOL0     O97727   0.377   1.517   8.641 -1.0112 -0.5621  0.1372
  741MOL0     C97728   0.688   1.363   8.547 -0.7939  0.6358  0.0635
  741MOL0     C97729   0.828   1.392   8.529 -0.0239  0.2476  0.5114
  741MOL0     N97730   1.309   1.630   8.208 -0.4255 -0.1006  0.2044
  741MOL0     N97731   1.425   1.588   8.173  1.0487  0.2363 -0.1976
  741MOL0     C97732   2.571   2.146   7.847  1.3832  0.5105 -0.2845
  741MOL0     C97733   2.691   2.215   7.859  0.1530 -0.1109 -1.1355
  741MOL0     C97734   3.054   2.431   7.736 -0.1557  0.0529  0.2563
  741MOL0     C97735   3.156   2.396   7.821  0.0299 -0.1813  0.4332
  741MOL0     C97736   3.265   2.479   7.837  0.0043  0.5156 -0.2836
  741MOL0     C97737   3.289   2.589   7.754  0.1231  0.1084 -0.3608
  741MOL0     O97738   3.409   2.654   7.764 -0.6213  0.4161  0.6058
  741MOL0     C97739   3.438   2.772   7.684  0.1625 -0.2614  0.1815
  741MOL0     C97740   3.493   2.731   7.548 -0.7087  0.1867  0.5919
  741MOL0     C97741   3.590   2.830   7.478 -0.0126 -0.2445  0.3545
  741MOL0     C97742   3.536   2.971   7.443 -0.1693 -0.3845  0.4283
  741MOL0     C97743   3.403   2.977   7.385  0.6698  0.1627 -0.3563
  741MOL0     C97744   3.288   2.990   7.346 -0.3436  1.2830 -0.2842
  741MOL0     C97745   3.199   2.615   7.654  0.7985  0.0083  0.1594
  741MOL0     C97746   3.076   2.542   7.654 -0.0965 -0.0841 -0.2104
  741MOL0     H97747   2.882   2.025   7.650  1.0786 -0.4337  0.9604
  741MOL0     H97748   2.650   1.910   7.625  1.7436 -1.3164  1.0148
  741MOL0     H97749   2.279   2.101   7.788 -1.8563  0.3811  2.6291
  741MOL0     H97750   2.349   2.031   7.936  1.0067  2.2021 -1.1248
  741MOL0     H97751   2.262   1.812   7.877  1.4150  1.1972  1.9911
  741MOL0     H97752   2.179   1.885   7.731  0.1998  2.1989 -0.4167
  741MOL0     H97753   2.060   2.022   7.885 -2.0143 -0.2190 -0.8828
  741MOL0     H97754   2.139   1.953   8.028 -0.2731  1.5686  0.0847
  741MOL0     H97755   1.990   1.804   7.802 -0.1969  3.5680 -0.1621
  741MOL0     H97756   2.064   1.726   7.945 -0.5334  0.1660  0.0133
  741MOL0     H97757   1.844   1.930   7.969 -2.9085 -1.3262  1.2493
  741MOL0     H97758   1.922   1.836   8.098 -0.7235  3.2986  1.0201
  741MOL0     H97759   1.824   1.622   7.992  1.5484 -0.9546 -1.7548
  741MOL0     H97760   1.788   1.707   7.841 -0.7262  0.7447 -0.2775
  741MOL0     H97761   1.654   1.770   8.102  0.8185  1.3154 -0.6572
  741MOL0     H97762   1.608   1.842   7.951 -0.9429  0.3817  0.6828
  741MOL0     H97763   1.620   1.535   7.988 -1.2008 -0.8989 -1.6877
  741MOL0     H97764   1.543   1.625   7.861 -0.3508  0.3025 -0.4987
  741MOL0     H97765   1.302   1.681   7.894  3.6871 -0.0588 -0.6640
  741MOL0     H97766   1.039   1.614   8.038  0.0914 -1.4103  1.2888
  741MOL0     H97767   1.062   1.792   8.053 -2.3127 -1.5756 -1.2349
  741MOL0     H97768   0.925   1.763   8.247  0.1227  0.2340 -1.8267
  741MOL0     H97769   1.082   1.753   8.305  1.9186 -0.5932 -2.0713
  741MOL0     H97770   0.877   1.556   8.315 -0.7891  0.1179 -0.5943
  741MOL0     H97771   0.997   1.476   8.223  0.2267  0.8299  0.0879
  741MOL0     H97772   1.163   1.583   8.417  0.1372 -1.4046  0.6364
  741MOL0     H97773   1.086   1.428   8.422  1.9497 -0.5923  0.6926
  741MOL0     H97774   0.814   1.713   8.631 -2.0498 -0.8650  2.2784
  741MOL0     H97775   0.608   1.661   8.690  3.1379  1.9229 -0.3810
  741MOL0     H97776   0.272   1.212   8.798 -0.1243 -1.8371 -0.7147
  741MOL0     H97777   0.043   1.146   8.773 -1.4069  3.3850  1.8937
  741MOL0     H97778  -0.174   1.270   8.698  3.8171 -0.7127 -1.4849
  741MOL0     H97779  -0.184   1.095   8.695  2.0652 -2.4427 -2.7399
  741MOL0     H97780  -0.369   1.119   8.533  1.6451 -0.1301 -0.5357
  741MOL0     H97781  -0.348   1.302   8.540  1.8401 -0.1069 -0.0852
  741MOL0     H97782  -0.433   1.306   8.763  2.2516  0.2714 -1.2882
  741MOL0     H97783  -0.417   1.133   8.793 -2.2601 -0.0979  0.9141
  741MOL0     H97784  -0.592   1.275   8.582  1.8774 -0.3749 -0.3674
  741MOL0     H97785  -0.604   1.104   8.606 -1.4456 -1.7290  0.9290
  741MOL0     H97786  -0.711   1.336   8.783 -1.2870 -1.1944  1.9089
  741MOL0     H97787  -0.699   1.168   8.850 -1.7657 -2.7357 -1.1651
  741MOL0     H97788  -0.820   1.097   8.636 -0.6927 -0.5976 -0.3298
  741MOL0     H97789  -0.843   1.277   8.603  1.1505  0.2875 -0.9703
  741MOL0     H97790  -0.937   1.128   8.849 -0.9425 -1.4363 -0.3580
  741MOL0     H97791  -0.935   1.300   8.834  0.2718 -0.2599 -0.1487
  741MOL0     H97792  -1.080   1.276   8.625 -1.9847 -0.5085  0.1760
  741MOL0     H97793  -1.170   1.230   8.768  0.0231  0.0311  0.7824
  741MOL0     H97794   0.064   1.186   8.347 -4.9702 -0.2291  0.4354
  741MOL0     H97795   0.302   1.271   8.374  1.7345  0.4895  2.2383
  741MOL0     H97796   0.651   1.262   8.536  0.8826 -0.2495  1.9517
  741MOL0     H97797   0.886   1.306   8.495 -2.4567 -1.8580  1.3348
  741MOL0     H97798   2.491   2.192   7.904  2.7105  0.1464  1.9935
  741MOL0     H97799   2.700   2.299   7.927 -2.4315 -0.2831 -0.4792
  741MOL0     H97800   3.147   2.297   7.865 -1.8102  0.6330  2.0252
  741MOL0     H97801   3.342   2.461   7.911  0.8738 -1.2090 -1.5204
  741MOL0     H97802   3.505   2.835   7.743  0.4805  0.1976 -0.6516
  741MOL0     H97803   3.349   2.835   7.676 -0.0079 -0.3503  1.2377
  741MOL0     H97804   3.545   2.635   7.550 -1.6642 -0.4604 -1.9574
  741MOL0     H97805   3.415   2.714   7.474 -0.4745  3.6188 -0.6284
  741MOL0     H97806   3.639   2.787   7.390 -2.8844 -0.9993 -0.9666
  741MOL0     H97807   3.670   2.836   7.553  0.6440 -0.8218 -0.2873
  741MOL0     H97808   3.535   3.029   7.535 -0.8600  1.4984 -0.7148
  741MOL0     H97809   3.608   3.016   7.374  3.5112 -3.8728  1.5603
  741MOL0     H97810   3.186   2.994   7.314 -1.9530  3.7953  4.3439
  741MOL0     H97811   3.209   2.692   7.578 -1.3924 -0.6355 -0.8514
  741MOL0     H97812   3.006   2.580   7.580 -0.6288 -1.1690 -0.2839
  742MOL0     O97813   0.044   8.794   8.420 -0.9238  0.5434  0.3937
  742MOL0     C97814   0.117   8.850   8.331  0.2623 -0.7021 -0.4133
  742MOL0     O97815   0.090   8.856   8.194  0.5295 -0.0775 -0.1262
  742MOL0     C97816  -0.034   8.807   8.151 -0.5831  1.0427 -0.5623
  742MOL0     C97817  -0.147   8.869   8.212 -0.2164  0.0052  0.6523
  742MOL0     C97818  -0.279   8.820   8.197 -0.3677  0.4831  0.1870
  742MOL0     C97819  -0.298   8.709   8.107  0.3034  0.2298 -0.5985
  742MOL0     O97820  -0.416   8.656   8.087 -0.1906  0.3103  0.3598
  742MOL0     C97821  -0.530   8.686   8.174 -0.3079 -0.5115 -0.0948
  742MOL0     C97822  -0.645   8.586   8.150  0.0687 -0.6704  0.4747
  742MOL0     C97823  -0.723   8.617   8.019 -0.2175  0.8223  0.0703
  742MOL0     C97824  -0.803   8.495   7.981  0.1218 -0.5167  0.4154
  742MOL0     C97825  -0.892   8.523   7.859  0.6615 -0.3407 -0.5846
  742MOL0     C97826  -0.996   8.633   7.893 -0.7811  0.6015  1.0580
  742MOL0     C97827  -1.119   8.622   7.792  0.4170  0.0961  0.0750
  742MOL0     C97828  -1.184   8.759   7.778 -0.1045  0.2178  0.0930
  742MOL0     N97829  -1.300   8.747   7.702  0.5580  0.3290  0.7139
  742MOL0     C97830  -1.415   8.694   7.754 -0.4614 -0.3787  0.3980
  742MOL0     C97831  -1.488   8.654   7.640 -0.1503  0.3014  0.2478
  742MOL0     C97832  -1.621   8.593   7.632 -0.2588 -0.1405  0.1936
  742MOL0     C97833  -1.732   8.697   7.598 -0.2344  0.0222  0.9042
  742MOL0     C97834  -1.868   8.627   7.587 -0.0373 -0.2819  0.2366
  742MOL0     C97835  -1.964   8.706   7.503 -0.2377  0.4116  0.6569
  742MOL0     O97836  -2.089   8.643   7.534  0.6392  1.1809 -0.0039
  742MOL0     C97837  -2.214   8.704   7.528  0.3834  1.3094  0.0004
  742MOL0     C97838  -2.308   8.667   7.625 -0.1486  0.4414  0.1301
  742MOL0     C97839  -2.430   8.736   7.627  0.8265  0.4638 -1.0072
  742MOL0     C97840  -2.472   8.821   7.525  0.0142 -0.3490  1.0805
  742MOL0     C97841  -2.605   8.882   7.518 -0.5151 -0.2782  0.1609
  742MOL0     O97842  -2.644   8.932   7.397 -0.1141 -0.2746  0.0608
  742MOL0     C97843  -2.779   8.949   7.389 -0.4512 -0.1984 -0.1207
  742MOL0     C97844  -2.856   8.855   7.319 -0.5344 -0.7707 -0.6243
  742MOL0     C97845  -2.992   8.872   7.337 -0.4395 -0.6959  0.2546
  742MOL0     C97846  -3.045   8.968   7.420 -0.8222  0.0407 -0.0470
  742MOL0     O97847  -3.171   8.979   7.463 -0.6470 -0.7839 -0.8425
  742MOL0     C97848  -3.273   8.904   7.392 -0.5403  0.5385 -0.6989
  742MOL0     C97849  -3.393   8.946   7.480 -1.2208 -0.8030 -0.1772
  742MOL0     C97850  -3.529   8.881   7.439 -0.1168 -0.4755  0.6792
  742MOL0     C97851  -3.639   8.884   7.547 -0.1800 -0.0917  0.5542
  742MOL0     C97852  -3.751   8.785   7.550  0.1332  0.4293  0.3149
  742MOL0     C97853  -3.853   8.815   7.654  0.4095 -0.2307  0.4433
  742MOL0     C97854  -3.986   8.751   7.620  0.5071  0.4617 -0.1117
  742MOL0     C97855  -4.061   8.727   7.749  0.1550  0.1399  0.4003
  742MOL0    Cl97856  -4.222   8.640   7.722  0.0084  0.1251 -0.1575
  742MOL0     C97857  -2.965   9.066   7.473 -0.2447 -0.9216 -0.1485
  742MOL0     C97858  -2.825   9.061   7.462  0.4837  0.3834 -1.0094
  742MOL0     O97859  -2.677   8.860   7.613  1.2060  0.0917  0.2126
  742MOL0     C97860  -2.377   8.857   7.428 -0.1191 -0.6133 -0.5599
  742MOL0     C97861  -2.245   8.805   7.440  0.3094  0.0871  0.0164
  742MOL0     N97862  -1.425   8.700   7.522  0.1764  0.8294 -0.5569
  742MOL0     N97863  -1.312   8.742   7.564  0.0085 -0.1550  0.0490
  742MOL0     C97864  -0.196   8.647   8.038 -0.5774 -0.0896 -0.2352
  742MOL0     C97865  -0.061   8.699   8.065  0.4906 -0.1217  0.4598
  742MOL0     C97866   0.244   8.909   8.375 -0.8971  0.6087  0.2055
  742MOL0     C97867   0.356   8.918   8.286 -0.2813 -0.8394  0.9776
  742MOL0     C97868   0.480   8.969   8.320 -0.5834 -0.0670  0.1014
  742MOL0     C97869   0.497   9.014   8.456  0.6727 -0.1725 -0.0296
  742MOL0     O97870   0.628   9.050   8.485  0.6843  0.3548  0.2074
  742MOL0     C97871   0.650   9.141   8.593 -0.5591  0.6850 -0.7113
  742MOL0     C97872   0.726   9.079   8.707  0.3406 -0.3012  0.4017
  742MOL0     C97873   0.857   9.018   8.659  0.1306  0.0234  0.5581
  742MOL0     C97874   0.948   8.953   8.759  0.5098  0.3834 -0.3566
  742MOL0     C97875   0.879   8.849   8.832 -0.3402  0.0055  0.6947
  742MOL0     C97876   0.825   8.763   8.895 -0.3392  0.0303 -0.8805
  742MOL0     C97877   0.393   8.998   8.551 -0.1465 -0.8945 -0.7691
  742MOL0     C97878   0.265   8.948   8.512  0.3842 -0.2590  0.5854
  742MOL0     H97879  -0.136   8.952   8.281 -0.7010 -0.8194  1.7416
  742MOL0     H97880  -0.361   8.874   8.244 -1.7791 -2.3150  1.1396
  742MOL0     H97881  -0.560   8.791   8.172 -0.8028 -0.6640 -1.2723
  742MOL0     H97882  -0.500   8.655   8.275 -0.7754  0.8734  0.4980
  742MOL0     H97883  -0.717   8.602   8.231 -0.7815  0.0443 -0.3931
  742MOL0     H97884  -0.600   8.487   8.161  0.6045 -0.6572 -1.2338
  742MOL0     H97885  -0.654   8.626   7.934 -0.4094  0.0178 -0.1804
  742MOL0     H97886  -0.784   8.708   8.016 -3.2660 -1.0854 -2.1966
  742MOL0     H97887  -0.726   8.421   7.961  0.2097 -0.2197 -0.4025
  742MOL0     H97888  -0.876   8.460   8.054  0.2915 -1.7112  0.0376
  742MOL0     H97889  -0.946   8.431   7.836 -0.7025 -0.0076  1.0381
  742MOL0     H97890  -0.822   8.548   7.779 -0.3503  1.0974 -1.0523
  742MOL0     H97891  -0.941   8.727   7.887 -0.5162  0.4120  0.4827
  742MOL0     H97892  -1.035   8.628   7.995  1.1409 -1.3297  1.7736
  742MOL0     H97893  -1.089   8.593   7.691  0.0344  1.4678 -0.4452
  742MOL0     H97894  -1.195   8.550   7.823 -0.6428 -0.4108 -3.2475
  742MOL0     H97895  -1.123   8.830   7.721 -0.2384  0.2112 -0.0588
  742MOL0     H97896  -1.200   8.813   7.871 -2.7836 -1.9793  1.0603
  742MOL0     H97897  -1.455   8.694   7.855 -1.4645 -0.2470  0.0070
  742MOL0     H97898  -1.641   8.529   7.719  2.1018  1.3603  1.9586
  742MOL0     H97899  -1.612   8.522   7.550  1.7206  0.6731 -0.3439
  742MOL0     H97900  -1.710   8.746   7.503  1.5702  0.3384  1.4435
  742MOL0     H97901  -1.730   8.777   7.673  2.2859  1.6149 -0.6952
  742MOL0     H97902  -1.858   8.523   7.552  0.4906 -0.6909  1.5373
  742MOL0     H97903  -1.917   8.626   7.685  0.1466 -0.5609  0.3300
  742MOL0     H97904  -1.939   8.688   7.398  2.3201 -2.1116  1.5530
  742MOL0     H97905  -1.966   8.813   7.523  0.7126  0.2459  1.8019
  742MOL0     H97906  -2.290   8.597   7.706 -2.3066  1.3514  1.4758
  742MOL0     H97907  -2.505   8.700   7.696  2.1173 -0.6051 -0.1100
  742MOL0     H97908  -2.815   8.774   7.261  2.9888  0.6848 -0.4380
  742MOL0     H97909  -3.054   8.804   7.280  0.1328 -0.4371 -0.7016
  742MOL0     H97910  -3.238   8.800   7.401  2.8584  1.7152  1.8303
  742MOL0     H97911  -3.287   8.935   7.289 -1.5340  0.7268 -0.5197
  742MOL0     H97912  -3.391   9.054   7.464  0.4600 -1.0468 -1.9596
  742MOL0     H97913  -3.374   8.935   7.587 -1.7703 -0.5627 -0.0508
  742MOL0     H97914  -3.514   8.778   7.406 -1.9165 -0.3341 -0.7387
  742MOL0     H97915  -3.565   8.939   7.353  2.1718 -0.5620 -0.4016
  742MOL0     H97916  -3.582   8.883   7.641 -2.8207  1.3324  2.2745
  742MOL0     H97917  -3.681   8.985   7.552  0.8933  0.3237  2.6893
  742MOL0     H97918  -3.700   8.690   7.567  0.7872  0.4687 -1.2135
  742MOL0     H97919  -3.795   8.780   7.450  1.5631  0.2745 -0.3384
  742MOL0     H97920  -3.881   8.920   7.670 -1.6900 -0.9306  1.7475
  742MOL0     H97921  -3.811   8.788   7.751 -1.7040  0.1210  1.5142
  742MOL0     H97922  -4.040   8.807   7.543 -1.4850  2.1378  2.3194
  742MOL0     H97923  -3.974   8.657   7.567 -3.6110  0.2061 -0.9290
  742MOL0     H97924  -4.080   8.823   7.796  0.8842  0.0827  0.8293
  742MOL0     H97925  -3.995   8.673   7.818  1.4833  0.4863 -0.5494
  742MOL0     H97926  -3.009   9.138   7.540  1.3848 -1.4571  1.5785
  742MOL0     H97927  -2.759   9.126   7.518 -1.1162 -0.4608  2.0810
  742MOL0     H97928  -2.406   8.934   7.357 -1.7508  0.9222  1.6440
  742MOL0     H97929  -2.171   8.844   7.371  1.5524 -0.8920  0.7365
  742MOL0     H97930  -0.215   8.566   7.969 -0.8347  1.3768 -1.9749
  742MOL0     H97931   0.023   8.670   8.003 -0.1892 -0.6923 -0.2171
  742MOL0     H97932   0.340   8.894   8.182 -1.9318 -1.0388  1.2619
  742MOL0     H97933   0.560   8.983   8.248 -1.3015  2.0412 -0.3666
  742MOL0     H97934   0.561   9.183   8.640 -0.4978 -1.6840  1.6751
  742MOL0     H97935   0.705   9.229   8.556 -0.9380  1.5171  0.6476
  742MOL0     H97936   0.752   9.155   8.782  1.3719 -1.0267  0.8033
  742MOL0     H97937   0.660   9.006   8.753 -2.0807  1.3229 -0.3316
  742MOL0     H97938   0.914   9.100   8.615  1.0477 -0.9528 -0.1031
  742MOL0     H97939   0.840   8.955   8.572  2.9935  2.7315 -2.2571
  742MOL0     H97940   1.043   8.916   8.717  3.0690  4.2984  1.3914
  742MOL0     H97941   0.990   9.024   8.830 -0.9422  0.5564  0.3536
  742MOL0     H97942   0.782   8.678   8.944  2.8193 -2.2547 -1.7127
  742MOL0     H97943   0.409   9.034   8.653  0.8999 -0.4513 -1.0803
  742MOL0     H97944   0.187   8.918   8.582  0.1029  1.0420  0.8609
  743MOL0     O97945   9.098   5.396   0.730 -0.6956 -0.1985  0.2004
  743MOL0     C97946   9.027   5.333   0.814  0.1834  0.3519  0.9966
  743MOL0     O97947   9.059   5.214   0.860  0.3730 -0.8297 -0.7595
  743MOL0     C97948   9.169   5.161   0.799  0.8935 -0.1455 -0.3444
  743MOL0     C97949   9.156   5.055   0.707 -0.3488 -0.0114 -0.0257
  743MOL0     C97950   9.272   5.006   0.642 -0.3969  0.2939 -0.2276
  743MOL0     C97951   9.397   5.053   0.688 -0.1804 -0.7463 -0.0116
  743MOL0     O97952   9.518   5.006   0.645 -0.0165  0.4102  0.1373
  743MOL0     C97953   9.515   4.949   0.511 -0.5370 -0.3025  1.1904
  743MOL0     C97954   9.664   4.935   0.451 -0.1882  0.4695 -0.2334
  743MOL0     C97955   9.665   4.911   0.305 -0.2779 -0.8814 -0.4900
  743MOL0     C97956   9.813   4.883   0.255  0.5892 -0.0081  0.6868
  743MOL0     C97957   9.867   4.743   0.292  0.0039  0.5019 -0.1410
  743MOL0     C97958  10.000   4.728   0.226  0.9889  0.7050  0.0739
  743MOL0     C97959  10.105   4.835   0.248  0.5975  0.1956 -1.0118
  743MOL0     C97960  10.253   4.781   0.221 -0.1304  0.7443  0.7548
  743MOL0     N97961  10.344   4.895   0.220  0.5645 -0.9130  0.1538
  743MOL0     C97962  10.373   4.980   0.116 -0.3021 -0.1453  0.9689
  743MOL0     C97963  10.486   5.051   0.158  0.6579  0.4110  0.1879
  743MOL0     C97964  10.543   5.150   0.065  0.0106 -0.1936 -0.8475
  743MOL0     C97965  10.459   5.272   0.033  0.4711 -0.2730  0.1646
  743MOL0     C97966  10.522   5.364  -0.079 -0.4576  0.0921 -0.6010
  743MOL0     C97967  10.421   5.479  -0.107 -0.1608 -0.4381  0.2723
  743MOL0     O97968  10.423   5.571   0.005  0.3691  0.1187 -0.1273
  743MOL0     C97969  10.505   5.676  -0.012  0.5543 -0.3558 -0.7439
  743MOL0     C97970  10.586   5.721   0.091  0.4411  0.1407 -0.0504
  743MOL0     C97971  10.678   5.826   0.061  0.4885 -0.6375  0.3123
  743MOL0     C97972  10.684   5.896  -0.062 -0.7534  0.2036  1.0503
  743MOL0     C97973  10.786   6.013  -0.077  0.0405 -0.8455 -0.1697
  743MOL0     O97974  10.798   6.065  -0.206 -0.4417 -0.1546  0.2717
  743MOL0     C97975  10.892   6.159  -0.236  0.2430  0.1540  0.2748
  743MOL0     C97976  10.848   6.262  -0.317  0.1014  0.4744  0.1310
  743MOL0     C97977  10.941   6.348  -0.369 -0.5013 -0.0588 -0.8852
  743MOL0     C97978  11.083   6.337  -0.350  0.3233 -0.5289  0.6272
  743MOL0     O97979  11.162   6.436  -0.406  0.8684  0.2915  0.2780
  743MOL0     C97980  11.295   6.440  -0.375  0.2804 -0.2294 -0.5462
  743MOL0     C97981  11.348   6.574  -0.441 -0.3851 -0.2013  0.5255
  743MOL0     C97982  11.500   6.566  -0.476 -0.1357  0.8335 -0.3747
  743MOL0     C97983  11.548   6.695  -0.533  0.3921 -0.1440  0.0734
  743MOL0     C97984  11.695   6.714  -0.569 -0.2589 -0.1336  0.5362
  743MOL0     C97985  11.787   6.716  -0.437 -0.2311 -0.6032  0.3448
  743MOL0     C97986  11.925   6.659  -0.445 -0.5604  0.8854 -0.2397
  743MOL0     C97987  12.033   6.754  -0.491 -0.5706  0.8163  0.9054
  743MOL0    Cl97988  12.068   6.888  -0.374  0.3783 -0.0841 -0.0267
  743MOL0     C97989  11.116   6.234  -0.265  0.1918 -0.1334  0.9491
  743MOL0     C97990  11.028   6.137  -0.214  0.1046 -0.5352  0.1223
  743MOL0     O97991  10.856   6.050   0.014  0.3153  0.2807  0.0971
  743MOL0     C97992  10.591   5.858  -0.159 -0.0385 -0.1209  1.4183
  743MOL0     C97993  10.517   5.748  -0.135 -0.4413 -0.0407 -0.2206
  743MOL0     N97994  10.517   5.026   0.284 -0.6764  0.6892  0.2547
  743MOL0     N97995  10.442   4.918   0.310 -0.0987  0.0844 -0.2028
  743MOL0     C97996   9.411   5.136   0.796 -0.1606  0.1474 -0.5461
  743MOL0     C97997   9.291   5.196   0.857  0.7666  0.4036 -0.7675
  743MOL0     C97998   8.901   5.396   0.850  0.1916  0.1984 -0.2407
  743MOL0     C97999   8.810   5.321   0.916 -0.8938 -0.5411 -0.4790
  743MOL0     C98000   8.693   5.376   0.966 -0.2071 -0.1416  0.2587
  743MOL0     C98001   8.658   5.513   0.945  0.1419 -0.0455 -0.2504
  743MOL0     O98002   8.531   5.551   0.986 -0.2414  0.4282  0.3212
  743MOL0     C98003   8.488   5.683   0.950 -0.5489  0.3811 -0.1126
  743MOL0     C98004   8.457   5.697   0.806  0.2605  0.6056 -1.0964
  743MOL0     C98005   8.357   5.576   0.780 -0.4690 -0.0333  0.3116
  743MOL0     C98006   8.274   5.595   0.658  0.2589 -0.2468 -0.0777
  743MOL0     C98007   8.189   5.715   0.681 -0.0815  0.3061  0.8812
  743MOL0     C98008   8.112   5.815   0.680 -0.8406 -0.3391 -0.0057
  743MOL0     C98009   8.749   5.588   0.870 -0.2823  0.1629 -0.3058
  743MOL0     C98010   8.877   5.530   0.839 -0.1338 -0.7458 -0.5051
  743MOL0     H98011   9.062   5.001   0.708 -1.0159  1.0996 -0.7414
  743MOL0     H98012   9.254   4.914   0.587 -1.6892 -1.0845  2.2909
  743MOL0     H98013   9.459   5.023   0.453 -1.0226 -1.0493  0.7003
  743MOL0     H98014   9.474   4.850   0.494  1.3001 -0.5394 -3.2742
  743MOL0     H98015   9.714   4.852   0.502 -1.5179  0.4463  1.1284
  743MOL0     H98016   9.735   5.015   0.471  2.3821 -1.1260 -2.2847
  743MOL0     H98017   9.614   4.991   0.252  1.0052 -0.1524 -0.6687
  743MOL0     H98018   9.607   4.820   0.288  1.2176 -1.9679  0.0026
  743MOL0     H98019   9.820   4.897   0.146 -2.6316 -0.5438  0.3133
  743MOL0     H98020   9.877   4.954   0.308 -0.8393 -0.8684  3.7490
  743MOL0     H98021   9.800   4.664   0.257  0.4850 -0.9723  2.0974
  743MOL0     H98022   9.859   4.733   0.400 -0.2180 -1.1981 -0.2901
  743MOL0     H98023   9.981   4.715   0.118 -0.4163  1.1028  0.2492
  743MOL0     H98024  10.038   4.634   0.267  0.2017  1.2329  2.1082
  743MOL0     H98025  10.093   4.913   0.173 -0.8129 -1.4373 -2.5602
  743MOL0     H98026  10.114   4.871   0.351 -1.0347  0.5409 -0.9617
  743MOL0     H98027  10.245   4.738   0.121 -1.4960  2.9012 -0.1330
  743MOL0     H98028  10.281   4.705   0.295  1.5027  1.1448  0.5883
  743MOL0     H98029  10.327   4.983   0.018 -1.9795  4.7416  1.6363
  743MOL0     H98030  10.559   5.117  -0.038  0.9018  1.6493 -1.3319
  743MOL0     H98031  10.639   5.177   0.109  0.2679  0.2437 -1.6619
  743MOL0     H98032  10.442   5.320   0.129 -2.0197 -1.0662  0.1949
  743MOL0     H98033  10.361   5.250  -0.011 -0.0892  1.4330  0.4971
  743MOL0     H98034  10.617   5.403  -0.041 -1.2148 -0.9037  2.5708
  743MOL0     H98035  10.548   5.317  -0.175 -0.1428  1.0591 -1.0009
  743MOL0     H98036  10.320   5.438  -0.114 -0.0927 -0.7408  0.9538
  743MOL0     H98037  10.445   5.522  -0.205 -2.2895 -0.4766 -0.3136
  743MOL0     H98038  10.583   5.668   0.186 -1.5408 -0.4600 -0.4162
  743MOL0     H98039  10.750   5.848   0.140 -0.5390  0.3228  1.0218
  743MOL0     H98040  10.743   6.269  -0.343 -0.3537 -1.6358  1.2132
  743MOL0     H98041  10.918   6.437  -0.427  1.3563  0.2493 -1.2293
  743MOL0     H98042  11.331   6.349  -0.424 -4.6111 -1.0200 -3.3674
  743MOL0     H98043  11.314   6.441  -0.267 -0.9876 -0.1460 -0.3070
  743MOL0     H98044  11.337   6.651  -0.364  2.3756 -1.3802  2.2605
  743MOL0     H98045  11.291   6.605  -0.529  1.8752  0.1465 -0.9031
  743MOL0     H98046  11.523   6.486  -0.546 -0.8966  0.0495  0.2448
  743MOL0     H98047  11.562   6.544  -0.389  0.1653  0.6889 -0.6266
  743MOL0     H98048  11.497   6.723  -0.626  1.4613  1.5644 -0.0548
  743MOL0     H98049  11.519   6.768  -0.458 -0.5274 -1.3477  0.9243
  743MOL0     H98050  11.716   6.803  -0.629  2.9507  0.0926  1.8352
  743MOL0     H98051  11.732   6.630  -0.629  0.0359 -1.1103  2.0293
  743MOL0     H98052  11.736   6.641  -0.375 -2.5189 -0.9299 -1.7682
  743MOL0     H98053  11.793   6.811  -0.384  1.6411 -0.5739  0.1384
  743MOL0     H98054  11.961   6.634  -0.344  1.7068 -0.9016 -1.4008
  743MOL0     H98055  11.916   6.574  -0.512 -0.8061  0.7280 -0.0092
  743MOL0     H98056  12.018   6.803  -0.587 -2.4020 -0.1961  0.6262
  743MOL0     H98057  12.131   6.707  -0.506 -1.3830 -0.9374  0.7662
  743MOL0     H98058  11.216   6.213  -0.229  1.3584  3.1099 -0.0905
  743MOL0     H98059  11.043   6.040  -0.167 -3.3656 -0.4071  1.8106
  743MOL0     H98060  10.594   5.902  -0.258 -3.2328 -1.0946  0.7793
  743MOL0     H98061  10.444   5.719  -0.209  1.6278 -0.7629 -2.1037
  743MOL0     H98062   9.510   5.164   0.829  0.2026 -0.0304 -1.4615
  743MOL0     H98063   9.293   5.265   0.940  1.1889  0.8869 -1.1684
  743MOL0     H98064   8.811   5.214   0.936 -0.6643 -0.3297  0.7375
  743MOL0     H98065   8.615   5.308   0.999 -3.0493  1.8184 -2.0070
  743MOL0     H98066   8.566   5.757   0.972  0.6577 -0.6464 -0.8355
  743MOL0     H98067   8.405   5.710   1.016 -1.5168 -1.1441 -0.6573
  743MOL0     H98068   8.410   5.793   0.785  0.1081  1.5431  2.6857
  743MOL0     H98069   8.545   5.681   0.744  0.5164 -1.0044 -0.3659
  743MOL0     H98070   8.293   5.559   0.867 -0.6061 -1.3605 -0.0363
  743MOL0     H98071   8.419   5.486   0.771 -0.5656 -0.1095  0.4087
  743MOL0     H98072   8.349   5.625   0.585  1.2216 -2.5688 -0.1159
  743MOL0     H98073   8.220   5.510   0.617  0.7970 -1.3444  1.4142
  743MOL0     H98074   8.065   5.910   0.660 -1.0479 -0.8686 -2.3146
  743MOL0     H98075   8.732   5.694   0.852  2.8436  1.0086  1.0859
  743MOL0     H98076   8.943   5.603   0.791 -0.5712 -0.8537 -1.2769
  744MOL0     O98077   9.744   9.834   0.384 -0.6002  0.8908 -0.0832
  744MOL0     C98078   9.796   9.732   0.342 -0.2676 -0.2112 -0.3682
  744MOL0     O98079   9.734   9.613   0.321 -0.4303  0.1383  0.1898
  744MOL0     C98080   9.597   9.594   0.351  0.6873  0.4275 -0.4422
  744MOL0     C98081   9.523   9.643   0.458 -0.4055  0.0521 -1.3912
  744MOL0     C98082   9.396   9.597   0.488  0.7075 -0.2126 -0.2654
  744MOL0     C98083   9.334   9.492   0.414  1.2026  0.1839  0.2407
  744MOL0     O98084   9.222   9.428   0.456 -0.1904 -0.4901 -0.1586
  744MOL0     C98085   9.122   9.487   0.548 -0.6081  0.2317  0.4618
  744MOL0     C98086   9.002   9.407   0.582  0.2420 -0.1084 -0.2254
  744MOL0     C98087   8.934   9.470   0.708  0.0138  0.5149  0.4763
  744MOL0     C98088   8.796   9.409   0.732  0.7251  0.2477 -0.4570
  744MOL0     C98089   8.721   9.483   0.848 -0.6786  0.0883 -0.1023
  744MOL0     C98090   8.593   9.400   0.883 -0.7373  1.0158  0.6247
  744MOL0     C98091   8.473   9.488   0.921 -0.0289 -0.2451  0.0822
  744MOL0     C98092   8.344   9.408   0.899  0.3622  0.2369  0.0147
  744MOL0     N98093   8.243   9.466   0.978  0.7687 -0.0166  0.3514
  744MOL0     C98094   8.194   9.422   1.096 -0.1913 -0.3025 -0.5736
  744MOL0     C98095   8.085   9.499   1.109  0.5106 -0.0161  0.3860
  744MOL0     C98096   7.987   9.495   1.215  0.8805  0.6156  0.6797
  744MOL0     C98097   7.845   9.459   1.175 -0.5307 -0.7583 -0.1682
  744MOL0     C98098   7.762   9.579   1.176  0.5006  0.6047  0.4043
  744MOL0     C98099   7.615   9.537   1.159  1.3433  0.8552  0.3105
  744MOL0     O98100   7.512   9.638   1.167 -0.6870  0.0810 -0.0049
  744MOL0     C98101   7.380   9.604   1.179  0.3838  0.8804  0.8410
  744MOL0     C98102   7.287   9.712   1.180  0.1444  0.8258 -0.0002
  744MOL0     C98103   7.147   9.690   1.182 -0.5218 -0.3273 -0.2183
  744MOL0     C98104   7.106   9.555   1.191 -0.0200 -0.1589 -0.7320
  744MOL0     C98105   6.961   9.535   1.200 -0.5780  0.8794  0.5824
  744MOL0     O98106   6.871   9.642   1.203 -0.2067  0.0731 -0.0536
  744MOL0     C98107   6.737   9.630   1.200  0.2826  0.0088  0.0390
  744MOL0     C98108   6.668   9.749   1.252  0.6632  0.4164 -0.1028
  744MOL0     C98109   6.529   9.745   1.276  0.1885  0.4333  0.6695
  744MOL0     C98110   6.456   9.631   1.239 -1.1381  0.0757 -0.7207
  744MOL0     O98111   6.331   9.637   1.275  0.8921  0.1048 -0.1399
  744MOL0     C98112   6.242   9.615   1.163  0.2441 -0.5861  0.0776
  744MOL0     C98113   6.103   9.650   1.197  0.1034  0.0082  0.0141
  744MOL0     C98114   6.020   9.653   1.071 -0.3384  1.4101 -0.0023
  744MOL0     C98115   5.879   9.685   1.099  0.4890 -0.5928 -0.1836
  744MOL0     C98116   5.798   9.577   1.180  0.0757 -0.1107 -0.1708
  744MOL0     C98117   5.648   9.618   1.164  0.2201  0.1736 -0.0890
  744MOL0     C98118   5.538   9.564   1.270 -0.2153 -0.0114  0.1117
  744MOL0     C98119   5.513   9.419   1.257  0.5394  0.1856 -0.7482
  744MOL0    Cl98120   5.381   9.362   1.366  0.4781  0.0327  0.0425
  744MOL0     C98121   6.526   9.524   1.175  0.4970 -0.6149  0.1202
  744MOL0     C98122   6.666   9.519   1.165  0.1387  0.0478  0.0096
  744MOL0     O98123   6.926   9.414   1.200  0.3140 -0.4370 -0.0011
  744MOL0     C98124   7.200   9.450   1.200 -0.2393 -0.3032 -0.4055
  744MOL0     C98125   7.334   9.473   1.195 -0.2297  0.5465 -0.1367
  744MOL0     N98126   8.070   9.593   1.011 -0.4096  0.3673  0.5710
  744MOL0     N98127   8.172   9.574   0.933 -0.3465  0.1959 -0.4313
  744MOL0     C98128   9.407   9.440   0.311 -0.8434 -0.4747 -0.1950
  744MOL0     C98129   9.532   9.503   0.272 -0.0021  0.6405 -0.0579
  744MOL0     C98130   9.938   9.742   0.312  0.5468 -0.2299 -0.2802
  744MOL0     C98131  10.011   9.860   0.345  0.3569  0.4044  0.4803
  744MOL0     C98132  10.139   9.884   0.289 -0.2038  0.1902 -1.2162
  744MOL0     C98133  10.216   9.786   0.226  0.3709  0.1593 -0.3462
  744MOL0     O98134  10.344   9.793   0.171  0.5626  0.2355  0.1236
  744MOL0     C98135  10.429   9.908   0.193  0.5820  0.5679 -0.4500
  744MOL0     C98136  10.393  10.023   0.090  0.4707  0.2222 -0.1681
  744MOL0     C98137  10.503  10.132   0.084 -0.5741  1.1505  0.8352
  744MOL0     C98138  10.449  10.241  -0.009 -0.1554 -0.1854 -0.4436
  744MOL0     C98139  10.557  10.347  -0.036 -0.3027 -0.3980  0.3779
  744MOL0     C98140  10.644  10.431  -0.059  0.1745 -0.8835 -0.1718
  744MOL0     C98141  10.146   9.663   0.208 -0.2961  0.4918  0.4087
  744MOL0     C98142  10.007   9.641   0.251  0.4347 -0.7010 -0.0343
  744MOL0     H98143   9.551   9.711   0.538 -2.9213 -1.6580  1.1077
  744MOL0     H98144   9.339   9.643   0.568  0.1109  0.5584 -1.1128
  744MOL0     H98145   9.110   9.584   0.499  1.8560 -0.7574 -2.4831
  744MOL0     H98146   9.174   9.503   0.643  1.1334 -0.0078 -0.3902
  744MOL0     H98147   9.037   9.307   0.610  3.8057  1.7490  2.7563
  744MOL0     H98148   8.939   9.397   0.493 -0.4639  0.4328  0.2015
  744MOL0     H98149   8.920   9.578   0.698 -2.3778  0.0956 -1.7732
  744MOL0     H98150   9.003   9.457   0.792  2.6329  1.4403 -1.4132
  744MOL0     H98151   8.738   9.435   0.643  0.4881 -0.5611 -0.5423
  744MOL0     H98152   8.801   9.301   0.744 -0.3047  0.0353 -1.7146
  744MOL0     H98153   8.698   9.583   0.810  1.6549 -0.1777 -2.4598
  744MOL0     H98154   8.795   9.488   0.929 -0.9782  1.8995  0.0933
  744MOL0     H98155   8.614   9.330   0.964  1.6165  0.7755 -0.1224
  744MOL0     H98156   8.561   9.340   0.797  0.9041  0.2393  0.5121
  744MOL0     H98157   8.481   9.512   1.028 -3.6117 -0.2437  0.4879
  744MOL0     H98158   8.473   9.574   0.854 -0.9677 -0.0739  0.2797
  744MOL0     H98159   8.362   9.306   0.933  0.2575  0.3381  0.3871
  744MOL0     H98160   8.320   9.390   0.794  0.5911  0.3386 -0.0555
  744MOL0     H98161   8.233   9.345   1.162  0.6693  1.6785  1.3884
  744MOL0     H98162   7.989   9.589   1.271 -0.4171  0.8589  0.3589
  744MOL0     H98163   8.025   9.429   1.293  3.3680 -0.6325 -1.4680
  744MOL0     H98164   7.816   9.391   1.256  1.3381 -1.9073 -0.3986
  744MOL0     H98165   7.847   9.403   1.080  0.8691  0.3339 -0.8141
  744MOL0     H98166   7.767   9.641   1.266  0.1542 -0.0198  0.8620
  744MOL0     H98167   7.793   9.638   1.090  0.6782 -1.9162 -1.3753
  744MOL0     H98168   7.594   9.455   1.229  2.1508  1.4103  1.2205
  744MOL0     H98169   7.613   9.481   1.065  2.4725 -1.8329  1.7424
  744MOL0     H98170   7.320   9.815   1.191  0.0937  0.9161 -0.6927
  744MOL0     H98171   7.080   9.775   1.189  0.1301  0.1935 -0.2097
  744MOL0     H98172   6.713   9.845   1.275  0.6069  0.9632 -2.0638
  744MOL0     H98173   6.475   9.830   1.317  0.5355  2.2687 -2.3603
  744MOL0     H98174   6.238   9.508   1.140 -0.3464 -0.4842 -0.2931
  744MOL0     H98175   6.278   9.685   1.087  0.0221 -1.5077 -0.9037
  744MOL0     H98176   6.101   9.747   1.246 -2.0389 -0.3154  0.6486
  744MOL0     H98177   6.073   9.575   1.271 -0.7832  0.7568  0.4234
  744MOL0     H98178   6.022   9.552   1.029 -4.2126  0.2488  2.0639
  744MOL0     H98179   6.061   9.723   0.998 -1.0344  1.1791 -0.6267
  744MOL0     H98180   5.873   9.783   1.149 -3.1277  0.2183 -1.9247
  744MOL0     H98181   5.829   9.693   1.002 -1.8873  0.2943  1.0315
  744MOL0     H98182   5.816   9.584   1.288  0.6513  0.7029 -0.3072
  744MOL0     H98183   5.807   9.478   1.136 -1.7898  0.2341 -1.4582
  744MOL0     H98184   5.615   9.611   1.060  0.5074  3.0104 -0.4646
  744MOL0     H98185   5.655   9.726   1.178  0.3766  0.1942 -0.3240
  744MOL0     H98186   5.574   9.581   1.372  2.3314 -1.8117 -0.3860
  744MOL0     H98187   5.445   9.621   1.260  0.8995  2.4309  2.4904
  744MOL0     H98188   5.605   9.366   1.285  0.4783  1.6910  2.8449
  744MOL0     H98189   5.486   9.384   1.157  1.0620  0.3928 -0.9687
  744MOL0     H98190   6.462   9.441   1.149 -0.2063 -0.2930  0.7714
  744MOL0     H98191   6.713   9.431   1.122  1.8835  2.2113 -2.8931
  744MOL0     H98192   7.169   9.346   1.204  1.5615 -0.8487  0.8862
  744MOL0     H98193   7.404   9.391   1.190 -1.3437 -0.5342  1.2770
  744MOL0     H98194   9.364   9.361   0.250  1.9001 -0.2493 -2.6640
  744MOL0     H98195   9.589   9.485   0.181  0.1800  1.3583 -0.0907
  744MOL0     H98196   9.951   9.940   0.387 -0.4631  1.3962 -2.3661
  744MOL0     H98197  10.185   9.980   0.312  1.3345 -0.9223  0.5959
  744MOL0     H98198  10.533   9.873   0.184 -0.1873 -1.9608 -0.1877
  744MOL0     H98199  10.410   9.950   0.292  0.8650 -0.3248 -0.0052
  744MOL0     H98200  10.374   9.975  -0.007 -0.8697  0.1459  0.1096
  744MOL0     H98201  10.297  10.068   0.118 -2.2258 -4.4198 -0.8489
  744MOL0     H98202  10.594  10.088   0.042 -0.6037  2.1870 -0.3795
  744MOL0     H98203  10.533  10.180   0.178  1.3319  1.1821  0.2525
  744MOL0     H98204  10.409  10.200  -0.103  0.8714 -3.0375  0.2750
  744MOL0     H98205  10.365  10.290   0.042  2.1228  1.8906  1.5354
  744MOL0     H98206  10.714  10.510  -0.075 -0.6005 -0.5741 -2.3491
  744MOL0     H98207  10.202   9.585   0.157 -0.1259  0.5377  0.5239
  744MOL0     H98208   9.959   9.544   0.244  0.8018 -0.9043  0.2247
  745MOL0     O98209   6.303  10.643  10.088 -0.2283 -0.0081  0.0471
  745MOL0     C98210   6.360  10.592  10.189  0.2870 -0.8413 -0.8226
  745MOL0     O98211   6.314  10.502  10.280  0.0855  0.2305 -0.1052
  745MOL0     C98212   6.207  10.426  10.249 -0.1206  0.0223  0.4096
  745MOL0     C98213   6.160  10.397  10.118  0.2517 -0.1312  0.5263
  745MOL0     C98214   6.046  10.315  10.102  0.7345 -0.0242 -0.5650
  745MOL0     C98215   5.965  10.276  10.211 -0.3520 -0.6966 -0.3800
  745MOL0     O98216   5.843  10.205  10.209 -0.0674  0.5874  0.4232
  745MOL0     C98217   5.772  10.192  10.086 -0.1450 -0.8742  0.0541
  745MOL0     C98218   5.626  10.173  10.131  0.3532 -0.2214  0.1919
  745MOL0     C98219   5.520  10.178  10.022 -0.4278 -1.1657 -0.0996
  745MOL0     C98220   5.378  10.182  10.088 -0.4062 -0.5498 -0.9240
  745MOL0     C98221   5.275  10.190   9.982 -0.2259 -0.3240 -0.6883
  745MOL0     C98222   5.161  10.099  10.019 -0.1113  0.3568 -0.0394
  745MOL0     C98223   5.055  10.138   9.908  0.3036  1.0652  0.2296
  745MOL0     C98224   4.977  10.267   9.933  0.3552  0.1458  0.5725
  745MOL0     N98225   4.871  10.260  10.040  0.7456  0.3079  0.3088
  745MOL0     C98226   4.893  10.300  10.165 -0.6718 -0.5820 -0.0261
  745MOL0     C98227   4.776  10.323  10.224  0.2982 -0.3132 -0.6584
  745MOL0     C98228   4.751  10.367  10.364 -0.7124 -0.3685 -0.4527
  745MOL0     C98229   4.616  10.446  10.394  0.6494 -0.7447 -0.6278
  745MOL0     C98230   4.613  10.589  10.359  0.7232  0.7750  0.0987
  745MOL0     C98231   4.707  10.678  10.435  0.0702  0.2611  0.1641
  745MOL0     O98232   4.685  10.702  10.573  0.7101 -0.2446  0.2026
  745MOL0     C98233   4.574  10.768  10.620 -0.6287  0.0936  0.4131
  745MOL0     C98234   4.478  10.828  10.527  0.6520  0.2514  0.3420
  745MOL0     C98235   4.381  10.908  10.592  0.6394 -0.5068 -0.0476
  745MOL0     C98236   4.370  10.920  10.733  0.4214  0.9552 -0.6158
  745MOL0     C98237   4.255  10.999  10.777  0.3710  0.1505 -0.1747
  745MOL0     O98238   4.190  10.943  10.883 -0.3275  0.2259  0.2331
  745MOL0     C98239   4.059  10.980  10.911 -0.9138 -0.3204  0.7406
  745MOL0     C98240   3.973  10.992  10.805 -0.1161  0.7625  0.2806
  745MOL0     C98241   3.839  11.002  10.817  0.4504 -0.2710 -0.1324
  745MOL0     C98242   3.792  11.012  10.953  0.3237 -0.3032  0.7629
  745MOL0     O98243   3.661  11.045  10.984 -0.2801 -0.9326 -0.2698
  745MOL0     C98244   3.589  10.947  11.067 -0.6499  0.3340 -0.3872
  745MOL0     C98245   3.439  10.943  11.034  1.1731 -0.0490  0.2301
  745MOL0     C98246   3.360  11.044  11.128 -0.7555  0.0429  0.1176
  745MOL0     C98247   3.214  11.053  11.091  0.7021  0.3152 -1.0317
  745MOL0     C98248   3.132  10.925  11.100  0.4675  0.3800 -0.5631
  745MOL0     C98249   2.993  10.955  11.054  0.3380  1.1234  0.3727
  745MOL0     C98250   2.899  10.837  11.088  0.3022  0.7957 -0.3783
  745MOL0     C98251   2.755  10.880  11.051 -0.4040 -1.2504 -0.2663
  745MOL0    Cl98252   2.638  10.771  11.117  0.1479  0.4125 -0.4647
  745MOL0     C98253   3.884  11.005  11.060  0.4211  0.4011 -0.4751
  745MOL0     C98254   4.015  10.988  11.039 -0.5136 -0.5982  0.5317
  745MOL0     O98255   4.221  11.104  10.719 -0.0802  0.1247 -0.8967
  745MOL0     C98256   4.463  10.846  10.814 -0.5787 -1.0117 -0.1266
  745MOL0     C98257   4.565  10.772  10.758  0.3040 -1.2665 -0.2671
  745MOL0     N98258   4.681  10.302  10.127 -0.2406  1.0246  0.4222
  745MOL0     N98259   4.737  10.264  10.016  0.6243 -0.1402 -0.1729
  745MOL0     C98260   6.010  10.315  10.339  0.6655 -0.2368 -0.1034
  745MOL0     C98261   6.124  10.394  10.355 -0.3806 -0.0411 -0.0095
  745MOL0     C98262   6.485  10.659  10.233 -0.2080  0.1971 -0.3135
  745MOL0     C98263   6.534  10.767  10.164  0.0439  0.0373  0.2555
  745MOL0     C98264   6.649  10.837  10.204 -0.0419 -0.2572  0.1158
  745MOL0     C98265   6.727  10.795  10.309  0.2757 -0.1792  0.0127
  745MOL0     O98266   6.842  10.868  10.324 -0.0532  0.1087  0.3525
  745MOL0     C98267   6.946  10.792  10.390 -0.5245 -0.2141 -0.2222
  745MOL0     C98268   7.080  10.861  10.375  0.1333  0.5794 -0.7788
  745MOL0     C98269   7.175  10.770  10.454 -0.0165  0.7156  0.0184
  745MOL0     C98270   7.320  10.807  10.425  0.0467 -0.2344 -0.4559
  745MOL0     C98271   7.410  10.716  10.507 -0.4409  0.2825  0.1620
  745MOL0     C98272   7.488  10.648  10.564  0.1527 -0.1820  0.1658
  745MOL0     C98273   6.682  10.683  10.386  0.6676 -1.1318  1.3702
  745MOL0     C98274   6.559  10.620  10.349  0.2083  0.0638 -0.1422
  745MOL0     H98275   6.203  10.443  10.030 -1.6563 -2.7220 -1.9503
  745MOL0     H98276   6.019  10.283  10.002  2.3840 -2.3427 -0.3378
  745MOL0     H98277   5.803  10.112  10.018 -2.0364 -0.3136 -1.5946
  745MOL0     H98278   5.787  10.277  10.018  4.2015 -1.8080 -0.4242
  745MOL0     H98279   5.596  10.255  10.196  0.0221  0.1802 -0.4610
  745MOL0     H98280   5.625  10.084  10.195  2.0624  0.3637  1.0860
  745MOL0     H98281   5.525  10.083   9.967 -1.3643 -0.5321 -1.3302
  745MOL0     H98282   5.545  10.260   9.955  0.1863 -1.5430 -0.3457
  745MOL0     H98283   5.357  10.098  10.156 -2.4595  0.8784  0.3260
  745MOL0     H98284   5.361  10.271  10.148 -0.8788 -1.7980  0.8999
  745MOL0     H98285   5.318  10.153   9.888  1.5989 -1.5176  0.5409
  745MOL0     H98286   5.241  10.294   9.979  2.5854  0.6934 -0.1383
  745MOL0     H98287   5.125  10.125  10.118  0.1856  0.9899 -0.0967
  745MOL0     H98288   5.192   9.994  10.021  0.4107  0.5227  1.2446
  745MOL0     H98289   5.093  10.122   9.807  1.0266 -4.3930  1.0688
  745MOL0     H98290   4.985  10.055   9.922  0.5245  0.8894  0.2984
  745MOL0     H98291   4.912  10.277   9.846 -0.0949  1.9572  1.0853
  745MOL0     H98292   5.033  10.359   9.918  1.4435 -0.4128  1.0562
  745MOL0     H98293   4.994  10.315  10.203 -0.9715 -0.5707  0.7950
  745MOL0     H98294   4.842  10.422  10.391 -1.2056  1.4668 -2.2801
  745MOL0     H98295   4.750  10.275  10.423  1.0821 -0.2381 -0.1510
  745MOL0     H98296   4.585  10.418  10.495 -2.6129  1.7587 -0.7385
  745MOL0     H98297   4.532  10.401  10.340 -2.2521  1.5724  1.5753
  745MOL0     H98298   4.634  10.584  10.251  0.3755 -0.5637  0.0767
  745MOL0     H98299   4.507  10.614  10.372 -0.3038 -2.9132 -0.2705
  745MOL0     H98300   4.713  10.771  10.379 -1.2879  0.2566 -0.0252
  745MOL0     H98301   4.803  10.627  10.425 -0.1164  0.0587 -0.6391
  745MOL0     H98302   4.485  10.831  10.419 -0.1942 -0.3521  0.2687
  745MOL0     H98303   4.289  10.929  10.538 -0.3143 -1.7467  1.0053
  745MOL0     H98304   4.002  10.967  10.704 -1.1674 -1.4612  0.4776
  745MOL0     H98305   3.772  11.012  10.732  1.3265 -0.1782 -0.8253
  745MOL0     H98306   3.622  10.949  11.171 -0.3226  0.8158 -0.4939
  745MOL0     H98307   3.631  10.851  11.033  1.8307  0.7793  1.1800
  745MOL0     H98308   3.388  10.848  11.050 -1.1056  1.0566  0.0042
  745MOL0     H98309   3.427  10.968  10.928 -0.3110 -0.0705  0.3681
  745MOL0     H98310   3.402  11.144  11.113 -3.4734  0.8011 -4.6183
  745MOL0     H98311   3.374  11.011  11.231  0.4617  0.9635  0.2624
  745MOL0     H98312   3.172  11.124  11.163  1.2278 -1.1549  0.7872
  745MOL0     H98313   3.203  11.097  10.991  0.3312 -0.0376 -1.1485
  745MOL0     H98314   3.121  10.904  11.207  0.7604  1.8785 -0.2180
  745MOL0     H98315   3.168  10.834  11.051 -0.9083  0.3194 -1.5087
  745MOL0     H98316   2.991  10.983  10.949 -3.0619 -5.0046 -1.7254
  745MOL0     H98317   2.964  11.043  11.112 -0.5920  0.1469  1.4548
  745MOL0     H98318   2.921  10.748  11.029  0.6945  1.4825 -1.2956
  745MOL0     H98319   2.917  10.822  11.195 -0.9633  2.0940  0.0550
  745MOL0     H98320   2.763  10.882  10.941  2.1032  0.0946 -0.1475
  745MOL0     H98321   2.730  10.984  11.075  0.6480 -1.1540  0.5042
  745MOL0     H98322   3.844  11.014  11.160 -2.6675 -0.2544 -1.5315
  745MOL0     H98323   4.081  10.971  11.123  1.5322 -2.1660 -1.2841
  745MOL0     H98324   4.447  10.853  10.921 -0.0035  2.7793 -0.1561
  745MOL0     H98325   4.636  10.714  10.816  0.8802  0.6532  1.0460
  745MOL0     H98326   5.968  10.269  10.428 -0.0688 -1.2608 -0.9485
  745MOL0     H98327   6.141  10.438  10.453  0.2778 -0.6666  0.1681
  745MOL0     H98328   6.476  10.801  10.079 -1.5236  0.3081  1.3992
  745MOL0     H98329   6.672  10.917  10.134  0.3253  0.3910  0.9504
  745MOL0     H98330   6.957  10.698  10.335 -1.8519  1.9036 -4.5444
  745MOL0     H98331   6.932  10.782  10.498 -1.2920  2.0575 -0.0599
  745MOL0     H98332   7.105  10.861  10.269  0.0815  0.9707 -0.7920
  745MOL0     H98333   7.076  10.968  10.395  0.9362  0.4155  0.4177
  745MOL0     H98334   7.164  10.668  10.416  1.0895 -0.5556  2.8722
  745MOL0     H98335   7.146  10.775  10.559 -2.1756  1.2211 -0.5573
  745MOL0     H98336   7.342  10.787  10.320 -0.3112  2.0178 -1.0174
  745MOL0     H98337   7.339  10.913  10.448 -1.7952 -0.0362  0.3191
  745MOL0     H98338   7.560  10.590  10.617  1.1273  0.2118 -0.6801
  745MOL0     H98339   6.727  10.639  10.474  0.0548 -4.5366  0.1224
  745MOL0     H98340   6.506  10.548  10.411 -0.2383  1.6160  1.3493
  746MOL0     O98341   5.152   2.818   9.651 -0.1356  0.8735  0.1360
  746MOL0     C98342   5.138   2.933   9.697 -0.1788  0.1928 -0.9991
  746MOL0     O98343   5.226   3.002   9.777  0.0520  1.0885  1.2328
  746MOL0     C98344   5.346   2.961   9.829 -0.1341  0.0606  0.6170
  746MOL0     C98345   5.374   2.823   9.850 -0.0060  0.8648 -0.0029
  746MOL0     C98346   5.496   2.780   9.907  0.8389 -0.6686  0.2696
  746MOL0     C98347   5.598   2.876   9.940  0.3867  0.2821  0.6105
  746MOL0     O98348   5.710   2.821   9.995  0.2245 -0.0580  0.2495
  746MOL0     C98349   5.813   2.913   9.991  0.0774  0.1861  0.5399
  746MOL0     C98350   5.931   2.838  10.046 -0.6944  0.3188 -1.3397
  746MOL0     C98351   6.056   2.916  10.020 -0.0747  0.4023 -0.1239
  746MOL0     C98352   6.171   2.837  10.082 -0.1578  0.9236 -0.3361
  746MOL0     C98353   6.308   2.899  10.073  0.5617 -0.5324 -0.0091
  746MOL0     C98354   6.416   2.865  10.176 -0.9558 -0.6362  1.2055
  746MOL0     C98355   6.565   2.917  10.140 -0.4260 -0.4081 -0.0594
  746MOL0     C98356   6.668   2.858  10.242  0.1480 -0.0408  0.2478
  746MOL0     N98357   6.812   2.856  10.206  0.3205  0.1464 -0.3985
  746MOL0     C98358   6.855   2.818  10.083  0.6387 -0.0160 -0.0863
  746MOL0     C98359   6.985   2.871  10.072  1.2084 -0.7435 -0.3892
  746MOL0     C98360   7.072   2.850   9.945 -0.3080 -0.0621 -0.0200
  746MOL0     C98361   6.997   2.842   9.814  0.5353 -1.3432  0.2173
  746MOL0     C98362   6.956   2.969   9.736  0.4144 -0.8236  0.1964
  746MOL0     C98363   6.834   3.030   9.794 -0.0849 -0.0771 -0.0311
  746MOL0     O98364   6.712   2.965   9.746 -0.4939  0.5828 -0.4722
  746MOL0     C98365   6.601   3.039   9.780  0.5450  0.2963 -0.6102
  746MOL0     C98366   6.479   2.979   9.739  0.5011  0.4123 -0.0218
  746MOL0     C98367   6.355   3.033   9.775 -0.0050 -1.0506 -0.1725
  746MOL0     C98368   6.342   3.161   9.833  0.3163  0.5875  0.4833
  746MOL0     C98369   6.216   3.231   9.851 -0.2565  1.1236  0.4693
  746MOL0     O98370   6.120   3.187   9.754 -0.4814  0.3958  0.3976
  746MOL0     C98371   5.985   3.213   9.763 -0.3721  0.2919  0.0374
  746MOL0     C98372   5.920   3.247   9.883 -0.1118  0.3269 -0.3900
  746MOL0     C98373   5.781   3.288   9.877  0.8520 -0.3043 -0.7196
  746MOL0     C98374   5.716   3.297   9.753 -1.4180  0.5731 -0.4508
  746MOL0     O98375   5.582   3.346   9.761 -0.2848  0.2324 -0.6490
  746MOL0     C98376   5.523   3.385   9.640  0.1552 -0.1540  0.5750
  746MOL0     C98377   5.409   3.476   9.692 -0.4799  0.0035 -0.4556
  746MOL0     C98378   5.294   3.500   9.594 -0.2091 -0.9189  1.5759
  746MOL0     C98379   5.186   3.586   9.664 -0.6365 -0.1997  0.1066
  746MOL0     C98380   5.063   3.625   9.582  0.4083  0.9917  0.2593
  746MOL0     C98381   5.086   3.726   9.476  0.1309  0.3392  0.5184
  746MOL0     C98382   4.970   3.730   9.376  0.1832 -0.5570 -0.0802
  746MOL0     C98383   4.840   3.775   9.437  0.9522 -0.1005 -0.4997
  746MOL0    Cl98384   4.742   3.630   9.483  0.3359  0.0909 -0.4736
  746MOL0     C98385   5.791   3.267   9.636  0.0941  0.6152  0.7140
  746MOL0     C98386   5.919   3.224   9.637 -0.2979 -0.3128  0.5135
  746MOL0     O98387   6.195   3.332   9.920  0.2144 -0.0752  0.0620
  746MOL0     C98388   6.464   3.227   9.871  0.4422 -0.6159 -0.4137
  746MOL0     C98389   6.590   3.166   9.847  0.5522 -0.4641 -0.4648
  746MOL0     N98390   7.010   2.932  10.196  0.4457  0.7430 -0.5515
  746MOL0     N98391   6.909   2.916  10.278  0.6802  0.0470 -0.0048
  746MOL0     C98392   5.565   3.015   9.922  0.1038  0.1369 -0.1798
  746MOL0     C98393   5.445   3.054   9.864  0.3054 -0.2363 -0.0592
  746MOL0     C98394   5.018   2.997   9.661  0.0025  0.2369 -0.9925
  746MOL0     C98395   4.908   2.920   9.635 -0.4714  0.0941  0.1351
  746MOL0     C98396   4.786   2.974   9.602  0.4919 -0.8320 -0.5752
  746MOL0     C98397   4.764   3.115   9.592 -0.3986 -0.2261  0.6390
  746MOL0     O98398   4.642   3.162   9.545  0.3682 -0.4883  0.4982
  746MOL0     C98399   4.634   3.302   9.495 -0.2407  0.5589 -0.1072
  746MOL0     C98400   4.498   3.328   9.431 -0.2775  0.3020  0.7271
  746MOL0     C98401   4.464   3.254   9.296 -0.7054 -0.2423  0.1830
  746MOL0     C98402   4.321   3.227   9.277  0.0773  1.1915  0.0141
  746MOL0     C98403   4.280   3.136   9.389 -0.1847 -0.1329  1.1062
  746MOL0     C98404   4.251   3.061   9.480  0.6529 -0.0987  0.3334
  746MOL0     C98405   4.875   3.196   9.627 -0.4894  0.0309  0.0818
  746MOL0     C98406   5.001   3.136   9.658  0.4156 -0.4638  0.6114
  746MOL0     H98407   5.308   2.743   9.817 -0.5742  1.9577 -1.6709
  746MOL0     H98408   5.526   2.676   9.919  1.2331 -0.3944  1.9457
  746MOL0     H98409   5.794   3.001  10.053  2.7766 -0.1347  1.9775
  746MOL0     H98410   5.833   2.940   9.887 -0.1649  1.0264  0.7019
  746MOL0     H98411   5.937   2.734  10.011  1.8910 -0.4047  0.8148
  746MOL0     H98412   5.932   2.838  10.156 -0.9307  1.2115 -1.3290
  746MOL0     H98413   6.065   3.012  10.073 -1.2574  0.2399  0.4061
  746MOL0     H98414   6.065   2.922   9.911  0.2389 -3.7617 -0.4717
  746MOL0     H98415   6.148   2.836  10.189 -1.5238 -0.9521 -0.5884
  746MOL0     H98416   6.169   2.736  10.040 -2.3651  2.0796 -3.3358
  746MOL0     H98417   6.289   3.007  10.071  0.2353 -0.5990 -0.7602
  746MOL0     H98418   6.360   2.874   9.981  0.0892  1.1301 -0.7777
  746MOL0     H98419   6.420   2.756  10.167 -0.2892 -0.5080 -0.3485
  746MOL0     H98420   6.392   2.908  10.274 -1.1369  4.8154 -0.9130
  746MOL0     H98421   6.586   2.868  10.044 -1.2313  0.7094 -0.8231
  746MOL0     H98422   6.565   3.025  10.122  1.9388  0.0423  2.0550
  746MOL0     H98423   6.643   2.753  10.258  1.4686 -0.4132  0.0257
  746MOL0     H98424   6.653   2.911  10.336 -2.5759 -1.1871  0.5493
  746MOL0     H98425   6.804   2.749  10.017  0.2085  2.1779 -2.2034
  746MOL0     H98426   7.134   2.762   9.966  1.1634  0.5221 -1.7280
  746MOL0     H98427   7.145   2.931   9.946 -0.4801  0.1072  1.2556
  746MOL0     H98428   6.908   2.779   9.815 -0.5267  0.1292  0.6066
  746MOL0     H98429   7.077   2.796   9.755  0.4696 -1.8320  0.5028
  746MOL0     H98430   7.049   3.025   9.739  0.4898 -0.9273 -0.1407
  746MOL0     H98431   6.930   2.956   9.630 -2.3756  3.2312  0.1477
  746MOL0     H98432   6.834   3.136   9.765 -1.0555  0.1841  0.8339
  746MOL0     H98433   6.830   3.023   9.903 -1.3300  0.0627 -0.0474
  746MOL0     H98434   6.496   2.891   9.678 -0.9171  1.8915 -2.7697
  746MOL0     H98435   6.269   2.975   9.743  0.4976 -1.4427 -0.8536
  746MOL0     H98436   5.977   3.245   9.976  2.0827 -0.8594 -1.6831
  746MOL0     H98437   5.735   3.321   9.970  3.8756 -0.1405  0.8254
  746MOL0     H98438   5.495   3.300   9.578  0.4977  1.4379 -1.9080
  746MOL0     H98439   5.585   3.455   9.583  0.4664  0.5931  1.7760
  746MOL0     H98440   5.448   3.576   9.712 -1.6062  0.2824  0.4568
  746MOL0     H98441   5.370   3.422   9.779  0.1205 -1.1931 -0.9047
  746MOL0     H98442   5.255   3.402   9.566 -2.6839  0.5861 -0.6828
  746MOL0     H98443   5.334   3.550   9.506 -0.6505 -0.8972  1.3873
  746MOL0     H98444   5.149   3.525   9.746 -0.9593  0.4600  0.4580
  746MOL0     H98445   5.234   3.677   9.701 -1.5043 -0.2273  1.3305
  746MOL0     H98446   4.993   3.668   9.654  3.3966 -1.0674  4.9215
  746MOL0     H98447   5.022   3.538   9.530  2.0993  0.6809 -0.6228
  746MOL0     H98448   5.172   3.684   9.424  0.0021 -2.7178  2.5200
  746MOL0     H98449   5.103   3.821   9.528  0.0899  0.2353  0.7217
  746MOL0     H98450   4.983   3.798   9.292 -4.0922  0.4704 -0.1417
  746MOL0     H98451   4.954   3.628   9.340  2.6710 -0.6328 -1.1810
  746MOL0     H98452   4.788   3.826   9.355  0.7655  2.6393  1.2012
  746MOL0     H98453   4.848   3.840   9.524 -1.4088 -1.1655  0.6152
  746MOL0     H98454   5.745   3.285   9.539  1.1749 -0.6948 -0.0623
  746MOL0     H98455   5.963   3.206   9.539 -1.1821  0.2807 -0.0068
  746MOL0     H98456   6.471   3.326   9.915  0.9826 -0.8074 -0.0540
  746MOL0     H98457   6.676   3.227   9.874  1.3683 -0.4980 -2.7808
  746MOL0     H98458   5.635   3.091   9.954 -0.8864  1.8920 -1.9760
  746MOL0     H98459   5.419   3.155   9.835  1.4832 -0.2520 -1.2908
  746MOL0     H98460   4.911   2.813   9.619  3.1836  0.5025 -3.5098
  746MOL0     H98461   4.710   2.900   9.578 -0.7095  0.6669 -1.6217
  746MOL0     H98462   4.706   3.318   9.414 -0.3887 -0.6706 -0.5088
  746MOL0     H98463   4.661   3.373   9.573  0.6693 -3.0219  3.1978
  746MOL0     H98464   4.421   3.297   9.502 -0.6867 -1.0965 -0.2843
  746MOL0     H98465   4.486   3.434   9.406 -2.8736 -0.1339 -0.2214
  746MOL0     H98466   4.526   3.164   9.293 -0.0760  0.1890  0.2503
  746MOL0     H98467   4.493   3.320   9.214  4.0015 -1.2942  0.7425
  746MOL0     H98468   4.260   3.317   9.277 -0.9958  0.6164  3.3357
  746MOL0     H98469   4.314   3.173   9.182  0.4750 -2.7129  1.9863
  746MOL0     H98470   4.217   2.992   9.555 -2.4882 -3.0628 -3.4117
  746MOL0     H98471   4.877   3.304   9.621 -1.1294  0.0107 -0.6924
  746MOL0     H98472   5.087   3.197   9.685  0.6518  0.7409 -2.4308
  747MOL0     O98473   9.068   1.570   9.726  0.6191  0.7757  0.0503
  747MOL0     C98474   9.133   1.549   9.620  0.0256  0.5289  1.1012
  747MOL0     O98475   9.082   1.558   9.494 -0.0459 -0.1782 -0.3168
  747MOL0     C98476   8.944   1.560   9.480 -0.4740  0.4535 -0.1071
  747MOL0     C98477   8.883   1.466   9.400 -0.3087  0.0879  0.4903
  747MOL0     C98478   8.758   1.484   9.357  0.2311  0.4924  0.2313
  747MOL0     C98479   8.683   1.590   9.400 -0.0479 -0.4843  0.4339
  747MOL0     O98480   8.552   1.604   9.362 -0.2985 -0.3730  0.1866
  747MOL0     C98481   8.474   1.486   9.347  0.0999  0.3212  0.3089
  747MOL0     C98482   8.323   1.533   9.358 -0.5319 -0.1718 -0.4547
  747MOL0     C98483   8.227   1.416   9.355 -0.2734  0.0968  0.0096
  747MOL0     C98484   8.089   1.470   9.385 -0.4111 -0.5005  0.0180
  747MOL0     C98485   7.981   1.368   9.390  0.2384 -0.3792  0.1329
  747MOL0     C98486   7.843   1.427   9.397 -0.9822  0.0708  0.3758
  747MOL0     C98487   7.800   1.497   9.260 -0.0937  0.4111 -0.4798
  747MOL0     C98488   7.648   1.513   9.264  0.7190  0.6892  0.2281
  747MOL0     N98489   7.588   1.581   9.388  0.3900 -1.0794  0.2312
  747MOL0     C98490   7.602   1.719   9.415 -0.2094  0.5917  0.1196
  747MOL0     C98491   7.523   1.734   9.518 -0.0288  0.2625  0.7699
  747MOL0     C98492   7.482   1.871   9.586  0.5513  0.2047 -0.2018
  747MOL0     C98493   7.329   1.901   9.593 -0.6957 -0.4470 -0.3049
  747MOL0     C98494   7.291   2.033   9.669  0.0076 -0.7062  0.1279
  747MOL0     C98495   7.133   2.067   9.644  0.2210  1.0525  0.0295
  747MOL0     O98496   7.135   2.115   9.507  0.4875  0.2512 -0.7909
  747MOL0     C98497   7.014   2.162   9.454 -0.4921 -0.6825  0.4548
  747MOL0     C98498   7.022   2.227   9.329  0.3509  0.3136  0.3447
  747MOL0     C98499   6.903   2.244   9.247  1.0343  0.4705 -0.5746
  747MOL0     C98500   6.775   2.235   9.308 -0.3258  0.1928  0.8837
  747MOL0     C98501   6.657   2.259   9.220  1.1599 -0.2783  0.8135
  747MOL0     O98502   6.686   2.274   9.088 -0.3832 -0.3448 -1.0993
  747MOL0     C98503   6.592   2.296   8.994 -0.2532 -0.3053  0.1853
  747MOL0     C98504   6.648   2.327   8.868 -0.9002 -0.4463 -0.1575
  747MOL0     C98505   6.573   2.335   8.754  0.3908  0.0947  0.2974
  747MOL0     C98506   6.437   2.317   8.756 -0.7825  0.5208 -0.2578
  747MOL0     O98507   6.381   2.326   8.626  0.1440  0.5546  0.1169
  747MOL0     C98508   6.243   2.334   8.619 -0.7407 -0.6998  0.0042
  747MOL0     C98509   6.206   2.336   8.469 -0.7823  0.2732  0.7800
  747MOL0     C98510   6.055   2.324   8.428  0.3897 -0.8759  0.0734
  747MOL0     C98511   5.974   2.455   8.457  0.6851 -0.9134 -0.0083
  747MOL0     C98512   5.824   2.415   8.423 -0.1153 -0.8170 -0.1983
  747MOL0     C98513   5.789   2.353   8.285  0.1431 -0.1452 -0.3539
  747MOL0     C98514   5.645   2.295   8.304 -0.5265 -0.0731  0.6634
  747MOL0     C98515   5.561   2.302   8.177  0.3397 -0.5317 -0.4878
  747MOL0    Cl98516   5.413   2.210   8.181  0.6344 -0.1244  0.0507
  747MOL0     C98517   6.371   2.305   8.882 -0.2290 -0.6384  0.4080
  747MOL0     C98518   6.449   2.283   8.998  0.1672  0.0073 -0.3096
  747MOL0     O98519   6.542   2.264   9.276  0.4625 -0.0840  0.2650
  747MOL0     C98520   6.767   2.187   9.443  0.5276  0.7192  0.7255
  747MOL0     C98521   6.885   2.148   9.510  0.2106  0.8481  0.4737
  747MOL0     N98522   7.467   1.609   9.554 -0.8773 -0.5726  0.1779
  747MOL0     N98523   7.507   1.524   9.474  0.3554 -0.0847 -0.6967
  747MOL0     C98524   8.737   1.687   9.483 -0.1259 -0.5373  1.2231
  747MOL0     C98525   8.872   1.665   9.523  0.7238 -0.4613  0.3309
  747MOL0     C98526   9.273   1.499   9.639  0.1661  0.2664 -0.5912
  747MOL0     C98527   9.322   1.484   9.767 -1.3397  0.4739  0.3397
  747MOL0     C98528   9.461   1.455   9.785 -0.1660 -0.3608  0.2466
  747MOL0     C98529   9.543   1.430   9.675 -0.3018 -0.5705 -0.7158
  747MOL0     O98530   9.680   1.410   9.666 -0.3416  0.5320 -0.2895
  747MOL0     C98531   9.750   1.415   9.791  0.2271 -0.5673 -0.2022
  747MOL0     C98532   9.891   1.399   9.753  0.3694 -0.1413 -0.3583
  747MOL0     C98533   9.936   1.522   9.668  0.1342  0.0794  0.0347
  747MOL0     C98534  10.086   1.523   9.646  0.4249 -0.1238 -0.5577
  747MOL0     C98535  10.132   1.630   9.558  0.0379  0.3174 -0.1234
  747MOL0     C98536  10.161   1.712   9.476 -0.0233  0.4654 -0.1397
  747MOL0     C98537   9.493   1.452   9.547  0.0459 -0.2379 -0.2857
  747MOL0     C98538   9.360   1.484   9.531  0.0754  0.3659 -0.7035
  747MOL0     H98539   8.943   1.380   9.372 -1.0994 -0.9825  1.9395
  747MOL0     H98540   8.720   1.412   9.285  0.5528  0.6303 -0.0828
  747MOL0     H98541   8.507   1.411   9.420  2.8024 -0.7299 -1.8341
  747MOL0     H98542   8.485   1.439   9.249  1.7435 -0.8982  1.0297
  747MOL0     H98543   8.299   1.595   9.271  1.5915 -0.7729 -1.5189
  747MOL0     H98544   8.307   1.595   9.447 -3.7533 -1.5645  0.0982
  747MOL0     H98545   8.258   1.343   9.431  0.9459  0.5008 -0.0754
  747MOL0     H98546   8.243   1.369   9.258 -0.7142  0.7636 -0.3909
  747MOL0     H98547   8.087   1.540   9.468  0.0984  0.2947 -0.6268
  747MOL0     H98548   8.063   1.529   9.296 -0.1213 -0.7611 -0.2430
  747MOL0     H98549   7.996   1.294   9.469 -1.1424 -1.5080 -0.6044
  747MOL0     H98550   7.984   1.305   9.301 -2.1527  2.3936 -2.1001
  747MOL0     H98551   7.829   1.494   9.483 -2.0436  2.2988 -1.4203
  747MOL0     H98552   7.768   1.349   9.412 -0.5053 -0.8694 -1.7644
  747MOL0     H98553   7.854   1.591   9.244  0.5097 -0.4421 -4.4213
  747MOL0     H98554   7.834   1.435   9.177 -1.7811 -1.6280  0.2557
  747MOL0     H98555   7.613   1.410   9.253  0.0016  0.9751 -0.2664
  747MOL0     H98556   7.607   1.559   9.173  3.2715 -1.0287 -1.9283
  747MOL0     H98557   7.662   1.802   9.381 -0.8937  1.2617  0.4962
  747MOL0     H98558   7.544   1.951   9.544  2.9944 -1.3912  0.1398
  747MOL0     H98559   7.515   1.845   9.687  1.4054  2.5989  0.2014
  747MOL0     H98560   7.280   1.819   9.648 -3.1332  1.0698 -0.0517
  747MOL0     H98561   7.278   1.913   9.497  0.3183  4.9635 -0.4741
  747MOL0     H98562   7.315   2.016   9.774  0.8483 -0.8774 -0.0887
  747MOL0     H98563   7.345   2.123   9.638  0.6046 -0.9823  0.3606
  747MOL0     H98564   7.094   2.145   9.709 -2.3617  0.3269 -0.5478
  747MOL0     H98565   7.075   1.977   9.665  2.4010 -0.3622  0.3587
  747MOL0     H98566   7.112   2.257   9.276 -0.6480  4.1592  0.5245
  747MOL0     H98567   6.907   2.284   9.146 -1.4170  0.7672 -0.6210
  747MOL0     H98568   6.755   2.341   8.854 -1.3690  3.6756 -0.7753
  747MOL0     H98569   6.626   2.373   8.666 -1.1606  3.0934  0.5077
  747MOL0     H98570   6.209   2.422   8.675 -1.8562 -0.4801 -0.9940
  747MOL0     H98571   6.195   2.247   8.667  0.1969  0.2508  2.9172
  747MOL0     H98572   6.266   2.254   8.428 -0.7616 -1.0795  3.2830
  747MOL0     H98573   6.254   2.418   8.416 -0.5564 -0.7119 -0.5929
  747MOL0     H98574   6.011   2.236   8.476 -1.4545 -1.8106 -3.0429
  747MOL0     H98575   6.068   2.299   8.323  6.0318 -1.7309  0.6640
  747MOL0     H98576   6.000   2.477   8.561  4.5915 -0.6791 -0.8968
  747MOL0     H98577   5.993   2.534   8.385 -2.6227 -1.5282 -1.7486
  747MOL0     H98578   5.759   2.501   8.445  0.9213  0.0720 -0.5264
  747MOL0     H98579   5.797   2.346   8.503  0.4370  0.1039  0.8080
  747MOL0     H98580   5.843   2.262   8.258 -1.9160 -2.3492  2.4039
  747MOL0     H98581   5.798   2.429   8.206 -0.3741 -0.0098 -0.2904
  747MOL0     H98582   5.655   2.190   8.333 -1.4830 -0.1561  0.7185
  747MOL0     H98583   5.590   2.351   8.380 -1.3945  0.9925 -0.7016
  747MOL0     H98584   5.623   2.267   8.094  0.4313  2.0944 -1.6192
  747MOL0     H98585   5.539   2.405   8.147  0.8362 -0.8504 -2.0584
  747MOL0     H98586   6.266   2.300   8.906 -0.1354 -1.5297  0.6512
  747MOL0     H98587   6.398   2.260   9.091 -0.3792 -0.5261 -0.7334
  747MOL0     H98588   6.669   2.177   9.489  2.1904 -0.0579  4.5226
  747MOL0     H98589   6.879   2.112   9.612 -1.3178  0.4302  0.2591
  747MOL0     H98590   8.680   1.771   9.521 -0.4741 -0.9285  1.5794
  747MOL0     H98591   8.929   1.740   9.578  1.5456  0.2477 -1.4279
  747MOL0     H98592   9.252   1.487   9.850 -0.6534 -0.8225  0.9915
  747MOL0     H98593   9.505   1.443   9.884  1.2883 -0.4508 -0.3921
  747MOL0     H98594   9.720   1.332   9.857 -0.4457 -0.9452 -0.9730
  747MOL0     H98595   9.728   1.506   9.846  3.7857 -1.0831  2.4692
  747MOL0     H98596   9.950   1.388   9.845  1.6886 -0.9263 -1.2673
  747MOL0     H98597   9.891   1.311   9.689 -0.5993  0.4888 -1.2572
  747MOL0     H98598   9.916   1.616   9.721  0.3194  0.4351 -0.5180
  747MOL0     H98599   9.878   1.529   9.576  2.8053  1.5320 -1.6381
  747MOL0     H98600  10.126   1.541   9.746 -1.6333  0.7516  0.1650
  747MOL0     H98601  10.105   1.420   9.614 -2.3112 -1.3492  1.3887
  747MOL0     H98602  10.196   1.788   9.409  0.4011 -1.0750 -1.7241
  747MOL0     H98603   9.548   1.452   9.453 -0.4114  2.4879 -0.6385
  747MOL0     H98604   9.317   1.509   9.435 -0.2021  4.3756  0.3068
  748MOL0     O98605  10.050   2.575  10.426  0.4098 -0.5854 -0.0914
  748MOL0     C98606  10.042   2.482  10.502 -0.7034 -0.5047  0.1616
  748MOL0     O98607   9.935   2.413  10.534  0.0077 -0.4130 -0.4230
  748MOL0     C98608   9.812   2.453  10.495  0.6738 -0.1095 -0.0358
  748MOL0     C98609   9.766   2.587  10.484  0.4752  0.2378  0.1429
  748MOL0     C98610   9.648   2.612  10.415  0.2214  0.6962  0.2557
  748MOL0     C98611   9.550   2.509  10.383 -0.9404 -0.2070 -1.0873
  748MOL0     O98612   9.427   2.546  10.334  0.4084 -0.6217 -0.3842
  748MOL0     C98613   9.332   2.560  10.445  0.4841  0.3998  0.5180
  748MOL0     C98614   9.191   2.624  10.399  0.1086  0.6947  0.2764
  748MOL0     C98615   9.116   2.543  10.295 -0.0313 -0.9240 -0.4240
  748MOL0     C98616   9.086   2.401  10.336  0.6917  0.7570 -0.2682
  748MOL0     C98617   9.004   2.383  10.477  0.9153  0.2524 -0.6868
  748MOL0     C98618   8.856   2.437  10.474 -0.7604  0.5444 -0.6196
  748MOL0     C98619   8.774   2.367  10.583 -0.7507  0.9213 -0.8204
  748MOL0     C98620   8.808   2.424  10.721  0.0575  0.0602  0.0249
  748MOL0     N98621   8.842   2.327  10.814 -0.7066  0.2231 -0.1341
  748MOL0     C98622   8.972   2.301  10.863  0.7345  0.1326  0.1720
  748MOL0     C98623   8.959   2.209  10.961  0.1146  0.0655  0.6207
  748MOL0     C98624   9.085   2.149  11.022 -0.2932  0.1629 -0.3118
  748MOL0     C98625   9.170   2.077  10.920  0.4452  0.0829  0.2132
  748MOL0     C98626   9.278   1.977  10.979  0.9011 -0.4094  0.2645
  748MOL0     C98627   9.348   1.902  10.868  0.6002 -0.0929  0.3332
  748MOL0     O98628   9.433   1.802  10.930  0.6826 -0.1635 -0.0426
  748MOL0     C98629   9.563   1.842  10.979  0.3412  0.0045 -0.7233
  748MOL0     C98630   9.620   1.972  10.979  0.3895  0.5509  0.0102
  748MOL0     C98631   9.746   1.993  11.037  0.1398  0.0109 -0.5433
  748MOL0     C98632   9.829   1.892  11.090 -0.2166 -0.3207  0.0191
  748MOL0     C98633   9.967   1.921  11.134 -0.4915  0.8212 -0.0678
  748MOL0     O98634  10.007   2.047  11.099 -0.4217 -1.3555 -0.1166
  748MOL0     C98635  10.135   2.093  11.119  0.3958 -0.4326 -0.6503
  748MOL0     C98636  10.150   2.219  11.059 -0.2357  0.3414 -0.8471
  748MOL0     C98637  10.272   2.291  11.084 -0.2890  1.2575  0.9936
  748MOL0     C98638  10.367   2.247  11.187 -0.5922  0.4290  0.5018
  748MOL0     O98639  10.464   2.334  11.223  0.2906 -0.2050 -0.6495
  748MOL0     C98640  10.567   2.300  11.316  0.5349 -0.0376  0.4932
  748MOL0     C98641  10.645   2.425  11.350  0.2088 -0.1623 -0.3735
  748MOL0     C98642  10.742   2.412  11.466  0.2621 -0.1527  0.1246
  748MOL0     C98643  10.812   2.538  11.510 -0.0384  0.2335 -0.4498
  748MOL0     C98644  10.867   2.536  11.654 -0.7152  0.1388  0.8360
  748MOL0     C98645  10.918   2.658  11.713  0.6509 -0.6347 -0.2210
  748MOL0     C98646  10.974   2.623  11.856  0.0064  0.0306  0.0498
  748MOL0     C98647  10.873   2.594  11.964  1.4086  0.6542 -0.3973
  748MOL0    Cl98648  10.945   2.559  12.132  0.0329 -0.0244  0.1290
  748MOL0     C98649  10.355   2.111  11.221  0.4939  1.0649  0.0364
  748MOL0     C98650  10.240   2.040  11.199 -0.2483  0.9226  0.1217
  748MOL0     O98651  10.033   1.838  11.199 -0.5361  0.1106 -0.5880
  748MOL0     C98652   9.778   1.761  11.080 -0.0983 -0.0891  0.3849
  748MOL0     C98653   9.652   1.739  11.028  0.5175  0.5150 -0.1241
  748MOL0     N98654   8.825   2.171  10.970 -0.3831 -0.2285  0.5981
  748MOL0     N98655   8.762   2.243  10.889 -0.9405 -0.2026  0.1763
  748MOL0     C98656   9.591   2.376  10.411 -0.0241  0.9663  0.4731
  748MOL0     C98657   9.721   2.347  10.451 -0.0285  0.2884 -0.5082
  748MOL0     C98658  10.171   2.448  10.568  0.5468 -0.3373  0.3296
  748MOL0     C98659  10.177   2.355  10.674  0.0665 -0.6947  0.1482
  748MOL0     C98660  10.296   2.334  10.755  0.5809 -0.5277 -0.5178
  748MOL0     C98661  10.416   2.389  10.724  0.3056  0.8382 -0.2472
  748MOL0     O98662  10.534   2.356  10.786 -0.6287 -0.3136 -0.1248
  748MOL0     C98663  10.534   2.218  10.838 -0.3610  1.0041  0.1055
  748MOL0     C98664  10.665   2.188  10.906 -0.2841 -0.2489  0.1000
  748MOL0     C98665  10.672   2.043  10.942 -0.3922 -0.3389 -0.8620
  748MOL0     C98666  10.807   2.013  11.021 -0.7708 -0.1966 -1.1604
  748MOL0     C98667  10.917   2.020  10.929  0.1899  0.5629 -0.8416
  748MOL0     C98668  11.003   2.009  10.846 -0.1901  0.0323  1.3467
  748MOL0     C98669  10.412   2.481  10.618 -0.0834  0.0640  0.3463
  748MOL0     C98670  10.292   2.515  10.549 -0.8267  0.5417  0.5032
  748MOL0     H98671   9.833   2.662  10.525 -0.0213  0.3285  0.7978
  748MOL0     H98672   9.618   2.716  10.402 -1.2007  0.4488  1.3131
  748MOL0     H98673   9.381   2.611  10.529 -0.4983  0.7012  0.9191
  748MOL0     H98674   9.312   2.458  10.478 -0.5738  1.5346  3.8171
  748MOL0     H98675   9.211   2.728  10.372  0.2859  0.1039 -2.0469
  748MOL0     H98676   9.134   2.629  10.493  1.6776  1.0814  1.2510
  748MOL0     H98677   9.158   2.562  10.196  2.7196  1.4746  1.0475
  748MOL0     H98678   9.019   2.593  10.286  0.6836  0.4279 -0.9193
  748MOL0     H98679   9.030   2.348  10.259  2.5612 -1.1159 -0.4517
  748MOL0     H98680   9.180   2.345  10.346  0.9718  1.3356  0.4212
  748MOL0     H98681   9.045   2.420  10.571 -1.5383 -0.1208  0.6040
  748MOL0     H98682   8.994   2.276  10.497 -0.1785  0.0579 -2.1002
  748MOL0     H98683   8.818   2.402  10.378  1.3117 -1.4483 -0.7993
  748MOL0     H98684   8.856   2.546  10.485  0.5483  0.7425 -2.1188
  748MOL0     H98685   8.667   2.377  10.561 -0.8891 -0.4902 -0.8625
  748MOL0     H98686   8.792   2.259  10.584  1.7354  1.2749  0.1798
  748MOL0     H98687   8.713   2.466  10.752 -0.2751 -1.7128  1.6351
  748MOL0     H98688   8.888   2.499  10.714  0.5856 -0.6541 -3.9088
  748MOL0     H98689   9.051   2.354  10.812 -0.6319 -0.5291 -2.9096
  748MOL0     H98690   9.059   2.083  11.106  2.8741  0.3941  0.9723
  748MOL0     H98691   9.131   2.231  11.078  0.4855 -0.8935  0.6441
  748MOL0     H98692   9.229   2.151  10.864  0.7789  1.2645  2.0428
  748MOL0     H98693   9.109   2.025  10.846  1.0981  0.1898 -0.4227
  748MOL0     H98694   9.342   2.038  11.044 -1.7790  3.0209 -0.0023
  748MOL0     H98695   9.221   1.904  11.038  1.0622  0.1017  1.0623
  748MOL0     H98696   9.413   1.966  10.807 -0.4036  0.5806 -0.0463
  748MOL0     H98697   9.268   1.861  10.806  2.3081 -0.2135 -1.9360
  748MOL0     H98698   9.567   2.061  10.947  0.4844 -0.3934 -3.1936
  748MOL0     H98699   9.772   2.098  11.032  0.7331 -0.1708 -1.3868
  748MOL0     H98700  10.070   2.266  11.003 -1.3361  2.0024  1.9079
  748MOL0     H98701  10.275   2.382  11.026  0.9965  1.6846  1.6865
  748MOL0     H98702  10.629   2.226  11.263  0.6895  1.0070 -0.8306
  748MOL0     H98703  10.523   2.260  11.408  0.0665  0.4494  0.4805
  748MOL0     H98704  10.576   2.508  11.367  1.6923  2.1599 -4.3685
  748MOL0     H98705  10.700   2.453  11.260 -0.1761  0.1176 -0.5234
  748MOL0     H98706  10.808   2.330  11.436  0.0235 -1.0726  1.9417
  748MOL0     H98707  10.696   2.358  11.550  0.5944 -2.2112 -0.9772
  748MOL0     H98708  10.890   2.567  11.440  2.5715 -1.0757  1.7531
  748MOL0     H98709  10.729   2.610  11.505 -0.2243 -0.0732 -2.6510
  748MOL0     H98710  10.946   2.460  11.654 -0.8828 -0.1108  3.3033
  748MOL0     H98711  10.784   2.492  11.711 -1.0472  1.7599  1.6574
  748MOL0     H98712  10.835   2.728  11.731  3.6268  2.1854  4.7667
  748MOL0     H98713  10.985   2.717  11.650 -0.0531  1.0386  0.5320
  748MOL0     H98714  11.045   2.541  11.859 -0.5462 -0.4279  1.2163
  748MOL0     H98715  11.027   2.711  11.895 -2.0425  1.2211  0.2973
  748MOL0     H98716  10.811   2.510  11.932 -1.4578  1.9141  1.3778
  748MOL0     H98717  10.803   2.677  11.983  1.3403  0.3057  1.0014
  748MOL0     H98718  10.435   2.067  11.280  0.2356  1.2856  0.5634
  748MOL0     H98719  10.229   1.940  11.240 -2.3626  0.6168 -1.0367
  748MOL0     H98720   9.855   1.686  11.099  0.4966  0.6869  1.1356
  748MOL0     H98721   9.625   1.635  11.011  0.8167  0.2255  1.0202
  748MOL0     H98722   9.530   2.298  10.368 -0.6191  2.6153 -1.8765
  748MOL0     H98723   9.751   2.244  10.465 -1.2125  0.2857  3.5632
  748MOL0     H98724  10.081   2.315  10.703  0.3602 -1.8981 -0.4836
  748MOL0     H98725  10.285   2.262  10.836  0.5937  2.5158  2.4398
  748MOL0     H98726  10.523   2.155  10.749  2.2793  1.6839 -0.7674
  748MOL0     H98727  10.455   2.193  10.910 -0.3242 -0.6302 -0.3856
  748MOL0     H98728  10.749   2.204  10.837  1.2316 -1.0660  1.6571
  748MOL0     H98729  10.693   2.244  10.996  2.8179 -1.6145  0.1278
  748MOL0     H98730  10.669   1.996  10.843  0.2203 -1.6422 -0.2849
  748MOL0     H98731  10.590   2.006  11.003  3.0544 -1.3831  3.6670
  748MOL0     H98732  10.837   2.086  11.097 -0.3861 -0.6357 -0.8836
  748MOL0     H98733  10.792   1.915  11.068 -1.9942  0.9930  1.1209
  748MOL0     H98734  11.076   1.994  10.770 -1.0105  2.9768 -0.1670
  748MOL0     H98735  10.509   2.525  10.597 -0.4932  0.5843 -0.5007
  748MOL0     H98736  10.312   2.591  10.475  0.1303  0.3031  0.4976
  749MOL0     O98737   8.465   9.283   9.797  0.7002  0.7472 -0.9523
  749MOL0     C98738   8.576   9.312   9.847  1.0734 -0.3740 -1.0907
  749MOL0     O98739   8.600   9.398   9.949  0.0175 -0.3924 -0.2406
  749MOL0     C98740   8.491   9.459  10.000 -0.5546  0.1068  0.0130
  749MOL0     C98741   8.470   9.592   9.961 -0.0015 -0.3959  0.2903
  749MOL0     C98742   8.351   9.659   9.994 -0.1917 -0.3958  0.3138
  749MOL0     C98743   8.244   9.591  10.056 -0.2064  0.5651  0.3909
  749MOL0     O98744   8.123   9.653  10.081 -0.1949 -0.4020 -0.3813
  749MOL0     C98745   8.103   9.684  10.224 -0.1024  0.1497 -0.0913
  749MOL0     C98746   8.038   9.820  10.258  0.1287 -1.0103 -0.7563
  749MOL0     C98747   8.132   9.935  10.232  0.1284  0.7140  0.6495
  749MOL0     C98748   8.067  10.075  10.265 -0.1886  0.0084 -0.6635
  749MOL0     C98749   8.152  10.193  10.222 -0.6668  0.1871  0.8020
  749MOL0     C98750   8.099  10.331  10.231 -0.0852 -0.2565  0.2273
  749MOL0     C98751   8.187  10.449  10.213  0.1353  0.0751  0.5505
  749MOL0     C98752   8.301  10.461  10.309  0.0684  0.1789  0.4549
  749MOL0     N98753   8.363  10.596  10.291  0.7242  0.1201  0.2371
  749MOL0     C98754   8.431  10.661  10.387 -0.0130 -0.4523 -0.2655
  749MOL0     C98755   8.478  10.769  10.327 -0.4650 -0.0205  0.4191
  749MOL0     C98756   8.563  10.872  10.394  0.0038 -0.0033 -0.2801
  749MOL0     C98757   8.489  10.998  10.409 -1.1177  0.3479 -0.4993
  749MOL0     C98758   8.438  11.054  10.277  0.5401 -0.3534 -0.5270
  749MOL0     C98759   8.367  11.194  10.278 -0.2599  0.4175 -0.4981
  749MOL0     O98760   8.249  11.212  10.350  0.2939 -0.2155  0.5105
  749MOL0     C98761   8.123  11.188  10.310 -0.0430  0.6770  0.1262
  749MOL0     C98762   8.099  11.116  10.195 -0.1473 -0.3637 -0.0749
  749MOL0     C98763   7.966  11.094  10.159 -0.3400 -0.6040 -0.3366
  749MOL0     C98764   7.857  11.150  10.221  0.3953 -0.4008 -0.1960
  749MOL0     C98765   7.723  11.126  10.159  0.8852 -0.6078 -0.1150
  749MOL0     O98766   7.613  11.134  10.240  0.1365  0.0202  0.3747
  749MOL0     C98767   7.491  11.121  10.206  0.1399  0.5002  0.1268
  749MOL0     C98768   7.434  11.017  10.128 -0.3864  0.5372  0.0801
  749MOL0     C98769   7.294  11.006  10.110 -0.3329  0.2819  0.2641
  749MOL0     C98770   7.209  11.105  10.143  0.5501  0.7565 -0.2097
  749MOL0     O98771   7.079  11.089  10.106 -0.0149 -0.7426  0.7117
  749MOL0     C98772   6.994  11.202  10.101 -0.0307 -0.6110  0.7688
  749MOL0     C98773   6.858  11.149  10.047  0.2234 -0.9456 -0.6826
  749MOL0     C98774   6.736  11.241  10.075  0.3436 -0.3685  0.3596
  749MOL0     C98775   6.708  11.294  10.214 -0.5935  0.4888 -0.1739
  749MOL0     C98776   6.561  11.315  10.230 -0.2266 -0.8297 -1.1610
  749MOL0     C98777   6.540  11.349  10.380 -0.6068 -0.2183  0.2204
  749MOL0     C98778   6.397  11.395  10.414  0.2725 -0.3680  0.0994
  749MOL0     C98779   6.306  11.275  10.411 -0.1427  0.3480 -0.8503
  749MOL0    Cl98780   6.153  11.332  10.454  0.2104  0.3667  0.1707
  749MOL0     C98781   7.265  11.214  10.220  0.1606  0.5430 -0.5476
  749MOL0     C98782   7.402  11.215  10.249  0.2664 -0.0524 -0.1207
  749MOL0     O98783   7.718  11.111  10.042 -0.2554  0.7443  0.9978
  749MOL0     C98784   7.882  11.216  10.342  0.7744  0.4965 -0.1610
  749MOL0     C98785   8.015  11.230  10.389  0.3355  0.5549 -0.1200
  749MOL0     N98786   8.438  10.766  10.191  0.1238  0.8147  0.4223
  749MOL0     N98787   8.376  10.654  10.172 -0.0829 -1.4182  0.3915
  749MOL0     C98788   8.269   9.465  10.103 -0.5555  0.6968 -0.2801
  749MOL0     C98789   8.386   9.398  10.076 -0.7034 -0.6964 -0.2802
  749MOL0     C98790   8.692   9.231   9.805 -0.3501 -1.3554  0.0249
  749MOL0     C98791   8.818   9.264   9.859 -0.4517  0.3023 -0.0991
  749MOL0     C98792   8.933   9.193   9.815  0.4435  0.2215  0.1684
  749MOL0     C98793   8.920   9.099   9.715  0.7920 -0.3290  0.2246
  749MOL0     O98794   9.037   9.036   9.666  0.6327  0.2723  0.1538
  749MOL0     C98795   9.173   9.058   9.719 -0.1088  0.4253  0.1164
  749MOL0     C98796   9.266   8.983   9.626  0.0922 -0.3362 -0.1641
  749MOL0     C98797   9.408   8.965   9.681 -0.3047  0.9078  0.0397
  749MOL0     C98798   9.492   8.896   9.578  0.1343  0.8469  0.1469
  749MOL0     C98799   9.627   8.882   9.641 -0.3272  0.3239 -0.1464
  749MOL0     C98800   9.744   8.880   9.670  0.0060  0.0524  0.2243
  749MOL0     C98801   8.795   9.065   9.670  0.2379  0.7696  0.4943
  749MOL0     C98802   8.683   9.133   9.721  0.3898  0.0723  0.7544
  749MOL0     H98803   8.561   9.638   9.926  0.7800 -1.7442  0.4960
  749MOL0     H98804   8.339   9.763   9.965 -2.2154 -0.8621 -0.6873
  749MOL0     H98805   8.201   9.687  10.274  0.8861  0.5041 -1.9644
  749MOL0     H98806   8.030   9.618  10.270 -1.0287 -1.7039 -3.8241
  749MOL0     H98807   8.006   9.818  10.362  0.5662 -0.3217 -0.6031
  749MOL0     H98808   7.943   9.832  10.205  0.5324  1.4972 -1.0106
  749MOL0     H98809   8.164   9.933  10.127 -0.8625  1.9053  0.2958
  749MOL0     H98810   8.221   9.925  10.294  1.0813  0.3892 -0.7402
  749MOL0     H98811   7.971  10.082  10.213 -0.0195 -2.8344 -1.5121
  749MOL0     H98812   8.055  10.083  10.374  2.5181  5.0718 -0.4553
  749MOL0     H98813   8.170  10.190  10.114  1.9074  0.1851  1.1634
  749MOL0     H98814   8.250  10.187  10.270 -0.6181 -2.3504  0.5590
  749MOL0     H98815   8.050  10.328  10.329  0.9491  1.3397  0.8332
  749MOL0     H98816   8.017  10.336  10.159  1.5937 -1.4974 -1.8706
  749MOL0     H98817   8.224  10.446  10.110 -1.0315 -0.2592  0.1171
  749MOL0     H98818   8.123  10.537  10.222  0.3390  0.2573  0.2529
  749MOL0     H98819   8.376  10.384  10.288  2.1478  2.4138 -0.8332
  749MOL0     H98820   8.264  10.450  10.411  3.2208 -2.9437  1.4616
  749MOL0     H98821   8.431  10.629  10.491  1.3334 -2.2554 -0.7607
  749MOL0     H98822   8.647  10.885  10.324  0.3298  1.1014  0.2903
  749MOL0     H98823   8.600  10.837  10.491  0.6539 -2.7997 -1.4363
  749MOL0     H98824   8.554  11.072  10.455 -0.8127  0.1610 -0.6328
  749MOL0     H98825   8.407  10.988  10.482 -0.4521  1.1724  0.3915
  749MOL0     H98826   8.521  11.046  10.206  0.6141 -0.3606 -0.4390
  749MOL0     H98827   8.357  10.991  10.238  1.1827 -2.2906  1.0484
  749MOL0     H98828   8.342  11.232  10.178 -0.6503  0.6443 -0.3166
  749MOL0     H98829   8.446  11.257  10.320  0.6126 -2.1424  1.9916
  749MOL0     H98830   8.178  11.081  10.130 -0.3292 -1.3853  0.2460
  749MOL0     H98831   7.932  11.031  10.077 -4.2710 -2.7784  2.6117
  749MOL0     H98832   7.499  10.936  10.099  1.5088  1.4802  1.5008
  749MOL0     H98833   7.267  10.921  10.048  1.7618 -0.1704 -0.0932
  749MOL0     H98834   7.043  11.270  10.030 -0.7962 -1.3283 -0.4930
  749MOL0     H98835   6.985  11.248  10.199 -0.8943  2.9408 -0.8143
  749MOL0     H98836   6.832  11.047  10.077 -4.7971  0.0314 -0.8843
  749MOL0     H98837   6.867  11.145   9.938  1.9337  0.2209 -0.6341
  749MOL0     H98838   6.655  11.173  10.049 -0.7355  0.7460  0.7010
  749MOL0     H98839   6.727  11.318   9.998  0.9035 -3.2002 -2.7827
  749MOL0     H98840   6.744  11.227  10.292 -2.2677 -1.4544 -0.9582
  749MOL0     H98841   6.768  11.385  10.224  2.0886 -0.9589 -1.9304
  749MOL0     H98842   6.518  11.216  10.213 -3.6739  0.5917 -1.6094
  749MOL0     H98843   6.525  11.387  10.155 -0.5300 -1.5200 -1.6925
  749MOL0     H98844   6.602  11.434  10.409 -2.7046  1.4698  0.0446
  749MOL0     H98845   6.566  11.266  10.446 -1.7749  0.9664  2.2737
  749MOL0     H98846   6.400  11.442  10.513  0.1753 -2.4723  1.1675
  749MOL0     H98847   6.360  11.465  10.339 -0.5628 -0.6912  0.1890
  749MOL0     H98848   6.341  11.203  10.485  0.6802  1.7298  0.1662
  749MOL0     H98849   6.305  11.225  10.314  0.5945 -0.9199 -0.2274
  749MOL0     H98850   7.197  11.282  10.270 -0.0097 -0.9376  1.3520
  749MOL0     H98851   7.433  11.299  10.311  2.6165  0.1006 -1.3984
  749MOL0     H98852   7.801  11.264  10.396  0.3111 -0.1676 -0.2514
  749MOL0     H98853   8.021  11.287  10.481 -1.7567 -1.4811  1.3859
  749MOL0     H98854   8.191   9.404  10.147 -1.0755  0.0693 -2.0066
  749MOL0     H98855   8.418   9.297  10.103 -1.2603 -0.2450  2.3791
  749MOL0     H98856   8.836   9.344   9.930 -2.0154  0.5666  0.0385
  749MOL0     H98857   9.026   9.219   9.865  0.1193  1.6542  0.0901
  749MOL0     H98858   9.193   9.037   9.824  3.3546 -1.2575 -0.7345
  749MOL0     H98859   9.203   9.162   9.704  0.7056 -0.0485 -1.9557
  749MOL0     H98860   9.226   8.886   9.595  0.2730 -0.4690  0.0139
  749MOL0     H98861   9.268   9.041   9.533 -0.6239  1.4175  0.8718
  749MOL0     H98862   9.405   8.913   9.778  0.7312 -1.0027 -0.9032
  749MOL0     H98863   9.444   9.066   9.702 -1.3517  1.3706 -0.3165
  749MOL0     H98864   9.448   8.799   9.554 -1.5499  1.0067  2.2152
  749MOL0     H98865   9.499   8.950   9.483  0.1910 -1.0847 -0.9834
  749MOL0     H98866   9.847   8.884   9.699 -0.2258  1.3487  0.9468
  749MOL0     H98867   8.787   8.985   9.597 -0.7715  0.4515  0.9419
  749MOL0     H98868   8.585   9.096   9.693  0.7151  1.5491 -2.9626
  750MOL0     O98869   8.183   2.931   6.925  0.9383  0.5763 -0.6594
  750MOL0     C98870   8.074   2.936   6.868 -0.5912 -0.7470 -0.2875
  750MOL0     O98871   8.025   3.053   6.808  0.3026 -0.3048 -0.7317
  750MOL0     C98872   8.111   3.155   6.784 -0.7253 -0.5168  0.0552
  750MOL0     C98873   8.234   3.132   6.709 -0.9549 -0.0060 -0.3460
  750MOL0     C98874   8.319   3.248   6.708 -0.0883  0.2278 -0.3953
  750MOL0     C98875   8.283   3.374   6.759 -0.4088  0.0232 -0.3627
  750MOL0     O98876   8.366   3.480   6.751 -0.0871  0.2400  0.0349
  750MOL0     C98877   8.336   3.567   6.647  0.3747 -0.1092  0.5399
  750MOL0     C98878   8.416   3.523   6.520 -0.7068 -0.0055 -0.7208
  750MOL0     C98879   8.581   3.532   6.534  0.7725 -0.1028  0.5078
  750MOL0     C98880   8.630   3.686   6.553  0.0458 -0.8655 -0.3401
  750MOL0     C98881   8.782   3.688   6.530 -0.0332 -0.6534 -0.1503
  750MOL0     C98882   8.852   3.820   6.568  0.9498 -0.8296 -0.1722
  750MOL0     C98883   8.998   3.807   6.538 -0.3989  0.7151 -0.6750
  750MOL0     C98884   9.103   3.917   6.578  0.6170  0.1469 -0.1494
  750MOL0     N98885   9.083   4.018   6.471 -0.0532  0.7210  0.0935
  750MOL0     C98886   9.023   4.135   6.485 -0.1622  0.0591 -0.2914
  750MOL0     C98887   9.011   4.174   6.359 -0.0628 -0.1291 -0.7387
  750MOL0     C98888   8.947   4.305   6.313  0.7379 -0.7722 -0.2481
  750MOL0     C98889   8.797   4.296   6.294  0.1852 -0.1008 -0.1989
  750MOL0     C98890   8.726   4.227   6.418 -0.3620 -0.0913  0.5936
  750MOL0     C98891   8.579   4.208   6.402 -0.0017  0.6875  0.4630
  750MOL0     O98892   8.517   4.335   6.363  0.5660  0.4919  0.2117
  750MOL0     C98893   8.376   4.330   6.353  0.2950 -0.0905  0.3181
  750MOL0     C98894   8.329   4.460   6.358  0.5313 -0.2316  1.1870
  750MOL0     C98895   8.197   4.482   6.354  0.2313 -0.2600  0.7611
  750MOL0     C98896   8.103   4.376   6.348  0.3347  0.0478 -0.6505
  750MOL0     C98897   7.962   4.399   6.361  1.0836  1.3573  0.7532
  750MOL0     O98898   7.885   4.294   6.406 -0.3035 -0.6190 -0.2516
  750MOL0     C98899   7.759   4.292   6.468  0.0419  0.4173 -0.5568
  750MOL0     C98900   7.698   4.401   6.535 -0.2957 -0.4803  0.1256
  750MOL0     C98901   7.571   4.383   6.594  0.3801 -0.3521  1.5924
  750MOL0     C98902   7.507   4.265   6.571  1.0578  0.9655  0.7399
  750MOL0     O98903   7.373   4.237   6.626 -0.1037 -0.5545 -0.6115
  750MOL0     C98904   7.341   4.303   6.751 -0.6519 -0.4349 -0.3515
  750MOL0     C98905   7.206   4.256   6.802  0.4219 -0.1085 -1.0072
  750MOL0     C98906   7.159   4.354   6.910  0.4625 -0.3784 -0.2996
  750MOL0     C98907   7.007   4.334   6.911  0.6778 -0.0788 -0.2263
  750MOL0     C98908   6.960   4.407   7.038 -0.2323  0.3326  1.1094
  750MOL0     C98909   6.810   4.387   7.069  0.6078 -1.2836 -1.0302
  750MOL0     C98910   6.775   4.467   7.203 -0.3281  0.8093 -0.0053
  750MOL0     C98911   6.628   4.447   7.257 -0.1171  0.1424  0.8281
  750MOL0    Cl98912   6.604   4.274   7.288 -0.0940  0.0479 -0.1432
  750MOL0     C98913   7.569   4.159   6.500 -0.8184 -0.6593  0.2364
  750MOL0     C98914   7.700   4.176   6.461  0.0360  0.8122  0.6851
  750MOL0     O98915   7.920   4.511   6.329 -0.2325  0.2826 -0.4038
  750MOL0     C98916   8.152   4.242   6.352  0.4864 -0.5504 -0.1290
  750MOL0     C98917   8.287   4.216   6.352 -0.0452  0.1455 -0.0607
  750MOL0     N98918   9.081   4.093   6.272  0.5710 -0.0759  0.4652
  750MOL0     N98919   9.111   3.994   6.337 -0.8013 -0.2415 -0.7789
  750MOL0     C98920   8.162   3.387   6.830  0.1923 -0.4182  0.4113
  750MOL0     C98921   8.077   3.275   6.841 -0.7261 -0.0895 -0.0690
  750MOL0     C98922   7.973   2.828   6.886  0.2995  0.2072  0.1805
  750MOL0     C98923   8.014   2.703   6.935 -0.8526 -0.1465  1.1681
  750MOL0     C98924   7.922   2.598   6.953 -0.2875 -0.0453  0.0104
  750MOL0     C98925   7.787   2.624   6.946 -0.2890 -0.3169 -0.5714
  750MOL0     O98926   7.702   2.517   6.972  0.5570  0.1789  0.3903
  750MOL0     C98927   7.645   2.449   6.853 -0.0821 -0.5680 -0.3062
  750MOL0     C98928   7.493   2.479   6.835 -1.2831  0.0524 -0.0262
  750MOL0     C98929   7.392   2.397   6.921  0.4797 -0.1148 -0.1692
  750MOL0     C98930   7.252   2.422   6.864  0.8472  0.1661 -0.0339
  750MOL0     C98931   7.217   2.565   6.873 -0.2076 -0.7823  0.1214
  750MOL0     C98932   7.186   2.687   6.899  0.0367 -0.6855  0.4360
  750MOL0     C98933   7.747   2.750   6.909 -0.1793 -0.0923  0.2796
  750MOL0     C98934   7.834   2.858   6.875  0.1934  0.4219  0.4106
  750MOL0     H98935   8.265   3.042   6.656 -0.9134  0.0738 -0.4578
  750MOL0     H98936   8.420   3.251   6.668  0.8377 -0.9383  1.6988
  750MOL0     H98937   8.356   3.674   6.663 -0.4326 -0.3441  3.8347
  750MOL0     H98938   8.228   3.562   6.630  0.5483 -0.3828 -0.5454
  750MOL0     H98939   8.401   3.597   6.441  2.0300  2.0402  0.4984
  750MOL0     H98940   8.396   3.420   6.488 -1.5286 -1.0789  2.7989
  750MOL0     H98941   8.626   3.488   6.444 -1.2349 -1.5690  0.1747
  750MOL0     H98942   8.614   3.467   6.615  1.9737 -0.6340 -0.3684
  750MOL0     H98943   8.566   3.746   6.487  2.5462 -1.7131 -3.8474
  750MOL0     H98944   8.619   3.721   6.656 -1.2355 -3.2364  0.4084
  750MOL0     H98945   8.805   3.665   6.425 -1.3759 -1.3809 -0.3080
  750MOL0     H98946   8.831   3.603   6.578  0.6912 -0.6479 -0.8488
  750MOL0     H98947   8.838   3.841   6.675  2.5406  2.0551 -0.4306
  750MOL0     H98948   8.805   3.900   6.510 -7.3752 -3.3886  1.6873
  750MOL0     H98949   9.033   3.721   6.595  1.0041  2.3716  1.1251
  750MOL0     H98950   9.018   3.785   6.432 -2.4161  1.4695 -1.2513
  750MOL0     H98951   9.195   3.863   6.556 -0.0021 -0.2357 -2.0262
  750MOL0     H98952   9.108   3.960   6.678 -0.6983  0.2856 -0.1251
  750MOL0     H98953   8.985   4.177   6.577  3.1403  2.2356  0.2413
  750MOL0     H98954   8.999   4.340   6.224 -0.0529  0.5789 -0.1993
  750MOL0     H98955   8.960   4.387   6.383  2.6061 -0.9783 -0.3124
  750MOL0     H98956   8.786   4.234   6.205  1.0053 -0.0157 -0.3737
  750MOL0     H98957   8.753   4.394   6.272 -1.3905 -1.2638 -2.5317
  750MOL0     H98958   8.758   4.124   6.431 -0.3094 -0.2227 -0.4706
  750MOL0     H98959   8.746   4.273   6.515  1.3189  0.6844 -0.0724
  750MOL0     H98960   8.540   4.184   6.502 -2.0757  1.3396 -0.1286
  750MOL0     H98961   8.558   4.129   6.330 -1.0784  0.8339  0.5980
  750MOL0     H98962   8.396   4.545   6.351  1.0356 -0.7573 -1.3974
  750MOL0     H98963   8.173   4.587   6.337  0.6330 -0.1961  0.5846
  750MOL0     H98964   7.743   4.499   6.523 -1.1344 -0.1719 -0.6036
  750MOL0     H98965   7.524   4.471   6.636  0.3343  0.7420 -0.6245
  750MOL0     H98966   7.335   4.412   6.737 -2.0216 -0.7147 -2.4750
  750MOL0     H98967   7.419   4.274   6.821 -0.1890  0.9208 -0.2706
  750MOL0     H98968   7.211   4.153   6.838 -1.5926 -0.3321 -1.2745
  750MOL0     H98969   7.146   4.245   6.711 -0.2499  1.5869 -0.8010
  750MOL0     H98970   7.172   4.460   6.887 -3.0158  1.2008  3.8266
  750MOL0     H98971   7.200   4.337   7.010  0.1850  0.3537 -0.0584
  750MOL0     H98972   6.963   4.384   6.823  0.2648 -1.5735 -0.8935
  750MOL0     H98973   6.987   4.228   6.900  4.3493 -1.0433  0.8880
  750MOL0     H98974   6.991   4.511   7.024  2.2838 -0.2248  1.9501
  750MOL0     H98975   7.016   4.368   7.123  2.0301  2.3765  0.6434
  750MOL0     H98976   6.781   4.281   7.076  1.9682 -1.5566  1.8945
  750MOL0     H98977   6.749   4.440   6.996 -0.9454  2.6924  2.7180
  750MOL0     H98978   6.831   4.413   7.280 -0.3045  1.1029  0.1886
  750MOL0     H98979   6.802   4.573   7.204 -1.5906  1.2028  2.6990
  750MOL0     H98980   6.569   4.489   7.175  0.0104 -0.4494  0.4293
  750MOL0     H98981   6.615   4.508   7.347  2.6693  2.4013 -0.1552
  750MOL0     H98982   7.536   4.055   6.501  1.9486 -1.6074  0.9713
  750MOL0     H98983   7.750   4.092   6.413  1.0561  1.2405  0.9662
  750MOL0     H98984   8.083   4.158   6.353  1.0621 -1.0557  1.7131
  750MOL0     H98985   8.335   4.119   6.349  0.7828  0.5649 -2.2425
  750MOL0     H98986   8.150   3.488   6.868  1.9768 -1.4887  4.2977
  750MOL0     H98987   7.988   3.281   6.902  0.1187 -0.9556  1.3083
  750MOL0     H98988   8.121   2.690   6.950 -0.4169  0.2193 -1.2543
  750MOL0     H98989   7.956   2.498   6.978  2.4895  1.0821  1.1484
  750MOL0     H98990   7.664   2.343   6.875  1.3816  0.2216  2.9750
  750MOL0     H98991   7.702   2.480   6.765  0.8975  1.7669  1.0400
  750MOL0     H98992   7.489   2.587   6.848  5.5599  0.8609 -0.6929
  750MOL0     H98993   7.469   2.464   6.729 -0.1637  1.7187 -0.5574
  750MOL0     H98994   7.408   2.438   7.021 -1.5919 -1.1840  0.6538
  750MOL0     H98995   7.418   2.292   6.909  2.5377  0.1839  1.2565
  750MOL0     H98996   7.245   2.401   6.757 -1.8223 -0.2966  0.1543
  750MOL0     H98997   7.187   2.354   6.920  0.2917 -0.2880 -1.1944
  750MOL0     H98998   7.169   2.784   6.941 -2.7574 -0.6404 -0.6162
  750MOL0     H98999   7.641   2.764   6.893 -0.4720 -1.1790  1.1792
  750MOL0     H99000   7.795   2.948   6.829  0.7473 -0.8228 -2.7156
  751MOL0     O99001  11.267   2.579  10.880 -0.7443 -0.3964 -0.1045
  751MOL0     C99002  11.188   2.583  10.788  0.8801  1.2298  1.0612
  751MOL0     O99003  11.217   2.565  10.659 -0.1455  0.0174 -0.2965
  751MOL0     C99004  11.331   2.506  10.616 -0.5935  0.6728  0.3808
  751MOL0     C99005  11.458   2.550  10.660 -0.2349  0.3252 -0.5842
  751MOL0     C99006  11.572   2.500  10.607  0.1955  0.4776 -0.8525
  751MOL0     C99007  11.573   2.407  10.503  0.4491  0.0064  0.2774
  751MOL0     O99008  11.696   2.357  10.460  0.6737 -0.6808  0.1760
  751MOL0     C99009  11.696   2.228  10.392 -0.1495 -0.2845 -0.2632
  751MOL0     C99010  11.831   2.166  10.387 -0.1640 -0.0645 -0.1224
  751MOL0     C99011  11.931   2.264  10.302 -1.0105 -0.0787 -0.0008
  751MOL0     C99012  12.075   2.223  10.327 -0.0291 -0.2844 -0.5361
  751MOL0     C99013  12.169   2.321  10.248  0.0251  0.0914 -0.0850
  751MOL0     C99014  12.302   2.250  10.231  0.5142 -0.3565 -0.5642
  751MOL0     C99015  12.387   2.336  10.137  0.5096 -0.6644 -0.0338
  751MOL0     C99016  12.449   2.460  10.208  0.0391 -0.6691  0.1170
  751MOL0     N99017  12.560   2.505  10.125  0.0270  0.5702 -0.6596
  751MOL0     C99018  12.684   2.459  10.152 -0.0222 -0.7834 -0.5196
  751MOL0     C99019  12.757   2.498  10.046  0.6262 -0.6571  0.4471
  751MOL0     C99020  12.899   2.457  10.011  0.3417  0.4566  0.7479
  751MOL0     C99021  12.936   2.305  10.026 -0.4926  0.6269 -0.4841
  751MOL0     C99022  12.882   2.216   9.905  0.3067 -0.3257  0.7225
  751MOL0     C99023  12.920   2.068   9.923  0.3991  0.2999  0.0865
  751MOL0     O99024  12.854   2.003  10.036  0.0885  0.0412 -0.3963
  751MOL0     C99025  12.711   2.003  10.044 -0.5832  0.3179  0.6673
  751MOL0     C99026  12.628   1.993   9.934 -0.4427 -0.0556 -0.3289
  751MOL0     C99027  12.498   1.946   9.951 -0.0101 -0.3301 -0.0159
  751MOL0     C99028  12.436   1.930  10.076  0.3971 -0.1386  1.1327
  751MOL0     C99029  12.289   1.880  10.088 -0.7410 -0.1004  0.2026
  751MOL0     O99030  12.218   1.893   9.982 -0.0932 -0.3535 -0.1710
  751MOL0     C99031  12.080   1.884   9.981  0.1096  0.5691  0.2280
  751MOL0     C99032  11.987   1.907  10.081  0.0962 -0.6859 -0.6861
  751MOL0     C99033  11.845   1.910  10.057  0.3865  0.3231  0.1244
  751MOL0     C99034  11.807   1.881   9.925  0.4073 -0.9744 -0.0485
  751MOL0     O99035  11.670   1.866   9.887  0.4482 -0.9724 -0.4628
  751MOL0     C99036  11.626   1.721   9.887 -0.8823  0.2137 -0.7382
  751MOL0     C99037  11.482   1.709   9.913 -0.4777  0.5418  0.2447
  751MOL0     C99038  11.410   1.832   9.850  0.2855  0.9992 -0.9228
  751MOL0     C99039  11.255   1.807   9.838 -0.2517 -0.7014  0.7131
  751MOL0     C99040  11.169   1.863   9.950  0.3611 -0.2738 -0.2168
  751MOL0     C99041  11.174   2.021   9.970  0.6627 -0.0429 -0.2971
  751MOL0     C99042  11.080   2.060  10.091 -0.3961 -0.5335  0.0833
  751MOL0     C99043  11.104   2.203  10.130  0.4013 -0.0665  0.1737
  751MOL0    Cl99044  11.269   2.214  10.205  0.2990 -0.4510 -0.2744
  751MOL0     C99045  11.898   1.853   9.821  0.0784 -0.1638 -0.3076
  751MOL0     C99046  12.036   1.859   9.850 -0.0014  0.0263 -0.7739
  751MOL0     O99047  12.266   1.832  10.201  0.0450 -0.5114  1.1400
  751MOL0     C99048  12.522   1.950  10.187 -0.1537  0.7641  0.1068
  751MOL0     C99049  12.656   1.997  10.168  1.0565 -0.6115 -0.2356
  751MOL0     N99050  12.674   2.556   9.946  0.5599  0.0692 -0.1128
  751MOL0     N99051  12.555   2.557  10.007  0.2038  0.4138  0.4128
  751MOL0     C99052  11.443   2.359  10.465 -0.6381  1.0750 -0.6565
  751MOL0     C99053  11.325   2.401  10.526 -0.3320  0.5670 -0.1510
  751MOL0     C99054  11.052   2.608  10.822 -0.1568  0.9842 -0.3973
  751MOL0     C99055  10.943   2.586  10.739  0.0114  0.0002 -0.1969
  751MOL0     C99056  10.810   2.623  10.773 -1.1232  0.5877  0.1221
  751MOL0     C99057  10.790   2.683  10.899 -0.3166  0.4271 -0.1638
  751MOL0     O99058  10.669   2.710  10.964 -0.6302  0.4352  0.0811
  751MOL0     C99059  10.572   2.619  10.919  0.2340  0.0161 -0.0133
  751MOL0     C99060  10.464   2.603  11.026  0.3528  0.0789  1.1242
  751MOL0     C99061  10.367   2.726  10.999  1.2490 -0.2018  0.0153
  751MOL0     C99062  10.222   2.734  11.057 -0.5201 -0.7460 -0.3289
  751MOL0     C99063  10.138   2.639  10.987  0.0134  0.0452  0.1304
  751MOL0     C99064  10.058   2.571  10.925 -0.7053 -0.5200 -0.1803
  751MOL0     C99065  10.898   2.724  10.967 -0.4326  0.3973 -1.0594
  751MOL0     C99066  11.027   2.697  10.928  0.2879  0.2854 -0.1019
  751MOL0     H99067  11.466   2.625  10.738 -0.0221 -2.2625  2.0640
  751MOL0     H99068  11.666   2.539  10.646 -1.6650  2.1696  2.4123
  751MOL0     H99069  11.676   2.242  10.286 -0.6044  0.2027 -0.1201
  751MOL0     H99070  11.616   2.161  10.425 -0.8629 -1.2843 -3.6286
  751MOL0     H99071  11.809   2.079  10.324 -0.5148  0.1041 -0.2319
  751MOL0     H99072  11.883   2.131  10.477 -1.9751  1.4016  1.5603
  751MOL0     H99073  11.906   2.368  10.325 -0.2323 -0.4143  2.6754
  751MOL0     H99074  11.908   2.263  10.195 -0.1614 -0.3564 -0.1886
  751MOL0     H99075  12.104   2.229  10.432 -0.4614  0.4168 -0.4556
  751MOL0     H99076  12.089   2.122  10.286  3.9868 -0.4023  0.7476
  751MOL0     H99077  12.184   2.417  10.297  0.6462  1.0160 -1.9904
  751MOL0     H99078  12.126   2.336  10.148  2.2424  0.3548 -1.0422
  751MOL0     H99079  12.281   2.155  10.182  2.0908 -0.6319 -0.7723
  751MOL0     H99080  12.356   2.245  10.326 -0.0209  1.1758 -0.1532
  751MOL0     H99081  12.471   2.279  10.096  0.2337  0.7477 -2.7854
  751MOL0     H99082  12.337   2.372  10.047  0.3435  2.5719  1.2418
  751MOL0     H99083  12.476   2.420  10.307 -0.8827 -1.8862 -0.0974
  751MOL0     H99084  12.373   2.536  10.226  1.3405  0.5302  0.7196
  751MOL0     H99085  12.710   2.399  10.239 -1.8187 -1.5204 -0.4563
  751MOL0     H99086  12.969   2.522  10.064 -0.7280  3.3604 -1.1165
  751MOL0     H99087  12.913   2.486   9.906  0.8445 -1.9630  0.0852
  751MOL0     H99088  12.902   2.260  10.119 -0.0028  2.1972  0.4907
  751MOL0     H99089  13.045   2.291  10.028 -0.5837 -1.1033  4.7379
  751MOL0     H99090  12.776   2.233   9.883  0.8272  0.3869 -1.5246
  751MOL0     H99091  12.937   2.254   9.818  0.7326  1.1839  1.6087
  751MOL0     H99092  13.027   2.050   9.929  0.2210 -0.6317  0.7931
  751MOL0     H99093  12.896   2.012   9.832  0.4554  0.5760 -0.0974
  751MOL0     H99094  12.662   2.022   9.836 -0.7085  3.5675  0.4905
  751MOL0     H99095  12.442   1.930   9.860  1.2445  0.4853 -0.9608
  751MOL0     H99096  12.012   1.936  10.183  0.0356  3.2527 -1.6593
  751MOL0     H99097  11.768   1.919  10.133 -2.5687  0.0567 -2.6081
  751MOL0     H99098  11.684   1.658   9.956 -0.7648 -0.9404 -1.8482
  751MOL0     H99099  11.644   1.665   9.795 -0.9739 -0.0871 -0.5764
  751MOL0     H99100  11.453   1.691  10.017 -0.3855 -2.9599 -0.1960
  751MOL0     H99101  11.444   1.619   9.864 -1.1319  1.8699 -1.7976
  751MOL0     H99102  11.455   1.853   9.753  1.0712 -1.3948 -1.1309
  751MOL0     H99103  11.420   1.917   9.918 -1.1872  1.5717 -1.3891
  751MOL0     H99104  11.222   1.864   9.751 -0.0231 -3.0776 -1.0131
  751MOL0     H99105  11.232   1.702   9.818  2.5011 -1.0720 -1.0655
  751MOL0     H99106  11.182   1.816  10.048 -1.8491 -0.9215 -0.1853
  751MOL0     H99107  11.064   1.849   9.924  0.1360 -0.2384  0.6604
  751MOL0     H99108  11.159   2.083   9.881  0.9524 -0.7595 -0.8587
  751MOL0     H99109  11.274   2.048  10.005  0.8171  0.3264 -1.0100
  751MOL0     H99110  10.972   2.053  10.071 -0.8138 -2.4942  2.5552
  751MOL0     H99111  11.101   1.992  10.174  2.1461 -1.8153 -1.5048
  751MOL0     H99112  11.023   2.237  10.195 -2.7075  1.1908 -3.9603
  751MOL0     H99113  11.094   2.273  10.047  1.2490  0.4128  0.4575
  751MOL0     H99114  11.860   1.832   9.722  0.2405 -2.6369  0.0869
  751MOL0     H99115  12.094   1.818   9.767 -0.3614  0.3230 -1.1698
  751MOL0     H99116  12.487   1.937  10.289 -0.7255  1.9835  0.0931
  751MOL0     H99117  12.720   2.028  10.250  0.5678  2.4187 -0.9016
  751MOL0     H99118  11.431   2.276  10.397 -2.2472  1.2229 -0.5962
  751MOL0     H99119  11.226   2.364  10.502 -0.0749  0.8334 -1.7089
  751MOL0     H99120  10.967   2.531  10.649  3.5399  1.2128 -0.1265
  751MOL0     H99121  10.737   2.586  10.702 -1.5963 -1.7176  1.6937
  751MOL0     H99122  10.622   2.522  10.910 -0.8210 -0.3556 -3.8842
  751MOL0     H99123  10.528   2.660  10.828 -0.0868  1.8654  0.9275
  751MOL0     H99124  10.414   2.509  11.001  1.1700 -0.1128  0.1205
  751MOL0     H99125  10.509   2.595  11.126  1.7981 -2.9744  0.3420
  751MOL0     H99126  10.354   2.730  10.890  4.1676 -1.7911 -0.4990
  751MOL0     H99127  10.421   2.815  11.033  2.9182 -2.1640  2.8668
  751MOL0     H99128  10.233   2.711  11.163 -3.2906 -3.4125 -0.4776
  751MOL0     H99129  10.192   2.835  11.027 -0.5220 -0.5645  0.2746
  751MOL0     H99130   9.968   2.527  10.888 -1.1164  1.4644 -1.7559
  751MOL0     H99131  10.881   2.781  11.058  0.0089 -1.0976 -0.0024
  751MOL0     H99132  11.103   2.742  10.992 -0.4747  0.1538  0.9152
  752MOL0     O99133   1.748   4.655   6.266  0.3026 -0.6636  0.1949
  752MOL0     C99134   1.830   4.738   6.227  0.6076  0.8888  0.1881
  752MOL0     O99135   1.799   4.863   6.176  0.8253  0.0999  0.4945
  752MOL0     C99136   1.668   4.897   6.147 -0.2180 -0.0223  0.1087
  752MOL0     C99137   1.604   4.828   6.039 -1.0664 -0.1035 -0.4532
  752MOL0     C99138   1.476   4.865   6.003  0.4218 -0.0698 -0.1802
  752MOL0     C99139   1.405   4.959   6.078  0.0277 -1.1569 -0.6067
  752MOL0     O99140   1.284   4.986   6.028 -0.3723 -0.1707  0.0607
  752MOL0     C99141   1.197   5.089   6.088  0.6105  0.2899 -0.5507
  752MOL0     C99142   1.136   5.043   6.222  1.7568 -0.4857 -0.3975
  752MOL0     C99143   1.017   4.952   6.205  0.3915  0.9274  0.0376
  752MOL0     C99144   0.952   4.908   6.338 -0.5081 -0.4984 -0.7183
  752MOL0     C99145   0.827   4.825   6.309 -0.2640  0.5775  0.3973
  752MOL0     C99146   0.722   4.902   6.234  0.2240  0.1602 -0.0879
  752MOL0     C99147   0.686   5.036   6.306  0.2044  0.5113  0.3927
  752MOL0     C99148   0.564   5.103   6.250 -0.3042  0.1851  0.4515
  752MOL0     N99149   0.528   5.237   6.308  0.5037 -0.3014  0.0619
  752MOL0     C99150   0.457   5.267   6.426  0.5432 -0.4844  0.1833
  752MOL0     C99151   0.417   5.394   6.422 -0.1213  0.0381 -0.6772
  752MOL0     C99152   0.333   5.470   6.513  1.0110 -0.1870  0.1730
  752MOL0     C99153   0.192   5.410   6.516  0.5681  0.4005  0.1268
  752MOL0     C99154   0.110   5.423   6.379 -0.3061  0.2670  0.1314
  752MOL0     C99155  -0.029   5.484   6.389  0.3372 -0.0590 -0.2189
  752MOL0     O99156  -0.106   5.416   6.494 -0.0310 -0.4360 -0.1639
  752MOL0     C99157  -0.240   5.437   6.513 -0.5395 -0.3592  0.1471
  752MOL0     C99158  -0.309   5.536   6.447 -0.0107  0.5324  0.6765
  752MOL0     C99159  -0.441   5.569   6.483  0.1193 -0.6170  0.6388
  752MOL0     C99160  -0.510   5.504   6.587 -0.1070  0.1927  0.0790
  752MOL0     C99161  -0.647   5.537   6.627 -0.1712  0.7591 -1.1870
  752MOL0     O99162  -0.709   5.644   6.568  0.8384  0.0688 -0.2687
  752MOL0     C99163  -0.837   5.686   6.602 -0.2052  0.6436 -0.2661
  752MOL0     C99164  -0.951   5.635   6.543 -0.8944 -0.2833 -0.3142
  752MOL0     C99165  -1.077   5.682   6.589  0.1878  1.1264 -0.4712
  752MOL0     C99166  -1.092   5.784   6.673  0.8154 -0.9458  0.0835
  752MOL0     O99167  -1.219   5.826   6.683 -0.3816  0.3191 -1.3251
  752MOL0     C99168  -1.265   5.881   6.805 -0.2341 -0.3051  0.2138
  752MOL0     C99169  -1.409   5.921   6.793  0.0745  0.2023  1.0279
  752MOL0     C99170  -1.499   5.798   6.768 -0.7778  0.7160  0.2892
  752MOL0     C99171  -1.642   5.843   6.783  0.5320 -0.3624  0.8977
  752MOL0     C99172  -1.729   5.711   6.763 -0.1111 -0.0239  0.4803
  752MOL0     C99173  -1.859   5.752   6.711 -0.3983 -0.4669  0.2303
  752MOL0     C99174  -1.958   5.647   6.695 -0.1168  0.0317 -0.3195
  752MOL0     C99175  -2.089   5.692   6.626 -0.2670  0.6190 -0.0639
  752MOL0    Cl99176  -2.152   5.835   6.711 -0.0847 -0.3657 -0.0565
  752MOL0     C99177  -0.979   5.841   6.737 -0.6706  1.0394  0.0220
  752MOL0     C99178  -0.848   5.788   6.697 -0.1771  0.1101 -0.0484
  752MOL0     O99179  -0.697   5.490   6.730 -1.2276  1.1834  1.1944
  752MOL0     C99180  -0.431   5.409   6.652  1.3955  0.2130  0.5025
  752MOL0     C99181  -0.305   5.368   6.608 -0.1884  0.1399 -0.7222
  752MOL0     N99182   0.460   5.443   6.304  0.2384 -0.8235  0.5165
  752MOL0     N99183   0.529   5.352   6.234  0.2281  1.3144  0.4568
  752MOL0     C99184   1.475   5.029   6.180  0.4311  0.9819 -0.6243
  752MOL0     C99185   1.603   4.997   6.212  0.5470  0.0966  0.2743
  752MOL0     C99186   1.970   4.694   6.220 -0.2728 -0.0326 -0.5747
  752MOL0     C99187   2.073   4.788   6.237  0.3769  0.2562  0.0238
  752MOL0     C99188   2.212   4.751   6.243  0.3358  0.2578  0.1196
  752MOL0     C99189   2.244   4.619   6.255 -0.4876  0.1143  0.9264
  752MOL0     O99190   2.372   4.575   6.269 -0.3833  0.5631  0.0810
  752MOL0     C99191   2.464   4.638   6.365 -0.0473  0.4663  0.4821
  752MOL0     C99192   2.603   4.639   6.320 -0.4559 -0.1769 -0.6066
  752MOL0     C99193   2.606   4.732   6.194  1.2323  0.8387  0.0265
  752MOL0     C99194   2.743   4.753   6.140  0.1551  0.1423 -1.0374
  752MOL0     C99195   2.847   4.815   6.228  0.3182 -0.0662 -0.3971
  752MOL0     C99196   2.934   4.871   6.293 -0.2403  0.1131 -0.2028
  752MOL0     C99197   2.145   4.524   6.238 -0.7454  0.0868  0.1041
  752MOL0     C99198   2.007   4.559   6.218  0.2206 -0.2554  0.3299
  752MOL0     H99199   1.665   4.759   5.981  2.0832  1.8496  0.2810
  752MOL0     H99200   1.430   4.815   5.918 -2.3340  0.7296  0.7439
  752MOL0     H99201   1.117   5.116   6.018 -0.9537  0.6150  1.2878
  752MOL0     H99202   1.266   5.173   6.104  1.2945 -0.7292  2.4072
  752MOL0     H99203   1.102   5.125   6.286 -1.6208 -0.6437 -1.7418
  752MOL0     H99204   1.211   4.988   6.279 -1.2187 -3.8837  0.6111
  752MOL0     H99205   1.045   4.861   6.151 -2.6592 -0.8918  1.2363
  752MOL0     H99206   0.945   5.004   6.140  0.8113 -1.4122 -2.4494
  752MOL0     H99207   1.015   4.839   6.395 -1.5102 -0.2798  0.6839
  752MOL0     H99208   0.929   4.993   6.403 -0.8257 -0.5002 -0.8251
  752MOL0     H99209   0.778   4.795   6.402 -2.5348 -3.1854 -1.7485
  752MOL0     H99210   0.853   4.733   6.255 -1.5103  0.5423 -0.1621
  752MOL0     H99211   0.636   4.836   6.224  0.3574  0.2524 -2.3066
  752MOL0     H99212   0.757   4.914   6.131  0.7196 -2.1790 -0.2659
  752MOL0     H99213   0.674   5.021   6.413 -1.4641  1.1706  0.3377
  752MOL0     H99214   0.770   5.106   6.293  1.0333 -0.5152  0.0905
  752MOL0     H99215   0.484   5.028   6.254  1.5830 -1.9283  0.5983
  752MOL0     H99216   0.585   5.116   6.143  0.2897  2.6814  0.8296
  752MOL0     H99217   0.435   5.203   6.511  0.0444 -1.0269 -0.3375
  752MOL0     H99218   0.335   5.577   6.488 -0.2622 -0.2979 -0.4650
  752MOL0     H99219   0.374   5.466   6.614  0.0590  1.7592  0.6790
  752MOL0     H99220   0.137   5.463   6.595  2.8579  0.6758  1.6305
  752MOL0     H99221   0.185   5.307   6.552 -0.7160  1.5501  3.5765
  752MOL0     H99222   0.165   5.481   6.304  0.1579  2.0299  1.7422
  752MOL0     H99223   0.094   5.321   6.343 -0.3355  0.1343  0.5198
  752MOL0     H99224  -0.078   5.484   6.291  1.5194 -0.3381 -0.8335
  752MOL0     H99225  -0.007   5.585   6.427 -0.9615 -0.2652  1.1898
  752MOL0     H99226  -0.271   5.591   6.362 -4.2173  4.2350  0.8249
  752MOL0     H99227  -0.487   5.652   6.430 -0.0032  0.5889  2.5098
  752MOL0     H99228  -0.932   5.556   6.471  0.4069  0.8857 -1.3070
  752MOL0     H99229  -1.174   5.644   6.556 -0.9632  2.2714  1.3524
  752MOL0     H99230  -1.206   5.972   6.811 -1.7800  0.7357  0.2112
  752MOL0     H99231  -1.235   5.818   6.890  2.8918 -2.3991 -2.2175
  752MOL0     H99232  -1.434   6.000   6.721  0.2756  0.4767  1.2589
  752MOL0     H99233  -1.441   5.960   6.890  0.6931  0.0898  1.2780
  752MOL0     H99234  -1.485   5.729   6.852 -0.4474  0.3748 -0.0402
  752MOL0     H99235  -1.481   5.748   6.672 -2.2844 -1.4705  1.0546
  752MOL0     H99236  -1.662   5.880   6.883  2.3865  0.4024  1.0170
  752MOL0     H99237  -1.671   5.919   6.710 -0.3913 -1.1120  0.4474
  752MOL0     H99238  -1.736   5.667   6.863 -1.0154  1.0219  0.8976
  752MOL0     H99239  -1.693   5.636   6.692 -2.4184 -0.0299 -0.7642
  752MOL0     H99240  -1.840   5.797   6.613  4.0719  0.3613  1.2721
  752MOL0     H99241  -1.886   5.842   6.766  4.1203  2.1399 -1.2717
  752MOL0     H99242  -1.908   5.567   6.639  1.0092 -0.2599  1.0470
  752MOL0     H99243  -1.987   5.622   6.797  0.9576 -1.3174 -0.3186
  752MOL0     H99244  -2.165   5.613   6.632 -0.4833  0.8967  1.0642
  752MOL0     H99245  -2.068   5.725   6.524  2.1020 -1.2589 -0.2740
  752MOL0     H99246  -0.973   5.925   6.806 -1.1423  4.4410 -3.6535
  752MOL0     H99247  -0.766   5.825   6.757 -1.4036  1.4135  0.8757
  752MOL0     H99248  -0.479   5.354   6.733  1.4823  1.9179  1.7666
  752MOL0     H99249  -0.263   5.291   6.672 -0.5723 -1.5473 -2.4399
  752MOL0     H99250   1.421   5.096   6.247  0.2017 -0.7528  1.0303
  752MOL0     H99251   1.648   5.050   6.296 -0.7896  1.5796  0.0936
  752MOL0     H99252   2.053   4.894   6.232  1.9972  0.5452 -1.2248
  752MOL0     H99253   2.286   4.830   6.250 -1.0512  1.8323 -1.7804
  752MOL0     H99254   2.454   4.575   6.454  2.1718 -0.8041 -0.1168
  752MOL0     H99255   2.418   4.731   6.401 -2.6969 -2.0993  4.5695
  752MOL0     H99256   2.672   4.680   6.395 -0.9833 -0.4294  0.0321
  752MOL0     H99257   2.631   4.536   6.295 -1.4863 -0.4340 -0.7351
  752MOL0     H99258   2.566   4.831   6.219  1.7387  1.4004 -1.3111
  752MOL0     H99259   2.546   4.695   6.111  2.4138 -0.1501 -0.4133
  752MOL0     H99260   2.786   4.657   6.110  0.6086  0.1146 -0.3099
  752MOL0     H99261   2.730   4.817   6.053 -1.3642  0.1999 -0.8050
  752MOL0     H99262   3.011   4.897   6.362 -0.5007  0.8574 -0.1827
  752MOL0     H99263   2.166   4.418   6.252 -3.3433 -0.6113 -0.6709
  752MOL0     H99264   1.935   4.479   6.213  0.3103 -0.2669 -1.0231
  753MOL0     O99265   5.914   0.602  10.999 -0.6389  0.6654  0.3328
  753MOL0     C99266   5.930   0.553  11.108  0.3224 -0.5405 -0.9713
  753MOL0     O99267   5.829   0.515  11.191 -0.3849 -0.5087 -0.6704
  753MOL0     C99268   5.699   0.538  11.176 -0.5572 -0.3335 -1.1200
  753MOL0     C99269   5.643   0.664  11.142 -0.7566 -0.2396  0.0921
  753MOL0     C99270   5.500   0.686  11.129 -0.4633  1.1599  0.1479
  753MOL0     C99271   5.414   0.579  11.178 -0.1434  0.4015 -0.1773
  753MOL0     O99272   5.279   0.591  11.190 -0.0342 -0.7760 -0.2060
  753MOL0     C99273   5.219   0.719  11.158 -0.2823  0.6030 -0.6971
  753MOL0     C99274   5.075   0.730  11.229  0.3640  0.0570  0.5564
  753MOL0     C99275   4.986   0.845  11.166 -0.0146  0.2316 -0.2806
  753MOL0     C99276   4.917   0.777  11.049  0.0349 -0.2484  0.1937
  753MOL0     C99277   4.806   0.876  10.997 -0.1726 -0.3054  0.3295
  753MOL0     C99278   4.736   0.811  10.880  0.3368 -0.1716 -0.0175
  753MOL0     C99279   4.640   0.903  10.795  0.7557  0.7688 -0.2251
  753MOL0     C99280   4.517   0.962  10.887  0.1448 -0.1639  0.9394
  753MOL0     N99281   4.411   0.866  10.907  0.2628 -0.0569 -0.1963
  753MOL0     C99282   4.413   0.752  10.978  0.5823 -0.8472 -0.3071
  753MOL0     C99283   4.298   0.692  10.953  0.4131 -0.7281 -0.3686
  753MOL0     C99284   4.263   0.545  10.978 -0.8176 -0.8619 -0.1493
  753MOL0     C99285   4.138   0.547  11.063 -0.0235 -0.3685  0.7275
  753MOL0     C99286   4.086   0.397  11.060  0.1384 -0.7205  0.4735
  753MOL0     C99287   4.020   0.350  10.937 -0.0552  1.3773  0.9185
  753MOL0     O99288   3.908   0.432  10.892 -0.0376  0.5953 -0.1005
  753MOL0     C99289   3.786   0.400  10.955 -0.2167  0.4022 -0.0545
  753MOL0     C99290   3.740   0.491  11.048  0.8858  0.5894 -0.4044
  753MOL0     C99291   3.618   0.467  11.108 -0.3201  0.2844 -1.1454
  753MOL0     C99292   3.536   0.358  11.077  0.1987  0.7597  0.3125
  753MOL0     C99293   3.408   0.332  11.141  0.5356  0.2766 -0.4554
  753MOL0     O99294   3.374   0.425  11.229  0.5227  0.4761 -0.6784
  753MOL0     C99295   3.244   0.422  11.276 -0.7568 -0.4570 -0.0510
  753MOL0     C99296   3.148   0.524  11.237 -1.4326  0.2354  0.5961
  753MOL0     C99297   3.028   0.526  11.290  0.3742 -0.2151 -0.4351
  753MOL0     C99298   2.983   0.416  11.372 -0.1276 -0.7991  0.5926
  753MOL0     O99299   2.874   0.434  11.458  0.0995 -0.1147 -0.2191
  753MOL0     C99300   2.747   0.484  11.409 -0.2078 -0.5053  0.5927
  753MOL0     C99301   2.649   0.365  11.383  0.2838 -0.1237  0.1269
  753MOL0     C99302   2.501   0.432  11.359 -0.6196  0.6916  1.0725
  753MOL0     C99303   2.386   0.334  11.318 -0.4691 -0.6758 -0.1330
  753MOL0     C99304   2.259   0.412  11.314  0.1690  0.1048  0.3829
  753MOL0     C99305   2.151   0.339  11.234 -0.1977  0.5327 -0.4041
  753MOL0     C99306   2.010   0.402  11.262 -0.4205  0.6771 -0.5391
  753MOL0     C99307   1.882   0.339  11.185  0.7730  0.6657 -0.3846
  753MOL0    Cl99308   1.931   0.307  11.020 -0.4914 -0.2272 -0.2596
  753MOL0     C99309   3.069   0.321  11.418  0.9182  0.2993 -0.3669
  753MOL0     C99310   3.206   0.318  11.374 -0.4312 -0.5411  0.4250
  753MOL0     O99311   3.351   0.224  11.117  0.1258 -0.7202 -0.0818
  753MOL0     C99312   3.593   0.260  10.993 -0.2823 -0.5399  0.3683
  753MOL0     C99313   3.706   0.292  10.924  0.7897  0.9978 -0.3711
  753MOL0     N99314   4.215   0.776  10.876 -0.4619  0.1979 -0.1388
  753MOL0     N99315   4.285   0.879  10.855  0.5020 -0.6764  0.6685
  753MOL0     C99316   5.476   0.456  11.209  0.1856  0.8271 -0.3804
  753MOL0     C99317   5.608   0.441  11.208 -1.0361  0.4354  0.6004
  753MOL0     C99318   6.059   0.496  11.147 -0.1310 -0.0899  0.4064
  753MOL0     C99319   6.076   0.438  11.278  0.0482  0.1424  0.2603
  753MOL0     C99320   6.193   0.373  11.309  0.7553  1.0741 -0.0834
  753MOL0     C99321   6.300   0.354  11.220  0.2640  0.0801  0.3845
  753MOL0     O99322   6.411   0.282  11.262  0.3661  0.2181 -0.8476
  753MOL0     C99323   6.515   0.247  11.169 -0.1866  0.0838 -0.2165
  753MOL0     C99324   6.620   0.362  11.150 -0.3810 -1.4138 -0.2486
  753MOL0     C99325   6.740   0.300  11.086 -0.0908  0.2495  0.1147
  753MOL0     C99326   6.842   0.398  11.028 -0.3442  0.0621 -0.0510
  753MOL0     C99327   6.960   0.332  10.978  0.0999 -0.5069  0.0090
  753MOL0     C99328   7.064   0.302  10.940  0.2669  0.1154 -0.2236
  753MOL0     C99329   6.279   0.406  11.091  0.0986 -0.3805  0.2280
  753MOL0     C99330   6.164   0.480  11.055 -0.2429 -0.3303  0.2450
  753MOL0     H99331   5.712   0.746  11.128 -0.5270 -0.3274  0.6839
  753MOL0     H99332   5.464   0.781  11.091  1.0614  1.8588  0.3693
  753MOL0     H99333   5.201   0.714  11.050  0.3828 -1.8868 -0.7502
  753MOL0     H99334   5.286   0.796  11.197 -3.5060  1.4528  4.0263
  753MOL0     H99335   5.087   0.744  11.337 -1.3536  1.4637  0.6160
  753MOL0     H99336   5.030   0.632  11.214 -0.6074  0.8994 -3.1581
  753MOL0     H99337   5.058   0.919  11.132  0.9624 -1.8437 -3.0764
  753MOL0     H99338   4.919   0.892  11.239  0.3121  0.8024 -0.3441
  753MOL0     H99339   4.995   0.759  10.975 -0.1386  0.4268 -0.1528
  753MOL0     H99340   4.875   0.679  11.074  0.9269 -1.3299 -2.2122
  753MOL0     H99341   4.851   0.968  10.960 -0.2270 -2.2583 -5.7455
  753MOL0     H99342   4.731   0.896  11.074  0.9131  0.1089  1.3111
  753MOL0     H99343   4.675   0.726  10.912 -1.1374  1.2230  1.0110
  753MOL0     H99344   4.819   0.786  10.813 -0.0904  2.3232 -1.6158
  753MOL0     H99345   4.695   0.991  10.761  4.6968 -0.3625  2.5114
  753MOL0     H99346   4.600   0.848  10.709  1.4032 -1.0847  0.6038
  753MOL0     H99347   4.477   1.040  10.822  1.7164  0.6859  0.9491
  753MOL0     H99348   4.553   1.010  10.979 -3.9194  0.7650  2.2669
  753MOL0     H99349   4.500   0.715  11.032  2.0362  2.6454 -0.0059
  753MOL0     H99350   4.352   0.508  11.031  1.9763  1.4312 -2.8206
  753MOL0     H99351   4.263   0.495  10.880  1.7410  0.3609 -0.8519
  753MOL0     H99352   4.064   0.619  11.026 -2.7858 -4.5506 -3.0160
  753MOL0     H99353   4.159   0.576  11.167  0.0801  0.9936  0.3463
  753MOL0     H99354   4.155   0.321  11.098  1.8521  1.1428  1.2905
  753MOL0     H99355   4.013   0.395  11.142 -1.2375 -0.3764 -0.7041
  753MOL0     H99356   3.994   0.246  10.959  2.5166  0.7362  1.2882
  753MOL0     H99357   4.098   0.360  10.861 -2.5440  0.1628 -2.0235
  753MOL0     H99358   3.801   0.577  11.075  1.9223 -0.2879  0.1018
  753MOL0     H99359   3.594   0.535  11.189 -1.4591 -0.8745 -0.4719
  753MOL0     H99360   3.186   0.601  11.169  0.4309 -0.3290  0.9303
  753MOL0     H99361   2.959   0.603  11.260  0.6449 -0.5895 -2.0944
  753MOL0     H99362   2.762   0.552  11.325 -1.1283 -0.1806  0.6745
  753MOL0     H99363   2.699   0.541  11.490 -1.8557 -0.3101 -0.4723
  753MOL0     H99364   2.654   0.296  11.467  3.2041 -0.0339  0.1137
  753MOL0     H99365   2.681   0.321  11.288  3.2723  1.6973  0.1675
  753MOL0     H99366   2.520   0.509  11.284 -0.6251 -2.7691 -2.8080
  753MOL0     H99367   2.477   0.486  11.452  2.1222  0.4357  2.0274
  753MOL0     H99368   2.411   0.288  11.222  0.6383 -0.5339  0.0763
  753MOL0     H99369   2.392   0.257  11.396  0.7861 -0.6821 -0.2163
  753MOL0     H99370   2.265   0.516  11.281 -1.7379 -0.2692 -1.3259
  753MOL0     H99371   2.236   0.423  11.420  0.0947  1.4721  0.2440
  753MOL0     H99372   2.136   0.233  11.260 -0.7580  0.7549  0.2166
  753MOL0     H99373   2.167   0.335  11.126  3.0562 -3.0916 -0.0322
  753MOL0     H99374   2.003   0.392  11.371  0.8815  1.4641 -0.3602
  753MOL0     H99375   2.013   0.509  11.240 -2.6280  1.3506  1.9250
  753MOL0     H99376   1.793   0.402  11.192  0.2429 -0.1477  0.3732
  753MOL0     H99377   1.851   0.249  11.239 -3.2243  1.4927 -1.0268
  753MOL0     H99378   3.021   0.243  11.477  3.2810  0.0038  1.3141
  753MOL0     H99379   3.272   0.237  11.402 -1.9752 -2.3299 -0.9064
  753MOL0     H99380   3.547   0.168  10.959  0.4484 -1.2591  1.2575
  753MOL0     H99381   3.744   0.219  10.853  1.6308  0.5427  0.5323
  753MOL0     H99382   5.405   0.378  11.235 -0.4822  1.3334 -0.6595
  753MOL0     H99383   5.644   0.349  11.254  1.6001  1.3531  0.5187
  753MOL0     H99384   6.003   0.438  11.358  1.0866 -0.3215  1.2282
  753MOL0     H99385   6.201   0.338  11.412  0.4942 -0.4735 -0.5680
  753MOL0     H99386   6.467   0.206  11.079 -2.3705  1.4771  0.2280
  753MOL0     H99387   6.575   0.172  11.221 -0.1622  1.3350  1.6400
  753MOL0     H99388   6.593   0.448  11.089 -0.6500  0.2064  2.0056
  753MOL0     H99389   6.636   0.413  11.246 -0.9737 -1.1114 -0.3068
  753MOL0     H99390   6.700   0.236  11.007  1.6253 -1.0441  0.2320
  753MOL0     H99391   6.792   0.230  11.153  0.8692  2.3155  1.6251
  753MOL0     H99392   6.802   0.460  10.947 -0.2305 -2.5762 -2.3132
  753MOL0     H99393   6.879   0.460  11.110 -3.8459  1.6921  0.4628
  753MOL0     H99394   7.164   0.284  10.906  1.1126  2.0041  1.0941
  753MOL0     H99395   6.358   0.407  11.016  0.7665  0.7179  0.9230
  753MOL0     H99396   6.158   0.517  10.953  0.4734 -1.7379 -0.3359
  754MOL0     O99397   8.593   5.114   8.916 -0.8478 -0.8462  0.1987
  754MOL0     C99398   8.519   5.042   8.858  0.2300  0.7397 -0.1280
  754MOL0     O99399   8.547   4.931   8.790 -0.1644  0.1075  0.4945
  754MOL0     C99400   8.672   4.883   8.785  0.3116 -0.2515  0.0968
  754MOL0     C99401   8.792   4.955   8.775 -0.3346 -0.2271  0.6222
  754MOL0     C99402   8.914   4.887   8.767 -0.0579  0.2946  0.9354
  754MOL0     C99403   8.922   4.748   8.756 -0.4924 -0.0943 -0.0346
  754MOL0     O99404   9.030   4.672   8.743  0.3450 -0.2880 -0.1384
  754MOL0     C99405   9.130   4.723   8.648  0.6243 -0.0110 -0.2652
  754MOL0     C99406   9.225   4.617   8.595 -0.6704  0.7817 -0.3824
  754MOL0     C99407   9.293   4.546   8.719  0.8904  0.1192  1.5071
  754MOL0     C99408   9.412   4.458   8.681 -0.1537 -0.0447  0.0424
  754MOL0     C99409   9.485   4.396   8.803 -0.6332  0.2933 -0.3851
  754MOL0     C99410   9.609   4.306   8.763  0.3082 -0.1994 -0.6509
  754MOL0     C99411   9.586   4.174   8.695  0.6193 -0.2874  0.1233
  754MOL0     C99412   9.653   4.065   8.773  0.2624  0.1950  0.0439
  754MOL0     N99413   9.610   3.929   8.713 -0.5221 -0.3622  0.1219
  754MOL0     C99414   9.482   3.882   8.730 -0.2572  0.2640 -0.6365
  754MOL0     C99415   9.462   3.789   8.640  0.2171  0.5243 -0.2197
  754MOL0     C99416   9.325   3.713   8.623 -0.7625  0.0269  0.6324
  754MOL0     C99417   9.298   3.693   8.467 -0.5586 -0.1811 -0.7218
  754MOL0     C99418   9.151   3.663   8.450  0.3904  0.2196  0.0196
  754MOL0     C99419   9.063   3.786   8.461 -0.5129  0.6582 -0.2725
  754MOL0     O99420   8.922   3.744   8.438 -0.1022  0.3080 -0.5548
  754MOL0     C99421   8.833   3.843   8.443 -0.0542  0.5962 -0.7596
  754MOL0     C99422   8.707   3.828   8.383 -0.6308  0.7138 -0.4326
  754MOL0     C99423   8.601   3.914   8.375  0.5328  0.4294  0.4513
  754MOL0     C99424   8.616   4.046   8.423  0.7143 -0.6229  0.4585
  754MOL0     C99425   8.508   4.151   8.397 -0.7958  0.2942  0.0622
  754MOL0     O99426   8.399   4.099   8.344  0.1151  0.3918 -0.2619
  754MOL0     C99427   8.278   4.162   8.322  0.4373  0.4369  0.4620
  754MOL0     C99428   8.230   4.258   8.410 -0.0666 -0.7544  0.4635
  754MOL0     C99429   8.099   4.311   8.390  1.1557 -0.1165  0.0412
  754MOL0     C99430   8.019   4.272   8.285 -0.6554  0.5310 -0.2712
  754MOL0     O99431   7.883   4.312   8.256 -0.2699  0.6710  0.0215
  754MOL0     C99432   7.848   4.448   8.290  0.3551  0.2900 -0.4010
  754MOL0     C99433   7.710   4.472   8.226 -0.2009  0.1114  1.0549
  754MOL0     C99434   7.612   4.372   8.279  0.1847  0.0877 -0.0957
  754MOL0     C99435   7.474   4.382   8.217 -0.7059 -0.0849 -1.4976
  754MOL0     C99436   7.382   4.290   8.297 -0.2218  0.1696 -0.4180
  754MOL0     C99437   7.237   4.312   8.249 -0.5588  1.2379  0.2897
  754MOL0     C99438   7.222   4.290   8.097 -1.1959 -0.6883  0.3460
  754MOL0     C99439   7.080   4.269   8.042  0.4300 -0.0373 -0.0282
  754MOL0    Cl99440   6.950   4.367   8.148 -0.2346  0.4667  0.1831
  754MOL0     C99441   8.064   4.168   8.202 -0.4352  0.5167  0.7093
  754MOL0     C99442   8.196   4.107   8.224  1.3940  1.4560 -0.1392
  754MOL0     O99443   8.536   4.270   8.417  0.9600  0.4903  0.0522
  754MOL0     C99444   8.747   4.075   8.473  0.0536  0.9298 -0.3122
  754MOL0     C99445   8.848   3.975   8.495  0.0815  0.2526  0.5745
  754MOL0     N99446   9.574   3.800   8.558  0.1048  0.3724 -0.3035
  754MOL0     N99447   9.663   3.877   8.606  0.1392 -0.0989  0.7274
  754MOL0     C99448   8.802   4.674   8.778 -0.9916  0.5629  0.3642
  754MOL0     C99449   8.680   4.745   8.786 -0.6122  0.0303 -0.7480
  754MOL0     C99450   8.381   5.084   8.866 -0.3000  0.7654  1.0447
  754MOL0     C99451   8.322   5.124   8.984 -0.6623  0.2176 -0.3712
  754MOL0     C99452   8.188   5.161   8.992 -0.6264  1.5838 -1.0949
  754MOL0     C99453   8.102   5.135   8.883  0.4084 -0.2237 -1.0736
  754MOL0     O99454   7.971   5.182   8.901  0.0236 -0.6187 -0.3936
  754MOL0     C99455   7.874   5.144   8.805 -0.3201  0.1744 -0.3369
  754MOL0     C99456   7.744   5.203   8.846 -0.4680  0.5036  0.2320
  754MOL0     C99457   7.742   5.349   8.894  0.4346  0.1726  0.2989
  754MOL0     C99458   7.607   5.402   8.947 -0.3182 -0.3695 -0.0242
  754MOL0     C99459   7.494   5.363   8.869 -0.0424 -0.5305 -0.4200
  754MOL0     C99460   7.412   5.340   8.784 -0.0728  0.2846 -0.3721
  754MOL0     C99461   8.156   5.083   8.765  0.6668  0.2579 -0.4550
  754MOL0     C99462   8.290   5.054   8.759 -0.2223 -0.7844  0.3092
  754MOL0     H99463   8.778   5.061   8.758 -1.6302 -0.4418  0.1619
  754MOL0     H99464   8.996   4.958   8.757  0.3499 -0.3533 -0.7170
  754MOL0     H99465   9.188   4.807   8.689  0.2504  1.5374 -2.7116
  754MOL0     H99466   9.082   4.777   8.566 -1.1415  2.5313  2.2274
  754MOL0     H99467   9.295   4.666   8.526  0.4139 -0.7680 -0.4401
  754MOL0     H99468   9.160   4.549   8.539 -0.3968 -0.7944  1.1503
  754MOL0     H99469   9.213   4.489   8.768  0.7241 -1.2322 -0.2293
  754MOL0     H99470   9.331   4.629   8.780 -1.1433  2.1790  0.1425
  754MOL0     H99471   9.355   4.382   8.628  1.7936  0.0243 -2.3409
  754MOL0     H99472   9.485   4.503   8.613  2.1370 -0.2138  2.2114
  754MOL0     H99473   9.419   4.338   8.868  0.4447  0.0528  0.5386
  754MOL0     H99474   9.521   4.481   8.862 -0.7739 -0.1220  0.3110
  754MOL0     H99475   9.664   4.291   8.857  0.7331  2.5466 -0.3868
  754MOL0     H99476   9.674   4.361   8.695 -2.4803  0.5119 -2.9183
  754MOL0     H99477   9.481   4.145   8.697  0.4913 -0.2102 -2.6127
  754MOL0     H99478   9.618   4.191   8.592  1.7102  1.6656  0.7196
  754MOL0     H99479   9.634   4.060   8.881  0.2007  1.0388  0.0796
  754MOL0     H99480   9.761   4.070   8.763  0.6658 -2.1133  2.2426
  754MOL0     H99481   9.411   3.906   8.809  1.6335  1.9090  0.6552
  754MOL0     H99482   9.250   3.775   8.673 -0.4650  1.4928 -0.6444
  754MOL0     H99483   9.331   3.618   8.676 -2.7772 -0.1653  0.5787
  754MOL0     H99484   9.359   3.611   8.427 -2.4973 -2.9250  1.4812
  754MOL0     H99485   9.319   3.779   8.403 -2.5779 -0.6506 -2.1151
  754MOL0     H99486   9.144   3.611   8.354 -1.3293 -2.0734  1.2747
  754MOL0     H99487   9.114   3.581   8.513 -1.1687 -0.2723 -1.4644
  754MOL0     H99488   9.103   3.855   8.386  2.5292 -3.2496 -2.6314
  754MOL0     H99489   9.067   3.822   8.564  2.2177  0.2736 -0.1620
  754MOL0     H99490   8.684   3.729   8.345  1.6695 -1.4361  3.1675
  754MOL0     H99491   8.510   3.875   8.332  0.7761  3.5589 -3.4325
  754MOL0     H99492   8.292   4.290   8.493  1.4952 -1.1635 -0.5093
  754MOL0     H99493   8.054   4.380   8.461 -1.8812 -1.4616 -0.4103
  754MOL0     H99494   7.923   4.523   8.263 -0.2955  1.0702 -0.0777
  754MOL0     H99495   7.819   4.446   8.396 -2.9126 -0.6206 -1.2089
  754MOL0     H99496   7.722   4.457   8.119 -0.3131  0.4475  0.9940
  754MOL0     H99497   7.690   4.578   8.248 -3.8365  0.2383 -1.9083
  754MOL0     H99498   7.608   4.392   8.387 -1.3676  0.0888 -0.1333
  754MOL0     H99499   7.644   4.269   8.263 -0.9031  0.2211 -4.1194
  754MOL0     H99500   7.436   4.485   8.215 -2.7000 -0.7707 -3.3755
  754MOL0     H99501   7.486   4.338   8.117  2.1701 -2.0194 -0.4271
  754MOL0     H99502   7.382   4.312   8.404  0.7881  0.2336 -0.4240
  754MOL0     H99503   7.413   4.187   8.276 -0.6374  0.0571 -0.4944
  754MOL0     H99504   7.214   4.412   8.286  0.6452  1.2514  1.0606
  754MOL0     H99505   7.173   4.244   8.305  0.1629  2.3854  2.6275
  754MOL0     H99506   7.271   4.370   8.041 -1.7662 -0.6405 -0.0977
  754MOL0     H99507   7.273   4.198   8.064 -1.5849 -0.2881 -1.5068
  754MOL0     H99508   7.044   4.166   8.039 -0.3637  0.2539 -1.8916
  754MOL0     H99509   7.079   4.305   7.939  1.8813  1.9030  0.5758
  754MOL0     H99510   8.001   4.152   8.115 -2.1235  1.1066  1.7703
  754MOL0     H99511   8.240   4.027   8.165  2.1408  0.8460  1.2119
  754MOL0     H99512   8.778   4.177   8.493  0.0843  0.6408  1.2300
  754MOL0     H99513   8.933   4.009   8.554  0.6403  1.3479 -0.7925
  754MOL0     H99514   8.784   4.567   8.765 -0.9215  0.3787  1.6520
  754MOL0     H99515   8.579   4.707   8.795 -1.2726  2.1483  2.2497
  754MOL0     H99516   8.381   5.130   9.076 -0.5704 -1.1432 -0.3158
  754MOL0     H99517   8.154   5.206   9.085 -0.4225 -0.3922 -0.0225
  754MOL0     H99518   7.859   5.036   8.799  3.2408 -0.4495 -0.1393
  754MOL0     H99519   7.899   5.176   8.703  2.9281 -1.1768 -0.0867
  754MOL0     H99520   7.676   5.201   8.760 -1.8099  3.0026  1.1168
  754MOL0     H99521   7.696   5.143   8.924  0.3520  0.0382  0.3900
  754MOL0     H99522   7.766   5.402   8.802 -2.2991 -0.1584 -0.6706
  754MOL0     H99523   7.825   5.372   8.963  0.4876 -1.9119  0.9926
  754MOL0     H99524   7.613   5.363   9.049  0.7320  1.5092  0.6773
  754MOL0     H99525   7.610   5.511   8.952 -0.5907 -0.2377 -1.8663
  754MOL0     H99526   7.341   5.339   8.705 -2.3555  1.0855  1.5660
  754MOL0     H99527   8.083   5.070   8.686 -1.0333  1.4069  0.8594
  754MOL0     H99528   8.326   5.008   8.667  1.6587 -0.7999  1.0002
  755MOL0     O99529   0.238   1.226  10.749 -0.6150 -0.3993 -0.6749
  755MOL0     C99530   0.163   1.190  10.836  0.5299  0.5254 -0.2768
  755MOL0     O99531   0.025   1.168  10.820 -0.5286 -0.2313 -0.8275
  755MOL0     C99532  -0.042   1.194  10.703  0.8809  0.4910 -0.4476
  755MOL0     C99533  -0.021   1.309  10.621 -0.7172 -0.1895 -0.8400
  755MOL0     C99534  -0.104   1.327  10.516  0.1036  0.1613 -0.2721
  755MOL0     C99535  -0.207   1.243  10.474  0.3487  0.1827  0.3344
  755MOL0     O99536  -0.286   1.292  10.370 -0.3022  0.8191  0.0842
  755MOL0     C99537  -0.416   1.233  10.349 -0.0316  0.1904  0.0862
  755MOL0     C99538  -0.445   1.171  10.217  0.4975 -0.4670 -0.5619
  755MOL0     C99539  -0.589   1.183  10.167  0.1825 -0.2190 -0.2419
  755MOL0     C99540  -0.688   1.140  10.276  1.3226 -0.9186 -0.2684
  755MOL0     C99541  -0.841   1.178  10.255  0.0327 -0.5075 -0.4102
  755MOL0     C99542  -0.900   1.118  10.131  0.3841  0.8073 -1.3613
  755MOL0     C99543  -1.050   1.113  10.137  0.9094 -0.0331  0.1016
  755MOL0     C99544  -1.104   1.069  10.003 -0.2942  0.3915 -0.1930
  755MOL0     N99545  -1.250   1.048  10.003  0.3648 -0.9005  0.1140
  755MOL0     C99546  -1.326   0.956  10.068 -0.1459 -0.1199 -0.6555
  755MOL0     C99547  -1.455   0.990  10.043 -0.2445  0.3006  0.0863
  755MOL0     C99548  -1.588   0.926  10.091 -0.3352  0.4877 -0.3505
  755MOL0     C99549  -1.711   0.989  10.024  0.3235  0.1852 -1.2694
  755MOL0     C99550  -1.751   0.937   9.881 -0.2626  0.6831  0.2941
  755MOL0     C99551  -1.869   1.012   9.808 -0.5240 -0.6681  0.2901
  755MOL0     O99552  -1.993   0.995   9.885 -0.4941 -0.4128  0.2903
  755MOL0     C99553  -2.102   1.068   9.854  0.9712  0.4929 -0.6131
  755MOL0     C99554  -2.213   1.044   9.937  0.0288 -0.3337  0.4733
  755MOL0     C99555  -2.335   1.117   9.926 -0.4716  0.5102  0.6544
  755MOL0     C99556  -2.351   1.199   9.814 -1.0821 -0.2205  0.0098
  755MOL0     C99557  -2.489   1.248   9.785 -0.0360  0.5063  0.9174
  755MOL0     O99558  -2.597   1.231   9.866  0.0284 -0.1534 -1.0708
  755MOL0     C99559  -2.727   1.262   9.846  0.0781 -0.1846 -0.0599
  755MOL0     C99560  -2.787   1.260   9.716 -0.4616  0.4234 -1.8636
  755MOL0     C99561  -2.924   1.282   9.707  0.1789 -0.0815  0.2007
  755MOL0     C99562  -3.007   1.306   9.816 -0.7241 -1.0010  0.5358
  755MOL0     O99563  -3.138   1.315   9.781 -0.9809  0.0813 -0.2361
  755MOL0     C99564  -3.224   1.355   9.884 -0.2824  1.1070  1.4250
  755MOL0     C99565  -3.335   1.414   9.798 -0.1054  0.0779 -0.3422
  755MOL0     C99566  -3.446   1.435   9.898 -0.7326  0.7833  0.2936
  755MOL0     C99567  -3.571   1.490   9.830 -0.6392 -0.4622 -0.9067
  755MOL0     C99568  -3.697   1.509   9.927  0.2748  0.2511 -0.2330
  755MOL0     C99569  -3.718   1.394  10.025 -0.1614  0.7210 -0.2075
  755MOL0     C99570  -3.824   1.436  10.137 -0.3322 -0.6160  0.0506
  755MOL0     C99571  -3.826   1.326  10.242 -0.8217 -0.1592 -0.7786
  755MOL0    Cl99572  -3.980   1.319  10.336  0.1472 -0.0996 -0.1153
  755MOL0     C99573  -2.955   1.310   9.939 -0.0882 -0.1614  0.9815
  755MOL0     C99574  -2.814   1.285   9.953 -0.5629 -0.7714  0.1224
  755MOL0     O99575  -2.484   1.311   9.675 -0.7165  0.4723 -0.3942
  755MOL0     C99576  -2.241   1.206   9.717  0.5746  0.0794 -0.5107
  755MOL0     C99577  -2.118   1.157   9.743  0.2455  0.4453 -0.5565
  755MOL0     N99578  -1.444   1.100   9.962 -0.7375 -0.5774  0.1874
  755MOL0     N99579  -1.322   1.133   9.934 -0.4694  0.2853 -0.4107
  755MOL0     C99580  -0.229   1.130  10.556  0.8041  0.5474 -0.1486
  755MOL0     C99581  -0.142   1.102  10.664  0.0813 -0.5768  0.9123
  755MOL0     C99582   0.213   1.164  10.976  0.0395 -0.4303 -1.7657
  755MOL0     C99583   0.128   1.104  11.075 -0.9569 -0.6485  0.3230
  755MOL0     C99584   0.175   1.096  11.211 -0.2902 -1.0974 -0.5382
  755MOL0     C99585   0.302   1.148  11.249 -0.1127  0.4575 -0.1847
  755MOL0     O99586   0.353   1.149  11.378 -0.3291 -0.4389  0.4069
  755MOL0     C99587   0.263   1.115  11.486 -0.4241  0.1077 -0.0255
  755MOL0     C99588   0.343   1.107  11.607 -0.0994  0.0680 -0.3703
  755MOL0     C99589   0.443   0.994  11.621 -0.3451 -0.1855 -1.0987
  755MOL0     C99590   0.568   1.007  11.533  0.2549 -0.4136 -0.3779
  755MOL0     C99591   0.684   0.957  11.606  0.6074  0.4640  0.7938
  755MOL0     C99592   0.784   0.930  11.667 -0.7953 -0.9311  0.0798
  755MOL0     C99593   0.376   1.203  11.151 -0.5761  0.0417  0.1570
  755MOL0     C99594   0.337   1.219  11.018 -0.8220  0.0957  0.0233
  755MOL0     H99595   0.066   1.366  10.651 -0.1122 -1.8352  0.6882
  755MOL0     H99596  -0.083   1.421  10.466 -0.7811 -0.3719 -1.6722
  755MOL0     H99597  -0.484   1.315  10.369  0.1764  0.5365 -0.6027
  755MOL0     H99598  -0.437   1.158  10.427  1.7462 -0.1849  0.2459
  755MOL0     H99599  -0.419   1.065  10.223 -2.3989 -1.2173  0.0903
  755MOL0     H99600  -0.378   1.217  10.143  0.0694 -0.4279 -0.9356
  755MOL0     H99601  -0.603   1.117  10.081 -1.8884  0.6954 -0.6741
  755MOL0     H99602  -0.593   1.289  10.142  3.3019 -0.2935 -1.5696
  755MOL0     H99603  -0.667   1.034  10.293  1.6579 -1.0334 -1.3309
  755MOL0     H99604  -0.658   1.197  10.365  1.4249  2.9742 -2.5694
  755MOL0     H99605  -0.856   1.286  10.246  1.5451 -0.3168 -1.0080
  755MOL0     H99606  -0.900   1.158  10.344  1.4851 -1.8860  0.2868
  755MOL0     H99607  -0.867   1.015  10.112  1.2048  1.1854 -2.0413
  755MOL0     H99608  -0.867   1.179  10.047  0.5756  2.7985  0.0717
  755MOL0     H99609  -1.066   1.042  10.218  2.5177 -0.1362  0.3575
  755MOL0     H99610  -1.104   1.204  10.164 -0.7432 -1.0051  0.2596
  755MOL0     H99611  -1.055   0.975   9.975 -0.6510  0.2639 -0.3974
  755MOL0     H99612  -1.082   1.151   9.935  0.0407  3.4156  3.2362
  755MOL0     H99613  -1.294   0.870  10.126 -0.5806 -0.9892 -1.6816
  755MOL0     H99614  -1.593   0.942  10.199  1.6560 -0.7183 -0.0423
  755MOL0     H99615  -1.598   0.820  10.068  0.6636 -1.0299  4.8419
  755MOL0     H99616  -1.694   1.096  10.013 -2.3951  0.8101 -0.2526
  755MOL0     H99617  -1.794   0.976  10.094  2.5268  0.6296  1.5640
  755MOL0     H99618  -1.661   0.934   9.819 -1.7109 -0.4110 -1.8371
  755MOL0     H99619  -1.794   0.837   9.890 -0.6628  0.9557  1.6056
  755MOL0     H99620  -1.892   0.966   9.711 -3.0246  1.1347 -0.0482
  755MOL0     H99621  -1.840   1.115   9.786  0.3388 -1.1261 -0.8784
  755MOL0     H99622  -2.212   0.982  10.026 -1.5350  1.5720  1.9018
  755MOL0     H99623  -2.409   1.102  10.004  1.4824  0.2927  2.5514
  755MOL0     H99624  -2.731   1.240   9.625  2.6310  1.0998 -0.2576
  755MOL0     H99625  -2.962   1.276   9.606  1.7351  3.1272 -0.7235
  755MOL0     H99626  -3.178   1.430   9.949  2.3574  0.8808 -0.0326
  755MOL0     H99627  -3.242   1.262   9.939 -0.1858  0.3240  0.1914
  755MOL0     H99628  -3.371   1.347   9.720  0.9672  1.9751 -2.5818
  755MOL0     H99629  -3.306   1.507   9.749  0.9614 -0.0098  0.0979
  755MOL0     H99630  -3.416   1.504   9.978 -2.7815  1.3214  0.6489
  755MOL0     H99631  -3.468   1.342   9.952 -1.8949  0.8393 -0.0505
  755MOL0     H99632  -3.537   1.579   9.776  0.4183 -0.0067  0.4394
  755MOL0     H99633  -3.594   1.415   9.754 -0.1245  1.6311 -3.2257
  755MOL0     H99634  -3.791   1.528   9.874 -1.0028  1.5238  2.3578
  755MOL0     H99635  -3.685   1.601   9.985 -1.9726  1.5139 -1.5935
  755MOL0     H99636  -3.624   1.377  10.078 -0.8307  1.5641  1.3161
  755MOL0     H99637  -3.739   1.298   9.978  3.2713 -0.5791  0.6381
  755MOL0     H99638  -3.789   1.531  10.178  0.3163 -0.0047 -1.8066
  755MOL0     H99639  -3.922   1.450  10.091 -0.6660  2.8398  1.4997
  755MOL0     H99640  -3.732   1.340  10.296  1.3002 -3.8656 -3.0914
  755MOL0     H99641  -3.814   1.220  10.218  2.9853 -0.2360  0.7658
  755MOL0     H99642  -3.016   1.326  10.027  0.6734 -1.0241  1.6771
  755MOL0     H99643  -2.773   1.295  10.053 -4.3606  3.0841  1.6075
  755MOL0     H99644  -2.246   1.273   9.632 -1.3505  0.1584 -0.3787
  755MOL0     H99645  -2.045   1.171   9.665  0.1406  0.2734 -0.6847
  755MOL0     H99646  -0.303   1.051  10.541  1.7951 -0.0572 -2.2071
  755MOL0     H99647  -0.162   1.022  10.735 -0.2345  1.3023  3.0806
  755MOL0     H99648   0.031   1.060  11.056 -1.4886 -0.4462  2.4106
  755MOL0     H99649   0.113   1.062  11.293 -1.8358  1.4098 -0.5585
  755MOL0     H99650   0.214   1.023  11.454  1.4614  0.0812 -3.3582
  755MOL0     H99651   0.179   1.183  11.503 -0.7228 -0.2842  0.0690
  755MOL0     H99652   0.386   1.205  11.631 -3.3015  1.6136 -0.4850
  755MOL0     H99653   0.268   1.106  11.686 -0.6725  1.6662 -0.8608
  755MOL0     H99654   0.398   0.896  11.602 -1.4911 -0.8060  3.4692
  755MOL0     H99655   0.471   0.999  11.727 -1.4835 -1.3127 -0.7118
  755MOL0     H99656   0.554   0.950  11.441  0.8642  1.9128 -2.0180
  755MOL0     H99657   0.580   1.114  11.513  1.2931  0.2084  2.9251
  755MOL0     H99658   0.876   0.907  11.717 -0.4565 -0.0513 -0.1225
  755MOL0     H99659   0.473   1.250  11.166  0.3259 -0.9984 -1.9122
  755MOL0     H99660   0.395   1.284  10.954 -1.0827  0.8698  0.5549
  756MOL0     O99661   3.427   0.976   6.464  0.2099 -0.3451 -0.6778
  756MOL0     C99662   3.456   0.941   6.348  0.0995 -0.3882  0.2744
  756MOL0     O99663   3.371   0.882   6.264 -0.0059  0.8103 -0.5513
  756MOL0     C99664   3.255   0.823   6.309 -0.4458 -0.5571  0.7583
  756MOL0     C99665   3.146   0.906   6.322 -0.6940  0.3642  0.1879
  756MOL0     C99666   3.027   0.853   6.386  0.5900 -0.2127  0.4616
  756MOL0     C99667   3.020   0.720   6.423 -0.3336  0.8142 -0.4274
  756MOL0     O99668   2.902   0.676   6.477  0.0703  0.3786  0.5803
  756MOL0     C99669   2.858   0.543   6.438 -0.8209 -0.0145  0.0974
  756MOL0     C99670   2.852   0.451   6.560  0.9238  0.5000 -0.7759
  756MOL0     C99671   2.740   0.353   6.542  0.0617 -0.2408 -0.5307
  756MOL0     C99672   2.599   0.409   6.560 -0.7350  0.0689  0.2817
  756MOL0     C99673   2.488   0.301   6.557 -0.1899 -0.6768  0.0590
  756MOL0     C99674   2.367   0.358   6.634 -0.7204  0.4431 -0.8000
  756MOL0     C99675   2.246   0.268   6.615 -0.0452 -0.1312 -0.2686
  756MOL0     C99676   2.143   0.316   6.706 -0.6807  0.7999  0.3751
  756MOL0     N99677   2.026   0.223   6.710 -0.1773  0.5904  0.1431
  756MOL0     C99678   1.940   0.182   6.610 -1.4441 -0.1771 -0.3411
  756MOL0     C99679   1.863   0.098   6.671  0.7303 -0.0491  1.4872
  756MOL0     C99680   1.750   0.014   6.608  0.0749 -0.5813  0.2270
  756MOL0     C99681   1.605   0.076   6.614 -0.7146  0.9770 -0.1867
  756MOL0     C99682   1.557   0.070   6.759 -0.2718  0.1113  0.0368
  756MOL0     C99683   1.433   0.153   6.782  0.2156 -0.9794  0.1790
  756MOL0     O99684   1.320   0.093   6.723 -0.3476  0.7666  0.8241
  756MOL0     C99685   1.197   0.149   6.745  0.1742  0.7760  0.2693
  756MOL0     C99686   1.176   0.270   6.820  0.2919 -0.7852  0.4287
  756MOL0     C99687   1.043   0.321   6.829 -0.5680 -0.4017 -0.0873
  756MOL0     C99688   0.932   0.259   6.778  0.3746  0.5865  0.2133
  756MOL0     C99689   0.793   0.294   6.819  0.3447 -0.2407  0.3213
  756MOL0     O99690   0.690   0.227   6.760 -0.1489  0.1286  0.6363
  756MOL0     C99691   0.561   0.262   6.786 -0.1021 -0.3714  0.2393
  756MOL0     C99692   0.479   0.212   6.685  0.4013  0.1963  0.3906
  756MOL0     C99693   0.341   0.233   6.686 -0.0701 -1.1644 -0.0064
  756MOL0     C99694   0.276   0.291   6.790 -0.0467 -1.2815  0.9168
  756MOL0     O99695   0.143   0.320   6.776  0.3570 -0.5244  0.1504
  756MOL0     C99696   0.074   0.403   6.866 -0.6425 -0.1359 -0.0306
  756MOL0     C99697  -0.070   0.404   6.824  0.4295 -0.0606  0.9606
  756MOL0     C99698  -0.146   0.495   6.908 -0.0340 -0.3327 -0.6698
  756MOL0     C99699  -0.293   0.498   6.866 -0.2243 -1.0046 -0.3990
  756MOL0     C99700  -0.382   0.595   6.955 -0.1309  0.1050 -0.0520
  756MOL0     C99701  -0.423   0.535   7.088  0.3990  0.7247 -0.0258
  756MOL0     C99702  -0.525   0.614   7.172 -0.0494 -0.4585  1.0548
  756MOL0     C99703  -0.571   0.557   7.310 -0.6603  0.3160 -0.0835
  756MOL0    Cl99704  -0.441   0.521   7.430 -0.0995  0.5941 -0.1135
  756MOL0     C99705   0.353   0.327   6.904  0.6547 -0.0590  0.5542
  756MOL0     C99706   0.497   0.304   6.908  0.1039 -0.5846 -0.3397
  756MOL0     O99707   0.789   0.381   6.902 -0.2752 -0.0707  0.6262
  756MOL0     C99708   0.950   0.138   6.716 -0.4656  0.7300  0.5092
  756MOL0     C99709   1.078   0.082   6.700 -0.6290  0.9766 -0.0487
  756MOL0     N99710   1.890   0.079   6.803 -0.5340 -0.2023  0.0692
  756MOL0     N99711   1.994   0.154   6.820 -0.1771  0.5013 -0.4849
  756MOL0     C99712   3.131   0.638   6.403  0.0232 -0.5815  0.5023
  756MOL0     C99713   3.248   0.689   6.347 -0.0959  0.5145  0.6003
  756MOL0     C99714   3.602   0.941   6.310 -0.6012 -0.1728  0.5172
  756MOL0     C99715   3.654   0.844   6.225 -1.2588 -0.1733 -0.8796
  756MOL0     C99716   3.789   0.849   6.192 -0.2592  0.1153 -0.8257
  756MOL0     C99717   3.878   0.942   6.238 -0.0829  0.2080  0.4095
  756MOL0     O99718   4.007   0.960   6.198 -0.1823 -0.5555  0.0220
  756MOL0     C99719   4.089   0.849   6.157 -0.6697 -0.2717 -0.4234
  756MOL0     C99720   4.129   0.785   6.284 -0.8739 -0.3712 -0.6966
  756MOL0     C99721   4.225   0.662   6.264 -0.3065  0.1028  0.1473
  756MOL0     C99722   4.370   0.719   6.246 -0.0843 -0.0353  0.1480
  756MOL0     C99723   4.443   0.626   6.159 -0.9041 -0.1424 -0.0463
  756MOL0     C99724   4.502   0.541   6.091 -0.7238 -0.7037 -1.3145
  756MOL0     C99725   3.824   1.038   6.325  0.0811 -0.7571  0.3278
  756MOL0     C99726   3.691   1.033   6.362  0.5909  0.5985 -0.4525
  756MOL0     H99727   3.150   1.013   6.306  1.7705  0.2159 -0.6322
  756MOL0     H99728   2.943   0.919   6.410 -1.4409 -2.5234  0.1076
  756MOL0     H99729   2.922   0.494   6.365 -0.2114  0.3094  0.4047
  756MOL0     H99730   2.760   0.559   6.392 -0.5989  2.4974  0.3363
  756MOL0     H99731   2.822   0.517   6.641  2.2563  1.2044 -0.8361
  756MOL0     H99732   2.945   0.401   6.584 -0.5588 -1.9202  0.3056
  756MOL0     H99733   2.758   0.265   6.604 -0.8014 -0.1094 -0.0696
  756MOL0     H99734   2.751   0.317   6.440  1.3621 -1.3356 -0.0356
  756MOL0     H99735   2.587   0.465   6.653  0.5717 -0.7158  0.9577
  756MOL0     H99736   2.572   0.487   6.488 -2.7439  0.5091  1.4255
  756MOL0     H99737   2.526   0.219   6.619  0.2022  0.9772  2.1258
  756MOL0     H99738   2.457   0.279   6.455 -4.4619 -2.4166  1.5195
  756MOL0     H99739   2.340   0.452   6.585  0.4699  0.1901 -2.0006
  756MOL0     H99740   2.389   0.378   6.739 -0.7274 -0.7867 -0.5468
  756MOL0     H99741   2.213   0.269   6.510  1.1006  1.6455 -0.6460
  756MOL0     H99742   2.274   0.166   6.643  2.3375  0.7901  0.9728
  756MOL0     H99743   2.119   0.417   6.673  1.9708  0.8580 -1.7764
  756MOL0     H99744   2.187   0.317   6.806  1.1135 -1.5199 -0.2975
  756MOL0     H99745   1.949   0.200   6.503 -2.0834 -0.7819 -0.5031
  756MOL0     H99746   1.756  -0.089   6.643  5.0917 -1.6085 -2.7633
  756MOL0     H99747   1.773   0.010   6.501  1.3308 -2.2702  0.5181
  756MOL0     H99748   1.538   0.016   6.551  0.2535  1.1375 -1.4051
  756MOL0     H99749   1.591   0.180   6.586 -2.6015  0.1823 -2.5864
  756MOL0     H99750   1.534  -0.036   6.769  0.0213 -0.0549 -0.9035
  756MOL0     H99751   1.639   0.100   6.825  0.6182 -2.5369  0.2503
  756MOL0     H99752   1.450   0.255   6.746 -1.4184 -1.4476 -2.1654
  756MOL0     H99753   1.420   0.168   6.889 -0.3662 -2.9867  0.4403
  756MOL0     H99754   1.261   0.323   6.862 -0.2996  0.5440  0.0003
  756MOL0     H99755   1.025   0.414   6.882 -1.4545  0.5793 -1.9888
  756MOL0     H99756   0.522   0.169   6.595 -0.3846 -2.1297  1.0506
  756MOL0     H99757   0.290   0.216   6.592  2.4705  1.8205 -2.1233
  756MOL0     H99758   0.114   0.505   6.866  2.2716 -1.1842  0.9167
  756MOL0     H99759   0.088   0.371   6.969 -0.2329  2.5640  0.8339
  756MOL0     H99760  -0.118   0.305   6.822 -0.2580  0.2214  2.1301
  756MOL0     H99761  -0.065   0.446   6.723 -0.3387 -1.2134  0.4186
  756MOL0     H99762  -0.107   0.596   6.924  2.7721 -1.5581  0.8775
  756MOL0     H99763  -0.147   0.437   7.000  0.8193 -0.3559 -0.6732
  756MOL0     H99764  -0.305   0.530   6.762 -4.6725 -1.6926 -0.2871
  756MOL0     H99765  -0.335   0.398   6.851 -3.3769  0.5662 -3.1777
  756MOL0     H99766  -0.481   0.600   6.908 -0.6472 -1.5170  0.7860
  756MOL0     H99767  -0.328   0.686   6.984  0.5424 -0.7190  1.4449
  756MOL0     H99768  -0.327   0.521   7.140  0.1376  2.1127  0.8929
  756MOL0     H99769  -0.468   0.438   7.064  0.5567  0.9094 -1.0982
  756MOL0     H99770  -0.472   0.708   7.193  0.7434  0.0776 -2.6181
  756MOL0     H99771  -0.619   0.623   7.115 -0.2424 -1.6560  1.1750
  756MOL0     H99772  -0.617   0.459   7.292  0.7398 -0.7378  1.7078
  756MOL0     H99773  -0.650   0.615   7.358 -0.3417  0.3230  0.4380
  756MOL0     H99774   0.294   0.367   6.987 -0.9180  0.0633 -0.5788
  756MOL0     H99775   0.549   0.308   7.003 -3.6126 -0.2591  1.8826
  756MOL0     H99776   0.866   0.077   6.686 -1.2519  1.6846  0.7368
  756MOL0     H99777   1.082  -0.010   6.643 -2.6242  1.4862 -1.1204
  756MOL0     H99778   3.135   0.534   6.432 -0.2608 -1.6646 -2.8434
  756MOL0     H99779   3.333   0.622   6.334  0.4194  1.4987 -1.6743
  756MOL0     H99780   3.594   0.766   6.178 -0.2308 -0.4466 -1.7978
  756MOL0     H99781   3.820   0.780   6.114 -0.3487 -1.4139  0.4307
  756MOL0     H99782   4.187   0.878   6.118  0.5025 -1.3669  1.5186
  756MOL0     H99783   4.035   0.777   6.094 -2.2534  0.0440  0.5148
  756MOL0     H99784   4.187   0.859   6.341 -0.1012 -0.9213 -0.7466
  756MOL0     H99785   4.045   0.758   6.348 -1.2813 -0.3733 -1.2244
  756MOL0     H99786   4.197   0.593   6.184 -1.0720 -1.6676  1.8514
  756MOL0     H99787   4.209   0.594   6.349 -2.0710 -1.5722 -1.4390
  756MOL0     H99788   4.369   0.816   6.196 -2.2430 -0.5641 -0.9919
  756MOL0     H99789   4.413   0.725   6.346 -2.3600  0.5890  1.1303
  756MOL0     H99790   4.543   0.475   6.018  2.4672  1.5433 -1.7554
  756MOL0     H99791   3.896   1.113   6.356  1.1564 -1.2435 -0.9023
  756MOL0     H99792   3.651   1.108   6.429 -4.2312 -1.3234 -0.8081
  757MOL0     O99793  11.143   0.596   2.076  0.5101  0.5670  0.3348
  757MOL0     C99794  11.194   0.505   2.140 -0.6578 -0.4250 -0.7910
  757MOL0     O99795  11.132   0.405   2.220  0.0283 -0.3335  0.4359
  757MOL0     C99796  11.003   0.402   2.224  0.7141  1.1343 -0.7806
  757MOL0     C99797  10.942   0.294   2.170  0.2623  0.8880  0.9460
  757MOL0     C99798  10.799   0.280   2.196 -0.0341  0.1639  0.6321
  757MOL0     C99799  10.717   0.368   2.273 -0.0370 -0.2029 -0.5117
  757MOL0     O99800  10.591   0.327   2.300 -0.0251  0.3108 -0.5752
  757MOL0     C99801  10.564   0.298   2.443 -0.3433  0.8234 -0.1852
  757MOL0     C99802  10.413   0.256   2.465 -0.4664 -0.3284  0.1726
  757MOL0     C99803  10.319   0.368   2.423  0.7088  1.1424 -0.2670
  757MOL0     C99804  10.173   0.330   2.429 -0.5312  0.5747  0.6378
  757MOL0     C99805  10.122   0.322   2.579  0.3443  0.8969 -0.1743
  757MOL0     C99806   9.991   0.228   2.565  0.1309 -0.6205  0.5146
  757MOL0     C99807   9.899   0.205   2.681 -0.2867  0.5127 -0.8244
  757MOL0     C99808   9.837   0.340   2.731 -0.5306 -0.4754  0.3759
  757MOL0     N99809   9.721   0.315   2.813  0.3771  0.7109  0.5930
  757MOL0     C99810   9.727   0.244   2.931  0.1120 -0.5237  0.0484
  757MOL0     C99811   9.600   0.245   2.974  0.1043 -0.5709 -0.0914
  757MOL0     C99812   9.534   0.191   3.099 -0.2719  0.5853 -0.6320
  757MOL0     C99813   9.618   0.183   3.234  0.1093  0.3814  0.0222
  757MOL0     C99814   9.565   0.081   3.341  0.9753 -0.1928  0.1107
  757MOL0     C99815   9.421   0.114   3.392  0.1426  0.3388  0.9405
  757MOL0     O99816   9.342   0.005   3.347 -0.3914  0.2297  0.0841
  757MOL0     C99817   9.212   0.005   3.360  0.5188  0.5369  0.2908
  757MOL0     C99818   9.144  -0.116   3.327  1.0517  0.5956  0.1645
  757MOL0     C99819   9.009  -0.124   3.335  0.4615  0.0847 -0.9401
  757MOL0     C99820   8.933  -0.016   3.383  0.4390  0.0612 -0.5114
  757MOL0     C99821   8.784  -0.026   3.409  0.5629 -1.0702  0.4088
  757MOL0     O99822   8.722  -0.146   3.400  0.5025 -0.4662  0.0807
  757MOL0     C99823   8.587  -0.134   3.382  0.1146  0.2166 -0.0758
  757MOL0     C99824   8.533  -0.080   3.261  0.4913  0.0653  0.2143
  757MOL0     C99825   8.392  -0.063   3.236  0.3246 -0.0333 -0.0753
  757MOL0     C99826   8.302  -0.122   3.320  0.5264  0.8578 -0.1517
  757MOL0     O99827   8.169  -0.126   3.293 -0.2700 -0.6634 -0.6095
  757MOL0     C99828   8.075  -0.196   3.383 -0.9996 -0.9751  1.2615
  757MOL0     C99829   7.934  -0.173   3.324  0.2900  1.3991 -0.1587
  757MOL0     C99830   7.827  -0.211   3.434  0.4746 -1.0223 -0.1700
  757MOL0     C99831   7.719  -0.288   3.363 -0.2136  0.2632  0.6998
  757MOL0     C99832   7.607  -0.314   3.461  0.3385  0.1660  0.3017
  757MOL0     C99833   7.491  -0.404   3.419  0.1944 -0.1188 -0.4972
  757MOL0     C99834   7.410  -0.460   3.546 -0.4463  0.2589 -0.1081
  757MOL0     C99835   7.285  -0.536   3.493  0.1885  0.4872 -0.4494
  757MOL0    Cl99836   7.179  -0.433   3.403 -0.2651 -0.0946  0.4695
  757MOL0     C99837   8.354  -0.180   3.441  0.0487  0.2834 -0.5357
  757MOL0     C99838   8.489  -0.179   3.472 -0.4529 -0.3517 -0.2163
  757MOL0     O99839   8.727   0.085   3.423  0.1047 -0.3136 -0.4542
  757MOL0     C99840   8.994   0.100   3.421 -0.4881  0.2216  0.0973
  757MOL0     C99841   9.134   0.103   3.420  0.2075 -0.3116  1.1754
  757MOL0     N99842   9.518   0.300   2.872  0.0032 -0.4215 -0.1937
  757MOL0     N99843   9.599   0.338   2.774 -0.0078  0.1742 -0.0429
  757MOL0     C99844  10.785   0.488   2.318 -0.7697 -0.6918 -0.8620
  757MOL0     C99845  10.922   0.502   2.297 -0.9405  0.1706 -0.4528
  757MOL0     C99846  11.339   0.470   2.129 -0.9246  0.2916 -0.1232
  757MOL0     C99847  11.403   0.405   2.228  0.1548 -0.2309  0.3165
  757MOL0     C99848  11.545   0.392   2.222  0.3346 -0.6157  0.1109
  757MOL0     C99849  11.626   0.449   2.120  0.2381  1.5917 -0.3035
  757MOL0     O99850  11.761   0.434   2.113  0.1234 -0.2632 -0.5405
  757MOL0     C99851  11.833   0.536   2.044 -1.0619  0.2152 -0.0415
  757MOL0     C99852  11.968   0.559   2.108 -0.2378 -0.1693 -0.3541
  757MOL0     C99853  11.954   0.643   2.241  0.0974  0.0202 -0.1542
  757MOL0     C99854  11.998   0.786   2.238  0.6539 -0.3058  0.2531
  757MOL0     C99855  12.133   0.789   2.170 -0.3746  0.1082 -0.5852
  757MOL0     C99856  12.240   0.779   2.115  0.2606 -0.1732 -0.2880
  757MOL0     C99857  11.550   0.530   2.024 -1.0299  0.5210  0.6627
  757MOL0     C99858  11.414   0.531   2.026  1.1307  0.4535  0.0570
  757MOL0     H99859  11.000   0.217   2.120  2.4327  3.8169 -1.3902
  757MOL0     H99860  10.766   0.184   2.157  1.6986  0.9223 -3.0462
  757MOL0     H99861  10.586   0.388   2.500 -1.0980  2.5795 -2.5176
  757MOL0     H99862  10.625   0.212   2.474  0.0556  1.2132  0.1313
  757MOL0     H99863  10.392   0.231   2.570 -0.4602 -1.7637 -0.1411
  757MOL0     H99864  10.405   0.169   2.398  1.5954  1.0211 -1.9745
  757MOL0     H99865  10.343   0.410   2.324  0.2851  0.7175 -0.5499
  757MOL0     H99866  10.322   0.453   2.492  0.7764 -0.2925  1.5469
  757MOL0     H99867  10.125   0.417   2.384 -1.6771 -1.8061 -3.1795
  757MOL0     H99868  10.154   0.239   2.372  1.1200 -0.4370  1.6221
  757MOL0     H99869  10.109   0.423   2.620 -1.5204 -0.0975  1.8634
  757MOL0     H99870  10.195   0.275   2.645  0.6849  1.5164 -0.0992
  757MOL0     H99871  10.025   0.128   2.537 -3.3431 -0.9125 -3.7256
  757MOL0     H99872   9.937   0.273   2.481 -0.0366  1.0023  1.4378
  757MOL0     H99873   9.822   0.131   2.656 -0.3687  0.0795  0.5856
  757MOL0     H99874   9.950   0.161   2.767 -0.7086  1.2084 -0.1965
  757MOL0     H99875   9.807   0.410   2.652  0.5844  0.8357  1.0762
  757MOL0     H99876   9.907   0.388   2.799  0.0735 -0.6624 -0.1071
  757MOL0     H99877   9.815   0.211   2.985 -1.0036 -2.0969  0.9797
  757MOL0     H99878   9.502   0.089   3.079  1.2135  0.0894 -0.5966
  757MOL0     H99879   9.447   0.255   3.115  0.7316  2.3238 -1.7311
  757MOL0     H99880   9.628   0.277   3.288 -0.5894 -1.3598  3.4696
  757MOL0     H99881   9.718   0.144   3.214 -0.4469 -0.7798 -0.6100
  757MOL0     H99882   9.566  -0.014   3.288 -0.8073  0.1020 -0.5546
  757MOL0     H99883   9.631   0.082   3.428  0.1305 -1.2332  0.7929
  757MOL0     H99884   9.386   0.210   3.353 -0.6852 -0.2727  0.1463
  757MOL0     H99885   9.416   0.118   3.502 -1.3457  0.8885  0.8760
  757MOL0     H99886   9.200  -0.203   3.292 -0.2995 -0.1203 -0.2912
  757MOL0     H99887   8.969  -0.216   3.292  4.3903 -2.5734  0.4941
  757MOL0     H99888   8.615  -0.045   3.200  0.5518 -0.7422 -0.1822
  757MOL0     H99889   8.361  -0.012   3.145  1.4418  1.3378  0.2777
  757MOL0     H99890   8.081  -0.160   3.487  1.8926  0.6272  0.6261
  757MOL0     H99891   8.090  -0.303   3.371 -1.2323 -0.8264 -0.6794
  757MOL0     H99892   7.918  -0.228   3.231 -3.7598 -0.3587  1.3515
  757MOL0     H99893   7.926  -0.067   3.299 -0.5900  1.8036  1.6889
  757MOL0     H99894   7.781  -0.122   3.479 -2.7185 -1.2875 -2.5403
  757MOL0     H99895   7.883  -0.273   3.504  0.8754  0.4647  0.8871
  757MOL0     H99896   7.676  -0.246   3.272  0.0592 -1.3993 -0.2358
  757MOL0     H99897   7.761  -0.386   3.339 -0.1936  0.5653 -0.5638
  757MOL0     H99898   7.577  -0.213   3.489  5.0243  2.5183 -2.0275
  757MOL0     H99899   7.647  -0.366   3.549 -1.0089 -0.6351  0.4627
  757MOL0     H99900   7.528  -0.493   3.368 -0.1463 -0.0315 -0.9002
  757MOL0     H99901   7.428  -0.354   3.345  0.3357 -0.9215 -1.1724
  757MOL0     H99902   7.476  -0.521   3.609  2.5784  5.3337  2.2853
  757MOL0     H99903   7.365  -0.385   3.611 -1.0309  0.1759 -0.4062
  757MOL0     H99904   7.228  -0.595   3.565  2.5299  1.0013  2.0049
  757MOL0     H99905   7.330  -0.609   3.425 -1.8760  0.0697 -1.4174
  757MOL0     H99906   8.279  -0.211   3.512 -2.3671  0.2959 -2.8972
  757MOL0     H99907   8.521  -0.214   3.570  2.8006 -2.6477 -1.9085
  757MOL0     H99908   8.945   0.176   3.482 -1.0443 -0.6254  0.7199
  757MOL0     H99909   9.180   0.197   3.451 -1.8494  1.0632  0.2593
  757MOL0     H99910  10.733   0.568   2.370  0.0904 -0.1952 -0.7341
  757MOL0     H99911  10.971   0.594   2.328  2.4676 -1.5446 -0.2610
  757MOL0     H99912  11.346   0.366   2.312 -1.6982 -1.0212 -1.2281
  757MOL0     H99913  11.601   0.337   2.298 -0.7157 -0.4847  0.9952
  757MOL0     H99914  11.793   0.638   2.045  2.1217  1.5747  1.2998
  757MOL0     H99915  11.842   0.510   1.938  1.7146 -1.0258  0.4186
  757MOL0     H99916  12.008   0.459   2.128 -2.3928 -0.7274  1.5771
  757MOL0     H99917  12.038   0.603   2.037  0.1775  0.8892  0.6718
  757MOL0     H99918  12.006   0.596   2.325 -2.2538  0.7500  1.8467
  757MOL0     H99919  11.852   0.642   2.282  0.2775  1.2859  0.3650
  757MOL0     H99920  11.927   0.836   2.172 -1.2653 -1.5526  1.2677
  757MOL0     H99921  12.000   0.834   2.337  3.1648  0.6058 -0.1645
  757MOL0     H99922  12.337   0.761   2.073 -0.6298 -2.3576 -1.6252
  757MOL0     H99923  11.590   0.579   1.936  0.0004  3.2319  2.5041
  757MOL0     H99924  11.359   0.581   1.946 -1.2331 -2.3155 -0.2269
  758MOL0     O99925   8.764   3.313   2.187  0.0964  0.2458  0.2204
  758MOL0     C99926   8.832   3.213   2.148 -0.7435 -0.7352 -0.5211
  758MOL0     O99927   8.779   3.095   2.108  0.2112  0.7500 -0.8876
  758MOL0     C99928   8.646   3.071   2.121  0.6988 -0.2913 -0.8877
  758MOL0     C99929   8.566   3.063   2.009  0.2044 -1.0647 -0.1644
  758MOL0     C99930   8.428   3.029   2.027  0.3159 -0.4090  0.3105
  758MOL0     C99931   8.370   3.006   2.153  0.9515  0.0123 -0.2857
  758MOL0     O99932   8.235   2.978   2.167 -0.4286 -0.7699  0.1667
  758MOL0     C99933   8.153   2.992   2.053 -0.3417 -0.2573  0.9446
  758MOL0     C99934   8.002   2.964   2.074 -0.1905  0.1423 -0.0374
  758MOL0     C99935   7.987   2.816   2.112  0.4148  0.1419  0.0930
  758MOL0     C99936   7.849   2.801   2.172  0.5369  0.5421  0.8047
  758MOL0     C99937   7.807   2.650   2.194 -0.9453  0.6195  0.5555
  758MOL0     C99938   7.671   2.625   2.273 -0.0481  0.1809  0.1794
  758MOL0     C99939   7.600   2.490   2.244  0.5088  0.0207 -0.1994
  758MOL0     C99940   7.480   2.472   2.349  0.0523  0.5803  0.0986
  758MOL0     N99941   7.397   2.349   2.348  0.2151  0.5044 -0.2204
  758MOL0     C99942   7.448   2.228   2.356 -1.0390  0.4721  0.0692
  758MOL0     C99943   7.350   2.142   2.405  1.1038 -0.1907  0.4495
  758MOL0     C99944   7.358   1.999   2.427  0.5429  0.4351 -0.4653
  758MOL0     C99945   7.229   1.928   2.373 -0.0398  0.6514  0.1875
  758MOL0     C99946   7.239   1.778   2.392 -0.0010 -0.7383 -0.8245
  758MOL0     C99947   7.114   1.705   2.346  0.2954 -0.5055  1.0449
  758MOL0     O99948   7.019   1.743   2.446 -0.0529  0.8447 -0.1232
  758MOL0     C99949   6.888   1.706   2.424  0.0794 -0.0175  0.0190
  758MOL0     C99950   6.844   1.617   2.321 -0.5762 -0.3431 -0.2827
  758MOL0     C99951   6.707   1.586   2.307 -0.2667  0.4342  0.7836
  758MOL0     C99952   6.611   1.646   2.395  0.0826 -1.1790 -0.2136
  758MOL0     C99953   6.460   1.623   2.382  1.0001  0.2309  0.0650
  758MOL0     O99954   6.379   1.612   2.485  0.1666  0.1445 -0.4532
  758MOL0     C99955   6.250   1.580   2.464  0.1788 -0.8282 -0.4475
  758MOL0     C99956   6.150   1.672   2.427  0.5686 -0.2314  0.1364
  758MOL0     C99957   6.014   1.638   2.424  0.6395  0.0886 -0.9865
  758MOL0     C99958   5.974   1.508   2.461 -1.0598  0.5934  0.2926
  758MOL0     O99959   5.851   1.472   2.485 -0.4143 -0.5217 -0.3912
  758MOL0     C99960   5.741   1.566   2.477  0.4561 -1.2610  0.1562
  758MOL0     C99961   5.622   1.506   2.554 -0.3850 -0.1300  0.3028
  758MOL0     C99962   5.488   1.543   2.484 -0.4636  0.7344  0.0022
  758MOL0     C99963   5.444   1.692   2.486 -0.0927 -0.7781  0.6765
  758MOL0     C99964   5.303   1.697   2.424 -0.1621 -0.5470  0.5578
  758MOL0     C99965   5.231   1.821   2.486  0.5285  0.1067  0.0485
  758MOL0     C99966   5.096   1.816   2.406  0.1548 -0.8347 -0.0136
  758MOL0     C99967   4.979   1.870   2.484  0.6941 -0.6723  0.0479
  758MOL0    Cl99968   4.909   1.774   2.611  0.1599 -0.3490 -0.0817
  758MOL0     C99969   6.074   1.411   2.497 -0.2863 -0.2370 -0.0665
  758MOL0     C99970   6.208   1.456   2.501 -0.1851 -0.3877 -0.1653
  758MOL0     O99971   6.423   1.611   2.267  0.6463  0.3057  0.5978
  758MOL0     C99972   6.659   1.730   2.493 -0.4346  0.3158 -0.7225
  758MOL0     C99973   6.796   1.757   2.510  0.0653 -0.4343 -0.4145
  758MOL0     N99974   7.231   2.222   2.425 -0.6882 -0.3407 -0.1048
  758MOL0     N99975   7.262   2.342   2.386  0.0996 -0.0275  0.1387
  758MOL0     C99976   8.451   3.018   2.265  0.1085 -0.0966  0.2598
  758MOL0     C99977   8.586   3.054   2.245  1.0561 -0.1665 -0.2776
  758MOL0     C99978   8.975   3.237   2.125  0.6494  0.3408 -0.1105
  758MOL0     C99979   9.065   3.129   2.128 -0.1262  0.2204  0.4356
  758MOL0     C99980   9.203   3.142   2.097  0.0587  0.2948 -0.1724
  758MOL0     C99981   9.253   3.267   2.071  0.3387  0.0881  0.4425
  758MOL0     O99982   9.387   3.302   2.045  0.1944 -0.7303  0.8794
  758MOL0     C99983   9.482   3.207   2.085 -0.7175 -0.0762 -0.0573
  758MOL0     C99984   9.627   3.270   2.089 -0.2802 -0.2385  0.3978
  758MOL0     C99985   9.729   3.169   2.145  0.3726 -0.9136 -0.1901
  758MOL0     C99986   9.876   3.215   2.129 -0.7667  0.5952  0.2345
  758MOL0     C99987   9.883   3.346   2.199 -0.0722 -0.3806  0.3207
  758MOL0     C99988   9.918   3.450   2.257  0.7119 -0.0641  0.0407
  758MOL0     C99989   9.164   3.373   2.057  0.2308 -0.6846 -0.3369
  758MOL0     C99990   9.032   3.356   2.096  0.2362 -0.2091 -0.7277
  758MOL0     H99991   8.609   3.065   1.910  1.2087 -2.9291  0.1924
  758MOL0     H99992   8.375   3.029   1.932 -0.2094 -0.6855  0.6036
  758MOL0     H99993   8.194   2.932   1.971 -1.7289  1.8351 -1.4265
  758MOL0     H99994   8.153   3.095   2.015  2.7629 -0.4815  0.0538
  758MOL0     H99995   7.950   2.990   1.981  0.9233  1.1709 -0.3972
  758MOL0     H99996   7.965   3.018   2.162 -0.2892 -1.3408  0.8645
  758MOL0     H99997   8.071   2.784   2.173  1.3647  2.8063  0.3217
  758MOL0     H99998   7.987   2.758   2.019 -2.8846  3.2974 -2.1875
  758MOL0     H99999   7.847   2.855   2.267 -1.9927  1.5259  0.2591
  758MOL0     H    0   7.766   2.825   2.105  1.3011  2.2556  0.4339
  758MOL0     H    1   7.881   2.589   2.245  1.8884  2.5959 -0.9007
  758MOL0     H    2   7.799   2.604   2.095  1.1996  2.3613 -0.5095
  758MOL0     H    3   7.601   2.705   2.248 -1.6076 -1.1743 -0.0351
  758MOL0     H    4   7.680   2.622   2.382 -4.2203 -1.1308  0.6670
  758MOL0     H    5   7.559   2.477   2.143  1.4258 -5.3514 -0.1893
  758MOL0     H    6   7.672   2.409   2.256  0.4150  0.1134  1.0406
  758MOL0     H    7   7.413   2.559   2.347 -0.2444  0.3605  0.3434
  758MOL0     H    8   7.527   2.474   2.448 -0.0649 -0.9285  0.2121
  758MOL0     H    9   7.546   2.192   2.325 -1.7932 -2.6268  0.8891
  758MOL0     H   10   7.366   1.971   2.532 -1.2738 -2.7294 -1.0485
  758MOL0     H   11   7.448   1.965   2.375 -0.1305 -2.9369  0.3424
  758MOL0     H   12   7.211   1.948   2.267 -0.9636 -3.4643 -0.5884
  758MOL0     H   13   7.141   1.963   2.428 -1.1025  0.3805 -1.2843
  758MOL0     H   14   7.325   1.740   2.335 -1.0939 -1.6992 -1.8935
  758MOL0     H   15   7.253   1.762   2.499 -0.3074  0.4608 -0.5871
  758MOL0     H   16   7.127   1.596   2.341 -0.8028 -0.5903 -1.7190
  758MOL0     H   17   7.088   1.734   2.244  0.4833 -4.9856 -0.4929
  758MOL0     H   18   6.919   1.587   2.249 -0.2407  0.3048 -0.2089
  758MOL0     H   19   6.682   1.518   2.226  1.9430 -2.1090  2.1002
  758MOL0     H   20   6.186   1.773   2.410 -1.7483  1.1958  2.8145
  758MOL0     H   21   5.939   1.713   2.401  2.0060  2.3000  1.2359
  758MOL0     H   22   5.711   1.583   2.373  0.0972  1.6896  0.6761
  758MOL0     H   23   5.755   1.662   2.526  0.5409  0.4580 -3.0125
  758MOL0     H   24   5.626   1.546   2.656  1.3530 -2.4001  1.1867
  758MOL0     H   25   5.634   1.397   2.551 -1.1164 -0.2340  0.7079
  758MOL0     H   26   5.404   1.493   2.533 -2.8307  2.9748 -1.4258
  758MOL0     H   27   5.489   1.501   2.382  1.7661  1.5683 -0.3693
  758MOL0     H   28   5.437   1.716   2.593 -2.6970 -2.8283  1.0924
  758MOL0     H   29   5.511   1.762   2.436 -1.1149 -1.0348 -1.1073
  758MOL0     H   30   5.248   1.603   2.415 -1.2736  0.3372 -3.9122
  758MOL0     H   31   5.308   1.726   2.319 -2.0062 -0.7384  0.3910
  758MOL0     H   32   5.284   1.917   2.480 -0.1519  0.4225 -1.0981
  758MOL0     H   33   5.210   1.806   2.592 -2.1453  0.2690 -0.3965
  758MOL0     H   34   5.101   1.868   2.310 -2.5750 -1.4897 -0.6057
  758MOL0     H   35   5.077   1.710   2.383  2.0689 -0.8565 -1.7139
  758MOL0     H   36   4.905   1.910   2.413  2.3207  0.1798 -1.2478
  758MOL0     H   37   5.006   1.961   2.539  0.3789 -1.8221  2.2044
  758MOL0     H   38   6.040   1.311   2.521 -0.6379  0.2222  1.4397
  758MOL0     H   39   6.289   1.393   2.537 -0.7086 -0.8642  0.1908
  758MOL0     H   40   6.593   1.782   2.562  2.3290  4.0676 -0.5608
  758MOL0     H   41   6.830   1.823   2.589 -0.6720  0.9429 -1.2047
  758MOL0     H   42   8.406   3.022   2.364  1.1339 -0.9120  0.7767
  758MOL0     H   43   8.654   3.069   2.328  0.1946  1.1542  0.2063
  758MOL0     H   44   9.032   3.032   2.165 -2.7114  0.1640 -1.7333
  758MOL0     H   45   9.273   3.061   2.117  2.7360  2.8804  1.9050
  758MOL0     H   46   9.485   3.118   2.022  1.7305  0.2067 -0.4628
  758MOL0     H   47   9.458   3.172   2.186 -3.5499  1.2705 -0.1653
  758MOL0     H   48   9.658   3.308   1.991 -3.9357 -0.1187 -0.8342
  758MOL0     H   49   9.627   3.365   2.144  2.3589  0.8357 -1.2355
  758MOL0     H   50   9.715   3.077   2.088 -2.6887  0.1245 -1.2831
  758MOL0     H   51   9.686   3.149   2.244  0.5743 -2.3857 -0.3769
  758MOL0     H   52   9.936   3.136   2.173 -2.4174 -0.2894  0.9870
  758MOL0     H   53   9.913   3.231   2.027  0.5945 -3.8005 -0.1568
  758MOL0     H   54   9.958   3.539   2.302 -1.7733  0.4488  1.4153
  758MOL0     H   55   9.179   3.471   2.013 -2.0406 -0.0603  0.1603
  758MOL0     H   56   8.965   3.440   2.104 -1.3964 -1.6080  1.6193
  759MOL0     O   57   9.683  10.408   8.616  0.0660 -0.8227  0.0845
  759MOL0     C   58   9.783  10.401   8.703 -0.3280  0.4046  0.3894
  759MOL0     O   59   9.771  10.402   8.838 -0.3721  0.2108 -0.3709
  759MOL0     C   60   9.649  10.433   8.892  0.5757 -0.3374  0.2157
  759MOL0     C   61   9.537  10.356   8.865  0.0245  1.0482  1.2256
  759MOL0     C   62   9.420  10.361   8.943 -0.2082  0.4627  0.0958
  759MOL0     C   63   9.402  10.458   9.036  0.2878  0.1364  0.2287
  759MOL0     O   64   9.283  10.464   9.115 -0.3942  0.7517  0.0383
  759MOL0     C   65   9.272  10.571   9.211 -0.4813  0.6170  0.3193
  759MOL0     C   66   9.147  10.546   9.293 -0.0164 -0.1027 -0.0924
  759MOL0     C   67   9.116  10.648   9.409  0.8514  0.9643  0.2473
  759MOL0     C   68   8.989  10.598   9.485  0.3879  0.0456  0.0698
  759MOL0     C   69   8.925  10.717   9.550 -0.7219 -0.0310  0.6216
  759MOL0     C   70   8.791  10.696   9.620  0.0468  0.4897 -0.4014
  759MOL0     C   71   8.722  10.823   9.679  0.3007  0.0386 -0.4323
  759MOL0     C   72   8.608  10.867   9.596  0.1638 -0.2387 -0.6254
  759MOL0     N   73   8.544  10.990   9.656  0.1793 -0.3687  0.3675
  759MOL0     C   74   8.465  10.979   9.769 -0.3616 -0.4443  0.0158
  759MOL0     C   75   8.390  11.089   9.762 -0.1217  1.1163  0.6363
  759MOL0     C   76   8.273  11.117   9.855 -0.5010 -0.1019  0.3172
  759MOL0     C   77   8.250  11.265   9.892 -0.7397  0.7309  1.2392
  759MOL0     C   78   8.201  11.358   9.776 -0.8877 -0.2026 -0.0979
  759MOL0     C   79   8.051  11.356   9.768  0.3703  0.6239  0.2932
  759MOL0     O   80   8.007  11.404   9.641 -0.0134 -0.0917  0.9153
  759MOL0     C   81   7.867  11.416   9.636 -0.4269  0.7568  1.6114
  759MOL0     C   82   7.828  11.524   9.558 -0.4496  0.3346 -0.1248
  759MOL0     C   83   7.694  11.547   9.549  0.1501 -0.6657  0.1636
  759MOL0     C   84   7.598  11.476   9.618  0.6369  0.8441  0.0719
  759MOL0     C   85   7.458  11.515   9.615  0.2635  0.2222 -0.0069
  759MOL0     O   86   7.365  11.431   9.676 -1.1829 -0.3604 -0.4641
  759MOL0     C   87   7.227  11.449   9.662 -0.7201  0.6470 -0.9407
  759MOL0     C   88   7.165  11.514   9.552  0.1061  0.5009 -0.2729
  759MOL0     C   89   7.030  11.538   9.550 -0.6959 -0.0403 -0.1490
  759MOL0     C   90   6.950  11.492   9.658 -0.2152  0.0368  0.2979
  759MOL0     O   91   6.813  11.514   9.674 -0.1003 -0.4590  0.0384
  759MOL0     C   92   6.748  11.604   9.586  0.7963  0.4691  0.3533
  759MOL0     C   93   6.604  11.621   9.634  0.1557  0.5366  0.1344
  759MOL0     C   94   6.534  11.742   9.587 -0.2012  0.7349 -0.2661
  759MOL0     C   95   6.394  11.749   9.647  0.5969 -0.3910 -0.6121
  759MOL0     C   96   6.321  11.872   9.586 -0.1508  0.2917 -0.5838
  759MOL0     C   97   6.194  11.912   9.660 -0.4620  0.2146  0.2577
  759MOL0     C   98   6.116  12.007   9.574  0.0692 -0.3400  0.2841
  759MOL0     C   99   5.980  12.048   9.618  0.7804  0.6852 -0.3316
  759MOL0    Cl  100   5.924  12.171   9.504 -0.6270  0.6135 -0.3213
  759MOL0     C  101   7.009  11.423   9.763 -1.4723 -0.2878 -0.8173
  759MOL0     C  102   7.149  11.403   9.768 -0.2530  0.4275 -1.3336
  759MOL0     O  103   7.428  11.636   9.585 -0.8995  0.3278  0.7656
  759MOL0     C  104   7.641  11.356   9.690 -0.0893 -0.7760 -0.0857
  759MOL0     C  105   7.779  11.328   9.692  0.3918 -0.2652 -0.5902
  759MOL0     N  106   8.418  11.164   9.648 -0.0173 -0.4016 -0.1880
  759MOL0     N  107   8.508  11.100   9.578  0.3005 -0.4227 -0.4144
  759MOL0     C  108   9.523  10.538   9.062  0.9729  0.2547 -0.4641
  759MOL0     C  109   9.643  10.530   8.990  0.2746  0.8971  0.5001
  759MOL0     C  110   9.913  10.392   8.639 -0.3280  0.0046  0.8650
  759MOL0     C  111   9.932  10.372   8.505  0.7148  0.1594  0.4612
  759MOL0     C  112  10.057  10.360   8.451 -0.8287 -1.0899 -0.2373
  759MOL0     C  113  10.172  10.382   8.527  0.8466 -0.3543 -0.0192
  759MOL0     O  114  10.289  10.385   8.459  0.3595 -0.1259  0.5000
  759MOL0     C  115  10.393  10.474   8.519 -0.3204 -0.0665 -0.3463
  759MOL0     C  116  10.526  10.401   8.552 -0.9627 -1.0599  0.5612
  759MOL0     C  117  10.610  10.350   8.426  1.0540 -0.4463  0.2267
  759MOL0     C  118  10.755  10.349   8.451 -0.4009 -0.4212  0.2536
  759MOL0     C  119  10.790  10.241   8.537 -0.3069 -0.4420  1.1324
  759MOL0     C  120  10.825  10.143   8.586  0.4764 -0.4052 -0.1691
  759MOL0     C  121  10.157  10.412   8.666  0.4292  0.2156  0.2295
  759MOL0     C  122  10.028  10.414   8.712  0.5367  0.1691 -0.3466
  759MOL0     H  123   9.544  10.273   8.795 -1.4106  2.8021 -1.1298
  759MOL0     H  124   9.337  10.291   8.943  0.5485 -0.6070  3.3541
  759MOL0     H  125   9.282  10.668   9.161  3.6521 -0.9555 -2.5433
  759MOL0     H  126   9.356  10.568   9.281 -0.0187 -0.0482 -0.2472
  759MOL0     H  127   9.156  10.447   9.338 -1.2693 -0.9196 -1.5244
  759MOL0     H  128   9.062  10.546   9.224 -0.5945 -1.9552  0.5712
  759MOL0     H  129   9.100  10.744   9.359  0.8276  0.9797  0.2855
  759MOL0     H  130   9.205  10.657   9.472  1.3791  0.6726 -0.4350
  759MOL0     H  131   8.920  10.540   9.422 -0.6162  1.3693 -0.0911
  759MOL0     H  132   9.014  10.527   9.564 -1.9436  1.5646  2.3171
  759MOL0     H  133   8.921  10.793   9.472  2.2935  1.0430  1.3518
  759MOL0     H  134   8.995  10.749   9.627  1.1815 -3.3291  0.4804
  759MOL0     H  135   8.798  10.624   9.702 -0.0197 -1.3026 -1.9017
  759MOL0     H  136   8.736  10.641   9.543 -0.1906 -2.0262  1.4299
  759MOL0     H  137   8.685  10.798   9.778  1.8080  0.2012  0.2017
  759MOL0     H  138   8.800  10.898   9.694 -0.1143  0.5596 -0.8610
  759MOL0     H  139   8.530  10.791   9.601 -0.2960  0.2757  0.2562
  759MOL0     H  140   8.630  10.886   9.490 -3.7667 -1.9203 -1.9461
  759MOL0     H  141   8.440  10.891   9.828 -2.0924  0.5778  0.8942
  759MOL0     H  142   8.281  11.061   9.948  0.0481  0.8798  0.8735
  759MOL0     H  143   8.178  11.083   9.810 -1.2666  2.8576 -0.5015
  759MOL0     H  144   8.348  11.300   9.923  0.2492 -0.4027 -0.4458
  759MOL0     H  145   8.189  11.279   9.982  1.2264  1.2137  2.5554
  759MOL0     H  146   8.230  11.462   9.792  0.3822 -0.7657  1.4458
  759MOL0     H  147   8.235  11.330   9.676 -0.5627  2.7226 -0.9160
  759MOL0     H  148   8.000  11.410   9.848 -0.4404 -1.5899  1.3595
  759MOL0     H  149   8.029  11.249   9.765  1.3699  0.4206 -0.2452
  759MOL0     H  150   7.908  11.585   9.518 -1.4533  3.8054  2.5569
  759MOL0     H  151   7.656  11.623   9.481 -0.8049 -2.8124 -1.8145
  759MOL0     H  152   7.218  11.538   9.460  1.2336 -0.3864  0.1231
  759MOL0     H  153   6.978  11.585   9.467 -1.5298 -0.4038  0.1493
  759MOL0     H  154   6.737  11.581   9.479 -0.8750  0.6090  0.4670
  759MOL0     H  155   6.805  11.697   9.577  1.1267  0.2318 -0.0843
  759MOL0     H  156   6.608  11.631   9.743 -3.2200 -0.1226  0.4175
  759MOL0     H  157   6.545  11.532   9.609  1.7236 -1.7174  3.7164
  759MOL0     H  158   6.533  11.736   9.477  1.0128  3.0323 -0.4526
  759MOL0     H  159   6.594  11.827   9.619 -0.6182  1.1428 -0.5518
  759MOL0     H  160   6.338  11.656   9.629 -1.0057  0.1074  1.4578
  759MOL0     H  161   6.402  11.759   9.755  1.6177  3.1857 -0.8863
  759MOL0     H  162   6.298  11.856   9.481 -1.9479  0.2392 -0.2137
  759MOL0     H  163   6.389  11.958   9.591 -1.1159  1.1022 -1.0149
  759MOL0     H  164   6.209  11.955   9.759 -2.6094 -1.0800  1.2234
  759MOL0     H  165   6.130  11.823   9.662  1.8945 -1.5392  1.5987
  759MOL0     H  166   6.185  12.089   9.551  0.3178 -0.7701 -0.5640
  759MOL0     H  167   6.095  11.946   9.485 -1.2588 -0.3181  0.5598
  759MOL0     H  168   5.994  12.089   9.719  0.3071 -0.0004  0.0215
  759MOL0     H  169   5.909  11.966   9.632  2.4052 -0.6664  0.2428
  759MOL0     H  170   6.945  11.397   9.847  0.4988  0.2515  0.9087
  759MOL0     H  171   7.194  11.352   9.853 -0.5280 -0.6135 -1.7940
  759MOL0     H  172   7.582  11.279   9.738 -2.7466  2.6898  2.7539
  759MOL0     H  173   7.803  11.230   9.732  1.8272 -0.4639 -1.8470
  759MOL0     H  174   9.520  10.612   9.141 -0.0067 -0.0509 -0.1995
  759MOL0     H  175   9.727  10.590   9.023  0.6682 -0.2036  1.5783
  759MOL0     H  176   9.852  10.357   8.434  0.1543 -1.9331  1.4608
  759MOL0     H  177  10.083  10.331   8.349  0.1347 -1.2663  0.0447
  759MOL0     H  178  10.355  10.526   8.608  0.8555  1.5466 -0.7369
  759MOL0     H  179  10.415  10.556   8.450 -2.1273  0.7157 -0.0392
  759MOL0     H  180  10.592  10.460   8.616 -0.4048 -0.4645 -0.5489
  759MOL0     H  181  10.502  10.313   8.613  3.5979 -2.4583  0.7057
  759MOL0     H  182  10.594  10.424   8.347  3.7307  1.0441  0.9236
  759MOL0     H  183  10.574  10.249   8.404  1.1211 -0.2938 -0.6302
  759MOL0     H  184  10.804  10.326   8.356  0.1773  2.1440 -0.1404
  759MOL0     H  185  10.799  10.443   8.483  2.4788 -1.7901  0.6396
  759MOL0     H  186  10.852  10.055   8.641  0.2073 -0.7496 -0.5852
  759MOL0     H  187  10.236  10.429   8.738 -1.9796  1.4431  2.7386
  759MOL0     H  188  10.030  10.448   8.815  1.6021  2.5085 -1.0633
  760MOL0     O  189  10.579  10.367   7.298 -0.4868  0.1529 -0.2694
  760MOL0     C  190  10.693  10.316   7.316  0.3455  0.0990 -0.3327
  760MOL0     O  191  10.763  10.322   7.435 -0.1046 -0.1935  0.1621
  760MOL0     C  192  10.709  10.394   7.542 -0.2214  0.5692  0.6295
  760MOL0     C  193  10.566  10.371   7.582 -0.3497  0.0999 -0.2388
  760MOL0     C  194  10.522  10.437   7.701  0.3008  0.1430  1.6604
  760MOL0     C  195  10.600  10.542   7.750  0.0947 -0.0367 -0.0967
  760MOL0     O  196  10.546  10.614   7.851  0.8100  0.4850  0.0030
  760MOL0     C  197  10.468  10.730   7.823  0.7916  0.0177  0.1353
  760MOL0     C  198  10.329  10.763   7.897 -0.1670  0.3840 -0.4137
  760MOL0     C  199  10.347  10.719   8.041  0.2243  0.5227  0.1690
  760MOL0     C  200  10.225  10.753   8.124 -0.2102 -0.2296 -0.1294
  760MOL0     C  201  10.258  10.761   8.274  0.3465 -0.1107 -0.2607
  760MOL0     C  202  10.127  10.753   8.361 -0.6174  0.2706  0.5301
  760MOL0     C  203  10.144  10.767   8.512  0.1564  0.2507  0.8454
  760MOL0     C  204  10.021  10.752   8.589  0.4181 -0.4134  0.5265
  760MOL0     N  205  10.045  10.814   8.721 -1.2209 -0.7837  0.2404
  760MOL0     C  206  10.007  10.933   8.776 -0.1333 -0.4096  0.0993
  760MOL0     C  207  10.064  10.936   8.895 -0.3801  1.2609  0.6870
  760MOL0     C  208  10.056  11.040   8.984  0.5732 -0.4934  0.2377
  760MOL0     C  209   9.940  11.134   8.982 -0.4092  0.2800 -0.0407
  760MOL0     C  210   9.979  11.273   9.035 -0.2010  0.9502 -0.3733
  760MOL0     C  211   9.872  11.370   9.027  0.5350  0.0483 -0.3462
  760MOL0     O  212   9.761  11.331   9.107  0.3613  0.4308 -0.0377
  760MOL0     C  213   9.657  11.411   9.131 -0.9992  0.1650  0.4342
  760MOL0     C  214   9.548  11.351   9.182 -0.2584  0.4046  0.2397
  760MOL0     C  215   9.425  11.418   9.203 -0.1635 -0.5409 -0.3992
  760MOL0     C  216   9.411  11.550   9.166  0.5409  0.0807 -0.5322
  760MOL0     C  217   9.279  11.616   9.173 -0.2893  0.6478 -0.0291
  760MOL0     O  218   9.270  11.755   9.157  0.0225  0.0705  0.3477
  760MOL0     C  219   9.160  11.822   9.117 -0.0733  1.1080  0.6953
  760MOL0     C  220   9.121  11.943   9.165 -0.6912 -0.1146 -0.6903
  760MOL0     C  221   9.009  12.008   9.114  0.3692 -0.1001  0.3538
  760MOL0     C  222   8.943  11.957   9.002  0.1327 -1.1689  0.0258
  760MOL0     O  223   8.847  12.018   8.934  0.3573  0.1902 -0.2053
  760MOL0     C  224   8.733  12.075   9.003  0.2388 -0.4536  0.2342
  760MOL0     C  225   8.628  12.107   8.895 -0.3294 -0.5060 -0.7595
  760MOL0     C  226   8.555  11.977   8.843 -0.0164  0.0585 -0.2869
  760MOL0     C  227   8.464  11.896   8.936  0.1132 -0.1548 -0.4519
  760MOL0     C  228   8.415  11.764   8.873 -1.3136 -0.3521 -0.1595
  760MOL0     C  229   8.534  11.667   8.840  0.5979  0.4022 -0.8354
  760MOL0     C  230   8.468  11.532   8.790  0.2723 -0.8762  0.3356
  760MOL0     C  231   8.570  11.423   8.778 -0.3685  0.0697 -0.2142
  760MOL0    Cl  232   8.708  11.465   8.668 -0.1700 -0.0391 -0.4614
  760MOL0     C  233   8.976  11.833   8.958 -0.1261  0.1103 -0.3653
  760MOL0     C  234   9.091  11.766   9.011 -0.3978 -0.3965  0.4986
  760MOL0     O  235   9.182  11.542   9.188 -0.7200 -0.0859  0.2929
  760MOL0     C  236   9.527  11.624   9.122  0.3023 -0.3273 -0.4475
  760MOL0     C  237   9.648  11.548   9.108 -0.8094 -0.3651  0.8005
  760MOL0     N  238  10.119  10.808   8.917  0.0414 -0.4725  0.3989
  760MOL0     N  239  10.100  10.738   8.817 -0.0474 -0.5121 -0.2407
  760MOL0     C  240  10.727  10.573   7.706 -0.1590 -0.0468  1.0214
  760MOL0     C  241  10.781  10.493   7.605  0.1020  0.3000 -1.2858
  760MOL0     C  242  10.767  10.284   7.197  0.0373  1.2718 -0.0292
  760MOL0     C  243  10.707  10.230   7.088 -0.7188  0.2264  1.0835
  760MOL0     C  244  10.786  10.205   6.970  0.3888 -0.4399  0.4622
  760MOL0     C  245  10.917  10.233   6.961 -1.2829  0.8778  0.1220
  760MOL0     O  246  10.990  10.210   6.846  0.5504  0.1632 -0.3063
  760MOL0     C  247  10.918  10.192   6.725  0.0467  0.6403 -0.2184
  760MOL0     C  248  11.016  10.148   6.609 -0.1989  0.0675 -0.9622
  760MOL0     C  249  11.130  10.262   6.586  0.1763  0.4043 -0.0288
  760MOL0     C  250  11.173  10.236   6.439  0.2184 -0.1578 -0.2452
  760MOL0     C  251  11.295  10.296   6.399 -0.5636 -0.8787 -0.0158
  760MOL0     C  252  11.406  10.352   6.369 -0.1960 -0.3017 -0.1375
  760MOL0     C  253  10.986  10.284   7.078 -0.5713 -0.1768  0.8160
  760MOL0     C  254  10.901  10.313   7.194 -0.3422 -0.1690  0.5889
  760MOL0     H  255  10.499  10.293   7.546 -0.5324 -2.5505  4.9595
  760MOL0     H  256  10.424  10.409   7.738 -0.1556 -0.9546 -0.2164
  760MOL0     H  257  10.449  10.731   7.716 -0.0062  1.9697  0.2542
  760MOL0     H  258  10.519  10.825   7.844 -0.5819  0.6287  0.8413
  760MOL0     H  259  10.246  10.704   7.857 -1.1725  0.5945  1.2593
  760MOL0     H  260  10.320  10.871   7.882  0.4327  0.4145 -0.5946
  760MOL0     H  261  10.437  10.771   8.076 -0.1399  0.5497  1.1056
  760MOL0     H  262  10.356  10.610   8.046  2.2855  0.5336 -1.7408
  760MOL0     H  263  10.189  10.849   8.088  2.3199  1.0081  0.4201
  760MOL0     H  264  10.155  10.672   8.104  2.5117 -2.2023 -2.5246
  760MOL0     H  265  10.306  10.857   8.293  0.8940 -0.5210  0.4744
  760MOL0     H  266  10.336  10.690   8.305  0.2737 -0.7354 -1.4481
  760MOL0     H  267  10.077  10.656   8.353 -1.0869  0.5635 -0.2415
  760MOL0     H  268  10.061  10.835   8.332 -0.2155  0.0148 -1.2170
  760MOL0     H  269  10.219  10.691   8.536 -0.0340 -0.9820 -2.0001
  760MOL0     H  270  10.181  10.869   8.525  1.4945 -0.4446  2.9407
  760MOL0     H  271   9.994  10.645   8.586 -2.2139  0.1857 -0.9050
  760MOL0     H  272   9.941  10.804   8.535  1.0389 -1.6897 -1.7780
  760MOL0     H  273   9.937  11.007   8.740  0.3799 -0.1174 -0.3093
  760MOL0     H  274  10.150  11.097   8.975  0.8781 -0.9754  0.3379
  760MOL0     H  275  10.068  10.983   9.076  3.6109 -2.3231 -1.1055
  760MOL0     H  276   9.865  11.092   9.049  2.5091  0.2931  3.5965
  760MOL0     H  277   9.896  11.130   8.882  0.8451 -2.0263 -0.5675
  760MOL0     H  278  10.011  11.261   9.139 -1.4796 -0.6633 -0.1178
  760MOL0     H  279  10.057  11.319   8.975  0.2143  1.0152  0.2111
  760MOL0     H  280   9.839  11.379   8.923  1.2754 -1.2471 -0.7125
  760MOL0     H  281   9.899  11.472   9.057 -1.9462  1.1119 -1.3826
  760MOL0     H  282   9.558  11.243   9.187  0.5825  0.3135 -2.1410
  760MOL0     H  283   9.335  11.370   9.241  0.0093 -1.3945 -1.0648
  760MOL0     H  284   9.189  11.985   9.239 -1.5083  0.5258 -0.2806
  760MOL0     H  285   9.002  12.113   9.141 -0.2122  0.2111 -0.8859
  760MOL0     H  286   8.749  12.169   9.055 -0.9747  0.0978 -0.3432
  760MOL0     H  287   8.691  12.014   9.084 -0.1126  1.4047  1.5001
  760MOL0     H  288   8.684  12.152   8.813  2.7915 -0.9194  1.0077
  760MOL0     H  289   8.554  12.180   8.930  0.3434 -0.2182  0.1086
  760MOL0     H  290   8.633  11.905   8.815  0.8929  0.4077  1.2728
  760MOL0     H  291   8.501  12.001   8.751  1.0996  0.4346 -0.8646
  760MOL0     H  292   8.524  11.868   9.023  1.2589 -1.4100 -1.5935
  760MOL0     H  293   8.379  11.957   8.968  0.8021 -0.4005  2.0659
  760MOL0     H  294   8.355  11.793   8.786  0.8812 -0.0439 -1.6612
  760MOL0     H  295   8.346  11.721   8.945 -0.6335  0.4208  0.9904
  760MOL0     H  296   8.591  11.649   8.931 -1.2211 -2.1736 -0.0832
  760MOL0     H  297   8.606  11.701   8.765  3.1075 -0.7561  0.9391
  760MOL0     H  298   8.393  11.505   8.865 -0.9994 -1.2205 -1.0129
  760MOL0     H  299   8.424  11.537   8.690  0.5631 -0.7578  0.2103
  760MOL0     H  300   8.518  11.340   8.729 -1.1495  1.1163 -1.2029
  760MOL0     H  301   8.599  11.402   8.881  2.8534  1.0790 -0.7975
  760MOL0     H  302   8.935  11.790   8.867  1.8447 -0.4481 -1.0592
  760MOL0     H  303   9.128  11.674   8.967  1.2370  1.0402 -1.3812
  760MOL0     H  304   9.532  11.731   9.107  3.6421 -0.5044 -1.2799
  760MOL0     H  305   9.732  11.604   9.069 -0.5835 -0.4667  1.1359
  760MOL0     H  306  10.785  10.653   7.749  0.2090 -0.1250  0.6797
  760MOL0     H  307  10.887  10.500   7.582  0.8570 -0.4654  1.6009
  760MOL0     H  308  10.600  10.215   7.078 -0.7661  1.9684 -4.0560
  760MOL0     H  309  10.733  10.143   6.898  0.7005  0.1469 -0.2852
  760MOL0     H  310  10.861  10.283   6.704 -0.6712  0.5259  1.0872
  760MOL0     H  311  10.852  10.107   6.741  1.3452 -0.1967  1.0444
  760MOL0     H  312  11.041  10.046   6.638  0.0629  0.4058  0.0565
  760MOL0     H  313  10.963  10.126   6.516  2.0397  1.4004 -2.6512
  760MOL0     H  314  11.209  10.242   6.659 -1.3304  4.4442  3.1017
  760MOL0     H  315  11.095  10.366   6.581  0.4600  0.4631 -3.2373
  760MOL0     H  316  11.194  10.130   6.425  6.4649  1.0746 -3.7133
  760MOL0     H  317  11.090  10.267   6.374  0.1925 -1.3139 -0.7923
  760MOL0     H  318  11.510  10.379   6.377 -0.2331 -0.5089  1.2675
  760MOL0     H  319  11.094  10.294   7.074 -0.2158 -3.3230  0.0082
  760MOL0     H  320  10.945  10.345   7.288 -3.4836 -1.7442  2.7843
  761MOL0     O  321   6.398   0.430   3.748  0.1733 -0.2688 -0.2574
  761MOL0     C  322   6.372   0.547   3.779 -0.7919  0.0756  0.0080
  761MOL0     O  323   6.253   0.591   3.821  0.2919 -0.1719  0.3004
  761MOL0     C  324   6.150   0.508   3.856 -0.7253 -0.0215  0.1673
  761MOL0     C  325   6.165   0.376   3.900  1.0797  0.4780  0.5133
  761MOL0     C  326   6.047   0.303   3.932 -0.5980  0.1206 -0.0297
  761MOL0     C  327   5.925   0.367   3.934  0.0784  0.1574  0.6279
  761MOL0     O  328   5.826   0.293   3.988 -0.1702  0.2475 -0.5445
  761MOL0     C  329   5.698   0.318   3.939  0.4348 -0.3053 -0.5005
  761MOL0     C  330   5.594   0.227   4.011 -0.2729  0.8706  0.5906
  761MOL0     C  331   5.574   0.237   4.162  0.5575 -0.7201 -0.1534
  761MOL0     C  332   5.447   0.170   4.203  0.6345  0.4623  0.3080
  761MOL0     C  333   5.444   0.013   4.182 -0.0033  1.0928 -0.3597
  761MOL0     C  334   5.329  -0.048   4.257  0.4662 -0.3235 -0.3436
  761MOL0     C  335   5.321  -0.198   4.221 -0.3260  1.4050 -0.0160
  761MOL0     C  336   5.200  -0.254   4.284  0.0594 -0.1149  0.5156
  761MOL0     N  337   5.164  -0.393   4.250  0.5379 -0.0054  0.2765
  761MOL0     C  338   5.083  -0.415   4.143  0.0385 -0.1765 -0.5698
  761MOL0     C  339   5.091  -0.547   4.120 -0.3274  0.8493  0.1087
  761MOL0     C  340   5.026  -0.622   4.013  0.0812  0.9132 -0.2399
  761MOL0     C  341   4.872  -0.629   4.024  0.2681 -0.1891 -0.4233
  761MOL0     C  342   4.837  -0.727   4.137 -0.1713 -0.1918 -0.9509
  761MOL0     C  343   4.682  -0.737   4.161 -0.8326  0.1897 -0.2237
  761MOL0     O  344   4.640  -0.785   4.033  0.6048  0.1904 -0.3561
  761MOL0     C  345   4.502  -0.803   4.023 -0.3306  0.0827 -0.0497
  761MOL0     C  346   4.403  -0.810   4.124 -0.2056 -0.6378  0.3506
  761MOL0     C  347   4.272  -0.860   4.094  0.2682  0.1024  0.1986
  761MOL0     C  348   4.238  -0.912   3.962  0.6082 -0.2798  0.8301
  761MOL0     C  349   4.112  -0.972   3.933  0.8089  0.2826  0.3178
  761MOL0     O  350   4.085  -1.022   3.807 -0.0467 -0.6179  0.1906
  761MOL0     C  351   3.967  -1.091   3.790  0.0227  0.0118 -0.0991
  761MOL0     C  352   3.876  -1.022   3.712  0.6495 -0.5912 -0.1740
  761MOL0     C  353   3.752  -1.083   3.677 -0.4981  1.1363 -0.4950
  761MOL0     C  354   3.721  -1.214   3.720  0.4718  0.0584  0.1070
  761MOL0     O  355   3.603  -1.280   3.699 -0.1978  0.1304  0.0175
  761MOL0     C  356   3.504  -1.242   3.595  0.1374  0.4484 -0.6531
  761MOL0     C  357   3.376  -1.327   3.601 -0.2653  0.2914 -0.3710
  761MOL0     C  358   3.275  -1.276   3.497  0.0641  0.6510 -0.4003
  761MOL0     C  359   3.324  -1.304   3.353 -0.2638  0.7744  0.5725
  761MOL0     C  360   3.208  -1.316   3.244 -0.3598  0.1694  0.6375
  761MOL0     C  361   3.162  -1.179   3.206  0.9098  0.6720  0.3378
  761MOL0     C  362   3.022  -1.165   3.130 -0.7515 -0.0838 -0.1655
  761MOL0     C  363   3.024  -1.171   2.985 -0.0768  0.1119 -0.4026
  761MOL0    Cl  364   2.872  -1.124   2.898  0.3710 -0.3943 -0.5172
  761MOL0     C  365   3.820  -1.284   3.791  0.0899  1.2931 -0.3375
  761MOL0     C  366   3.941  -1.226   3.833 -0.6062 -0.7606 -0.7211
  761MOL0     O  367   4.033  -0.979   4.030 -0.1038 -0.4319 -0.8016
  761MOL0     C  368   4.340  -0.913   3.873 -0.0644 -0.3262  0.5465
  761MOL0     C  369   4.462  -0.850   3.900  0.8410 -1.0384  0.1209
  761MOL0     N  370   5.169  -0.606   4.223  0.3216 -0.0941 -0.7870
  761MOL0     N  371   5.216  -0.509   4.293 -0.7600  0.2274  0.5052
  761MOL0     C  372   5.913   0.496   3.884  0.6776 -0.0447  0.6316
  761MOL0     C  373   6.026   0.565   3.846  0.3779  1.1209  0.3446
  761MOL0     C  374   6.480   0.642   3.778  0.6296 -0.5630 -0.1469
  761MOL0     C  375   6.621   0.611   3.757  0.4265 -0.1822  0.2177
  761MOL0     C  376   6.714   0.721   3.768 -1.5391  0.7537  0.2153
  761MOL0     C  377   6.677   0.854   3.784  0.1511 -0.3145  0.5214
  761MOL0     O  378   6.776   0.946   3.769 -0.8279 -0.5324 -0.1984
  761MOL0     C  379   6.736   1.095   3.756  0.4346  0.6106 -0.0997
  761MOL0     C  380   6.852   1.149   3.674 -0.4580 -0.2223  0.7981
  761MOL0     C  381   6.968   1.192   3.763  0.0951  0.1293 -0.0533
  761MOL0     C  382   7.085   1.280   3.684  0.3117 -0.3031  0.0664
  761MOL0     C  383   7.121   1.211   3.563  0.3205 -0.3073 -0.3910
  761MOL0     C  384   7.171   1.153   3.465  0.6380 -1.0171 -0.6066
  761MOL0     C  385   6.544   0.885   3.798 -0.1683  0.4605  0.1519
  761MOL0     C  386   6.454   0.778   3.806 -0.2581  0.7498  0.2721
  761MOL0     H  387   6.264   0.332   3.901  2.3822  3.0201 -2.0035
  761MOL0     H  388   6.058   0.199   3.962  0.2495  0.9932  3.0134
  761MOL0     H  389   5.695   0.299   3.831  0.4477  0.7731 -0.7015
  761MOL0     H  390   5.667   0.423   3.949 -0.0113 -0.4881  0.0773
  761MOL0     H  391   5.632   0.125   4.001  1.7314  1.3868  2.3808
  761MOL0     H  392   5.493   0.237   3.971  0.4383  1.2163 -1.2327
  761MOL0     H  393   5.568   0.343   4.188  0.9159 -0.7042 -0.1315
  761MOL0     H  394   5.658   0.191   4.213  0.0718 -1.4861 -0.0294
  761MOL0     H  395   5.432   0.198   4.308 -0.8677  0.7563  0.0471
  761MOL0     H  396   5.367   0.222   4.150 -0.0196  0.1743  0.9935
  761MOL0     H  397   5.539  -0.023   4.222 -0.8520 -0.7435  0.1038
  761MOL0     H  398   5.431  -0.002   4.074  2.2225  0.9072 -0.6442
  761MOL0     H  399   5.241   0.002   4.216  0.8990  0.0013 -0.8889
  761MOL0     H  400   5.340  -0.037   4.366  1.9944 -0.9335 -0.4194
  761MOL0     H  401   5.325  -0.208   4.112  3.8368 -1.8762  0.2029
  761MOL0     H  402   5.410  -0.256   4.248 -0.3444  1.0244 -0.7655
  761MOL0     H  403   5.110  -0.196   4.262  0.8291  0.1858 -2.1435
  761MOL0     H  404   5.219  -0.247   4.392  3.4920  2.0872 -0.0779
  761MOL0     H  405   5.034  -0.336   4.088 -0.5933  0.8453  1.3633
  761MOL0     H  406   5.066  -0.723   4.004 -2.0058  0.2206 -3.9451
  761MOL0     H  407   5.039  -0.569   3.918  0.8879 -0.7828 -1.1122
  761MOL0     H  408   4.838  -0.662   3.926  0.4550 -0.7897 -0.2869
  761MOL0     H  409   4.830  -0.529   4.041 -1.3633 -0.2509 -3.4242
  761MOL0     H  410   4.871  -0.827   4.109  1.8781  0.2281 -0.1281
  761MOL0     H  411   4.890  -0.700   4.229 -0.2006  0.0033 -0.9910
  761MOL0     H  412   4.626  -0.646   4.180  0.3122  0.4759  2.1039
  761MOL0     H  413   4.679  -0.802   4.249  2.8487  1.3550  0.9264
  761MOL0     H  414   4.418  -0.787   4.229  1.5944 -1.7372  0.3800
  761MOL0     H  415   4.192  -0.860   4.168 -2.1663  3.0368 -2.1134
  761MOL0     H  416   3.897  -0.922   3.675  1.3732 -0.3003  0.9559
  761MOL0     H  417   3.676  -1.030   3.620 -0.6019  1.1525 -0.3409
  761MOL0     H  418   3.553  -1.238   3.498 -0.5040 -3.9475 -1.3745
  761MOL0     H  419   3.464  -1.142   3.612  0.8885  0.5323  0.8726
  761MOL0     H  420   3.329  -1.321   3.699 -0.7612 -2.5133 -0.3504
  761MOL0     H  421   3.390  -1.434   3.581 -2.0077  0.2536 -1.6014
  761MOL0     H  422   3.248  -1.170   3.498 -2.3350  0.2809 -4.4697
  761MOL0     H  423   3.186  -1.335   3.521  0.5740 -0.7782 -1.7927
  761MOL0     H  424   3.395  -1.230   3.316 -0.8565  1.5038  0.8811
  761MOL0     H  425   3.383  -1.397   3.348 -0.9742  0.3182  0.5525
  761MOL0     H  426   3.132  -1.387   3.278  0.1550  0.5189  2.6491
  761MOL0     H  427   3.244  -1.349   3.146 -1.1500  0.9825  0.0635
  761MOL0     H  428   3.245  -1.140   3.147  0.0086 -0.7144 -1.9823
  761MOL0     H  429   3.147  -1.137   3.306 -0.9349 -2.4938  1.5316
  761MOL0     H  430   2.956  -1.234   3.184 -1.7896  1.7615  0.9998
  761MOL0     H  431   2.985  -1.067   3.159 -0.5605  0.4886 -1.7522
  761MOL0     H  432   3.057  -1.271   2.955 -0.7793 -1.6855  4.1225
  761MOL0     H  433   3.099  -1.093   2.967  0.4021 -0.4479 -0.8686
  761MOL0     H  434   3.792  -1.387   3.808  2.2405  0.5134 -1.0477
  761MOL0     H  435   4.022  -1.276   3.884  0.6243  2.3863  0.6346
  761MOL0     H  436   4.330  -0.957   3.774 -2.5799  1.1944  0.0269
  761MOL0     H  437   4.536  -0.851   3.820 -0.0043  1.1002 -0.7437
  761MOL0     H  438   5.821   0.550   3.867  0.8904 -0.0699 -0.6777
  761MOL0     H  439   6.022   0.666   3.807  2.9150  1.4840  0.8586
  761MOL0     H  440   6.667   0.513   3.746  0.7943 -0.4468  3.1175
  761MOL0     H  441   6.820   0.699   3.769 -1.4775  0.2708  4.9542
  761MOL0     H  442   6.724   1.156   3.846  3.1862  0.1681  0.6351
  761MOL0     H  443   6.643   1.098   3.698 -0.1691 -4.5599  0.0839
  761MOL0     H  444   6.876   1.082   3.591 -1.2914  0.7474 -0.2762
  761MOL0     H  445   6.824   1.241   3.621  1.9234  0.0381 -0.1603
  761MOL0     H  446   7.015   1.115   3.825  2.1486  0.1886 -1.4259
  761MOL0     H  447   6.929   1.265   3.834  3.2741  1.1464  0.8343
  761MOL0     H  448   7.055   1.384   3.669 -0.8241 -0.3943  1.5032
  761MOL0     H  449   7.175   1.286   3.745  1.5670  1.1921 -1.7786
  761MOL0     H  450   7.201   1.098   3.379 -2.2840 -0.8382 -1.8749
  761MOL0     H  451   6.511   0.986   3.816 -2.1959  0.0251 -0.8435
  761MOL0     H  452   6.352   0.810   3.827 -0.1123  0.6819  1.1445
  762MOL0     O  453   4.914   7.854   2.885 -0.1963 -0.1368 -0.4552
  762MOL0     C  454   4.952   7.899   2.778 -0.9950 -0.0858  0.7652
  762MOL0     O  455   4.878   7.949   2.683 -0.0010 -0.2625 -0.3461
  762MOL0     C  456   4.749   7.981   2.706 -0.2032  0.2315  0.4348
  762MOL0     C  457   4.690   8.044   2.822  0.3752 -0.0358  0.4981
  762MOL0     C  458   4.558   8.081   2.812  0.4018  0.6456  0.6844
  762MOL0     C  459   4.470   8.052   2.699  0.5821 -0.2367 -0.6201
  762MOL0     O  460   4.344   8.097   2.687 -0.2746 -1.2425 -0.0495
  762MOL0     C  461   4.249   8.043   2.589  0.0324 -0.4613  0.2178
  762MOL0     C  462   4.109   8.050   2.666  0.3373  0.1764  0.7836
  762MOL0     C  463   3.989   8.039   2.569  0.2362  0.5192 -0.9776
  762MOL0     C  464   3.976   7.892   2.531  0.7629 -0.5437 -0.6636
  762MOL0     C  465   3.834   7.851   2.478  0.5108  0.0246 -0.0069
  762MOL0     C  466   3.746   7.837   2.600  0.5133  0.6726  0.6194
  762MOL0     C  467   3.593   7.853   2.557 -0.9761 -0.1208  0.4807
  762MOL0     C  468   3.504   7.874   2.677  1.0108 -0.0074 -0.0043
  762MOL0     N  469   3.355   7.852   2.655 -0.1715  0.6884 -0.8863
  762MOL0     C  470   3.286   7.729   2.650  0.5477  0.0828 -0.7739
  762MOL0     C  471   3.156   7.762   2.675  0.2223 -0.7612 -0.1570
  762MOL0     C  472   3.039   7.666   2.704 -0.6044  0.5312 -0.8510
  762MOL0     C  473   2.975   7.689   2.839  0.2753  0.1939 -0.3906
  762MOL0     C  474   2.913   7.550   2.881  0.3575  0.5850 -0.1818
  762MOL0     C  475   2.795   7.579   2.981 -0.0769  0.2190  0.5018
  762MOL0     O  476   2.772   7.470   3.063  0.4584  0.0043 -0.1544
  762MOL0     C  477   2.645   7.423   3.073 -0.8721 -0.1247 -0.5126
  762MOL0     C  478   2.570   7.359   2.965 -0.2170 -0.2404 -0.1816
  762MOL0     C  479   2.440   7.317   2.980 -0.2863 -0.7303  0.6133
  762MOL0     C  480   2.370   7.342   3.100 -0.3129  0.8208 -0.0291
  762MOL0     C  481   2.229   7.306   3.112 -0.2468 -0.3736 -0.8459
  762MOL0     O  482   2.156   7.349   3.222  0.2931  0.5310  0.5327
  762MOL0     C  483   2.034   7.289   3.265 -0.2233 -1.0286 -0.0680
  762MOL0     C  484   1.960   7.368   3.353 -1.6529  0.7358  0.2411
  762MOL0     C  485   1.832   7.341   3.395 -0.4563 -0.2162  0.0387
  762MOL0     C  486   1.764   7.231   3.346  0.3448  0.4027  0.2793
  762MOL0     O  487   1.634   7.212   3.391 -0.0833  1.0621 -0.2144
  762MOL0     C  488   1.558   7.097   3.338  0.2816  0.4452 -0.2217
  762MOL0     C  489   1.560   6.984   3.438  0.1373 -0.1868 -0.9692
  762MOL0     C  490   1.499   7.017   3.579 -0.3321  0.3566 -0.2744
  762MOL0     C  491   1.586   7.094   3.682 -1.1611  1.0873  0.7318
  762MOL0     C  492   1.547   7.130   3.826 -0.3892 -0.3287  0.1409
  762MOL0     C  493   1.407   7.078   3.873  0.5709 -0.5459 -0.2791
  762MOL0     C  494   1.356   7.156   3.996 -0.0959 -0.3931  0.3379
  762MOL0     C  495   1.213   7.113   4.035  0.2159  0.3371  0.0660
  762MOL0    Cl  496   1.143   7.200   4.172 -0.1257  0.2406  0.2858
  762MOL0     C  497   1.832   7.146   3.252 -0.2913  0.1832 -0.2415
  762MOL0     C  498   1.964   7.177   3.214 -0.1551  0.3562 -0.5194
  762MOL0     O  499   2.183   7.239   3.023 -0.1768 -0.2235 -0.9879
  762MOL0     C  500   2.441   7.396   3.207  0.2105 -0.6854  0.4009
  762MOL0     C  501   2.575   7.439   3.195  0.3405  0.5037 -0.3751
  762MOL0     N  502   3.146   7.904   2.687 -0.0226 -0.7195  0.8170
  762MOL0     N  503   3.262   7.949   2.672 -0.8790  0.2033 -0.9596
  762MOL0     C  504   4.530   7.987   2.593 -0.1206 -0.2001 -0.0634
  762MOL0     C  505   4.668   7.949   2.593  0.5135  0.1171  0.0183
  762MOL0     C  506   5.097   7.937   2.772  0.3590  0.5805 -0.1514
  762MOL0     C  507   5.187   7.899   2.873  1.1053  0.1855 -0.1608
  762MOL0     C  508   5.321   7.922   2.865 -0.1546  0.4409 -0.1551
  762MOL0     C  509   5.389   7.964   2.747 -0.1857  0.5909 -0.3922
  762MOL0     O  510   5.525   7.962   2.748  0.2832 -1.0110 -0.3797
  762MOL0     C  511   5.577   8.018   2.629 -0.8988  0.7913  0.9947
  762MOL0     C  512   5.731   8.034   2.639  0.1636 -0.5752 -0.2769
  762MOL0     C  513   5.801   7.905   2.599  0.0307  0.8907 -0.4116
  762MOL0     C  514   5.949   7.911   2.652  0.3015  0.0278  0.4153
  762MOL0     C  515   6.037   8.011   2.592 -0.6892  0.4366  0.5036
  762MOL0     C  516   6.130   8.076   2.535 -1.1403  0.1514  1.1612
  762MOL0     C  517   5.297   8.004   2.647 -0.6045  0.5159  0.1655
  762MOL0     C  518   5.159   7.995   2.659  0.2842 -0.4081  0.3045
  762MOL0     H  519   4.741   8.041   2.917 -1.7847 -0.6889  1.7116
  762MOL0     H  520   4.510   8.124   2.900 -0.1076 -1.4482  1.5074
  762MOL0     H  521   4.266   7.940   2.557 -0.3910 -0.1077 -1.2079
  762MOL0     H  522   4.247   8.103   2.497 -1.4810  1.8423  1.6293
  762MOL0     H  523   4.098   8.141   2.725  1.3748 -1.1613  3.1864
  762MOL0     H  524   4.122   7.970   2.739  2.6027  0.0093  0.2905
  762MOL0     H  525   4.003   8.106   2.484  1.2314  2.0078  0.3247
  762MOL0     H  526   3.901   8.068   2.628  0.9049 -0.2038  0.4159
  762MOL0     H  527   4.050   7.869   2.453  1.5605  1.0985 -0.4279
  762MOL0     H  528   4.009   7.833   2.617 -1.8091  0.0859  0.8640
  762MOL0     H  529   3.837   7.755   2.426  0.1633  0.9674 -1.8463
  762MOL0     H  530   3.800   7.930   2.412 -0.9967 -1.2387 -0.8070
  762MOL0     H  531   3.774   7.908   2.679  1.8811 -1.1054  1.8084
  762MOL0     H  532   3.756   7.744   2.656  0.4515 -0.1875 -0.7336
  762MOL0     H  533   3.581   7.937   2.488  1.0289  0.6818  1.0289
  762MOL0     H  534   3.569   7.756   2.511 -0.2282 -0.0831 -0.0071
  762MOL0     H  535   3.521   7.975   2.716  1.3791  0.1796 -0.6420
  762MOL0     H  536   3.532   7.805   2.757 -1.9026 -0.5614  0.6485
  762MOL0     H  537   3.327   7.629   2.648  1.2869  0.3939 -1.8996
  762MOL0     H  538   3.090   7.570   2.704  0.9557  1.2643  1.6771
  762MOL0     H  539   2.966   7.674   2.622 -1.2561  0.4066 -0.2958
  762MOL0     H  540   2.894   7.763   2.839 -2.2430 -2.3715 -0.1862
  762MOL0     H  541   3.053   7.733   2.902  0.0583  2.6470 -1.7308
  762MOL0     H  542   2.887   7.488   2.795  0.6040  1.1968 -0.7018
  762MOL0     H  543   2.995   7.495   2.928  0.1727  1.0688  0.7311
  762MOL0     H  544   2.702   7.613   2.934 -0.4191 -0.5458  0.6228
  762MOL0     H  545   2.830   7.660   3.045 -1.6054  1.5477 -0.2495
  762MOL0     H  546   2.632   7.353   2.876  0.3872 -0.9592  0.2762
  762MOL0     H  547   2.386   7.280   2.893  1.8005 -1.6448 -0.3638
  762MOL0     H  548   2.011   7.457   3.388  3.7605 -2.4865  1.7949
  762MOL0     H  549   1.790   7.411   3.467 -0.5861  2.7571 -2.6893
  762MOL0     H  550   1.586   7.064   3.238  1.0030 -2.4595  0.8414
  762MOL0     H  551   1.455   7.132   3.328  0.6911  1.9647  0.5477
  762MOL0     H  552   1.662   6.947   3.451 -0.2847 -1.4892 -1.1710
  762MOL0     H  553   1.510   6.908   3.377  1.4731 -0.5439 -1.6581
  762MOL0     H  554   1.456   6.925   3.622 -0.9468  0.1646 -1.2751
  762MOL0     H  555   1.415   7.087   3.570 -1.3055 -0.7652 -0.3070
  762MOL0     H  556   1.677   7.036   3.701 -0.4677  1.6321 -0.7068
  762MOL0     H  557   1.626   7.188   3.643  1.5965  0.2286  1.2791
  762MOL0     H  558   1.549   7.239   3.825 -3.3410 -0.1660  1.1898
  762MOL0     H  559   1.619   7.088   3.897 -0.5587 -0.9605 -0.0575
  762MOL0     H  560   1.413   6.971   3.896 -1.3291 -0.8337 -0.9626
  762MOL0     H  561   1.334   7.100   3.795 -0.7587 -0.5423  0.9358
  762MOL0     H  562   1.417   7.131   4.084 -0.0708  3.0555  1.4357
  762MOL0     H  563   1.362   7.265   3.989  1.2642 -0.4088  0.9557
  762MOL0     H  564   1.223   7.009   4.069 -1.0041 -0.5024 -1.9715
  762MOL0     H  565   1.140   7.117   3.954  0.3788  0.3065 -0.0841
  762MOL0     H  566   1.792   7.056   3.208 -2.0403  0.4139  0.7916
  762MOL0     H  567   2.008   7.113   3.138 -0.1894 -1.4456  0.9290
  762MOL0     H  568   2.390   7.409   3.303 -0.4957  1.0787 -0.1802
  762MOL0     H  569   2.631   7.485   3.276  0.1185  2.4024 -1.2428
  762MOL0     H  570   4.472   7.977   2.502 -0.9068  1.9531  0.1373
  762MOL0     H  571   4.722   7.907   2.508  2.5861  1.5196  0.5571
  762MOL0     H  572   5.140   7.867   2.965 -1.3240 -3.0002 -2.2943
  762MOL0     H  573   5.379   7.883   2.948 -2.1892 -2.5105  0.0115
  762MOL0     H  574   5.536   8.115   2.597  0.5699  1.5587  1.3276
  762MOL0     H  575   5.557   7.953   2.543 -0.0791  1.2100  0.4654
  762MOL0     H  576   5.768   8.116   2.577 -1.5065  0.2525 -0.2254
  762MOL0     H  577   5.748   8.073   2.740  3.4094 -1.9692 -0.1517
  762MOL0     H  578   5.815   7.884   2.493  0.3090  0.4230 -0.2824
  762MOL0     H  579   5.749   7.825   2.653  0.6377  1.2363  0.7041
  762MOL0     H  580   5.949   7.956   2.752  2.7491  1.0622  0.0458
  762MOL0     H  581   5.989   7.810   2.660  0.2752  0.0506  0.8646
  762MOL0     H  582   6.204   8.141   2.493 -1.3340 -1.9657 -2.8835
  762MOL0     H  583   5.328   8.040   2.550 -1.0005 -2.9122 -1.3685
  762MOL0     H  584   5.097   8.035   2.579 -0.5473 -0.1163  1.0822
  763MOL0     O  585   9.943   6.335   7.424 -0.0688 -0.1995  0.1480
  763MOL0     C  586   9.988   6.237   7.357 -0.1743  0.0596 -0.1694
  763MOL0     O  587   9.916   6.129   7.297  0.4328 -0.3062  0.1889
  763MOL0     C  588   9.777   6.125   7.304 -0.5489  0.2948  0.0780
  763MOL0     C  589   9.708   6.088   7.192  1.4695 -0.0570  0.4086
  763MOL0     C  590   9.571   6.090   7.193 -0.8323  1.0245  0.2634
  763MOL0     C  591   9.498   6.115   7.305  0.0239 -0.5022 -0.3418
  763MOL0     O  592   9.357   6.118   7.293  0.0799  0.4216  0.0246
  763MOL0     C  593   9.271   6.159   7.400  0.1134 -0.2333  0.6612
  763MOL0     C  594   9.208   6.050   7.485  0.6220  0.2025 -0.2685
  763MOL0     C  595   9.085   6.094   7.580  0.0192  0.6111  1.1059
  763MOL0     C  596   9.048   5.985   7.681 -0.2828  0.1827  0.4733
  763MOL0     C  597   8.909   6.010   7.746  0.1615 -0.0968 -0.3018
  763MOL0     C  598   8.850   5.885   7.806  0.5278  0.4914  0.6975
  763MOL0     C  599   8.717   5.911   7.867  0.5194 -0.0466  1.4808
  763MOL0     C  600   8.632   5.782   7.893 -0.0528 -0.2263  0.3608
  763MOL0     N  601   8.487   5.807   7.899 -0.6895  0.6879 -0.1262
  763MOL0     C  602   8.416   5.830   7.782 -0.1178  0.3767 -0.2068
  763MOL0     C  603   8.289   5.854   7.833 -0.5621  0.0794 -0.0085
  763MOL0     C  604   8.162   5.882   7.744  0.1023 -0.1809  0.3184
  763MOL0     C  605   8.096   5.761   7.669 -0.3152  0.2812 -0.0486
  763MOL0     C  606   8.028   5.670   7.779  0.1580  0.7473 -0.1622
  763MOL0     C  607   7.905   5.732   7.840  0.0920 -0.3519 -0.1017
  763MOL0     O  608   7.818   5.731   7.733  0.3926 -0.1706 -0.3195
  763MOL0     C  609   7.743   5.845   7.689  0.3912 -0.1813 -0.5672
  763MOL0     C  610   7.617   5.824   7.630  0.5219 -0.6062  0.8013
  763MOL0     C  611   7.545   5.935   7.588 -0.0596 -0.4237 -0.6004
  763MOL0     C  612   7.590   6.062   7.612 -0.4127 -0.2885 -0.5085
  763MOL0     C  613   7.509   6.177   7.583  0.9526 -1.0519  0.7003
  763MOL0     O  614   7.581   6.290   7.561 -0.1826 -0.1627  0.2336
  763MOL0     C  615   7.524   6.409   7.528  0.5145 -0.3436 -0.4814
  763MOL0     C  616   7.406   6.459   7.582  1.0101 -0.3908 -0.1677
  763MOL0     C  617   7.359   6.593   7.562 -0.2854  0.6730  0.7150
  763MOL0     C  618   7.439   6.676   7.487  0.2184 -0.3599 -0.4470
  763MOL0     O  619   7.399   6.806   7.483 -0.8931 -0.6671  0.0524
  763MOL0     C  620   7.479   6.918   7.441  1.1207 -0.5041  0.7876
  763MOL0     C  621   7.386   7.044   7.422  0.4927  0.2785 -0.4348
  763MOL0     C  622   7.320   7.050   7.286 -0.3152  0.0982 -0.0210
  763MOL0     C  623   7.205   7.154   7.291 -0.4248 -0.7306  0.1253
  763MOL0     C  624   7.190   7.232   7.155  0.6571  0.5183 -0.2179
  763MOL0     C  625   7.140   7.143   7.040 -0.0746  0.7630  0.5175
  763MOL0     C  626   7.143   7.201   6.891 -0.2754  0.2490 -0.2308
  763MOL0     C  627   7.290   7.235   6.842  0.5661  0.2545  0.0360
  763MOL0    Cl  628   7.400   7.090   6.828 -0.0056  0.2062 -0.3147
  763MOL0     C  629   7.551   6.628   7.416  0.2408 -0.4047  0.7031
  763MOL0     C  630   7.590   6.494   7.439 -0.6296  0.2906 -0.2290
  763MOL0     O  631   7.388   6.169   7.568  0.7439 -0.0974 -1.0072
  763MOL0     C  632   7.721   6.080   7.665  0.2682  0.4940  0.2400
  763MOL0     C  633   7.800   5.972   7.706  0.4604  0.7781  0.1392
  763MOL0     N  634   8.289   5.843   7.966  0.4646 -0.3044  0.1920
  763MOL0     N  635   8.407   5.817   8.007 -0.2894 -0.5551 -0.2046
  763MOL0     C  636   9.569   6.146   7.423  0.1970  0.3879  0.0109
  763MOL0     C  637   9.710   6.150   7.419  0.0348  0.1241 -0.7423
  763MOL0     C  638  10.135   6.244   7.328  0.2203 -0.2871  0.0838
  763MOL0     C  639  10.224   6.350   7.357  0.2465 -0.9898 -0.0305
  763MOL0     C  640  10.361   6.345   7.341 -0.2031 -0.3928  0.0632
  763MOL0     C  641  10.421   6.245   7.257 -0.1086 -1.1384  0.1081
  763MOL0     O  642  10.547   6.249   7.199  0.2398 -0.3373  0.8725
  763MOL0     C  643  10.657   6.248   7.293 -0.4008  0.2205 -0.3393
  763MOL0     C  644  10.661   6.125   7.378 -0.2501 -0.0613 -0.5882
  763MOL0     C  645  10.789   6.128   7.472  0.9314 -0.3870 -0.5075
  763MOL0     C  646  10.783   6.014   7.582  0.1313  0.5550  0.5998
  763MOL0     C  647  10.805   5.878   7.516 -0.2196  0.4576 -0.0079
  763MOL0     C  648  10.829   5.784   7.442 -0.1493 -0.1120 -0.0738
  763MOL0     C  649  10.331   6.155   7.212 -0.4632  0.4201  0.7216
  763MOL0     C  650  10.191   6.148   7.252 -0.8965 -0.0886 -0.4191
  763MOL0     H  651   9.768   6.092   7.101  0.6199  1.7450 -0.1257
  763MOL0     H  652   9.526   6.063   7.098  1.7857  2.5344 -1.5356
  763MOL0     H  653   9.180   6.206   7.361  0.4171 -0.3762 -0.2461
  763MOL0     H  654   9.319   6.235   7.463 -0.8941  0.8405  0.1796
  763MOL0     H  655   9.283   6.006   7.550 -0.9641  0.2756  1.6865
  763MOL0     H  656   9.156   5.982   7.416  1.0632 -0.7645  0.3438
  763MOL0     H  657   9.002   6.096   7.510  0.0934 -3.9545  0.5980
  763MOL0     H  658   9.105   6.188   7.634 -3.5013  0.6108  2.7078
  763MOL0     H  659   9.053   5.897   7.616  0.0546  1.0477 -0.7064
  763MOL0     H  660   9.123   5.969   7.759 -2.4426 -1.1005  2.4398
  763MOL0     H  661   8.838   6.057   7.677 -1.5730  1.4876  2.3535
  763MOL0     H  662   8.936   6.085   7.821  1.5073 -3.2023  2.5854
  763MOL0     H  663   8.912   5.834   7.881 -2.8647 -2.4061  1.7995
  763MOL0     H  664   8.835   5.814   7.724  2.0414 -0.6330  1.3382
  763MOL0     H  665   8.728   5.971   7.958 -1.6437 -0.7039  2.2552
  763MOL0     H  666   8.665   5.965   7.787 -0.1123 -2.1955  0.3589
  763MOL0     H  667   8.660   5.742   7.991 -0.6678  0.1756  0.7076
  763MOL0     H  668   8.640   5.709   7.812 -1.0239  0.0464  0.0073
  763MOL0     H  669   8.450   5.823   7.679 -1.7950  2.7712 -1.0162
  763MOL0     H  670   8.189   5.959   7.672  0.4155 -1.6627 -1.2123
  763MOL0     H  671   8.082   5.927   7.804 -0.1707  0.7875 -0.7452
  763MOL0     H  672   8.172   5.700   7.621  1.0056  0.1415  2.1032
  763MOL0     H  673   8.018   5.795   7.600 -0.2271  2.0833  0.6608
  763MOL0     H  674   7.997   5.574   7.739 -0.0399  0.4526  0.6818
  763MOL0     H  675   8.097   5.650   7.861  0.2112  2.7185  0.3338
  763MOL0     H  676   7.928   5.826   7.891 -2.3650 -1.6443  3.8623
  763MOL0     H  677   7.865   5.666   7.918 -0.0915 -1.2859 -0.9577
  763MOL0     H  678   7.582   5.721   7.624 -0.5434 -0.3924  2.8562
  763MOL0     H  679   7.445   5.921   7.549 -0.4887  0.4271  0.1597
  763MOL0     H  680   7.358   6.400   7.659  2.2928 -0.9450  0.2291
  763MOL0     H  681   7.278   6.639   7.617 -0.0942  2.5403 -0.5011
  763MOL0     H  682   7.518   6.894   7.342  0.9768 -0.9502  0.8370
  763MOL0     H  683   7.568   6.934   7.503  2.5518 -1.2058 -0.9982
  763MOL0     H  684   7.449   7.134   7.428 -0.5695  0.9951  0.3084
  763MOL0     H  685   7.308   7.035   7.498 -1.3099  0.7333 -2.1297
  763MOL0     H  686   7.282   6.949   7.272  0.4893 -0.4936  1.7621
  763MOL0     H  687   7.402   7.062   7.216 -0.2596 -1.2214 -0.2105
  763MOL0     H  688   7.118   7.107   7.337 -0.5673  0.1149  0.7329
  763MOL0     H  689   7.231   7.228   7.367  0.4683 -0.2378 -0.6351
  763MOL0     H  690   7.290   7.268   7.127  1.2867  1.1579  2.5870
  763MOL0     H  691   7.128   7.321   7.172  1.7847  1.3689 -0.4213
  763MOL0     H  692   7.040   7.106   7.065 -0.2236  0.7955 -0.0183
  763MOL0     H  693   7.208   7.058   7.034 -0.8695  0.0402  1.3858
  763MOL0     H  694   7.123   7.117   6.823  0.2199 -2.0981  2.3145
  763MOL0     H  695   7.074   7.285   6.882  0.0462  0.6391  0.7936
  763MOL0     H  696   7.336   7.315   6.901  0.3787 -0.6101  1.3775
  763MOL0     H  697   7.298   7.277   6.741  2.3256 -0.4332 -0.1574
  763MOL0     H  698   7.602   6.695   7.348 -1.3811  1.3648  1.1190
  763MOL0     H  699   7.677   6.458   7.386 -1.6854 -1.1772 -1.0389
  763MOL0     H  700   7.761   6.179   7.684 -1.5237  0.9991  1.7174
  763MOL0     H  701   7.895   5.994   7.754  0.8946  1.4877 -0.9959
  763MOL0     H  702   9.521   6.178   7.515 -0.1339  2.2376 -0.7670
  763MOL0     H  703   9.769   6.168   7.508  2.6824 -4.1216 -1.3075
  763MOL0     H  704  10.175   6.440   7.393 -0.0324 -0.1987 -2.2208
  763MOL0     H  705  10.431   6.422   7.371 -0.6443 -0.0516  0.2219
  763MOL0     H  706  10.646   6.342   7.348  0.3486 -0.8438  1.7584
  763MOL0     H  707  10.757   6.253   7.249  0.5795 -1.3600  1.5167
  763MOL0     H  708  10.567   6.109   7.430  0.2685 -0.9067  0.1242
  763MOL0     H  709  10.680   6.035   7.320  3.3288 -0.3010  0.6869
  763MOL0     H  710  10.790   6.226   7.520 -3.4488 -1.4409  2.3563
  763MOL0     H  711  10.874   6.111   7.406  0.4519 -0.5036 -1.1104
  763MOL0     H  712  10.856   6.032   7.661 -1.0945  0.3931  1.8146
  763MOL0     H  713  10.682   6.005   7.624 -0.7963  0.6565 -1.5019
  763MOL0     H  714  10.857   5.717   7.363  0.7002 -0.0295  0.1491
  763MOL0     H  715  10.374   6.080   7.147  1.4196  0.2035  2.1325
  763MOL0     H  716  10.137   6.058   7.225 -1.3034 -0.6403  1.9540
  764MOL0     O  717   8.699  10.759   2.211 -0.0009  0.1996 -0.2110
  764MOL0     C  718   8.701  10.855   2.291  0.1066 -0.5225  0.5314
  764MOL0     O  719   8.609  10.953   2.293  0.2897  0.7444 -0.3262
  764MOL0     C  720   8.525  10.973   2.192 -0.7277 -0.5879 -0.4816
  764MOL0     C  721   8.418  10.889   2.165  0.5096 -0.3276 -0.3164
  764MOL0     C  722   8.321  10.931   2.068 -0.6521 -0.7671 -0.7020
  764MOL0     C  723   8.324  11.056   2.007 -0.9503 -0.2223  0.0978
  764MOL0     O  724   8.223  11.081   1.921  0.4324  0.7151  0.2248
  764MOL0     C  725   8.176  11.208   1.899 -0.0529 -0.4576 -0.0986
  764MOL0     C  726   8.040  11.227   1.975  0.1553 -0.1030  0.6020
  764MOL0     C  727   7.991  11.376   1.954 -0.4813  0.3213  0.2959
  764MOL0     C  728   7.876  11.410   2.049 -0.2027 -0.7167  0.2787
  764MOL0     C  729   7.750  11.324   2.032  0.5466 -0.1908 -0.3809
  764MOL0     C  730   7.618  11.389   2.025 -1.4024 -0.1235 -0.4460
  764MOL0     C  731   7.506  11.307   2.081  0.2964 -0.4901 -0.5156
  764MOL0     C  732   7.394  11.400   2.116  0.3686 -0.4442 -0.5428
  764MOL0     N  733   7.274  11.324   2.153  0.6058  0.6733  0.3365
  764MOL0     C  734   7.156  11.376   2.214 -1.4829 -0.6910  0.5211
  764MOL0     C  735   7.059  11.294   2.188  0.0789 -0.4228 -0.1190
  764MOL0     C  736   6.917  11.304   2.246  0.9829  0.5287  0.5903
  764MOL0     C  737   6.834  11.419   2.190 -0.6068 -0.6643 -0.7479
  764MOL0     C  738   6.850  11.434   2.035  0.2093 -0.3377 -0.4048
  764MOL0     C  739   6.732  11.498   1.975  0.2334 -0.4901 -0.2087
  764MOL0     O  740   6.625  11.404   1.982  0.5331 -0.4099 -0.1054
  764MOL0     C  741   6.497  11.451   1.961 -0.4494  0.0330 -0.4546
  764MOL0     C  742   6.454  11.577   1.938  0.5593 -0.1071  0.8074
  764MOL0     C  743   6.322  11.594   1.901  0.5747 -1.3135 -0.3367
  764MOL0     C  744   6.218  11.494   1.909  0.3869  0.0307 -0.1369
  764MOL0     C  745   6.069  11.513   1.883  0.7972 -1.3752 -0.3049
  764MOL0     O  746   5.983  11.412   1.909 -0.0958  0.1068 -0.5843
  764MOL0     C  747   5.848  11.416   1.908 -0.2984 -1.1145  0.7238
  764MOL0     C  748   5.768  11.532   1.906  0.6636  0.0009 -0.5912
  764MOL0     C  749   5.627  11.530   1.905  0.4001  0.2589 -0.4547
  764MOL0     C  750   5.558  11.407   1.904  0.5496 -0.1170  0.2254
  764MOL0     O  751   5.428  11.386   1.893  0.2019  0.0458 -0.2690
  764MOL0     C  752   5.338  11.487   1.951  0.0594  0.5467  0.5095
  764MOL0     C  753   5.197  11.443   1.962 -0.1053  0.8642 -0.6488
  764MOL0     C  754   5.142  11.377   1.834 -0.2139 -0.4892  1.4095
  764MOL0     C  755   5.001  11.339   1.862  0.2120 -0.3708 -0.3792
  764MOL0     C  756   4.924  11.254   1.759 -0.3269  0.2441  0.6516
  764MOL0     C  757   4.776  11.254   1.784  0.2173  0.7132 -0.2731
  764MOL0     C  758   4.745  11.216   1.932 -0.2174 -0.5769  0.1907
  764MOL0     C  759   4.596  11.171   1.931 -0.3661 -1.2698 -0.2533
  764MOL0    Cl  760   4.509  11.193   2.082 -0.4434 -0.2112  0.1120
  764MOL0     C  761   5.633  11.294   1.893 -0.4326 -0.0655 -0.3601
  764MOL0     C  762   5.773  11.295   1.897 -0.2392  0.7807  0.0822
  764MOL0     O  763   6.036  11.623   1.841 -0.1748 -0.4452 -0.4939
  764MOL0     C  764   6.264  11.374   1.966  0.2463  0.1589  0.2349
  764MOL0     C  765   6.399  11.348   1.982  0.7557  0.2422 -0.1613
  764MOL0     N  766   7.114  11.191   2.109  0.1335 -0.0837  0.1757
  764MOL0     N  767   7.238  11.207   2.090  0.6195  0.1178  0.6782
  764MOL0     C  768   8.436  11.136   2.026 -0.1490 -0.5255 -0.5038
  764MOL0     C  769   8.537  11.099   2.124  0.1026  0.0640 -0.7063
  764MOL0     C  770   8.819  10.873   2.379  0.8901  0.2696  0.0609
  764MOL0     C  771   8.812  10.938   2.500  0.1918  0.2280 -1.1222
  764MOL0     C  772   8.934  10.959   2.571 -0.0744  0.1804 -0.7908
  764MOL0     C  773   9.058  10.914   2.528 -0.1425 -0.3723  0.8015
  764MOL0     O  774   9.177  10.926   2.599  0.0752 -0.6124 -0.5014
  764MOL0     C  775   9.229  10.810   2.671  0.8912 -0.3116 -1.1959
  764MOL0     C  776   9.373  10.811   2.664  0.7788 -0.0361  0.6905
  764MOL0     C  777   9.450  10.934   2.707  0.3050 -0.2178  0.2841
  764MOL0     C  778   9.594  10.926   2.671 -0.4175  0.3873  0.0743
  764MOL0     C  779   9.670  11.036   2.727  0.4676  0.0007 -1.1079
  764MOL0     C  780   9.733  11.135   2.769  0.0670  0.3659 -1.0822
  764MOL0     C  781   9.061  10.837   2.411  0.3287  0.3953  0.7147
  764MOL0     C  782   8.946  10.826   2.335  0.5169  1.3559  0.3002
  764MOL0     H  783   8.409  10.797   2.222  1.9545  1.5336  3.1775
  764MOL0     H  784   8.237  10.870   2.038 -1.8965  1.3957 -1.9284
  764MOL0     H  785   8.176  11.232   1.793 -0.3215 -1.6253 -0.3761
  764MOL0     H  786   8.242  11.284   1.942  0.1703  0.3543 -1.8004
  764MOL0     H  787   8.055  11.208   2.082 -1.1598 -0.6018  0.7204
  764MOL0     H  788   7.954  11.169   1.942  0.2468  1.0431 -1.8004
  764MOL0     H  789   7.949  11.392   1.854  0.8831 -2.9605 -0.9350
  764MOL0     H  790   8.072  11.448   1.967  0.4278 -1.1913  4.1130
  764MOL0     H  791   7.917  11.406   2.150 -1.8430  3.1426  1.2617
  764MOL0     H  792   7.848  11.513   2.026 -0.2178 -0.5398  1.0658
  764MOL0     H  793   7.739  11.259   2.120 -2.9199 -1.3075 -1.4625
  764MOL0     H  794   7.743  11.265   1.940  0.4947  1.9184 -1.7888
  764MOL0     H  795   7.596  11.423   1.923  3.9024 -0.2024 -1.9021
  764MOL0     H  796   7.623  11.480   2.086 -2.5629  1.4434 -2.5450
  764MOL0     H  797   7.472  11.249   1.995 -0.7185 -2.5115  1.1562
  764MOL0     H  798   7.532  11.242   2.166 -1.0560  0.6159  0.8066
  764MOL0     H  799   7.373  11.461   2.028 -3.2123 -2.9997 -1.6931
  764MOL0     H  800   7.412  11.470   2.198  0.2497 -0.6270 -0.3601
  764MOL0     H  801   7.163  11.468   2.270  0.4720 -0.2981 -0.2996
  764MOL0     H  802   6.927  11.311   2.354 -2.0645 -0.3426  1.0405
  764MOL0     H  803   6.866  11.208   2.231 -0.4148  1.3916 -0.4637
  764MOL0     H  804   6.860  11.518   2.229 -4.4737 -0.4238  1.7869
  764MOL0     H  805   6.736  11.403   2.235  0.1502 -0.7802  0.9511
  764MOL0     H  806   6.940  11.483   1.996 -0.0315  0.5813  0.1621
  764MOL0     H  807   6.850  11.328   2.011 -0.1807 -0.5887  0.6520
  764MOL0     H  808   6.745  11.532   1.872 -1.1362 -0.9065 -0.5337
  764MOL0     H  809   6.713  11.582   2.041 -1.9271 -1.2961  0.2659
  764MOL0     H  810   6.523  11.661   1.934 -0.2283  0.5056 -0.7714
  764MOL0     H  811   6.291  11.689   1.859  1.9015  0.0570  1.5805
  764MOL0     H  812   5.810  11.632   1.909  1.8945 -0.4943 -0.3913
  764MOL0     H  813   5.570  11.623   1.903 -1.1260 -0.6524 -0.7668
  764MOL0     H  814   5.354  11.568   1.880  2.7199  0.6798  1.1655
  764MOL0     H  815   5.386  11.509   2.047  2.3023 -2.2799  0.1832
  764MOL0     H  816   5.133  11.520   2.007  0.0294  0.1371  0.8381
  764MOL0     H  817   5.203  11.363   2.036 -1.9124 -0.3191 -1.7211
  764MOL0     H  818   5.199  11.286   1.814 -2.3896 -2.5343  3.7792
  764MOL0     H  819   5.165  11.450   1.756 -0.1667 -1.9759 -0.0204
  764MOL0     H  820   4.996  11.289   1.959 -2.1617 -2.6810 -1.5557
  764MOL0     H  821   4.948  11.434   1.870  0.0163 -0.4713 -0.4532
  764MOL0     H  822   4.955  11.149   1.760  1.7635  0.7428 -1.3963
  764MOL0     H  823   4.947  11.295   1.660 -1.6777 -3.1839 -1.2457
  764MOL0     H  824   4.730  11.176   1.722  0.1489  0.4039  0.1678
  764MOL0     H  825   4.730  11.349   1.755 -0.6061  0.0729 -1.1207
  764MOL0     H  826   4.817  11.142   1.970  0.1979  0.5716  1.7846
  764MOL0     H  827   4.742  11.303   1.998 -0.9239  1.8462 -2.8285
  764MOL0     H  828   4.580  11.068   1.899 -3.8151 -1.3434  1.2274
  764MOL0     H  829   4.549  11.229   1.851 -0.8219 -0.5796  0.4927
  764MOL0     H  830   5.584  11.198   1.887 -2.1674  0.7430  0.2897
  764MOL0     H  831   5.818  11.196   1.902  0.6699  1.0045 -2.4013
  764MOL0     H  832   6.208  11.288   1.999  1.6965 -1.6751 -1.7952
  764MOL0     H  833   6.429  11.256   2.032 -0.3431 -1.8896 -3.1361
  764MOL0     H  834   8.455  11.224   1.965  4.0527  1.5158  3.1840
  764MOL0     H  835   8.622  11.158   2.158  0.0823 -1.3870  2.2359
  764MOL0     H  836   8.720  10.978   2.541  0.3895 -0.9913  0.6281
  764MOL0     H  837   8.947  11.018   2.661 -0.2107 -2.1245  0.8396
  764MOL0     H  838   9.188  10.714   2.637  1.9625 -0.9744 -0.6449
  764MOL0     H  839   9.211  10.811   2.779  1.7380 -4.6542 -0.8176
  764MOL0     H  840   9.407  10.718   2.710 -2.4557 -2.6887 -1.7414
  764MOL0     H  841   9.388  10.793   2.557  3.1258  0.4062  0.8944
  764MOL0     H  842   9.428  10.945   2.813 -3.1671 -0.7774 -0.2394
  764MOL0     H  843   9.407  11.024   2.663 -1.0154 -1.9855 -2.3785
  764MOL0     H  844   9.638  10.840   2.723  1.5192  0.6655 -1.0309
  764MOL0     H  845   9.606  10.917   2.563 -3.3639  0.1328 -0.3052
  764MOL0     H  846   9.797  11.216   2.799  1.9510 -0.5692 -2.4259
  764MOL0     H  847   9.151  10.786   2.378  1.0748  2.4418 -0.6525
  764MOL0     H  848   8.946  10.767   2.244 -1.1153  1.9863 -0.1419
  765MOL0     O  849   0.173  10.235   8.222 -0.3518 -0.3398  0.7167
  765MOL0     C  850   0.216  10.334   8.169  0.0205 -0.2148  0.3872
  765MOL0     O  851   0.149  10.460   8.173 -0.0358  0.2770 -0.0146
  765MOL0     C  852   0.031  10.487   8.244  0.0115 -0.1762  0.1287
  765MOL0     C  853  -0.016  10.621   8.240  0.4129  0.1191  0.7841
  765MOL0     C  854  -0.130  10.673   8.300  0.3163  0.2620 -0.3715
  765MOL0     C  855  -0.210  10.579   8.369  0.9280  0.0941 -0.0935
  765MOL0     O  856  -0.319  10.632   8.433  1.0982 -0.0689  0.1734
  765MOL0     C  857  -0.279  10.705   8.551  0.8666  0.6904  0.5755
  765MOL0     C  858  -0.349  10.842   8.569 -0.0097  0.0662 -0.1284
  765MOL0     C  859  -0.490  10.813   8.625 -0.1084  0.5729 -0.0118
  765MOL0     C  860  -0.576  10.932   8.649  0.3149  0.4060 -1.3339
  765MOL0     C  861  -0.715  10.898   8.648 -0.1250 -0.2635 -0.8157
  765MOL0     C  862  -0.778  10.848   8.780 -0.5273  0.1343  0.6240
  765MOL0     C  863  -0.771  10.951   8.891 -0.2484  0.7231  0.6901
  765MOL0     C  864  -0.855  10.919   9.002  1.2141 -0.3750 -0.2015
  765MOL0     N  865  -0.812  10.980   9.124 -0.3692  0.9343  0.1022
  765MOL0     C  866  -0.742  10.908   9.216 -0.5236  0.5648  0.6403
  765MOL0     C  867  -0.734  10.986   9.330  1.3234 -0.3876  0.6523
  765MOL0     C  868  -0.671  10.960   9.467  0.9147 -0.0069  0.1966
  765MOL0     C  869  -0.557  11.057   9.497 -0.7333  0.1761  0.2273
  765MOL0     C  870  -0.427  11.024   9.423  0.0222  0.1630  0.6874
  765MOL0     C  871  -0.352  10.890   9.461 -0.6164 -0.6998 -0.1061
  765MOL0     O  872  -0.226  10.890   9.397 -0.5114 -1.1340  0.0044
  765MOL0     C  873  -0.113  10.951   9.451  0.2327  0.2865  0.5140
  765MOL0     C  874  -0.098  11.000   9.577  0.0606 -0.8872 -1.0794
  765MOL0     C  875   0.032  11.041   9.627  1.0335 -0.5866  0.3217
  765MOL0     C  876   0.139  11.041   9.544 -1.1648 -0.0665  0.8262
  765MOL0     C  877   0.274  11.081   9.584 -0.2363 -0.6548  0.3482
  765MOL0     O  878   0.353  11.108   9.473 -0.6771 -0.3816 -0.7291
  765MOL0     C  879   0.486  11.137   9.497 -0.1162 -0.4522 -0.3113
  765MOL0     C  880   0.530  11.263   9.535  0.4147 -0.2509  0.9364
  765MOL0     C  881   0.672  11.298   9.545  1.0590  0.9296 -0.8019
  765MOL0     C  882   0.769  11.201   9.517  0.6683 -0.2450  0.0631
  765MOL0     O  883   0.905  11.232   9.509  0.1234 -0.3778 -0.5763
  765MOL0     C  884   0.953  11.310   9.617  0.4363 -0.6331 -0.2039
  765MOL0     C  885   1.093  11.263   9.646  0.1681 -0.0502 -0.2483
  765MOL0     C  886   1.108  11.121   9.705  0.4524  0.6257 -0.0252
  765MOL0     C  887   1.223  11.119   9.807 -0.2332 -0.1255  0.5491
  765MOL0     C  888   1.232  10.978   9.864  0.2020 -0.6293  0.2556
  765MOL0     C  889   1.372  10.972   9.927  0.3637 -0.5037 -0.5004
  765MOL0     C  890   1.400  10.845  10.003 -0.0704  0.4947 -0.6842
  765MOL0     C  891   1.372  10.715   9.929 -0.1695 -0.1553 -0.0392
  765MOL0    Cl  892   1.487  10.711   9.790 -0.2931 -0.1588 -0.1120
  765MOL0     C  893   0.723  11.076   9.485  0.2980  0.1911  0.0778
  765MOL0     C  894   0.587  11.048   9.479  0.9760  0.6548  1.3973
  765MOL0     O  895   0.302  11.078   9.704 -0.2381  0.4616 -0.7317
  765MOL0     C  896   0.120  10.997   9.411  0.1559 -0.3674  0.2951
  765MOL0     C  897  -0.003  10.954   9.364 -0.3589 -0.0771  1.0767
  765MOL0     N  898  -0.829  11.093   9.304  0.1863 -0.7505  0.1134
  765MOL0     N  899  -0.866  11.090   9.179  0.2030 -0.5675 -0.0033
  765MOL0     C  900  -0.179  10.444   8.368 -0.1996 -0.0353 -0.2550
  765MOL0     C  901  -0.061  10.403   8.310  0.4146 -0.7543  0.5288
  765MOL0     C  902   0.353  10.328   8.118 -0.4366 -0.1637  1.3979
  765MOL0     C  903   0.421  10.205   8.103 -0.1290  0.5034  1.2397
  765MOL0     C  904   0.552  10.202   8.066  0.2174  0.1913  0.2278
  765MOL0     C  905   0.624  10.326   8.032  0.6644 -0.0937  0.0884
  765MOL0     O  906   0.757  10.337   7.993  0.4607  0.4494  0.6170
  765MOL0     C  907   0.837  10.218   8.004  0.3781  1.0389  0.5988
  765MOL0     C  908   0.983  10.225   7.957  0.6839  0.2755 -0.7615
  765MOL0     C  909   1.004  10.352   7.880  0.4465 -0.3135 -0.5175
  765MOL0     C  910   1.141  10.361   7.822 -0.2017  0.7069  0.1441
  765MOL0     C  911   1.182  10.267   7.714  0.3265 -0.1094 -0.5738
  765MOL0     C  912   1.198  10.179   7.638  0.0395  0.1817  0.9623
  765MOL0     C  913   0.553  10.452   8.047 -0.5019  0.7163  0.4169
  765MOL0     C  914   0.424  10.447   8.100  0.3099  0.1254  0.4409
  765MOL0     H  915   0.046  10.688   8.182 -0.3657  0.2368  0.0532
  765MOL0     H  916  -0.150  10.780   8.308  2.7267  0.6233  3.0918
  765MOL0     H  917  -0.172  10.724   8.539  0.6340  1.0769 -1.3515
  765MOL0     H  918  -0.294  10.634   8.632 -0.0770 -1.8582 -1.6805
  765MOL0     H  919  -0.349  10.900   8.476 -0.7009 -0.2776 -0.3505
  765MOL0     H  920  -0.285  10.892   8.642 -1.4923  1.1635  0.4696
  765MOL0     H  921  -0.478  10.759   8.719 -1.8066  1.7080  0.9351
  765MOL0     H  922  -0.530  10.747   8.547 -0.0139 -1.3837  1.5246
  765MOL0     H  923  -0.549  10.978   8.744 -0.8096  0.2001 -0.9030
  765MOL0     H  924  -0.560  11.013   8.577 -2.9148  3.4775  1.0776
  765MOL0     H  925  -0.738  10.823   8.573  0.9257 -1.9038  0.4352
  765MOL0     H  926  -0.770  10.989   8.621 -0.8955 -1.0289 -1.8919
  765MOL0     H  927  -0.722  10.761   8.814  0.7515  0.0144 -1.6203
  765MOL0     H  928  -0.881  10.822   8.753 -0.1602  0.4975 -1.2597
  765MOL0     H  929  -0.668  10.967   8.926 -0.3539  0.9547  0.9048
  765MOL0     H  930  -0.801  11.047   8.848  1.9644  2.2803  2.3406
  765MOL0     H  931  -0.865  10.814   9.032  2.8723  0.2818  3.0893
  765MOL0     H  932  -0.955  10.959   8.983  0.3744 -0.6664  3.0087
  765MOL0     H  933  -0.714  10.805   9.198 -3.1592  0.2256 -2.5047
  765MOL0     H  934  -0.644  10.855   9.477 -3.7580 -1.5629 -0.9554
  765MOL0     H  935  -0.745  10.978   9.546  0.1429 -5.3263  1.0585
  765MOL0     H  936  -0.539  11.056   9.605  0.6135 -2.4616  0.0342
  765MOL0     H  937  -0.587  11.160   9.474 -3.2624 -0.9384 -2.0992
  765MOL0     H  938  -0.458  11.020   9.319 -0.8229 -0.3269  0.9455
  765MOL0     H  939  -0.360  11.109   9.436 -0.0801  1.0322 -3.2773
  765MOL0     H  940  -0.406  10.800   9.430  0.8021 -0.6345 -3.1036
  765MOL0     H  941  -0.335  10.895   9.569 -0.2905 -2.0306 -0.0740
  765MOL0     H  942  -0.171  11.014   9.655  0.8198 -0.1879 -0.4761
  765MOL0     H  943   0.039  11.080   9.728 -0.0330 -2.4240  1.1377
  765MOL0     H  944   0.456  11.342   9.544  0.4969  0.0220 -0.5567
  765MOL0     H  945   0.713  11.397   9.559 -0.1228  1.7983 -2.9636
  765MOL0     H  946   0.891  11.305   9.707  0.3825  2.1674 -0.0118
  765MOL0     H  947   0.952  11.415   9.587  3.1772 -0.6451 -0.5462
  765MOL0     H  948   1.139  11.343   9.705 -2.3846  1.8334 -0.5926
  765MOL0     H  949   1.156  11.259   9.557 -0.5857 -1.7839 -0.7330
  765MOL0     H  950   1.114  11.046   9.626  1.8404 -0.3905  0.9929
  765MOL0     H  951   1.020  11.109   9.769  0.0917  1.1907 -0.4017
  765MOL0     H  952   1.316  11.140   9.753 -2.1414  1.2154 -2.4844
  765MOL0     H  953   1.209  11.191   9.887 -0.6218 -1.1024  1.3876
  765MOL0     H  954   1.210  10.908   9.783 -0.0399  0.9411 -1.0982
  765MOL0     H  955   1.148  10.971   9.933  0.6402 -3.2394  0.6133
  765MOL0     H  956   1.371  11.056   9.997 -2.5431  1.1491 -2.3388
  765MOL0     H  957   1.460  10.980   9.861  0.4311 -5.2967 -1.3707
  765MOL0     H  958   1.506  10.843  10.031  1.0634  1.6014 -4.4110
  765MOL0     H  959   1.332  10.850  10.090  0.3209  2.8174 -0.4503
  765MOL0     H  960   1.267  10.700   9.904 -0.8225 -4.3326  3.7822
  765MOL0     H  961   1.388  10.635  10.002 -0.4702 -1.0963 -0.9763
  765MOL0     H  962   0.794  10.997   9.463 -1.0734 -1.4592  1.2952
  765MOL0     H  963   0.561  10.946   9.452  2.3907  0.9497 -1.3577
  765MOL0     H  964   0.194  10.981   9.333 -0.0012  1.2898 -0.2173
  765MOL0     H  965  -0.004  10.917   9.262 -0.0212 -0.6568  1.2784
  765MOL0     H  966  -0.242  10.363   8.403  0.6061 -2.4661 -3.8578
  765MOL0     H  967  -0.053  10.295   8.304  1.7104 -0.6110 -4.6183
  765MOL0     H  968   0.364  10.114   8.118  0.8940 -0.6609 -1.2788
  765MOL0     H  969   0.594  10.102   8.068 -0.8263 -0.2587  0.9276
  765MOL0     H  970   0.800  10.141   7.936 -1.3739  3.3909 -1.2672
  765MOL0     H  971   0.829  10.188   8.109  1.2369  0.9914  0.6556
  765MOL0     H  972   1.040  10.248   8.048 -0.6891  0.9465 -0.0340
  765MOL0     H  973   1.012  10.130   7.912 -3.3942 -1.2214 -0.6608
  765MOL0     H  974   0.977  10.436   7.945  0.2919 -0.2972 -0.6011
  765MOL0     H  975   0.928  10.369   7.803  0.4271  1.4985 -0.1413
  765MOL0     H  976   1.172  10.465   7.808  1.4261  0.8045  3.5179
  765MOL0     H  977   1.202  10.340   7.910  0.6455 -2.1401 -1.0122
  765MOL0     H  978   1.211  10.108   7.558  1.5647  0.8801  0.5529
  765MOL0     H  979   0.596  10.548   8.020 -1.9002  2.5235  4.0316
  765MOL0     H  980   0.375  10.544   8.095 -0.2524 -0.0434  2.0497
  766MOL0     O  981   6.933   9.337  10.252  0.3630  0.3948 -0.1435
  766MOL0     C  982   6.933   9.415  10.159  0.4977 -0.0445 -0.4116
  766MOL0     O  983   6.822   9.491  10.121  0.1918  0.5442  0.0568
  766MOL0     C  984   6.707   9.489  10.191  0.0012 -0.5881 -0.4480
  766MOL0     C  985   6.662   9.611  10.227  0.1105 -0.2066  0.2726
  766MOL0     C  986   6.546   9.620  10.305 -0.3504 -0.0453 -0.9916
  766MOL0     C  987   6.467   9.509  10.345 -0.1490 -0.1992 -0.1846
  766MOL0     O  988   6.362   9.511  10.431 -0.0581 -0.1488  0.5439
  766MOL0     C  989   6.336   9.639  10.485  0.2763  0.0044 -0.3177
  766MOL0     C  990   6.230   9.619  10.593 -0.9411 -0.2735  0.7782
  766MOL0     C  991   6.088   9.591  10.526 -0.0687 -0.8661  0.4762
  766MOL0     C  992   5.971   9.611  10.628  0.3409 -0.4076 -0.6059
  766MOL0     C  993   5.835   9.581  10.574  0.6280 -0.2791 -0.5416
  766MOL0     C  994   5.725   9.622  10.663 -0.1463 -0.6523  0.2672
  766MOL0     C  995   5.590   9.542  10.658 -0.5055 -1.1546  0.0473
  766MOL0     C  996   5.522   9.541  10.524  0.3034  0.3813 -0.8695
  766MOL0     N  997   5.492   9.674  10.481  0.2279 -0.4495 -0.3429
  766MOL0     C  998   5.363   9.723  10.465  0.4205 -0.8855  0.3099
  766MOL0     C  999   5.387   9.840  10.393 -0.5270  0.9177 -0.0032
  766MOL0     C 1000   5.272   9.937  10.355 -0.3520 -0.1805  0.7452
  766MOL0     C 1001   5.136   9.921  10.437 -0.3186 -0.5988  0.4565
  766MOL0     C 1002   5.020   9.987  10.371  0.0879  0.3490  0.8207
  766MOL0     C 1003   4.896   9.956  10.456  0.7282 -1.4678  0.3042
  766MOL0     O 1004   4.872   9.823  10.446  0.4715 -0.0293 -0.1209
  766MOL0     C 1005   4.746   9.777  10.479  0.0050  0.2204 -0.2572
  766MOL0     C 1006   4.715   9.643  10.438  0.2733  0.2268  0.1439
  766MOL0     C 1007   4.588   9.595  10.461  0.2656  0.5365 -0.5077
  766MOL0     C 1008   4.491   9.673  10.534 -0.0217 -0.8862  0.1025
  766MOL0     C 1009   4.360   9.627  10.571 -1.2639 -0.2303  0.0283
  766MOL0     O 1010   4.326   9.499  10.516  0.2378 -0.7777  0.0795
  766MOL0     C 1011   4.190   9.467  10.529  0.5145  0.3780  0.1733
  766MOL0     C 1012   4.140   9.410  10.647  0.4490 -0.0388  0.5101
  766MOL0     C 1013   3.998   9.409  10.657 -0.5045 -0.0677 -0.4804
  766MOL0     C 1014   3.912   9.434  10.554  0.0467  0.7340  0.1494
  766MOL0     O 1015   3.775   9.404  10.562  0.0299 -0.0299 -0.9053
  766MOL0     C 1016   3.709   9.444  10.681 -0.4516  0.5191 -0.2720
  766MOL0     C 1017   3.570   9.381  10.677  0.8010  0.9784 -0.1932
  766MOL0     C 1018   3.490   9.407  10.809 -0.1722  0.7396  0.1681
  766MOL0     C 1019   3.365   9.317  10.807 -0.1335  0.2230  0.7312
  766MOL0     C 1020   3.308   9.290  10.945  0.0534 -0.4145 -0.0529
  766MOL0     C 1021   3.275   9.418  11.019  0.1945  1.3727  0.3491
  766MOL0     C 1022   3.197   9.392  11.148  0.1295 -0.1768 -0.5401
  766MOL0     C 1023   3.221   9.500  11.252 -0.2423  0.0915 -0.1080
  766MOL0    Cl 1024   3.110   9.478  11.371  0.0450 -0.3089  0.2824
  766MOL0     C 1025   3.967   9.467  10.434 -1.0061  0.3209 -0.6059
  766MOL0     C 1026   4.105   9.491  10.424 -0.6278 -0.5863 -0.7659
  766MOL0     O 1027   4.283   9.696  10.634 -0.5390 -0.5418 -0.8744
  766MOL0     C 1028   4.521   9.808  10.550  0.1601 -0.2899  0.7842
  766MOL0     C 1029   4.650   9.862  10.532 -0.5378  0.1788  0.9929
  766MOL0     N 1030   5.527   9.848  10.367  0.5573  0.1955  0.3474
  766MOL0     N 1031   5.580   9.751  10.417  0.4838  0.1863 -0.2609
  766MOL0     C 1032   6.513   9.386  10.301  0.4061 -0.8212 -0.5681
  766MOL0     C 1033   6.635   9.376  10.230  0.3685  0.2671 -0.1356
  766MOL0     C 1034   7.060   9.437  10.089  0.5162 -0.7773 -0.0220
  766MOL0     C 1035   7.091   9.561  10.026 -0.1373  0.1778  0.1054
  766MOL0     C 1036   7.222   9.578   9.970  0.6545  0.6621  0.4388
  766MOL0     C 1037   7.311   9.472   9.973  0.6920 -0.5671 -0.7062
  766MOL0     O 1038   7.433   9.494   9.927 -1.0261  0.3379  1.1983
  766MOL0     C 1039   7.509   9.594  10.006  0.8448  0.0706 -1.1254
  766MOL0     C 1040   7.548   9.553  10.146  0.2076 -0.3316 -0.8131
  766MOL0     C 1041   7.645   9.429  10.132 -0.0370 -0.4731  0.5139
  766MOL0     C 1042   7.626   9.332  10.241  0.1018 -0.0849  0.7749
  766MOL0     C 1043   7.735   9.244  10.264  0.3301  0.9381  0.2963
  766MOL0     C 1044   7.823   9.150  10.256 -0.1927  0.6645 -0.4063
  766MOL0     C 1045   7.272   9.345  10.015  0.6867  0.2042 -0.0937
  766MOL0     C 1046   7.144   9.328  10.082 -0.3423  0.1967 -0.6586
  766MOL0     H 1047   6.715   9.705  10.217  0.7056 -0.4783  0.8679
  766MOL0     H 1048   6.515   9.722  10.325  0.0767 -0.1912  0.4678
  766MOL0     H 1049   6.304   9.705  10.403  2.3233 -1.2213 -2.2084
  766MOL0     H 1050   6.419   9.688  10.537 -2.1684  2.1414  1.8820
  766MOL0     H 1051   6.230   9.709  10.656 -1.7280 -0.0810  0.5168
  766MOL0     H 1052   6.256   9.537  10.660  0.4803  0.8483  1.6587
  766MOL0     H 1053   6.079   9.498  10.468 -1.1579 -0.9978  0.8208
  766MOL0     H 1054   6.082   9.669  10.449 -0.4290 -1.0260  0.3385
  766MOL0     H 1055   6.001   9.572  10.726  0.9713 -0.7479 -0.9246
  766MOL0     H 1056   5.971   9.720  10.635  1.9570 -0.4504  1.4119
  766MOL0     H 1057   5.838   9.472  10.561  1.5878 -0.4478  0.8027
  766MOL0     H 1058   5.818   9.638  10.483  0.0373 -0.1997 -0.3907
  766MOL0     H 1059   5.716   9.728  10.641  1.4728 -0.5660 -0.0942
  766MOL0     H 1060   5.750   9.602  10.768  2.3374  2.1528  0.3360
  766MOL0     H 1061   5.585   9.440  10.698 -4.2720 -1.2454 -0.2781
  766MOL0     H 1062   5.518   9.605  10.712 -0.5165 -0.1868 -1.0711
  766MOL0     H 1063   5.425   9.490  10.522  0.2422  0.4956 -0.8454
  766MOL0     H 1064   5.583   9.485  10.452  1.0966 -1.0657  0.8648
  766MOL0     H 1065   5.269   9.677  10.491 -1.2809  2.7128  1.1717
  766MOL0     H 1066   5.263   9.931  10.247  2.5861  3.1985  0.1358
  766MOL0     H 1067   5.310  10.039  10.365  1.3726 -0.5079 -1.6917
  766MOL0     H 1068   5.149   9.971  10.533 -1.0618  2.3896 -0.8894
  766MOL0     H 1069   5.113   9.816  10.458 -0.8484 -0.3197  1.3304
  766MOL0     H 1070   5.023  10.092  10.341 -1.2104  0.1548 -0.0948
  766MOL0     H 1071   5.004   9.938  10.275 -1.3844  2.5366 -0.1413
  766MOL0     H 1072   4.828  10.025  10.405  2.0322  0.1259  0.6504
  766MOL0     H 1073   4.911   9.989  10.559  0.4526  0.0107 -0.1012
  766MOL0     H 1074   4.791   9.575  10.402  0.9951  0.9692  0.2265
  766MOL0     H 1075   4.564   9.491  10.443 -3.5986  1.3484 -0.9685
  766MOL0     H 1076   4.212   9.394  10.727  1.3383 -0.3642 -0.3280
  766MOL0     H 1077   3.967   9.362  10.750 -0.6120 -1.3679 -1.1534
  766MOL0     H 1078   3.698   9.553  10.681  1.0803  0.7233  1.0103
  766MOL0     H 1079   3.764   9.421  10.773  0.9149  2.9165 -0.3888
  766MOL0     H 1080   3.588   9.276  10.654 -3.0097  0.7626 -3.0280
  766MOL0     H 1081   3.514   9.423  10.594  1.6852  2.3609 -0.1360
  766MOL0     H 1082   3.468   9.514  10.805 -0.9318  0.7102  2.4601
  766MOL0     H 1083   3.558   9.387  10.892 -1.1516 -0.7522  0.6534
  766MOL0     H 1084   3.283   9.359  10.749  1.4095  0.6384 -1.2885
  766MOL0     H 1085   3.398   9.221  10.765 -0.8894  0.0404  0.5437
  766MOL0     H 1086   3.376   9.231  11.007 -2.1808 -1.3240  1.6836
  766MOL0     H 1087   3.222   9.223  10.934  2.0035 -2.7925 -1.6545
  766MOL0     H 1088   3.213   9.483  10.956 -2.3785  0.4234  1.7159
  766MOL0     H 1089   3.366   9.469  11.049  1.7606 -0.8131 -0.3835
  766MOL0     H 1090   3.092   9.398  11.120  0.1624  0.5544 -0.5182
  766MOL0     H 1091   3.208   9.291  11.188 -0.0047 -0.4466 -1.1683
  766MOL0     H 1092   3.191   9.595  11.207 -1.4275 -0.1710  0.0901
  766MOL0     H 1093   3.323   9.492  11.291  0.1182  1.0317 -0.8187
  766MOL0     H 1094   3.900   9.472  10.349 -1.6262  1.5137 -0.0717
  766MOL0     H 1095   4.131   9.534  10.328 -0.5875 -1.2461 -1.0574
  766MOL0     H 1096   4.440   9.870  10.588 -0.6537  1.0832 -2.7833
  766MOL0     H 1097   4.682   9.961  10.561  1.1517 -0.2869  0.8047
  766MOL0     H 1098   6.462   9.296  10.333 -1.9351  1.0705  1.4108
  766MOL0     H 1099   6.677   9.282  10.198  0.0835  0.1790 -0.2546
  766MOL0     H 1100   7.021   9.642  10.010  0.0315 -0.2343 -3.3695
  766MOL0     H 1101   7.252   9.670   9.922  1.0279  0.6262  0.5998
  766MOL0     H 1102   7.453   9.688  10.009  2.4262  1.0764 -1.5909
  766MOL0     H 1103   7.596   9.625   9.947  1.6382 -0.5230 -0.2809
  766MOL0     H 1104   7.594   9.641  10.193 -2.4826  0.8830 -0.2658
  766MOL0     H 1105   7.470   9.515  10.212  2.8608 -2.1725  1.4789
  766MOL0     H 1106   7.744   9.474  10.143  0.2720 -0.8329 -0.6729
  766MOL0     H 1107   7.622   9.368  10.044  0.3815 -1.5606  1.1298
  766MOL0     H 1108   7.614   9.385  10.336  0.9791 -0.7825  1.2806
  766MOL0     H 1109   7.535   9.273  10.224  0.7589 -0.8917 -0.0606
  766MOL0     H 1110   7.913   9.093  10.242  0.0217  0.9628 -0.2527
  766MOL0     H 1111   7.351   9.270  10.018 -1.4099 -2.0850  2.3520
  766MOL0     H 1112   7.125   9.232  10.127 -0.7736 -0.2067 -1.6775
  767MOL0     O 1113   5.433   6.181   9.949  0.4551 -0.1305  0.2827
  767MOL0     C 1114   5.477   6.131  10.053  0.0922 -0.3903  0.0712
  767MOL0     O 1115   5.397   6.090  10.157 -0.2265  0.8697 -0.1571
  767MOL0     C 1116   5.263   6.098  10.128 -0.0384  0.8111  0.0242
  767MOL0     C 1117   5.182   6.213  10.160 -0.3872  0.6177 -0.0919
  767MOL0     C 1118   5.045   6.223  10.127  0.5040  0.1488  0.0154
  767MOL0     C 1119   4.985   6.112  10.060 -0.1267 -0.0245  0.1258
  767MOL0     O 1120   4.852   6.109  10.019 -0.1607 -0.3223 -0.3900
  767MOL0     C 1121   4.810   6.239   9.974  0.4569 -0.5857 -0.5736
  767MOL0     C 1122   4.657   6.240   9.929  0.2157 -0.3703 -0.4407
  767MOL0     C 1123   4.621   6.133   9.822 -0.9743 -0.6269 -0.1458
  767MOL0     C 1124   4.459   6.128   9.818 -0.1659 -0.8325  0.1933
  767MOL0     C 1125   4.403   6.041   9.696 -0.0940 -0.3376 -0.4941
  767MOL0     C 1126   4.430   5.890   9.708  0.2501  0.8769  0.7094
  767MOL0     C 1127   4.382   5.823   9.568 -0.6363 -0.8354 -0.8238
  767MOL0     C 1128   4.433   5.688   9.547  0.0014 -0.1987 -0.4914
  767MOL0     N 1129   4.384   5.603   9.654  0.3883  0.6992 -0.1143
  767MOL0     C 1130   4.249   5.581   9.668  0.4389  0.0774 -0.0882
  767MOL0     C 1131   4.244   5.527   9.795 -0.0854  0.0487  1.0091
  767MOL0     C 1132   4.109   5.487   9.849 -0.3090 -0.8027  0.0156
  767MOL0     C 1133   4.009   5.604   9.840  1.0586 -1.0784  0.1115
  767MOL0     C 1134   3.866   5.545   9.841 -0.2203 -0.3814  0.6630
  767MOL0     C 1135   3.831   5.475   9.707  0.5358 -0.0274  0.4708
  767MOL0     O 1136   3.840   5.580   9.603  0.2782 -0.5029 -0.0067
  767MOL0     C 1137   3.801   5.528   9.482  0.4536  0.1091  0.9685
  767MOL0     C 1138   3.670   5.553   9.445  0.2298 -0.4057 -0.2645
  767MOL0     C 1139   3.616   5.492   9.320 -0.2816  0.8447 -0.4873
  767MOL0     C 1140   3.698   5.418   9.239  0.6870  0.4071  0.9417
  767MOL0     C 1141   3.653   5.371   9.108 -0.2154  0.8419  0.9473
  767MOL0     O 1142   3.520   5.380   9.081  0.1223 -0.1388 -0.0601
  767MOL0     C 1143   3.474   5.349   8.960 -0.0535 -0.0747 -0.8086
  767MOL0     C 1144   3.501   5.437   8.862  0.4048 -0.1178 -0.8464
  767MOL0     C 1145   3.428   5.416   8.736 -0.4495 -0.5609 -0.1958
  767MOL0     C 1146   3.344   5.302   8.719  0.4784 -0.2732 -0.1016
  767MOL0     O 1147   3.289   5.274   8.602  0.0259  1.0440  1.2958
  767MOL0     C 1148   3.348   5.343   8.486  0.1897  0.6708 -0.3558
  767MOL0     C 1149   3.280   5.286   8.364 -0.3342  0.4025  0.4191
  767MOL0     C 1150   3.368   5.305   8.244 -0.2894  0.0762 -0.0799
  767MOL0     C 1151   3.314   5.231   8.124  0.0636  0.1096 -0.2542
  767MOL0     C 1152   3.344   5.306   7.992 -0.2719  0.1962  0.2234
  767MOL0     C 1153   3.487   5.365   7.979  0.0482  0.3191  0.0822
  767MOL0     C 1154   3.592   5.259   7.992 -0.1587 -0.0239  0.1710
  767MOL0     C 1155   3.739   5.321   8.001  1.1926 -0.4871  0.5797
  767MOL0    Cl 1156   3.756   5.394   8.153  0.0288  0.0099  0.1229
  767MOL0     C 1157   3.335   5.205   8.822  0.3780 -0.5995  0.6399
  767MOL0     C 1158   3.402   5.231   8.942 -0.6349  0.2180  1.3458
  767MOL0     O 1159   3.741   5.344   9.024  0.3348  0.1492 -0.4660
  767MOL0     C 1160   3.830   5.400   9.287 -0.1874 -0.5350  0.4415
  767MOL0     C 1161   3.883   5.453   9.402 -0.1594 -0.1352 -0.2125
  767MOL0     N 1162   4.366   5.515   9.851 -0.1204 -0.6844  0.3934
  767MOL0     N 1163   4.447   5.575   9.776 -0.4583  0.6401  0.2946
  767MOL0     C 1164   5.061   6.005  10.025  0.4378  1.2277  0.2565
  767MOL0     C 1165   5.192   5.993  10.060  0.1044 -0.6557  0.0073
  767MOL0     C 1166   5.627   6.127  10.079 -0.1055  0.4964 -0.0490
  767MOL0     C 1167   5.717   6.169   9.986  0.3674  0.5281  0.8630
  767MOL0     C 1168   5.856   6.162  10.001 -0.0203 -0.2697  0.2003
  767MOL0     C 1169   5.915   6.115  10.122 -1.1854  0.0744 -0.5984
  767MOL0     O 1170   6.052   6.109  10.143  0.7902 -0.2271  0.2862
  767MOL0     C 1171   6.100   6.041  10.264 -0.6237  0.4226  0.6005
  767MOL0     C 1172   6.251   6.009  10.257  0.2797  0.0283  0.4397
  767MOL0     C 1173   6.334   6.133  10.215 -0.7610  0.0082 -0.0640
  767MOL0     C 1174   6.365   6.128  10.062  0.0699  0.5910 -0.7740
  767MOL0     C 1175   6.485   6.064  10.008 -0.2602  0.8002 -0.0673
  767MOL0     C 1176   6.598   6.016   9.995 -0.2984  0.9887  0.1845
  767MOL0     C 1177   5.825   6.082  10.222  0.0554 -0.3955  0.9530
  767MOL0     C 1178   5.687   6.083  10.201  0.0336  0.0454  0.2193
  767MOL0     H 1179   5.239   6.294  10.205  2.5793 -1.0459 -0.5465
  767MOL0     H 1180   4.996   6.310  10.171  0.3745  0.0036  0.1576
  767MOL0     H 1181   4.872   6.269   9.889  2.5526 -1.1769  0.6833
  767MOL0     H 1182   4.815   6.312  10.055 -1.2966  2.3333 -2.8602
  767MOL0     H 1183   4.635   6.338   9.885  1.3328  0.2957  0.4259
  767MOL0     H 1184   4.588   6.242  10.013  0.3180  0.3538 -0.3644
  767MOL0     H 1185   4.642   6.029   9.845 -0.6562 -0.5924 -0.2847
  767MOL0     H 1186   4.651   6.170   9.723 -2.6221 -1.4366 -0.9999
  767MOL0     H 1187   4.429   6.074   9.908 -3.6057  0.7481  0.1369
  767MOL0     H 1188   4.421   6.231   9.813 -1.2362 -1.1965  0.4973
  767MOL0     H 1189   4.450   6.071   9.602  0.8539 -1.8119 -0.5353
  767MOL0     H 1190   4.296   6.055   9.682 -0.3120 -2.4842 -1.4288
  767MOL0     H 1191   4.385   5.836   9.792  1.2486 -2.3705 -0.6523
  767MOL0     H 1192   4.537   5.872   9.723  1.6133  3.5629 -3.8982
  767MOL0     H 1193   4.274   5.835   9.558 -1.3126 -2.4849  2.8510
  767MOL0     H 1194   4.421   5.891   9.492  3.5660  2.6300  3.7662
  767MOL0     H 1195   4.542   5.696   9.560 -0.4198  2.7144  2.3721
  767MOL0     H 1196   4.394   5.649   9.453  0.1596  0.7274 -0.9487
  767MOL0     H 1197   4.169   5.614   9.603 -1.7210 -0.0634  2.3554
  767MOL0     H 1198   4.112   5.462   9.956 -0.0170 -3.3104 -0.5170
  767MOL0     H 1199   4.077   5.394   9.802 -0.5357 -0.8556  0.2668
  767MOL0     H 1200   4.027   5.672   9.756  3.1496 -0.5757  0.9106
  767MOL0     H 1201   4.031   5.673   9.922 -0.1392 -1.1313  0.4921
  767MOL0     H 1202   3.843   5.472   9.919  1.0974  0.0086  1.4632
  767MOL0     H 1203   3.808   5.637   9.857  1.1483  0.5750  0.3340
  767MOL0     H 1204   3.729   5.435   9.710  0.6338 -0.3302 -0.0715
  767MOL0     H 1205   3.901   5.393   9.688  1.8667  0.0423  4.2531
  767MOL0     H 1206   3.604   5.598   9.518  0.3387  1.5040 -1.2758
  767MOL0     H 1207   3.514   5.515   9.293 -0.9043  1.1915  1.9067
  767MOL0     H 1208   3.576   5.515   8.878  1.1580 -0.6126 -1.8116
  767MOL0     H 1209   3.443   5.496   8.664  0.8552 -1.0764 -0.5299
  767MOL0     H 1210   3.456   5.329   8.491  0.4687  2.3835 -1.0707
  767MOL0     H 1211   3.322   5.448   8.499 -4.0464 -0.3241  1.1161
  767MOL0     H 1212   3.181   5.330   8.352  1.1810  3.6991 -1.1028
  767MOL0     H 1213   3.286   5.179   8.388  0.6797  0.9987  3.2667
  767MOL0     H 1214   3.464   5.255   8.264  1.1955  1.6693 -2.7144
  767MOL0     H 1215   3.367   5.414   8.235  1.3567  0.0701 -0.7014
  767MOL0     H 1216   3.354   5.130   8.135  0.9458  0.6572  2.2014
  767MOL0     H 1217   3.206   5.219   8.136  0.1396  0.4426  0.9076
  767MOL0     H 1218   3.267   5.377   7.960 -1.1195 -1.0646 -0.6406
  767MOL0     H 1219   3.339   5.236   7.907  0.2298  0.1138  0.2550
  767MOL0     H 1220   3.502   5.434   8.063 -1.0783 -0.0319  0.5894
  767MOL0     H 1221   3.500   5.419   7.885  0.2053  0.5512  0.2338
  767MOL0     H 1222   3.572   5.200   8.082  0.5111 -1.7500 -0.7403
  767MOL0     H 1223   3.587   5.176   7.921 -0.1986  0.2276 -0.1217
  767MOL0     H 1224   3.748   5.395   7.921  0.4960 -0.0613  0.8871
  767MOL0     H 1225   3.814   5.241   7.994  1.1974 -0.4404  0.0536
  767MOL0     H 1226   3.271   5.119   8.804  0.9515 -0.4166 -2.7945
  767MOL0     H 1227   3.402   5.165   9.027  1.8665 -0.3279  1.0179
  767MOL0     H 1228   3.893   5.332   9.230  1.5723  2.0077 -0.8461
  767MOL0     H 1229   3.989   5.443   9.425 -0.5078 -0.9487  1.2159
  767MOL0     H 1230   5.018   5.916   9.979  2.2798  0.7491 -0.6208
  767MOL0     H 1231   5.234   5.895  10.044  0.6281 -0.4990  0.4049
  767MOL0     H 1232   5.673   6.193   9.890  0.9987  1.3796  0.7743
  767MOL0     H 1233   5.910   6.207   9.919  0.3672  0.1362  0.6671
  767MOL0     H 1234   6.043   5.948  10.276 -0.5405 -0.5745 -4.5171
  767MOL0     H 1235   6.093   6.107  10.351  0.5000  2.1944 -0.5967
  767MOL0     H 1236   6.286   5.960  10.347  1.3420 -0.4073 -0.1987
  767MOL0     H 1237   6.257   5.932  10.179 -1.3841  1.3066 -1.0537
  767MOL0     H 1238   6.430   6.128  10.266 -0.4617  0.2723 -0.5989
  767MOL0     H 1239   6.298   6.231  10.248  2.0784  0.9459  0.5302
  767MOL0     H 1240   6.280   6.080  10.012 -0.0007  0.9437 -1.0007
  767MOL0     H 1241   6.353   6.230  10.022 -0.3086  1.2772  0.9920
  767MOL0     H 1242   6.693   5.972   9.974 -1.2488  0.2460 -3.0974
  767MOL0     H 1243   5.863   6.059  10.322  1.3776  1.5693  0.9640
  767MOL0     H 1244   5.619   6.054  10.280 -2.6148  0.6942 -1.6952
  768MOL0     O 1245   5.546   1.246   5.037  0.8303 -0.1511  0.4046
  768MOL0     C 1246   5.626   1.218   4.952  0.6959 -0.2820  0.5467
  768MOL0     O 1247   5.606   1.160   4.835 -0.2902 -0.1642 -0.3750
  768MOL0     C 1248   5.498   1.089   4.795 -0.8245  0.2786 -0.3664
  768MOL0     C 1249   5.511   0.966   4.732  0.9451  1.1109 -0.0258
  768MOL0     C 1250   5.408   0.883   4.702 -0.8768  1.0660 -0.3675
  768MOL0     C 1251   5.278   0.929   4.726 -0.0013  0.7368  0.2846
  768MOL0     O 1252   5.178   0.850   4.684 -0.4871  0.2840  0.1789
  768MOL0     C 1253   5.046   0.870   4.727 -0.5459 -0.3802 -0.1299
  768MOL0     C 1254   4.971   0.746   4.703 -0.0460 -0.1532 -0.0912
  768MOL0     C 1255   4.832   0.766   4.765  0.0533 -0.4174 -0.0282
  768MOL0     C 1256   4.739   0.840   4.664  0.4045  0.2912  0.1058
  768MOL0     C 1257   4.583   0.856   4.690 -0.4526  0.1715  0.6062
  768MOL0     C 1258   4.517   0.721   4.685  0.6266  0.2642 -0.4167
  768MOL0     C 1259   4.371   0.719   4.725 -0.5037  0.4375 -0.8370
  768MOL0     C 1260   4.351   0.758   4.880  1.0231 -1.0805 -0.1689
  768MOL0     N 1261   4.229   0.698   4.932  0.2616  0.0551 -0.3449
  768MOL0     C 1262   4.102   0.738   4.891  0.3206 -0.0909  0.6851
  768MOL0     C 1263   4.019   0.638   4.915 -0.4306  0.3579  0.3748
  768MOL0     C 1264   3.871   0.628   4.862  1.2761  0.4621 -0.7452
  768MOL0     C 1265   3.749   0.599   4.955 -0.2029 -0.3610  0.3286
  768MOL0     C 1266   3.781   0.484   5.053  0.1840 -0.5344 -0.6223
  768MOL0     C 1267   3.656   0.446   5.137 -0.7695  0.8611  0.2366
  768MOL0     O 1268   3.641   0.543   5.242  0.1930  0.6558 -0.1710
  768MOL0     C 1269   3.512   0.558   5.287  0.4622  0.1871 -0.6576
  768MOL0     C 1270   3.514   0.637   5.398 -0.7551 -0.1317  0.5085
  768MOL0     C 1271   3.391   0.672   5.463  0.5764 -0.4543  0.2030
  768MOL0     C 1272   3.270   0.613   5.411 -0.1993 -0.3342 -0.0915
  768MOL0     C 1273   3.141   0.663   5.463  0.9312  0.4548  0.7112
  768MOL0     O 1274   3.035   0.577   5.462  0.5798 -0.6696  0.0890
  768MOL0     C 1275   2.909   0.620   5.506 -0.3706  0.3612 -0.3669
  768MOL0     C 1276   2.792   0.564   5.442  0.7719 -0.4474 -0.2394
  768MOL0     C 1277   2.672   0.614   5.483  0.2567  0.2379 -0.0332
  768MOL0     C 1278   2.655   0.705   5.596  0.5635  0.1245  0.2305
  768MOL0     O 1279   2.526   0.736   5.625  0.5135 -0.3900  0.9460
  768MOL0     C 1280   2.494   0.832   5.721  0.0436  0.4826  1.0503
  768MOL0     C 1281   2.346   0.852   5.714 -0.2577  0.3708 -0.3099
  768MOL0     C 1282   2.302   0.973   5.778 -0.4878  0.4793 -0.3626
  768MOL0     C 1283   2.156   0.977   5.812  0.1999  1.0158  0.0698
  768MOL0     C 1284   2.129   1.105   5.894 -0.1497 -0.2571  0.7554
  768MOL0     C 1285   2.195   1.098   6.032 -0.7857  0.2686  0.4175
  768MOL0     C 1286   2.145   1.199   6.128 -0.8101 -0.0508 -0.2174
  768MOL0     C 1287   2.182   1.180   6.279 -0.3716 -0.3302  0.7189
  768MOL0    Cl 1288   2.099   1.052   6.341 -0.1244  0.0274 -0.5827
  768MOL0     C 1289   2.767   0.754   5.666 -0.2477  0.1385  0.4746
  768MOL0     C 1290   2.895   0.711   5.611  0.6067  0.4576  0.0579
  768MOL0     O 1291   3.142   0.783   5.487  0.6574 -0.2545 -0.8361
  768MOL0     C 1292   3.273   0.527   5.304 -0.6298 -0.9778  0.2405
  768MOL0     C 1293   3.398   0.504   5.243 -0.4452  0.2914  0.4998
  768MOL0     N 1294   4.099   0.539   4.968 -0.4014  0.6023 -0.6900
  768MOL0     N 1295   4.223   0.568   4.975 -0.4022  0.0687  0.3794
  768MOL0     C 1296   5.257   1.056   4.788 -0.2659 -0.1638  0.4124
  768MOL0     C 1297   5.370   1.131   4.827 -0.8019 -0.3313 -0.5707
  768MOL0     C 1298   5.758   1.260   4.986 -0.1110  0.0133 -0.1809
  768MOL0     C 1299   5.788   1.356   5.084 -0.1233  0.1031  0.3187
  768MOL0     C 1300   5.926   1.382   5.120 -0.8275  0.0891  0.6751
  768MOL0     C 1301   6.035   1.333   5.040  1.2141  1.0487  0.1988
  768MOL0     O 1302   6.173   1.345   5.072  0.7303 -1.0681  0.2448
  768MOL0     C 1303   6.242   1.235   5.135  0.5907 -0.2257 -0.7543
  768MOL0     C 1304   6.388   1.275   5.169  0.5739  0.0679 -0.3660
  768MOL0     C 1305   6.483   1.276   5.050 -0.7933 -0.3530  0.4371
  768MOL0     C 1306   6.476   1.157   4.957 -0.1703  0.0814  0.7017
  768MOL0     C 1307   6.532   1.045   5.032  0.0362  0.2196  0.0244
  768MOL0     C 1308   6.577   0.948   5.086  0.2253  0.3330 -0.1801
  768MOL0     C 1309   5.998   1.249   4.939 -0.1628 -0.5115  0.7582
  768MOL0     C 1310   5.863   1.215   4.907  0.5385 -0.0404  0.5782
  768MOL0     H 1311   5.609   0.921   4.723  0.0557 -0.8448 -0.5431
  768MOL0     H 1312   5.431   0.788   4.654  1.3580  1.5777 -0.4316
  768MOL0     H 1313   4.999   0.941   4.659 -3.6945 -3.6778 -1.7524
  768MOL0     H 1314   5.036   0.903   4.831  2.3674  0.4694 -0.0308
  768MOL0     H 1315   5.027   0.663   4.747  0.1059  0.7301  1.4504
  768MOL0     H 1316   4.973   0.705   4.602 -0.8867 -1.6258  0.4560
  768MOL0     H 1317   4.833   0.833   4.851 -1.2125  0.6898 -0.8206
  768MOL0     H 1318   4.780   0.672   4.786 -1.3511  0.1683 -0.7323
  768MOL0     H 1319   4.779   0.936   4.628 -1.7123  1.2869  0.2411
  768MOL0     H 1320   4.750   0.780   4.574  0.2028  2.2486 -1.2797
  768MOL0     H 1321   4.528   0.922   4.623 -1.7649 -0.4645  1.0231
  768MOL0     H 1322   4.580   0.903   4.789 -0.1211  1.9616 -0.1954
  768MOL0     H 1323   4.573   0.643   4.738  0.5550  0.4685 -0.0366
  768MOL0     H 1324   4.511   0.684   4.582 -2.0391 -1.9449  0.4329
  768MOL0     H 1325   4.318   0.792   4.663 -0.2188  0.0935 -1.4965
  768MOL0     H 1326   4.353   0.615   4.698  0.6400  0.5404 -2.1113
  768MOL0     H 1327   4.333   0.865   4.895  0.4768 -1.4408  2.3578
  768MOL0     H 1328   4.431   0.721   4.945 -0.5324 -0.6750  2.1188
  768MOL0     H 1329   4.080   0.832   4.841  2.0219  1.0546  1.9557
  768MOL0     H 1330   3.871   0.556   4.780  0.3838  1.0593 -1.2888
  768MOL0     H 1331   3.836   0.718   4.809  0.4129 -0.3297 -1.5632
  768MOL0     H 1332   3.658   0.569   4.901 -1.0360 -0.9896  2.0068
  768MOL0     H 1333   3.734   0.692   5.010  0.1506  2.0772 -3.3419
  768MOL0     H 1334   3.819   0.394   5.004  0.6411  0.8267 -2.8927
  768MOL0     H 1335   3.856   0.519   5.124  0.6026 -1.7558 -0.4323
  768MOL0     H 1336   3.678   0.348   5.180 -4.0577 -0.0421  0.1237
  768MOL0     H 1337   3.575   0.434   5.064  0.1004 -2.0977 -0.3721
  768MOL0     H 1338   3.608   0.687   5.421  0.9745 -2.0961 -1.8224
  768MOL0     H 1339   3.385   0.757   5.530 -1.1355 -1.8219  1.9267
  768MOL0     H 1340   2.798   0.501   5.353  0.0936 -2.3041  0.9714
  768MOL0     H 1341   2.577   0.583   5.443  0.8288 -1.1805 -0.3651
  768MOL0     H 1342   2.543   0.922   5.682  1.2016 -0.2478  0.7470
  768MOL0     H 1343   2.525   0.796   5.820  0.7430  0.8194  0.9611
  768MOL0     H 1344   2.300   0.765   5.762 -3.2054  0.7025 -2.2533
  768MOL0     H 1345   2.304   0.854   5.613  0.7896 -0.0949 -0.7712
  768MOL0     H 1346   2.340   1.060   5.724 -0.3555  1.1162  0.7240
  768MOL0     H 1347   2.354   0.970   5.875 -0.7370  0.1132 -0.2354
  768MOL0     H 1348   2.103   0.980   5.717  1.6140 -0.7215 -0.8378
  768MOL0     H 1349   2.125   0.889   5.871 -2.1951  0.3388 -1.9963
  768MOL0     H 1350   2.020   1.107   5.902 -0.2891 -3.7206  1.1443
  768MOL0     H 1351   2.157   1.191   5.831 -0.5876  0.1445  1.1037
  768MOL0     H 1352   2.304   1.107   6.033 -0.5437 -2.0923  0.7972
  768MOL0     H 1353   2.182   0.997   6.072  1.0227 -1.1418 -2.2633
  768MOL0     H 1354   2.183   1.299   6.104 -3.8135  1.4901  0.8690
  768MOL0     H 1355   2.036   1.195   6.125 -0.7973  0.2948 -2.2059
  768MOL0     H 1356   2.157   1.273   6.331 -2.9837 -1.1362  1.0282
  768MOL0     H 1357   2.290   1.164   6.288  0.3420  1.8251 -2.2581
  768MOL0     H 1358   2.761   0.828   5.745  1.6181  2.3154 -1.2857
  768MOL0     H 1359   2.975   0.759   5.666 -0.1924  1.7864  0.1029
  768MOL0     H 1360   3.178   0.485   5.271 -1.4902 -0.1332  1.5218
  768MOL0     H 1361   3.399   0.426   5.168  0.0563  1.0024 -0.2484
  768MOL0     H 1362   5.159   1.088   4.821 -0.4635  0.0580 -0.3629
  768MOL0     H 1363   5.363   1.221   4.887  2.4873  0.1509 -0.7259
  768MOL0     H 1364   5.708   1.410   5.134 -1.5086 -2.0964  0.6040
  768MOL0     H 1365   5.945   1.450   5.202 -2.3857  1.0108  0.3087
  768MOL0     H 1366   6.231   1.139   5.085 -2.4903  0.6684 -2.0527
  768MOL0     H 1367   6.204   1.221   5.237  1.6452 -2.7366 -0.6186
  768MOL0     H 1368   6.395   1.375   5.211 -1.1546 -0.4760  1.3600
  768MOL0     H 1369   6.429   1.224   5.256 -0.1375  2.0525  1.2041
  768MOL0     H 1370   6.585   1.279   5.091 -1.7128 -1.1020  2.9046
  768MOL0     H 1371   6.464   1.366   4.990  0.0100 -2.6809 -3.7435
  768MOL0     H 1372   6.381   1.124   4.913  0.2471 -1.5042  0.9121
  768MOL0     H 1373   6.552   1.176   4.881 -1.1027  0.9146 -0.0642
  768MOL0     H 1374   6.612   0.863   5.142 -1.7668 -0.4128 -0.0092
  768MOL0     H 1375   6.080   1.217   4.876 -0.1747 -0.8792  0.9256
  768MOL0     H 1376   5.846   1.152   4.820  0.5813  2.2439 -1.1727
  769MOL0     O 1377   6.216   7.358   8.594  1.0784 -0.0832 -0.1254
  769MOL0     C 1378   6.227   7.295   8.491  0.4155  0.1537  0.2242
  769MOL0     O 1379   6.129   7.267   8.405 -0.6022  0.2229  0.5649
  769MOL0     C 1380   6.019   7.333   8.404  0.2859 -0.3628  0.2363
  769MOL0     C 1381   6.012   7.473   8.420 -0.2291 -0.8689 -0.2146
  769MOL0     C 1382   5.893   7.541   8.401 -0.2424 -0.4787 -0.3499
  769MOL0     C 1383   5.774   7.474   8.355 -1.1832 -0.0762 -0.2066
  769MOL0     O 1384   5.666   7.556   8.335  0.0055  0.8712  0.0913
  769MOL0     C 1385   5.537   7.495   8.305  0.5422 -0.0273 -0.9182
  769MOL0     C 1386   5.414   7.594   8.312 -1.0208  0.6487  0.3950
  769MOL0     C 1387   5.279   7.519   8.296 -0.3201 -0.6872  0.0337
  769MOL0     C 1388   5.164   7.587   8.381  0.2784  0.2733  0.1160
  769MOL0     C 1389   5.031   7.507   8.377  0.3284 -0.3325  0.4996
  769MOL0     C 1390   4.923   7.575   8.451 -0.3520  0.3755 -0.0349
  769MOL0     C 1391   4.796   7.493   8.421 -0.7203  0.5510  0.5353
  769MOL0     C 1392   4.674   7.559   8.468 -0.5525 -0.4433  0.4092
  769MOL0     N 1393   4.557   7.509   8.403 -0.1517  0.1681  0.3041
  769MOL0     C 1394   4.442   7.445   8.452  0.1442 -0.5151 -0.0710
  769MOL0     C 1395   4.352   7.445   8.355 -0.6534  0.4793 -0.1699
  769MOL0     C 1396   4.211   7.388   8.367 -0.4329 -0.1897 -0.7626
  769MOL0     C 1397   4.116   7.494   8.416  0.6339 -1.2826  0.0870
  769MOL0     C 1398   4.072   7.565   8.279  0.1629  0.3025 -0.5461
  769MOL0     C 1399   3.948   7.655   8.310 -0.9159  0.8534  0.8317
  769MOL0     O 1400   3.908   7.710   8.183 -0.1058  0.6900  0.6489
  769MOL0     C 1401   3.791   7.782   8.164  0.0741  0.0735 -0.5986
  769MOL0     C 1402   3.779   7.848   8.044 -0.5523  0.4906 -0.1735
  769MOL0     C 1403   3.656   7.906   8.008 -1.2923  0.0255 -0.3718
  769MOL0     C 1404   3.549   7.909   8.099  0.1541  0.1724 -0.3345
  769MOL0     C 1405   3.411   7.969   8.072 -0.4218 -0.2123  0.0959
  769MOL0     O 1406   3.399   8.016   7.947  0.2812  0.1839 -0.2494
  769MOL0     C 1407   3.274   8.062   7.909 -0.1321  0.5107  0.1472
  769MOL0     C 1408   3.238   8.037   7.768 -0.1398  0.9113 -0.6443
  769MOL0     C 1409   3.115   8.070   7.722  0.2916 -0.2609  0.4989
  769MOL0     C 1410   3.016   8.123   7.797  0.5163 -0.1220  0.3634
  769MOL0     O 1411   2.889   8.127   7.744 -0.8351 -0.4272  0.0189
  769MOL0     C 1412   2.775   8.156   7.825  0.4954 -0.5008 -0.8275
  769MOL0     C 1413   2.656   8.158   7.749 -0.3575  0.3220  0.6490
  769MOL0     C 1414   2.537   8.133   7.836  0.0749 -0.8828  0.6056
  769MOL0     C 1415   2.507   8.245   7.940  0.0148 -0.4434 -0.6966
  769MOL0     C 1416   2.363   8.254   7.987 -0.0751 -1.2276 -0.2678
  769MOL0     C 1417   2.327   8.127   8.068 -0.4786  0.6518  0.5607
  769MOL0     C 1418   2.196   8.121   8.149 -0.5097  0.4820  0.5860
  769MOL0     C 1419   2.074   8.160   8.069 -0.2224  0.1927  0.1941
  769MOL0    Cl 1420   1.938   8.203   8.174  0.2745 -0.0696  0.3104
  769MOL0     C 1421   3.053   8.150   7.934  0.2953  0.3246 -0.0551
  769MOL0     C 1422   3.179   8.127   7.988  1.2186  0.8683 -0.4524
  769MOL0     O 1423   3.321   7.961   8.151 -0.0844  0.0290 -0.5458
  769MOL0     C 1424   3.573   7.867   8.233 -0.3006  0.6037  0.9050
  769MOL0     C 1425   3.690   7.789   8.262 -0.1916 -0.0378  0.1620
  769MOL0     N 1426   4.405   7.512   8.250  0.1531  0.6047  0.3538
  769MOL0     N 1427   4.525   7.551   8.276 -0.4275 -0.4170  0.3774
  769MOL0     C 1428   5.777   7.342   8.333 -0.5971 -0.0484 -1.3379
  769MOL0     C 1429   5.901   7.275   8.353  0.0900  0.4466 -1.1554
  769MOL0     C 1430   6.355   7.220   8.478  0.4948  0.6143  0.6362
  769MOL0     C 1431   6.478   7.272   8.529  0.0337  0.0959 -0.0260
  769MOL0     C 1432   6.599   7.214   8.497  0.2745  0.0880 -0.5642
  769MOL0     C 1433   6.598   7.086   8.436 -0.1323 -0.5200  0.0843
  769MOL0     O 1434   6.712   7.005   8.406  0.7288 -0.6972 -0.0741
  769MOL0     C 1435   6.824   7.026   8.496  0.0630 -0.3817  0.1059
  769MOL0     C 1436   6.916   6.905   8.518  0.2699  0.4915 -0.6238
  769MOL0     C 1437   6.989   6.879   8.390 -0.5812 -0.2195  0.8129
  769MOL0     C 1438   7.067   6.747   8.392 -0.1544 -0.2534  0.6374
  769MOL0     C 1439   6.978   6.631   8.399  0.5972 -0.6607  0.8999
  769MOL0     C 1440   6.897   6.546   8.414  0.0285  0.6582 -0.3676
  769MOL0     C 1441   6.479   7.029   8.404  0.0866 -0.1801 -0.3662
  769MOL0     C 1442   6.352   7.095   8.418 -0.4629  0.2929 -0.6134
  769MOL0     H 1443   6.102   7.531   8.442 -1.3157  1.0987 -0.6588
  769MOL0     H 1444   5.892   7.648   8.420 -2.8292 -0.5021 -0.0015
  769MOL0     H 1445   5.513   7.407   8.364  0.0164 -0.7375 -2.1478
  769MOL0     H 1446   5.538   7.452   8.204  0.2863 -2.5478  0.0913
  769MOL0     H 1447   5.410   7.666   8.230 -2.8949 -1.1124 -1.1636
  769MOL0     H 1448   5.416   7.654   8.404  2.0436  2.1999 -0.5435
  769MOL0     H 1449   5.286   7.412   8.318 -1.6962 -0.5182  1.5047
  769MOL0     H 1450   5.249   7.523   8.190 -1.4555  1.0146  0.3744
  769MOL0     H 1451   5.200   7.583   8.484 -4.8955 -1.2938  2.1908
  769MOL0     H 1452   5.153   7.694   8.360 -0.2677  0.1904 -0.0311
  769MOL0     H 1453   5.038   7.400   8.400  0.6731  0.0618  2.4183
  769MOL0     H 1454   5.003   7.497   8.272  2.1903 -0.1891 -0.0587
  769MOL0     H 1455   4.916   7.675   8.407 -1.5083 -0.3886 -1.7004
  769MOL0     H 1456   4.949   7.577   8.557 -2.1384 -2.9664  0.6022
  769MOL0     H 1457   4.784   7.474   8.314 -1.8960 -0.4019  0.8175
  769MOL0     H 1458   4.817   7.397   8.469  1.9942  0.9846  0.4003
  769MOL0     H 1459   4.695   7.663   8.441 -0.5192 -1.4356 -4.0369
  769MOL0     H 1460   4.669   7.540   8.576  1.4250  0.2574  0.6644
  769MOL0     H 1461   4.426   7.415   8.555  1.3073 -1.2612 -0.0859
  769MOL0     H 1462   4.215   7.322   8.454  1.1027  1.8570  0.8503
  769MOL0     H 1463   4.172   7.332   8.282  0.4013  0.0256 -1.2960
  769MOL0     H 1464   4.157   7.565   8.489  2.4322 -1.3906 -0.7619
  769MOL0     H 1465   4.031   7.440   8.459  1.5342 -4.1141 -1.4497
  769MOL0     H 1466   4.161   7.623   8.255  1.6820 -0.3436  2.9336
  769MOL0     H 1467   4.044   7.495   8.199 -1.8456 -1.1422  1.3130
  769MOL0     H 1468   3.984   7.734   8.377 -0.3254  2.2924 -1.0750
  769MOL0     H 1469   3.871   7.587   8.346 -0.3564  0.1062  0.6350
  769MOL0     H 1470   3.861   7.837   7.974  1.0673 -0.9051  1.8100
  769MOL0     H 1471   3.651   7.946   7.907  0.0694 -1.8439 -1.2515
  769MOL0     H 1472   3.301   7.974   7.705  1.0596  1.2749  0.1478
  769MOL0     H 1473   3.101   8.033   7.621  0.6223  0.8815  0.0157
  769MOL0     H 1474   2.779   8.244   7.890 -0.8684 -1.3156  0.4060
  769MOL0     H 1475   2.769   8.079   7.902 -0.4393  0.7425  0.4117
  769MOL0     H 1476   2.657   8.088   7.666 -3.3064  2.2239 -1.1786
  769MOL0     H 1477   2.645   8.256   7.701  0.0748  0.2752  0.4551
  769MOL0     H 1478   2.553   8.040   7.890  1.9006  0.4190  2.4586
  769MOL0     H 1479   2.453   8.111   7.769  0.9421 -0.9930 -0.4692
  769MOL0     H 1480   2.576   8.238   8.025 -0.4685 -1.0999 -0.3498
  769MOL0     H 1481   2.523   8.346   7.902 -3.0471  0.5308  0.3074
  769MOL0     H 1482   2.289   8.265   7.908 -3.0880  0.9578  2.5698
  769MOL0     H 1483   2.358   8.343   8.051  0.8299 -1.9582  0.8650
  769MOL0     H 1484   2.406   8.103   8.139  0.7350  1.2444 -0.5655
  769MOL0     H 1485   2.332   8.037   8.006 -0.5288 -1.1255  2.9555
  769MOL0     H 1486   2.176   8.019   8.183 -1.1992 -0.6875 -2.8691
  769MOL0     H 1487   2.199   8.184   8.238 -1.6069  1.7182 -0.2125
  769MOL0     H 1488   2.040   8.068   8.021 -1.8977  1.4041 -1.0350
  769MOL0     H 1489   2.086   8.243   7.999 -1.5108 -0.9894 -1.4849
  769MOL0     H 1490   2.983   8.180   8.011 -0.9187 -1.5988 -0.3295
  769MOL0     H 1491   3.199   8.163   8.088  0.6371  0.1249 -0.0542
  769MOL0     H 1492   3.493   7.874   8.306 -0.1483  0.0219  1.1351
  769MOL0     H 1493   3.690   7.734   8.355 -1.5304 -5.3364 -2.5576
  769MOL0     H 1494   5.700   7.274   8.298  0.3833 -1.8425 -0.1795
  769MOL0     H 1495   5.906   7.167   8.346  0.6860  0.3212  0.5638
  769MOL0     H 1496   6.482   7.364   8.586 -0.7820 -0.1045  0.3640
  769MOL0     H 1497   6.696   7.259   8.516  0.6242 -0.9109  0.0907
  769MOL0     H 1498   6.767   7.031   8.590 -0.7945 -1.9468 -0.2850
  769MOL0     H 1499   6.879   7.118   8.476  1.9722 -1.7368 -1.2388
  769MOL0     H 1500   6.978   6.910   8.608 -1.5027 -0.4377  0.7170
  769MOL0     H 1501   6.847   6.825   8.546  2.4755 -1.3617 -0.1515
  769MOL0     H 1502   7.059   6.961   8.366 -0.0284 -1.3995 -2.0824
  769MOL0     H 1503   6.916   6.876   8.309  1.3395 -1.3691 -1.0059
  769MOL0     H 1504   7.134   6.745   8.305  0.6248  2.2153  1.0921
  769MOL0     H 1505   7.136   6.752   8.477  2.1455  1.6070 -1.2063
  769MOL0     H 1506   6.830   6.466   8.439  1.4350  0.1904  2.3384
  769MOL0     H 1507   6.477   6.929   8.362  0.6255  0.4481 -1.9651
  769MOL0     H 1508   6.257   7.057   8.382 -0.0442 -1.4433  0.0361
  770MOL0     O 1509   2.391  10.135   4.065  0.5151  0.0317  0.5477
  770MOL0     C 1510   2.436  10.219   4.148 -0.5528  0.1010 -0.0242
  770MOL0     O 1511   2.379  10.298   4.226  0.4286  0.3851  0.3913
  770MOL0     C 1512   2.242  10.272   4.264  0.1296 -0.5183  0.0164
  770MOL0     C 1513   2.176  10.384   4.301  0.4281  0.4601  0.2318
  770MOL0     C 1514   2.045  10.373   4.350 -0.7274  0.7828  0.5879
  770MOL0     C 1515   1.983  10.256   4.369  0.1239  0.4423 -0.1121
  770MOL0     O 1516   1.852  10.244   4.414  0.4177 -0.0673  0.5735
  770MOL0     C 1517   1.761  10.265   4.300 -0.8251  0.4387 -1.1968
  770MOL0     C 1518   1.664  10.372   4.337  0.1735  0.1733 -0.7402
  770MOL0     C 1519   1.560  10.324   4.440 -0.0849 -0.2656 -0.7949
  770MOL0     C 1520   1.463  10.224   4.385 -0.0309  0.3006  0.3849
  770MOL0     C 1521   1.341  10.209   4.474  0.6275  0.6964 -0.4576
  770MOL0     C 1522   1.220  10.157   4.397  0.3184  0.9497 -0.4401
  770MOL0     C 1523   1.117  10.100   4.500 -0.2317  0.1084 -0.9510
  770MOL0     C 1524   1.022  10.011   4.424 -0.4770  0.2028 -0.6686
  770MOL0     N 1525   0.940   9.920   4.510  0.1737 -0.1806 -0.3067
  770MOL0     C 1526   0.883   9.963   4.630  0.0424 -1.0636  1.3225
  770MOL0     C 1527   0.805   9.860   4.669 -0.2069  0.6074 -0.4877
  770MOL0     C 1528   0.723   9.847   4.781  0.2787  0.5220 -0.0109
  770MOL0     C 1529   0.580   9.866   4.738  0.2807  0.2845  0.0497
  770MOL0     C 1530   0.481   9.831   4.859 -1.1743 -0.0307  0.4753
  770MOL0     C 1531   0.336   9.831   4.816  0.2451 -0.0487  0.2592
  770MOL0     O 1532   0.305   9.952   4.756 -0.5491  0.3073  0.8210
  770MOL0     C 1533   0.170   9.988   4.734  0.5539 -0.0631 -0.5533
  770MOL0     C 1534   0.065   9.895   4.758 -0.3951 -0.9337 -0.5847
  770MOL0     C 1535  -0.067   9.938   4.761  0.0308  0.3136 -0.2584
  770MOL0     C 1536  -0.090  10.073   4.715 -0.4571 -0.1117  0.2800
  770MOL0     C 1537  -0.227  10.123   4.708  0.1663 -0.6431 -0.2976
  770MOL0     O 1538  -0.244  10.251   4.672  0.1725 -0.1398  0.8386
  770MOL0     C 1539  -0.366  10.318   4.678 -0.1903 -0.2678  0.1190
  770MOL0     C 1540  -0.386  10.407   4.580 -0.3076  0.5779  0.3574
  770MOL0     C 1541  -0.501  10.472   4.569  0.7084 -0.6175 -0.4248
  770MOL0     C 1542  -0.602  10.464   4.655 -0.1028 -0.0433 -1.0607
  770MOL0     O 1543  -0.715  10.535   4.618  0.0699 -0.5013 -0.6968
  770MOL0     C 1544  -0.816  10.560   4.722  0.5416 -0.7778 -0.5642
  770MOL0     C 1545  -0.936  10.631   4.672  0.1529 -0.2337 -0.0134
  770MOL0     C 1546  -1.061  10.543   4.691  1.0622 -0.4689 -0.3966
  770MOL0     C 1547  -1.190  10.629   4.665 -0.5017  0.4811  0.3165
  770MOL0     C 1548  -1.324  10.547   4.668 -0.4129  0.6373  0.5371
  770MOL0     C 1549  -1.434  10.627   4.600 -0.2402 -0.8315 -0.7921
  770MOL0     C 1550  -1.558  10.584   4.673 -0.1311 -0.1142 -1.0889
  770MOL0     C 1551  -1.662  10.520   4.582 -0.4144 -0.3962  0.6807
  770MOL0    Cl 1552  -1.819  10.473   4.658  0.3039 -0.3116  0.1888
  770MOL0     C 1553  -0.584  10.380   4.774 -0.5495 -0.2967  0.2350
  770MOL0     C 1554  -0.463  10.313   4.784 -0.3614  0.0982 -0.4858
  770MOL0     O 1555  -0.312  10.046   4.747 -0.0247 -0.1280  0.4988
  770MOL0     C 1556   0.016  10.164   4.694  0.1908  0.5632  0.9935
  770MOL0     C 1557   0.143  10.121   4.713  0.8813 -0.5184  0.3165
  770MOL0     N 1558   0.807   9.767   4.567 -0.6152  0.3051  0.1375
  770MOL0     N 1559   0.892   9.803   4.471  0.5588  0.6273 -0.2348
  770MOL0     C 1560   2.052  10.137   4.334 -0.3685  0.0018  0.7498
  770MOL0     C 1561   2.179  10.149   4.280 -0.0817  0.8247  0.2342
  770MOL0     C 1562   2.581  10.236   4.143  0.1307  0.7122 -0.2463
  770MOL0     C 1563   2.644  10.360   4.145 -0.3127 -0.1323  0.4556
  770MOL0     C 1564   2.785  10.361   4.116 -0.3385  0.1649 -0.0191
  770MOL0     C 1565   2.863  10.245   4.103  0.5073  0.4595 -0.1816
  770MOL0     O 1566   2.998  10.261   4.081 -0.1749 -0.4161  0.5667
  770MOL0     C 1567   3.091  10.161   4.132  0.9591  0.2562 -0.3489
  770MOL0     C 1568   3.237  10.158   4.077  0.1328 -0.4068  0.5720
  770MOL0     C 1569   3.325  10.044   4.132  0.1842 -0.3610 -0.5063
  770MOL0     C 1570   3.455  10.043   4.054  0.4204 -0.2847  0.1324
  770MOL0     C 1571   3.563  10.118   4.102 -1.0427  0.5986  0.3424
  770MOL0     C 1572   3.654  10.185   4.133 -0.0567 -0.0058  0.4995
  770MOL0     C 1573   2.792  10.126   4.111  0.4186  1.9501  0.0687
  770MOL0     C 1574   2.653  10.120   4.130 -0.8584  0.4450  0.5514
  770MOL0     H 1575   2.226  10.479   4.288  2.2532 -0.6032 -1.1235
  770MOL0     H 1576   1.990  10.464   4.374 -2.6330 -0.5101  1.4581
  770MOL0     H 1577   1.724  10.170   4.261  0.1250 -1.2182  1.6138
  770MOL0     H 1578   1.818  10.298   4.213  1.4541  0.8225  0.3364
  770MOL0     H 1579   1.606  10.396   4.247  0.0340  0.5120 -0.5642
  770MOL0     H 1580   1.712  10.465   4.368  0.0823  0.3915 -1.2396
  770MOL0     H 1581   1.512  10.418   4.469 -0.4403  0.0071 -2.1735
  770MOL0     H 1582   1.621  10.295   4.526  0.4208  2.5452 -0.1174
  770MOL0     H 1583   1.435  10.250   4.282  0.1517  1.0824  0.5264
  770MOL0     H 1584   1.513  10.126   4.385  0.6939  0.6114 -1.9508
  770MOL0     H 1585   1.308  10.299   4.527  1.6601 -0.5006  2.3902
  770MOL0     H 1586   1.374  10.138   4.551  2.9579 -0.2099 -2.1630
  770MOL0     H 1587   1.251  10.081   4.325 -2.4047 -2.9455  2.1441
  770MOL0     H 1588   1.169  10.230   4.333 -1.5716  1.7325  1.8374
  770MOL0     H 1589   1.177  10.039   4.568 -0.2650  0.6714 -0.4116
  770MOL0     H 1590   1.064  10.178   4.555  0.8782 -1.7621  3.1043
  770MOL0     H 1591   1.070   9.951   4.346 -0.3635  1.7220 -1.8124
  770MOL0     H 1592   0.951  10.071   4.366 -0.0851  0.2753 -1.0775
  770MOL0     H 1593   0.904  10.060   4.674  2.5048 -0.5145 -0.8267
  770MOL0     H 1594   0.728   9.918   4.865 -3.0092 -0.7424  1.4512
  770MOL0     H 1595   0.738   9.750   4.829  0.0878  0.9471  0.9428
  770MOL0     H 1596   0.564   9.799   4.654 -0.5044  0.1062  0.3304
  770MOL0     H 1597   0.566   9.974   4.724  2.1545  0.5434 -0.1739
  770MOL0     H 1598   0.509   9.730   4.890  1.5613  0.7505  0.8507
  770MOL0     H 1599   0.499   9.913   4.929  0.4659  0.9936 -1.0335
  770MOL0     H 1600   0.275   9.811   4.904 -1.5823  2.7935 -0.2436
  770MOL0     H 1601   0.316   9.750   4.745 -1.7569 -0.8624  1.6759
  770MOL0     H 1602   0.082   9.789   4.778  0.3320 -1.4883 -3.6169
  770MOL0     H 1603  -0.143   9.866   4.792  1.2769  0.1564  2.6966
  770MOL0     H 1604  -0.309  10.428   4.506 -2.0624 -2.0395 -2.4171
  770MOL0     H 1605  -0.537  10.541   4.493  0.3570  1.5829  1.6053
  770MOL0     H 1606  -0.762  10.609   4.804 -0.2901  0.9839 -1.0198
  770MOL0     H 1607  -0.841  10.463   4.766 -0.7992  0.0353  0.5539
  770MOL0     H 1608  -0.917  10.645   4.565  0.8140  0.7577  0.2233
  770MOL0     H 1609  -0.947  10.723   4.730 -1.3897 -0.2011 -0.3233
  770MOL0     H 1610  -1.058  10.512   4.796 -1.6122  1.0357  0.2215
  770MOL0     H 1611  -1.050  10.451   4.633  1.3961 -0.2615 -0.6626
  770MOL0     H 1612  -1.203  10.708   4.739 -3.0990 -0.3300  0.8109
  770MOL0     H 1613  -1.173  10.677   4.568 -1.6547 -1.9770 -1.1953
  770MOL0     H 1614  -1.347  10.541   4.775 -1.2186  1.1181  0.3991
  770MOL0     H 1615  -1.314  10.449   4.622 -2.4744  1.6898 -2.3846
  770MOL0     H 1616  -1.444  10.621   4.491 -1.3231  0.1175 -0.7656
  770MOL0     H 1617  -1.416  10.732   4.628  2.1655 -0.7571 -2.3511
  770MOL0     H 1618  -1.541  10.516   4.757 -2.9655  0.7493  0.3091
  770MOL0     H 1619  -1.610  10.673   4.710 -1.1465  0.5821 -3.9014
  770MOL0     H 1620  -1.615  10.427   4.550 -0.2352  0.1292 -0.6364
  770MOL0     H 1621  -1.694  10.586   4.501 -1.2100 -0.5097  0.8948
  770MOL0     H 1622  -0.660  10.359   4.849  1.5666 -1.6061  2.1285
  770MOL0     H 1623  -0.437  10.243   4.862  0.9547  1.4280  0.3365
  770MOL0     H 1624  -0.002  10.268   4.669  3.2214  0.5481 -1.9143
  770MOL0     H 1625   0.231  10.183   4.708  1.9412 -2.0467 -1.9024
  770MOL0     H 1626   2.004  10.043   4.357  0.2756 -0.2843  0.9501
  770MOL0     H 1627   2.233  10.060   4.250 -0.8571  0.2755  0.4621
  770MOL0     H 1628   2.603  10.460   4.153  3.4409  1.5318  1.1361
  770MOL0     H 1629   2.831  10.459   4.103  2.7402 -1.3916 -2.0822
  770MOL0     H 1630   3.051  10.060   4.119 -2.7540  1.4851  0.2947
  770MOL0     H 1631   3.107  10.170   4.240 -1.0244 -0.0463  0.0131
  770MOL0     H 1632   3.233  10.141   3.969 -1.4685  1.1724  0.3414
  770MOL0     H 1633   3.293  10.252   4.087  0.6819 -0.8967  2.5272
  770MOL0     H 1634   3.273   9.948   4.128 -1.4976  0.5038 -0.5655
  770MOL0     H 1635   3.338  10.059   4.239  1.8469 -0.6057 -0.6510
  770MOL0     H 1636   3.485   9.938   4.051 -1.0419 -0.8686  2.7704
  770MOL0     H 1637   3.429  10.059   3.949 -3.7375 -0.0413  1.0153
  770MOL0     H 1638   3.743  10.240   4.158 -0.8199  0.8899  1.2975
  770MOL0     H 1639   2.849  10.036   4.090 -0.8864  1.4794 -1.7044
  770MOL0     H 1640   2.600  10.028   4.108 -1.9142  1.0075  0.6548
  771MOL0     O 1641   9.524   8.510   3.084 -0.9978  0.4249 -0.1064
  771MOL0     C 1642   9.552   8.421   3.008  0.2353  0.6596 -0.7316
  771MOL0     O 1643   9.665   8.344   3.024 -0.2358  0.8847  0.5999
  771MOL0     C 1644   9.774   8.356   3.110  0.2444 -0.6583  0.2001
  771MOL0     C 1645   9.886   8.269   3.085  0.2061  0.3226 -0.9542
  771MOL0     C 1646   9.995   8.259   3.168 -0.4500  0.0772 -0.1128
  771MOL0     C 1647  10.013   8.357   3.268 -0.2749 -0.0808 -0.9800
  771MOL0     O 1648  10.124   8.350   3.346  0.7396  0.2220 -0.3266
  771MOL0     C 1649  10.199   8.467   3.345 -0.5779  0.5661 -0.3319
  771MOL0     C 1650  10.342   8.429   3.400  0.2672 -0.7404 -0.3313
  771MOL0     C 1651  10.417   8.562   3.428 -0.1565 -0.1554 -0.5262
  771MOL0     C 1652  10.558   8.534   3.478 -0.3168 -0.5171 -0.8766
  771MOL0     C 1653  10.606   8.620   3.597  0.3547  0.4622 -0.7232
  771MOL0     C 1654  10.739   8.556   3.648  0.7733  0.6228 -0.6171
  771MOL0     C 1655  10.829   8.650   3.722 -0.0955  0.4172 -0.0140
  771MOL0     C 1656  10.913   8.752   3.631 -0.1842 -0.7963 -0.4413
  771MOL0     N 1657  10.994   8.684   3.530  0.0676  0.4027  0.3545
  771MOL0     C 1658  10.989   8.705   3.397 -0.3530  0.0731  0.6476
  771MOL0     C 1659  11.079   8.621   3.347 -0.3860  0.4627  0.6602
  771MOL0     C 1660  11.099   8.583   3.203  1.1660 -0.6745 -0.7149
  771MOL0     C 1661  10.979   8.518   3.147  0.4918 -0.8114  0.7693
  771MOL0     C 1662  10.907   8.429   3.244  0.4818  0.1329 -0.5335
  771MOL0     C 1663  10.798   8.345   3.173 -0.4782 -0.1927  0.4333
  771MOL0     O 1664  10.695   8.441   3.151  0.5970  0.5586  0.4525
  771MOL0     C 1665  10.576   8.399   3.100  0.0531 -0.8953 -0.7921
  771MOL0     C 1666  10.529   8.271   3.069  0.5063 -1.0689  0.5880
  771MOL0     C 1667  10.405   8.248   3.000 -0.9064 -0.1371 -0.0297
  771MOL0     C 1668  10.326   8.358   2.954  0.1746  0.0835 -0.0046
  771MOL0     C 1669  10.202   8.337   2.875  0.1051  0.1261  0.8504
  771MOL0     O 1670  10.108   8.432   2.884 -0.1926 -0.1582  0.4538
  771MOL0     C 1671  10.016   8.446   2.781  0.0683  0.3052 -0.9639
  771MOL0     C 1672  10.050   8.430   2.644 -0.1676  0.1593  0.5235
  771MOL0     C 1673   9.967   8.478   2.539  0.0907  0.4652  0.2268
  771MOL0     C 1674   9.850   8.538   2.575  0.3965 -0.3276 -0.5775
  771MOL0     O 1675   9.787   8.594   2.463 -0.2428 -0.0792  0.2505
  771MOL0     C 1676   9.645   8.623   2.468  0.6791 -0.4497 -0.0688
  771MOL0     C 1677   9.605   8.617   2.319  0.0634  0.5328 -0.3139
  771MOL0     C 1678   9.474   8.681   2.280  0.1148 -0.7041  0.4618
  771MOL0     C 1679   9.465   8.833   2.308 -0.7817 -0.7940 -0.3222
  771MOL0     C 1680   9.343   8.889   2.232  0.1970  0.0699 -0.6277
  771MOL0     C 1681   9.316   9.031   2.275 -0.0418  0.3004  0.4420
  771MOL0     C 1682   9.181   9.074   2.213 -0.4888  0.7457 -0.0527
  771MOL0     C 1683   9.194   9.097   2.058  0.3967 -0.4123 -0.3360
  771MOL0    Cl 1684   9.057   9.030   1.968 -0.6447 -0.4523  0.2648
  771MOL0     C 1685   9.819   8.558   2.703  1.1185 -0.1411 -0.0569
  771MOL0     C 1686   9.890   8.508   2.807  0.0536  0.1212 -0.1008
  771MOL0     O 1687  10.189   8.235   2.804 -0.0229  0.2383 -0.5696
  771MOL0     C 1688  10.383   8.485   2.980 -0.0425  0.6399  1.1473
  771MOL0     C 1689  10.495   8.500   3.057  0.5262 -0.0408 -1.1892
  771MOL0     N 1690  11.148   8.561   3.446 -1.1640 -0.2759 -0.3845
  771MOL0     N 1691  11.088   8.589   3.559  0.2660  0.1381  0.0804
  771MOL0     C 1692   9.904   8.445   3.299 -0.7100 -0.5494  0.3583
  771MOL0     C 1693   9.785   8.451   3.223 -0.5929  0.6723  1.1702
  771MOL0     C 1694   9.467   8.391   2.890 -0.4150 -0.1253  0.2030
  771MOL0     C 1695   9.489   8.275   2.810 -0.2828 -0.8169  0.5168
  771MOL0     C 1696   9.403   8.235   2.705  0.6334 -0.1242 -0.8481
  771MOL0     C 1697   9.285   8.309   2.684  0.2249 -0.3357  0.4363
  771MOL0     O 1698   9.201   8.250   2.593  0.7833  0.0103  0.1366
  771MOL0     C 1699   9.073   8.311   2.555  0.1843 -0.3164 -0.9933
  771MOL0     C 1700   9.006   8.206   2.463  0.0753 -0.3076  0.6331
  771MOL0     C 1701   8.970   8.073   2.534 -0.0120  0.2429  0.5163
  771MOL0     C 1702   9.064   7.956   2.492  0.0330  0.1394 -0.3981
  771MOL0     C 1703   9.074   7.940   2.345  1.1321 -0.3941 -0.3826
  771MOL0     C 1704   9.112   7.937   2.234 -0.2875 -0.1151  0.4669
  771MOL0     C 1705   9.265   8.419   2.762  0.1470 -0.2324  0.8830
  771MOL0     C 1706   9.350   8.461   2.857 -0.0399  0.6952 -0.6473
  771MOL0     H 1707   9.893   8.216   2.991  0.2361 -0.1312 -0.6955
  771MOL0     H 1708  10.079   8.192   3.156  1.2046  1.5336  2.3450
  771MOL0     H 1709  10.156   8.540   3.414 -0.8053  0.9596 -0.8766
  771MOL0     H 1710  10.201   8.507   3.243  1.3143  0.4236 -0.3862
  771MOL0     H 1711  10.397   8.366   3.330  0.4195 -1.3031  0.2867
  771MOL0     H 1712  10.333   8.380   3.497 -1.8602 -0.9682 -0.5965
  771MOL0     H 1713  10.366   8.615   3.509 -1.8889 -1.2813 -0.8079
  771MOL0     H 1714  10.423   8.626   3.339 -2.5240 -4.9000 -4.6453
  771MOL0     H 1715  10.567   8.430   3.514  4.0042  0.4174  1.5104
  771MOL0     H 1716  10.641   8.551   3.409  1.2078 -1.1958  0.7062
  771MOL0     H 1717  10.531   8.621   3.676 -1.1320  1.9927 -2.0582
  771MOL0     H 1718  10.618   8.720   3.554  2.5953 -0.5183 -2.6053
  771MOL0     H 1719  10.802   8.518   3.567 -0.1966 -3.3724  0.2946
  771MOL0     H 1720  10.716   8.472   3.714  1.1454  2.0990  1.5142
  771MOL0     H 1721  10.779   8.706   3.802  1.3419  0.8274  0.6183
  771MOL0     H 1722  10.907   8.585   3.762 -0.8578 -1.8352 -1.9259
  771MOL0     H 1723  10.984   8.807   3.693  1.1157 -1.7725 -1.0175
  771MOL0     H 1724  10.847   8.826   3.586  0.1608 -1.6463 -2.4775
  771MOL0     H 1725  10.915   8.762   3.341  0.5450 -1.7500 -2.6988
  771MOL0     H 1726  11.176   8.508   3.181  1.6093  0.3454 -2.8621
  771MOL0     H 1727  11.133   8.669   3.144  0.2661 -0.2300 -0.5950
  771MOL0     H 1728  10.999   8.462   3.055  0.0537  0.2224  0.0258
  771MOL0     H 1729  10.924   8.612   3.135  0.9371 -0.5945  0.4001
  771MOL0     H 1730  10.983   8.367   3.293  2.0113  1.7919 -0.6976
  771MOL0     H 1731  10.857   8.483   3.325  2.7912  1.3410  0.1837
  771MOL0     H 1732  10.771   8.266   3.243  0.5752 -0.0312  1.0426
  771MOL0     H 1733  10.846   8.306   3.083  1.1563  0.3945  1.0078
  771MOL0     H 1734  10.592   8.187   3.096  1.0635 -0.3619  1.5479
  771MOL0     H 1735  10.366   8.148   2.982 -3.6340  0.9326 -0.5411
  771MOL0     H 1736  10.143   8.388   2.607 -0.4597 -0.8393  0.9089
  771MOL0     H 1737  10.002   8.466   2.437  2.7776 -1.0949  1.2163
  771MOL0     H 1738   9.622   8.724   2.502 -2.8543 -0.3783 -2.1928
  771MOL0     H 1739   9.589   8.548   2.525 -1.8095  0.2770 -1.4052
  771MOL0     H 1740   9.604   8.512   2.287  0.0686  0.3669  0.2122
  771MOL0     H 1741   9.685   8.669   2.266 -0.5861 -0.9618 -2.9695
  771MOL0     H 1742   9.388   8.642   2.336  0.3374  0.8503  1.9861
  771MOL0     H 1743   9.468   8.665   2.172  1.5763 -1.3576  0.4629
  771MOL0     H 1744   9.442   8.854   2.413 -0.7078  0.4763 -0.5510
  771MOL0     H 1745   9.555   8.887   2.278 -0.0879 -1.4638  0.5014
  771MOL0     H 1746   9.255   8.826   2.241 -0.9978  1.5670 -1.2847
  771MOL0     H 1747   9.352   8.879   2.123 -1.4310 -3.4586 -0.5653
  771MOL0     H 1748   9.384   9.107   2.237 -0.7863  0.5239 -0.4897
  771MOL0     H 1749   9.321   9.038   2.384  1.6070  1.8224  0.3139
  771MOL0     H 1750   9.098   9.009   2.243  0.9268 -0.0462  2.4088
  771MOL0     H 1751   9.165   9.177   2.246  1.6830  1.1824 -0.1617
  771MOL0     H 1752   9.285   9.060   2.011  1.1902 -0.1155  0.8937
  771MOL0     H 1753   9.190   9.201   2.026 -0.9319  0.0462  1.1866
  771MOL0     H 1754   9.751   8.640   2.725  1.4327  0.8196 -2.3336
  771MOL0     H 1755   9.863   8.527   2.910 -0.9227 -0.0971 -0.3074
  771MOL0     H 1756  10.326   8.572   2.950 -1.8335  0.2618  3.2076
  771MOL0     H 1757  10.528   8.599   3.084  1.4464 -0.8720  0.9560
  771MOL0     H 1758   9.896   8.501   3.392  0.8011  1.1504 -0.4880
  771MOL0     H 1759   9.706   8.521   3.248  0.4396  2.6315 -0.6049
  771MOL0     H 1760   9.570   8.210   2.840  1.4100  0.0209 -1.8850
  771MOL0     H 1761   9.417   8.147   2.644  0.3064  0.4975 -1.8434
  771MOL0     H 1762   9.078   8.409   2.506  0.1084  0.6900  0.9525
  771MOL0     H 1763   9.006   8.329   2.639  0.5084 -0.2941 -0.7375
  771MOL0     H 1764   8.915   8.247   2.418  1.0106  0.2201 -0.8651
  771MOL0     H 1765   9.076   8.191   2.380  1.4010  1.1334  1.4490
  771MOL0     H 1766   8.874   8.038   2.495  1.8160 -0.1957 -4.1826
  771MOL0     H 1767   8.967   8.080   2.643  0.6894  0.4725  0.5261
  771MOL0     H 1768   9.164   7.964   2.536 -0.5954 -0.8885  1.3396
  771MOL0     H 1769   9.023   7.869   2.546  1.2038  1.5980  3.1788
  771MOL0     H 1770   9.140   7.941   2.131  0.2034  0.0119  0.6013
  771MOL0     H 1771   9.186   8.493   2.750  0.5248 -0.0212 -0.5409
  771MOL0     H 1772   9.331   8.555   2.908 -2.2560 -0.1513  0.1902
  772MOL0     O 1773   0.214   9.705   6.001 -0.3064  0.1587 -0.0078
  772MOL0     C 1774   0.269   9.712   5.895  0.0147 -0.3856 -0.1341
  772MOL0     O 1775   0.212   9.761   5.787  0.9594 -0.8775 -0.2565
  772MOL0     C 1776   0.076   9.773   5.761 -0.2536  0.6287 -0.0580
  772MOL0     C 1777  -0.021   9.691   5.820  0.6558 -0.2190 -0.3943
  772MOL0     C 1778  -0.161   9.734   5.817 -0.7739  0.1287 -0.5128
  772MOL0     C 1779  -0.193   9.840   5.737 -0.2741  0.2187  0.1391
  772MOL0     O 1780  -0.315   9.888   5.727  0.3997  0.0438 -0.4269
  772MOL0     C 1781  -0.359   9.951   5.849 -0.1207 -0.5166 -0.1581
  772MOL0     C 1782  -0.495   9.925   5.875  0.0558 -0.1945 -0.6783
  772MOL0     C 1783  -0.582   9.950   5.758  0.8976  0.1933 -0.1463
  772MOL0     C 1784  -0.726   9.888   5.781  0.2670 -0.6293 -0.0392
  772MOL0     C 1785  -0.813   9.924   5.665  0.0749 -0.1718  0.0025
  772MOL0     C 1786  -0.862  10.066   5.672  0.0884 -0.3923  0.0883
  772MOL0     C 1787  -0.958  10.097   5.550  0.4046  0.2553  0.1244
  772MOL0     C 1788  -0.963  10.251   5.525  0.2691 -0.0214 -0.1559
  772MOL0     N 1789  -1.045  10.312   5.626  0.2905  0.3169  0.3708
  772MOL0     C 1790  -1.157  10.385   5.603 -0.2152 -0.3543  1.3496
  772MOL0     C 1791  -1.198  10.434   5.727 -0.3744 -0.2840  0.3565
  772MOL0     C 1792  -1.321  10.515   5.764 -0.6173 -0.0595  0.3256
  772MOL0     C 1793  -1.281  10.664   5.789 -0.6267  0.1465 -0.3528
  772MOL0     C 1794  -1.375  10.750   5.882 -0.0927  0.2438 -0.0811
  772MOL0     C 1795  -1.510  10.794   5.810 -0.2539  0.5386 -0.2244
  772MOL0     O 1796  -1.570  10.902   5.883 -0.5388 -0.3703  0.1373
  772MOL0     C 1797  -1.668  10.870   5.975 -0.1919  0.6485 -0.4986
  772MOL0     C 1798  -1.772  10.973   5.993  0.3396  0.1233 -0.4786
  772MOL0     C 1799  -1.852  10.955   6.106  1.0304 -0.0647  0.0693
  772MOL0     C 1800  -1.865  10.830   6.175  0.1658  0.3998  0.4310
  772MOL0     C 1801  -1.947  10.817   6.295  0.1670  0.2025 -0.0936
  772MOL0     O 1802  -2.079  10.865   6.301 -0.1341 -0.4666  0.9192
  772MOL0     C 1803  -2.165  10.860   6.412 -0.0519  0.1852 -0.1546
  772MOL0     C 1804  -2.156  10.780   6.530 -0.1513  0.1843  0.2408
  772MOL0     C 1805  -2.256  10.772   6.629 -0.2292  0.2403  1.0066
  772MOL0     C 1806  -2.381  10.838   6.607  0.1270 -0.0696 -0.0374
  772MOL0     O 1807  -2.490  10.841   6.696 -0.0118  0.0075  0.7540
  772MOL0     C 1808  -2.474  10.809   6.831 -0.3659  0.1896 -0.1960
  772MOL0     C 1809  -2.600  10.838   6.911  0.5129 -0.0963 -0.4395
  772MOL0     C 1810  -2.583  10.828   7.059 -0.1540 -0.5091 -0.0450
  772MOL0     C 1811  -2.717  10.841   7.129 -0.8261 -0.1987 -0.1615
  772MOL0     C 1812  -2.715  10.877   7.284  0.1837 -0.5827  0.0599
  772MOL0     C 1813  -2.852  10.906   7.342 -0.6524 -0.2393 -0.1628
  772MOL0     C 1814  -2.836  10.943   7.489  0.9036 -0.2229 -0.1947
  772MOL0     C 1815  -2.962  10.941   7.559  0.2807  0.4838 -0.3741
  772MOL0    Cl 1816  -3.037  11.092   7.496 -0.4108 -0.5431 -0.0758
  772MOL0     C 1817  -2.388  10.912   6.493 -0.5433 -0.5537  0.1541
  772MOL0     C 1818  -2.288  10.924   6.396  0.5832  0.4058  0.7185
  772MOL0     O 1819  -1.882  10.779   6.392 -0.4442  0.9278  0.3409
  772MOL0     C 1820  -1.767  10.733   6.143  0.3977  0.0173 -0.3341
  772MOL0     C 1821  -1.669  10.755   6.050  0.3704 -1.2691 -0.6364
  772MOL0     N 1822  -1.098  10.395   5.818  0.0163  0.8971 -0.2305
  772MOL0     N 1823  -1.012  10.320   5.758  0.1401 -0.9093  0.0881
  772MOL0     C 1824  -0.093   9.910   5.659 -0.4291  1.2269  0.1662
  772MOL0     C 1825   0.043   9.882   5.681  0.2080  0.0194  0.2822
  772MOL0     C 1826   0.419   9.682   5.874 -0.6298 -0.2985  1.4080
  772MOL0     C 1827   0.493   9.590   5.956 -0.5900  0.4239 -0.2366
  772MOL0     C 1828   0.630   9.584   5.951  0.4478 -0.0251 -0.4739
  772MOL0     C 1829   0.707   9.671   5.869 -0.0227  0.1847  0.1413
  772MOL0     O 1830   0.849   9.684   5.861  0.2333 -0.7006  0.2759
  772MOL0     C 1831   0.925   9.616   5.964 -0.7290  0.6049  0.4237
  772MOL0     C 1832   1.067   9.622   5.923 -0.6246 -0.4121 -0.8465
  772MOL0     C 1833   1.097   9.569   5.778 -0.0387 -0.6835 -0.3485
  772MOL0     C 1834   1.249   9.583   5.738  0.0887  0.8166  0.5030
  772MOL0     C 1835   1.293   9.716   5.705  0.8453 -0.5934 -0.3562
  772MOL0     C 1836   1.313   9.830   5.684 -0.0729 -0.3322  0.1234
  772MOL0     C 1837   0.633   9.746   5.774  0.4820  0.6576 -0.6895
  772MOL0     C 1838   0.494   9.751   5.775 -0.6052 -0.6306 -0.3893
  772MOL0     H 1839   0.001   9.594   5.865 -4.4511 -1.1669  0.6846
  772MOL0     H 1840  -0.245   9.681   5.860  0.5843 -1.9572 -0.2943
  772MOL0     H 1841  -0.350  10.060   5.839  0.9556 -0.7294 -2.1962
  772MOL0     H 1842  -0.308   9.913   5.938 -2.8792 -4.0175  0.1490
  772MOL0     H 1843  -0.527   9.987   5.960  0.9486 -2.3752  1.3711
  772MOL0     H 1844  -0.497   9.819   5.902 -1.4691 -0.3782 -1.3610
  772MOL0     H 1845  -0.544   9.900   5.668  3.4901  0.6820  0.5737
  772MOL0     H 1846  -0.580  10.058   5.747 -0.3116  0.6162  2.8365
  772MOL0     H 1847  -0.725   9.779   5.775 -0.1325 -0.5885 -1.1780
  772MOL0     H 1848  -0.771   9.923   5.875  0.6643 -1.6377  0.5416
  772MOL0     H 1849  -0.898   9.855   5.672  0.1726 -0.2095  0.9693
  772MOL0     H 1850  -0.763   9.897   5.572 -4.1158 -0.4221 -2.4059
  772MOL0     H 1851  -0.774  10.130   5.669 -0.2636  0.0561 -0.6659
  772MOL0     H 1852  -0.912  10.083   5.769 -2.5955 -2.9585 -0.6726
  772MOL0     H 1853  -0.920  10.047   5.461 -1.5246 -0.2222 -0.4821
  772MOL0     H 1854  -1.057  10.057   5.576  0.3610 -0.2814 -0.8427
  772MOL0     H 1855  -1.002  10.274   5.426  0.4872 -2.2120 -0.8059
  772MOL0     H 1856  -0.862  10.292   5.517  0.5473 -0.8723 -1.2227
  772MOL0     H 1857  -1.204  10.407   5.508  1.2526 -0.1786  0.6298
  772MOL0     H 1858  -1.359  10.461   5.851 -1.1521 -0.9803 -0.4672
  772MOL0     H 1859  -1.396  10.512   5.685  0.8500 -0.9626 -1.0960
  772MOL0     H 1860  -1.285  10.705   5.688 -4.7841  0.1055 -0.4067
  772MOL0     H 1861  -1.177  10.665   5.823 -0.3439  0.2464 -1.1941
  772MOL0     H 1862  -1.377  10.689   5.973 -1.3215  1.3376  0.6644
  772MOL0     H 1863  -1.328  10.843   5.917  1.3673 -0.0407 -1.1981
  772MOL0     H 1864  -1.579  10.710   5.799 -0.9606  1.1140 -0.2775
  772MOL0     H 1865  -1.480  10.830   5.711 -1.3159 -1.3545 -1.2840
  772MOL0     H 1866  -1.777  11.070   5.944  0.7157 -0.4586 -1.7266
  772MOL0     H 1867  -1.937  11.018   6.129 -0.2112 -0.8125 -2.1767
  772MOL0     H 1868  -2.075  10.708   6.539 -0.2286  0.2976  2.5210
  772MOL0     H 1869  -2.237  10.708   6.714  0.3909 -0.7519  0.1481
  772MOL0     H 1870  -2.399  10.880   6.865  0.2473 -0.0277 -1.0716
  772MOL0     H 1871  -2.438  10.706   6.845  1.6757  0.6479 -1.7604
  772MOL0     H 1872  -2.670  10.772   6.859 -1.3957  1.8032 -0.3906
  772MOL0     H 1873  -2.630  10.939   6.882 -1.2614 -0.4763 -0.0032
  772MOL0     H 1874  -2.511  10.905   7.090 -0.9845  0.4072 -0.3387
  772MOL0     H 1875  -2.537  10.731   7.078  1.7356  0.8773  3.3110
  772MOL0     H 1876  -2.771  10.916   7.071 -1.2851 -0.2752  0.1592
  772MOL0     H 1877  -2.775  10.748   7.124  1.0575 -1.6246  2.4593
  772MOL0     H 1878  -2.655  10.967   7.297  1.1311 -1.5930  3.9385
  772MOL0     H 1879  -2.669  10.798   7.344 -0.9391 -1.4250 -0.1402
  772MOL0     H 1880  -2.928  10.830   7.322 -0.7097  0.2988 -2.2063
  772MOL0     H 1881  -2.882  11.000   7.296  2.4785  0.3882 -1.1468
  772MOL0     H 1882  -2.778  10.862   7.535 -0.2123 -1.3666 -0.7486
  772MOL0     H 1883  -2.788  11.040   7.500  0.0209 -0.0347  3.0929
  772MOL0     H 1884  -2.937  10.951   7.665 -1.5415 -4.3909  0.7635
  772MOL0     H 1885  -3.026  10.853   7.544 -3.0848  2.3887  1.7297
  772MOL0     H 1886  -2.481  10.965   6.473  1.8799  3.1156 -2.7957
  772MOL0     H 1887  -2.317  10.977   6.306 -1.8338  1.0108  1.7579
  772MOL0     H 1888  -1.757  10.638   6.194 -0.7435 -0.6467 -1.2978
  772MOL0     H 1889  -1.600  10.674   6.029 -1.7144 -2.5641 -3.1480
  772MOL0     H 1890  -0.130   9.986   5.591 -1.4123  2.6603  2.2244
  772MOL0     H 1891   0.126   9.942   5.644  3.0065 -3.7699 -0.1747
  772MOL0     H 1892   0.443   9.535   6.035  0.2648 -0.6627 -0.4256
  772MOL0     H 1893   0.672   9.524   6.031  0.2009 -0.2748 -0.5299
  772MOL0     H 1894   0.889   9.514   5.981  0.4677  0.2882  1.1175
  772MOL0     H 1895   0.912   9.661   6.062  1.0330  1.3247  0.3519
  772MOL0     H 1896   1.100   9.726   5.921 -1.3636 -0.1736 -1.0789
  772MOL0     H 1897   1.127   9.564   5.994 -0.9253 -0.3724 -0.5597
  772MOL0     H 1898   1.029   9.607   5.701  0.1373 -0.1866 -0.2572
  772MOL0     H 1899   1.074   9.462   5.773 -1.3974 -0.3893 -1.0301
  772MOL0     H 1900   1.298   9.537   5.824 -4.0535 -0.8014  2.2756
  772MOL0     H 1901   1.272   9.517   5.653  3.4251  1.2827  0.9138
  772MOL0     H 1902   1.330   9.933   5.662 -0.1409 -0.4589 -0.5575
  772MOL0     H 1903   0.681   9.805   5.696  3.7408  0.3193  0.8742
  772MOL0     H 1904   0.442   9.826   5.716 -1.7903  0.7057  2.1919
  773MOL0     O 1905   2.725   6.978   2.119  0.2057 -0.0606  0.6238
  773MOL0     C 1906   2.849   6.978   2.120 -0.0095 -0.7476  0.6466
  773MOL0     O 1907   2.930   6.878   2.146  0.1663  0.4921 -0.7951
  773MOL0     C 1908   2.893   6.753   2.184 -0.0234 -0.1695 -0.4955
  773MOL0     C 1909   2.975   6.649   2.154  0.4109  0.2489  0.9924
  773MOL0     C 1910   2.924   6.522   2.181  0.6444  0.2034  0.4395
  773MOL0     C 1911   2.798   6.492   2.233  0.2206 -0.6769  0.4595
  773MOL0     O 1912   2.737   6.369   2.247 -0.3700 -0.0459  0.4713
  773MOL0     C 1913   2.809   6.246   2.260 -0.1624 -0.6660  0.6716
  773MOL0     C 1914   2.710   6.137   2.276  0.5293  0.8781 -0.5841
  773MOL0     C 1915   2.762   6.000   2.247 -0.1356 -0.9317  0.9362
  773MOL0     C 1916   2.654   5.889   2.269 -0.3900  0.2279  0.3436
  773MOL0     C 1917   2.698   5.743   2.238 -0.6720 -1.1365 -0.8244
  773MOL0     C 1918   2.585   5.645   2.254 -0.6192  0.5740  0.3354
  773MOL0     C 1919   2.618   5.505   2.193 -0.6804 -0.1714 -0.0981
  773MOL0     C 1920   2.495   5.415   2.199  0.9250 -0.6704  0.8731
  773MOL0     N 1921   2.388   5.476   2.114  0.2875 -0.1177  0.1696
  773MOL0     C 1922   2.387   5.472   1.975  0.1295  0.6123 -0.3232
  773MOL0     C 1923   2.254   5.472   1.939  0.1939 -0.7866  0.8432
  773MOL0     C 1924   2.191   5.465   1.805  0.0498 -0.3039  0.9003
  773MOL0     C 1925   2.241   5.340   1.733 -0.1651  0.2691 -0.1048
  773MOL0     C 1926   2.171   5.216   1.791 -0.4701  0.1904  0.2212
  773MOL0     C 1927   2.265   5.096   1.775  0.9209 -0.2064 -0.7026
  773MOL0     O 1928   2.381   5.109   1.860 -0.1675  0.2673  0.3441
  773MOL0     C 1929   2.511   5.117   1.811  1.1615 -0.3398 -1.5668
  773MOL0     C 1930   2.545   5.103   1.679 -0.8946 -0.8438 -0.5188
  773MOL0     C 1931   2.683   5.119   1.637  0.7759  0.6093  0.2735
  773MOL0     C 1932   2.778   5.161   1.734 -0.7266 -0.4996 -0.5813
  773MOL0     C 1933   2.917   5.186   1.704 -0.1306 -0.4168 -0.5017
  773MOL0     O 1934   3.003   5.180   1.817 -0.2544  0.1388  0.3024
  773MOL0     C 1935   3.136   5.199   1.795  0.3161  0.0402  0.7504
  773MOL0     C 1936   3.233   5.107   1.836  0.4015 -0.3091 -0.7632
  773MOL0     C 1937   3.366   5.140   1.828  0.6273  0.4963  0.1028
  773MOL0     C 1938   3.404   5.253   1.756  0.0228  1.1784 -0.5577
  773MOL0     O 1939   3.535   5.302   1.753  0.4680  0.0727 -0.2607
  773MOL0     C 1940   3.637   5.228   1.812 -0.1936 -0.4789 -0.3683
  773MOL0     C 1941   3.763   5.284   1.759 -0.4538 -0.3747  0.1916
  773MOL0     C 1942   3.827   5.391   1.843  0.2082 -0.3481 -0.1520
  773MOL0     C 1943   3.950   5.449   1.776  0.1106 -0.9893 -0.4996
  773MOL0     C 1944   4.007   5.570   1.849  0.3256 -0.0325  0.1322
  773MOL0     C 1945   4.154   5.600   1.803 -0.4734  0.6970  0.0784
  773MOL0     C 1946   4.204   5.740   1.845 -0.6011  0.7544  0.7241
  773MOL0     C 1947   4.346   5.781   1.788  0.2069  0.0234 -0.6819
  773MOL0    Cl 1948   4.486   5.705   1.876 -0.1900 -0.2173  0.6740
  773MOL0     C 1949   3.306   5.343   1.706 -0.3936  0.6031  0.4084
  773MOL0     C 1950   3.173   5.323   1.735  0.0715 -0.6414  0.3613
  773MOL0     O 1951   2.947   5.223   1.590 -0.7937 -0.2160  0.2617
  773MOL0     C 1952   2.732   5.181   1.868 -0.9850 -0.0206  0.8477
  773MOL0     C 1953   2.604   5.155   1.906 -0.2761  0.2509  0.0166
  773MOL0     N 1954   2.178   5.492   2.051  0.0288  0.4990 -1.2238
  773MOL0     N 1955   2.257   5.495   2.151  0.3330  0.1310 -0.1184
  773MOL0     C 1956   2.716   6.600   2.273 -0.7637 -0.7768 -0.8630
  773MOL0     C 1957   2.774   6.729   2.256  0.8954  0.5911 -0.6905
  773MOL0     C 1958   2.914   7.113   2.100 -0.3444 -0.4232 -0.3753
  773MOL0     C 1959   3.031   7.140   2.169 -0.0838 -0.4275 -0.0837
  773MOL0     C 1960   3.092   7.258   2.149  0.5495  0.8709 -0.3899
  773MOL0     C 1961   3.042   7.346   2.049 -0.4767 -0.3512 -0.5211
  773MOL0     O 1962   3.101   7.460   2.013 -0.5690  0.6792  0.1473
  773MOL0     C 1963   3.208   7.525   2.092 -0.5567  0.1786  0.6457
  773MOL0     C 1964   3.153   7.597   2.216 -0.1389 -0.3644 -0.0331
  773MOL0     C 1965   3.247   7.721   2.243 -0.0701 -0.0432  0.7857
  773MOL0     C 1966   3.391   7.688   2.263 -0.2602  0.9708 -0.6714
  773MOL0     C 1967   3.491   7.788   2.218  0.1231 -0.1372 -1.1756
  773MOL0     C 1968   3.580   7.873   2.194  0.6158  1.3309 -0.3917
  773MOL0     C 1969   2.924   7.328   1.991  0.7170  0.4499 -0.0932
  773MOL0     C 1970   2.854   7.210   2.018 -0.0306  0.1387 -0.0818
  773MOL0     H 1971   3.072   6.668   2.107  0.1664 -1.5263 -0.3059
  773MOL0     H 1972   2.977   6.435   2.141  1.1875  0.3358  0.8649
  773MOL0     H 1973   2.876   6.265   2.343  1.5365  0.4932 -0.8804
  773MOL0     H 1974   2.876   6.222   2.177  0.0463  1.8891 -0.0003
  773MOL0     H 1975   2.623   6.152   2.210 -0.5744 -0.4634  0.4965
  773MOL0     H 1976   2.673   6.136   2.379  0.7702 -0.6254 -0.4860
  773MOL0     H 1977   2.847   5.989   2.315 -0.0860  0.6486  1.1577
  773MOL0     H 1978   2.798   6.002   2.144 -0.3570  1.6474  0.8552
  773MOL0     H 1979   2.639   5.899   2.377 -1.6961  1.0311  0.1153
  773MOL0     H 1980   2.565   5.907   2.208  0.0230 -0.4425 -0.4934
  773MOL0     H 1981   2.785   5.717   2.301  0.8999  0.5580 -2.1883
  773MOL0     H 1982   2.737   5.738   2.136 -0.1350 -0.1874 -0.6827
  773MOL0     H 1983   2.501   5.692   2.203 -0.6367 -0.5135 -0.6796
  773MOL0     H 1984   2.564   5.627   2.360  1.8548  0.4720  0.8783
  773MOL0     H 1985   2.649   5.502   2.089  2.4463 -1.8367  0.7612
  773MOL0     H 1986   2.691   5.457   2.259 -2.7206 -1.6521  1.2415
  773MOL0     H 1987   2.470   5.406   2.305  0.1451 -0.4093  0.7230
  773MOL0     H 1988   2.523   5.314   2.169  0.3428 -0.0367 -2.1501
  773MOL0     H 1989   2.475   5.431   1.927  1.3175 -1.4102  3.2173
  773MOL0     H 1990   2.209   5.557   1.748  2.9446 -2.9562 -2.9367
  773MOL0     H 1991   2.084   5.456   1.828 -0.0699  1.6993  1.3434
  773MOL0     H 1992   2.350   5.335   1.742 -0.0060  3.0315  0.1388
  773MOL0     H 1993   2.223   5.344   1.625 -0.7689 -0.3625 -0.0386
  773MOL0     H 1994   2.151   5.231   1.898  2.0883 -1.2224  0.9692
  773MOL0     H 1995   2.074   5.193   1.747 -1.9626 -2.6799  4.3819
  773MOL0     H 1996   2.277   5.070   1.669  0.5333 -1.3007 -0.4866
  773MOL0     H 1997   2.200   5.012   1.801 -1.3508  1.5022 -0.5491
  773MOL0     H 1998   2.468   5.072   1.609 -0.7729  1.5249 -1.7819
  773MOL0     H 1999   2.708   5.117   1.531  1.0481  3.3639  0.1985
  773MOL0     H 2000   3.177   5.022   1.875  1.0768 -0.9516 -1.1708
  773MOL0     H 2001   3.437   5.063   1.856  1.4980  0.5469 -1.8107
  773MOL0     H 2002   3.643   5.122   1.787  1.3544 -0.6832  0.7345
  773MOL0     H 2003   3.620   5.231   1.920  0.3656 -2.7439 -0.1759
  773MOL0     H 2004   3.751   5.323   1.658  0.6395 -1.9827 -0.6081
  773MOL0     H 2005   3.837   5.205   1.744  0.8534  0.8516 -0.0648
  773MOL0     H 2006   3.849   5.355   1.944  1.0580  2.2161  0.6511
  773MOL0     H 2007   3.762   5.478   1.859  0.2427 -0.5357  1.0584
  773MOL0     H 2008   4.025   5.370   1.787 -1.1271 -1.9208  2.1741
  773MOL0     H 2009   3.922   5.470   1.672 -1.0709 -0.8412 -0.1574
  773MOL0     H 2010   4.002   5.537   1.953 -0.4458 -1.0921 -0.2169
  773MOL0     H 2011   3.937   5.653   1.836  1.5874  0.8000 -2.0502
  773MOL0     H 2012   4.157   5.589   1.694 -1.7610 -0.2946  0.1208
  773MOL0     H 2013   4.226   5.531   1.847 -0.2484  1.9826  1.8635
  773MOL0     H 2014   4.131   5.810   1.805  0.3955  0.7855 -1.1274
  773MOL0     H 2015   4.209   5.743   1.954  0.9222  1.7722  0.6477
  773MOL0     H 2016   4.350   5.890   1.797 -1.4300 -0.0162  1.2296
  773MOL0     H 2017   4.351   5.757   1.682  0.0045  1.1175 -0.9407
  773MOL0     H 2018   3.330   5.435   1.654 -2.1166  0.6551 -0.3293
  773MOL0     H 2019   3.107   5.399   1.696  1.6873  0.0560 -1.1299
  773MOL0     H 2020   2.798   5.220   1.944  0.5227 -0.0822 -0.3812
  773MOL0     H 2021   2.583   5.175   2.010  0.9853  2.0466 -0.0422
  773MOL0     H 2022   2.619   6.578   2.316 -0.7267  1.5378  0.5801
  773MOL0     H 2023   2.710   6.811   2.288 -1.6503 -1.1283 -1.0918
  773MOL0     H 2024   3.069   7.069   2.242 -1.5115  2.0309  3.3498
  773MOL0     H 2025   3.168   7.273   2.225  2.1404  1.0264 -1.9383
  773MOL0     H 2026   3.249   7.598   2.022 -1.5846 -0.0003 -0.1828
  773MOL0     H 2027   3.284   7.454   2.125 -1.1792 -1.5968 -1.4628
  773MOL0     H 2028   3.058   7.647   2.199  0.8531  1.1290 -1.5519
  773MOL0     H 2029   3.145   7.529   2.301 -0.5479 -2.3920 -1.6055
  773MOL0     H 2030   3.200   7.770   2.329 -0.3181  2.2983 -0.5709
  773MOL0     H 2031   3.243   7.787   2.155  0.5345 -1.2545 -0.1882
  773MOL0     H 2032   3.407   7.696   2.371  2.1263  2.0857 -1.0217
  773MOL0     H 2033   3.419   7.587   2.232 -1.1376  1.1429 -2.1286
  773MOL0     H 2034   3.659   7.936   2.157 -1.3167  2.8074 -2.2130
  773MOL0     H 2035   2.899   7.405   1.918 -0.7240 -0.1189 -0.2332
  773MOL0     H 2036   2.763   7.190   1.962 -0.9556  2.8642  0.3001
  774MOL0     O 2037  11.181  10.199   5.879 -0.0352  0.0572  0.3927
  774MOL0     C 2038  11.276  10.123   5.903 -0.1466 -0.0971  0.5078
  774MOL0     O 2039  11.296  10.033   6.006 -0.0421 -0.2979  0.3358
  774MOL0     C 2040  11.197  10.013   6.103 -0.1884 -0.3137  0.0480
  774MOL0     C 2041  11.216   9.915   6.195  0.6066 -0.0807  1.0708
  774MOL0     C 2042  11.122   9.871   6.287  0.4393  0.3044  0.2070
  774MOL0     C 2043  10.997   9.927   6.301  0.3235 -0.9840 -0.3940
  774MOL0     O 2044  10.894   9.879   6.375  0.3883  0.5137  0.2609
  774MOL0     C 2045  10.854   9.744   6.345 -0.0810 -0.1787  1.0756
  774MOL0     C 2046  10.756   9.747   6.224 -0.8170 -0.6374 -0.3264
  774MOL0     C 2047  10.611   9.783   6.274  0.1728  0.0342 -0.5672
  774MOL0     C 2048  10.530   9.670   6.335 -0.0500  0.3869 -1.2267
  774MOL0     C 2049  10.388   9.715   6.366 -0.4269 -0.4229  0.4883
  774MOL0     C 2050  10.307   9.613   6.450  1.0815  0.0127 -0.7410
  774MOL0     C 2051  10.295   9.645   6.601  0.4525  0.3083  0.0516
  774MOL0     C 2052  10.193   9.756   6.634 -0.6471  0.5496  0.6245
  774MOL0     N 2053  10.056   9.755   6.576  0.6655  0.2376  0.1147
  774MOL0     C 2054  10.017   9.826   6.458 -0.0661 -0.0313 -0.2535
  774MOL0     C 2055   9.881   9.797   6.451 -0.6841 -1.0445 -0.5281
  774MOL0     C 2056   9.809   9.874   6.346  0.4437 -0.5363  0.2612
  774MOL0     C 2057   9.661   9.905   6.387 -0.4476  0.0106 -0.8675
  774MOL0     C 2058   9.654  10.015   6.497 -0.3060  0.0138  0.0965
  774MOL0     C 2059   9.520  10.072   6.533  0.5079 -0.3411  0.1732
  774MOL0     O 2060   9.503  10.066   6.672  0.0589  0.8120  0.1853
  774MOL0     C 2061   9.369  10.068   6.713 -0.1039  0.7183  0.6010
  774MOL0     C 2062   9.315  10.177   6.787 -0.6093  0.6180 -0.5561
  774MOL0     C 2063   9.173  10.171   6.821 -0.2737  0.3542  0.0832
  774MOL0     C 2064   9.091  10.070   6.772 -0.6272  0.5396 -0.1267
  774MOL0     C 2065   8.942  10.065   6.813 -0.9197 -0.1950 -0.1839
  774MOL0     O 2066   8.871   9.960   6.771  0.3551  0.6021 -0.4129
  774MOL0     C 2067   8.736   9.967   6.822 -0.9946  0.6439 -0.1881
  774MOL0     C 2068   8.711   9.909   6.944 -0.1927  0.3737 -0.9004
  774MOL0     C 2069   8.586   9.905   7.011  0.0768  0.6999 -0.7988
  774MOL0     C 2070   8.468   9.957   6.942  0.4874 -0.0087 -0.3075
  774MOL0     O 2071   8.337   9.954   6.977  0.4123 -0.3487  0.1114
  774MOL0     C 2072   8.307   9.957   7.117 -0.5330 -0.2003 -0.1177
  774MOL0     C 2073   8.213   9.833   7.156 -0.8296 -0.4238 -0.2856
  774MOL0     C 2074   8.067   9.859   7.125  0.2256 -0.3486  0.5165
  774MOL0     C 2075   7.975   9.736   7.160  0.3106  0.1512 -0.3715
  774MOL0     C 2076   7.952   9.697   7.310 -0.4936  0.4540 -0.6566
  774MOL0     C 2077   7.889   9.557   7.324  0.3299 -0.4752 -0.0205
  774MOL0     C 2078   7.837   9.528   7.471 -0.6312  0.3012 -0.3261
  774MOL0     C 2079   7.812   9.377   7.491 -0.6092 -0.2639 -0.2300
  774MOL0    Cl 2080   7.686   9.307   7.365 -0.2164 -0.4983 -0.2321
  774MOL0     C 2081   8.494  10.017   6.816 -0.7970  0.1058 -0.4534
  774MOL0     C 2082   8.631  10.028   6.755 -0.1861 -1.2031 -0.3820
  774MOL0     O 2083   8.911  10.158   6.890 -0.2400  0.0239  0.0624
  774MOL0     C 2084   9.145   9.961   6.697  0.2140 -0.1679 -0.4658
  774MOL0     C 2085   9.287   9.963   6.668  0.8641  0.5827 -0.0535
  774MOL0     N 2086   9.845   9.709   6.558  0.2556  0.4803 -0.5945
  774MOL0     N 2087   9.948   9.682   6.627  0.0935  0.5952  0.2612
  774MOL0     C 2088  10.982  10.050   6.225 -0.3777 -0.6167  0.1777
  774MOL0     C 2089  11.076  10.091   6.124  0.1912 -0.2982 -0.2695
  774MOL0     C 2090  11.402  10.153   5.822  0.4452 -0.1746 -0.3455
  774MOL0     C 2091  11.524  10.085   5.844  0.7851  1.1770  0.0118
  774MOL0     C 2092  11.638  10.114   5.779 -0.0465 -0.7911 -0.2356
  774MOL0     C 2093  11.642  10.207   5.674  0.4921  0.1827  0.1406
  774MOL0     O 2094  11.758  10.240   5.606 -0.6990  0.2861 -0.7556
  774MOL0     C 2095  11.882  10.235   5.679  1.0976  0.0582  0.1021
  774MOL0     C 2096  11.980  10.332   5.620 -0.5311  0.7082  0.5553
  774MOL0     C 2097  12.020  10.297   5.472 -0.3189 -0.2488 -0.3173
  774MOL0     C 2098  12.143  10.380   5.426  0.9627  0.4317  0.2400
  774MOL0     C 2099  12.099  10.475   5.329 -0.1845 -0.4376  1.0672
  774MOL0     C 2100  12.070  10.557   5.240 -0.3237 -0.0495 -1.0279
  774MOL0     C 2101  11.526  10.271   5.644  0.3488  0.3519  0.0889
  774MOL0     C 2102  11.404  10.252   5.721  0.5104  0.1591  0.1263
  774MOL0     H 2103  11.314   9.869   6.197  0.8727  0.5087  2.9567
  774MOL0     H 2104  11.142   9.795   6.362 -2.4197  0.3851  1.1947
  774MOL0     H 2105  10.797   9.706   6.430  1.7175 -0.0501  2.4030
  774MOL0     H 2106  10.938   9.678   6.319 -0.9269 -0.6678 -0.5356
  774MOL0     H 2107  10.749   9.646   6.183 -0.4535 -1.2922  1.1352
  774MOL0     H 2108  10.792   9.814   6.146 -0.9643 -0.6045 -0.3668
  774MOL0     H 2109  10.560   9.828   6.189  0.9272 -0.7048 -1.4423
  774MOL0     H 2110  10.596   9.858   6.352 -2.6729 -0.8269 -0.1632
  774MOL0     H 2111  10.545   9.587   6.265 -1.8306 -1.0754  0.0386
  774MOL0     H 2112  10.572   9.645   6.432 -0.1037  0.8037 -1.0946
  774MOL0     H 2113  10.343   9.736   6.269 -1.3879  0.4930  1.1175
  774MOL0     H 2114  10.390   9.801   6.434 -2.2965  1.2869 -1.4768
  774MOL0     H 2115  10.350   9.513   6.455 -1.0507 -0.9483  4.2273
  774MOL0     H 2116  10.204   9.602   6.414 -0.3974  2.2015  2.4204
  774MOL0     H 2117  10.256   9.561   6.658 -0.2091  1.9870  2.2364
  774MOL0     H 2118  10.393   9.651   6.648  0.7781 -0.3015 -0.5407
  774MOL0     H 2119  10.244   9.847   6.600 -1.8171  1.6868  1.7990
  774MOL0     H 2120  10.176   9.765   6.741 -0.7187  2.9665  0.4524
  774MOL0     H 2121  10.076   9.889   6.393 -2.3571  1.7795 -0.6927
  774MOL0     H 2122   9.816   9.820   6.252 -1.2540 -1.6904  0.7577
  774MOL0     H 2123   9.861   9.971   6.339  1.1252 -0.9604 -0.7576
  774MOL0     H 2124   9.613   9.817   6.431 -0.2429  1.4241  2.4783
  774MOL0     H 2125   9.617   9.940   6.293 -0.3982 -0.6374 -1.1356
  774MOL0     H 2126   9.707   9.983   6.587  1.0379  0.1024 -0.6326
  774MOL0     H 2127   9.712  10.098   6.456 -0.6037  1.3320  2.2297
  774MOL0     H 2128   9.443  10.007   6.492  0.0882 -1.4507  2.5608
  774MOL0     H 2129   9.503  10.178   6.509 -1.8836  0.1505  3.2759
  774MOL0     H 2130   9.377  10.254   6.831 -1.7128  0.4437  1.4191
  774MOL0     H 2131   9.116  10.235   6.887 -2.2474  0.3142 -1.4523
  774MOL0     H 2132   8.792   9.897   7.016  0.0816  1.7534 -0.9489
  774MOL0     H 2133   8.578   9.883   7.117 -0.1988  2.8872 -0.3146
  774MOL0     H 2134   8.251  10.045   7.150 -0.7741  0.1867 -1.5013
  774MOL0     H 2135   8.399   9.952   7.177  1.1977 -1.2646 -2.6978
  774MOL0     H 2136   8.211   9.802   7.261 -1.5907  1.0414  0.1628
  774MOL0     H 2137   8.242   9.736   7.115 -1.2188 -0.4283 -0.5510
  774MOL0     H 2138   8.059   9.875   7.017  1.7300 -1.6637  0.1681
  774MOL0     H 2139   8.030   9.954   7.164 -1.9443 -0.6485 -0.6054
  774MOL0     H 2140   7.878   9.754   7.112  2.0615  6.0243 -2.5686
  774MOL0     H 2141   8.025   9.656   7.105 -1.5963  1.0848 -3.7635
  774MOL0     H 2142   7.894   9.770   7.366 -2.7119  0.0263 -2.2506
  774MOL0     H 2143   8.053   9.693   7.352  0.3609 -0.3821 -2.6340
  774MOL0     H 2144   7.961   9.478   7.302 -0.9372 -1.8182  0.4434
  774MOL0     H 2145   7.808   9.554   7.250  0.7288 -1.4607 -0.4305
  774MOL0     H 2146   7.902   9.559   7.553  0.1176 -3.1226  0.5224
  774MOL0     H 2147   7.736   9.568   7.486 -1.3253 -1.4281 -0.1655
  774MOL0     H 2148   7.796   9.363   7.598  0.8502 -1.6201 -0.1722
  774MOL0     H 2149   7.902   9.317   7.477 -0.3662  0.2254 -0.8276
  774MOL0     H 2150   8.402  10.061   6.778 -1.1729  2.7606  3.0592
  774MOL0     H 2151   8.649  10.078   6.660  1.7420 -0.8145  0.1513
  774MOL0     H 2152   9.081   9.879   6.666  0.8428 -1.1203  0.6954
  774MOL0     H 2153   9.328   9.876   6.618 -3.0833 -0.0199 -2.6133
  774MOL0     H 2154  10.892  10.110   6.240  1.3286  3.0064 -2.5399
  774MOL0     H 2155  11.048  10.183   6.074 -1.7247  1.4602  3.5597
  774MOL0     H 2156  11.519  10.009   5.921 -3.5320  0.7782 -0.3913
  774MOL0     H 2157  11.726  10.073   5.826 -1.2092  0.9874  4.0117
  774MOL0     H 2158  11.922  10.134   5.676  1.8725  0.3830 -1.1560
  774MOL0     H 2159  11.868  10.278   5.779 -1.8190  0.1579 -0.2548
  774MOL0     H 2160  11.942  10.435   5.622  1.0877  1.3524 -0.5404
  774MOL0     H 2161  12.062  10.341   5.692 -2.4235  3.3541  2.6007
  774MOL0     H 2162  11.943  10.309   5.396 -0.9081  2.0366  0.5522
  774MOL0     H 2163  12.059  10.195   5.483 -0.3080 -0.3555 -1.2639
  774MOL0     H 2164  12.181  10.438   5.510 -1.2379  0.1658  1.5082
  774MOL0     H 2165  12.213  10.308   5.382 -0.3665  0.1148 -1.4644
  774MOL0     H 2166  12.077  10.621   5.155 -0.2966 -1.0687 -1.8078
  774MOL0     H 2167  11.541  10.326   5.552 -0.0928  0.6015  0.1661
  774MOL0     H 2168  11.312  10.309   5.705  0.9403  1.0079  0.5737
  775MOL0     O 2169  11.221   2.354   6.220  0.3350 -0.5135 -0.4675
  775MOL0     C 2170  11.254   2.250   6.276 -0.1837  0.2879 -0.9534
  775MOL0     O 2171  11.177   2.156   6.334 -0.0545  0.0088 -0.4925
  775MOL0     C 2172  11.043   2.185   6.335 -0.1854  0.4636 -0.4770
  775MOL0     C 2173  10.947   2.130   6.252 -0.5308  0.7688 -0.5560
  775MOL0     C 2174  10.813   2.165   6.268 -0.1088  0.2204 -0.1369
  775MOL0     C 2175  10.767   2.232   6.376 -0.5578  0.3776  0.0020
  775MOL0     O 2176  10.635   2.251   6.382 -0.0127  0.0206 -0.3168
  775MOL0     C 2177  10.577   2.336   6.486  0.4605  0.1641  0.7368
  775MOL0     C 2178  10.423   2.338   6.471  0.2394 -0.5831 -0.0571
  775MOL0     C 2179  10.350   2.203   6.476 -0.3222  0.6980  0.0485
  775MOL0     C 2180  10.205   2.223   6.421  0.3176  0.3453 -0.1889
  775MOL0     C 2181  10.118   2.093   6.433 -0.4189 -0.3496 -0.1104
  775MOL0     C 2182   9.993   2.127   6.347  0.1173 -0.1847 -0.0429
  775MOL0     C 2183   9.897   2.003   6.357  0.4414 -0.0185  0.1068
  775MOL0     C 2184   9.776   2.037   6.272  0.0407  0.1874  1.2815
  775MOL0     N 2185   9.669   1.935   6.252 -0.0277 -0.4473  0.3714
  775MOL0     C 2186   9.656   1.815   6.322 -0.2701 -0.4477 -0.9518
  775MOL0     C 2187   9.529   1.763   6.283  0.5218 -1.0203  0.5990
  775MOL0     C 2188   9.495   1.621   6.316 -0.3586 -0.2643  0.6105
  775MOL0     C 2189   9.344   1.563   6.303  0.7323  0.5643 -0.2143
  775MOL0     C 2190   9.250   1.654   6.372 -0.1624 -0.2785  0.0475
  775MOL0     C 2191   9.111   1.609   6.342  0.4699 -0.3577  0.4860
  775MOL0     O 2192   9.022   1.702   6.401 -0.1906 -0.2221  0.1325
  775MOL0     C 2193   8.897   1.664   6.436 -0.5974 -0.1840  0.0279
  775MOL0     C 2194   8.836   1.546   6.385  0.3079 -0.1818 -0.3997
  775MOL0     C 2195   8.710   1.511   6.421  0.3580 -0.1978 -0.1185
  775MOL0     C 2196   8.651   1.578   6.535  0.0617  0.4119 -0.8423
  775MOL0     C 2197   8.516   1.551   6.581 -1.3321  0.2384  0.0577
  775MOL0     O 2198   8.444   1.652   6.624  0.3132  0.0282 -0.0872
  775MOL0     C 2199   8.315   1.626   6.664 -1.6496  0.1338 -0.1607
  775MOL0     C 2200   8.214   1.577   6.571 -0.4002 -0.3460 -0.6239
  775MOL0     C 2201   8.078   1.572   6.612 -0.8641 -0.3104 -0.8189
  775MOL0     C 2202   8.040   1.619   6.737  0.1911 -0.2641 -0.1843
  775MOL0     O 2203   7.907   1.599   6.762  0.0646 -0.2556  0.2368
  775MOL0     C 2204   7.851   1.673   6.868 -1.2413  0.1619 -0.6650
  775MOL0     C 2205   7.702   1.659   6.846  0.0742  0.0475  1.2937
  775MOL0     C 2206   7.621   1.753   6.929  0.7655  1.0715 -0.0514
  775MOL0     C 2207   7.476   1.758   6.882 -0.0322  0.7378 -0.8646
  775MOL0     C 2208   7.385   1.825   6.983  0.1405 -0.1450  0.2622
  775MOL0     C 2209   7.456   1.945   7.048  1.0017 -0.5229 -0.7645
  775MOL0     C 2210   7.345   2.021   7.125  0.2994 -0.1948  0.4166
  775MOL0     C 2211   7.376   2.115   7.245  0.1501 -0.5388  0.3069
  775MOL0    Cl 2212   7.226   2.197   7.287  0.1281  0.2510  0.1740
  775MOL0     C 2213   8.133   1.673   6.824 -0.9706 -1.0507 -0.3340
  775MOL0     C 2214   8.271   1.671   6.786 -0.9275 -0.2764  0.5292
  775MOL0     O 2215   8.486   1.433   6.581 -0.0797 -0.5038 -0.1501
  775MOL0     C 2216   8.714   1.694   6.590  0.1306  0.4075  0.0485
  775MOL0     C 2217   8.835   1.735   6.535 -0.0341 -0.2408  0.5044
  775MOL0     N 2218   9.476   1.847   6.188 -0.1536  0.2101  0.1735
  775MOL0     N 2219   9.565   1.939   6.169 -0.3143  0.3902 -0.9548
  775MOL0     C 2220  10.861   2.254   6.479 -0.5268  0.2014 -0.3333
  775MOL0     C 2221  10.997   2.241   6.452  0.8056  0.1267  0.1781
  775MOL0     C 2222  11.404   2.224   6.280 -0.6140  0.1506 -0.3407
  775MOL0     C 2223  11.495   2.296   6.199  0.1599 -0.0243  1.2043
  775MOL0     C 2224  11.630   2.256   6.209  0.4139 -0.6191  0.1177
  775MOL0     C 2225  11.676   2.154   6.286 -0.5412  1.0142 -1.2502
  775MOL0     O 2226  11.807   2.128   6.282 -0.2842 -0.1231 -0.5246
  775MOL0     C 2227  11.861   2.056   6.173  0.4052  0.2054 -0.2431
  775MOL0     C 2228  12.004   2.079   6.177 -0.4715 -0.3043  0.5818
  775MOL0     C 2229  12.044   2.225   6.138 -0.1752  0.2771  0.0956
  775MOL0     C 2230  12.194   2.246   6.164 -0.3157  0.4697 -0.1085
  775MOL0     C 2231  12.276   2.228   6.047 -0.3058 -1.0862  1.0986
  775MOL0     C 2232  12.333   2.225   5.934  0.5052  0.2488 -0.3310
  775MOL0     C 2233  11.583   2.072   6.351 -0.6042  0.1436 -0.2357
  775MOL0     C 2234  11.449   2.105   6.345  0.0418 -0.0249  0.6734
  775MOL0     H 2235  10.985   2.089   6.159 -3.1866 -0.2872 -1.2619
  775MOL0     H 2236  10.747   2.139   6.186  0.3186 -1.2714 -0.0356
  775MOL0     H 2237  10.625   2.434   6.489 -0.1301  0.4969 -0.2810
  775MOL0     H 2238  10.603   2.288   6.581  1.4747  0.4926  0.6368
  775MOL0     H 2239  10.405   2.377   6.370  2.0707  1.6488  0.3814
  775MOL0     H 2240  10.381   2.411   6.540  0.8524 -1.3503  1.1461
  775MOL0     H 2241  10.352   2.156   6.574  0.0801  0.4864 -0.0587
  775MOL0     H 2242  10.409   2.143   6.406  2.4475  1.3689  1.6550
  775MOL0     H 2243  10.154   2.308   6.466  0.5543  0.5842 -0.3657
  775MOL0     H 2244  10.210   2.251   6.316 -0.3317  3.7899  0.5887
  775MOL0     H 2245  10.099   2.066   6.537  2.4984  0.7038  0.7943
  775MOL0     H 2246  10.165   2.006   6.387  1.2262  1.0017 -1.1238
  775MOL0     H 2247  10.030   2.142   6.246 -0.9781  1.3300 -0.2442
  775MOL0     H 2248   9.945   2.213   6.393 -2.1951 -1.9573  1.0856
  775MOL0     H 2249   9.950   1.916   6.317 -0.2136  0.6906 -2.5390
  775MOL0     H 2250   9.876   1.976   6.461  1.5950 -3.2082 -0.3636
  775MOL0     H 2251   9.808   2.059   6.170 -3.7400  2.1339  0.3417
  775MOL0     H 2252   9.738   2.133   6.307 -1.4538  0.5588 -1.1448
  775MOL0     H 2253   9.725   1.779   6.397  1.1846  0.0020 -2.0361
  775MOL0     H 2254   9.523   1.593   6.418 -3.3325  1.5454  2.0713
  775MOL0     H 2255   9.558   1.560   6.250 -0.9499 -0.1684 -0.0651
  775MOL0     H 2256   9.341   1.464   6.349 -0.5759  0.8915  0.4700
  775MOL0     H 2257   9.300   1.552   6.204 -1.0986 -0.5606  0.6565
  775MOL0     H 2258   9.276   1.651   6.479 -1.7133  0.5974  0.4734
  775MOL0     H 2259   9.277   1.756   6.343  2.2712 -1.5488 -2.6109
  775MOL0     H 2260   9.105   1.507   6.384  1.8501  0.6989  3.5581
  775MOL0     H 2261   9.088   1.619   6.236 -2.3592 -0.2174  1.0411
  775MOL0     H 2262   8.888   1.485   6.311 -0.0411 -0.1109 -0.7030
  775MOL0     H 2263   8.667   1.422   6.375 -0.6728 -1.9656  3.8668
  775MOL0     H 2264   8.242   1.553   6.468 -0.2945 -1.4184 -0.3570
  775MOL0     H 2265   8.005   1.541   6.537 -1.2975 -0.9451 -0.1462
  775MOL0     H 2266   7.874   1.780   6.867 -1.6529  0.2735 -2.9063
  775MOL0     H 2267   7.872   1.634   6.968  2.6029  3.2600 -0.0367
  775MOL0     H 2268   7.678   1.562   6.890  0.5102 -2.2975 -3.0724
  775MOL0     H 2269   7.665   1.650   6.743 -1.8618  4.3483  1.3904
  775MOL0     H 2270   7.665   1.852   6.915  3.3021 -0.1814 -1.9274
  775MOL0     H 2271   7.621   1.727   7.035 -1.0091 -2.6242 -0.7689
  775MOL0     H 2272   7.474   1.794   6.778 -1.8705 -1.4256 -1.6607
  775MOL0     H 2273   7.434   1.658   6.871 -0.8169  1.1670 -2.0283
  775MOL0     H 2274   7.358   1.758   7.065 -0.5321  1.7136  1.6119
  775MOL0     H 2275   7.294   1.864   6.935 -1.2073 -2.9020  0.3840
  775MOL0     H 2276   7.501   2.019   6.981 -0.2802  3.2064  2.1638
  775MOL0     H 2277   7.529   1.918   7.125  1.9798  5.9216  1.1404
  775MOL0     H 2278   7.299   2.090   7.053 -1.9661 -0.1974  1.7685
  775MOL0     H 2279   7.271   1.946   7.157  2.2598 -3.0614 -1.3552
  775MOL0     H 2280   7.456   2.180   7.209  1.3708 -0.0525  3.5801
  775MOL0     H 2281   7.414   2.068   7.336 -1.7249 -0.9006  0.9554
  775MOL0     H 2282   8.126   1.729   6.916  3.1269  1.4920 -1.2990
  775MOL0     H 2283   8.352   1.719   6.841  0.8842 -2.3232 -0.1985
  775MOL0     H 2284   8.659   1.761   6.655  0.9826  0.8695  0.3021
  775MOL0     H 2285   8.881   1.827   6.568  1.8536 -1.2859  0.8914
  775MOL0     H 2286  10.824   2.304   6.568 -0.5521  2.4766 -1.5412
  775MOL0     H 2287  11.070   2.292   6.514 -0.9399  2.7490  0.1759
  775MOL0     H 2288  11.460   2.379   6.139 -2.1190 -0.8597  1.3002
  775MOL0     H 2289  11.705   2.308   6.151  1.6309 -2.1610  0.2382
  775MOL0     H 2290  11.806   2.081   6.082 -1.1439 -2.0379 -0.0052
  775MOL0     H 2291  11.856   1.949   6.199  2.2466  0.7366  2.8059
  775MOL0     H 2292  12.038   2.061   6.279  0.8524 -1.1610  0.0160
  775MOL0     H 2293  12.044   2.011   6.101  0.2229  2.5452 -1.8032
  775MOL0     H 2294  11.986   2.298   6.195  0.1517  3.1407 -2.9498
  775MOL0     H 2295  12.013   2.234   6.034 -2.5043 -0.7130  0.6391
  775MOL0     H 2296  12.209   2.344   6.211  1.7526 -0.6127  1.7262
  775MOL0     H 2297  12.224   2.172   6.238 -3.3102  0.7088  1.4795
  775MOL0     H 2298  12.394   2.216   5.847  0.0298 -2.4784 -0.4677
  775MOL0     H 2299  11.622   1.981   6.396 -0.3935 -0.2472 -1.1712
  775MOL0     H 2300  11.384   2.033   6.394  1.1926 -0.7104  1.2346
  776MOL0     O 2301   0.488   2.989   0.054  0.5884  0.6503  0.8803
  776MOL0     C 2302   0.600   2.980   0.101  0.0062  0.5054 -0.2572
  776MOL0     O 2303   0.640   3.023   0.224 -0.0017  0.0437  0.0587
  776MOL0     C 2304   0.545   3.064   0.306 -0.1969 -0.1066  0.2829
  776MOL0     C 2305   0.542   3.202   0.359 -0.4176 -0.4770 -0.2680
  776MOL0     C 2306   0.455   3.240   0.453  0.3873 -0.2763 -0.4445
  776MOL0     C 2307   0.351   3.157   0.500  0.4217 -0.0965  0.7256
  776MOL0     O 2308   0.256   3.214   0.582 -0.2683  0.5386 -0.1415
  776MOL0     C 2309   0.138   3.139   0.604 -0.5355 -0.4534 -0.1376
  776MOL0     C 2310   0.164   3.041   0.719  0.3965  0.3141 -0.6358
  776MOL0     C 2311   0.039   2.952   0.725  0.2785 -0.6690 -1.3322
  776MOL0     C 2312   0.057   2.877   0.861  0.0411 -0.3360 -0.0299
  776MOL0     C 2313  -0.078   2.810   0.908 -1.0224  0.2994  0.0194
  776MOL0     C 2314  -0.156   2.903   0.999 -0.2430 -0.3573  0.3542
  776MOL0     C 2315  -0.275   2.824   1.060  0.3291  0.3257  0.2625
  776MOL0     C 2316  -0.374   2.931   1.128  0.4386 -0.8204 -0.6530
  776MOL0     N 2317  -0.400   2.888   1.268 -0.6296 -0.5425 -0.4545
  776MOL0     C 2318  -0.471   2.776   1.292 -0.2137 -0.6654 -0.8025
  776MOL0     C 2319  -0.458   2.755   1.430  0.0383  0.5044  0.0092
  776MOL0     C 2320  -0.506   2.638   1.517 -0.4308 -0.6914 -0.3642
  776MOL0     C 2321  -0.611   2.684   1.625 -0.1620 -0.0792 -0.4782
  776MOL0     C 2322  -0.720   2.776   1.581  0.3467  0.2580  0.3694
  776MOL0     C 2323  -0.817   2.713   1.480  0.8063 -0.4548  0.1212
  776MOL0     O 2324  -0.905   2.818   1.440 -0.2347  0.8275 -0.1538
  776MOL0     C 2325  -1.031   2.784   1.405  0.9782 -0.6056 -0.1969
  776MOL0     C 2326  -1.118   2.891   1.391 -0.1179 -0.0750  0.1734
  776MOL0     C 2327  -1.254   2.879   1.356 -0.3122 -0.1508  1.4072
  776MOL0     C 2328  -1.310   2.751   1.341 -0.4870  0.0175 -0.6229
  776MOL0     C 2329  -1.454   2.735   1.302  0.0614 -0.4826  0.8603
  776MOL0     O 2330  -1.534   2.826   1.358  0.7407  0.1082 -0.3368
  776MOL0     C 2331  -1.667   2.812   1.334 -0.1491  0.6632  0.3369
  776MOL0     C 2332  -1.729   2.922   1.264  1.0270  0.3398 -0.9643
  776MOL0     C 2333  -1.870   2.919   1.240  0.0226 -0.9920  0.4204
  776MOL0     C 2334  -1.944   2.809   1.282  0.0070  0.9559  0.9182
  776MOL0     O 2335  -2.076   2.795   1.247  0.0416  0.6619 -0.1980
  776MOL0     C 2336  -2.129   2.888   1.162 -0.5406  0.1422  0.3122
  776MOL0     C 2337  -2.266   2.845   1.120 -0.0587  0.5168  0.6916
  776MOL0     C 2338  -2.348   2.883   1.243 -1.0432 -0.0222 -0.0530
  776MOL0     C 2339  -2.485   2.814   1.229  0.5459 -0.1984 -0.0362
  776MOL0     C 2340  -2.598   2.872   1.326 -0.9127 -0.3204 -0.3929
  776MOL0     C 2341  -2.716   2.783   1.329 -0.1276  0.4650 -0.2808
  776MOL0     C 2342  -2.833   2.836   1.415 -0.8054  0.0927 -0.6055
  776MOL0     C 2343  -2.807   2.829   1.561 -0.3240  0.1852 -0.3968
  776MOL0    Cl 2344  -2.880   2.964   1.652 -0.6371  0.3159 -0.0686
  776MOL0     C 2345  -1.887   2.710   1.356 -0.6827  1.1775  0.5354
  776MOL0     C 2346  -1.747   2.707   1.380 -1.0075  0.1192 -0.1366
  776MOL0     O 2347  -1.486   2.623   1.255 -0.4162 -0.0422 -0.6078
  776MOL0     C 2348  -1.226   2.636   1.368 -0.5709 -0.9601  1.2247
  776MOL0     C 2349  -1.087   2.656   1.378 -0.1192  0.0360 -1.4263
  776MOL0     N 2350  -0.376   2.860   1.478  0.6109  1.0534  0.0041
  776MOL0     N 2351  -0.337   2.927   1.378  0.0830 -0.3523  0.7575
  776MOL0     C 2352   0.354   3.026   0.452  0.1091 -0.1645  0.2116
  776MOL0     C 2353   0.444   2.980   0.357 -0.4715  0.3230 -0.0630
  776MOL0     C 2354   0.710   2.920   0.020  0.1791  1.2223 -0.5298
  776MOL0     C 2355   0.691   2.878  -0.117  0.0721  0.3814 -0.5133
  776MOL0     C 2356   0.785   2.800  -0.180 -0.2734  0.5229  0.1926
  776MOL0     C 2357   0.913   2.761  -0.120  0.2506  0.5353  0.0471
  776MOL0     O 2358   1.010   2.687  -0.181  0.9378 -0.2391 -0.1316
  776MOL0     C 2359   1.004   2.650  -0.322  0.5234  0.5757 -0.6393
  776MOL0     C 2360   1.063   2.509  -0.355 -0.5577 -0.1426 -0.4380
  776MOL0     C 2361   1.214   2.516  -0.337  0.0677 -0.6662  0.2243
  776MOL0     C 2362   1.293   2.392  -0.342  0.1631 -0.9254 -0.6978
  776MOL0     C 2363   1.436   2.409  -0.367  0.2384 -0.8672  0.1314
  776MOL0     C 2364   1.554   2.420  -0.393 -0.1212 -0.4325 -0.1715
  776MOL0     C 2365   0.925   2.797   0.012 -0.2581 -0.4263  1.1062
  776MOL0     C 2366   0.834   2.872   0.084 -0.5048  0.7403  0.3634
  776MOL0     H 2367   0.627   3.262   0.327 -0.1405 -0.4409  0.5234
  776MOL0     H 2368   0.449   3.346   0.478  0.1766 -0.2123 -0.7495
  776MOL0     H 2369   0.096   3.093   0.514 -2.5328  0.3722  0.3244
  776MOL0     H 2370   0.058   3.205   0.637 -3.5958 -4.1681  0.6474
  776MOL0     H 2371   0.180   3.093   0.814 -1.5002  1.4795 -0.8896
  776MOL0     H 2372   0.246   2.972   0.701 -1.5256 -1.9913 -1.0286
  776MOL0     H 2373   0.036   2.880   0.643  0.6743 -0.6290 -1.3820
  776MOL0     H 2374  -0.052   3.012   0.735  0.7806 -0.2322  2.3995
  776MOL0     H 2375   0.137   2.805   0.841 -0.9923 -1.1584 -1.3797
  776MOL0     H 2376   0.082   2.933   0.952 -1.8173  0.7329 -0.1336
  776MOL0     H 2377  -0.053   2.721   0.967 -0.7294  0.6122  0.3731
  776MOL0     H 2378  -0.127   2.774   0.818  2.0501 -0.1263 -1.6373
  776MOL0     H 2379  -0.199   2.978   0.931 -2.6049 -1.4504  0.5297
  776MOL0     H 2380  -0.094   2.952   1.074 -1.2069  1.7339 -0.1274
  776MOL0     H 2381  -0.328   2.774   0.978  0.6070 -0.3117  0.4713
  776MOL0     H 2382  -0.246   2.742   1.125  0.2914 -2.0962 -2.5860
  776MOL0     H 2383  -0.468   2.960   1.080 -0.9349 -0.0413  2.2891
  776MOL0     H 2384  -0.322   3.026   1.135 -2.6543  0.8618  2.8679
  776MOL0     H 2385  -0.514   2.702   1.225 -3.1196  0.4393 -0.3168
  776MOL0     H 2386  -0.422   2.587   1.564 -0.5497  0.2454  0.9294
  776MOL0     H 2387  -0.549   2.562   1.451 -2.6157  0.7184 -0.6636
  776MOL0     H 2388  -0.563   2.738   1.707  0.8153 -1.7581  0.0981
  776MOL0     H 2389  -0.663   2.600   1.672 -2.0249  1.8239  1.0640
  776MOL0     H 2390  -0.776   2.813   1.667 -2.2206  3.0434 -2.2111
  776MOL0     H 2391  -0.675   2.865   1.537  0.1835  0.4468  0.5885
  776MOL0     H 2392  -0.868   2.631   1.533 -0.4787 -0.6792 -1.3648
  776MOL0     H 2393  -0.760   2.682   1.392  1.5958  0.3109  0.3647
  776MOL0     H 2394  -1.089   2.992   1.416 -1.4588  0.9269 -2.0073
  776MOL0     H 2395  -1.310   2.968   1.328  1.2157  0.1623 -0.9874
  776MOL0     H 2396  -1.666   3.005   1.234  0.4663  2.0643  2.1577
  776MOL0     H 2397  -1.909   3.015   1.210  2.4103 -0.0551  0.0842
  776MOL0     H 2398  -2.072   2.897   1.069  0.8035 -2.9264  0.7283
  776MOL0     H 2399  -2.132   2.985   1.212 -1.8161 -0.3280  1.2102
  776MOL0     H 2400  -2.274   2.738   1.100  1.0850  0.4028  0.7920
  776MOL0     H 2401  -2.309   2.887   1.029 -1.5266 -1.1361  0.5571
  776MOL0     H 2402  -2.355   2.991   1.252 -1.1852  0.0261 -0.7517
  776MOL0     H 2403  -2.294   2.839   1.328  0.9542  0.9910 -0.7341
  776MOL0     H 2404  -2.526   2.839   1.130 -2.7748 -2.2984  0.6356
  776MOL0     H 2405  -2.463   2.707   1.226  1.7891  0.0610 -2.3077
  776MOL0     H 2406  -2.640   2.970   1.300 -1.3371  0.6123  3.2703
  776MOL0     H 2407  -2.550   2.897   1.421  0.8799  2.5463 -1.8995
  776MOL0     H 2408  -2.689   2.684   1.366 -0.2681 -0.4721 -2.5220
  776MOL0     H 2409  -2.736   2.775   1.222  1.6323  0.1104 -0.6110
  776MOL0     H 2410  -2.837   2.941   1.384  3.0126  0.6685  0.3344
  776MOL0     H 2411  -2.919   2.771   1.394 -1.6259  0.5535  1.1225
  776MOL0     H 2412  -2.701   2.837   1.587 -0.5276  1.5357  0.1099
  776MOL0     H 2413  -2.846   2.735   1.601 -0.9885 -1.3995 -4.3813
  776MOL0     H 2414  -1.953   2.633   1.394 -0.2979  0.8557  0.5613
  776MOL0     H 2415  -1.701   2.626   1.435 -1.4746 -1.2270 -1.6527
  776MOL0     H 2416  -1.264   2.535   1.359 -1.1324 -0.6931  0.5487
  776MOL0     H 2417  -1.019   2.572   1.388  2.1151  1.5046 -3.1107
  776MOL0     H 2418   0.287   2.954   0.498 -1.1320  0.9918  0.2546
  776MOL0     H 2419   0.439   2.875   0.328  0.3984  0.2751 -0.0704
  776MOL0     H 2420   0.601   2.910  -0.169  0.7262  1.7762 -0.8365
  776MOL0     H 2421   0.756   2.761  -0.277 -2.1233 -3.8975  2.2737
  776MOL0     H 2422   1.063   2.717  -0.385  1.0569 -0.4210 -1.2291
  776MOL0     H 2423   0.900   2.655  -0.355  0.7069  0.5652 -1.2193
  776MOL0     H 2424   1.029   2.424  -0.296  1.0294 -1.2096 -0.9711
  776MOL0     H 2425   1.038   2.484  -0.459 -2.3001  2.0392 -0.6140
  776MOL0     H 2426   1.236   2.551  -0.236  0.0659  0.1183 -0.0351
  776MOL0     H 2427   1.256   2.590  -0.406 -2.1168  2.0866  1.6565
  776MOL0     H 2428   1.285   2.347  -0.243  3.5749 -1.7567 -0.6861
  776MOL0     H 2429   1.252   2.339  -0.428  1.1114  1.6399 -2.8874
  776MOL0     H 2430   1.646   2.447  -0.442  0.1981 -0.3562  0.4591
  776MOL0     H 2431   1.014   2.774   0.070 -1.0606 -0.3489  2.3925
  776MOL0     H 2432   0.857   2.898   0.187 -1.9324 -0.4943  1.0370
  777MOL0     O 2433   3.294   3.326   7.254 -0.3301 -0.7999  0.1654
  777MOL0     C 2434   3.239   3.436   7.236 -0.6834 -0.3740  0.8037
  777MOL0     O 2435   3.105   3.456   7.208  0.7428 -0.0543 -0.0156
  777MOL0     C 2436   3.025   3.347   7.193 -0.2687 -0.4141 -1.1553
  777MOL0     C 2437   2.926   3.350   7.286  0.4965  0.2328  0.6458
  777MOL0     C 2438   2.837   3.246   7.286  0.0506  0.0813  0.1612
  777MOL0     C 2439   2.835   3.141   7.195 -0.1964  0.4965 -0.5679
  777MOL0     O 2440   2.737   3.045   7.188  1.0106 -0.0702 -0.5745
  777MOL0     C 2441   2.666   3.001   7.308  0.0750  0.2339 -0.3121
  777MOL0     C 2442   2.599   2.870   7.305 -0.9240  0.9171 -0.1256
  777MOL0     C 2443   2.700   2.754   7.284  0.0140  0.6894 -0.3417
  777MOL0     C 2444   2.810   2.765   7.181 -0.7613  0.2660  0.4020
  777MOL0     C 2445   2.852   2.625   7.121 -0.0179  0.1715  1.5048
  777MOL0     C 2446   2.911   2.548   7.228 -0.1316  0.4467 -0.4397
  777MOL0     C 2447   2.974   2.417   7.177  0.1667 -0.8950 -0.7854
  777MOL0     C 2448   3.098   2.424   7.094 -0.3713 -0.0054  0.0479
  777MOL0     N 2449   3.138   2.290   7.058  1.1228  0.6434  0.7195
  777MOL0     C 2450   3.078   2.206   6.958 -0.4137 -0.8786 -0.4855
  777MOL0     C 2451   3.127   2.085   6.973 -0.0528  0.2952  0.3201
  777MOL0     C 2452   3.093   1.944   6.914  0.6796  0.1461  0.5881
  777MOL0     C 2453   2.954   1.887   6.934 -0.2028 -0.2993 -0.5029
  777MOL0     C 2454   2.956   1.738   6.881 -0.8312  0.1338  0.0138
  777MOL0     C 2455   2.819   1.667   6.877  0.1400  0.1633  0.0648
  777MOL0     O 2456   2.780   1.649   7.014  0.0442 -0.0833  0.4258
  777MOL0     C 2457   2.653   1.605   7.040 -0.9059 -0.0215  0.1883
  777MOL0     C 2458   2.554   1.586   6.939 -0.2944  0.5984  0.1623
  777MOL0     C 2459   2.426   1.543   6.978  0.3200  0.1410  0.6370
  777MOL0     C 2460   2.401   1.516   7.112 -0.5954  0.1023  0.1635
  777MOL0     C 2461   2.265   1.462   7.152 -1.1178  0.7181 -1.0980
  777MOL0     O 2462   2.166   1.513   7.085 -0.5179  1.2456  0.3167
  777MOL0     C 2463   2.041   1.469   7.112  0.1614 -0.0989  0.3883
  777MOL0     C 2464   1.977   1.495   7.233 -0.1505  0.0440 -0.2870
  777MOL0     C 2465   1.862   1.425   7.268 -0.3265 -0.1688  1.0784
  777MOL0     C 2466   1.797   1.350   7.174  0.2905 -0.6854  0.2270
  777MOL0     O 2467   1.672   1.297   7.202  0.1040  0.5872  0.3032
  777MOL0     C 2468   1.617   1.300   7.333  0.0973  0.4359 -0.5015
  777MOL0     C 2469   1.480   1.228   7.329 -0.0424 -1.1280  0.6586
  777MOL0     C 2470   1.459   1.181   7.470  0.0759 -1.0171  0.5581
  777MOL0     C 2471   1.421   1.303   7.555 -1.0966 -0.0088  0.2995
  777MOL0     C 2472   1.407   1.257   7.698  0.1669 -0.0429 -0.0205
  777MOL0     C 2473   1.348   1.358   7.797 -0.0097 -0.4613  0.3190
  777MOL0     C 2474   1.191   1.372   7.788 -0.1740 -1.3273  0.6776
  777MOL0     C 2475   1.127   1.440   7.663  0.0151  0.0131  1.1615
  777MOL0    Cl 2476   1.203   1.598   7.620 -0.2926  0.0513  0.2310
  777MOL0     C 2477   1.856   1.334   7.046  0.9913  0.2805  0.1180
  777MOL0     C 2478   1.981   1.384   7.020  0.3433 -0.3335  0.9152
  777MOL0     O 2479   2.255   1.381   7.244 -0.0022  0.8684  0.8249
  777MOL0     C 2480   2.499   1.514   7.208 -0.9729  0.4808 -0.0154
  777MOL0     C 2481   2.626   1.569   7.170 -0.3548 -0.1228  0.2009
  777MOL0     N 2482   3.217   2.090   7.080 -0.0195  0.4321  0.4241
  777MOL0     N 2483   3.206   2.201   7.139 -0.0859 -0.1672  0.4085
  777MOL0     C 2484   2.933   3.147   7.093 -0.5921  0.3838 -0.1296
  777MOL0     C 2485   3.029   3.253   7.091 -0.9751  0.1602  0.3249
  777MOL0     C 2486   3.328   3.559   7.254  0.1310  0.1774 -0.2868
  777MOL0     C 2487   3.279   3.692   7.265 -0.1019  0.3450  0.3172
  777MOL0     C 2488   3.367   3.799   7.290  0.4362 -0.7053 -0.9817
  777MOL0     C 2489   3.500   3.769   7.298 -0.0617  0.1314 -0.7912
  777MOL0     O 2490   3.582   3.877   7.322  0.6723 -0.6905 -0.9874
  777MOL0     C 2491   3.702   3.858   7.393 -0.1565  0.2779  0.6569
  777MOL0     C 2492   3.764   3.985   7.423  0.3179 -0.0592  1.2629
  777MOL0     C 2493   3.920   3.969   7.412 -0.8622  0.5396  0.3460
  777MOL0     C 2494   3.982   4.082   7.498 -0.2795  0.8952  1.5381
  777MOL0     C 2495   4.125   4.043   7.517  0.5968 -0.5792  0.1790
  777MOL0     C 2496   4.241   4.030   7.533  0.6084  0.2110 -0.0188
  777MOL0     C 2497   3.549   3.648   7.271 -0.0894  0.6584 -0.2252
  777MOL0     C 2498   3.468   3.537   7.250  0.0609 -0.0874 -0.4010
  777MOL0     H 2499   2.921   3.437   7.352 -0.3599 -0.2791  1.2773
  777MOL0     H 2500   2.760   3.262   7.361 -0.2683 -0.9201  0.0578
  777MOL0     H 2501   2.584   3.072   7.320 -1.2304 -1.4815  1.5963
  777MOL0     H 2502   2.727   3.010   7.399  1.1381  0.3589 -1.0171
  777MOL0     H 2503   2.532   2.861   7.219 -0.6893  1.1155 -0.3290
  777MOL0     H 2504   2.543   2.859   7.399  1.1670  0.8143  1.1596
  777MOL0     H 2505   2.652   2.656   7.285  1.7298 -0.1882  0.1469
  777MOL0     H 2506   2.759   2.752   7.376  1.8247 -4.0187 -1.3656
  777MOL0     H 2507   2.764   2.818   7.097  0.9898  0.2800 -0.5967
  777MOL0     H 2508   2.902   2.816   7.212  1.0208 -1.5730 -1.5406
  777MOL0     H 2509   2.927   2.661   7.050 -0.6702  0.7673  1.0972
  777MOL0     H 2510   2.778   2.560   7.073 -0.1370 -0.1200  2.0694
  777MOL0     H 2511   2.835   2.516   7.300 -2.7710  3.3556 -1.6983
  777MOL0     H 2512   2.989   2.607   7.278  2.2302  0.2998 -3.6653
  777MOL0     H 2513   3.004   2.350   7.258 -2.2828 -2.4725 -1.0666
  777MOL0     H 2514   2.902   2.369   7.110  1.9113 -0.8265 -2.8340
  777MOL0     H 2515   3.185   2.466   7.146  1.3129 -0.9100 -1.8887
  777MOL0     H 2516   3.075   2.479   7.003  2.2761  0.8190 -0.2204
  777MOL0     H 2517   2.999   2.238   6.891 -1.4044  0.9746  1.4274
  777MOL0     H 2518   3.165   1.871   6.952  0.4962 -0.8553 -0.9051
  777MOL0     H 2519   3.111   1.945   6.806  1.1037 -1.1190  0.6307
  777MOL0     H 2520   2.885   1.946   6.874  0.6485  1.0588 -0.1921
  777MOL0     H 2521   2.924   1.898   7.039 -0.8596 -1.0075 -0.6045
  777MOL0     H 2522   3.000   1.732   6.781 -0.8914 -3.8695  0.0776
  777MOL0     H 2523   3.026   1.677   6.941 -1.6296 -2.0763 -1.1893
  777MOL0     H 2524   2.827   1.571   6.824  5.7293 -0.1924  0.8856
  777MOL0     H 2525   2.741   1.726   6.829  1.0295  3.3297  2.2429
  777MOL0     H 2526   2.567   1.610   6.834 -2.0532  2.0067  0.2235
  777MOL0     H 2527   2.340   1.538   6.912  0.6664  3.6349 -0.3084
  777MOL0     H 2528   2.029   1.568   7.295  1.8107 -0.2528 -1.4990
  777MOL0     H 2529   1.835   1.446   7.371  1.2751  1.1561  1.2673
  777MOL0     H 2530   1.599   1.407   7.349 -3.2574 -0.0992  0.1585
  777MOL0     H 2531   1.680   1.265   7.415  0.8310  2.6953 -0.0198
  777MOL0     H 2532   1.495   1.144   7.261 -3.0902 -0.8479 -0.5062
  777MOL0     H 2533   1.400   1.295   7.297  2.6797  0.6574 -3.1261
  777MOL0     H 2534   1.546   1.130   7.512 -0.5866 -1.6031  1.2742
  777MOL0     H 2535   1.376   1.110   7.459 -2.8541  2.3939 -1.5870
  777MOL0     H 2536   1.490   1.387   7.553 -0.6131 -0.2486 -4.2884
  777MOL0     H 2537   1.329   1.346   7.514 -0.5367  2.3852  1.4071
  777MOL0     H 2538   1.504   1.223   7.737 -0.1657  1.9491  2.8871
  777MOL0     H 2539   1.348   1.165   7.695  2.1342 -1.5403 -6.2164
  777MOL0     H 2540   1.399   1.452   7.776  0.9625 -0.9524  0.4136
  777MOL0     H 2541   1.366   1.325   7.900 -3.1683  0.1192  1.1393
  777MOL0     H 2542   1.147   1.272   7.796  1.5651 -2.1757  0.0374
  777MOL0     H 2543   1.179   1.420   7.886  0.7692 -1.6549  0.9596
  777MOL0     H 2544   1.022   1.457   7.692  0.7094  1.5489  3.0749
  777MOL0     H 2545   1.124   1.365   7.584  3.5793 -0.9764  1.7887
  777MOL0     H 2546   1.816   1.282   6.960  1.0085  0.1884  0.1649
  777MOL0     H 2547   2.034   1.367   6.927  0.2501  0.2391  0.7518
  777MOL0     H 2548   2.480   1.474   7.307 -0.5608 -1.7898 -0.8062
  777MOL0     H 2549   2.710   1.567   7.238  0.2536 -0.9474 -0.5555
  777MOL0     H 2550   2.947   3.071   7.016  1.3197  1.1448 -0.5846
  777MOL0     H 2551   3.108   3.261   7.017 -0.7400  0.8471  0.6399
  777MOL0     H 2552   3.171   3.707   7.264 -0.1279  0.1470 -0.6343
  777MOL0     H 2553   3.334   3.900   7.310  2.0047 -0.6511  1.8256
  777MOL0     H 2554   3.778   3.804   7.337 -0.6461  0.1352  0.1127
  777MOL0     H 2555   3.688   3.795   7.481 -2.3249 -1.4069 -0.7829
  777MOL0     H 2556   3.724   4.059   7.353  3.1857 -1.7645 -2.5775
  777MOL0     H 2557   3.738   4.013   7.525  0.0850  1.4566  0.8133
  777MOL0     H 2558   3.955   3.980   7.309  1.4061  0.1518  1.0329
  777MOL0     H 2559   3.956   3.876   7.458 -0.6102  0.4963  0.0630
  777MOL0     H 2560   3.957   4.175   7.448 -0.7327 -1.2458 -2.6256
  777MOL0     H 2561   3.931   4.087   7.595  1.3401  0.5471  2.4464
  777MOL0     H 2562   4.344   4.007   7.553  1.2701  0.5174 -2.6571
  777MOL0     H 2563   3.656   3.632   7.261 -0.2347 -0.8155  0.2358
  777MOL0     H 2564   3.506   3.437   7.230 -1.1978 -0.6312 -0.2054
  778MOL0     O 2565   4.380   1.172   1.012  0.7433 -0.0552  0.0088
  778MOL0     C 2566   4.393   1.053   1.036  0.0221 -0.6288  0.8914
  778MOL0     O 2567   4.296   0.975   1.079  1.0182 -0.1747  0.3495
  778MOL0     C 2568   4.175   1.020   1.138 -0.3125 -0.6364 -0.1113
  778MOL0     C 2569   4.080   1.098   1.071 -0.5290  0.1851  0.2293
  778MOL0     C 2570   3.958   1.127   1.126  0.5970 -0.7044  0.2088
  778MOL0     C 2571   3.927   1.091   1.257  0.2432  0.5641 -0.1079
  778MOL0     O 2572   3.801   1.108   1.299  0.3753  0.4766  0.1466
  778MOL0     C 2573   3.791   1.171   1.431 -0.2382  0.4508 -0.0451
  778MOL0     C 2574   3.656   1.119   1.483 -0.3229  0.0205  0.7449
  778MOL0     C 2575   3.543   1.139   1.380  0.5484  0.5082 -0.5157
  778MOL0     C 2576   3.408   1.087   1.433 -0.3335 -0.1346  0.3750
  778MOL0     C 2577   3.296   1.189   1.407  0.7522 -1.0403 -0.3776
  778MOL0     C 2578   3.296   1.292   1.529 -0.1698  0.2594 -0.4572
  778MOL0     C 2579   3.163   1.372   1.516 -0.1650 -0.1208  0.4506
  778MOL0     C 2580   3.177   1.507   1.598 -0.5442  0.2286  0.5635
  778MOL0     N 2581   3.068   1.602   1.563 -0.0241 -0.9641  0.5814
  778MOL0     C 2582   2.933   1.577   1.565  0.2808 -0.5019 -0.0002
  778MOL0     C 2583   2.883   1.696   1.564 -0.3553 -0.6366  0.2914
  778MOL0     C 2584   2.733   1.724   1.560 -0.4792 -0.5717 -0.0087
  778MOL0     C 2585   2.699   1.860   1.497  0.5175 -0.2896  0.7503
  778MOL0     C 2586   2.540   1.865   1.471 -0.2837 -0.6542 -1.0124
  778MOL0     C 2587   2.457   1.925   1.591 -0.1665 -0.7184 -0.5379
  778MOL0     O 2588   2.328   1.857   1.579 -0.8648  0.5836 -0.6612
  778MOL0     C 2589   2.213   1.920   1.570  0.1657  0.8901  0.3355
  778MOL0     C 2590   2.096   1.844   1.592 -0.4875  0.8246  0.4614
  778MOL0     C 2591   1.970   1.894   1.565 -0.0166 -0.2305 -0.1432
  778MOL0     C 2592   1.954   2.020   1.508 -0.5209 -0.3129 -0.8899
  778MOL0     C 2593   1.823   2.080   1.483  0.3242  0.0219  0.0631
  778MOL0     O 2594   1.819   2.211   1.465 -0.1070  0.2901  0.2152
  778MOL0     C 2595   1.707   2.267   1.419  0.1774  0.2211 -0.5647
  778MOL0     C 2596   1.604   2.282   1.520  0.1769  0.2565  0.2938
  778MOL0     C 2597   1.484   2.346   1.491  1.0022 -0.0770 -0.2041
  778MOL0     C 2598   1.463   2.398   1.356  0.7114  1.2119 -0.2231
  778MOL0     O 2599   1.334   2.452   1.331 -0.3076  0.3757 -0.1920
  778MOL0     C 2600   1.218   2.432   1.416  0.5511  0.1447  1.0072
  778MOL0     C 2601   1.173   2.288   1.399  0.3136 -0.8522 -0.2593
  778MOL0     C 2602   1.052   2.268   1.495 -0.2043  0.5414 -0.9574
  778MOL0     C 2603   0.928   2.350   1.460 -0.3155 -0.3409  0.5072
  778MOL0     C 2604   0.806   2.305   1.535 -0.1461 -0.4778  0.1895
  778MOL0     C 2605   0.776   2.405   1.655  0.8373  0.5266 -0.8119
  778MOL0     C 2606   0.864   2.380   1.779 -0.0856 -0.8223 -0.0799
  778MOL0     C 2607   0.834   2.486   1.887 -0.5545  0.3431 -0.5329
  778MOL0    Cl 2608   0.692   2.424   1.977  0.4110  0.1302  0.2950
  778MOL0     C 2609   1.564   2.379   1.260 -0.2148  0.3267 -0.0154
  778MOL0     C 2610   1.679   2.309   1.283 -0.4817 -0.6908 -0.3798
  778MOL0     O 2611   1.727   2.008   1.477  0.2858  0.4782 -0.9408
  778MOL0     C 2612   2.071   2.094   1.487  0.4809  0.3764  0.4084
  778MOL0     C 2613   2.196   2.053   1.519  0.0523 -0.2929 -0.1833
  778MOL0     N 2614   2.982   1.798   1.563 -0.2345  0.0062 -0.3018
  778MOL0     N 2615   3.092   1.735   1.553  0.0914  1.2179 -0.6240
  778MOL0     C 2616   4.026   1.028   1.333  0.4628  1.1903 -0.3667
  778MOL0     C 2617   4.146   0.992   1.270 -0.4485  0.3698  1.0006
  778MOL0     C 2618   4.529   1.009   1.018  0.2598 -0.0057 -0.2930
  778MOL0     C 2619   4.631   1.098   0.985 -0.0779 -1.4686  0.4823
  778MOL0     C 2620   4.765   1.056   0.971 -0.5073  0.9212  0.0938
  778MOL0     C 2621   4.800   0.919   1.002  0.2628  0.2026 -0.6637
  778MOL0     O 2622   4.932   0.888   1.004 -0.3885 -0.4935 -0.0764
  778MOL0     C 2623   4.978   0.829   1.127 -0.1851 -0.1008  0.4585
  778MOL0     C 2624   5.103   0.751   1.086 -0.4697 -0.1400  0.6160
  778MOL0     C 2625   5.078   0.607   1.049 -0.2440  0.0150 -1.1966
  778MOL0     C 2626   4.991   0.580   0.920  0.3589 -0.3161  0.3739
  778MOL0     C 2627   5.026   0.447   0.891 -0.6642 -0.3411  0.4556
  778MOL0     C 2628   5.061   0.330   0.864  0.6637 -0.6428 -0.1479
  778MOL0     C 2629   4.694   0.827   1.046 -0.0368  0.0327 -0.6668
  778MOL0     C 2630   4.558   0.871   1.052 -0.7441 -0.2218 -0.0378
  778MOL0     H 2631   4.086   1.134   0.969  0.0253  0.2775  0.2929
  778MOL0     H 2632   3.882   1.171   1.062 -0.5319 -1.6280  0.8769
  778MOL0     H 2633   3.780   1.280   1.428 -1.5698  0.3915  1.6372
  778MOL0     H 2634   3.869   1.139   1.501  0.0997  1.3855  0.0233
  778MOL0     H 2635   3.615   1.156   1.578 -0.8826 -2.2542  1.4629
  778MOL0     H 2636   3.668   1.010   1.490 -2.6839 -0.4161 -1.0078
  778MOL0     H 2637   3.567   1.083   1.289 -1.6197  1.3097 -1.6614
  778MOL0     H 2638   3.544   1.246   1.356 -1.6104  0.4938 -0.8612
  778MOL0     H 2639   3.377   0.995   1.382  0.6786 -0.2992  0.0365
  778MOL0     H 2640   3.421   1.054   1.537 -0.2772 -0.1502  0.3626
  778MOL0     H 2641   3.201   1.139   1.384  1.4846 -1.7997 -1.9459
  778MOL0     H 2642   3.313   1.235   1.310 -1.2126 -1.4084 -0.9420
  778MOL0     H 2643   3.373   1.367   1.507  0.8965 -0.5387  0.4282
  778MOL0     H 2644   3.301   1.254   1.631 -2.9731  0.1493 -0.2758
  778MOL0     H 2645   3.146   1.399   1.411 -0.8121 -2.1670 -0.0227
  778MOL0     H 2646   3.081   1.309   1.550 -1.5887  0.4142 -1.8038
  778MOL0     H 2647   3.274   1.546   1.564 -0.3641 -1.9006 -1.6657
  778MOL0     H 2648   3.178   1.501   1.707 -0.8375 -1.0691  0.5129
  778MOL0     H 2649   2.880   1.482   1.562  1.7699 -1.4296  1.3153
  778MOL0     H 2650   2.692   1.731   1.661 -1.3773 -2.0146 -0.2568
  778MOL0     H 2651   2.685   1.643   1.505  0.5815  0.6418 -2.9630
  778MOL0     H 2652   2.744   1.857   1.397  2.4161  0.5989  1.5405
  778MOL0     H 2653   2.743   1.947   1.546 -2.5766 -0.0502  3.4072
  778MOL0     H 2654   2.521   1.929   1.385  0.3684  0.7618 -0.1414
  778MOL0     H 2655   2.506   1.762   1.457 -3.7326  0.3932 -1.0678
  778MOL0     H 2656   2.444   2.033   1.579  1.4799  0.0069  2.8818
  778MOL0     H 2657   2.499   1.897   1.688 -1.4186 -0.3801  0.1176
  778MOL0     H 2658   2.090   1.739   1.619 -4.2342  0.4410 -1.2284
  778MOL0     H 2659   1.884   1.831   1.587  0.2567 -0.8284 -0.7621
  778MOL0     H 2660   1.628   2.240   1.618 -0.8888 -0.7169  0.1552
  778MOL0     H 2661   1.408   2.355   1.567  1.0958 -0.6403 -0.0375
  778MOL0     H 2662   1.141   2.505   1.388  0.3099 -0.1002  1.0355
  778MOL0     H 2663   1.245   2.475   1.513  2.3338  5.4722 -1.4326
  778MOL0     H 2664   1.251   2.229   1.448  0.4660 -0.1752  0.3200
  778MOL0     H 2665   1.156   2.262   1.294  2.0695 -1.1836 -0.4963
  778MOL0     H 2666   1.082   2.282   1.599 -1.2156 -4.8997  0.4290
  778MOL0     H 2667   1.031   2.160   1.487 -1.9178  0.6900  0.7250
  778MOL0     H 2668   0.939   2.458   1.470 -0.9896 -0.2879  0.7261
  778MOL0     H 2669   0.909   2.327   1.354  1.7886  1.8557 -0.4532
  778MOL0     H 2670   0.802   2.207   1.584 -2.1370 -0.2111  0.6635
  778MOL0     H 2671   0.721   2.310   1.467  0.6128 -3.9511 -1.1987
  778MOL0     H 2672   0.669   2.406   1.678  0.5711 -0.3256 -1.9227
  778MOL0     H 2673   0.785   2.509   1.621 -2.3353  1.3945  0.6693
  778MOL0     H 2674   0.861   2.278   1.820 -1.5334 -1.4615 -1.6625
  778MOL0     H 2675   0.967   2.395   1.745  0.0287 -1.6638 -0.1477
  778MOL0     H 2676   0.808   2.581   1.840 -1.7940 -0.0499 -0.6743
  778MOL0     H 2677   0.920   2.496   1.953 -0.7710  0.4619 -0.2690
  778MOL0     H 2678   1.527   2.415   1.165 -3.2634  0.7671  1.2118
  778MOL0     H 2679   1.756   2.299   1.207  0.4912 -2.9127  0.8030
  778MOL0     H 2680   2.064   2.193   1.444  1.0892  0.8352  1.3543
  778MOL0     H 2681   2.275   2.126   1.501 -1.8495  1.2977 -2.7697
  778MOL0     H 2682   4.016   1.001   1.437  1.3650 -2.6520 -1.1061
  778MOL0     H 2683   4.217   0.933   1.327 -1.7166 -2.2099  0.0664
  778MOL0     H 2684   4.616   1.202   0.959 -0.3199 -1.0973  2.0426
  778MOL0     H 2685   4.839   1.129   0.940  3.6286 -3.5717 -1.8517
  778MOL0     H 2686   4.894   0.766   1.160 -0.2624 -0.9123 -1.1682
  778MOL0     H 2687   5.007   0.912   1.192 -0.1960  0.1532  0.1407
  778MOL0     H 2688   5.152   0.814   1.011 -0.1647 -2.0837 -0.8885
  778MOL0     H 2689   5.170   0.740   1.172 -0.0189  3.3687  0.8923
  778MOL0     H 2690   5.040   0.553   1.137 -1.6471 -0.1534 -1.8741
  778MOL0     H 2691   5.174   0.561   1.022  0.3473 -0.2335  1.0723
  778MOL0     H 2692   4.882   0.580   0.922  0.3697 -0.4128  1.3008
  778MOL0     H 2693   5.029   0.643   0.838  0.6405 -1.5624 -0.4839
  778MOL0     H 2694   5.095   0.232   0.836  0.9737  0.1728 -2.9462
  778MOL0     H 2695   4.722   0.723   1.060  1.5620  0.7838  2.6627
  778MOL0     H 2696   4.475   0.802   1.064 -2.9094  2.0865 -0.9100
  779MOL0     O 2697  10.892   3.247   6.743 -0.4410  1.2243  0.2424
  779MOL0     C 2698  10.902   3.167   6.647  0.6045 -0.5021  0.9461
  779MOL0     O 2699  10.794   3.126   6.577  0.5934 -0.0805 -0.0927
  779MOL0     C 2700  10.665   3.159   6.622 -0.1796 -0.3084  0.0772
  779MOL0     C 2701  10.583   3.075   6.689 -0.1686  0.0995 -0.2877
  779MOL0     C 2702  10.462   3.114   6.744 -0.0565  0.6419  0.0794
  779MOL0     C 2703  10.426   3.247   6.741 -0.4233  0.3512  0.6560
  779MOL0     O 2704  10.328   3.300   6.819 -0.8621 -0.4782  0.5168
  779MOL0     C 2705  10.230   3.381   6.758  0.1080 -0.2334  0.0542
  779MOL0     C 2706  10.203   3.518   6.834  0.2150  0.9981  0.1271
  779MOL0     C 2707  10.319   3.619   6.848 -0.3645  0.1554 -0.2778
  779MOL0     C 2708  10.281   3.751   6.924 -0.7028  1.5087 -0.5655
  779MOL0     C 2709  10.377   3.864   6.896  0.0175 -0.2050  0.6271
  779MOL0     C 2710  10.503   3.840   6.984  0.9376 -0.1146 -0.1876
  779MOL0     C 2711  10.588   3.969   6.989  0.3944  0.8472 -0.0037
  779MOL0     C 2712  10.707   3.958   7.089 -0.4420 -0.5336 -0.3362
  779MOL0     N 2713  10.782   3.840   7.053 -0.9320  0.0720 -0.4510
  779MOL0     C 2714  10.858   3.837   6.940  0.2076  0.2023 -0.5955
  779MOL0     C 2715  10.952   3.735   6.958  0.6223 -0.3550 -0.2508
  779MOL0     C 2716  11.041   3.674   6.850 -0.0494  0.2563 -0.7865
  779MOL0     C 2717  11.169   3.616   6.896 -0.3048  1.6537 -0.0385
  779MOL0     C 2718  11.227   3.536   6.779 -0.0454  1.0010  1.3668
  779MOL0     C 2719  11.350   3.454   6.826 -0.3120  0.5449  0.3990
  779MOL0     O 2720  11.477   3.524   6.808 -0.3198 -0.6711  0.4243
  779MOL0     C 2721  11.590   3.463   6.773 -1.0129 -0.0135  0.3375
  779MOL0     C 2722  11.604   3.323   6.801  0.0175 -0.0010  0.8358
  779MOL0     C 2723  11.731   3.259   6.779  0.5768  1.1791  0.9884
  779MOL0     C 2724  11.834   3.330   6.729  0.0168  0.3898  0.4718
  779MOL0     C 2725  11.966   3.256   6.712 -0.2281  0.1152 -0.0908
  779MOL0     O 2726  11.972   3.161   6.620 -0.9402 -0.4436  0.0336
  779MOL0     C 2727  12.078   3.074   6.596  0.1087  0.0138  0.9807
  779MOL0     C 2728  12.197   3.059   6.680 -0.2732  0.5368 -0.0088
  779MOL0     C 2729  12.291   2.958   6.662  0.2111  0.7221 -1.0887
  779MOL0     C 2730  12.275   2.871   6.561  0.1143 -0.1063  0.3220
  779MOL0     O 2731  12.368   2.773   6.556 -0.8165  0.1859 -0.3853
  779MOL0     C 2732  12.354   2.676   6.460  0.5713 -0.2511 -0.2478
  779MOL0     C 2733  12.468   2.578   6.470 -0.4077 -0.6961 -0.2970
  779MOL0     C 2734  12.451   2.480   6.352  0.2895 -0.3877 -0.2997
  779MOL0     C 2735  12.582   2.389   6.350 -0.1589  0.4243  0.6950
  779MOL0     C 2736  12.554   2.282   6.246  0.8106  0.0996 -0.3743
  779MOL0     C 2737  12.668   2.180   6.233 -0.0124  0.4866  0.1823
  779MOL0     C 2738  12.638   2.073   6.114 -0.1806 -0.3653 -0.3163
  779MOL0     C 2739  12.748   1.962   6.099  0.2093  0.2656  0.5178
  779MOL0    Cl 2740  12.897   2.033   6.054 -0.0525  0.1187  0.3200
  779MOL0     C 2741  12.169   2.892   6.472 -0.8827  0.8490 -0.4373
  779MOL0     C 2742  12.078   2.994   6.486 -0.0392 -1.1866  1.0625
  779MOL0     O 2743  12.055   3.290   6.790 -0.7906  0.3849  0.5520
  779MOL0     C 2744  11.820   3.464   6.699 -0.3760  0.0818  0.1421
  779MOL0     C 2745  11.697   3.533   6.718  0.4014 -0.6522  0.4405
  779MOL0     N 2746  10.930   3.680   7.083  0.0417 -0.2402 -0.0670
  779MOL0     N 2747  10.832   3.748   7.139  0.1843 -0.4119 -0.2215
  779MOL0     C 2748  10.500   3.341   6.667 -0.7861  0.5736  0.4859
  779MOL0     C 2749  10.615   3.292   6.602 -1.0749 -0.1628 -0.1871
  779MOL0     C 2750  11.031   3.137   6.600 -0.7246  0.6334  0.2915
  779MOL0     C 2751  11.129   3.100   6.693 -0.0385 -0.4153  0.2345
  779MOL0     C 2752  11.256   3.073   6.653 -1.0424  0.7604  0.5032
  779MOL0     C 2753  11.291   3.079   6.516 -0.3534 -0.1431 -0.1859
  779MOL0     O 2754  11.418   3.066   6.465 -0.5317 -0.6504 -0.8728
  779MOL0     C 2755  11.529   3.041   6.559  0.2599  0.0713 -0.3328
  779MOL0     C 2756  11.662   3.058   6.484  0.1475 -0.2610 -0.8058
  779MOL0     C 2757  11.715   2.928   6.427  0.3399  0.0559  0.1372
  779MOL0     C 2758  11.751   2.827   6.540  0.8609 -0.6554  0.8509
  779MOL0     C 2759  11.813   2.720   6.462 -0.1039 -0.2086  0.4621
  779MOL0     C 2760  11.866   2.633   6.395  0.1523 -0.0322  0.1267
  779MOL0     C 2761  11.188   3.100   6.427 -0.1670 -0.1236 -0.6444
  779MOL0     C 2762  11.061   3.136   6.463 -0.3560  0.4979 -0.6574
  779MOL0     H 2763  10.610   2.971   6.703 -1.8797 -0.2680  0.4872
  779MOL0     H 2764  10.408   3.042   6.804 -1.2771  0.7559 -0.8370
  779MOL0     H 2765  10.135   3.329   6.746 -0.1877  0.4221 -0.4921
  779MOL0     H 2766  10.266   3.416   6.660 -0.0573  1.4690  0.5820
  779MOL0     H 2767  10.165   3.491   6.933  1.2061 -0.9915  0.0230
  779MOL0     H 2768  10.116   3.564   6.786  0.7085  1.5536 -0.2443
  779MOL0     H 2769  10.348   3.651   6.748  1.5409  0.4251  0.3271
  779MOL0     H 2770  10.411   3.571   6.881 -1.0049  0.3640  1.9604
  779MOL0     H 2771  10.182   3.785   6.893 -1.6782  1.1493  1.9361
  779MOL0     H 2772  10.267   3.738   7.032  0.0134 -0.1507 -0.6347
  779MOL0     H 2773  10.330   3.958   6.928 -0.3833  1.0958 -3.2840
  779MOL0     H 2774  10.400   3.856   6.790 -1.3610 -0.0792  0.2978
  779MOL0     H 2775  10.569   3.765   6.939  2.8458  0.7965  0.9627
  779MOL0     H 2776  10.479   3.796   7.081  1.4873  0.3193  0.1494
  779MOL0     H 2777  10.616   4.005   6.890 -0.5770 -1.6785 -1.2676
  779MOL0     H 2778  10.529   4.053   7.027  0.2070  0.3915  0.7559
  779MOL0     H 2779  10.661   3.946   7.187  0.6549 -3.1427 -0.0642
  779MOL0     H 2780  10.780   4.039   7.095 -0.2848 -0.6036 -1.1664
  779MOL0     H 2781  10.831   3.905   6.860 -1.3971 -2.0360 -2.1018
  779MOL0     H 2782  11.063   3.747   6.772 -1.4080 -0.1287 -1.5766
  779MOL0     H 2783  10.979   3.597   6.802  0.3798 -0.7590  0.2549
  779MOL0     H 2784  11.165   3.550   6.983 -0.5012  0.9226 -0.5927
  779MOL0     H 2785  11.239   3.697   6.918  1.5491  0.8543 -2.5498
  779MOL0     H 2786  11.159   3.460   6.740  0.4397 -0.2424  2.8041
  779MOL0     H 2787  11.257   3.596   6.693 -0.5363 -1.0164 -0.2833
  779MOL0     H 2788  11.360   3.365   6.762  3.1981  0.1171  1.3378
  779MOL0     H 2789  11.341   3.431   6.932  1.4151  0.2798  0.5121
  779MOL0     H 2790  11.520   3.261   6.831 -0.3087 -0.9844 -1.8409
  779MOL0     H 2791  11.742   3.154   6.802  2.4479  0.9851 -0.5436
  779MOL0     H 2792  12.210   3.140   6.751  0.2067 -0.5336  1.1593
  779MOL0     H 2793  12.387   2.953   6.713 -0.0635 -1.8928 -0.6854
  779MOL0     H 2794  12.347   2.730   6.365 -0.1743 -2.5722 -1.5901
  779MOL0     H 2795  12.261   2.619   6.465  0.1906  0.2719 -1.1316
  779MOL0     H 2796  12.454   2.537   6.570 -1.3816  1.6154  0.5900
  779MOL0     H 2797  12.564   2.630   6.461 -0.8783  0.2859  0.1835
  779MOL0     H 2798  12.431   2.535   6.260  1.7795  1.6087  0.5150
  779MOL0     H 2799  12.363   2.417   6.370  0.1506 -0.5638 -1.5045
  779MOL0     H 2800  12.665   2.452   6.316  2.2329 -1.8764  1.8460
  779MOL0     H 2801  12.603   2.343   6.447 -0.4119 -0.2322  0.4476
  779MOL0     H 2802  12.520   2.329   6.154 -1.4104 -2.0042 -0.7300
  779MOL0     H 2803  12.468   2.226   6.284 -0.3210  1.1194 -1.3538
  779MOL0     H 2804  12.687   2.125   6.325 -1.7706  0.8012  0.7705
  779MOL0     H 2805  12.759   2.238   6.215  0.7206 -0.6177  0.2855
  779MOL0     H 2806  12.545   2.024   6.145  0.3917 -1.0817  0.3202
  779MOL0     H 2807  12.643   2.119   6.015 -0.1142  1.6997  0.5805
  779MOL0     H 2808  12.704   1.899   6.021 -0.6707 -0.8233  1.8319
  779MOL0     H 2809  12.752   1.887   6.179 -3.0386 -2.2050 -1.4178
  779MOL0     H 2810  12.154   2.818   6.394 -1.2608  0.6588 -0.1876
  779MOL0     H 2811  11.999   3.003   6.412 -0.9470 -1.5850  1.9588
  779MOL0     H 2812  11.903   3.525   6.663  0.2776  1.0996  3.1301
  779MOL0     H 2813  11.688   3.640   6.704  0.2426 -0.6371  0.6525
  779MOL0     H 2814  10.465   3.443   6.655 -1.1378  0.2642 -1.5989
  779MOL0     H 2815  10.678   3.361   6.546  0.3560  0.3653  1.9465
  779MOL0     H 2816  11.105   3.109   6.799 -0.8467 -1.2580  0.1361
  779MOL0     H 2817  11.330   3.050   6.730  0.8608 -0.8501 -1.6858
  779MOL0     H 2818  11.521   2.935   6.587 -0.7280 -0.5074 -2.5721
  779MOL0     H 2819  11.526   3.103   6.649  0.5871  0.5107 -0.6210
  779MOL0     H 2820  11.633   3.134   6.411 -2.3097 -0.6157 -0.2920
  779MOL0     H 2821  11.749   3.085   6.545  1.1126 -2.6468 -1.0142
  779MOL0     H 2822  11.803   2.940   6.362 -0.5616  0.1340 -1.1179
  779MOL0     H 2823  11.634   2.885   6.368  0.2733 -0.5261  0.6495
  779MOL0     H 2824  11.827   2.868   6.607  1.1448 -0.7952  0.6137
  779MOL0     H 2825  11.663   2.784   6.590 -0.2484 -0.1924 -0.6448
  779MOL0     H 2826  11.921   2.577   6.322 -0.2795  0.1046 -0.3194
  779MOL0     H 2827  11.217   3.103   6.322 -1.6429  3.6798 -1.0801
  779MOL0     H 2828  10.977   3.164   6.400 -3.0804 -0.9340  2.0734
  780MOL0     O 2829   8.861   2.176   4.665 -0.3211  0.9081  0.3669
  780MOL0     C 2830   8.906   2.289   4.688 -0.3969  0.0426  0.3780
  780MOL0     O 2831   8.836   2.394   4.734 -0.1196  0.3199  0.3586
  780MOL0     C 2832   8.697   2.377   4.738  0.1466 -0.4469 -0.4011
  780MOL0     C 2833   8.635   2.498   4.713 -0.5147 -0.5683  0.1804
  780MOL0     C 2834   8.497   2.510   4.715  0.1992  0.0252 -0.3899
  780MOL0     C 2835   8.414   2.395   4.735 -0.4995 -0.5282  0.8190
  780MOL0     O 2836   8.279   2.424   4.731  0.0688  0.1635 -0.3030
  780MOL0     C 2837   8.192   2.326   4.785  0.7290 -0.6463  1.1596
  780MOL0     C 2838   8.046   2.359   4.754 -0.2542  0.7324 -0.1617
  780MOL0     C 2839   8.013   2.512   4.771 -0.0286 -0.8379  0.3647
  780MOL0     C 2840   7.869   2.545   4.730  0.1514 -0.1934 -0.8439
  780MOL0     C 2841   7.837   2.670   4.814 -0.0921 -0.0816 -0.1228
  780MOL0     C 2842   7.694   2.725   4.795  0.0529 -1.5178  0.5098
  780MOL0     C 2843   7.573   2.614   4.816 -0.2227  0.2406 -0.7335
  780MOL0     C 2844   7.561   2.565   4.961  0.0631 -0.0108  0.3098
  780MOL0     N 2845   7.555   2.661   5.073 -0.1074 -0.1804 -0.2678
  780MOL0     C 2846   7.460   2.764   5.091 -0.7645  0.5718  0.3837
  780MOL0     C 2847   7.509   2.827   5.197 -0.1984 -0.2775  0.3455
  780MOL0     C 2848   7.470   2.959   5.246 -0.7263 -0.2422  0.2307
  780MOL0     C 2849   7.328   2.953   5.292  0.1724 -0.5606  0.2655
  780MOL0     C 2850   7.266   3.092   5.275 -0.3510 -0.0677  0.2888
  780MOL0     C 2851   7.125   3.088   5.340 -0.7175 -0.2287  0.9939
  780MOL0     O 2852   7.051   3.202   5.289 -0.3004  0.3921  0.0476
  780MOL0     C 2853   6.915   3.210   5.327 -0.1077  0.8578  0.8795
  780MOL0     C 2854   6.835   3.292   5.255  0.5919 -0.1551  0.3746
  780MOL0     C 2855   6.701   3.319   5.300  0.0703 -0.1356 -0.5041
  780MOL0     C 2856   6.653   3.248   5.415 -0.2183 -0.3767 -0.6937
  780MOL0     C 2857   6.518   3.287   5.472 -1.3474  0.1613  0.4884
  780MOL0     O 2858   6.466   3.397   5.432  0.0599  0.1319  0.0988
  780MOL0     C 2859   6.349   3.441   5.478  0.3413 -0.0203  0.2477
  780MOL0     C 2860   6.232   3.476   5.402  0.2364 -0.1113  0.5781
  780MOL0     C 2861   6.105   3.522   5.455  0.1726  0.8019  0.0203
  780MOL0     C 2862   6.088   3.549   5.593 -0.7020  0.8965 -0.4511
  780MOL0     O 2863   5.972   3.593   5.651  0.0450 -0.2373  0.1851
  780MOL0     C 2864   5.873   3.487   5.661  0.1249 -0.4903 -1.4182
  780MOL0     C 2865   5.756   3.536   5.579 -0.0847  0.1722  0.7445
  780MOL0     C 2866   5.647   3.429   5.577  0.3360  0.2360 -0.2827
  780MOL0     C 2867   5.516   3.461   5.506 -0.6660 -0.5729 -0.0556
  780MOL0     C 2868   5.404   3.352   5.507 -0.8423 -0.7175 -0.3142
  780MOL0     C 2869   5.455   3.214   5.480  0.2974  0.2550  0.2170
  780MOL0     C 2870   5.334   3.123   5.480  0.1743 -0.1405 -0.2317
  780MOL0     C 2871   5.367   2.974   5.492 -0.0896 -0.4738  0.2601
  780MOL0    Cl 2872   5.465   2.899   5.354  0.1442 -0.5960  0.2978
  780MOL0     C 2873   6.202   3.519   5.669  0.6844  0.2455 -0.6789
  780MOL0     C 2874   6.329   3.470   5.618 -0.3909  0.2454  0.4641
  780MOL0     O 2875   6.480   3.201   5.555  0.1771  0.3439  0.5152
  780MOL0     C 2876   6.737   3.160   5.487  0.9322  0.1591  0.3575
  780MOL0     C 2877   6.864   3.139   5.434 -0.9155 -0.2983 -0.5540
  780MOL0     N 2878   7.616   2.760   5.246 -0.3675 -0.5961 -0.3041
  780MOL0     N 2879   7.648   2.666   5.170  0.8551  1.0373 -0.2661
  780MOL0     C 2880   8.473   2.274   4.761  1.4620  0.5379  0.0050
  780MOL0     C 2881   8.615   2.263   4.768  0.2387  0.2913  0.0811
  780MOL0     C 2882   9.047   2.307   4.652  0.7248 -0.6915 -0.1785
  780MOL0     C 2883   9.132   2.393   4.731 -0.1177 -0.7037  0.9010
  780MOL0     C 2884   9.265   2.397   4.711 -0.2862  0.0423  1.0148
  780MOL0     C 2885   9.334   2.317   4.615  0.3558  0.3314  0.1698
  780MOL0     O 2886   9.465   2.313   4.591 -0.3192 -0.6556  0.1794
  780MOL0     C 2887   9.543   2.417   4.658  0.2168  0.0576  0.2281
  780MOL0     C 2888   9.682   2.438   4.597  0.3188 -0.1564  0.1083
  780MOL0     C 2889   9.757   2.559   4.668  0.5281  0.2105  1.0030
  780MOL0     C 2890   9.883   2.600   4.589  0.8242  0.2892 -0.2763
  780MOL0     C 2891   9.977   2.487   4.593  0.3435 -0.1923  0.3130
  780MOL0     C 2892  10.048   2.388   4.616 -0.3290  0.0357 -0.5071
  780MOL0     C 2893   9.249   2.228   4.549  0.0132  0.9790 -0.2544
  780MOL0     C 2894   9.108   2.225   4.559  0.7882 -0.2190  0.1635
  780MOL0     H 2895   8.699   2.585   4.704  1.3877 -1.7128  1.7285
  780MOL0     H 2896   8.444   2.604   4.701  0.0007 -0.0085  0.1046
  780MOL0     H 2897   8.195   2.337   4.894 -1.4673  2.3534  1.0270
  780MOL0     H 2898   8.208   2.222   4.755 -0.0036 -0.8426  1.4265
  780MOL0     H 2899   7.987   2.290   4.815 -0.5872 -0.4360 -1.7315
  780MOL0     H 2900   8.028   2.331   4.650 -2.4103 -0.6292  0.5134
  780MOL0     H 2901   8.081   2.565   4.704 -1.2670  1.0619  0.5655
  780MOL0     H 2902   8.038   2.546   4.872 -0.0225 -1.4195  0.5627
  780MOL0     H 2903   7.866   2.573   4.625 -0.4909  1.5681 -0.3832
  780MOL0     H 2904   7.808   2.456   4.749  2.4047 -1.7661 -0.4862
  780MOL0     H 2905   7.897   2.760   4.794  0.0504  0.0856  0.9577
  780MOL0     H 2906   7.844   2.641   4.920  0.2287  4.2032  1.2274
  780MOL0     H 2907   7.676   2.760   4.693  0.5797 -5.3980 -1.0926
  780MOL0     H 2908   7.676   2.808   4.864 -0.5250 -1.0960 -0.1424
  780MOL0     H 2909   7.479   2.660   4.784 -2.1432 -1.1258  2.3773
  780MOL0     H 2910   7.592   2.528   4.752  1.3980  0.0234  0.0032
  780MOL0     H 2911   7.643   2.496   4.986  0.8696  1.0035  0.5296
  780MOL0     H 2912   7.470   2.507   4.974 -0.2199  0.4478  0.3829
  780MOL0     H 2913   7.376   2.779   5.023 -0.0896 -1.5333 -1.0319
  780MOL0     H 2914   7.477   3.030   5.163 -0.1369  1.4660  1.6586
  780MOL0     H 2915   7.541   2.988   5.324  1.1206 -1.4209 -0.9489
  780MOL0     H 2916   7.334   2.927   5.398  2.4530  1.1399  0.6388
  780MOL0     H 2917   7.271   2.887   5.226 -1.1982  2.8985 -2.3889
  780MOL0     H 2918   7.326   3.169   5.324 -0.8638  1.1044 -0.8466
  780MOL0     H 2919   7.253   3.116   5.169 -1.1097  0.2993  0.4604
  780MOL0     H 2920   7.145   3.089   5.447  0.0492  0.6447  0.8639
  780MOL0     H 2921   7.065   3.003   5.306 -1.2662  0.8626 -0.9386
  780MOL0     H 2922   6.865   3.363   5.179 -3.1100  2.5899  1.1897
  780MOL0     H 2923   6.635   3.391   5.251 -2.6479 -1.8649  0.3581
  780MOL0     H 2924   6.254   3.495   5.297 -0.7337 -0.4866  0.2921
  780MOL0     H 2925   6.021   3.557   5.396 -0.3115  0.7300  0.6628
  780MOL0     H 2926   5.827   3.477   5.760 -1.4893  1.2697 -1.9418
  780MOL0     H 2927   5.920   3.393   5.629  2.2852 -0.1045  0.3434
  780MOL0     H 2928   5.789   3.550   5.476 -0.5168 -2.4969  0.1725
  780MOL0     H 2929   5.731   3.640   5.605  1.0173  0.4737  0.6266
  780MOL0     H 2930   5.622   3.402   5.680  0.8967  0.3966 -0.1015
  780MOL0     H 2931   5.682   3.340   5.524  0.5484 -0.7707  1.4650
  780MOL0     H 2932   5.484   3.558   5.545  0.1368 -1.0161  1.8276
  780MOL0     H 2933   5.540   3.474   5.400  0.7206 -0.1532  0.2792
  780MOL0     H 2934   5.326   3.379   5.436 -0.5504 -0.7996 -0.6670
  780MOL0     H 2935   5.358   3.352   5.606 -0.1101 -0.2655  0.0347
  780MOL0     H 2936   5.536   3.184   5.547  1.0951  0.1930 -0.7594
  780MOL0     H 2937   5.496   3.224   5.380  1.5090 -0.3949  0.6294
  780MOL0     H 2938   5.267   3.168   5.554  0.5715  0.9335 -0.4999
  780MOL0     H 2939   5.294   3.137   5.379 -0.9578 -0.6853  0.1199
  780MOL0     H 2940   5.275   2.915   5.500 -0.6967  0.4324  0.0419
  780MOL0     H 2941   5.426   2.961   5.583  0.2492  1.7861  0.4001
  780MOL0     H 2942   6.187   3.522   5.776 -0.7172 -4.7157 -0.5109
  780MOL0     H 2943   6.406   3.443   5.689 -0.3712 -0.4929  0.1815
  780MOL0     H 2944   6.704   3.106   5.575 -2.6356  1.0754 -0.2732
  780MOL0     H 2945   6.924   3.062   5.483 -2.3175 -1.1129 -0.0378
  780MOL0     H 2946   8.414   2.183   4.771  1.8212  0.3699  0.6737
  780MOL0     H 2947   8.663   2.168   4.792 -2.6018 -2.2093 -3.1852
  780MOL0     H 2948   9.096   2.457   4.812 -2.1765 -0.1462 -0.3838
  780MOL0     H 2949   9.315   2.470   4.774 -3.6053  1.9722  1.6842
  780MOL0     H 2950   9.557   2.391   4.763 -0.8576 -0.4398  0.2587
  780MOL0     H 2951   9.485   2.508   4.643 -0.6585 -0.2074  1.7600
  780MOL0     H 2952   9.736   2.343   4.605 -0.7413 -0.6923  1.2971
  780MOL0     H 2953   9.671   2.455   4.490 -2.7923 -1.5690  0.0898
  780MOL0     H 2954   9.772   2.524   4.771 -0.5322 -0.3089  0.9992
  780MOL0     H 2955   9.699   2.651   4.671  0.1886  0.0400 -0.0523
  780MOL0     H 2956   9.857   2.628   4.486 -2.5454 -1.2214  0.0191
  780MOL0     H 2957   9.928   2.687   4.636  2.7283 -1.5940  1.6124
  780MOL0     H 2958  10.114   2.305   4.634 -1.2962 -0.7593 -0.5439
  780MOL0     H 2959   9.305   2.161   4.484 -2.7986 -1.9758  0.0688
  780MOL0     H 2960   9.060   2.149   4.498 -0.8071 -0.3862  1.5582
  781MOL0     O 2961   4.304   6.590   8.209  0.8791  0.1798  0.3721
  781MOL0     C 2962   4.308   6.693   8.278 -0.4395  0.4716 -0.0992
  781MOL0     O 2963   4.428   6.725   8.351 -0.0776  0.0136 -0.0684
  781MOL0     C 2964   4.533   6.637   8.352  0.7383 -0.1549 -0.1892
  781MOL0     C 2965   4.605   6.610   8.238 -0.3148  0.4215 -0.2436
  781MOL0     C 2966   4.730   6.555   8.256  0.3544  0.0405 -0.2893
  781MOL0     C 2967   4.784   6.525   8.384  0.3655 -0.1550 -0.1095
  781MOL0     O 2968   4.908   6.466   8.399  0.8874 -0.2478  0.6791
  781MOL0     C 2969   4.982   6.506   8.509  0.0913  0.0549  0.4387
  781MOL0     C 2970   5.131   6.492   8.482 -1.2563 -0.3957  0.1037
  781MOL0     C 2971   5.224   6.562   8.592 -0.6939 -0.6020  0.1874
  781MOL0     C 2972   5.368   6.492   8.597  0.4473 -0.5745 -0.1391
  781MOL0     C 2973   5.362   6.396   8.711 -0.5557 -0.6674 -0.0316
  781MOL0     C 2974   5.404   6.452   8.841 -0.1221 -0.1363 -0.0551
  781MOL0     C 2975   5.404   6.340   8.947 -0.7187 -0.7573  0.6430
  781MOL0     C 2976   5.450   6.392   9.085  0.7760  0.0391  0.3312
  781MOL0     N 2977   5.463   6.279   9.183  0.5971 -0.3097  0.7824
  781MOL0     C 2978   5.489   6.307   9.313 -0.3444  1.1778 -0.7273
  781MOL0     C 2979   5.486   6.181   9.378 -0.5369 -0.4084 -0.8361
  781MOL0     C 2980   5.517   6.163   9.528  0.4021  0.0698  0.4446
  781MOL0     C 2981   5.401   6.092   9.590  0.1667  0.5305 -0.5416
  781MOL0     C 2982   5.272   6.162   9.581  0.6297 -0.9798  0.3083
  781MOL0     C 2983   5.162   6.101   9.663 -0.5564  0.8171 -0.0391
  781MOL0     O 2984   5.051   6.197   9.684 -0.5974  0.0332  0.1725
  781MOL0     C 2985   4.942   6.184   9.596 -0.5221  0.8164  0.4480
  781MOL0     C 2986   4.881   6.056   9.575 -0.0807 -0.3614 -0.0917
  781MOL0     C 2987   4.780   6.040   9.481  0.1449  0.6032 -0.3639
  781MOL0     C 2988   4.724   6.148   9.413  1.3533 -0.3006 -0.5665
  781MOL0     C 2989   4.610   6.122   9.316  0.4635 -0.1171  0.1690
  781MOL0     O 2990   4.579   5.999   9.275  0.3665  0.5074 -0.2577
  781MOL0     C 2991   4.512   5.977   9.154 -0.8587  0.4207  0.3849
  781MOL0     C 2992   4.594   5.977   9.044 -0.1610  0.2570 -0.4611
  781MOL0     C 2993   4.547   5.963   8.912 -0.4430  0.6765  1.1241
  781MOL0     C 2994   4.408   5.956   8.891  0.0586 -0.8149 -1.5167
  781MOL0     O 2995   4.365   5.933   8.763 -0.0338 -0.0125 -0.3379
  781MOL0     C 2996   4.272   6.028   8.719  0.3379 -0.4480 -0.0324
  781MOL0     C 2997   4.261   6.017   8.566  0.9389  0.0128  0.5599
  781MOL0     C 2998   4.169   6.135   8.493 -0.2025 -0.2740 -0.8765
  781MOL0     C 2999   4.020   6.116   8.530  0.4519  0.6280 -0.0257
  781MOL0     C 3000   3.924   6.165   8.427  0.3216  0.0675  0.2204
  781MOL0     C 3001   3.778   6.120   8.457  0.2862 -0.5683  0.0036
  781MOL0     C 3002   3.680   6.142   8.338 -0.0419  0.1878  0.3655
  781MOL0     C 3003   3.536   6.098   8.348 -0.5915  0.6054 -0.5744
  781MOL0    Cl 3004   3.433   6.203   8.243 -0.1987 -0.2138  0.2177
  781MOL0     C 3005   4.317   5.954   9.008 -0.5396 -0.6918 -0.1071
  781MOL0     C 3006   4.375   5.966   9.143  0.0265 -0.3057 -0.3696
  781MOL0     O 3007   4.554   6.217   9.268 -0.2818  0.1698  0.4941
  781MOL0     C 3008   4.773   6.274   9.435 -0.2948  0.0964 -0.7750
  781MOL0     C 3009   4.885   6.291   9.525  0.5190  0.3020 -0.3980
  781MOL0     N 3010   5.465   6.086   9.279 -0.6519 -0.0612  0.3191
  781MOL0     N 3011   5.448   6.149   9.163  0.2143  0.6829 -0.0319
  781MOL0     C 3012   4.708   6.546   8.501 -0.2446  0.3147 -0.0346
  781MOL0     C 3013   4.581   6.607   8.485 -0.3858 -0.2728 -0.3045
  781MOL0     C 3014   4.199   6.785   8.273  1.3506  0.5582  0.2925
  781MOL0     C 3015   4.077   6.762   8.207  0.5195  0.0555 -0.4968
  781MOL0     C 3016   3.982   6.871   8.197  0.3528  0.2311 -0.6313
  781MOL0     C 3017   3.991   6.991   8.276 -0.4227  0.5166  0.8097
  781MOL0     O 3018   3.892   7.094   8.273  0.1747  0.3150  0.0881
  781MOL0     C 3019   3.759   7.069   8.220  0.2070  0.8810  0.4025
  781MOL0     C 3020   3.743   7.117   8.078  0.4799 -0.1911 -1.2574
  781MOL0     C 3021   3.777   7.262   8.062  0.3242  0.8492  0.0137
  781MOL0     C 3022   3.845   7.287   7.928  0.7337 -0.0918 -0.5388
  781MOL0     C 3023   3.795   7.418   7.881  0.5823 -0.3088  0.0015
  781MOL0     C 3024   3.761   7.536   7.850 -0.1052  0.8511 -0.3951
  781MOL0     C 3025   4.110   7.014   8.347 -0.7891  0.0497  0.6718
  781MOL0     C 3026   4.205   6.913   8.342 -0.8771  0.2731 -0.1704
  781MOL0     H 3027   4.577   6.644   8.139  2.2708 -1.3581 -1.7388
  781MOL0     H 3028   4.792   6.535   8.169  2.1674 -1.9729  1.3555
  781MOL0     H 3029   4.965   6.440   8.594 -1.0964 -0.5346 -0.2418
  781MOL0     H 3030   4.959   6.607   8.544 -0.7648  0.8631 -2.2754
  781MOL0     H 3031   5.155   6.553   8.394 -0.3627 -0.9262 -0.0291
  781MOL0     H 3032   5.156   6.387   8.462  1.1623  0.0481  0.4746
  781MOL0     H 3033   5.178   6.564   8.691  1.6296 -0.3942  1.3405
  781MOL0     H 3034   5.230   6.668   8.568  2.2672 -0.6317  0.3612
  781MOL0     H 3035   5.377   6.435   8.505 -3.9432 -1.5240 -0.1749
  781MOL0     H 3036   5.451   6.562   8.616  2.0208 -2.8262  1.8676
  781MOL0     H 3037   5.435   6.320   8.680  0.3678  1.2198 -2.8509
  781MOL0     H 3038   5.270   6.338   8.721  1.7414 -4.3871  2.3226
  781MOL0     H 3039   5.328   6.526   8.868 -2.6466 -2.0301 -1.6284
  781MOL0     H 3040   5.507   6.489   8.833 -0.5797  1.6374  1.4071
  781MOL0     H 3041   5.309   6.286   8.955  0.2482 -2.4867  0.9491
  781MOL0     H 3042   5.470   6.263   8.906  2.1996  0.7715  2.1393
  781MOL0     H 3043   5.375   6.465   9.116 -0.6452 -1.3476  0.3256
  781MOL0     H 3044   5.548   6.440   9.081  0.4069  1.1810  2.8693
  781MOL0     H 3045   5.519   6.402   9.357  1.9589 -0.5175  1.7047
  781MOL0     H 3046   5.517   6.265   9.568 -3.9878  1.1889 -1.8048
  781MOL0     H 3047   5.606   6.100   9.532 -0.9523 -1.9254  0.2228
  781MOL0     H 3048   5.427   6.081   9.695 -0.7607 -0.4130 -0.3886
  781MOL0     H 3049   5.387   5.993   9.544  2.2266 -0.7818  1.4459
  781MOL0     H 3050   5.275   6.266   9.612 -1.4706 -1.2847  1.7849
  781MOL0     H 3051   5.233   6.163   9.479 -2.2357 -0.8996  1.3055
  781MOL0     H 3052   5.208   6.086   9.761 -2.8987  0.2743  1.0531
  781MOL0     H 3053   5.134   6.006   9.616  4.2968 -0.1686 -1.4311
  781MOL0     H 3054   4.905   5.980   9.649 -0.8087  2.3329  3.1704
  781MOL0     H 3055   4.733   5.945   9.460 -1.7132  1.4819 -0.4387
  781MOL0     H 3056   4.702   5.984   9.058 -0.2749 -0.6458  1.0643
  781MOL0     H 3057   4.617   5.962   8.829  0.1344 -0.3989  1.6038
  781MOL0     H 3058   4.302   6.131   8.736  1.1455 -0.9146  1.5747
  781MOL0     H 3059   4.178   6.003   8.770 -0.5485  1.6814 -0.5089
  781MOL0     H 3060   4.237   5.911   8.554 -0.2210  0.1571  1.4188
  781MOL0     H 3061   4.364   6.030   8.533  1.0450  0.6229  1.1078
  781MOL0     H 3062   4.177   6.110   8.387  0.3766 -2.0909 -0.4471
  781MOL0     H 3063   4.202   6.235   8.521  1.4464 -0.9357 -0.3175
  781MOL0     H 3064   4.006   6.008   8.534 -4.0702  1.0560 -0.0679
  781MOL0     H 3065   3.997   6.152   8.631 -0.7406  1.2791 -0.5134
  781MOL0     H 3066   3.948   6.126   8.328  1.7386  1.6889 -0.1237
  781MOL0     H 3067   3.914   6.273   8.409 -2.3901  0.0184  0.9450
  781MOL0     H 3068   3.747   6.171   8.549  1.5842 -1.6463  1.0779
  781MOL0     H 3069   3.779   6.015   8.490 -0.5648 -1.0824 -1.5060
  781MOL0     H 3070   3.675   6.251   8.334  0.0920  0.1613 -0.8291
  781MOL0     H 3071   3.713   6.102   8.242 -2.7595 -0.9446 -0.2095
  781MOL0     H 3072   3.502   6.105   8.452  3.0461 -1.1654  0.9067
  781MOL0     H 3073   3.529   5.992   8.324  0.3830  0.3116  0.3253
  781MOL0     H 3074   4.211   5.944   8.987 -0.5118 -0.5485 -0.3193
  781MOL0     H 3075   4.297   5.959   9.218 -0.9022 -1.3822 -1.3942
  781MOL0     H 3076   4.740   6.360   9.378  1.8353 -0.0987 -2.4186
  781MOL0     H 3077   4.928   6.391   9.526 -0.7353  0.8650 -0.8856
  781MOL0     H 3078   4.744   6.525   8.601 -1.0091  0.3405  0.2543
  781MOL0     H 3079   4.503   6.622   8.560 -1.6251 -5.0666 -0.2695
  781MOL0     H 3080   4.055   6.665   8.162  0.9424 -0.9728  1.3905
  781MOL0     H 3081   3.901   6.849   8.128 -0.5518  1.4839 -0.0234
  781MOL0     H 3082   3.704   7.132   8.291 -0.7986  3.0948 -2.1527
  781MOL0     H 3083   3.740   6.961   8.226 -0.6374  0.9286 -1.0499
  781MOL0     H 3084   3.808   7.052   8.020  0.1001 -2.5498  0.7933
  781MOL0     H 3085   3.640   7.104   8.044  1.2034 -0.6268 -3.4360
  781MOL0     H 3086   3.846   7.292   8.141 -1.9324 -0.6930  2.7475
  781MOL0     H 3087   3.685   7.316   8.085 -1.0943 -1.7981  0.9466
  781MOL0     H 3088   3.953   7.288   7.945  0.7650  1.3418 -0.6388
  781MOL0     H 3089   3.806   7.218   7.852 -0.9791  1.2724 -0.9828
  781MOL0     H 3090   3.719   7.634   7.841 -1.8635  0.0808 -0.9411
  781MOL0     H 3091   4.127   7.103   8.406  0.8689 -0.0614  0.4011
  781MOL0     H 3092   4.296   6.926   8.400 -1.5135 -3.2969  1.8615
  782MOL0     O 3093   4.433   6.944   2.174  0.1330  0.1160  0.4645
  782MOL0     C 3094   4.465   7.054   2.136  0.2418 -0.7490  0.4972
  782MOL0     O 3095   4.387   7.142   2.082  0.5883 -0.3329 -0.6501
  782MOL0     C 3096   4.258   7.123   2.036  0.4124 -0.6009  0.3773
  782MOL0     C 3097   4.151   7.192   2.096  0.3791  0.8486 -0.3073
  782MOL0     C 3098   4.012   7.176   2.055  0.0740  0.0714 -0.3263
  782MOL0     C 3099   3.991   7.085   1.942 -0.6295  0.9327  0.8395
  782MOL0     O 3100   3.861   7.064   1.892 -0.7533  0.0220 -0.2199
  782MOL0     C 3101   3.741   7.087   1.967  1.5375  0.2484  0.1745
  782MOL0     C 3102   3.616   7.060   1.887  0.7219 -0.6051 -0.0360
  782MOL0     C 3103   3.593   7.179   1.791  0.6980 -0.2429  0.0569
  782MOL0     C 3104   3.475   7.155   1.707  0.0007 -0.1966  0.2151
  782MOL0     C 3105   3.436   7.286   1.644  0.3602 -0.7873 -0.1835
  782MOL0     C 3106   3.329   7.365   1.721  0.0757  0.0961  0.4248
  782MOL0     C 3107   3.185   7.303   1.699  0.4410  0.1468  0.2841
  782MOL0     C 3108   3.144   7.277   1.550 -0.2083  0.3085  0.2408
  782MOL0     N 3109   3.003   7.224   1.555 -0.3040  0.2417  0.6411
  782MOL0     C 3110   2.902   7.281   1.491  1.0305 -0.8453  0.7786
  782MOL0     C 3111   2.796   7.222   1.531  1.0953  0.6855 -0.0811
  782MOL0     C 3112   2.663   7.253   1.483  0.1257  0.3124 -0.2694
  782MOL0     C 3113   2.624   7.400   1.489 -0.5546 -0.6164  0.6569
  782MOL0     C 3114   2.592   7.455   1.630  0.6804  0.2492 -0.1182
  782MOL0     C 3115   2.474   7.398   1.709 -0.4367  0.2279 -0.2512
  782MOL0     O 3116   2.372   7.371   1.614  0.2561 -0.0387  0.5126
  782MOL0     C 3117   2.269   7.285   1.625  0.4503 -0.2114  0.8517
  782MOL0     C 3118   2.156   7.322   1.543 -0.4323 -0.7327  0.1514
  782MOL0     C 3119   2.038   7.248   1.550 -0.0293  0.1562  0.0004
  782MOL0     C 3120   2.030   7.142   1.643 -0.6308  0.8434 -0.3407
  782MOL0     C 3121   1.898   7.070   1.658 -0.9229  0.5542  0.1842
  782MOL0     O 3122   1.797   7.123   1.584  0.5134 -0.4115  0.7169
  782MOL0     C 3123   1.669   7.071   1.586  0.3867  0.3917 -0.2279
  782MOL0     C 3124   1.641   6.935   1.586 -0.5314 -1.0060  0.2537
  782MOL0     C 3125   1.515   6.880   1.578  1.2691 -0.7705  0.1512
  782MOL0     C 3126   1.400   6.966   1.574  0.4461 -0.8411 -0.2580
  782MOL0     O 3127   1.262   6.928   1.570 -0.3858  0.3315  0.5709
  782MOL0     C 3128   1.225   6.802   1.634 -0.5910 -0.2880 -0.0711
  782MOL0     C 3129   1.073   6.774   1.655  0.4867 -0.1746 -0.0774
  782MOL0     C 3130   1.005   6.798   1.525 -0.7586  0.4314  0.2642
  782MOL0     C 3131   0.849   6.767   1.540 -0.4282 -0.6995  0.7015
  782MOL0     C 3132   0.788   6.775   1.402  0.0816  0.4966  1.0272
  782MOL0     C 3133   0.665   6.681   1.389  0.9233  0.7914  0.1281
  782MOL0     C 3134   0.637   6.643   1.246 -1.2447  0.2412 -0.9135
  782MOL0     C 3135   0.499   6.582   1.240 -0.7669 -0.7089 -0.8144
  782MOL0    Cl 3136   0.447   6.529   1.071 -0.0770 -0.0580 -0.0811
  782MOL0     C 3137   1.427   7.099   1.576  0.9956 -0.0442 -0.2260
  782MOL0     C 3138   1.561   7.162   1.581  0.5074  0.4801  0.4884
  782MOL0     O 3139   1.884   6.981   1.745 -0.7343 -0.6509  0.1237
  782MOL0     C 3140   2.140   7.106   1.726  0.6375 -0.1443 -0.4836
  782MOL0     C 3141   2.256   7.178   1.716 -0.0126  1.3358 -0.0217
  782MOL0     N 3142   2.831   7.120   1.620 -0.5133 -0.3140  0.0440
  782MOL0     N 3143   2.957   7.118   1.626 -0.6824  0.3754 -0.0843
  782MOL0     C 3144   4.100   7.016   1.882  0.5388  0.2550 -0.4710
  782MOL0     C 3145   4.234   7.037   1.927  1.9226  0.2221 -0.9348
  782MOL0     C 3146   4.605   7.092   2.169  0.6133  0.3910  0.3174
  782MOL0     C 3147   4.634   7.231   2.178  0.2999  0.4546  0.0980
  782MOL0     C 3148   4.769   7.269   2.191  0.4486  0.1005  0.5980
  782MOL0     C 3149   4.872   7.176   2.201  0.3384 -0.4608  1.3564
  782MOL0     O 3150   4.993   7.232   2.206  0.6905  0.3323 -0.6285
  782MOL0     C 3151   5.101   7.152   2.255 -0.3990  0.4786 -0.0505
  782MOL0     C 3152   5.222   7.232   2.289  0.2837  0.4493 -0.8948
  782MOL0     C 3153   5.202   7.323   2.409  0.5285  0.0794 -0.1704
  782MOL0     C 3154   5.349   7.365   2.461  0.0087  0.0652  0.1583
  782MOL0     C 3155   5.349   7.442   2.589  0.0913 -0.4955  0.7218
  782MOL0     C 3156   5.316   7.504   2.688  0.6039  0.2975 -0.3311
  782MOL0     C 3157   4.838   7.040   2.198 -0.5503 -0.7209 -0.9890
  782MOL0     C 3158   4.709   6.998   2.181  0.1317  0.0970  0.4781
  782MOL0     H 3159   4.175   7.247   2.186  2.7438  0.2674 -0.4981
  782MOL0     H 3160   3.928   7.227   2.102  1.4996  1.4949  0.7737
  782MOL0     H 3161   3.735   7.190   2.003 -1.2682 -0.1025  0.9490
  782MOL0     H 3162   3.724   7.021   2.052  0.6817  2.2436  1.6254
  782MOL0     H 3163   3.531   7.045   1.954  0.8343 -2.0546 -0.1989
  782MOL0     H 3164   3.623   6.969   1.827 -2.3949 -0.4376 -0.8199
  782MOL0     H 3165   3.675   7.191   1.719  1.7102  0.1824  1.2566
  782MOL0     H 3166   3.582   7.270   1.849  0.7629 -1.3908  1.9496
  782MOL0     H 3167   3.507   7.079   1.635 -0.3797 -0.6705  0.5407
  782MOL0     H 3168   3.387   7.116   1.758  0.5744 -1.4564  0.2910
  782MOL0     H 3169   3.404   7.263   1.542  1.3366 -0.4821 -0.5672
  782MOL0     H 3170   3.528   7.344   1.632 -0.4431  0.1000 -2.8722
  782MOL0     H 3171   3.327   7.462   1.670  2.4588  0.7406  1.3811
  782MOL0     H 3172   3.367   7.388   1.821 -0.0080  0.2562  0.4212
  782MOL0     H 3173   3.174   7.207   1.750 -0.7956 -0.3497 -0.8541
  782MOL0     H 3174   3.116   7.379   1.737 -1.6122 -0.4046 -2.0674
  782MOL0     H 3175   3.204   7.200   1.501  0.4688  0.5717  0.6546
  782MOL0     H 3176   3.132   7.365   1.486 -5.4070  0.8877  1.5292
  782MOL0     H 3177   2.903   7.376   1.439 -0.7696 -2.0223 -1.6327
  782MOL0     H 3178   2.593   7.195   1.544 -0.5726  1.4587  0.0584
  782MOL0     H 3179   2.659   7.215   1.380 -1.4905  0.0435 -0.1345
  782MOL0     H 3180   2.539   7.419   1.423  0.1884  2.3068  0.4302
  782MOL0     H 3181   2.700   7.464   1.444 -0.3402 -3.5691 -3.8357
  782MOL0     H 3182   2.685   7.440   1.686 -0.8807 -1.5365  2.2203
  782MOL0     H 3183   2.574   7.563   1.627  0.9794  0.3315  0.7435
  782MOL0     H 3184   2.426   7.456   1.788  1.2289  0.6762  0.4752
  782MOL0     H 3185   2.512   7.301   1.741  2.6493  2.1381  2.4053
  782MOL0     H 3186   2.170   7.407   1.478 -3.3225 -0.1280  0.1580
  782MOL0     H 3187   1.955   7.275   1.485 -0.0265 -0.0116 -0.0726
  782MOL0     H 3188   1.723   6.865   1.593 -1.1751 -1.7288  0.7251
  782MOL0     H 3189   1.500   6.773   1.583  2.6118 -0.9425  1.1426
  782MOL0     H 3190   1.282   6.808   1.727  1.7329  0.5405 -1.4599
  782MOL0     H 3191   1.257   6.709   1.586 -1.8652 -2.9622  3.7140
  782MOL0     H 3192   1.038   6.848   1.728  0.9967 -0.6367  0.6568
  782MOL0     H 3193   1.042   6.676   1.694  0.2067  0.2119  0.7017
  782MOL0     H 3194   1.053   6.735   1.450  0.8627  2.9720 -0.9949
  782MOL0     H 3195   1.024   6.902   1.496  0.8771  0.1664  0.3228
  782MOL0     H 3196   0.829   6.666   1.576  0.9879 -0.4058  2.4939
  782MOL0     H 3197   0.804   6.837   1.612 -1.0666  1.6260 -1.7992
  782MOL0     H 3198   0.859   6.738   1.327 -2.7765 -2.2903 -0.4996
  782MOL0     H 3199   0.765   6.876   1.365  0.6006 -0.3307 -1.8371
  782MOL0     H 3200   0.588   6.746   1.432  2.0186  2.4153 -0.2698
  782MOL0     H 3201   0.682   6.585   1.439 -0.3759  0.7430  0.5178
  782MOL0     H 3202   0.633   6.736   1.190 -0.7742 -0.3648 -1.9807
  782MOL0     H 3203   0.715   6.586   1.195 -0.0014  2.4402 -1.6042
  782MOL0     H 3204   0.442   6.669   1.274  0.4155 -0.2591  0.1012
  782MOL0     H 3205   0.482   6.515   1.324  1.0571  0.8622  0.9045
  782MOL0     H 3206   1.353   7.175   1.553  3.2243  2.9518  1.6992
  782MOL0     H 3207   1.564   7.270   1.588 -0.1011  0.4071  2.9022
  782MOL0     H 3208   2.117   7.036   1.805 -2.5624  3.2923  2.0239
  782MOL0     H 3209   2.344   7.155   1.775  0.5431 -1.1759 -1.6368
  782MOL0     H 3210   4.071   6.955   1.796  1.0228 -0.9058  0.1629
  782MOL0     H 3211   4.314   6.975   1.886 -0.1867 -4.7241  1.5677
  782MOL0     H 3212   4.572   7.319   2.160  0.7868  1.0518  1.2018
  782MOL0     H 3213   4.799   7.373   2.188  0.2930  0.1515  0.7517
  782MOL0     H 3214   5.140   7.085   2.178  1.4131  3.8660 -2.3653
  782MOL0     H 3215   5.064   7.104   2.346  2.3005  0.8821  1.3713
  782MOL0     H 3216   5.307   7.166   2.312  0.6522  0.8011 -1.2318
  782MOL0     H 3217   5.253   7.291   2.202 -0.7479  0.8260 -1.0151
  782MOL0     H 3218   5.144   7.266   2.482 -2.4463  0.1379 -2.3428
  782MOL0     H 3219   5.134   7.403   2.381  0.8884 -0.5991 -3.3892
  782MOL0     H 3220   5.403   7.274   2.486 -3.0210 -1.8075  0.4480
  782MOL0     H 3221   5.404   7.423   2.386 -1.0162  1.0288  0.1246
  782MOL0     H 3222   5.293   7.550   2.782 -0.0483  3.6712 -1.9604
  782MOL0     H 3223   4.905   6.955   2.194 -1.8395 -1.8209 -0.0383
  782MOL0     H 3224   4.691   6.891   2.182 -0.1809  0.0732  3.6558
  783MOL0     O 3225   4.954   6.352   3.582  0.0440  0.7245  1.2475
  783MOL0     C 3226   4.944   6.407   3.468 -1.0265 -0.3728  0.3714
  783MOL0     O 3227   4.837   6.414   3.383 -0.1809  0.3114  0.3548
  783MOL0     C 3228   4.734   6.339   3.426  0.3993  1.0648 -0.6364
  783MOL0     C 3229   4.719   6.221   3.352 -0.4448 -0.3823  0.2652
  783MOL0     C 3230   4.615   6.128   3.380  0.7101  0.2748 -1.1007
  783MOL0     C 3231   4.524   6.153   3.483 -1.1431  0.5396 -0.2841
  783MOL0     O 3232   4.427   6.060   3.518  0.6941 -0.0603  0.1469
  783MOL0     C 3233   4.310   6.108   3.584  0.3173  0.9842 -0.4130
  783MOL0     C 3234   4.186   6.015   3.575  0.9026  0.5061  0.2299
  783MOL0     C 3235   4.165   5.961   3.438 -0.3759  0.6901 -0.0515
  783MOL0     C 3236   4.034   5.896   3.419 -0.1679  0.4347 -1.0117
  783MOL0     C 3237   3.991   5.861   3.276  0.8031 -0.0886 -0.3337
  783MOL0     C 3238   3.884   5.756   3.266 -0.5990 -0.1930 -0.3324
  783MOL0     C 3239   3.828   5.752   3.127  0.3296 -0.1886  0.0936
  783MOL0     C 3240   3.672   5.750   3.120 -0.2033  0.0795  0.7536
  783MOL0     N 3241   3.611   5.629   3.181  0.4251 -0.9613  1.0532
  783MOL0     C 3242   3.666   5.509   3.198 -0.0177  1.4828  0.3782
  783MOL0     C 3243   3.566   5.427   3.236 -0.2709 -0.7736 -1.1801
  783MOL0     C 3244   3.574   5.277   3.236  0.0869  0.4507 -0.2878
  783MOL0     C 3245   3.431   5.208   3.238  0.7106 -0.5013  0.5779
  783MOL0     C 3246   3.351   5.208   3.365 -0.6313  0.0095 -0.3539
  783MOL0     C 3247   3.380   5.084   3.441 -0.4740  0.0631 -0.0446
  783MOL0     O 3248   3.334   4.958   3.382 -0.2380 -0.4484  1.1149
  783MOL0     C 3249   3.234   4.953   3.292  0.1318 -0.1189  0.6351
  783MOL0     C 3250   3.104   4.982   3.326 -0.1109  0.8069  0.9207
  783MOL0     C 3251   3.008   4.954   3.230  1.2492  0.4741  0.9312
  783MOL0     C 3252   3.032   4.930   3.095  0.2603 -0.8336 -0.2806
  783MOL0     C 3253   2.913   4.897   3.010 -0.2025 -0.9038 -0.6592
  783MOL0     O 3254   2.782   4.910   3.048  0.3307  0.3451 -0.3656
  783MOL0     C 3255   2.677   4.895   2.964  0.3827  0.2777 -0.4267
  783MOL0     C 3256   2.556   4.867   3.026  0.2568  0.3006  0.2572
  783MOL0     C 3257   2.437   4.836   2.947  0.2140 -0.2753 -0.4231
  783MOL0     C 3258   2.432   4.840   2.808  0.0384  0.0643 -0.5404
  783MOL0     O 3259   2.316   4.811   2.738 -0.0753  0.7267  0.1837
  783MOL0     C 3260   2.285   4.893   2.627  0.0408  0.5371  0.8532
  783MOL0     C 3261   2.134   4.884   2.598  0.1616  0.3467  0.1636
  783MOL0     C 3262   2.071   5.009   2.526 -0.4720 -0.7419 -0.1669
  783MOL0     C 3263   1.915   5.007   2.517  0.4296  0.0871 -0.4135
  783MOL0     C 3264   1.864   5.103   2.414  0.5113  0.0099 -0.4337
  783MOL0     C 3265   1.719   5.086   2.373 -0.5357  0.1027 -0.9102
  783MOL0     C 3266   1.659   5.202   2.290  0.3308  0.0970  0.4331
  783MOL0     C 3267   1.523   5.176   2.232 -0.2841  0.5130  0.1338
  783MOL0    Cl 3268   1.403   5.120   2.358 -0.1704 -0.0316  0.1519
  783MOL0     C 3269   2.553   4.874   2.745  0.2804  0.2534 -0.0520
  783MOL0     C 3270   2.670   4.895   2.821 -0.3210 -0.3967  0.4086
  783MOL0     O 3271   2.951   4.840   2.911  0.0422  0.4729  0.1279
  783MOL0     C 3272   3.170   4.914   3.064  0.0344 -0.0663 -0.6630
  783MOL0     C 3273   3.266   4.919   3.159  0.4476  0.0762  0.3269
  783MOL0     N 3274   3.451   5.507   3.257 -0.0812  0.2274  0.2514
  783MOL0     N 3275   3.484   5.629   3.218  1.2755  0.5559  0.2379
  783MOL0     C 3276   4.547   6.275   3.562 -0.7043 -0.9163  0.1836
  783MOL0     C 3277   4.654   6.367   3.535  0.1696  0.3957 -0.7390
  783MOL0     C 3278   5.071   6.481   3.433 -0.7602 -0.0899  0.2561
  783MOL0     C 3279   5.193   6.437   3.492 -0.2797  0.4415 -0.4019
  783MOL0     C 3280   5.307   6.499   3.446  0.0460  0.2720 -0.7539
  783MOL0     C 3281   5.312   6.595   3.345  0.6689 -0.7430  0.3859
  783MOL0     O 3282   5.428   6.646   3.301 -0.2190 -0.4709 -0.2202
  783MOL0     C 3283   5.441   6.687   3.160  0.1463 -0.6172  0.6044
  783MOL0     C 3284   5.589   6.692   3.101 -0.2522  0.6631  0.4340
  783MOL0     C 3285   5.677   6.789   3.189 -0.2955  0.0651  0.4949
  783MOL0     C 3286   5.797   6.839   3.102 -0.3086  0.2668  0.1631
  783MOL0     C 3287   5.913   6.752   3.084  0.4693  0.2392  0.1561
  783MOL0     C 3288   6.002   6.676   3.063  0.5633  0.4783 -0.3115
  783MOL0     C 3289   5.193   6.639   3.295  0.4389 -0.0314  0.4276
  783MOL0     C 3290   5.072   6.583   3.335 -0.6912 -0.2856  0.0817
  783MOL0     H 3291   4.782   6.207   3.266 -1.4392  0.3758 -0.6215
  783MOL0     H 3292   4.587   6.047   3.312 -0.3773  1.2342 -1.8483
  783MOL0     H 3293   4.293   6.208   3.543 -1.0031  0.7354 -0.5394
  783MOL0     H 3294   4.337   6.117   3.689 -0.6136 -0.4873 -0.0114
  783MOL0     H 3295   4.097   6.062   3.617  2.1158 -0.2938  4.2037
  783MOL0     H 3296   4.204   5.927   3.637  2.5418  0.1779 -0.6454
  783MOL0     H 3297   4.247   5.891   3.421 -0.3147  0.8330 -0.3614
  783MOL0     H 3298   4.165   6.045   3.368 -0.8915  1.9431  1.3870
  783MOL0     H 3299   4.033   5.808   3.485 -2.4538  1.2677  0.1836
  783MOL0     H 3300   3.953   5.963   3.452  0.8473  1.8206 -1.2506
  783MOL0     H 3301   4.081   5.837   3.218  1.7252  1.2805  0.4936
  783MOL0     H 3302   3.949   5.954   3.237 -1.1674  0.4177  2.6699
  783MOL0     H 3303   3.803   5.763   3.340  2.0962 -3.6894  3.3597
  783MOL0     H 3304   3.921   5.657   3.294 -0.5896 -0.1653 -0.2436
  783MOL0     H 3305   3.873   5.836   3.074 -1.1744 -0.2939 -1.4231
  783MOL0     H 3306   3.870   5.663   3.079 -1.2286  0.0573 -1.8467
  783MOL0     H 3307   3.652   5.757   3.012 -0.3015  1.5165  0.8461
  783MOL0     H 3308   3.627   5.840   3.163  1.2781  1.1564  0.1224
  783MOL0     H 3309   3.773   5.490   3.189 -0.4435 -0.7039 -0.8652
  783MOL0     H 3310   3.631   5.234   3.319 -1.1560 -0.1788  0.2767
  783MOL0     H 3311   3.613   5.253   3.137 -1.9533 -3.3375 -0.3775
  783MOL0     H 3312   3.435   5.106   3.199  0.5424 -0.0314 -0.7342
  783MOL0     H 3313   3.367   5.262   3.168 -1.7947 -1.3760  2.0729
  783MOL0     H 3314   3.372   5.300   3.421 -2.5276 -0.8929  1.9573
  783MOL0     H 3315   3.244   5.218   3.347 -0.6113  3.2200  0.6603
  783MOL0     H 3316   3.320   5.102   3.531  1.0831  0.8376  0.8788
  783MOL0     H 3317   3.488   5.080   3.458 -0.1156 -0.7956 -2.1422
  783MOL0     H 3318   3.069   5.019   3.422 -1.7370  0.4966  0.4934
  783MOL0     H 3319   2.906   4.985   3.254  0.6189  1.5381 -2.5552
  783MOL0     H 3320   2.547   4.876   3.134 -0.4033 -3.4184  0.6508
  783MOL0     H 3321   2.339   4.832   2.994  0.7562 -1.5145  0.6760
  783MOL0     H 3322   2.337   4.851   2.540 -1.6405 -4.6471  2.0120
  783MOL0     H 3323   2.321   4.992   2.657  0.5362 -0.0220  2.2141
  783MOL0     H 3324   2.092   4.857   2.696 -0.9923  0.1635 -0.3688
  783MOL0     H 3325   2.112   4.791   2.544  1.8466 -0.6513  1.1276
  783MOL0     H 3326   2.115   5.020   2.426 -0.9990 -0.4829 -0.3752
  783MOL0     H 3327   2.106   5.093   2.587  0.0303 -0.8983 -0.2313
  783MOL0     H 3328   1.875   4.910   2.484 -0.9119  0.8919 -1.2952
  783MOL0     H 3329   1.874   5.015   2.618 -1.5696 -1.6290 -0.9999
  783MOL0     H 3330   1.929   5.117   2.327 -0.1424 -3.2478 -1.5937
  783MOL0     H 3331   1.868   5.203   2.460  2.7676 -0.7362  1.2054
  783MOL0     H 3332   1.662   5.056   2.461  2.3875  0.6123  1.2853
  783MOL0     H 3333   1.704   5.000   2.308  1.4782 -1.5906  0.7523
  783MOL0     H 3334   1.653   5.290   2.355 -1.0780  1.5208 -1.5237
  783MOL0     H 3335   1.735   5.227   2.216  1.3148 -1.2549  0.9466
  783MOL0     H 3336   1.517   5.106   2.149  1.5981  1.3630 -0.7901
  783MOL0     H 3337   1.493   5.275   2.198 -1.4266  0.3998  0.7574
  783MOL0     H 3338   2.559   4.883   2.637 -2.3744  0.5955 -0.2445
  783MOL0     H 3339   2.764   4.915   2.769 -2.1805 -0.2646 -3.1981
  783MOL0     H 3340   3.202   4.876   2.967  0.1058 -1.0123 -0.2740
  783MOL0     H 3341   3.372   4.903   3.138  0.9713 -1.0148  3.3484
  783MOL0     H 3342   4.482   6.292   3.648  3.9354  0.4993  3.8732
  783MOL0     H 3343   4.667   6.454   3.599 -0.5471 -0.8595  1.2219
  783MOL0     H 3344   5.203   6.360   3.567 -0.4863 -0.8787 -1.6729
  783MOL0     H 3345   5.393   6.469   3.505  0.0812 -1.5018 -1.6281
  783MOL0     H 3346   5.408   6.791   3.146 -1.8580 -1.6588 -5.2370
  783MOL0     H 3347   5.372   6.631   3.096  0.9984  0.3538 -1.2376
  783MOL0     H 3348   5.638   6.595   3.101  0.0295  0.7713 -1.3503
  783MOL0     H 3349   5.578   6.737   3.002  3.8536  1.5637  0.2304
  783MOL0     H 3350   5.707   6.735   3.280 -1.3464 -1.3839  0.0046
  783MOL0     H 3351   5.614   6.874   3.219 -2.2921 -0.7640 -1.1736
  783MOL0     H 3352   5.750   6.872   3.009 -1.1058 -0.4635  0.2929
  783MOL0     H 3353   5.845   6.917   3.161  0.4264  0.3056 -0.4663
  783MOL0     H 3354   6.083   6.606   3.059  0.8933  0.4315  3.5319
  783MOL0     H 3355   5.193   6.729   3.235  0.3696 -0.4291 -0.1805
  783MOL0     H 3356   4.984   6.640   3.308 -0.4008  0.0109 -0.2557
  784MOL0     O 3357   9.116   7.214   5.854  0.1120 -1.0160  0.3231
  784MOL0     C 3358   9.119   7.119   5.936  1.4194 -0.4553  0.0418
  784MOL0     O 3359   9.010   7.042   5.964 -0.6588  0.0037  0.6454
  784MOL0     C 3360   8.886   7.078   5.907 -1.1641 -0.2777  0.0078
  784MOL0     C 3361   8.823   7.204   5.917 -0.1782  0.3459  0.2078
  784MOL0     C 3362   8.683   7.217   5.885  0.1461 -0.6436 -1.1097
  784MOL0     C 3363   8.624   7.110   5.815 -0.2447 -0.4862 -0.8622
  784MOL0     O 3364   8.496   7.126   5.781  0.1402 -1.4853  0.0132
  784MOL0     C 3365   8.419   7.097   5.895 -0.2216  1.1819 -0.2454
  784MOL0     C 3366   8.312   6.984   5.894 -0.7619 -0.2169 -0.5495
  784MOL0     C 3367   8.369   6.860   5.823  0.0740 -0.3788 -0.2301
  784MOL0     C 3368   8.265   6.750   5.816 -0.1136  0.3522 -0.5614
  784MOL0     C 3369   8.299   6.627   5.730 -0.1363  0.2557 -0.0716
  784MOL0     C 3370   8.344   6.661   5.583  0.1306 -0.3045 -0.2926
  784MOL0     C 3371   8.371   6.544   5.487 -0.1104 -0.5167 -0.0980
  784MOL0     C 3372   8.500   6.470   5.531 -0.6400  0.5715  0.0392
  784MOL0     N 3373   8.624   6.553   5.509 -0.5947  0.1811  0.1938
  784MOL0     C 3374   8.697   6.533   5.398  0.0806 -0.7214  0.6989
  784MOL0     C 3375   8.811   6.602   5.416  0.1818  0.1307  0.1423
  784MOL0     C 3376   8.916   6.616   5.308  0.3349  0.5846 -0.0681
  784MOL0     C 3377   8.883   6.721   5.199 -0.0866 -0.6227 -0.8645
  784MOL0     C 3378   8.778   6.673   5.101 -0.2406  0.8283 -0.1607
  784MOL0     C 3379   8.742   6.786   5.003 -0.3753 -0.4216 -0.9005
  784MOL0     O 3380   8.630   6.740   4.933 -0.3674 -0.2277  0.5069
  784MOL0     C 3381   8.502   6.764   4.972  0.4598 -0.6248  0.2739
  784MOL0     C 3382   8.465   6.872   5.048  0.1748  0.3591 -0.6786
  784MOL0     C 3383   8.315   6.885   5.069 -0.1576 -0.0499  0.8134
  784MOL0     C 3384   8.220   6.791   5.017 -0.5375 -0.1053  0.5883
  784MOL0     C 3385   8.075   6.790   5.051 -0.8866 -0.1787 -0.0658
  784MOL0     O 3386   8.002   6.673   5.028 -0.4715 -0.5747  0.3294
  784MOL0     C 3387   7.869   6.662   5.042 -1.0882  0.2587 -0.0191
  784MOL0     C 3388   7.807   6.730   5.150  0.2878  0.0409 -0.3315
  784MOL0     C 3389   7.672   6.699   5.175  0.0927  0.5184 -1.1178
  784MOL0     C 3390   7.601   6.620   5.092  0.4020  0.2627  0.6918
  784MOL0     O 3391   7.466   6.589   5.119 -0.6292 -0.2569  0.0535
  784MOL0     C 3392   7.408   6.627   5.240 -0.0374 -0.5646 -0.4251
  784MOL0     C 3393   7.280   6.549   5.272 -0.1834 -0.7033 -0.0264
  784MOL0     C 3394   7.159   6.578   5.169  0.1945 -0.0346  0.3619
  784MOL0     C 3395   7.018   6.535   5.194  0.0771  0.4186 -0.3584
  784MOL0     C 3396   7.004   6.381   5.177 -0.0956 -0.4374 -0.6136
  784MOL0     C 3397   6.857   6.341   5.150 -0.2096  0.0292  0.0270
  784MOL0     C 3398   6.836   6.184   5.136  0.3835 -0.5859  0.3379
  784MOL0     C 3399   6.703   6.161   5.063  0.0120  0.7095  0.3406
  784MOL0    Cl 3400   6.706   5.979   5.028  0.2984 -0.0547  0.2216
  784MOL0     C 3401   7.662   6.563   4.980  0.2366 -0.5893  0.4829
  784MOL0     C 3402   7.797   6.580   4.953 -0.2846  1.1059  0.1365
  784MOL0     O 3403   8.026   6.900   5.093 -0.6874 -0.0621  0.1571
  784MOL0     C 3404   8.269   6.691   4.934 -0.0443 -0.1430  0.0032
  784MOL0     C 3405   8.406   6.675   4.920  0.0983  0.4280  0.6270
  784MOL0     N 3406   8.804   6.669   5.536 -0.4648  0.5866  0.4035
  784MOL0     N 3407   8.694   6.629   5.595  0.6807 -0.9986  0.7038
  784MOL0     C 3408   8.689   6.993   5.782 -0.7259  0.2276  0.1195
  784MOL0     C 3409   8.817   6.978   5.837  0.5670 -0.5488  1.0773
  784MOL0     C 3410   9.249   7.087   6.012 -0.0856 -0.8348  1.1767
  784MOL0     C 3411   9.368   7.167   6.004 -0.2621 -0.3514  1.3687
  784MOL0     C 3412   9.485   7.131   6.070  0.6625 -0.6175 -0.0706
  784MOL0     C 3413   9.483   7.015   6.138 -0.1413 -0.1602 -0.0269
  784MOL0     O 3414   9.597   6.978   6.212 -0.4118 -0.2864 -0.2741
  784MOL0     C 3415   9.677   6.874   6.154 -0.0866 -0.7003  0.9268
  784MOL0     C 3416   9.799   6.856   6.237  0.3082 -0.0918  0.1773
  784MOL0     C 3417   9.886   6.745   6.173  0.7539 -0.5865  1.0193
  784MOL0     C 3418  10.019   6.728   6.234 -0.5746  0.2027  0.1595
  784MOL0     C 3419  10.001   6.700   6.373  0.2727 -0.9587 -0.1664
  784MOL0     C 3420   9.979   6.683   6.494 -1.2902  0.2875  0.9514
  784MOL0     C 3421   9.371   6.936   6.148 -0.5315 -0.3644  0.5480
  784MOL0     C 3422   9.253   6.970   6.089 -0.5518  0.4891  0.8403
  784MOL0     H 3423   8.871   7.286   5.969  1.6945 -0.3641 -0.3369
  784MOL0     H 3424   8.631   7.312   5.893  1.9023  0.2261  1.1526
  784MOL0     H 3425   8.377   7.187   5.940 -1.0611  0.2157  0.9561
  784MOL0     H 3426   8.481   7.070   5.981 -0.0755 -1.3874 -1.0846
  784MOL0     H 3427   8.216   7.019   5.856 -0.2574  0.3993 -1.2701
  784MOL0     H 3428   8.300   6.951   5.998  4.0610 -2.8887 -0.5513
  784MOL0     H 3429   8.446   6.819   5.889  0.5309  0.0494 -0.5029
  784MOL0     H 3430   8.408   6.889   5.726 -1.4610 -2.8007 -1.6788
  784MOL0     H 3431   8.236   6.707   5.912  0.1465 -3.2156 -1.9415
  784MOL0     H 3432   8.173   6.785   5.768  0.0415 -1.1969 -2.0668
  784MOL0     H 3433   8.218   6.553   5.723  1.2113 -1.1986 -1.2127
  784MOL0     H 3434   8.377   6.576   5.786  1.5068  0.8028 -1.7495
  784MOL0     H 3435   8.428   6.731   5.594 -0.1518  0.6530 -3.3488
  784MOL0     H 3436   8.270   6.729   5.539 -1.0387 -0.6248  1.1264
  784MOL0     H 3437   8.282   6.480   5.484 -1.6434  1.5167 -1.4133
  784MOL0     H 3438   8.383   6.577   5.383  2.0190 -0.0820  0.2449
  784MOL0     H 3439   8.508   6.380   5.469  0.8156  0.0177  0.9665
  784MOL0     H 3440   8.501   6.444   5.637  0.4148  2.0135  0.4254
  784MOL0     H 3441   8.670   6.477   5.309 -2.7392  1.2777  0.1440
  784MOL0     H 3442   8.940   6.519   5.262  0.2142  0.3121  0.4295
  784MOL0     H 3443   9.010   6.641   5.359  0.9712 -0.0089 -0.9109
  784MOL0     H 3444   8.975   6.743   5.144 -0.7828 -2.0311 -2.7218
  784MOL0     H 3445   8.847   6.815   5.240 -1.6378 -1.5234 -0.0750
  784MOL0     H 3446   8.812   6.588   5.041  0.9162  0.6359  0.7192
  784MOL0     H 3447   8.690   6.639   5.156  0.7598  0.6913  1.4329
  784MOL0     H 3448   8.821   6.795   4.927 -2.4821  1.1765 -3.0512
  784MOL0     H 3449   8.734   6.888   5.040  1.3451 -0.3172 -0.7049
  784MOL0     H 3450   8.528   6.946   5.094 -0.1342  0.9420 -1.1795
  784MOL0     H 3451   8.278   6.973   5.120 -1.7219 -0.1594 -0.0761
  784MOL0     H 3452   7.860   6.794   5.219  0.7064 -1.8151  1.1576
  784MOL0     H 3453   7.634   6.743   5.267  2.0201  1.1519 -0.5796
  784MOL0     H 3454   7.387   6.732   5.260 -1.5988 -1.6389  5.2651
  784MOL0     H 3455   7.475   6.595   5.320 -1.1316  0.1334  0.8171
  784MOL0     H 3456   7.244   6.577   5.372 -0.0663 -1.9880  0.3932
  784MOL0     H 3457   7.308   6.444   5.267 -0.1419 -0.6842 -0.1729
  784MOL0     H 3458   7.192   6.540   5.072  0.1870 -0.3223  0.4732
  784MOL0     H 3459   7.154   6.687   5.166  0.1310  0.0369  2.0329
  784MOL0     H 3460   6.978   6.563   5.292 -3.3077  0.2532 -1.5631
  784MOL0     H 3461   6.952   6.573   5.116 -3.7291 -2.0251  1.3522
  784MOL0     H 3462   7.024   6.332   5.273  1.5574  3.0366  0.9926
  784MOL0     H 3463   7.064   6.342   5.094  1.3056 -0.0462  0.1895
  784MOL0     H 3464   6.821   6.392   5.059 -0.5202 -3.2040 -1.8160
  784MOL0     H 3465   6.804   6.377   5.239  1.2445 -1.0011  1.3523
  784MOL0     H 3466   6.915   6.138   5.076  2.0130  0.5994  1.4780
  784MOL0     H 3467   6.833   6.132   5.232 -0.6043 -0.2757  0.4830
  784MOL0     H 3468   6.693   6.205   4.964 -1.1462 -1.3798 -0.5363
  784MOL0     H 3469   6.614   6.175   5.126  0.0738 -2.8333  1.4627
  784MOL0     H 3470   7.614   6.497   4.909 -0.1834  0.2383 -0.0141
  784MOL0     H 3471   7.834   6.528   4.865 -0.3590 -1.9294  1.7369
  784MOL0     H 3472   8.199   6.618   4.895 -2.2323  2.1945 -0.7306
  784MOL0     H 3473   8.442   6.590   4.863 -0.9741 -0.4327  1.2133
  784MOL0     H 3474   8.649   6.906   5.731  1.3045  0.2866 -1.7227
  784MOL0     H 3475   8.875   6.886   5.839  0.6250 -0.5154  3.1879
  784MOL0     H 3476   9.360   7.260   5.948  2.8957 -0.2798  0.8714
  784MOL0     H 3477   9.570   7.198   6.063 -0.0464  0.6492  2.3816
  784MOL0     H 3478   9.708   6.912   6.056 -2.2535  0.0610  0.4892
  784MOL0     H 3479   9.623   6.780   6.136 -1.0571  0.4175 -3.2166
  784MOL0     H 3480   9.851   6.952   6.240 -1.8399  1.4334 -3.8952
  784MOL0     H 3481   9.784   6.832   6.342  1.3339  2.6025  1.0099
  784MOL0     H 3482   9.892   6.763   6.066  4.1181 -3.8033  0.4653
  784MOL0     H 3483   9.825   6.654   6.179  1.8052 -1.4706 -0.8546
  784MOL0     H 3484  10.069   6.643   6.187 -0.8972  1.4603 -2.6762
  784MOL0     H 3485  10.077   6.815   6.202 -0.4829  0.6994  1.5872
  784MOL0     H 3486   9.955   6.672   6.598 -0.7254 -0.8912  0.9695
  784MOL0     H 3487   9.390   6.850   6.210 -3.4264 -3.7890 -2.8184
  784MOL0     H 3488   9.170   6.901   6.094 -0.0970 -0.5356 -2.9716
  785MOL0     O 3489   3.926   5.875  11.210 -0.0098 -0.7534  0.5032
  785MOL0     C 3490   3.896   5.943  11.309  0.4463  0.2562  0.3362
  785MOL0     O 3491   3.769   5.945  11.370  0.4684 -1.0061  0.5361
  785MOL0     C 3492   3.677   5.838  11.364 -0.5280  0.1631  0.4802
  785MOL0     C 3493   3.715   5.709  11.313 -0.7633 -0.0076 -0.8575
  785MOL0     C 3494   3.621   5.607  11.304  0.6958 -0.0928  0.2210
  785MOL0     C 3495   3.487   5.627  11.335  1.0699  0.0423 -0.2546
  785MOL0     O 3496   3.410   5.512  11.350 -0.5268 -0.7801 -0.7168
  785MOL0     C 3497   3.266   5.525  11.334  0.0618 -0.2467  0.4223
  785MOL0     C 3498   3.222   5.392  11.287  0.7841  0.7689 -0.1546
  785MOL0     C 3499   3.074   5.369  11.283 -0.4864 -0.4684  0.2135
  785MOL0     C 3500   3.055   5.233  11.209  0.4482 -0.3718  0.3007
  785MOL0     C 3501   2.908   5.199  11.195  0.2310  0.3059  0.7324
  785MOL0     C 3502   2.871   5.070  11.124  0.4567  0.7893  0.3065
  785MOL0     C 3503   2.718   5.064  11.103  0.1014  0.7654  0.5995
  785MOL0     C 3504   2.641   5.058  11.225  0.3423  0.1723 -1.5376
  785MOL0     N 3505   2.512   5.001  11.201 -0.0785  0.2413 -0.1978
  785MOL0     C 3506   2.479   4.879  11.149 -0.3963  0.3691 -0.6465
  785MOL0     C 3507   2.340   4.882  11.168  0.3984 -0.3837  0.2154
  785MOL0     C 3508   2.231   4.781  11.138  0.3144  0.4006  0.4940
  785MOL0     C 3509   2.246   4.644  11.215 -0.7101  1.0736 -0.1440
  785MOL0     C 3510   2.277   4.658  11.365 -0.6725 -0.4178 -0.5650
  785MOL0     C 3511   2.150   4.666  11.461  0.3622 -0.2340 -0.7538
  785MOL0     O 3512   2.072   4.553  11.460 -0.1298 -0.1726 -0.1626
  785MOL0     C 3513   1.938   4.554  11.498 -0.6517  0.6122  0.8214
  785MOL0     C 3514   1.866   4.434  11.480 -0.3321 -0.4519  0.2819
  785MOL0     C 3515   1.727   4.436  11.496 -0.9977 -0.2936  0.5196
  785MOL0     C 3516   1.666   4.554  11.549  0.1854  0.2533  0.8210
  785MOL0     C 3517   1.514   4.548  11.587  0.2164  0.4199  0.4585
  785MOL0     O 3518   1.461   4.645  11.666 -0.0163  0.0479 -0.2485
  785MOL0     C 3519   1.333   4.689  11.635  0.0713  0.6767  0.9486
  785MOL0     C 3520   1.272   4.670  11.509  0.0692 -0.5904 -0.0947
  785MOL0     C 3521   1.144   4.708  11.478  0.3881 -0.1848  0.6476
  785MOL0     C 3522   1.068   4.778  11.582  0.0160  0.1030 -0.1100
  785MOL0     O 3523   0.943   4.836  11.559  0.6871 -0.2153 -0.4976
  785MOL0     C 3524   0.883   4.854  11.435  0.0844 -0.5467  0.0491
  785MOL0     C 3525   0.752   4.928  11.469  0.7966  0.8689  0.0393
  785MOL0     C 3526   0.687   4.966  11.335  1.0855  0.3205  0.9254
  785MOL0     C 3527   0.530   4.992  11.330  0.7458 -0.2725 -0.2486
  785MOL0     C 3528   0.470   5.019  11.185 -0.6174 -0.0356 -0.8031
  785MOL0     C 3529   0.326   5.069  11.186 -0.8109 -0.1272  0.0744
  785MOL0     C 3530   0.280   5.157  11.077 -0.1434  0.2623 -0.0986
  785MOL0     C 3531   0.142   5.212  11.107  0.6463 -0.3411  0.0971
  785MOL0    Cl 3532   0.028   5.086  11.119 -0.6663 -0.2878 -0.1001
  785MOL0     C 3533   1.124   4.769  11.714 -0.8736 -0.2661 -0.4916
  785MOL0     C 3534   1.251   4.722  11.743  0.3997  0.2030 -0.5140
  785MOL0     O 3535   1.444   4.463  11.539 -0.4684 -0.1240  0.2237
  785MOL0     C 3536   1.743   4.675  11.576 -0.3864  0.6598  0.5216
  785MOL0     C 3537   1.874   4.669  11.541  0.0078 -0.2609  0.0717
  785MOL0     N 3538   2.299   5.003  11.221 -0.2500 -0.1331  0.4750
  785MOL0     N 3539   2.405   5.070  11.239 -0.3273 -0.7444  0.3833
  785MOL0     C 3540   3.455   5.752  11.384 -0.3126  0.7530  0.2807
  785MOL0     C 3541   3.548   5.856  11.403  0.0210  0.3760 -0.0176
  785MOL0     C 3542   3.995   6.035  11.346  0.2294 -0.3975  0.1050
  785MOL0     C 3543   3.968   6.125  11.451  0.0529 -0.9697 -0.4347
  785MOL0     C 3544   4.059   6.235  11.472  0.4257  0.2921 -0.4199
  785MOL0     C 3545   4.186   6.236  11.422  0.2149 -0.3874  0.3585
  785MOL0     O 3546   4.263   6.347  11.461  0.1587 -0.3254 -0.2962
  785MOL0     C 3547   4.402   6.321  11.474  0.4697  0.5389  0.6229
  785MOL0     C 3548   4.458   6.447  11.521 -0.2038 -0.3397 -0.2023
  785MOL0     C 3549   4.607   6.432  11.557 -0.1123  0.6253  0.0792
  785MOL0     C 3550   4.686   6.361  11.442 -1.2338 -0.6030 -0.3915
  785MOL0     C 3551   4.830   6.382  11.466 -0.2923 -0.4383 -0.0815
  785MOL0     C 3552   4.955   6.408  11.477  0.0182 -0.9331 -0.3750
  785MOL0     C 3553   4.220   6.136  11.324 -1.2883  0.0608  0.0669
  785MOL0     C 3554   4.129   6.033  11.299 -0.4053  0.2224  0.5957
  785MOL0     H 3555   3.817   5.679  11.292 -0.0727 -1.3433  3.4792
  785MOL0     H 3556   3.653   5.505  11.285  1.1715 -0.2325  1.6378
  785MOL0     H 3557   3.242   5.601  11.260 -2.5799 -0.7386  0.6939
  785MOL0     H 3558   3.211   5.557  11.422  2.5650 -0.3603  2.1555
  785MOL0     H 3559   3.259   5.307  11.345  0.0797  0.8632  0.4439
  785MOL0     H 3560   3.263   5.386  11.186 -0.5622  0.7054 -0.7185
  785MOL0     H 3561   3.016   5.448  11.233  0.3296 -0.0228 -0.0355
  785MOL0     H 3562   3.034   5.365  11.385 -1.8840  1.0881 -0.2309
  785MOL0     H 3563   3.091   5.237  11.105  0.6779  0.3470  0.4024
  785MOL0     H 3564   3.119   5.162  11.262  2.1204  1.6331  1.1174
  785MOL0     H 3565   2.863   5.282  11.141  1.2037  0.9283  0.8482
  785MOL0     H 3566   2.867   5.194  11.296 -3.0649  1.5094 -0.4132
  785MOL0     H 3567   2.910   4.982  11.176 -0.5417 -2.0385 -3.3319
  785MOL0     H 3568   2.923   5.056  11.029 -0.2079 -1.0669  0.1693
  785MOL0     H 3569   2.682   5.146  11.041  0.0325  0.3960  0.1465
  785MOL0     H 3570   2.703   4.972  11.047 -4.0478  0.3858  2.0052
  785MOL0     H 3571   2.638   5.157  11.272  1.0870 -1.4931  2.4977
  785MOL0     H 3572   2.687   4.998  11.304 -0.2345  0.9563 -0.5826
  785MOL0     H 3573   2.546   4.811  11.097  0.0575  0.7529 -0.5786
  785MOL0     H 3574   2.215   4.769  11.031 -0.6847  2.8978  0.3024
  785MOL0     H 3575   2.135   4.825  11.168 -1.3264 -0.2665 -3.2742
  785MOL0     H 3576   2.323   4.579  11.173 -0.1884 -0.1213  2.4743
  785MOL0     H 3577   2.148   4.598  11.202  0.1677 -0.4286 -1.9820
  785MOL0     H 3578   2.329   4.566  11.395 -1.2260 -0.7953 -0.7440
  785MOL0     H 3579   2.346   4.742  11.375 -2.9890  1.4519  0.7399
  785MOL0     H 3580   2.093   4.752  11.425  0.5759  0.9596  1.5477
  785MOL0     H 3581   2.176   4.688  11.565  1.3580  0.4574 -1.1294
  785MOL0     H 3582   1.930   4.354  11.445 -1.4667 -1.2669 -0.0035
  785MOL0     H 3583   1.661   4.352  11.479  0.2625 -0.7024 -3.4712
  785MOL0     H 3584   1.327   4.624  11.427 -1.0864 -0.0207 -1.2284
  785MOL0     H 3585   1.112   4.702  11.375 -0.3434  1.3216  0.7494
  785MOL0     H 3586   0.858   4.763  11.380 -1.5862 -1.2164  1.8214
  785MOL0     H 3587   0.943   4.919  11.371 -1.0380 -1.0186 -1.5482
  785MOL0     H 3588   0.755   5.018  11.531  1.8417 -0.6590  2.3407
  785MOL0     H 3589   0.688   4.851  11.512  2.0565 -0.8728 -1.0525
  785MOL0     H 3590   0.691   4.882  11.265  0.4823  1.5336 -0.5923
  785MOL0     H 3591   0.744   5.047  11.290 -0.7960  0.9349 -0.4849
  785MOL0     H 3592   0.472   4.911  11.376 -0.5227  0.7522  0.0476
  785MOL0     H 3593   0.522   5.082  11.393 -0.6422 -0.8876  0.5011
  785MOL0     H 3594   0.485   4.928  11.127  1.6042  1.6069 -3.0510
  785MOL0     H 3595   0.540   5.091  11.140  0.4203 -0.3638  0.2416
  785MOL0     H 3596   0.313   5.116  11.284  2.4873  0.6586  0.2515
  785MOL0     H 3597   0.268   4.976  11.187 -0.2778 -0.6229 -3.1414
  785MOL0     H 3598   0.356   5.236  11.065  0.6807 -0.7813 -2.2536
  785MOL0     H 3599   0.279   5.099  10.985  0.6735  1.9906 -1.2649
  785MOL0     H 3600   0.118   5.276  11.021  0.6060 -0.1397  0.2572
  785MOL0     H 3601   0.150   5.275  11.197  0.4743  0.6748 -0.5780
  785MOL0     H 3602   1.076   4.817  11.799  1.3648  0.4098  0.4613
  785MOL0     H 3603   1.283   4.734  11.846 -1.0679  2.8956 -0.2861
  785MOL0     H 3604   1.691   4.757  11.624 -2.3838  0.0228 -0.4301
  785MOL0     H 3605   1.927   4.761  11.564  3.8910 -0.9306 -4.5696
  785MOL0     H 3606   3.363   5.778  11.434 -0.7730  0.5172 -0.4239
  785MOL0     H 3607   3.497   5.947  11.432 -1.1166 -0.5426  0.9886
  785MOL0     H 3608   3.869   6.132  11.497 -0.2887 -2.7490 -0.8359
  785MOL0     H 3609   4.032   6.312  11.543  2.3573 -1.0313  1.9236
  785MOL0     H 3610   4.431   6.302  11.370 -4.1332 -2.2665 -0.4287
  785MOL0     H 3611   4.439   6.238  11.535  0.2405  1.0043  1.4023
  785MOL0     H 3612   4.446   6.516  11.436 -0.2918  2.5488  1.9967
  785MOL0     H 3613   4.407   6.481  11.612  1.7054  0.7636  0.5200
  785MOL0     H 3614   4.618   6.369  11.646  1.6932 -0.1585 -0.6424
  785MOL0     H 3615   4.654   6.525  11.590  1.4296 -0.2274  0.3706
  785MOL0     H 3616   4.668   6.253  11.448 -2.5796 -0.7305 -4.1749
  785MOL0     H 3617   4.672   6.398  11.340  0.6521  0.6304 -0.2484
  785MOL0     H 3618   5.057   6.439  11.488  0.0904  0.1104 -3.1497
  785MOL0     H 3619   4.316   6.137  11.274 -0.0533 -1.2463  2.2580
  785MOL0     H 3620   4.159   5.958  11.227  0.3498 -1.4148  2.5469
  786MOL0     O 3621  11.058   7.857   9.731 -0.4129  0.3578  0.2173
  786MOL0     C 3622  11.092   7.746   9.770  0.8381 -0.5672 -0.1815
  786MOL0     O 3623  10.995   7.648   9.813  0.2810  0.3300 -0.3621
  786MOL0     C 3624  10.865   7.667   9.780 -0.2103  0.7699  0.3891
  786MOL0     C 3625  10.773   7.618   9.877  0.1502 -0.2047 -0.2049
  786MOL0     C 3626  10.642   7.611   9.843 -0.6449  0.4014 -0.7900
  786MOL0     C 3627  10.587   7.658   9.719  0.1476 -1.1602 -0.7660
  786MOL0     O 3628  10.455   7.659   9.685  0.3119 -0.4534 -0.8073
  786MOL0     C 3629  10.352   7.621   9.777 -0.7283  0.4904 -0.0899
  786MOL0     C 3630  10.213   7.676   9.741  0.2442 -0.2568  0.1701
  786MOL0     C 3631  10.112   7.588   9.806  0.0064 -0.5289  1.0756
  786MOL0     C 3632   9.967   7.614   9.760  0.6650  0.7174  0.9739
  786MOL0     C 3633   9.874   7.545   9.859  0.3706  0.5013 -0.9242
  786MOL0     C 3634   9.733   7.613   9.841 -0.2936  0.3457  0.7131
  786MOL0     C 3635   9.618   7.538   9.918  0.0978 -0.5224 -1.1647
  786MOL0     C 3636   9.630   7.558  10.073 -0.0606 -0.0281  0.0160
  786MOL0     N 3637   9.531   7.479  10.156 -0.5240 -0.7711  0.7039
  786MOL0     C 3638   9.489   7.542  10.270  0.9634 -0.3893 -0.2718
  786MOL0     C 3639   9.390   7.450  10.307  0.5297  0.5105 -0.3189
  786MOL0     C 3640   9.335   7.447  10.450  0.1831  0.2270 -0.9480
  786MOL0     C 3641   9.186   7.500  10.451  0.0867  0.0577  0.2053
  786MOL0     C 3642   9.102   7.477  10.585 -0.8957 -0.0207  0.7758
  786MOL0     C 3643   8.960   7.534  10.587  0.7467 -0.1609  0.1259
  786MOL0     O 3644   8.888   7.450  10.506 -0.1860  0.3643 -0.3179
  786MOL0     C 3645   8.764   7.415  10.558 -0.4990 -0.1032  1.3293
  786MOL0     C 3646   8.682   7.506  10.631  0.4012  0.0574  0.1112
  786MOL0     C 3647   8.556   7.462  10.681  0.3867 -0.9584  0.2574
  786MOL0     C 3648   8.503   7.333  10.639  0.0260  0.4098  0.0676
  786MOL0     C 3649   8.365   7.297  10.672 -0.0514 -0.3546 -0.1889
  786MOL0     O 3650   8.270   7.400  10.704 -0.3900 -0.1431 -0.5182
  786MOL0     C 3651   8.135   7.411  10.689 -0.7880 -0.4036 -0.3956
  786MOL0     C 3652   8.077   7.496  10.779 -0.1577 -1.0266  0.8813
  786MOL0     C 3653   7.942   7.522  10.766 -0.1247 -0.2437  0.7314
  786MOL0     C 3654   7.865   7.459  10.672 -1.2753  0.2554  0.4571
  786MOL0     O 3655   7.735   7.479  10.661 -0.1264 -0.3344  0.3215
  786MOL0     C 3656   7.667   7.362  10.620  0.4461  0.5231  0.1957
  786MOL0     C 3657   7.521   7.381  10.671  0.5515 -0.0351  0.0753
  786MOL0     C 3658   7.441   7.257  10.676  0.9749 -0.2399 -0.4192
  786MOL0     C 3659   7.293   7.286  10.691 -0.2511 -0.1068  0.1707
  786MOL0     C 3660   7.213   7.153  10.709  0.0954  0.5697 -0.4327
  786MOL0     C 3661   7.076   7.161  10.783 -0.5111  0.8290 -0.4353
  786MOL0     C 3662   7.006   7.024  10.801  0.3893 -0.1796 -0.5169
  786MOL0     C 3663   6.856   7.011  10.810  0.2713  0.1611  0.0805
  786MOL0    Cl 3664   6.808   6.837  10.846 -0.2707  0.0357  0.1708
  786MOL0     C 3665   7.934   7.374  10.581 -0.6192  0.1238  0.4193
  786MOL0     C 3666   8.068   7.352  10.585  1.1199 -0.8230 -0.3820
  786MOL0     O 3667   8.325   7.186  10.648 -0.4341  0.0096  0.2358
  786MOL0     C 3668   8.583   7.250  10.565 -0.2572  0.5171 -0.7059
  786MOL0     C 3669   8.717   7.291  10.527 -0.0232 -0.0608 -0.2895
  786MOL0     N 3670   9.366   7.348  10.212 -0.3197  0.0673 -0.1701
  786MOL0     N 3671   9.462   7.366  10.132  0.2782  0.0747 -0.2927
  786MOL0     C 3672  10.685   7.694   9.623 -0.3703  0.3336 -0.0707
  786MOL0     C 3673  10.822   7.702   9.652  0.0016  0.5097 -1.4449
  786MOL0     C 3674  11.230   7.698   9.755 -0.0249 -0.9177 -0.1883
  786MOL0     C 3675  11.271   7.595   9.834 -0.7398 -0.1897  0.2091
  786MOL0     C 3676  11.397   7.538   9.819 -0.4492 -0.0765 -0.3369
  786MOL0     C 3677  11.486   7.601   9.731 -0.2677  0.2208  0.2615
  786MOL0     O 3678  11.611   7.565   9.693 -0.1996  0.1366  0.4645
  786MOL0     C 3679  11.663   7.443   9.753  0.3929  0.1674  0.0794
  786MOL0     C 3680  11.781   7.380   9.676 -0.7179 -0.2979 -0.2682
  786MOL0     C 3681  11.737   7.324   9.543  0.0987 -0.7236 -0.0003
  786MOL0     C 3682  11.845   7.241   9.474 -0.1128  0.2756  0.9217
  786MOL0     C 3683  11.794   7.131   9.385 -0.0891  0.4124 -0.5814
  786MOL0     C 3684  11.749   7.054   9.305  0.4557 -0.8879  0.4509
  786MOL0     C 3685  11.449   7.710   9.651 -0.5189 -0.1964 -1.0675
  786MOL0     C 3686  11.324   7.758   9.668 -0.1078 -0.6059 -0.1440
  786MOL0     H 3687  10.806   7.588   9.976  0.8651 -0.5928 -0.5611
  786MOL0     H 3688  10.577   7.578   9.923  2.4168 -0.4290  1.5269
  786MOL0     H 3689  10.374   7.663   9.875  1.4162  0.2280 -0.4232
  786MOL0     H 3690  10.352   7.516   9.807 -0.9021 -0.0366 -1.7980
  786MOL0     H 3691  10.194   7.658   9.635  1.2484 -4.7512  0.5575
  786MOL0     H 3692  10.197   7.782   9.765 -2.4456 -0.6570  0.4894
  786MOL0     H 3693  10.115   7.604   9.915 -2.6144 -1.7021  1.4003
  786MOL0     H 3694  10.133   7.488   9.770 -1.7584  0.4326 -3.2110
  786MOL0     H 3695   9.948   7.721   9.754 -0.9592  0.3988 -0.1689
  786MOL0     H 3696   9.948   7.578   9.658  0.2170 -1.9675  1.9364
  786MOL0     H 3697   9.909   7.545   9.963 -2.8908  1.0544  0.3070
  786MOL0     H 3698   9.854   7.441   9.833  5.3526 -1.8755  2.9706
  786MOL0     H 3699   9.709   7.619   9.735 -0.5575 -1.5330  0.6330
  786MOL0     H 3700   9.738   7.717   9.876  0.5960  1.2046 -1.7601
  786MOL0     H 3701   9.521   7.573   9.883 -0.3655  2.1533  2.2081
  786MOL0     H 3702   9.617   7.431   9.899 -4.2877 -0.7884 -0.4874
  786MOL0     H 3703   9.617   7.666  10.085  0.6699 -0.0168  0.7500
  786MOL0     H 3704   9.729   7.546  10.118 -1.3366  0.6348  3.3097
  786MOL0     H 3705   9.525   7.625  10.328  0.4328 -1.0938  1.1204
  786MOL0     H 3706   9.394   7.519  10.508 -0.4063 -1.5260  2.0758
  786MOL0     H 3707   9.336   7.347  10.494  3.5555 -0.7106 -2.8488
  786MOL0     H 3708   9.131   7.451  10.370 -1.5581  2.1034 -0.0000
  786MOL0     H 3709   9.189   7.608  10.433 -1.0845 -0.3573 -3.2525
  786MOL0     H 3710   9.100   7.369  10.601 -2.9639 -0.0555  0.4804
  786MOL0     H 3711   9.160   7.520  10.668  0.4143  0.2920 -0.2642
  786MOL0     H 3712   8.976   7.633  10.543 -0.6597 -0.6844 -1.6789
  786MOL0     H 3713   8.924   7.541  10.690  2.9921  0.5735  0.9278
  786MOL0     H 3714   8.726   7.603  10.648  0.9956 -0.2300  0.2356
  786MOL0     H 3715   8.515   7.539  10.746  1.0218 -0.3634 -0.0254
  786MOL0     H 3716   8.138   7.555  10.847  4.3429  1.2808 -4.3503
  786MOL0     H 3717   7.884   7.587  10.831  0.7357  1.7792 -0.4092
  786MOL0     H 3718   7.708   7.269  10.662 -1.5621  0.3562  1.9164
  786MOL0     H 3719   7.670   7.343  10.512 -2.6541  0.7733 -0.0005
  786MOL0     H 3720   7.484   7.450  10.595  1.0881 -0.5383 -0.6569
  786MOL0     H 3721   7.524   7.425  10.771  3.7904 -1.1477  0.6016
  786MOL0     H 3722   7.480   7.191  10.753  1.1514  0.1437 -0.1731
  786MOL0     H 3723   7.458   7.202  10.584 -0.3013 -0.1832 -0.7141
  786MOL0     H 3724   7.278   7.354  10.775  1.8968  2.4445 -1.3552
  786MOL0     H 3725   7.266   7.344  10.602 -2.8290 -1.6938 -0.1888
  786MOL0     H 3726   7.276   7.098  10.779 -1.1559  1.7181  1.6981
  786MOL0     H 3727   7.199   7.112  10.609  2.2157  3.2721 -2.0028
  786MOL0     H 3728   7.006   7.225  10.728 -2.0364 -1.7589 -1.6917
  786MOL0     H 3729   7.085   7.194  10.887  0.4747 -1.7622  0.3765
  786MOL0     H 3730   7.038   6.953  10.724  1.0913 -1.4289  0.8581
  786MOL0     H 3731   7.052   6.981  10.890  0.1946 -0.1207 -0.3878
  786MOL0     H 3732   6.800   7.048  10.723 -1.1138  2.0937  1.7102
  786MOL0     H 3733   6.833   7.075  10.895  2.7367 -0.9307  1.6543
  786MOL0     H 3734   7.884   7.329  10.495  1.8981 -1.4618 -0.3364
  786MOL0     H 3735   8.112   7.290  10.507 -0.0441 -3.6931  1.1058
  786MOL0     H 3736   8.544   7.151  10.543  1.0810 -0.2601  0.2764
  786MOL0     H 3737   8.774   7.212  10.479 -1.7479 -1.2892 -0.4305
  786MOL0     H 3738  10.659   7.733   9.526 -1.5678  0.4574  0.2799
  786MOL0     H 3739  10.906   7.729   9.588  1.6209  1.5589  0.9976
  786MOL0     H 3740  11.200   7.554   9.905 -1.2436 -0.7767 -0.6307
  786MOL0     H 3741  11.418   7.443   9.866  0.9968  0.6272  0.5011
  786MOL0     H 3742  11.591   7.363   9.771  3.1705 -2.6695 -0.4347
  786MOL0     H 3743  11.694   7.475   9.853 -1.3583 -2.2036  1.4909
  786MOL0     H 3744  11.861   7.452   9.658  0.8762 -2.0817 -0.5765
  786MOL0     H 3745  11.819   7.305   9.746 -1.2594  0.0545  0.4126
  786MOL0     H 3746  11.723   7.413   9.481 -0.5053 -0.8076  0.0103
  786MOL0     H 3747  11.644   7.268   9.545  0.3649 -1.2125 -0.8555
  786MOL0     H 3748  11.901   7.304   9.404 -1.4076 -1.6198 -2.0356
  786MOL0     H 3749  11.922   7.204   9.543  0.3297 -2.1346 -0.7100
  786MOL0     H 3750  11.718   6.989   9.226  1.0691  1.5864 -1.9933
  786MOL0     H 3751  11.515   7.761   9.582 -0.8079 -0.4167 -1.5064
  786MOL0     H 3752  11.276   7.835   9.608  1.6400  0.1470 -0.6503
  787MOL0     O 3753   5.920   1.256   1.501 -0.7313 -0.2393 -0.9792
  787MOL0     C 3754   5.984   1.367   1.486 -0.0893 -0.3594  0.3877
  787MOL0     O 3755   5.948   1.495   1.547 -0.3227 -0.4996  0.2496
  787MOL0     C 3756   5.838   1.520   1.629 -0.2045 -0.3802 -0.2758
  787MOL0     C 3757   5.819   1.657   1.656  0.6298  0.3892 -0.7215
  787MOL0     C 3758   5.724   1.711   1.754  0.2565  0.2733 -1.1682
  787MOL0     C 3759   5.634   1.615   1.811 -0.2486 -0.4663 -0.2652
  787MOL0     O 3760   5.520   1.657   1.878  0.0102  0.0854 -0.3821
  787MOL0     C 3761   5.457   1.775   1.828 -0.0485 -0.1986 -0.0239
  787MOL0     C 3762   5.321   1.789   1.892  0.3617  0.3625 -0.0701
  787MOL0     C 3763   5.246   1.903   1.821 -0.7528  0.5536  0.2573
  787MOL0     C 3764   5.099   1.921   1.880 -0.3128  0.0059  0.5827
  787MOL0     C 3765   5.028   2.050   1.836  0.4390 -0.4015 -0.4859
  787MOL0     C 3766   5.016   2.062   1.683  0.4213  0.5835  0.1131
  787MOL0     C 3767   4.920   1.961   1.614  0.0746  0.5356 -0.7446
  787MOL0     C 3768   4.893   1.980   1.462  0.6837  0.0426  1.0487
  787MOL0     N 3769   4.820   1.869   1.395 -0.0401 -0.7513 -0.0368
  787MOL0     C 3770   4.860   1.743   1.368 -0.2035 -0.1186 -0.1746
  787MOL0     C 3771   4.763   1.680   1.301  0.6664  0.3222 -0.7536
  787MOL0     C 3772   4.748   1.538   1.247  0.3550 -0.0593  0.2742
  787MOL0     C 3773   4.821   1.423   1.317  0.1964  0.4698  0.5094
  787MOL0     C 3774   4.767   1.294   1.257  0.2657 -0.3043 -0.2451
  787MOL0     C 3775   4.636   1.251   1.333 -0.5645 -0.0460  1.2145
  787MOL0     O 3776   4.659   1.215   1.471 -0.1726  0.2227 -0.5112
  787MOL0     C 3777   4.549   1.164   1.535  0.5221 -0.2330 -0.5085
  787MOL0     C 3778   4.581   1.102   1.655  0.6708  0.2570  0.6902
  787MOL0     C 3779   4.485   1.047   1.740 -0.3780  0.0052 -0.0437
  787MOL0     C 3780   4.346   1.055   1.701 -0.2661 -0.2832 -0.4272
  787MOL0     C 3781   4.245   1.001   1.792 -0.6057 -1.1632  0.1421
  787MOL0     O 3782   4.110   1.018   1.758  0.1152  0.5171  0.4166
  787MOL0     C 3783   4.009   0.971   1.844 -0.1637 -0.0719  0.0179
  787MOL0     C 3784   4.027   0.860   1.930  0.1518  0.0615 -0.1794
  787MOL0     C 3785   3.929   0.820   2.017 -0.1233 -0.3623 -0.3802
  787MOL0     C 3786   3.805   0.885   2.030  0.2443  0.5338  0.5243
  787MOL0     O 3787   3.728   0.841   2.129  0.2836  0.3962  0.2457
  787MOL0     C 3788   3.611   0.923   2.166 -0.6841 -0.1397  0.2196
  787MOL0     C 3789   3.543   0.853   2.294 -0.2130 -0.3085 -1.1268
  787MOL0     C 3790   3.391   0.892   2.317 -1.2089  1.3518 -0.2259
  787MOL0     C 3791   3.293   0.775   2.307  0.8758  0.3913  0.5877
  787MOL0     C 3792   3.144   0.807   2.301  0.5432 -0.0090  0.9907
  787MOL0     C 3793   3.097   0.895   2.414  0.6138 -0.1701 -0.1384
  787MOL0     C 3794   2.950   0.943   2.402  0.8628  0.0222  0.8705
  787MOL0     C 3795   2.856   0.835   2.446  0.1078  0.8846 -0.0777
  787MOL0    Cl 3796   2.684   0.855   2.375 -0.3376 -0.1479 -0.2816
  787MOL0     C 3797   3.784   0.999   1.948  0.3580  1.4036  0.6961
  787MOL0     C 3798   3.886   1.027   1.856 -0.3769 -0.2846 -0.0166
  787MOL0     O 3799   4.288   0.941   1.889 -0.2959 -0.2808 -1.1792
  787MOL0     C 3800   4.308   1.121   1.576 -0.0779 -0.1595  1.1606
  787MOL0     C 3801   4.410   1.175   1.498 -0.7581  0.6869  1.0582
  787MOL0     N 3802   4.661   1.770   1.293 -0.1376 -0.2055 -0.7078
  787MOL0     N 3803   4.701   1.885   1.340  0.4932  0.6450 -0.7473
  787MOL0     C 3804   5.650   1.480   1.775 -0.4548 -0.3796 -0.5467
  787MOL0     C 3805   5.757   1.431   1.698  2.1993  0.8181 -0.7508
  787MOL0     C 3806   6.096   1.382   1.387  0.3512  0.1778 -0.5892
  787MOL0     C 3807   6.120   1.277   1.294  0.3077 -0.0659 -0.3194
  787MOL0     C 3808   6.208   1.306   1.190 -0.5840 -0.1733  0.3520
  787MOL0     C 3809   6.276   1.428   1.173 -0.2549  0.2186  0.2950
  787MOL0     O 3810   6.366   1.445   1.071  0.1715 -0.1258  0.0848
  787MOL0     C 3811   6.395   1.574   1.021 -0.1791 -0.0358 -0.7816
  787MOL0     C 3812   6.452   1.560   0.880 -0.4939 -0.7144  0.1176
  787MOL0     C 3813   6.495   1.702   0.822 -0.1495 -0.3118 -0.2015
  787MOL0     C 3814   6.519   1.724   0.673  0.6003  0.4263 -0.0185
  787MOL0     C 3815   6.658   1.675   0.640 -0.1125 -0.1387 -1.3870
  787MOL0     C 3816   6.772   1.643   0.604 -0.1173 -0.1851  0.3305
  787MOL0     C 3817   6.246   1.524   1.265 -0.4499  0.4721  0.2865
  787MOL0     C 3818   6.151   1.510   1.366  0.0237 -0.8263  0.3359
  787MOL0     H 3819   5.875   1.730   1.598  0.6553  1.1087  0.1817
  787MOL0     H 3820   5.703   1.817   1.763 -3.7407 -0.4014 -0.4790
  787MOL0     H 3821   5.436   1.774   1.721  3.7603  2.9128 -1.0070
  787MOL0     H 3822   5.525   1.858   1.847  1.4330 -0.6672 -2.8085
  787MOL0     H 3823   5.321   1.799   2.001 -0.5403 -1.5925  0.1542
  787MOL0     H 3824   5.263   1.699   1.871  1.9671 -1.2969  2.1327
  787MOL0     H 3825   5.226   1.869   1.719 -2.3357 -0.6048  0.9108
  787MOL0     H 3826   5.302   1.995   1.838  0.5991  0.0778 -1.3319
  787MOL0     H 3827   5.036   1.833   1.859 -3.3260  2.4388 -1.4479
  787MOL0     H 3828   5.103   1.925   1.989 -0.5610  0.5521  0.5746
  787MOL0     H 3829   5.081   2.140   1.869  0.2285 -0.4539  0.0014
  787MOL0     H 3830   4.930   2.041   1.885  1.2166 -5.6644  0.7500
  787MOL0     H 3831   5.115   2.052   1.638  0.7885 -3.5851  1.4117
  787MOL0     H 3832   4.987   2.166   1.665 -1.2333  0.7366  3.1416
  787MOL0     H 3833   4.941   1.856   1.636 -3.5251 -0.1193  0.1927
  787MOL0     H 3834   4.822   1.981   1.659 -0.3470 -0.6398 -1.0932
  787MOL0     H 3835   4.988   1.995   1.409  0.6511 -2.5494  0.0632
  787MOL0     H 3836   4.836   2.072   1.448  0.0229 -0.4953  0.0249
  787MOL0     H 3837   4.945   1.685   1.400 -2.2544 -3.8578 -0.8992
  787MOL0     H 3838   4.774   1.545   1.141  0.7748  1.5889  0.4622
  787MOL0     H 3839   4.640   1.525   1.254  0.3924 -0.3699  0.2925
  787MOL0     H 3840   4.801   1.428   1.425 -2.4407 -0.3642  0.1256
  787MOL0     H 3841   4.928   1.440   1.299  0.3825  0.2662  1.3663
  787MOL0     H 3842   4.744   1.300   1.150  0.1462  2.3788 -0.1425
  787MOL0     H 3843   4.842   1.216   1.268 -2.5179 -3.0800  0.3144
  787MOL0     H 3844   4.592   1.167   1.279 -3.0917  1.5741  0.5880
  787MOL0     H 3845   4.567   1.336   1.329  0.3843  0.7797  1.6348
  787MOL0     H 3846   4.685   1.094   1.686  1.0941  0.6723 -0.5429
  787MOL0     H 3847   4.510   0.989   1.828 -1.6683 -1.2133 -0.4455
  787MOL0     H 3848   4.105   0.785   1.929 -1.1822 -1.3914  0.2126
  787MOL0     H 3849   3.933   0.728   2.075  2.8978 -1.7470 -2.4925
  787MOL0     H 3850   3.537   0.923   2.085 -0.2888 -0.7973 -0.1526
  787MOL0     H 3851   3.658   1.019   2.188  0.4067 -0.5374 -0.3125
  787MOL0     H 3852   3.601   0.877   2.384 -1.0024 -3.9870  0.5393
  787MOL0     H 3853   3.543   0.744   2.287 -1.8460 -0.4449  0.2614
  787MOL0     H 3854   3.365   0.963   2.239  0.5644  0.4680 -1.6986
  787MOL0     H 3855   3.376   0.934   2.417  0.9675 -1.1834  1.3036
  787MOL0     H 3856   3.317   0.717   2.217 -0.7439 -1.4927  1.2996
  787MOL0     H 3857   3.313   0.701   2.386  0.7179 -0.1938  0.0906
  787MOL0     H 3858   3.092   0.710   2.306  1.4478 -0.8979 -3.1256
  787MOL0     H 3859   3.113   0.854   2.207  2.8787 -0.5018 -0.1019
  787MOL0     H 3860   3.169   0.974   2.432  0.5098 -0.4479  1.6983
  787MOL0     H 3861   3.097   0.834   2.505 -0.4655  1.4895  1.0274
  787MOL0     H 3862   2.934   1.033   2.463  0.0400 -1.0139  2.2458
  787MOL0     H 3863   2.919   0.962   2.299 -2.2085  0.4694  1.7738
  787MOL0     H 3864   2.835   0.838   2.554  0.4594 -1.8346  0.1314
  787MOL0     H 3865   2.882   0.732   2.419 -1.4920  0.4881 -0.2411
  787MOL0     H 3866   3.695   1.059   1.943 -0.6645  0.9273  6.3430
  787MOL0     H 3867   3.877   1.114   1.792  4.5434  0.5624  0.0811
  787MOL0     H 3868   4.208   1.133   1.536  0.4574  0.8715  0.0710
  787MOL0     H 3869   4.375   1.214   1.403  1.1305 -1.6166 -0.7181
  787MOL0     H 3870   5.570   1.421   1.820 -0.6330  1.5532  1.9320
  787MOL0     H 3871   5.771   1.324   1.687 -1.1771 -0.0140  1.4862
  787MOL0     H 3872   6.054   1.191   1.290 -0.3163  0.4207 -0.6605
  787MOL0     H 3873   6.215   1.229   1.115 -0.2884 -1.2586  1.4512
  787MOL0     H 3874   6.469   1.615   1.089  0.8677 -0.8051 -1.4160
  787MOL0     H 3875   6.311   1.644   1.012  1.1504  1.5221 -1.5987
  787MOL0     H 3876   6.538   1.492   0.882 -0.3903 -0.6161 -0.5545
  787MOL0     H 3877   6.375   1.518   0.814 -1.3020  1.2473 -0.2497
  787MOL0     H 3878   6.586   1.735   0.873 -0.1518  0.8946 -0.9461
  787MOL0     H 3879   6.422   1.776   0.855  2.1544  1.8523  0.4048
  787MOL0     H 3880   6.447   1.666   0.614  0.1529 -0.2340  1.1450
  787MOL0     H 3881   6.515   1.830   0.647 -1.5741  0.0233 -1.6123
  787MOL0     H 3882   6.868   1.606   0.573  0.4864  0.0830  1.7730
  787MOL0     H 3883   6.299   1.619   1.261  0.4284 -0.0190 -0.3028
  787MOL0     H 3884   6.118   1.593   1.427 -4.2460 -0.9063 -1.5481
  788MOL0     O 3885   7.057   6.067   6.887  0.1590  0.5873  0.1825
  788MOL0     C 3886   7.164   6.119   6.857  0.3388 -0.1075 -1.0488
  788MOL0     O 3887   7.184   6.261   6.870  0.3371  0.9710 -0.0813
  788MOL0     C 3888   7.068   6.328   6.850 -0.2275 -0.1863 -0.0194
  788MOL0     C 3889   7.045   6.381   6.716 -0.6872  0.1865 -0.8647
  788MOL0     C 3890   6.926   6.448   6.687 -0.0792 -0.5255 -0.8784
  788MOL0     C 3891   6.824   6.469   6.784 -0.5307 -0.8616  0.0699
  788MOL0     O 3892   6.713   6.544   6.742 -0.3993 -0.0937 -0.9911
  788MOL0     C 3893   6.596   6.471   6.770  0.3850 -0.7339  0.0731
  788MOL0     C 3894   6.478   6.553   6.716  0.3927  0.1337  0.6663
  788MOL0     C 3895   6.417   6.492   6.586  1.2835 -0.4346  0.6004
  788MOL0     C 3896   6.304   6.574   6.527  0.3490  0.5733  0.7018
  788MOL0     C 3897   6.266   6.546   6.381 -0.0742  0.5295 -0.0330
  788MOL0     C 3898   6.202   6.407   6.371  0.1526  0.2302 -0.6631
  788MOL0     C 3899   6.067   6.415   6.443  0.4185  0.0800 -0.4218
  788MOL0     C 3900   5.988   6.283   6.415  0.5682  0.1424 -0.1702
  788MOL0     N 3901   5.845   6.290   6.452 -0.4683  0.0132  0.1415
  788MOL0     C 3902   5.778   6.264   6.570 -0.2889  0.1624 -0.4197
  788MOL0     C 3903   5.647   6.268   6.536 -0.4841  0.0539 -0.1361
  788MOL0     C 3904   5.534   6.269   6.634 -0.2483  0.5661  0.3523
  788MOL0     C 3905   5.525   6.146   6.721  0.3546  0.0136  0.2726
  788MOL0     C 3906   5.505   6.009   6.650  0.1581 -0.4628 -0.6085
  788MOL0     C 3907   5.511   5.889   6.741  0.1453 -1.3813  0.3131
  788MOL0     O 3908   5.641   5.859   6.789 -0.1897 -0.4137 -0.9219
  788MOL0     C 3909   5.747   5.838   6.696  0.3178  1.5839  0.0978
  788MOL0     C 3910   5.743   5.747   6.584 -0.0552 -1.0245  0.0969
  788MOL0     C 3911   5.859   5.726   6.512  0.6224 -0.1686 -0.3448
  788MOL0     C 3912   5.974   5.803   6.539 -1.3644  0.2127 -0.4375
  788MOL0     C 3913   6.090   5.794   6.443  0.1083  0.1434 -0.4300
  788MOL0     O 3914   6.174   5.899   6.441  0.1297 -0.5368  0.4799
  788MOL0     C 3915   6.274   5.909   6.346  0.1992 -0.3237 -0.4288
  788MOL0     C 3916   6.376   5.822   6.320 -0.1848 -0.6975  0.8133
  788MOL0     C 3917   6.477   5.851   6.226  0.4118  0.6945 -0.4314
  788MOL0     C 3918   6.482   5.977   6.161 -0.6714 -1.2889 -0.0225
  788MOL0     O 3919   6.573   6.036   6.071 -0.1937  0.0778  0.1591
  788MOL0     C 3920   6.657   5.942   6.003  0.5322 -0.4690 -0.1731
  788MOL0     C 3921   6.805   5.968   6.034 -0.5068  0.6734  0.1643
  788MOL0     C 3922   6.865   6.108   5.995 -0.5477  0.1183  0.1430
  788MOL0     C 3923   7.013   6.137   6.030 -0.0306  0.4321 -0.2599
  788MOL0     C 3924   7.114   6.023   5.993 -0.4828 -0.4087  0.3405
  788MOL0     C 3925   7.257   6.061   6.033 -0.2133  0.1125 -0.6203
  788MOL0     C 3926   7.365   5.977   5.976  0.4293 -0.5257  0.0248
  788MOL0     C 3927   7.508   6.038   5.998 -0.1924 -0.2974  0.6848
  788MOL0    Cl 3928   7.595   5.976   5.852  0.2022  0.0676  0.2880
  788MOL0     C 3929   6.379   6.068   6.184 -0.4074  0.5228  0.2778
  788MOL0     C 3930   6.284   6.033   6.277  0.4126 -0.4033  0.3862
  788MOL0     O 3931   6.100   5.691   6.370 -0.2072 -0.4446  0.7576
  788MOL0     C 3932   5.984   5.892   6.653  0.4897 -0.5869 -0.6665
  788MOL0     C 3933   5.871   5.907   6.735 -0.9723 -0.3973  0.4497
  788MOL0     N 3934   5.637   6.298   6.403 -0.1550 -0.0834  0.4827
  788MOL0     N 3935   5.754   6.304   6.352  0.1817 -0.5719  0.1452
  788MOL0     C 3936   6.851   6.426   6.919 -0.0592  0.3109  0.2456
  788MOL0     C 3937   6.977   6.358   6.948 -0.2898 -0.5676  0.4393
  788MOL0     C 3938   7.277   6.030   6.823  0.0828 -0.0072 -0.2561
  788MOL0     C 3939   7.384   6.075   6.749 -0.9188  0.1339  0.5789
  788MOL0     C 3940   7.487   5.983   6.699  0.0335  0.3176 -0.2391
  788MOL0     C 3941   7.472   5.847   6.730  1.1556  0.1862  0.4436
  788MOL0     O 3942   7.549   5.749   6.685  0.4508  0.1562 -0.0298
  788MOL0     C 3943   7.667   5.768   6.610 -0.2762 -0.7855 -0.5043
  788MOL0     C 3944   7.757   5.643   6.620 -0.6555 -0.1812  0.4312
  788MOL0     C 3945   7.813   5.610   6.755 -0.0324  0.3998  1.2215
  788MOL0     C 3946   7.715   5.528   6.836 -0.3430  0.2760  0.8214
  788MOL0     C 3947   7.796   5.441   6.930 -0.9128  0.7292  0.5039
  788MOL0     C 3948   7.865   5.364   6.995  0.2830 -0.3818 -0.8918
  788MOL0     C 3949   7.363   5.801   6.811 -0.9363 -0.6585  0.3592
  788MOL0     C 3950   7.263   5.893   6.848  0.0845  0.5759 -0.8802
  788MOL0     H 3951   7.119   6.369   6.638  1.7265 -1.5977  1.5344
  788MOL0     H 3952   6.913   6.485   6.586 -0.0048 -0.9610 -1.0491
  788MOL0     H 3953   6.571   6.452   6.874  3.0143 -2.7799  0.4385
  788MOL0     H 3954   6.591   6.377   6.714  1.1622 -0.9235  0.3045
  788MOL0     H 3955   6.520   6.653   6.704 -0.4699  1.1509  4.7665
  788MOL0     H 3956   6.412   6.565   6.803 -1.1850 -0.3620 -0.4110
  788MOL0     H 3957   6.375   6.395   6.613  1.2432 -0.7033 -0.3891
  788MOL0     H 3958   6.499   6.472   6.516  1.4735 -1.2066  1.0208
  788MOL0     H 3959   6.225   6.570   6.602  1.1986 -0.0297  1.5872
  788MOL0     H 3960   6.343   6.676   6.529 -0.3804  1.0038 -2.2155
  788MOL0     H 3961   6.349   6.534   6.310  0.5290  1.2778  0.5255
  788MOL0     H 3962   6.197   6.627   6.356  0.1040  0.8440  0.4873
  788MOL0     H 3963   6.268   6.331   6.413 -1.0206  0.0961  1.0395
  788MOL0     H 3964   6.182   6.396   6.264  1.6272  0.4366 -0.9884
  788MOL0     H 3965   6.083   6.420   6.551  0.9960 -0.7764 -0.4594
  788MOL0     H 3966   6.019   6.507   6.408 -1.2867  0.4181  2.4911
  788MOL0     H 3967   6.039   6.197   6.460 -1.4880 -1.2978 -0.4358
  788MOL0     H 3968   5.988   6.257   6.309 -0.2852 -0.0636 -0.1240
  788MOL0     H 3969   5.821   6.253   6.669  0.1160 -3.3107 -0.8646
  788MOL0     H 3970   5.444   6.284   6.573 -1.7259 -1.4926  1.8867
  788MOL0     H 3971   5.538   6.363   6.691  0.4095  0.4663  0.4694
  788MOL0     H 3972   5.446   6.161   6.796  1.6900 -2.0846  2.2428
  788MOL0     H 3973   5.612   6.141   6.788  0.1042 -2.3642  0.5042
  788MOL0     H 3974   5.402   6.009   6.614 -0.0430 -0.7379 -0.0479
  788MOL0     H 3975   5.570   5.994   6.563 -2.6938 -0.3304 -2.9168
  788MOL0     H 3976   5.474   5.805   6.681  2.5431  0.7414 -4.7394
  788MOL0     H 3977   5.442   5.905   6.824  0.1983 -1.0147  0.2879
  788MOL0     H 3978   5.647   5.710   6.550 -0.3150 -0.9112  0.7102
  788MOL0     H 3979   5.864   5.664   6.423 -3.8066  1.1660 -1.8107
  788MOL0     H 3980   6.372   5.727   6.372 -1.6894  0.7364  3.5448
  788MOL0     H 3981   6.536   5.763   6.204 -2.6496 -1.5984 -0.0448
  788MOL0     H 3982   6.636   5.946   5.896 -1.6259 -0.3525  0.1966
  788MOL0     H 3983   6.638   5.838   6.031  0.4607 -0.5534 -0.5384
  788MOL0     H 3984   6.863   5.891   5.983  0.5526  2.0868 -0.8311
  788MOL0     H 3985   6.818   5.959   6.142  2.0463 -1.0701 -0.1952
  788MOL0     H 3986   6.804   6.195   6.022 -0.3277  0.0730  0.7788
  788MOL0     H 3987   6.858   6.093   5.886 -0.0927  0.1871  0.1044
  788MOL0     H 3988   7.047   6.230   5.984 -1.7417  1.0782 -0.2991
  788MOL0     H 3989   7.008   6.148   6.139 -2.4628 -1.1358 -0.1159
  788MOL0     H 3990   7.101   6.018   5.884  0.4792  1.9312  0.0587
  788MOL0     H 3991   7.099   5.924   6.039  0.8535 -1.7080 -1.8092
  788MOL0     H 3992   7.262   6.059   6.142  1.1120  0.6776 -0.6385
  788MOL0     H 3993   7.284   6.165   6.011  4.0369 -0.7482 -0.3922
  788MOL0     H 3994   7.355   5.877   6.019  2.1259 -1.1201 -0.8738
  788MOL0     H 3995   7.348   5.964   5.868 -0.8161  0.2422  0.1009
  788MOL0     H 3996   7.549   5.996   6.090  1.7489 -2.5221 -1.0557
  788MOL0     H 3997   7.508   6.148   5.999 -1.2953 -0.2330 -1.2655
  788MOL0     H 3998   6.371   6.167   6.139  0.3091  0.2257 -0.5383
  788MOL0     H 3999   6.211   6.111   6.296  0.3242 -0.6499  1.0613
  788MOL0     H 4000   6.074   5.950   6.670 -0.3341  0.9885 -1.4513
  788MOL0     H 4001   5.868   5.983   6.812  1.4868 -0.8443  1.0389
  788MOL0     H 4002   6.781   6.447   6.999  0.8394  1.0662  0.8587
  788MOL0     H 4003   6.985   6.333   7.053 -0.9793 -0.5497  0.4964
  788MOL0     H 4004   7.385   6.177   6.711  1.0826 -0.9614 -2.6874
  788MOL0     H 4005   7.566   6.022   6.637 -0.0083  0.1499 -0.3995
  788MOL0     H 4006   7.725   5.853   6.649 -1.1983 -2.3794  5.2524
  788MOL0     H 4007   7.652   5.770   6.501  2.3067 -0.1611 -0.9227
  788MOL0     H 4008   7.698   5.557   6.588 -2.1960  0.1411  2.2134
  788MOL0     H 4009   7.836   5.658   6.546 -1.2645 -1.3845 -0.4925
  788MOL0     H 4010   7.857   5.703   6.793  2.9343 -0.1779 -0.5453
  788MOL0     H 4011   7.902   5.550   6.734 -1.2616 -0.3302 -3.0488
  788MOL0     H 4012   7.645   5.592   6.890  0.4044  0.7442  1.2661
  788MOL0     H 4013   7.657   5.458   6.775  0.6335 -0.7197  0.9888
  788MOL0     H 4014   7.909   5.298   7.067 -1.1344  1.8057  2.2041
  788MOL0     H 4015   7.373   5.697   6.839  2.3361  0.4751  4.4688
  788MOL0     H 4016   7.188   5.859   6.920  2.1982  1.0982  1.7039
  789MOL0     O 4017   4.527   0.415   9.848  0.6491  0.0946  0.0796
  789MOL0     C 4018   4.488   0.361   9.741  0.6909 -0.0473 -0.1923
  789MOL0     O 4019   4.560   0.325   9.637  0.1006  0.0601  0.5023
  789MOL0     C 4020   4.694   0.359   9.618  0.3746  0.7996  0.2437
  789MOL0     C 4021   4.763   0.276   9.523  1.0857  0.8370 -0.3262
  789MOL0     C 4022   4.898   0.294   9.501  0.2387 -0.7161  0.6251
  789MOL0     C 4023   4.971   0.384   9.575  0.6202 -0.2611 -0.1895
  789MOL0     O 4024   5.116   0.392   9.582 -0.1955 -0.0199  0.0724
  789MOL0     C 4025   5.182   0.266   9.558  0.1607 -0.1213  0.5667
  789MOL0     C 4026   5.333   0.263   9.578  0.1160  0.2668 -0.7872
  789MOL0     C 4027   5.395   0.268   9.718 -1.0187 -0.1587 -0.2968
  789MOL0     C 4028   5.426   0.130   9.771  0.4534 -0.1467 -0.1429
  789MOL0     C 4029   5.403   0.111   9.923  0.1609 -0.6128  0.0712
  789MOL0     C 4030   5.517   0.164  10.014 -0.4616  0.1846  1.1729
  789MOL0     C 4031   5.630   0.058  10.044  0.0798 -0.4498  0.7141
  789MOL0     C 4032   5.746   0.024   9.942  0.2692  0.6366  0.1466
  789MOL0     N 4033   5.823   0.146   9.904  0.0748 -0.3393  0.7389
  789MOL0     C 4034   5.931   0.195   9.968 -0.2224  0.6302 -0.0656
  789MOL0     C 4035   5.952   0.317   9.912  0.4683  0.3632 -0.1588
  789MOL0     C 4036   6.072   0.402   9.937 -1.3828  0.2102  0.7814
  789MOL0     C 4037   6.069   0.469  10.064 -0.0428 -0.9740 -0.0633
  789MOL0     C 4038   6.160   0.592  10.071  0.1438 -0.5428 -0.5040
  789MOL0     C 4039   6.305   0.569  10.118  0.1132  1.1565 -0.3595
  789MOL0     O 4040   6.368   0.449  10.073  0.6800  0.5975 -0.1664
  789MOL0     C 4041   6.496   0.426  10.101 -0.4033  0.3031  0.3989
  789MOL0     C 4042   6.568   0.347  10.020  0.2627  0.3152 -1.0230
  789MOL0     C 4043   6.703   0.327  10.037  0.2460 -0.3369 -0.1933
  789MOL0     C 4044   6.775   0.399  10.130 -0.2831  0.2592  0.3263
  789MOL0     C 4045   6.924   0.393  10.133  0.3182 -0.5451  0.6114
  789MOL0     O 4046   6.992   0.324  10.036 -0.2653  0.1382  0.7237
  789MOL0     C 4047   7.126   0.327  10.050  0.0169 -0.8061 -1.2649
  789MOL0     C 4048   7.194   0.280  10.166 -0.5510 -0.3695 -0.1525
  789MOL0     C 4049   7.336   0.298  10.171 -0.4415  0.0041  0.0795
  789MOL0     C 4050   7.406   0.367  10.074  0.0169  0.3771  0.3347
  789MOL0     O 4051   7.536   0.394  10.083  0.6126 -0.0482  0.2286
  789MOL0     C 4052   7.623   0.286  10.046  0.3956  0.1527  0.6764
  789MOL0     C 4053   7.767   0.312  10.084 -0.4278 -0.3335 -0.3953
  789MOL0     C 4054   7.775   0.316  10.237  0.0807  0.7230  0.7037
  789MOL0     C 4055   7.898   0.394  10.290 -0.6699  0.6279 -0.0320
  789MOL0     C 4056   8.027   0.311  10.262 -0.9453 -1.2300  0.0511
  789MOL0     C 4057   8.149   0.395  10.314  0.2938 -0.6588 -0.1616
  789MOL0     C 4058   8.275   0.334  10.266 -0.5570 -1.2130  0.8852
  789MOL0     C 4059   8.305   0.331  10.112 -0.4721 -0.3435  1.2608
  789MOL0    Cl 4060   8.477   0.363  10.071  0.3529  0.3955  0.2779
  789MOL0     C 4061   7.334   0.405   9.958 -0.7615  0.6168 -0.4698
  789MOL0     C 4062   7.197   0.390   9.946  0.2474 -0.4505  0.6940
  789MOL0     O 4063   6.975   0.453  10.227 -0.2063 -0.0523  0.1666
  789MOL0     C 4064   6.705   0.473  10.224  0.3761  0.4173  0.6574
  789MOL0     C 4065   6.569   0.497  10.203  1.0294 -0.2920 -0.3958
  789MOL0     N 4066   5.847   0.341   9.829  0.1402 -0.4963  0.3977
  789MOL0     N 4067   5.777   0.240   9.812  0.6375  0.7591 -0.6042
  789MOL0     C 4068   4.910   0.473   9.660 -0.8536  0.9940  0.2576
  789MOL0     C 4069   4.776   0.452   9.682 -0.0311 -0.3314  0.1481
  789MOL0     C 4070   4.347   0.332   9.734 -0.7727  0.6057 -0.4506
  789MOL0     C 4071   4.279   0.277   9.624 -0.7523  0.1955 -1.3612
  789MOL0     C 4072   4.141   0.244   9.617 -0.3616 -0.1647 -0.2426
  789MOL0     C 4073   4.073   0.249   9.738  0.9604 -0.1204  0.2886
  789MOL0     O 4074   3.944   0.214   9.740 -0.5856  0.0910 -0.2064
  789MOL0     C 4075   3.859   0.243   9.845 -1.0774 -0.2686 -0.3830
  789MOL0     C 4076   3.752   0.349   9.797  0.1654  0.4715 -0.5380
  789MOL0     C 4077   3.688   0.330   9.657  0.2807  0.5530  0.3606
  789MOL0     C 4078   3.584   0.216   9.652  0.5318  0.9549 -0.4208
  789MOL0     C 4079   3.636   0.080   9.662  1.1578  0.0394  0.2817
  789MOL0     C 4080   3.673  -0.038   9.664 -0.3107 -0.2741  0.1895
  789MOL0     C 4081   4.134   0.302   9.853 -1.4519 -0.2702  0.2098
  789MOL0     C 4082   4.264   0.351   9.847 -0.3740  0.0664 -0.0667
  789MOL0     H 4083   4.706   0.189   9.492 -0.1312  0.6359  2.2264
  789MOL0     H 4084   4.948   0.237   9.424  1.4874  0.2553  0.6806
  789MOL0     H 4085   5.165   0.242   9.452 -0.8139  1.3695  0.3543
  789MOL0     H 4086   5.135   0.191   9.622 -0.5811 -0.4564 -0.3430
  789MOL0     H 4087   5.382   0.347   9.527  3.2298 -1.0298 -0.1846
  789MOL0     H 4088   5.368   0.172   9.529  2.4722 -0.0351  1.2300
  789MOL0     H 4089   5.337   0.324   9.792  3.0371  0.6632  2.6525
  789MOL0     H 4090   5.490   0.322   9.720 -0.9761 -0.0441 -2.6733
  789MOL0     H 4091   5.359   0.065   9.715  2.3602 -0.8574 -1.7268
  789MOL0     H 4092   5.527   0.098   9.744 -0.0399 -0.2302 -2.0239
  789MOL0     H 4093   5.384   0.006   9.944  0.6022 -0.8761 -0.7761
  789MOL0     H 4094   5.316   0.174   9.944 -3.1021 -3.7347 -2.7101
  789MOL0     H 4095   5.472   0.186  10.111 -1.0321  2.3192  0.4898
  789MOL0     H 4096   5.541   0.263   9.975 -1.4556 -0.2469 -0.7084
  789MOL0     H 4097   5.677   0.098  10.134 -0.8640 -3.1614  2.5708
  789MOL0     H 4098   5.580  -0.033  10.080  4.4164 -2.8508  1.3442
  789MOL0     H 4099   5.703  -0.017   9.850  2.3813  1.7831 -1.4539
  789MOL0     H 4100   5.808  -0.058   9.979 -1.7569 -1.2668 -0.4961
  789MOL0     H 4101   5.988   0.152  10.050 -0.1816 -1.9712 -1.3620
  789MOL0     H 4102   6.065   0.476   9.856 -0.8239  0.2725  0.7881
  789MOL0     H 4103   6.162   0.343   9.919 -1.8481  0.2146 -1.9994
  789MOL0     H 4104   6.093   0.400  10.144  0.5780 -1.8731 -1.0016
  789MOL0     H 4105   5.969   0.509  10.083  0.9086  2.1352 -0.9948
  789MOL0     H 4106   6.169   0.638   9.972  3.0740 -0.6081 -0.3577
  789MOL0     H 4107   6.124   0.662  10.147 -2.2511 -2.0382 -0.1674
  789MOL0     H 4108   6.316   0.574  10.227 -1.6863  0.9660 -0.1465
  789MOL0     H 4109   6.369   0.650  10.082  2.4950  0.4032  1.8155
  789MOL0     H 4110   6.521   0.282   9.947  0.3244 -2.6222  1.3141
  789MOL0     H 4111   6.745   0.250   9.973  0.7471  0.1580 -0.4676
  789MOL0     H 4112   7.148   0.223  10.247 -1.9426 -0.0422 -0.6847
  789MOL0     H 4113   7.385   0.264  10.261 -0.4610 -2.3122 -0.7215
  789MOL0     H 4114   7.616   0.277   9.937  1.3704  1.3618  0.4933
  789MOL0     H 4115   7.594   0.194  10.098  3.1823 -0.9521  0.4965
  789MOL0     H 4116   7.799   0.399  10.025  1.0419 -0.7960 -0.3199
  789MOL0     H 4117   7.826   0.226  10.051  0.6531 -0.4336  1.6682
  789MOL0     H 4118   7.761   0.217  10.280  1.8275 -0.5046 -1.4145
  789MOL0     H 4119   7.693   0.378  10.276 -1.5398 -0.8172 -0.1348
  789MOL0     H 4120   7.896   0.493  10.244 -0.3765  0.4188 -0.4954
  789MOL0     H 4121   7.878   0.398  10.398  2.1177  0.4083  0.5549
  789MOL0     H 4122   8.039   0.297  10.154  3.4961  0.7624  0.0245
  789MOL0     H 4123   8.029   0.219  10.321 -1.1356 -0.9641  0.4831
  789MOL0     H 4124   8.138   0.405  10.422 -2.7806  3.3842 -0.6036
  789MOL0     H 4125   8.147   0.499  10.281 -0.6902 -0.8563 -0.7942
  789MOL0     H 4126   8.356   0.395  10.309 -0.4876 -0.4385 -0.3099
  789MOL0     H 4127   8.273   0.232  10.305  0.7313 -2.5907 -2.3069
  789MOL0     H 4128   8.251   0.413  10.064 -3.2079 -1.8566  1.5633
  789MOL0     H 4129   8.270   0.243  10.057 -0.7993 -0.8320  2.2271
  789MOL0     H 4130   7.398   0.444   9.880 -1.6476  1.0134 -1.0157
  789MOL0     H 4131   7.145   0.424   9.857 -0.0669 -1.8058  0.3276
  789MOL0     H 4132   6.761   0.508  10.310  2.3302 -1.6185  0.3112
  789MOL0     H 4133   6.546   0.563  10.286  1.1282  0.4903 -0.9873
  789MOL0     H 4134   4.968   0.545   9.717 -0.4911  0.3984  0.6569
  789MOL0     H 4135   4.724   0.497   9.765  0.4741  1.7239 -0.6050
  789MOL0     H 4136   4.333   0.253   9.533 -1.4785  2.6421 -2.5134
  789MOL0     H 4137   4.107   0.194   9.527 -1.8381  2.4881 -1.3070
  789MOL0     H 4138   3.909   0.289   9.931  0.5037  0.2375 -1.5094
  789MOL0     H 4139   3.809   0.151   9.876 -2.4241  1.0690  1.6993
  789MOL0     H 4140   3.679   0.357   9.878  0.3991  2.0802 -0.4674
  789MOL0     H 4141   3.802   0.446   9.798 -0.8416  1.0108 -0.8479
  789MOL0     H 4142   3.765   0.306   9.583 -2.0871 -3.4183 -1.1206
  789MOL0     H 4143   3.648   0.426   9.624 -2.1910  0.0525  1.6396
  789MOL0     H 4144   3.521   0.238   9.739  4.1358 -0.2699  2.8339
  789MOL0     H 4145   3.532   0.226   9.557 -2.6022  1.6335  1.2224
  789MOL0     H 4146   3.713  -0.137   9.673  4.8656  1.4591 -0.5060
  789MOL0     H 4147   4.098   0.328   9.952  1.7698  3.3683  0.6636
  789MOL0     H 4148   4.300   0.373   9.947  0.5782 -2.0368  0.1038
  790MOL0     O 4149   0.459  11.076   7.550  0.5403  0.5429 -0.2401
  790MOL0     C 4150   0.458  11.186   7.504 -0.3969  0.2059 -0.2377
  790MOL0     O 4151   0.352  11.270   7.504 -0.2578  0.3004 -0.2697
  790MOL0     C 4152   0.232  11.232   7.547 -0.0386  0.3060  0.1892
  790MOL0     C 4153   0.163  11.322   7.627  0.8219 -0.7314  0.0166
  790MOL0     C 4154   0.026  11.307   7.649 -0.5819 -0.0636  0.2776
  790MOL0     C 4155  -0.045  11.194   7.613 -0.2887 -0.2449  0.1718
  790MOL0     O 4156  -0.171  11.183   7.664 -0.0180  0.4885  0.2073
  790MOL0     C 4157  -0.251  11.079   7.613  0.1962 -0.4585 -0.4256
  790MOL0     C 4158  -0.394  11.090   7.674  0.2999  0.0551  1.1260
  790MOL0     C 4159  -0.483  10.975   7.639 -0.2170 -0.0962  0.8443
  790MOL0     C 4160  -0.631  10.995   7.673  0.2302 -0.3436  0.7626
  790MOL0     C 4161  -0.712  11.106   7.585 -0.2191 -0.5941 -0.2009
  790MOL0     C 4162  -0.729  11.071   7.442  0.6130 -0.7078  0.2718
  790MOL0     C 4163  -0.791  10.937   7.398 -0.4378  0.7540 -0.0009
  790MOL0     C 4164  -0.945  10.911   7.418 -0.0678 -0.1112  0.1744
  790MOL0     N 4165  -1.000  10.810   7.330 -0.8559 -0.3580 -0.7611
  790MOL0     C 4166  -0.952  10.678   7.315  1.6618  0.2398  0.2597
  790MOL0     C 4167  -1.039  10.615   7.230 -0.0337  0.1569  0.2802
  790MOL0     C 4168  -1.038  10.483   7.166 -0.3555  0.1325 -1.2602
  790MOL0     C 4169  -1.137  10.389   7.247  1.0160 -0.3170  0.1142
  790MOL0     C 4170  -1.273  10.400   7.184  0.6991 -0.0018  0.3133
  790MOL0     C 4171  -1.380  10.315   7.255  1.2860  1.4750  0.0702
  790MOL0     O 4172  -1.502  10.363   7.193  0.2478  0.5679  0.1376
  790MOL0     C 4173  -1.622  10.365   7.257 -0.5045 -0.4500  0.1545
  790MOL0     C 4174  -1.652  10.287   7.357  0.3193 -0.8140 -0.4900
  790MOL0     C 4175  -1.771  10.298   7.420  0.8230 -0.1513 -0.2300
  790MOL0     C 4176  -1.857  10.401   7.392  0.4992 -0.5242  0.2171
  790MOL0     C 4177  -1.964  10.443   7.489 -0.2475 -0.3694 -0.1041
  790MOL0     O 4178  -1.973  10.365   7.606 -0.5006 -0.1592  0.6943
  790MOL0     C 4179  -2.060  10.392   7.708 -0.7846  0.3764 -0.2216
  790MOL0     C 4180  -2.018  10.347   7.831  0.0472 -0.2195 -0.1435
  790MOL0     C 4181  -2.096  10.376   7.951  0.6465 -0.0970  0.7103
  790MOL0     C 4182  -2.225  10.423   7.941 -0.0066 -0.2987 -0.1359
  790MOL0     O 4183  -2.314  10.427   8.040 -0.0612 -0.5526  0.1845
  790MOL0     C 4184  -2.275  10.398   8.169  0.0584  0.2482  0.0048
  790MOL0     C 4185  -2.395  10.376   8.264 -0.7619 -0.4230  0.4683
  790MOL0     C 4186  -2.535  10.367   8.207 -0.5352  0.4537  0.8617
  790MOL0     C 4187  -2.630  10.359   8.328 -0.3440 -0.2086 -0.8526
  790MOL0     C 4188  -2.778  10.337   8.280  0.5468 -0.2415 -1.4674
  790MOL0     C 4189  -2.877  10.343   8.390  0.2691 -0.2292  0.1464
  790MOL0     C 4190  -3.025  10.297   8.346  0.5167 -0.1736 -0.2414
  790MOL0     C 4191  -3.107  10.284   8.468  0.7764  0.5359 -0.4976
  790MOL0    Cl 4192  -3.267  10.207   8.429  0.3287 -0.0023 -0.0300
  790MOL0     C 4193  -2.268  10.467   7.823  0.7253 -1.7660  1.0726
  790MOL0     C 4194  -2.192  10.449   7.706 -0.6457 -0.3134 -0.5213
  790MOL0     O 4195  -2.014  10.551   7.476 -0.1859  0.1110  0.7044
  790MOL0     C 4196  -1.836  10.484   7.282 -0.7465 -0.0868 -0.3744
  790MOL0     C 4197  -1.716  10.463   7.214  0.5611  0.6090  0.1289
  790MOL0     N 4198  -1.133  10.711   7.184  0.6441 -0.5409 -0.3245
  790MOL0     N 4199  -1.109  10.823   7.249  0.2987 -0.0152 -0.8089
  790MOL0     C 4200   0.032  11.087   7.560  0.7072 -0.9898 -0.2134
  790MOL0     C 4201   0.162  11.118   7.509  0.5662  0.7294  0.2037
  790MOL0     C 4202   0.568  11.226   7.420  0.0126 -0.0032  0.3394
  790MOL0     C 4203   0.587  11.364   7.381  0.4137 -0.0401  0.0149
  790MOL0     C 4204   0.707  11.403   7.324 -0.3846 -0.1198 -0.4483
  790MOL0     C 4205   0.808  11.310   7.290  0.2505 -0.1335  0.1410
  790MOL0     O 4206   0.921  11.351   7.224  0.7731 -0.2546  0.2826
  790MOL0     C 4207   0.929  11.320   7.088 -0.2490 -0.9827  0.1288
  790MOL0     C 4208   1.035  11.214   7.056  0.1071 -0.2911 -0.3053
  790MOL0     C 4209   1.168  11.271   7.087  0.2053 -0.2652  0.4329
  790MOL0     C 4210   1.269  11.171   7.021  0.4201  0.1916  0.0352
  790MOL0     C 4211   1.407  11.219   7.033 -0.2557  0.1808 -1.0399
  790MOL0     C 4212   1.518  11.260   7.070 -0.7917  0.2461  0.0765
  790MOL0     C 4213   0.796  11.177   7.334 -0.1052 -0.1531  1.2925
  790MOL0     C 4214   0.677  11.134   7.394  0.2443  1.1619  0.3634
  790MOL0     H 4215   0.215  11.416   7.644 -0.2628 -0.0326 -0.4617
  790MOL0     H 4216  -0.034  11.383   7.699 -2.6266 -1.4851  0.1318
  790MOL0     H 4217  -0.199  10.985   7.630  0.2981 -0.0317  1.8471
  790MOL0     H 4218  -0.255  11.103   7.506 -1.6625  2.8692  0.2208
  790MOL0     H 4219  -0.434  11.186   7.641 -2.3084 -1.3844 -0.2982
  790MOL0     H 4220  -0.386  11.092   7.783 -1.5604  1.6917  1.2878
  790MOL0     H 4221  -0.440  10.894   7.699 -0.5596 -2.6643 -2.0786
  790MOL0     H 4222  -0.472  10.942   7.535  1.9054 -1.0031  1.2919
  790MOL0     H 4223  -0.688  10.904   7.652  0.3810 -0.2416 -0.1577
  790MOL0     H 4224  -0.637  11.021   7.779  0.1600  1.4992  0.3305
  790MOL0     H 4225  -0.664  11.204   7.592 -0.2148 -0.2668 -3.3812
  790MOL0     H 4226  -0.813  11.117   7.625 -0.0219  2.2390 -0.3228
  790MOL0     H 4227  -0.632  11.072   7.391  0.0477  3.2392 -1.1459
  790MOL0     H 4228  -0.781  11.156   7.396  1.4194 -1.2720 -1.7915
  790MOL0     H 4229  -0.782  10.924   7.290  0.7096 -2.9095  0.3912
  790MOL0     H 4230  -0.753  10.846   7.446 -1.0180  1.0925  1.1519
  790MOL0     H 4231  -1.001  10.998   7.383 -2.3546 -1.0732  1.2146
  790MOL0     H 4232  -0.972  10.881   7.520  1.3467 -0.3841  0.4954
  790MOL0     H 4233  -0.878  10.623   7.373  0.4561 -0.0177  1.6012
  790MOL0     H 4234  -0.937  10.440   7.173 -0.4074  0.2291  0.7682
  790MOL0     H 4235  -1.063  10.494   7.060 -0.4763  4.6128 -0.9646
  790MOL0     H 4236  -1.149  10.419   7.352 -7.2873 -1.4620  0.1433
  790MOL0     H 4237  -1.110  10.283   7.242 -3.7018 -1.8994  1.8389
  790MOL0     H 4238  -1.302  10.505   7.185  0.7235  0.0035  0.4743
  790MOL0     H 4239  -1.271  10.370   7.078 -0.4870  0.6889  0.0729
  790MOL0     H 4240  -1.384  10.340   7.362  0.1371  3.6918 -0.4398
  790MOL0     H 4241  -1.352  10.211   7.235 -1.4624  0.3139  1.6389
  790MOL0     H 4242  -1.591  10.205   7.392 -0.0641 -0.1351  1.9143
  790MOL0     H 4243  -1.795  10.229   7.500  1.0648 -0.9234 -0.8172
  790MOL0     H 4244  -1.930  10.284   7.831 -1.0774 -1.8588 -0.1650
  790MOL0     H 4245  -2.055  10.364   8.050 -3.0859  0.4979  2.5097
  790MOL0     H 4246  -2.209  10.478   8.203 -0.7575  1.3420 -0.8935
  790MOL0     H 4247  -2.210  10.310   8.164  1.4675  1.3171 -1.3211
  790MOL0     H 4248  -2.396  10.456   8.338 -1.2721 -2.4291  2.7543
  790MOL0     H 4249  -2.369  10.279   8.308  1.3773 -0.1736 -0.1436
  790MOL0     H 4250  -2.535  10.273   8.151 -0.3101  1.2789 -0.5667
  790MOL0     H 4251  -2.567  10.448   8.141  1.1355  1.2794  0.9926
  790MOL0     H 4252  -2.601  10.274   8.392 -2.6979 -1.0275 -0.7535
  790MOL0     H 4253  -2.633  10.449   8.390 -2.4122 -1.7209  1.5006
  790MOL0     H 4254  -2.782  10.240   8.230 -0.2813  0.8568 -3.6975
  790MOL0     H 4255  -2.806  10.411   8.204  1.3910 -1.2039 -2.7447
  790MOL0     H 4256  -2.870  10.443   8.434 -0.5652 -0.8533  1.7659
  790MOL0     H 4257  -2.838  10.272   8.464 -0.9898 -3.1357 -1.7973
  790MOL0     H 4258  -3.071  10.374   8.283  1.7612  0.9615  0.1784
  790MOL0     H 4259  -3.008  10.203   8.293  3.0340 -1.2658  2.2272
  790MOL0     H 4260  -3.126  10.380   8.517  0.1235 -0.3236  1.0079
  790MOL0     H 4261  -3.059  10.226   8.548 -1.7505  0.0215  0.7719
  790MOL0     H 4262  -2.362  10.520   7.823  2.5336  1.7555  2.1312
  790MOL0     H 4263  -2.230  10.492   7.613 -2.5361  0.9406  0.7487
  790MOL0     H 4264  -1.895  10.574   7.266  0.4296  1.1031  1.5909
  790MOL0     H 4265  -1.689  10.535   7.138  0.8396 -1.6799 -2.0712
  790MOL0     H 4266  -0.012  10.992   7.532 -2.6135  0.0849  0.9016
  790MOL0     H 4267   0.209  11.049   7.439 -1.4822 -0.7278  0.1908
  790MOL0     H 4268   0.520  11.447   7.403  1.5035  0.5831  1.1060
  790MOL0     H 4269   0.726  11.506   7.296  3.7435 -0.6822 -0.2502
  790MOL0     H 4270   0.949  11.412   7.032 -1.3518 -1.9456 -1.9650
  790MOL0     H 4271   0.828  11.297   7.052 -1.0000  2.7668 -0.5475
  790MOL0     H 4272   1.003  11.123   7.108  0.5112  0.3387  1.0945
  790MOL0     H 4273   1.037  11.195   6.948 -0.4951 -0.2771 -0.3234
  790MOL0     H 4274   1.186  11.268   7.195  1.5375  0.7619  0.2705
  790MOL0     H 4275   1.176  11.374   7.050 -2.8543  1.3531  3.6059
  790MOL0     H 4276   1.261  11.067   7.054  2.9159 -0.7731 -2.0645
  790MOL0     H 4277   1.256  11.173   6.912  1.3623  1.0772 -0.0767
  790MOL0     H 4278   1.617  11.300   7.084  0.1920 -0.6824 -3.2166
  790MOL0     H 4279   0.878  11.108   7.314  0.5445  0.0981  2.9186
  790MOL0     H 4280   0.660  11.031   7.424  1.5974  1.4202  2.1876
  791MOL0     O 4281   4.674  10.561   5.094  0.7736 -0.3573  0.5304
  791MOL0     C 4282   4.683  10.680   5.056  0.6607 -0.3445 -0.2003
  791MOL0     O 4283   4.581  10.755   4.992 -0.8626 -0.0706 -0.3773
  791MOL0     C 4284   4.469  10.691   4.942  0.2444 -0.5172  0.2670
  791MOL0     C 4285   4.463  10.560   4.884 -0.4288  0.4061 -0.7986
  791MOL0     C 4286   4.336  10.521   4.815 -0.6018 -0.3987 -0.5647
  791MOL0     C 4287   4.224  10.604   4.816  0.5160 -0.0865  0.2294
  791MOL0     O 4288   4.116  10.567   4.746 -0.0013 -0.2213 -0.1076
  791MOL0     C 4289   3.990  10.535   4.811 -0.7398  0.3208  0.4225
  791MOL0     C 4290   3.882  10.499   4.704 -0.1975  0.0216 -0.5444
  791MOL0     C 4291   3.753  10.495   4.781 -0.1054  0.5197  0.1651
  791MOL0     C 4292   3.633  10.479   4.683 -0.2395  0.6726  0.3621
  791MOL0     C 4293   3.514  10.399   4.738  1.2033  0.7786  0.6478
  791MOL0     C 4294   3.483  10.442   4.879  0.6642  0.4079  0.7232
  791MOL0     C 4295   3.341  10.393   4.919  0.5122 -0.0223 -0.2274
  791MOL0     C 4296   3.342  10.249   4.967 -0.2139  0.1152 -0.6399
  791MOL0     N 4297   3.202  10.210   4.995  0.0944  0.4153 -0.9523
  791MOL0     C 4298   3.145  10.247   5.115  1.0861 -0.8144 -0.1485
  791MOL0     C 4299   3.016  10.217   5.097  0.1114  0.5688 -0.5542
  791MOL0     C 4300   2.897  10.238   5.194  0.0280 -0.2127 -0.0858
  791MOL0     C 4301   2.765  10.279   5.134 -0.3867  0.1467 -0.5980
  791MOL0     C 4302   2.784  10.402   5.039  0.5256  0.0901 -0.3393
  791MOL0     C 4303   2.656  10.459   4.984  0.1911 -0.4256  0.7719
  791MOL0     O 4304   2.596  10.542   5.081  0.5615  0.3607  0.6270
  791MOL0     C 4305   2.464  10.515   5.111 -0.1350  0.6768  0.4054
  791MOL0     C 4306   2.391  10.388   5.107 -0.2463  0.9099  0.5660
  791MOL0     C 4307   2.264  10.367   5.155 -0.5442 -0.5214 -0.2875
  791MOL0     C 4308   2.197  10.479   5.206  0.3661 -0.3214  0.1865
  791MOL0     C 4309   2.063  10.454   5.263 -0.6263 -0.1967  0.0620
  791MOL0     O 4310   1.996  10.340   5.216  0.1312 -0.1295  0.0330
  791MOL0     C 4311   1.871  10.320   5.263  1.3641  0.2994 -0.1893
  791MOL0     C 4312   1.834  10.307   5.394 -0.4993  0.0388  0.3061
  791MOL0     C 4313   1.707  10.276   5.442 -1.1727 -0.2873  0.0962
  791MOL0     C 4314   1.607  10.262   5.346 -0.1890  0.3237 -0.0550
  791MOL0     O 4315   1.479  10.270   5.391 -0.0553 -0.5332 -0.4633
  791MOL0     C 4316   1.378  10.216   5.306 -0.0199 -0.0434 -0.2133
  791MOL0     C 4317   1.261  10.164   5.384  1.0487  0.4828  0.1276
  791MOL0     C 4318   1.158  10.088   5.295  0.2184 -0.1881 -0.2510
  791MOL0     C 4319   1.050  10.014   5.365 -0.5155 -1.2731 -0.3474
  791MOL0     C 4320   0.955   9.928   5.278  0.2495 -0.5204  0.7782
  791MOL0     C 4321   0.846   9.860   5.360  0.0105 -0.6074  1.1601
  791MOL0     C 4322   0.744   9.777   5.276  0.1740 -0.3479  0.3210
  791MOL0     C 4323   0.641   9.734   5.378  0.4586  0.1790  0.4889
  791MOL0    Cl 4324   0.512   9.851   5.429  0.1046  0.1385 -0.1758
  791MOL0     C 4325   1.635  10.272   5.211 -0.7652  0.8227 -0.4470
  791MOL0     C 4326   1.765  10.306   5.171 -0.2758  0.2609  0.2116
  791MOL0     O 4327   2.020  10.539   5.336  0.5352  0.0924 -0.1850
  791MOL0     C 4328   2.259  10.608   5.219 -0.7864 -0.2603  0.1785
  791MOL0     C 4329   2.388  10.622   5.164  0.8117  0.2048 -0.3681
  791MOL0     N 4330   3.001  10.164   4.975  0.1284 -0.4978  0.9248
  791MOL0     N 4331   3.113  10.153   4.917 -0.5894 -0.6760 -0.0291
  791MOL0     C 4332   4.233  10.727   4.886  0.3958  0.6488  0.0883
  791MOL0     C 4333   4.354  10.775   4.935  0.0490 -0.2373  0.2603
  791MOL0     C 4334   4.800  10.764   5.091 -0.3703  0.4330 -0.2830
  791MOL0     C 4335   4.897  10.713   5.185  0.4728 -0.0749  0.8981
  791MOL0     C 4336   5.011  10.783   5.211 -0.3461 -0.0452  0.1677
  791MOL0     C 4337   5.037  10.898   5.139  0.1463 -0.4840 -0.1992
  791MOL0     O 4338   5.160  10.937   5.173 -0.2524  0.0491  0.1343
  791MOL0     C 4339   5.228  11.020   5.072 -0.0034  0.7631  0.1891
  791MOL0     C 4340   5.370  11.057   5.135  0.3775 -0.5137  0.1656
  791MOL0     C 4341   5.449  11.162   5.054  0.0053 -0.0782  1.2234
  791MOL0     C 4342   5.575  11.211   5.131 -0.4167  0.0787  0.6685
  791MOL0     C 4343   5.672  11.284   5.047 -0.1907 -0.0209  0.6013
  791MOL0     C 4344   5.752  11.346   4.987 -0.1394  0.9940 -0.4963
  791MOL0     C 4345   4.948  10.946   5.046  0.6399 -1.5418  0.1228
  791MOL0     C 4346   4.824  10.886   5.029 -0.5920 -1.2484 -0.5678
  791MOL0     H 4347   4.553  10.502   4.899 -1.8147 -1.0071  3.7944
  791MOL0     H 4348   4.334  10.426   4.764 -2.9901 -0.6623 -0.1045
  791MOL0     H 4349   3.953  10.628   4.857  0.5654  2.0645 -1.8280
  791MOL0     H 4350   4.012  10.451   4.877 -1.9221  1.1036  1.8823
  791MOL0     H 4351   3.888  10.401   4.656 -2.9661 -0.4328 -0.1646
  791MOL0     H 4352   3.863  10.567   4.621 -1.6991 -0.4035 -0.5865
  791MOL0     H 4353   3.751  10.586   4.843  0.0502  1.4463 -1.1520
  791MOL0     H 4354   3.748  10.416   4.857 -1.1532  0.7453  0.3525
  791MOL0     H 4355   3.606  10.577   4.642  0.5214  0.4605 -0.6630
  791MOL0     H 4356   3.671  10.424   4.597  1.4813 -0.7574  1.9420
  791MOL0     H 4357   3.541  10.294   4.727 -0.8468  0.3682 -1.0278
  791MOL0     H 4358   3.430  10.415   4.670  2.7960 -0.2255 -1.6994
  791MOL0     H 4359   3.497  10.549   4.898  2.0908  0.7854 -1.9371
  791MOL0     H 4360   3.542  10.385   4.951 -1.0288 -0.4064  1.5288
  791MOL0     H 4361   3.297  10.459   4.994  2.6686  1.9173 -0.5735
  791MOL0     H 4362   3.273  10.395   4.833  2.6825 -3.4735 -2.2733
  791MOL0     H 4363   3.404  10.227   5.055  0.2900 -1.0203 -1.2501
  791MOL0     H 4364   3.393  10.183   4.896 -0.0272 -1.6798  1.0741
  791MOL0     H 4365   3.187  10.299   5.201 -1.6072  1.8015 -0.2742
  791MOL0     H 4366   2.923  10.311   5.270 -0.8934  0.2885 -0.2440
  791MOL0     H 4367   2.881  10.140   5.240  1.5924 -0.4818 -0.0388
  791MOL0     H 4368   2.696  10.304   5.215 -0.9608 -1.4337 -0.5784
  791MOL0     H 4369   2.726  10.194   5.077 -0.8607 -0.3195  0.3994
  791MOL0     H 4370   2.833  10.483   5.095  1.4067  1.4038 -2.8724
  791MOL0     H 4371   2.845  10.385   4.950  1.1218 -2.6588  0.4905
  791MOL0     H 4372   2.587  10.379   4.956  1.3187 -2.0559  2.3930
  791MOL0     H 4373   2.672  10.512   4.890  0.4778  0.7177  1.4446
  791MOL0     H 4374   2.430  10.294   5.070 -1.1053  0.6587  0.2926
  791MOL0     H 4375   2.233  10.267   5.182 -0.4426  0.0755  2.3558
  791MOL0     H 4376   1.914  10.326   5.465  1.6885 -0.8790 -1.7491
  791MOL0     H 4377   1.684  10.284   5.548 -0.2271  0.6401  0.2499
  791MOL0     H 4378   1.417  10.129   5.252 -0.6644 -0.8560  0.5981
  791MOL0     H 4379   1.353  10.292   5.231 -1.0037  0.4159  0.5503
  791MOL0     H 4380   1.203  10.241   5.435 -2.8944 -1.5921 -0.8354
  791MOL0     H 4381   1.307  10.101   5.460  1.6960 -3.5644 -3.2256
  791MOL0     H 4382   1.211  10.009   5.242 -2.7445 -1.1838 -1.9895
  791MOL0     H 4383   1.115  10.160   5.224 -0.9421 -2.5276 -2.0697
  791MOL0     H 4384   1.100   9.965   5.449  3.8567  1.9812 -0.6811
  791MOL0     H 4385   0.984  10.088   5.411  0.0846  1.1412 -3.0514
  791MOL0     H 4386   1.015   9.850   5.232  0.9989 -1.2073  2.7857
  791MOL0     H 4387   0.916   9.983   5.192 -1.2895 -4.5127 -1.3147
  791MOL0     H 4388   0.793   9.950   5.396  2.2336  0.5303  1.7534
  791MOL0     H 4389   0.891   9.797   5.438  0.7284 -0.0313  1.2256
  791MOL0     H 4390   0.711   9.848   5.200 -0.9221 -2.9686 -1.8192
  791MOL0     H 4391   0.788   9.694   5.220 -0.9944 -0.1321 -0.9613
  791MOL0     H 4392   0.679   9.704   5.476 -3.2551 -3.4252  1.1016
  791MOL0     H 4393   0.579   9.650   5.347  2.5924 -1.7972  1.3543
  791MOL0     H 4394   1.566  10.277   5.128 -0.6988  0.5487 -0.5197
  791MOL0     H 4395   1.784  10.320   5.065  0.5705  4.0241  0.7145
  791MOL0     H 4396   2.213  10.693   5.268  0.3921  0.2386  0.4669
  791MOL0     H 4397   2.426  10.723   5.176  1.0705 -0.0497  1.1644
  791MOL0     H 4398   4.140  10.782   4.894  0.9747  1.7366 -0.3625
  791MOL0     H 4399   4.353  10.864   4.996 -3.1710 -0.4592  0.7336
  791MOL0     H 4400   4.872  10.613   5.221  0.7803 -1.8071 -3.1546
  791MOL0     H 4401   5.087  10.742   5.278 -0.0285  0.4317  0.0997
  791MOL0     H 4402   5.173  11.111   5.049 -2.5393  0.0698  2.9408
  791MOL0     H 4403   5.240  10.961   4.980  2.7341  3.1428 -1.1528
  791MOL0     H 4404   5.348  11.101   5.233 -0.6507  1.6015 -0.9435
  791MOL0     H 4405   5.419  10.960   5.142 -2.4545 -2.1423 -0.8498
  791MOL0     H 4406   5.397  11.256   5.031 -2.0299 -0.9916  1.9419
  791MOL0     H 4407   5.477  11.107   4.963 -2.1873 -1.6984  1.4647
  791MOL0     H 4408   5.537  11.284   5.203  0.9255  1.3535  0.1346
  791MOL0     H 4409   5.621  11.120   5.171  0.5301  0.0186 -0.5077
  791MOL0     H 4410   5.819  11.405   4.928  1.7265 -0.4945  0.0255
  791MOL0     H 4411   4.962  11.040   4.993  2.3172 -1.4047  0.7528
  791MOL0     H 4412   4.750  10.929   4.963  0.8227  0.8904 -0.8661
  792MOL0     O 4413   5.197   6.824   2.946 -0.2935 -0.7916 -0.2163
  792MOL0     C 4414   5.136   6.724   2.933  0.0998  0.0469 -0.2606
  792MOL0     O 4415   5.172   6.616   2.861  0.0177  0.4521  0.8570
  792MOL0     C 4416   5.302   6.611   2.815  0.5744 -0.5351  0.6765
  792MOL0     C 4417   5.381   6.511   2.858  0.6736 -0.1341 -0.2010
  792MOL0     C 4418   5.510   6.515   2.814  0.6134 -0.0244 -0.4175
  792MOL0     C 4419   5.559   6.614   2.728 -0.5833 -0.0407 -0.1138
  792MOL0     O 4420   5.678   6.606   2.666  0.0424  0.2497  0.7579
  792MOL0     C 4421   5.794   6.627   2.746 -0.3971  0.4586 -0.7103
  792MOL0     C 4422   5.933   6.637   2.676  0.3413  0.0566  0.7777
  792MOL0     C 4423   5.955   6.770   2.610 -0.2573  0.5451  0.5414
  792MOL0     C 4424   6.088   6.783   2.521  0.8023 -0.7484  0.1838
  792MOL0     C 4425   6.126   6.935   2.481 -0.2002  0.3487  0.5184
  792MOL0     C 4426   6.248   6.929   2.399 -0.5047 -0.5728 -0.7830
  792MOL0     C 4427   6.281   7.065   2.325 -0.2077 -0.4956  0.1123
  792MOL0     C 4428   6.331   7.171   2.428  0.1968  0.2828 -0.2350
  792MOL0     N 4429   6.353   7.299   2.354  0.7992 -0.4896 -0.0474
  792MOL0     C 4430   6.248   7.368   2.309  0.2733  0.0145 -0.3019
  792MOL0     C 4431   6.310   7.476   2.258 -0.2662 -0.2190  0.9278
  792MOL0     C 4432   6.234   7.584   2.190  0.4815  0.0236  0.5580
  792MOL0     C 4433   6.177   7.688   2.289 -0.6118  0.1943 -1.0136
  792MOL0     C 4434   6.272   7.757   2.378 -0.1079 -0.6979  1.1534
  792MOL0     C 4435   6.373   7.859   2.310  0.6281  0.2472 -0.7018
  792MOL0     O 4436   6.474   7.900   2.401 -0.0140 -0.0007  0.3458
  792MOL0     C 4437   6.591   7.935   2.335 -0.2097 -0.4044  0.0163
  792MOL0     C 4438   6.619   8.072   2.297 -0.1963 -0.0664 -0.9221
  792MOL0     C 4439   6.741   8.093   2.231  0.1051  0.9959  0.0137
  792MOL0     C 4440   6.850   8.002   2.236  0.5620  0.3485 -0.2666
  792MOL0     C 4441   6.988   8.048   2.203  0.8065  1.2423  0.2431
  792MOL0     O 4442   7.001   8.175   2.139 -0.2571  1.1411 -0.9986
  792MOL0     C 4443   7.130   8.214   2.094  0.7819 -0.6559  0.0267
  792MOL0     C 4444   7.236   8.200   2.184 -0.1266 -0.0467 -0.7822
  792MOL0     C 4445   7.363   8.259   2.154 -0.1660 -0.3500 -0.7131
  792MOL0     C 4446   7.391   8.313   2.027  0.0051 -0.8597  0.3530
  792MOL0     O 4447   7.512   8.371   1.988  0.1930  0.2118  0.6953
  792MOL0     C 4448   7.622   8.357   2.083  0.2323 -0.2920 -0.7190
  792MOL0     C 4449   7.756   8.419   2.029  0.2398 -0.0389  0.4086
  792MOL0     C 4450   7.804   8.317   1.922 -0.1873  0.5933  0.6111
  792MOL0     C 4451   7.924   8.372   1.848  0.3174  0.0610 -0.1664
  792MOL0     C 4452   7.995   8.271   1.756 -0.4437  1.0464 -0.8966
  792MOL0     C 4453   8.112   8.338   1.688 -0.0984  0.2968 -0.7736
  792MOL0     C 4454   8.139   8.306   1.533  0.1852 -1.5660 -0.7343
  792MOL0     C 4455   8.235   8.406   1.468 -0.7033  1.0799 -0.3582
  792MOL0    Cl 4456   8.393   8.409   1.561  0.5422 -0.5662 -0.2129
  792MOL0     C 4457   7.277   8.320   1.938 -1.0252 -0.4994  0.2447
  792MOL0     C 4458   7.152   8.275   1.977  0.3377 -0.2791 -0.4558
  792MOL0     O 4459   7.075   7.962   2.227 -0.0002 -0.0955  0.1232
  792MOL0     C 4460   6.821   7.881   2.307  0.1401  0.0032  0.3001
  792MOL0     C 4461   6.697   7.839   2.348  0.1680 -0.1371 -0.1359
  792MOL0     N 4462   6.446   7.465   2.266  0.4243  0.0692 -0.9455
  792MOL0     N 4463   6.467   7.357   2.335 -0.0767 -0.0290  0.6765
  792MOL0     C 4464   5.469   6.697   2.672  0.4628  0.7749 -0.3125
  792MOL0     C 4465   5.341   6.706   2.718 -0.0760  0.7556  0.1475
  792MOL0     C 4466   5.006   6.718   3.003 -0.2314  0.2571  0.4798
  792MOL0     C 4467   4.904   6.624   2.964  0.0660  0.3839 -0.0485
  792MOL0     C 4468   4.782   6.626   3.025  0.1575 -0.1259  0.0896
  792MOL0     C 4469   4.743   6.721   3.118 -0.0069  0.5187 -0.2955
  792MOL0     O 4470   4.622   6.727   3.187  0.2620 -0.0255 -0.0082
  792MOL0     C 4471   4.512   6.637   3.148 -0.8572 -0.6541 -0.1720
  792MOL0     C 4472   4.508   6.502   3.227  0.8913 -0.0159  0.1122
  792MOL0     C 4473   4.382   6.419   3.193 -0.5351  0.1474  0.1593
  792MOL0     C 4474   4.267   6.450   3.285 -0.0618  0.6140  0.4809
  792MOL0     C 4475   4.152   6.373   3.238 -0.7352 -0.1458  0.0396
  792MOL0     C 4476   4.072   6.290   3.198  0.2994  0.4819  1.6300
  792MOL0     C 4477   4.836   6.824   3.150 -0.1165  0.0258  0.1635
  792MOL0     C 4478   4.966   6.823   3.093 -0.4384 -0.0482 -0.0777
  792MOL0     H 4479   5.353   6.434   2.928  2.0826 -0.5824 -0.1154
  792MOL0     H 4480   5.572   6.440   2.863 -0.8853  0.1640  1.9271
  792MOL0     H 4481   5.804   6.536   2.807 -3.4452  0.6639  0.3010
  792MOL0     H 4482   5.789   6.713   2.814 -0.3257  0.4342 -0.6748
  792MOL0     H 4483   5.939   6.576   2.586 -0.5342  1.9070 -0.6238
  792MOL0     H 4484   6.016   6.613   2.742  1.4377 -0.1134 -0.6142
  792MOL0     H 4485   5.947   6.849   2.685 -1.4930  0.7830  0.1889
  792MOL0     H 4486   5.870   6.788   2.543 -1.7264 -2.4051  1.4429
  792MOL0     H 4487   6.162   6.755   2.596  0.1502 -0.3560  0.9906
  792MOL0     H 4488   6.090   6.717   2.434  2.3538 -0.8388  0.2602
  792MOL0     H 4489   6.130   6.990   2.575 -0.6094  0.9731  0.1752
  792MOL0     H 4490   6.055   6.981   2.412  0.1342 -0.4406 -0.3770
  792MOL0     H 4491   6.231   6.854   2.321 -1.9579 -0.7773 -0.2881
  792MOL0     H 4492   6.337   6.892   2.451 -1.4993 -1.0325  0.6646
  792MOL0     H 4493   6.363   7.053   2.253  1.0236  0.9982  1.1979
  792MOL0     H 4494   6.188   7.098   2.280 -1.3393  2.9883  4.2796
  792MOL0     H 4495   6.431   7.148   2.466  0.5137  1.4476 -0.3412
  792MOL0     H 4496   6.261   7.171   2.512  0.2986 -2.0516 -0.0817
  792MOL0     H 4497   6.143   7.341   2.312 -0.1173  1.5501  0.1809
  792MOL0     H 4498   6.155   7.543   2.127  1.4883 -0.4843 -0.4035
  792MOL0     H 4499   6.305   7.635   2.125  0.4922  2.0881  2.0732
  792MOL0     H 4500   6.100   7.642   2.352  1.4133 -0.3473  1.2461
  792MOL0     H 4501   6.115   7.759   2.234  0.7337  1.1137 -1.3940
  792MOL0     H 4502   6.216   7.817   2.451 -0.2204  0.0390  0.4660
  792MOL0     H 4503   6.334   7.691   2.441 -0.4099 -0.1668  2.0266
  792MOL0     H 4504   6.316   7.950   2.287 -1.7134 -0.8563  0.4463
  792MOL0     H 4505   6.408   7.811   2.218 -2.8715 -2.1046 -0.9762
  792MOL0     H 4506   6.547   8.151   2.310  2.1703  1.9980  0.6018
  792MOL0     H 4507   6.761   8.188   2.182 -1.6413  1.8807  0.9018
  792MOL0     H 4508   7.220   8.154   2.281 -2.1246  2.5083  0.2195
  792MOL0     H 4509   7.429   8.262   2.240 -2.1689 -2.1032  0.9836
  792MOL0     H 4510   7.631   8.254   2.121 -2.5234  0.9649  4.3289
  792MOL0     H 4511   7.599   8.411   2.175  4.3115 -2.2529  1.7526
  792MOL0     H 4512   7.839   8.424   2.100  1.7308 -0.2873 -1.2556
  792MOL0     H 4513   7.732   8.517   1.986 -0.1083  1.2943  3.3419
  792MOL0     H 4514   7.732   8.299   1.841  2.8184 -1.1086 -1.8944
  792MOL0     H 4515   7.824   8.221   1.968 -1.4923  0.3354  0.6656
  792MOL0     H 4516   7.887   8.451   1.782 -0.2097  0.4554  0.5880
  792MOL0     H 4517   7.996   8.425   1.910  0.0602  2.0477 -1.4589
  792MOL0     H 4518   7.926   8.234   1.679 -0.2650  0.6887 -0.8887
  792MOL0     H 4519   8.036   8.182   1.805 -0.9237  1.8168  0.9570
  792MOL0     H 4520   8.204   8.308   1.739  0.2177 -0.9708 -2.0142
  792MOL0     H 4521   8.107   8.447   1.684  1.1935  0.3387 -1.8779
  792MOL0     H 4522   8.162   8.203   1.504  0.0570 -0.9468 -3.1999
  792MOL0     H 4523   8.045   8.332   1.484  1.1984  0.7810 -1.5856
  792MOL0     H 4524   8.183   8.502   1.461 -3.4659 -0.0032  2.9312
  792MOL0     H 4525   8.258   8.374   1.366  2.0374 -1.9592  1.0496
  792MOL0     H 4526   7.299   8.359   1.839  1.9840  0.8903  1.3390
  792MOL0     H 4527   7.072   8.276   1.904 -1.3195  0.0691  1.2609
  792MOL0     H 4528   6.896   7.803   2.319  0.7670  0.2219 -1.7986
  792MOL0     H 4529   6.667   7.744   2.391 -1.3864  0.5214  0.3350
  792MOL0     H 4530   5.501   6.747   2.581  1.2298 -0.4740 -0.7499
  792MOL0     H 4531   5.262   6.772   2.682  0.0798  0.2341 -1.2176
  792MOL0     H 4532   4.920   6.546   2.891  0.0817 -1.2736  1.6433
  792MOL0     H 4533   4.716   6.547   2.991 -2.7074  1.8810  0.6869
  792MOL0     H 4534   4.512   6.622   3.040  3.3106  1.6676 -0.6980
  792MOL0     H 4535   4.419   6.693   3.163  0.8001  2.1701  0.3528
  792MOL0     H 4536   4.590   6.441   3.190  1.4832 -0.2186  1.6706
  792MOL0     H 4537   4.518   6.522   3.335 -0.0043 -0.3187  0.2585
  792MOL0     H 4538   4.411   6.314   3.204  0.6188  0.5005  0.6662
  792MOL0     H 4539   4.356   6.433   3.088 -1.8418  2.3980  0.7148
  792MOL0     H 4540   4.308   6.431   3.385 -1.4164  0.1915  0.9817
  792MOL0     H 4541   4.253   6.556   3.264  1.0672  0.5368 -0.8135
  792MOL0     H 4542   4.012   6.212   3.156 -0.5506  2.3155 -0.7698
  792MOL0     H 4543   4.801   6.910   3.207  1.2543  1.4896 -1.0927
  792MOL0     H 4544   5.026   6.912   3.107  0.8332 -0.6397 -1.4884
  793MOL0     O 4545   3.611   0.451  10.109  0.5186 -0.5547  0.4116
  793MOL0     C 4546   3.676   0.366  10.169  0.3327 -0.9640  0.2573
  793MOL0     O 4547   3.626   0.237  10.202  0.1951  0.2884 -0.2788
  793MOL0     C 4548   3.494   0.217  10.157 -0.1001 -0.3986 -0.0451
  793MOL0     C 4549   3.472   0.174  10.027  0.3035  0.2768  0.2036
  793MOL0     C 4550   3.337   0.160   9.984 -0.6511  0.3704  0.5462
  793MOL0     C 4551   3.224   0.188  10.065  0.7949  0.8109  0.0576
  793MOL0     O 4552   3.097   0.158  10.005  0.1371 -0.0249 -0.1287
  793MOL0     C 4553   2.977   0.200  10.069  0.2747  0.4152 -0.0580
  793MOL0     C 4554   2.935   0.088  10.157  0.3938  0.1582  0.0085
  793MOL0     C 4555   2.867  -0.015  10.070 -0.3908  0.0074  0.9193
  793MOL0     C 4556   2.907  -0.153  10.124 -1.1525  0.5293  0.1444
  793MOL0     C 4557   2.862  -0.273  10.032  0.4016 -0.5704 -0.3329
  793MOL0     C 4558   2.861  -0.400  10.114 -0.0125  0.3037 -0.4806
  793MOL0     C 4559   2.726  -0.412  10.189 -0.7898  0.5306  0.2114
  793MOL0     C 4560   2.705  -0.564  10.224  0.3023 -1.0330 -0.6956
  793MOL0     N 4561   2.577  -0.571  10.297 -0.2166  0.3929 -0.7139
  793MOL0     C 4562   2.452  -0.571  10.240 -0.1057 -0.3253  0.7460
  793MOL0     C 4563   2.358  -0.543  10.338 -0.2058  1.2293  0.1809
  793MOL0     C 4564   2.208  -0.534  10.322 -0.4859  0.2148 -0.5318
  793MOL0     C 4565   2.135  -0.640  10.409 -0.4581 -0.6144 -0.3824
  793MOL0     C 4566   2.142  -0.787  10.355 -0.7641  0.3084 -0.2965
  793MOL0     C 4567   2.032  -0.872  10.401  0.5794 -0.2767 -0.7246
  793MOL0     O 4568   1.916  -0.796  10.391 -0.0181 -0.3568 -0.6005
  793MOL0     C 4569   1.793  -0.853  10.412  0.9446 -0.9945 -0.3226
  793MOL0     C 4570   1.770  -0.980  10.449 -0.7674  0.3315 -0.5923
  793MOL0     C 4571   1.641  -1.022  10.488 -0.0848 -0.5362  0.8701
  793MOL0     C 4572   1.538  -0.935  10.459  0.2610 -0.0335  0.2343
  793MOL0     C 4573   1.398  -0.990  10.473 -0.8345 -0.2059  0.6825
  793MOL0     O 4574   1.394  -1.101  10.545 -0.3367 -0.8895 -0.5384
  793MOL0     C 4575   1.281  -1.182  10.562  0.4551  0.8820  0.1360
  793MOL0     C 4576   1.141  -1.158  10.575  0.4006  0.4369 -0.2548
  793MOL0     C 4577   1.049  -1.265  10.603  0.1171 -0.7023 -0.5109
  793MOL0     C 4578   1.088  -1.389  10.594 -0.6811  0.1984  0.4070
  793MOL0     O 4579   0.996  -1.478  10.638 -0.2200  1.0037 -0.1886
  793MOL0     C 4580   0.989  -1.600  10.565  0.1147  0.6038  0.0513
  793MOL0     C 4581   0.858  -1.688  10.583  1.7536 -0.3777 -0.0767
  793MOL0     C 4582   0.716  -1.605  10.598  0.3515 -0.5947 -0.7795
  793MOL0     C 4583   0.619  -1.676  10.687 -0.0230 -0.1194  1.0157
  793MOL0     C 4584   0.579  -1.802  10.611  0.3089  0.2852 -0.2224
  793MOL0     C 4585   0.469  -1.887  10.675  0.1986  0.5794 -0.2935
  793MOL0     C 4586   0.327  -1.810  10.680  0.0670  0.1498  1.1280
  793MOL0     C 4587   0.215  -1.890  10.741  0.9148  0.7277 -0.2779
  793MOL0    Cl 4588   0.173  -2.026  10.633 -0.2692  0.1917  0.1652
  793MOL0     C 4589   1.224  -1.419  10.575  0.1885 -0.3524 -0.2499
  793MOL0     C 4590   1.314  -1.314  10.564 -0.1805  0.3591 -0.1460
  793MOL0     O 4591   1.298  -0.944  10.424 -0.4162 -0.1742 -0.3410
  793MOL0     C 4592   1.552  -0.808  10.409  0.7720  0.4903 -0.6966
  793MOL0     C 4593   1.685  -0.765  10.381  0.8076 -0.1220 -0.2968
  793MOL0     N 4594   2.428  -0.531  10.452 -0.3832  0.4641 -0.2959
  793MOL0     N 4595   2.557  -0.548  10.434 -0.0862  0.2554 -0.0203
  793MOL0     C 4596   3.248   0.227  10.195  0.5948  0.7830 -0.9421
  793MOL0     C 4597   3.385   0.260  10.241  0.2523  0.2255 -0.3235
  793MOL0     C 4598   3.812   0.394  10.189 -0.1430  0.5387 -1.1066
  793MOL0     C 4599   3.862   0.524  10.189  0.1549 -0.0755 -0.6491
  793MOL0     C 4600   4.002   0.549  10.213  0.3834 -0.5832  1.0040
  793MOL0     C 4601   4.091   0.439  10.230  0.7287 -0.2773  0.0694
  793MOL0     O 4602   4.219   0.472  10.242 -0.9567  0.7037  0.1212
  793MOL0     C 4603   4.312   0.365  10.254  0.2573  0.2879 -0.7176
  793MOL0     C 4604   4.443   0.432  10.305  0.0581 -0.5634 -0.2943
  793MOL0     C 4605   4.495   0.536  10.194  0.0743 -0.6303 -0.4189
  793MOL0     C 4606   4.644   0.544  10.171  0.0642  0.2685 -0.6919
  793MOL0     C 4607   4.724   0.616  10.276  0.0692  0.4021  0.3636
  793MOL0     C 4608   4.784   0.683  10.355 -1.0351 -0.4907  1.1368
  793MOL0     C 4609   4.043   0.307  10.229  0.0200 -0.4080  0.1287
  793MOL0     C 4610   3.906   0.294  10.216 -0.1371  0.2546  0.4478
  793MOL0     H 4611   3.550   0.150   9.956  1.4895  1.6158  1.0110
  793MOL0     H 4612   3.313   0.117   9.887  0.0533 -1.6316  1.2222
  793MOL0     H 4613   2.900   0.216   9.992  2.1946  2.1656 -1.7304
  793MOL0     H 4614   2.989   0.296  10.119  1.5531 -0.5359  1.5211
  793MOL0     H 4615   2.859   0.113  10.232  0.6787 -2.0314  1.1257
  793MOL0     H 4616   3.030   0.053  10.199 -0.1433 -1.4700 -0.0470
  793MOL0     H 4617   2.891  -0.010   9.964 -1.6159 -2.6229  0.4318
  793MOL0     H 4618   2.760   0.008  10.076 -0.2908  0.2535  2.0824
  793MOL0     H 4619   3.014  -0.158  10.148 -1.0215 -0.4869 -0.5834
  793MOL0     H 4620   2.867  -0.172  10.224  4.4116 -2.0758  2.3437
  793MOL0     H 4621   2.936  -0.277   9.952  0.7720 -0.6466  0.0161
  793MOL0     H 4622   2.763  -0.265   9.985 -0.7420 -2.6397  1.5472
  793MOL0     H 4623   2.938  -0.390  10.191  0.1846  3.3256 -0.9695
  793MOL0     H 4624   2.870  -0.488  10.049 -3.7758  1.8153 -3.4307
  793MOL0     H 4625   2.719  -0.351  10.280  0.5452  0.4601  0.3824
  793MOL0     H 4626   2.639  -0.389  10.128 -3.5077  2.9081  4.4616
  793MOL0     H 4627   2.776  -0.589  10.304 -2.2299  0.6371  2.3314
  793MOL0     H 4628   2.715  -0.643  10.149 -2.5965 -2.3494  0.1474
  793MOL0     H 4629   2.437  -0.591  10.134  0.2063  1.4115  0.3457
  793MOL0     H 4630   2.186  -0.543  10.215  0.2966 -0.9821 -0.6045
  793MOL0     H 4631   2.177  -0.437  10.362  0.9747  1.5939 -2.5315
  793MOL0     H 4632   2.035  -0.597  10.417 -1.4737 -2.2643 -3.0862
  793MOL0     H 4633   2.180  -0.630  10.508 -0.2349  2.3363 -0.6788
  793MOL0     H 4634   2.137  -0.785  10.246 -1.2086  2.4624 -0.2765
  793MOL0     H 4635   2.240  -0.827  10.384 -1.6097 -3.4343 -1.9514
  793MOL0     H 4636   2.054  -0.913  10.501 -0.6443  0.7708  0.0010
  793MOL0     H 4637   2.025  -0.958  10.334 -1.2102 -0.8575  0.1481
  793MOL0     H 4638   1.852  -1.048  10.473 -1.8059 -1.3341 -1.5116
  793MOL0     H 4639   1.631  -1.122  10.529 -0.2545 -0.6765  0.4960
  793MOL0     H 4640   1.100  -1.059  10.591  0.3975  0.1116  2.2236
  793MOL0     H 4641   0.948  -1.230  10.620  0.4495  1.0553 -1.8226
  793MOL0     H 4642   1.068  -1.667  10.599  1.7926  2.3583 -0.2715
  793MOL0     H 4643   1.010  -1.579  10.460  1.2372 -1.7429 -0.2571
  793MOL0     H 4644   0.875  -1.746  10.675  1.8414  1.0444  0.8354
  793MOL0     H 4645   0.854  -1.745  10.490  1.3541  0.8288 -0.8146
  793MOL0     H 4646   0.678  -1.577  10.500 -2.6020 -2.1216 -0.1815
  793MOL0     H 4647   0.735  -1.506  10.640 -0.4257 -1.1838  1.0633
  793MOL0     H 4648   0.679  -1.687  10.778 -0.4629  4.5143  2.1334
  793MOL0     H 4649   0.529  -1.617  10.707 -0.0173 -0.6006  2.5667
  793MOL0     H 4650   0.668  -1.866  10.618  1.2441  1.6145  0.5848
  793MOL0     H 4651   0.546  -1.784  10.508 -1.1152  4.4887  0.7506
  793MOL0     H 4652   0.497  -1.902  10.780 -1.6920  0.0473  0.1676
  793MOL0     H 4653   0.462  -1.984  10.626  2.8063 -1.6432  3.2220
  793MOL0     H 4654   0.341  -1.716  10.734 -2.7425  0.1315  2.0319
  793MOL0     H 4655   0.302  -1.796  10.574 -3.1043 -4.5404  0.9643
  793MOL0     H 4656   0.126  -1.828  10.750  0.5877  0.3831 -1.0486
  793MOL0     H 4657   0.235  -1.929  10.841  0.7853  0.6748 -0.2726
  793MOL0     H 4658   1.259  -1.521  10.591  1.5818 -0.0489 -1.1783
  793MOL0     H 4659   1.420  -1.338  10.555 -0.1646  0.2914  0.2383
  793MOL0     H 4660   1.463  -0.747  10.392 -1.3423 -2.2080 -0.0839
  793MOL0     H 4661   1.708  -0.665  10.344 -0.7295  0.3566 -0.0202
  793MOL0     H 4662   3.160   0.254  10.254  0.0528 -0.4876 -1.1260
  793MOL0     H 4663   3.410   0.296  10.341 -0.5455 -1.5595  0.5695
  793MOL0     H 4664   3.791   0.600  10.159  0.1441 -0.2613 -1.0981
  793MOL0     H 4665   4.046   0.648  10.216  3.1812 -1.7278  0.7356
  793MOL0     H 4666   4.347   0.324  10.159 -2.3645 -0.6732 -1.3601
  793MOL0     H 4667   4.277   0.298  10.333  3.3992  0.9550  1.4388
  793MOL0     H 4668   4.416   0.484  10.398 -1.1721 -2.7895  0.6870
  793MOL0     H 4669   4.514   0.354  10.335 -2.6734 -2.8060  0.8929
  793MOL0     H 4670   4.459   0.633  10.228  3.5099  1.6725 -2.7617
  793MOL0     H 4671   4.446   0.513  10.098  1.8927 -0.8094 -1.3519
  793MOL0     H 4672   4.686   0.443  10.164 -0.9512 -0.1311 -1.2847
  793MOL0     H 4673   4.642   0.599  10.077 -1.9164  2.4850  0.5443
  793MOL0     H 4674   4.848   0.751  10.408 -0.6215  0.1462 -0.1455
  793MOL0     H 4675   4.106   0.218  10.235 -0.2812 -0.8318 -2.0094
  793MOL0     H 4676   3.870   0.195  10.246 -0.0550 -1.0319 -3.2422
  794MOL0     O 4677  10.671  10.831   4.454 -0.0990 -0.3560  0.3733
  794MOL0     C 4678  10.697  10.844   4.332 -0.4367  0.4856  0.6502
  794MOL0     O 4679  10.602  10.861   4.236 -0.5390 -0.6721 -0.0710
  794MOL0     C 4680  10.473  10.904   4.284 -0.0040  0.1054 -0.7255
  794MOL0     C 4681  10.374  10.813   4.310 -0.0027  0.1619  1.1276
  794MOL0     C 4682  10.249  10.851   4.361 -0.0138  0.3272 -0.2344
  794MOL0     C 4683  10.219  10.990   4.367  0.0213  0.1939 -0.3867
  794MOL0     O 4684  10.088  11.026   4.392 -0.1242  0.1749  0.1356
  794MOL0     C 4685   9.980  10.940   4.384 -0.0285 -0.4140  0.0036
  794MOL0     C 4686   9.954  10.899   4.239 -0.5639 -0.1303  0.3305
  794MOL0     C 4687   9.864  10.776   4.227 -0.8070  0.4490  0.1394
  794MOL0     C 4688   9.810  10.761   4.083 -0.0361  0.4404 -1.4823
  794MOL0     C 4689   9.703  10.653   4.081  0.1029 -0.1910 -0.1462
  794MOL0     C 4690   9.575  10.687   4.157 -0.6566  0.4264  0.2588
  794MOL0     C 4691   9.485  10.558   4.168 -0.3884 -0.7373 -0.2244
  794MOL0     C 4692   9.346  10.592   4.220  0.2175  0.8004  0.2525
  794MOL0     N 4693   9.270  10.475   4.271 -0.3262 -0.5741 -0.6276
  794MOL0     C 4694   9.320  10.364   4.332 -0.4380  0.0910  0.8140
  794MOL0     C 4695   9.209  10.326   4.409 -0.3854  0.5490  0.9184
  794MOL0     C 4696   9.207  10.223   4.523 -0.4307 -0.6822 -0.2921
  794MOL0     C 4697   9.184  10.082   4.496 -0.1608 -0.7338 -1.0649
  794MOL0     C 4698   9.038  10.062   4.451  0.0916 -0.2256  0.7038
  794MOL0     C 4699   8.926  10.051   4.565 -0.5793 -0.4909  0.1177
  794MOL0     O 4700   8.961   9.946   4.665  0.6506  0.3151 -0.2928
  794MOL0     C 4701   8.862   9.895   4.744  0.8852 -0.2420  0.1140
  794MOL0     C 4702   8.846   9.759   4.775  0.6713  0.1329  0.8714
  794MOL0     C 4703   8.740   9.705   4.845  0.1605  0.2387  0.2547
  794MOL0     C 4704   8.640   9.799   4.898 -0.7118 -0.3303 -0.3426
  794MOL0     C 4705   8.523   9.761   4.983 -0.2372 -0.9588 -0.7760
  794MOL0     O 4706   8.510   9.626   5.002  0.2385  0.1492  0.6424
  794MOL0     C 4707   8.415   9.588   5.092  0.1617  0.3325  0.1519
  794MOL0     C 4708   8.292   9.552   5.040 -0.0107  0.2031  0.2968
  794MOL0     C 4709   8.187   9.530   5.127 -0.0603  0.1930 -0.5452
  794MOL0     C 4710   8.200   9.561   5.268  1.3082  0.2408 -0.8041
  794MOL0     O 4711   8.080   9.551   5.342  0.2218 -0.1948  0.0992
  794MOL0     C 4712   8.097   9.565   5.488 -0.0851 -1.1884 -0.0456
  794MOL0     C 4713   7.963   9.553   5.560  0.9940  0.8357 -0.9080
  794MOL0     C 4714   7.920   9.404   5.565 -1.2948  0.5290  0.6532
  794MOL0     C 4715   8.002   9.326   5.661 -0.0286  0.0327  0.4740
  794MOL0     C 4716   7.945   9.185   5.674 -0.1418  0.6345  1.2803
  794MOL0     C 4717   8.001   9.081   5.780  0.4699 -0.3760 -0.2543
  794MOL0     C 4718   7.967   9.140   5.916  0.0706  0.1010  0.4726
  794MOL0     C 4719   8.008   9.045   6.031  0.7072  0.0292  0.1425
  794MOL0    Cl 4720   7.873   8.927   6.059  0.2914  0.0913 -0.2885
  794MOL0     C 4721   8.324   9.603   5.313  0.8840  0.7392  0.5609
  794MOL0     C 4722   8.434   9.604   5.224  0.9448  0.5792  0.3273
  794MOL0     O 4723   8.448   9.847   5.030  0.1067 -0.4786 -0.4535
  794MOL0     C 4724   8.666   9.939   4.873  0.4242 -0.5468  0.4328
  794MOL0     C 4725   8.774   9.984   4.794  0.3805  0.4728  0.1338
  794MOL0     N 4726   9.107  10.424   4.400  0.1788  0.3434 -0.3783
  794MOL0     N 4727   9.143  10.497   4.301  0.0174 -0.5009  0.5302
  794MOL0     C 4728  10.318  11.077   4.329  0.0988 -1.1175 -0.9982
  794MOL0     C 4729  10.441  11.038   4.298 -0.7375 -0.6789 -0.2785
  794MOL0     C 4730  10.843  10.838   4.287  0.1499  0.5070  0.1018
  794MOL0     C 4731  10.870  10.886   4.157  0.5489 -0.4348  0.4493
  794MOL0     C 4732  10.995  10.896   4.097 -0.1487 -0.3929 -0.3395
  794MOL0     C 4733  11.107  10.860   4.173 -0.2324  0.8011 -0.4324
  794MOL0     O 4734  11.225  10.865   4.107 -0.2448 -0.3734  0.0361
  794MOL0     C 4735  11.345  10.837   4.174 -0.4181 -0.7095  0.1484
  794MOL0     C 4736  11.457  10.813   4.080  0.2083 -0.0708 -0.9495
  794MOL0     C 4737  11.590  10.760   4.155 -0.7050 -0.0874  1.1362
  794MOL0     C 4738  11.567  10.657   4.270 -0.3058 -0.0719 -0.4456
  794MOL0     C 4739  11.693  10.591   4.322 -0.3477 -0.4753  0.3215
  794MOL0     C 4740  11.796  10.538   4.357 -0.1725 -0.7040 -0.1520
  794MOL0     C 4741  11.088  10.823   4.309 -0.0794 -0.2843  1.0233
  794MOL0     C 4742  10.957  10.814   4.366  0.4452 -0.2280  0.0978
  794MOL0     H 4743  10.400  10.708   4.296  0.4198  0.3477  0.4791
  794MOL0     H 4744  10.171  10.781   4.388 -0.6442  0.5046 -1.5144
  794MOL0     H 4745   9.891  10.988   4.426 -1.1728 -2.1541 -0.3243
  794MOL0     H 4746   9.993  10.852   4.447  0.9132 -0.3939 -0.1480
  794MOL0     H 4747  10.044  10.882   4.180 -2.0392 -2.9162 -1.3235
  794MOL0     H 4748   9.908  10.988   4.195  2.1240 -0.0336 -2.6691
  794MOL0     H 4749   9.777  10.794   4.291 -0.7854  2.0353 -0.2511
  794MOL0     H 4750   9.910  10.681   4.256 -0.1492  0.8987  0.5915
  794MOL0     H 4751   9.774  10.860   4.055  2.0695  1.6803 -0.1006
  794MOL0     H 4752   9.884  10.738   4.005  2.2890  0.7267  0.5239
  794MOL0     H 4753   9.742  10.555   4.109 -1.8235 -1.2428 -0.9641
  794MOL0     H 4754   9.677  10.645   3.975  0.1088  1.2445 -0.2821
  794MOL0     H 4755   9.516  10.764   4.105 -0.1365  0.1955 -0.6853
  794MOL0     H 4756   9.583  10.728   4.258 -1.6989 -2.4581  1.5988
  794MOL0     H 4757   9.484  10.499   4.076  0.2879 -1.1977  0.0564
  794MOL0     H 4758   9.542  10.496   4.237  1.0422  1.7520  0.9986
  794MOL0     H 4759   9.296  10.633   4.132 -3.5339  0.0929  1.8221
  794MOL0     H 4760   9.347  10.665   4.302  1.8286 -0.8851  1.8572
  794MOL0     H 4761   9.420  10.325   4.349 -1.8535 -4.2789  0.3314
  794MOL0     H 4762   9.142  10.249   4.607 -0.4251  0.2922 -0.5809
  794MOL0     H 4763   9.305  10.223   4.570  0.2197  1.2585 -1.5349
  794MOL0     H 4764   9.197  10.033   4.593 -1.0920  1.1298  0.0633
  794MOL0     H 4765   9.253  10.042   4.421  0.5082  1.4421 -1.6925
  794MOL0     H 4766   9.009  10.125   4.367 -0.1044 -1.2585 -0.0152
  794MOL0     H 4767   9.032   9.963   4.405  1.8407 -0.4397  0.8709
  794MOL0     H 4768   8.828  10.045   4.516 -0.6227  0.1497  0.1225
  794MOL0     H 4769   8.924  10.150   4.611 -2.0325 -0.5530  0.2331
  794MOL0     H 4770   8.918   9.698   4.722 -1.2979  0.7555 -2.8806
  794MOL0     H 4771   8.722   9.600   4.863 -1.8270  0.7083  1.2734
  794MOL0     H 4772   8.282   9.536   4.934  0.3970 -1.0913  0.4382
  794MOL0     H 4773   8.094   9.490   5.090 -1.3922  1.7155  0.9895
  794MOL0     H 4774   8.126   9.669   5.508 -1.7381 -0.9675  1.3844
  794MOL0     H 4775   8.183   9.513   5.532  2.3545  1.7304 -0.9310
  794MOL0     H 4776   7.893   9.614   5.503  2.1344 -0.0623 -3.3889
  794MOL0     H 4777   7.963   9.596   5.661 -0.5359  2.5775 -1.5943
  794MOL0     H 4778   7.929   9.352   5.469 -2.3278 -0.7974  1.2502
  794MOL0     H 4779   7.815   9.406   5.597 -0.7799 -1.3192  2.6397
  794MOL0     H 4780   8.104   9.320   5.621  0.8030  3.1697  1.8768
  794MOL0     H 4781   8.011   9.366   5.762 -0.3004 -0.2026  0.5943
  794MOL0     H 4782   7.968   9.128   5.584 -2.1733 -1.0115  1.7310
  794MOL0     H 4783   7.837   9.199   5.682 -0.3408  0.0215 -0.0554
  794MOL0     H 4784   8.110   9.075   5.772  0.4093 -0.6748 -0.8995
  794MOL0     H 4785   7.954   8.983   5.771 -1.7281  0.4770  1.0321
  794MOL0     H 4786   8.021   9.235   5.920  0.5701 -0.0757 -1.2814
  794MOL0     H 4787   7.859   9.157   5.920  0.2127  2.8266 -2.5751
  794MOL0     H 4788   8.022   9.098   6.126 -1.0917 -2.7308  2.1082
  794MOL0     H 4789   8.095   8.987   5.999 -0.2175 -1.1924 -0.2117
  794MOL0     H 4790   8.328   9.643   5.414  0.0669  2.9236 -0.2141
  794MOL0     H 4791   8.538   9.615   5.254  2.0970 -0.2015 -2.9013
  794MOL0     H 4792   8.619  10.023   4.923 -0.3707 -0.3551 -0.6000
  794MOL0     H 4793   8.788  10.091   4.784  0.8165  0.5986  1.7273
  794MOL0     H 4794  10.300  11.184   4.337  2.3447 -0.7893  0.7538
  794MOL0     H 4795  10.530  11.099   4.285  1.1864 -3.5187 -1.4623
  794MOL0     H 4796  10.790  10.923   4.095  2.1404  0.8881 -0.9138
  794MOL0     H 4797  10.997  10.930   3.994  0.5128  0.0432 -0.1909
  794MOL0     H 4798  11.334  10.736   4.216 -2.8547 -1.0484 -1.1548
  794MOL0     H 4799  11.372  10.912   4.249  0.1132 -1.1569  0.4134
  794MOL0     H 4800  11.430  10.730   4.015  0.3466 -1.2524  0.4408
  794MOL0     H 4801  11.467  10.906   4.024 -0.3977  0.5475 -0.0562
  794MOL0     H 4802  11.644  10.837   4.211  0.1635 -0.6720  1.1392
  794MOL0     H 4803  11.656  10.711   4.082  2.3593  4.1285  0.7516
  794MOL0     H 4804  11.516  10.709   4.351  0.9272  0.7836 -0.1951
  794MOL0     H 4805  11.497  10.576   4.246 -0.6398 -0.3531  1.3280
  794MOL0     H 4806  11.892  10.497   4.381  0.0557 -0.6439 -0.9285
  794MOL0     H 4807  11.178  10.808   4.368  1.7638  2.0731 -0.9683
  794MOL0     H 4808  10.944  10.772   4.465 -1.7429 -0.8471 -0.3967
  795MOL0     O 4809  10.497   9.612   5.522  0.7242 -0.2620 -0.3879
  795MOL0     C 4810  10.518   9.534   5.611  0.7472  1.4790 -0.6084
  795MOL0     O 4811  10.414   9.480   5.691 -0.0039 -0.7519  0.6531
  795MOL0     C 4812  10.278   9.500   5.660  0.4527  0.1654  0.3522
  795MOL0     C 4813  10.186   9.480   5.765  0.3448  1.1964  0.4075
  795MOL0     C 4814  10.049   9.489   5.740 -0.2873  0.6863  1.0400
  795MOL0     C 4815  10.003   9.500   5.611  1.3427  0.5171 -0.2811
  795MOL0     O 4816   9.869   9.508   5.589 -0.4953  0.5620  0.1618
  795MOL0     C 4817   9.832   9.639   5.536  0.1371  0.1683 -0.2497
  795MOL0     C 4818   9.685   9.636   5.566 -0.5482 -0.1197 -0.1456
  795MOL0     C 4819   9.607   9.756   5.508 -0.4586  0.5385 -0.1027
  795MOL0     C 4820   9.466   9.753   5.567  0.4628  0.7687 -0.2413
  795MOL0     C 4821   9.367   9.656   5.500 -0.1943 -0.3720  1.1278
  795MOL0     C 4822   9.225   9.670   5.546  0.0706  0.7131 -1.1179
  795MOL0     C 4823   9.125   9.601   5.447  0.6445  0.7352 -0.7176
  795MOL0     C 4824   8.980   9.596   5.494  0.0505 -0.1617 -0.3581
  795MOL0     N 4825   8.976   9.525   5.626 -0.2760  1.0734  0.1690
  795MOL0     C 4826   8.942   9.570   5.749  0.7694  0.0769 -0.1706
  795MOL0     C 4827   8.944   9.466   5.838  0.1755  0.0754 -0.1663
  795MOL0     C 4828   8.911   9.470   5.985  0.4625  0.5632  0.2479
  795MOL0     C 4829   8.782   9.384   6.033  0.4405  0.0119 -0.1057
  795MOL0     C 4830   8.759   9.438   6.176  0.6245 -0.3757  0.5230
  795MOL0     C 4831   8.611   9.402   6.225  0.5051  0.7729  0.0227
  795MOL0     O 4832   8.527   9.479   6.139 -0.0238  0.1212 -1.0451
  795MOL0     C 4833   8.394   9.483   6.158 -1.0400  0.0774 -0.0541
  795MOL0     C 4834   8.349   9.458   6.290  0.0402  0.9176 -0.8001
  795MOL0     C 4835   8.211   9.469   6.319  0.4249 -0.1412  0.9533
  795MOL0     C 4836   8.116   9.508   6.218 -0.1085  0.3821  0.3708
  795MOL0     C 4837   7.971   9.492   6.244  0.2590  0.6973  1.4533
  795MOL0     O 4838   7.888   9.484   6.131 -0.0286 -0.1650 -0.8308
  795MOL0     C 4839   7.752   9.498   6.138  0.6158  0.0250  0.2074
  795MOL0     C 4840   7.680   9.610   6.142  0.3678 -0.5119 -0.8407
  795MOL0     C 4841   7.545   9.611   6.159  0.6377 -0.6730  0.7976
  795MOL0     C 4842   7.474   9.487   6.158  0.8035 -0.3160  0.1675
  795MOL0     O 4843   7.338   9.490   6.182  0.1291 -0.6327  0.5413
  795MOL0     C 4844   7.256   9.370   6.186  0.2525  0.3799  0.0104
  795MOL0     C 4845   7.112   9.412   6.227  0.3236 -0.4476  0.4223
  795MOL0     C 4846   7.101   9.475   6.359  0.2402 -0.3231 -0.1097
  795MOL0     C 4847   6.958   9.512   6.394 -0.2670 -0.4006 -1.4027
  795MOL0     C 4848   6.944   9.566   6.543 -0.2689 -0.1972  0.6967
  795MOL0     C 4849   6.976   9.474   6.655  0.2959  0.5724  0.1302
  795MOL0     C 4850   6.905   9.334   6.646 -0.4404 -0.5102  0.0992
  795MOL0     C 4851   6.770   9.331   6.710 -0.8496  0.3577 -0.1527
  795MOL0    Cl 4852   6.725   9.165   6.699  0.4087  0.1360  0.1280
  795MOL0     C 4853   7.543   9.368   6.136  0.3053  0.2742  0.0316
  795MOL0     C 4854   7.684   9.373   6.131  0.3961 -0.3103 -0.5382
  795MOL0     O 4855   7.931   9.493   6.359  0.1010  0.0439  0.6774
  795MOL0     C 4856   8.154   9.533   6.086 -0.2381  0.2472  0.1940
  795MOL0     C 4857   8.302   9.525   6.058  0.6022 -0.5298 -0.3786
  795MOL0     N 4858   8.985   9.354   5.769 -0.4436  0.3251 -0.1801
  795MOL0     N 4859   8.993   9.390   5.647 -0.2183  0.2301 -0.6863
  795MOL0     C 4860  10.090   9.519   5.506  0.6232  0.0807  0.4681
  795MOL0     C 4861  10.226   9.526   5.530  0.5890  0.9001  0.0557
  795MOL0     C 4862  10.656   9.494   5.638 -0.0876 -0.2580 -1.0496
  795MOL0     C 4863  10.761   9.571   5.601 -0.0908  0.2489  1.0287
  795MOL0     C 4864  10.892   9.537   5.621  0.4494  0.6436 -0.0723
  795MOL0     C 4865  10.926   9.412   5.685  0.9158 -0.4087 -0.3599
  795MOL0     O 4866  11.054   9.380   5.720 -0.0487  0.2536  1.2476
  795MOL0     C 4867  11.135   9.313   5.610 -0.2791  0.6144 -0.4371
  795MOL0     C 4868  11.186   9.412   5.508 -0.0758 -0.5674 -0.2683
  795MOL0     C 4869  11.297   9.355   5.425 -0.6585  0.4043  0.5964
  795MOL0     C 4870  11.433   9.321   5.494  0.5484  0.6464  0.1581
  795MOL0     C 4871  11.527   9.432   5.479  0.1355 -0.4358 -0.7080
  795MOL0     C 4872  11.592   9.529   5.471 -0.1179  0.0467 -0.3486
  795MOL0     C 4873  10.813   9.331   5.711  1.0182 -0.0970 -0.3597
  795MOL0     C 4874  10.681   9.368   5.690 -0.4772  0.2416 -0.1981
  795MOL0     H 4875  10.235   9.463   5.860  1.7619 -0.8370 -0.6107
  795MOL0     H 4876   9.977   9.487   5.821 -2.6718 -0.2094 -0.9740
  795MOL0     H 4877   9.857   9.655   5.431 -2.4639 -0.3111 -1.0124
  795MOL0     H 4878   9.875   9.721   5.596  0.9933  1.6998 -2.8164
  795MOL0     H 4879   9.676   9.626   5.674 -1.3806 -1.6137 -0.3299
  795MOL0     H 4880   9.644   9.542   5.529  2.2530 -1.4829 -0.0874
  795MOL0     H 4881   9.592   9.760   5.399 -2.1854  3.0950  0.1327
  795MOL0     H 4882   9.654   9.853   5.527  0.3061  0.8467 -3.0458
  795MOL0     H 4883   9.471   9.721   5.672  0.4218 -1.5146 -0.8793
  795MOL0     H 4884   9.417   9.850   5.566 -3.3111 -0.8415  2.6291
  795MOL0     H 4885   9.401   9.552   5.501  2.7397  0.3867 -1.7461
  795MOL0     H 4886   9.382   9.700   5.401 -0.3817  4.0764  2.8324
  795MOL0     H 4887   9.196   9.772   5.573 -2.3448 -0.2512  0.2494
  795MOL0     H 4888   9.227   9.623   5.645  0.0489  2.4166 -0.2770
  795MOL0     H 4889   9.128   9.661   5.356 -1.4944  2.3760  0.2068
  795MOL0     H 4890   9.151   9.497   5.428 -0.7745 -0.0976  1.5555
  795MOL0     H 4891   8.912   9.542   5.428 -1.5840  1.5977 -0.2010
  795MOL0     H 4892   8.941   9.697   5.508  1.8454  0.6170 -0.7128
  795MOL0     H 4893   8.926   9.675   5.771 -2.6337 -0.3162 -0.2217
  795MOL0     H 4894   8.894   9.573   6.016  0.4199  0.2907  1.1680
  795MOL0     H 4895   8.995   9.434   6.045 -1.7499  0.6754  3.6418
  795MOL0     H 4896   8.816   9.281   6.046 -0.1453 -0.1595  0.1260
  795MOL0     H 4897   8.704   9.384   5.957  0.5485  0.1005 -0.2155
  795MOL0     H 4898   8.826   9.399   6.253  0.4113 -0.8758  0.4620
  795MOL0     H 4899   8.767   9.547   6.178 -1.7556 -0.1170 -0.6637
  795MOL0     H 4900   8.603   9.438   6.328  2.3258 -1.1890  0.9272
  795MOL0     H 4901   8.594   9.294   6.220  0.9242  0.5365  2.4899
  795MOL0     H 4902   8.408   9.410   6.367  1.2524  2.7766 -0.4996
  795MOL0     H 4903   8.190   9.434   6.420  3.1245  2.5687  2.6086
  795MOL0     H 4904   7.725   9.708   6.142  0.9250 -0.7630 -0.3676
  795MOL0     H 4905   7.490   9.701   6.186  3.6732  0.7403  2.7855
  795MOL0     H 4906   7.299   9.300   6.257 -0.5826 -1.4014 -1.1759
  795MOL0     H 4907   7.259   9.325   6.086  1.8872  0.1160  0.1582
  795MOL0     H 4908   7.041   9.330   6.226 -0.3924  0.1604 -0.6274
  795MOL0     H 4909   7.074   9.485   6.155 -0.0985 -1.5282 -0.4675
  795MOL0     H 4910   7.172   9.556   6.380  2.4926 -2.1678 -0.1906
  795MOL0     H 4911   7.144   9.399   6.426  0.7680 -1.5974 -1.8399
  795MOL0     H 4912   6.909   9.579   6.324 -1.8514  0.3694  0.3445
  795MOL0     H 4913   6.895   9.423   6.394  0.3533 -0.9288  1.1244
  795MOL0     H 4914   6.843   9.606   6.556 -1.4151 -3.0800  1.4931
  795MOL0     H 4915   7.002   9.657   6.556 -0.5488 -0.0168  0.6894
  795MOL0     H 4916   6.945   9.518   6.751  3.2759 -1.7756  2.3613
  795MOL0     H 4917   7.084   9.453   6.651  0.0929 -0.3129 -2.4007
  795MOL0     H 4918   6.901   9.299   6.542  1.0407 -2.7454  0.7153
  795MOL0     H 4919   6.966   9.248   6.677 -2.4410 -2.4350 -0.9729
  795MOL0     H 4920   6.703   9.395   6.652 -1.4469  1.8242  2.0249
  795MOL0     H 4921   6.767   9.361   6.816  3.3455 -1.2012  0.6086
  795MOL0     H 4922   7.493   9.272   6.137 -1.8215  1.2270 -2.3987
  795MOL0     H 4923   7.747   9.284   6.133  0.6875 -0.1009  0.5117
  795MOL0     H 4924   8.093   9.561   6.001 -0.1754  0.1071  0.1036
  795MOL0     H 4925   8.337   9.541   5.956  0.0272  3.2038 -0.1058
  795MOL0     H 4926  10.046   9.515   5.407  0.4587 -1.3530  0.5809
  795MOL0     H 4927  10.294   9.530   5.445  1.2842 -2.1955  0.3461
  795MOL0     H 4928  10.746   9.660   5.540  2.7481  0.9744  1.2115
  795MOL0     H 4929  10.973   9.605   5.598  1.0271 -0.7077 -2.3411
  795MOL0     H 4930  11.074   9.238   5.559  0.8501 -0.2279 -0.6048
  795MOL0     H 4931  11.215   9.250   5.651 -2.7068 -1.4713  1.3903
  795MOL0     H 4932  11.102   9.447   5.447 -1.0032 -1.5179  0.4151
  795MOL0     H 4933  11.227   9.491   5.571  1.8911 -2.8503  1.4946
  795MOL0     H 4934  11.315   9.421   5.340  1.9885  0.8385  1.3890
  795MOL0     H 4935  11.259   9.262   5.381 -0.5514  0.4269  0.4534
  795MOL0     H 4936  11.416   9.305   5.601 -0.3668 -1.1852 -0.2365
  795MOL0     H 4937  11.477   9.231   5.451 -1.1730 -0.9695  1.6072
  795MOL0     H 4938  11.663   9.609   5.474 -0.9114  0.7407  0.6890
  795MOL0     H 4939  10.837   9.233   5.750  1.0915  0.3730  0.8188
  795MOL0     H 4940  10.598   9.302   5.713  0.1040 -0.4841 -0.1104
  796MOL0     O 4941   4.129   6.676   0.714  0.0201  0.1350 -0.2941
  796MOL0     C 4942   4.191   6.781   0.691  1.0918  0.2567  0.4351
  796MOL0     O 4943   4.137   6.896   0.642 -0.3585  0.7389 -0.6107
  796MOL0     C 4944   4.004   6.916   0.621 -0.4105 -0.4287 -1.1181
  796MOL0     C 4945   3.906   6.821   0.597 -0.5994 -1.0431  0.4369
  796MOL0     C 4946   3.774   6.857   0.580 -0.7481  0.7976 -0.7873
  796MOL0     C 4947   3.731   6.983   0.569  0.3297  0.2284 -0.4797
  796MOL0     O 4948   3.606   7.020   0.543 -0.5387  0.5316  0.5051
  796MOL0     C 4949   3.523   6.935   0.456  0.0642  0.5461 -0.2165
  796MOL0     C 4950   3.395   7.013   0.418  0.0985  0.2580  0.0665
  796MOL0     C 4951   3.328   6.928   0.313  0.4482  0.4198 -0.0113
  796MOL0     C 4952   3.190   6.974   0.265 -0.2772 -0.1213  0.1375
  796MOL0     C 4953   3.123   6.873   0.172 -0.1976  0.0793 -0.2803
  796MOL0     C 4954   3.019   6.932   0.070 -0.3708  0.0282 -0.8967
  796MOL0     C 4955   2.892   6.944   0.158 -0.2801  0.1913 -0.2596
  796MOL0     C 4956   2.763   6.892   0.085 -1.2796  0.4536 -0.0020
  796MOL0     N 4957   2.721   6.989  -0.006  0.5764  0.3746  0.5930
  796MOL0     C 4958   2.644   7.102   0.026  0.4501  0.0992  0.1442
  796MOL0     C 4959   2.664   7.188  -0.079 -0.4193 -0.7322 -0.2342
  796MOL0     C 4960   2.603   7.327  -0.095 -0.1353 -0.4801 -0.0785
  796MOL0     C 4961   2.461   7.306  -0.154  0.3168 -0.3623 -0.0126
  796MOL0     C 4962   2.401   7.438  -0.205 -0.5210 -0.0965 -0.5595
  796MOL0     C 4963   2.365   7.525  -0.092  0.3906 -0.3799 -0.0506
  796MOL0     O 4964   2.267   7.625  -0.128  0.4435  1.3867  0.0260
  796MOL0     C 4965   2.240   7.729  -0.038  0.3954  0.8792  0.3670
  796MOL0     C 4966   2.149   7.834  -0.069 -0.2240  0.7641  0.6071
  796MOL0     C 4967   2.108   7.926   0.027  0.3478 -0.2525 -0.0202
  796MOL0     C 4968   2.174   7.936   0.153  0.1377 -0.3763  0.1880
  796MOL0     C 4969   2.144   8.055   0.242 -0.6706 -0.4842 -0.5343
  796MOL0     O 4970   2.055   8.146   0.201  0.2048  0.4666 -0.0991
  796MOL0     C 4971   2.029   8.242   0.292 -0.7950  0.3781  0.8422
  796MOL0     C 4972   1.906   8.236   0.343  0.9003 -0.1348 -0.4574
  796MOL0     C 4973   1.858   8.339   0.423  0.2294  0.1163 -0.1368
  796MOL0     C 4974   1.940   8.444   0.468  1.0517  0.6635 -0.1475
  796MOL0     O 4975   1.883   8.549   0.538  0.0530  0.6373 -0.0865
  796MOL0     C 4976   1.916   8.543   0.677  0.5122  0.6509  0.1082
  796MOL0     C 4977   1.839   8.640   0.765  0.7638  0.6899  0.8144
  796MOL0     C 4978   1.853   8.616   0.915 -0.0576 -0.4661  0.3789
  796MOL0     C 4979   1.755   8.699   0.988 -0.2980  0.0122 -0.8916
  796MOL0     C 4980   1.747   8.656   1.134 -0.0994 -0.2194 -0.4278
  796MOL0     C 4981   1.879   8.646   1.207 -0.0783 -0.0747  0.7163
  796MOL0     C 4982   1.949   8.787   1.202 -0.0777  0.5411 -0.2610
  796MOL0     C 4983   2.092   8.774   1.244 -0.1838  0.2306 -0.5864
  796MOL0    Cl 4984   2.080   8.753   1.432  0.0591 -0.3183  0.3088
  796MOL0     C 4985   2.074   8.443   0.420  0.7081 -0.0316  0.7360
  796MOL0     C 4986   2.120   8.339   0.337 -0.1454  0.7569 -0.1382
  796MOL0     O 4987   2.190   8.053   0.357  0.1628  0.1056  0.0182
  796MOL0     C 4988   2.268   7.839   0.184 -0.7346 -0.2632  0.4141
  796MOL0     C 4989   2.294   7.732   0.096  0.3002  0.2061  0.1352
  796MOL0     N 4990   2.744   7.131  -0.174  0.1437  0.5826  0.3799
  796MOL0     N 4991   2.766   7.013  -0.136  0.4043 -0.0073  0.6184
  796MOL0     C 4992   3.821   7.084   0.590 -0.6273  0.9826 -0.2395
  796MOL0     C 4993   3.958   7.054   0.614 -0.4451  0.0311 -0.7798
  796MOL0     C 4994   4.335   6.763   0.685  0.2509 -0.5935  1.1557
  796MOL0     C 4995   4.406   6.880   0.660  0.8133  0.2100 -0.6476
  796MOL0     C 4996   4.549   6.875   0.634 -0.0013  0.6076 -0.3638
  796MOL0     C 4997   4.608   6.743   0.623 -0.2630  0.2262 -0.7861
  796MOL0     O 4998   4.737   6.753   0.583 -0.9010  1.0720 -0.4465
  796MOL0     C 4999   4.816   6.631   0.586 -0.1257 -0.0074 -0.1095
  796MOL0     C 5000   4.950   6.659   0.539 -1.4957  0.3450  0.1739
  796MOL0     C 5001   5.008   6.789   0.608  0.6912 -0.2145 -0.5754
  796MOL0     C 5002   5.156   6.770   0.641 -0.0137 -0.1407  0.3408
  796MOL0     C 5003   5.242   6.753   0.524  0.5500  1.0628  0.2496
  796MOL0     C 5004   5.322   6.721   0.428  0.5096  0.4188  0.6032
  796MOL0     C 5005   4.534   6.627   0.650 -0.5115  1.0424  0.2539
  796MOL0     C 5006   4.395   6.641   0.688  0.1564 -0.0271 -1.1836
  796MOL0     H 5007   3.926   6.714   0.602  0.8937 -0.8125 -0.0438
  796MOL0     H 5008   3.723   6.762   0.567  3.9383 -2.1157 -0.0826
  796MOL0     H 5009   3.507   6.853   0.527  1.2147  0.6122  0.1400
  796MOL0     H 5010   3.588   6.902   0.375  2.2488  1.9553  0.8478
  796MOL0     H 5011   3.416   7.113   0.379 -1.6591  0.7369  0.2437
  796MOL0     H 5012   3.335   7.034   0.507 -1.6447 -2.8664 -0.1962
  796MOL0     H 5013   3.335   6.825   0.347  3.2734  0.5807  0.1585
  796MOL0     H 5014   3.399   6.929   0.230 -1.7393  2.1580 -2.0162
  796MOL0     H 5015   3.124   6.984   0.352  0.7980 -2.0077  1.2449
  796MOL0     H 5016   3.199   7.068   0.209 -1.4389  0.1889  0.4292
  796MOL0     H 5017   3.096   6.788   0.237 -1.4330  1.4969  1.1378
  796MOL0     H 5018   3.200   6.834   0.105  0.0659  0.9953 -0.5250
  796MOL0     H 5019   3.004   6.874  -0.022  0.9572 -1.2401 -0.3532
  796MOL0     H 5020   3.048   7.031   0.034 -0.6017  0.8505  1.0612
  796MOL0     H 5021   2.901   6.887   0.251  1.3567  0.8949  0.0524
  796MOL0     H 5022   2.886   7.039   0.212  1.9363 -0.2338  0.8491
  796MOL0     H 5023   2.683   6.875   0.158 -2.2844 -0.6825 -1.3038
  796MOL0     H 5024   2.786   6.792   0.048  0.3386  0.7418  0.1506
  796MOL0     H 5025   2.596   7.140   0.116 -2.5366  2.0963 -2.0694
  796MOL0     H 5026   2.654   7.380  -0.176 -2.4497 -1.3500 -2.2252
  796MOL0     H 5027   2.594   7.378   0.002 -4.6858 -1.6003  0.3146
  796MOL0     H 5028   2.391   7.254  -0.087 -0.9004  3.0945  1.6309
  796MOL0     H 5029   2.484   7.249  -0.244  2.1914  2.7726 -1.6602
  796MOL0     H 5030   2.476   7.490  -0.266  0.2809  2.0199  2.0378
  796MOL0     H 5031   2.315   7.408  -0.265 -1.6052 -0.0573  0.9123
  796MOL0     H 5032   2.451   7.571  -0.042  0.6144  1.1682 -1.7453
  796MOL0     H 5033   2.326   7.456  -0.017  0.8397  0.2209  0.7494
  796MOL0     H 5034   2.105   7.833  -0.168  1.8060 -1.1285 -0.3672
  796MOL0     H 5035   2.029   7.994  -0.005  0.9019  0.2252 -0.4127
  796MOL0     H 5036   1.841   8.155   0.311 -0.4896  0.1625  1.3780
  796MOL0     H 5037   1.754   8.338   0.455 -0.2245 -0.0400 -1.5130
  796MOL0     H 5038   2.024   8.551   0.690  0.2411  1.2358  2.4033
  796MOL0     H 5039   1.894   8.442   0.711 -0.1717  1.4977  2.3287
  796MOL0     H 5040   1.732   8.631   0.744  1.2678  0.0665 -1.8654
  796MOL0     H 5041   1.887   8.736   0.747  1.2935 -0.0810 -2.5986
  796MOL0     H 5042   1.955   8.642   0.946 -0.3668  0.1767  0.8722
  796MOL0     H 5043   1.840   8.508   0.927  2.6075 -1.3458 -3.0977
  796MOL0     H 5044   1.778   8.806   0.980 -1.3667  0.3170 -0.1756
  796MOL0     H 5045   1.650   8.685   0.958 -0.4380 -3.0212  0.5948
  796MOL0     H 5046   1.699   8.558   1.134  1.8790 -1.2514  0.9041
  796MOL0     H 5047   1.680   8.720   1.192  0.1819 -1.2465  1.0832
  796MOL0     H 5048   1.940   8.565   1.167  1.6245  2.1415 -1.5438
  796MOL0     H 5049   1.865   8.615   1.311 -1.0895 -3.9142 -0.4249
  796MOL0     H 5050   1.957   8.804   1.094 -2.6085  1.4344 -0.3565
  796MOL0     H 5051   1.889   8.855   1.262 -1.2311 -1.0379  0.4449
  796MOL0     H 5052   2.141   8.866   1.211  1.5038 -0.7099 -0.8134
  796MOL0     H 5053   2.141   8.690   1.193 -1.5421 -0.0973 -1.4098
  796MOL0     H 5054   2.141   8.522   0.453 -0.9297  1.4512  0.6313
  796MOL0     H 5055   2.225   8.343   0.309  0.4494 -2.1572  1.2808
  796MOL0     H 5056   2.321   7.837   0.278 -0.7216  1.1176  0.4599
  796MOL0     H 5057   2.353   7.651   0.138 -2.4127 -0.6392  2.6423
  796MOL0     H 5058   3.787   7.187   0.587 -2.1222  0.5230  0.1957
  796MOL0     H 5059   4.032   7.130   0.635 -1.7022  0.8686  0.8435
  796MOL0     H 5060   4.357   6.977   0.664 -2.3901 -1.2936  0.3192
  796MOL0     H 5061   4.610   6.962   0.612  2.3947 -1.4946 -2.8553
  796MOL0     H 5062   4.768   6.558   0.521 -1.2046 -2.3769  3.1061
  796MOL0     H 5063   4.819   6.583   0.684  1.7579 -1.9162 -1.0282
  796MOL0     H 5064   5.026   6.581   0.543  0.1668  1.8196 -1.1320
  796MOL0     H 5065   4.953   6.676   0.431 -1.2603  2.0203  0.4237
  796MOL0     H 5066   4.953   6.796   0.702 -0.3126  2.8384 -1.2843
  796MOL0     H 5067   5.000   6.881   0.550 -0.3901  0.2771  0.3103
  796MOL0     H 5068   5.192   6.861   0.691 -3.0479  1.5876 -0.3449
  796MOL0     H 5069   5.163   6.683   0.706 -2.4533 -0.2747  0.5249
  796MOL0     H 5070   5.386   6.684   0.351  0.6889 -2.0264  1.8345
  796MOL0     H 5071   4.566   6.525   0.632 -0.5590  1.1131 -0.2479
  796MOL0     H 5072   4.341   6.547   0.685  0.9109 -0.5920  1.2432
  797MOL0     O 5073   7.908   8.310   6.104  0.0653 -0.0271 -0.7090
  797MOL0     C 5074   7.896   8.192   6.071 -0.9391  1.0497  0.0333
  797MOL0     O 5075   7.790   8.115   6.104 -0.2860 -0.2883 -0.8464
  797MOL0     C 5076   7.689   8.174   6.174  0.0203  0.4390 -0.4400
  797MOL0     C 5077   7.707   8.244   6.306  0.1066  0.7296  0.9273
  797MOL0     C 5078   7.598   8.291   6.381  0.5122 -0.3987  0.8149
  797MOL0     C 5079   7.468   8.278   6.327  0.5963 -0.3044 -0.2978
  797MOL0     O 5080   7.357   8.330   6.389 -0.1839  0.2583  0.3165
  797MOL0     C 5081   7.369   8.435   6.482 -0.2557  0.0814 -0.1617
  797MOL0     C 5082   7.232   8.479   6.518  0.6293 -0.4885 -0.5853
  797MOL0     C 5083   7.135   8.373   6.590  0.1478 -0.0685 -1.0127
  797MOL0     C 5084   7.060   8.278   6.495  0.4846  0.7644 -0.0403
  797MOL0     C 5085   6.944   8.191   6.561  0.2328  0.7236 -0.5339
  797MOL0     C 5086   6.830   8.286   6.602 -0.6227 -0.0164 -0.1547
  797MOL0     C 5087   6.699   8.203   6.623  0.6112 -0.5389 -1.0216
  797MOL0     C 5088   6.588   8.293   6.682 -0.2418 -0.2567  0.1548
  797MOL0     N 5089   6.463   8.218   6.719 -1.1017  0.5089 -0.2355
  797MOL0     C 5090   6.446   8.138   6.824  0.1398  0.2369  0.0278
  797MOL0     C 5091   6.320   8.106   6.829 -0.0409  0.4173 -0.4880
  797MOL0     C 5092   6.244   8.020   6.934  0.2869  0.1458 -0.1458
  797MOL0     C 5093   6.086   7.999   6.914 -0.2684  0.8819  0.0573
  797MOL0     C 5094   6.031   7.919   7.035 -0.4718 -0.1519  1.1703
  797MOL0     C 5095   5.879   7.920   7.017  0.0125  0.0370  0.2743
  797MOL0     O 5096   5.837   8.052   7.031  0.3572  0.0483 -0.3314
  797MOL0     C 5097   5.705   8.084   7.005 -0.2105 -0.3633  0.6985
  797MOL0     C 5098   5.635   8.164   7.093  0.1100  0.0052 -0.4350
  797MOL0     C 5099   5.494   8.191   7.072 -0.3372  0.5692 -0.3319
  797MOL0     C 5100   5.421   8.131   6.957 -0.6218  0.6936 -0.1537
  797MOL0     C 5101   5.284   8.147   6.935  0.5644  0.1213  0.5608
  797MOL0     O 5102   5.232   8.132   6.805  0.5508 -0.0231  0.4676
  797MOL0     C 5103   5.103   8.176   6.760 -0.1682 -0.7111  0.0183
  797MOL0     C 5104   4.996   8.233   6.835 -0.1623  0.6064  0.4462
  797MOL0     C 5105   4.875   8.274   6.776 -0.3890 -0.9529  0.6886
  797MOL0     C 5106   4.856   8.268   6.641 -0.5892 -0.1221 -0.1854
  797MOL0     O 5107   4.732   8.302   6.589 -0.6997  0.1221  0.1909
  797MOL0     C 5108   4.691   8.259   6.458 -0.4157 -0.2642 -0.4023
  797MOL0     C 5109   4.566   8.342   6.437  0.2545  0.3720  0.2962
  797MOL0     C 5110   4.520   8.326   6.289  0.2645 -0.1940 -1.2478
  797MOL0     C 5111   4.425   8.432   6.255  0.1725 -0.0615 -0.6161
  797MOL0     C 5112   4.312   8.380   6.176  0.0552 -0.4378  1.1781
  797MOL0     C 5113   4.204   8.482   6.165  0.3624 -0.8295  0.0488
  797MOL0     C 5114   4.237   8.575   6.053 -0.0583  0.1662 -0.6155
  797MOL0     C 5115   4.108   8.665   6.026 -0.2103  0.3036  0.3163
  797MOL0    Cl 5116   4.097   8.791   6.155  0.0793 -0.2024 -0.3916
  797MOL0     C 5117   4.966   8.222   6.559  0.2849  0.2563 -0.3787
  797MOL0     C 5118   5.083   8.167   6.619 -0.1144  0.6195 -0.0422
  797MOL0     O 5119   5.226   8.191   7.036 -0.2280 -0.5030 -0.1571
  797MOL0     C 5120   5.505   8.061   6.864  0.0848 -0.5292 -0.1327
  797MOL0     C 5121   5.638   8.035   6.893  0.3224  0.7094  0.0349
  797MOL0     N 5122   6.262   8.169   6.722  0.6886  0.4386 -0.0072
  797MOL0     N 5123   6.350   8.230   6.649 -0.4106 -0.8977 -0.0589
  797MOL0     C 5124   7.454   8.213   6.205  0.0304  0.2770  0.9161
  797MOL0     C 5125   7.558   8.150   6.134 -0.1636 -0.7704 -0.6407
  797MOL0     C 5126   8.008   8.123   5.995 -0.8851 -0.3480 -0.3055
  797MOL0     C 5127   8.124   8.197   5.955 -0.2196  0.5072  0.1554
  797MOL0     C 5128   8.240   8.135   5.888 -0.0677  0.7115 -0.7971
  797MOL0     C 5129   8.222   7.999   5.859  0.0742  1.5608  0.2127
  797MOL0     O 5130   8.305   7.928   5.775  0.2821 -0.1140  0.8275
  797MOL0     C 5131   8.429   7.990   5.740 -0.2479 -0.1624  0.2833
  797MOL0     C 5132   8.410   8.096   5.628 -0.3896  0.3027  0.2700
  797MOL0     C 5133   8.527   8.188   5.615  0.2236  0.4034  0.0089
  797MOL0     C 5134   8.485   8.293   5.511 -0.3690  0.5817  0.3701
  797MOL0     C 5135   8.596   8.371   5.472 -0.6484 -0.0582 -0.4903
  797MOL0     C 5136   8.686   8.443   5.443  0.2445  0.4858  0.0468
  797MOL0     C 5137   8.110   7.923   5.894  0.2569  1.0484 -0.3349
  797MOL0     C 5138   8.002   7.984   5.959 -0.9961  0.2386  0.2921
  797MOL0     H 5139   7.807   8.258   6.344  1.1510 -0.9714 -0.9854
  797MOL0     H 5140   7.605   8.353   6.469 -1.2259  3.7179 -1.6762
  797MOL0     H 5141   7.409   8.524   6.433 -1.4938  0.6042 -0.2837
  797MOL0     H 5142   7.427   8.414   6.572 -2.4649 -0.2852  1.2596
  797MOL0     H 5143   7.178   8.508   6.427 -1.1594  0.0279  0.5744
  797MOL0     H 5144   7.246   8.572   6.574  0.3861  0.3838 -1.9150
  797MOL0     H 5145   7.067   8.437   6.647  1.3404 -0.9133  1.5008
  797MOL0     H 5146   7.191   8.324   6.670  0.5208  0.2590 -1.0685
  797MOL0     H 5147   7.002   8.334   6.421 -1.0582  0.0142  0.5540
  797MOL0     H 5148   7.126   8.212   6.438 -0.6696 -1.0384  0.6095
  797MOL0     H 5149   6.975   8.133   6.649 -0.1372  1.2744 -0.0292
  797MOL0     H 5150   6.902   8.123   6.486  0.9817 -1.8754  1.2407
  797MOL0     H 5151   6.810   8.359   6.524 -0.1661 -0.5242 -0.7636
  797MOL0     H 5152   6.856   8.333   6.697  2.5535 -0.6616 -0.5773
  797MOL0     H 5153   6.669   8.160   6.527  0.5652 -1.0035 -0.7999
  797MOL0     H 5154   6.724   8.126   6.696  1.4621  0.6773  0.0229
  797MOL0     H 5155   6.570   8.370   6.606 -0.1377  0.9107  1.2774
  797MOL0     H 5156   6.633   8.350   6.763 -0.2768 -1.1519  0.8223
  797MOL0     H 5157   6.517   8.112   6.902  0.7616 -1.8830 -1.1681
  797MOL0     H 5158   6.251   8.058   7.036 -0.8443  0.0810 -0.0213
  797MOL0     H 5159   6.284   7.918   6.939 -0.7650 -0.2581  0.6465
  797MOL0     H 5160   6.063   7.953   6.817  5.9072  3.4184 -3.2372
  797MOL0     H 5161   6.043   8.099   6.909 -5.1897 -0.9457  0.9435
  797MOL0     H 5162   6.074   7.819   7.045 -1.5840 -0.4803  3.3364
  797MOL0     H 5163   6.056   7.967   7.130  1.8446  0.6886  0.2090
  797MOL0     H 5164   5.844   7.861   7.102 -0.1000 -3.2083 -1.8520
  797MOL0     H 5165   5.855   7.863   6.926  4.0954 -2.3101  0.4286
  797MOL0     H 5166   5.684   8.203   7.182  2.1856  0.7382 -1.8082
  797MOL0     H 5167   5.435   8.235   7.152  0.9394  0.7179  0.5584
  797MOL0     H 5168   5.008   8.263   6.938  3.7056  4.8391 -0.8780
  797MOL0     H 5169   4.801   8.313   6.845  2.1455  1.3149  2.2786
  797MOL0     H 5170   4.660   8.154   6.469  2.5429 -1.2489 -0.4918
  797MOL0     H 5171   4.771   8.266   6.384 -0.1914  1.8800 -0.0038
  797MOL0     H 5172   4.584   8.448   6.456  1.1688  0.0849  1.1036
  797MOL0     H 5173   4.492   8.309   6.510  0.1706 -0.5868 -0.2018
  797MOL0     H 5174   4.481   8.224   6.279 -0.3642  0.0006 -0.8771
  797MOL0     H 5175   4.604   8.329   6.219  0.3496 -0.8262 -1.1751
  797MOL0     H 5176   4.387   8.477   6.348 -0.2759 -2.6604  0.5434
  797MOL0     H 5177   4.484   8.501   6.194 -0.7204  1.4496  0.1450
  797MOL0     H 5178   4.264   8.293   6.222 -2.6027 -0.0003 -0.5417
  797MOL0     H 5179   4.356   8.354   6.080  0.4319  2.6854  0.4203
  797MOL0     H 5180   4.199   8.529   6.264  0.8963  0.8690 -0.7043
  797MOL0     H 5181   4.116   8.420   6.146 -1.3726  1.6991 -0.6761
  797MOL0     H 5182   4.327   8.632   6.076  1.1957 -1.1846 -1.9578
  797MOL0     H 5183   4.254   8.519   5.961 -0.3115 -1.2899  0.1988
  797MOL0     H 5184   4.014   8.608   6.032  1.4896 -2.7504 -0.0223
  797MOL0     H 5185   4.120   8.720   5.932 -0.3360  2.8318  1.6994
  797MOL0     H 5186   4.951   8.223   6.452 -2.0128  3.0988 -0.1770
  797MOL0     H 5187   5.163   8.126   6.558 -3.1898 -1.4624 -3.0220
  797MOL0     H 5188   5.457   8.021   6.775  0.1259  2.3633 -1.5975
  797MOL0     H 5189   5.697   7.978   6.821 -0.0875  1.9610 -1.3409
  797MOL0     H 5190   7.354   8.218   6.163 -0.0895  1.4423  1.2846
  797MOL0     H 5191   7.538   8.099   6.040 -3.1527  2.7349 -2.1349
  797MOL0     H 5192   8.146   8.299   5.984 -2.6824  0.0745  4.2606
  797MOL0     H 5193   8.328   8.194   5.862 -0.1772 -0.2498 -3.7214
  797MOL0     H 5194   8.495   7.919   5.688 -0.9241  1.8369 -3.6293
  797MOL0     H 5195   8.477   8.050   5.818  0.3422  0.1586 -0.3185
  797MOL0     H 5196   8.397   8.050   5.530  1.9695  1.4924 -0.6747
  797MOL0     H 5197   8.323   8.161   5.644 -2.5023 -1.7501 -1.9917
  797MOL0     H 5198   8.614   8.128   5.588  0.7527  0.9871  0.3768
  797MOL0     H 5199   8.542   8.238   5.711 -2.1976 -2.0050  1.8119
  797MOL0     H 5200   8.460   8.238   5.419 -0.0233  1.4806 -0.2774
  797MOL0     H 5201   8.399   8.356   5.533 -0.9077 -1.2431  4.3702
  797MOL0     H 5202   8.759   8.511   5.405  0.4553  1.3000  1.8161
  797MOL0     H 5203   8.109   7.821   5.857  3.2142  0.7417  0.1471
  797MOL0     H 5204   7.927   7.910   5.982  0.1196 -0.7120  0.9800
  798MOL0     O 5205   8.551   8.370   8.634  0.0792  0.1148  0.5434
  798MOL0     C 5206   8.587   8.283   8.557 -1.1198 -0.5328 -0.2970
  798MOL0     O 5207   8.521   8.158   8.527  0.0707 -0.0714  0.3748
  798MOL0     C 5208   8.391   8.147   8.562  0.9634 -0.2071 -0.7798
  798MOL0     C 5209   8.293   8.225   8.501 -0.5041 -0.1323  0.3974
  798MOL0     C 5210   8.160   8.205   8.523  0.1239  0.3663 -0.3355
  798MOL0     C 5211   8.115   8.085   8.598  0.4520 -0.5894 -0.1823
  798MOL0     O 5212   7.978   8.060   8.610  0.6589  0.1272 -0.2863
  798MOL0     C 5213   7.939   7.923   8.585  0.3391 -0.4236 -0.2206
  798MOL0     C 5214   7.790   7.903   8.564 -0.6868  0.5489  0.5345
  798MOL0     C 5215   7.749   7.895   8.416 -0.1881 -0.3384  0.6005
  798MOL0     C 5216   7.598   7.863   8.393 -0.0316  0.4546 -0.3860
  798MOL0     C 5217   7.558   7.885   8.248 -0.1555  0.3106  0.3195
  798MOL0     C 5218   7.410   7.862   8.240 -0.0048  0.3979  1.2218
  798MOL0     C 5219   7.370   7.836   8.093  0.5047  0.5894  0.4366
  798MOL0     C 5220   7.219   7.795   8.072 -0.4108  0.0237  0.6071
  798MOL0     N 5221   7.123   7.872   8.155 -0.0401  0.1320  0.5775
  798MOL0     C 5222   7.098   8.005   8.146  0.8460 -0.1137 -0.0007
  798MOL0     C 5223   7.004   8.029   8.247  0.0277 -0.1164 -0.6948
  798MOL0     C 5224   6.941   8.163   8.268  0.0490 -0.4591  0.3822
  798MOL0     C 5225   6.808   8.181   8.200 -0.0760 -0.4184 -0.2191
  798MOL0     C 5226   6.725   8.299   8.264 -0.5802 -0.1615  0.2207
  798MOL0     C 5227   6.593   8.308   8.195  0.1184  0.4684 -0.7943
  798MOL0     O 5228   6.615   8.348   8.060  0.0291 -0.0285 -0.0648
  798MOL0     C 5229   6.507   8.419   8.011  0.2566  0.3338 -0.1741
  798MOL0     C 5230   6.508   8.561   8.032  0.5932 -0.2925  0.6534
  798MOL0     C 5231   6.405   8.645   7.992  0.2401  0.4370 -0.3350
  798MOL0     C 5232   6.285   8.589   7.930  0.4360 -0.5183 -0.3215
  798MOL0     C 5233   6.172   8.670   7.880 -0.2210  0.1725  0.4570
  798MOL0     O 5234   6.087   8.606   7.791  0.8729  0.5259 -0.2763
  798MOL0     C 5235   5.964   8.666   7.766 -0.2128  0.0930 -0.9814
  798MOL0     C 5236   5.859   8.664   7.858 -0.3271 -1.1596 -0.2329
  798MOL0     C 5237   5.734   8.717   7.817 -1.6565 -0.5309 -0.6134
  798MOL0     C 5238   5.721   8.758   7.684 -0.3307 -0.2211  0.5218
  798MOL0     O 5239   5.600   8.811   7.648 -0.8095 -0.1195 -0.2474
  798MOL0     C 5240   5.544   8.767   7.523  0.5264 -0.3428 -0.4432
  798MOL0     C 5241   5.421   8.681   7.558  0.0429 -0.4903  0.2009
  798MOL0     C 5242   5.297   8.769   7.600 -0.4935  0.2575  0.3880
  798MOL0     C 5243   5.216   8.800   7.473 -0.4136 -0.5044  0.3315
  798MOL0     C 5244   5.091   8.879   7.510  0.8344 -0.1226 -0.0474
  798MOL0     C 5245   4.973   8.783   7.570 -0.0775 -0.5853  0.4948
  798MOL0     C 5246   4.914   8.700   7.457 -0.6435  0.0562 -0.3224
  798MOL0     C 5247   4.916   8.548   7.468 -0.1576  0.1063  0.4777
  798MOL0    Cl 5248   5.080   8.486   7.480 -0.6666  0.1184  0.0032
  798MOL0     C 5249   5.826   8.752   7.594  0.6592 -0.2647  0.5499
  798MOL0     C 5250   5.953   8.714   7.637 -1.0633  0.2655 -0.1443
  798MOL0     O 5251   6.174   8.785   7.919  0.8012 -0.2639  0.1638
  798MOL0     C 5252   6.291   8.454   7.918  0.2905  0.1941 -0.3293
  798MOL0     C 5253   6.394   8.363   7.951 -0.0871 -0.8889  0.2607
  798MOL0     N 5254   6.971   7.915   8.318 -0.0816 -0.8203  0.2879
  798MOL0     N 5255   7.046   7.823   8.266  0.2360 -0.2638  0.8188
  798MOL0     C 5256   8.213   8.015   8.655 -0.0490  0.0475  0.3371
  798MOL0     C 5257   8.345   8.043   8.646  0.0119 -0.1202 -0.2911
  798MOL0     C 5258   8.720   8.290   8.495  0.0597  0.1491 -0.4381
  798MOL0     C 5259   8.799   8.396   8.526  0.0268 -0.0190 -0.8367
  798MOL0     C 5260   8.920   8.410   8.476  0.4158 -0.3542  0.1980
  798MOL0     C 5261   8.975   8.319   8.385  0.3049 -0.2015  0.9116
  798MOL0     O 5262   9.100   8.360   8.337 -0.4046  0.1131  0.1584
  798MOL0     C 5263   9.135   8.299   8.216  0.4184 -0.1543  0.4517
  798MOL0     C 5264   9.282   8.325   8.177  0.3727 -0.3604 -0.9394
  798MOL0     C 5265   9.386   8.274   8.273 -0.2315  0.1529 -0.7419
  798MOL0     C 5266   9.521   8.334   8.244  0.0756  0.0157 -0.1613
  798MOL0     C 5267   9.619   8.315   8.358  0.4551 -0.1058  0.4659
  798MOL0     C 5268   9.685   8.306   8.457  0.1060 -0.5163  0.2251
  798MOL0     C 5269   8.885   8.223   8.328  0.2327 -0.1216  0.1822
  798MOL0     C 5270   8.762   8.208   8.390 -0.4842 -0.9118 -0.8237
  798MOL0     H 5271   8.320   8.299   8.426 -0.7876  0.7390  1.1352
  798MOL0     H 5272   8.088   8.269   8.473  0.1158  0.3202 -0.3839
  798MOL0     H 5273   7.965   7.851   8.663 -0.4503 -0.4624  0.0151
  798MOL0     H 5274   7.993   7.899   8.493  1.2617  0.0303  0.1861
  798MOL0     H 5275   7.731   7.978   8.618  1.9398  1.1662  2.8191
  798MOL0     H 5276   7.757   7.810   8.611 -2.8596  0.8181 -0.3165
  798MOL0     H 5277   7.809   7.821   8.361  1.6462  1.1210  0.5441
  798MOL0     H 5278   7.778   7.986   8.362 -1.5683  1.0330  2.0660
  798MOL0     H 5279   7.576   7.759   8.421 -3.4293  1.6792  2.2992
  798MOL0     H 5280   7.531   7.917   8.460 -0.6371 -0.5372 -0.1573
  798MOL0     H 5281   7.617   7.824   8.180 -0.3497 -1.1703  1.4288
  798MOL0     H 5282   7.587   7.987   8.219 -3.3172  2.7190  4.4724
  798MOL0     H 5283   7.362   7.949   8.285  1.1331  1.3192  0.7055
  798MOL0     H 5284   7.377   7.775   8.297 -0.4594 -0.5625 -0.4454
  798MOL0     H 5285   7.375   7.930   8.037 -1.8188  0.7872  0.4633
  798MOL0     H 5286   7.426   7.752   8.051  0.2563  0.5723  0.1332
  798MOL0     H 5287   7.221   7.693   8.112 -1.5113 -0.5792 -0.8189
  798MOL0     H 5288   7.209   7.786   7.964  1.1745  1.3304  0.3213
  798MOL0     H 5289   7.151   8.079   8.086  1.4025 -1.6144 -1.4363
  798MOL0     H 5290   7.015   8.240   8.243 -1.6531  0.7321 -1.3066
  798MOL0     H 5291   6.913   8.185   8.371  1.0125  2.0525  0.1771
  798MOL0     H 5292   6.740   8.096   8.199 -0.7839  0.1415 -1.8364
  798MOL0     H 5293   6.824   8.209   8.096 -1.1243  2.6954  0.3419
  798MOL0     H 5294   6.696   8.268   8.365 -5.3589 -3.6462 -1.8284
  798MOL0     H 5295   6.786   8.390   8.260 -1.8137  0.6535 -1.0450
  798MOL0     H 5296   6.526   8.382   8.240  0.4611  2.1071 -2.8245
  798MOL0     H 5297   6.531   8.218   8.191 -3.3724  2.7238 -2.3244
  798MOL0     H 5298   6.593   8.602   8.086 -0.8607  1.4711  1.7175
  798MOL0     H 5299   6.413   8.750   8.015 -0.9857  0.4527  0.1208
  798MOL0     H 5300   5.877   8.627   7.958  0.7508 -0.9494 -0.3471
  798MOL0     H 5301   5.653   8.718   7.889 -0.5373  0.0272  0.6950
  798MOL0     H 5302   5.617   8.714   7.461 -0.2949 -3.5176  1.1262
  798MOL0     H 5303   5.499   8.846   7.462  0.1057 -1.3447 -1.4788
  798MOL0     H 5304   5.445   8.623   7.648 -0.7205 -0.1253  0.6564
  798MOL0     H 5305   5.400   8.616   7.473  2.3096 -1.1015  0.0504
  798MOL0     H 5306   5.324   8.859   7.655 -1.4509  0.4501  0.5638
  798MOL0     H 5307   5.234   8.719   7.675 -0.7153  0.7870  0.5605
  798MOL0     H 5308   5.278   8.859   7.405 -1.8840 -0.0006 -0.6276
  798MOL0     H 5309   5.193   8.700   7.437 -0.2787 -1.0959  1.8492
  798MOL0     H 5310   5.056   8.916   7.413 -2.3723 -3.1027 -0.2335
  798MOL0     H 5311   5.106   8.963   7.578  0.9722 -0.9682  0.9782
  798MOL0     H 5312   4.891   8.838   7.617 -1.2705 -2.0497  0.1793
  798MOL0     H 5313   5.019   8.721   7.647  0.1438 -1.1288 -0.0664
  798MOL0     H 5314   4.812   8.731   7.433  0.8073  4.4155 -1.9877
  798MOL0     H 5315   4.961   8.724   7.361 -0.1031  1.9659  0.3797
  798MOL0     H 5316   4.876   8.511   7.373  0.0928  1.0198  0.0090
  798MOL0     H 5317   4.851   8.520   7.551 -2.2559 -0.6580 -1.3412
  798MOL0     H 5318   5.809   8.784   7.492 -0.5411  3.1309  1.6698
  798MOL0     H 5319   6.038   8.698   7.572  0.1738 -1.8207  1.8422
  798MOL0     H 5320   6.210   8.405   7.865  0.7416 -0.6572 -0.2474
  798MOL0     H 5321   6.372   8.258   7.933 -1.5386 -0.4532 -0.6929
  798MOL0     H 5322   8.182   7.936   8.722 -0.9628 -0.5031 -0.7157
  798MOL0     H 5323   8.420   7.982   8.696  0.1883  1.0621  0.9329
  798MOL0     H 5324   8.778   8.476   8.596 -0.7031 -0.0582 -1.0033
  798MOL0     H 5325   8.981   8.496   8.501 -1.2202  0.3021  2.1466
  798MOL0     H 5326   9.074   8.347   8.138 -0.0380  0.8536  1.4053
  798MOL0     H 5327   9.123   8.191   8.223 -0.7091 -0.2393 -1.8398
  798MOL0     H 5328   9.299   8.276   8.080  2.6576 -1.8539  0.1391
  798MOL0     H 5329   9.290   8.434   8.177 -2.3548 -0.0703  0.7247
  798MOL0     H 5330   9.387   8.168   8.246 -0.3408  0.3306 -1.4682
  798MOL0     H 5331   9.357   8.283   8.378  0.9774  2.9236 -0.5443
  798MOL0     H 5332   9.564   8.294   8.152 -0.8204 -1.9516  0.2189
  798MOL0     H 5333   9.509   8.442   8.234 -0.4887  0.1973  1.9370
  798MOL0     H 5334   9.719   8.287   8.557 -1.9688 -1.3566  0.8333
  798MOL0     H 5335   8.928   8.173   8.242  3.1376  2.9040 -0.3708
  798MOL0     H 5336   8.695   8.127   8.361  0.1799 -1.5845 -0.5156
  799MOL0     O 5337   4.640   6.315   0.704  0.3381 -0.1972 -0.1105
  799MOL0     C 5338   4.634   6.214   0.769 -0.1178  0.1690 -0.3370
  799MOL0     O 5339   4.527   6.136   0.774  0.1756  0.7829  0.3165
  799MOL0     C 5340   4.416   6.161   0.703  1.2460  0.0035  0.8986
  799MOL0     C 5341   4.398   6.208   0.572 -0.1194 -0.4544 -0.1552
  799MOL0     C 5342   4.267   6.204   0.512  0.4213 -0.4413 -0.8797
  799MOL0     C 5343   4.151   6.183   0.596 -0.3617 -0.0468 -0.1459
  799MOL0     O 5344   4.030   6.169   0.530  0.7029 -0.3303  0.2796
  799MOL0     C 5345   3.902   6.168   0.597 -0.5159  0.8716  0.9236
  799MOL0     C 5346   3.847   6.315   0.610 -0.4413 -0.1945  0.8074
  799MOL0     C 5347   3.747   6.307   0.730 -0.2946 -0.3089  0.7173
  799MOL0     C 5348   3.671   6.441   0.761  0.2402  0.2964  0.1908
  799MOL0     C 5349   3.581   6.482   0.647 -1.5496  0.2068 -0.0451
  799MOL0     C 5350   3.495   6.372   0.589 -0.2033 -0.2319  0.6502
  799MOL0     C 5351   3.397   6.443   0.496  0.0410 -0.1190 -0.4960
  799MOL0     C 5352   3.271   6.352   0.498  1.1059 -1.0613  1.0973
  799MOL0     N 5353   3.291   6.217   0.435  0.4030  0.7206  0.3879
  799MOL0     C 5354   3.289   6.103   0.506 -0.2430  0.6440 -0.2069
  799MOL0     C 5355   3.286   6.011   0.404  0.0201 -0.8065 -0.0907
  799MOL0     C 5356   3.292   5.868   0.424  0.8126  0.5507 -0.6768
  799MOL0     C 5357   3.154   5.804   0.396  0.2881  0.2188  0.1423
  799MOL0     C 5358   3.161   5.658   0.411  0.4993 -0.5440 -0.6688
  799MOL0     C 5359   3.031   5.593   0.370  0.6617  0.6936  0.3766
  799MOL0     O 5360   2.908   5.619   0.442  0.0130  0.7439  1.0718
  799MOL0     C 5361   2.792   5.543   0.403 -0.9679  0.3549  0.0771
  799MOL0     C 5362   2.668   5.606   0.444 -0.0734 -0.5493  0.5139
  799MOL0     C 5363   2.553   5.541   0.444 -0.2132 -0.4582  0.5115
  799MOL0     C 5364   2.543   5.412   0.397 -0.4005 -0.4162  0.1217
  799MOL0     C 5365   2.417   5.344   0.380  0.4379 -0.2238 -0.1964
  799MOL0     O 5366   2.419   5.214   0.347 -0.6650  0.0024  0.1510
  799MOL0     C 5367   2.301   5.141   0.378  0.1187 -0.2335 -0.2927
  799MOL0     C 5368   2.219   5.077   0.287 -0.6533  0.8427  0.2466
  799MOL0     C 5369   2.102   5.008   0.338 -0.6154  0.4092 -0.3877
  799MOL0     C 5370   2.057   5.016   0.474  0.4094  0.5744  0.2791
  799MOL0     O 5371   1.937   4.958   0.513 -0.1411 -0.5738  0.1512
  799MOL0     C 5372   1.858   5.014   0.617  0.1001 -0.2516 -0.2755
  799MOL0     C 5373   1.730   4.932   0.600  0.5501  0.7235 -0.3844
  799MOL0     C 5374   1.620   4.968   0.697 -0.2499 -0.0076 -0.4031
  799MOL0     C 5375   1.483   4.903   0.643 -0.8087 -0.6872  0.0388
  799MOL0     C 5376   1.377   5.007   0.622 -0.4575 -0.4860 -0.2385
  799MOL0     C 5377   1.341   5.074   0.758  0.3905  0.8284  0.9202
  799MOL0     C 5378   1.184   5.055   0.774 -0.5610  0.7647  0.3889
  799MOL0     C 5379   1.141   5.163   0.875  0.9597  0.3033 -0.3113
  799MOL0    Cl 5380   0.959   5.127   0.903 -0.6259  0.5209  0.4053
  799MOL0     C 5381   2.134   5.091   0.556 -0.3576  0.4962  0.4066
  799MOL0     C 5382   2.263   5.138   0.510 -0.0344  0.6850 -0.6155
  799MOL0     O 5383   2.319   5.415   0.395 -0.0383  0.2685 -0.4242
  799MOL0     C 5384   2.659   5.348   0.363  0.5250  0.3178 -0.6305
  799MOL0     C 5385   2.781   5.411   0.360 -1.2241 -0.0766 -1.3044
  799MOL0     N 5386   3.278   6.070   0.275 -0.5902  0.1583  0.4307
  799MOL0     N 5387   3.282   6.197   0.300  0.1201 -0.3761 -0.8096
  799MOL0     C 5388   4.174   6.147   0.728  0.2346 -0.2155 -0.8773
  799MOL0     C 5389   4.305   6.126   0.776  0.8795 -0.1311  0.5152
  799MOL0     C 5390   4.769   6.155   0.827  0.4326 -0.3739 -0.0227
  799MOL0     C 5391   4.878   6.236   0.839 -0.9650 -0.2587  0.1828
  799MOL0     C 5392   4.996   6.182   0.894  0.4262  0.8122 -0.8588
  799MOL0     C 5393   5.003   6.049   0.919  0.1896  0.3925 -0.7684
  799MOL0     O 5394   5.112   5.983   0.973  0.1711 -0.0446 -0.0764
  799MOL0     C 5395   5.209   6.068   1.038  0.7758 -0.5650  0.6161
  799MOL0     C 5396   5.313   5.983   1.115 -0.0341 -0.6134  0.2102
  799MOL0     C 5397   5.375   5.862   1.045  0.2836 -0.1291  1.0922
  799MOL0     C 5398   5.481   5.794   1.143 -0.2629 -0.1589  0.2069
  799MOL0     C 5399   5.511   5.671   1.080 -0.3209  0.8075  0.8771
  799MOL0     C 5400   5.505   5.561   1.036 -0.9752 -0.0441 -0.7051
  799MOL0     C 5401   4.898   5.962   0.880 -0.7574  0.5885 -0.0868
  799MOL0     C 5402   4.779   6.023   0.846  0.6285 -0.0768  0.2585
  799MOL0     H 5403   4.483   6.246   0.517 -1.2899 -0.4841 -2.0856
  799MOL0     H 5404   4.259   6.228   0.407 -0.1730  0.5392 -0.6279
  799MOL0     H 5405   3.916   6.118   0.694  5.0089 -2.5855 -1.1878
  799MOL0     H 5406   3.838   6.098   0.543  0.7679  2.1341 -2.5141
  799MOL0     H 5407   3.798   6.337   0.515 -2.0030 -3.8281  0.5994
  799MOL0     H 5408   3.927   6.383   0.642 -0.1103 -1.0123  1.8000
  799MOL0     H 5409   3.794   6.266   0.820  2.0902 -1.0462 -0.7798
  799MOL0     H 5410   3.673   6.228   0.711 -0.9698 -0.1361  2.4127
  799MOL0     H 5411   3.620   6.420   0.856  2.2753 -2.1671  0.8445
  799MOL0     H 5412   3.739   6.523   0.784  1.0906  0.2919 -2.0621
  799MOL0     H 5413   3.643   6.531   0.571 -0.6178 -0.6107  0.1638
  799MOL0     H 5414   3.511   6.551   0.695  2.2555  3.0528  2.0167
  799MOL0     H 5415   3.443   6.320   0.670  1.1984 -1.4225  0.8417
  799MOL0     H 5416   3.552   6.298   0.532 -1.1067  0.2797 -0.9496
  799MOL0     H 5417   3.364   6.536   0.543  2.7232 -1.3262  4.5160
  799MOL0     H 5418   3.427   6.453   0.391 -0.6878 -0.0823 -0.7042
  799MOL0     H 5419   3.192   6.400   0.439  2.9302 -0.0871 -0.6877
  799MOL0     H 5420   3.243   6.341   0.603  0.9202 -1.4668  1.0055
  799MOL0     H 5421   3.289   6.081   0.612 -2.0266 -0.4236 -0.3958
  799MOL0     H 5422   3.324   5.852   0.527 -0.3746 -2.2342 -0.6569
  799MOL0     H 5423   3.370   5.823   0.362  0.4698 -1.8218  0.4984
  799MOL0     H 5424   3.139   5.823   0.289  1.8101 -1.0923 -0.3402
  799MOL0     H 5425   3.076   5.853   0.455 -0.7598  0.6248 -1.5031
  799MOL0     H 5426   3.248   5.616   0.361  2.0316  1.6550  0.0223
  799MOL0     H 5427   3.171   5.641   0.519 -1.8744  3.4466  0.3918
  799MOL0     H 5428   3.059   5.489   0.391 -0.9359 -0.0523 -1.0650
  799MOL0     H 5429   3.002   5.599   0.265 -0.6971 -0.5715  0.6450
  799MOL0     H 5430   2.666   5.708   0.482  1.7253 -0.1144 -0.4112
  799MOL0     H 5431   2.467   5.594   0.482 -0.9814 -0.7088 -0.8336
  799MOL0     H 5432   2.233   5.088   0.180 -0.4454 -0.1654  0.1630
  799MOL0     H 5433   2.031   4.975   0.263 -0.4766  0.8629 -0.7219
  799MOL0     H 5434   1.836   5.118   0.593  0.5088  0.0413  0.5776
  799MOL0     H 5435   1.907   5.014   0.715  1.4459  2.5954 -0.8450
  799MOL0     H 5436   1.744   4.824   0.593 -0.4687  0.4257  1.6179
  799MOL0     H 5437   1.704   4.963   0.498  4.0216 -0.0426 -1.6380
  799MOL0     H 5438   1.621   5.077   0.702  0.3121  0.0668 -1.7429
  799MOL0     H 5439   1.644   4.925   0.795 -2.8948  1.6640  1.0882
  799MOL0     H 5440   1.503   4.845   0.553 -0.2577  2.1663 -1.8105
  799MOL0     H 5441   1.442   4.837   0.720 -0.7634 -0.9524 -0.1634
  799MOL0     H 5442   1.292   4.955   0.577  0.8773 -1.8651 -1.2510
  799MOL0     H 5443   1.406   5.093   0.561  0.1839 -0.2101  0.4440
  799MOL0     H 5444   1.366   5.181   0.759 -1.7005  1.4684 -1.9708
  799MOL0     H 5445   1.402   5.031   0.838 -0.6850 -2.9026 -0.0845
  799MOL0     H 5446   1.136   5.069   0.677  1.6500  0.6435 -0.7866
  799MOL0     H 5447   1.166   4.952   0.805  1.6243 -0.2723 -1.4867
  799MOL0     H 5448   1.166   5.259   0.829  1.6628 -0.1300 -0.8597
  799MOL0     H 5449   1.187   5.155   0.974 -2.4882 -1.9912  1.2999
  799MOL0     H 5450   2.109   5.118   0.658 -0.8143  2.4088 -0.1608
  799MOL0     H 5451   2.330   5.180   0.585 -0.0583 -0.3050 -0.0241
  799MOL0     H 5452   2.668   5.247   0.327 -0.0637 -0.0444  0.1989
  799MOL0     H 5453   2.862   5.358   0.311  0.0431  0.0163  0.5883
  799MOL0     H 5454   4.088   6.131   0.793  0.3181 -0.5489 -0.8469
  799MOL0     H 5455   4.315   6.093   0.879 -0.3269 -0.5014  0.5343
  799MOL0     H 5456   4.866   6.341   0.817  0.7944  0.3782  1.9258
  799MOL0     H 5457   5.083   6.246   0.904  1.3283 -0.4872 -0.0693
  799MOL0     H 5458   5.160   6.146   1.098  1.3947  0.9938 -0.8302
  799MOL0     H 5459   5.268   6.119   0.961  1.5518 -1.1167  0.8370
  799MOL0     H 5460   5.398   6.042   1.149 -0.7224  0.2755  0.4339
  799MOL0     H 5461   5.255   5.956   1.204  0.4063  0.9928  1.0188
  799MOL0     H 5462   5.420   5.888   0.950  1.1775  2.8684  2.2150
  799MOL0     H 5463   5.286   5.804   1.020 -0.1543  0.5559  1.0367
  799MOL0     H 5464   5.580   5.841   1.151  0.5826 -1.9504  0.8262
  799MOL0     H 5465   5.444   5.775   1.244  4.0545  1.3778  2.3504
  799MOL0     H 5466   5.514   5.467   0.984 -0.7885  1.1053 -2.8684
  799MOL0     H 5467   4.902   5.854   0.876 -4.2711  0.3501 -3.4693
  799MOL0     H 5468   4.689   5.961   0.841 -0.9542  2.2091 -2.1736
  800MOL0     O 5469   0.086  10.585   3.587  0.0497 -0.2839 -0.4170
  800MOL0     C 5470   0.174  10.602   3.670 -0.4777  0.5768 -0.1622
  800MOL0     O 5471   0.175  10.543   3.794  0.5580  0.1084  0.0573
  800MOL0     C 5472   0.106  10.422   3.811  0.5569  0.5334  0.0735
  800MOL0     C 5473   0.076  10.323   3.715  0.1959  0.0699 -0.4905
  800MOL0     C 5474  -0.009  10.218   3.750 -0.3529  0.6397  0.1841
  800MOL0     C 5475  -0.062  10.198   3.874  0.1043  0.4291  0.6010
  800MOL0     O 5476  -0.138  10.085   3.880  0.8858  0.1487  0.0181
  800MOL0     C 5477  -0.191  10.052   4.013 -0.7517 -0.7478 -0.0747
  800MOL0     C 5478  -0.326  10.118   4.065 -1.0068 -1.0215 -0.4462
  800MOL0     C 5479  -0.421  10.135   3.948 -0.7616 -0.5562 -1.3262
  800MOL0     C 5480  -0.562  10.161   3.997 -0.4981  0.4615 -0.5564
  800MOL0     C 5481  -0.645  10.213   3.879  0.1967  0.1347 -0.3714
  800MOL0     C 5482  -0.796  10.232   3.914  0.3072 -0.0680 -0.0747
  800MOL0     C 5483  -0.879  10.280   3.798 -0.4110  0.8856 -0.8367
  800MOL0     C 5484  -1.034  10.294   3.824  0.0939 -0.8131  0.8357
  800MOL0     N 5485  -1.096  10.380   3.715  0.6226 -0.7093  0.1794
  800MOL0     C 5486  -1.074  10.378   3.576  0.1445  0.0612 -0.3075
  800MOL0     C 5487  -1.162  10.463   3.526  0.4497 -0.7660 -0.4036
  800MOL0     C 5488  -1.186  10.475   3.382  0.0418  0.2049 -1.0347
  800MOL0     C 5489  -1.334  10.494   3.353 -0.1501  0.1837  0.1422
  800MOL0     C 5490  -1.404  10.622   3.394 -0.7846  0.1096 -0.2485
  800MOL0     C 5491  -1.555  10.601   3.379 -0.1111  0.2251 -0.5908
  800MOL0     O 5492  -1.626  10.712   3.432  1.0298 -0.2807  0.6398
  800MOL0     C 5493  -1.765  10.710   3.415  0.0660 -0.2268 -0.1410
  800MOL0     C 5494  -1.838  10.591   3.384 -0.0739 -0.1462 -0.2539
  800MOL0     C 5495  -1.977  10.589   3.376 -0.3230  0.4229  0.5329
  800MOL0     C 5496  -2.046  10.707   3.385 -0.2962  0.0030  0.3017
  800MOL0     C 5497  -2.200  10.707   3.386 -0.3627  0.2951 -0.2722
  800MOL0     O 5498  -2.268  10.582   3.399 -0.8074  0.9404 -0.4739
  800MOL0     C 5499  -2.404  10.581   3.381  0.1789  0.1686 -0.8260
  800MOL0     C 5500  -2.484  10.623   3.493 -0.1588  0.4110 -0.9957
  800MOL0     C 5501  -2.620  10.621   3.487 -0.4316 -0.1749  0.2355
  800MOL0     C 5502  -2.681  10.590   3.368  0.0554  0.1015  0.5295
  800MOL0     O 5503  -2.819  10.595   3.354 -0.2591  0.2683 -0.2254
  800MOL0     C 5504  -2.891  10.685   3.443 -0.9063  0.5891  0.3437
  800MOL0     C 5505  -3.022  10.733   3.375  0.3014  0.3735 -0.4901
  800MOL0     C 5506  -3.139  10.629   3.391 -0.8332 -0.3976  0.3760
  800MOL0     C 5507  -3.284  10.686   3.349  0.1166  0.3124 -0.0770
  800MOL0     C 5508  -3.409  10.599   3.402 -0.0508 -0.1165 -0.0408
  800MOL0     C 5509  -3.427  10.463   3.330 -0.3535  0.5929  0.1464
  800MOL0     C 5510  -3.544  10.397   3.398  0.2690  0.3797  0.0065
  800MOL0     C 5511  -3.560  10.251   3.340  1.0358  0.0040 -0.4859
  800MOL0    Cl 5512  -3.589  10.249   3.153  0.6007  0.0623  0.0128
  800MOL0     C 5513  -2.600  10.546   3.256 -0.7153  1.0489  0.0634
  800MOL0     C 5514  -2.462  10.538   3.261  0.2012  0.3766 -0.3754
  800MOL0     O 5515  -2.255  10.814   3.358  0.2561  0.2543  0.1534
  800MOL0     C 5516  -1.974  10.823   3.414 -0.0290  1.1520  0.2001
  800MOL0     C 5517  -1.836  10.827   3.429  0.5398 -0.2678  0.8845
  800MOL0     N 5518  -1.230  10.524   3.629  0.3134  0.0057  0.2608
  800MOL0     N 5519  -1.186  10.477   3.745 -0.1166  0.2208 -0.5352
  800MOL0     C 5520  -0.035  10.297   3.968  0.2007 -0.7192  0.3274
  800MOL0     C 5521   0.052  10.402   3.936 -0.6745 -0.3082 -0.4711
  800MOL0     C 5522   0.289  10.693   3.652 -0.5315  1.0589  0.3957
  800MOL0     C 5523   0.399  10.682   3.731  0.4862 -0.5624 -0.3644
  800MOL0     C 5524   0.506  10.775   3.714  0.2184  0.4625 -0.1533
  800MOL0     C 5525   0.495  10.874   3.620 -0.4211  0.4575 -0.2862
  800MOL0     O 5526   0.590  10.974   3.597  0.0254 -0.6635 -0.1921
  800MOL0     C 5527   0.672  11.031   3.697  0.1474 -0.1765 -0.1306
  800MOL0     C 5528   0.607  11.148   3.772  0.3443  0.5269  0.4624
  800MOL0     C 5529   0.498  11.102   3.874 -0.3189  0.0908 -0.0084
  800MOL0     C 5530   0.451  11.233   3.941  0.0166  0.7640 -0.9285
  800MOL0     C 5531   0.338  11.208   4.025  0.0743 -0.8337 -0.7959
  800MOL0     C 5532   0.242  11.178   4.097  0.3408 -0.6185  0.0311
  800MOL0     C 5533   0.383  10.880   3.535 -0.8087 -0.5966  0.4173
  800MOL0     C 5534   0.279  10.788   3.563  0.2104  0.3262 -0.1270
  800MOL0     H 5535   0.117  10.327   3.615  1.2576 -2.9423 -0.3052
  800MOL0     H 5536  -0.011  10.139   3.676  1.6587 -0.1112  0.8584
  800MOL0     H 5537  -0.115  10.070   4.090 -0.4610 -0.5311 -0.4053
  800MOL0     H 5538  -0.211   9.945   4.010 -0.2090 -0.8339 -0.7664
  800MOL0     H 5539  -0.311  10.221   4.099 -1.6730 -0.2303 -2.3657
  800MOL0     H 5540  -0.377  10.065   4.146 -1.7406 -0.4373 -0.5126
  800MOL0     H 5541  -0.423  10.041   3.892  1.4820 -0.6698 -1.3250
  800MOL0     H 5542  -0.389  10.224   3.892 -0.1148 -0.7128 -1.2159
  800MOL0     H 5543  -0.589  10.063   4.036  3.0716 -0.3545  0.1984
  800MOL0     H 5544  -0.577  10.232   4.079  1.2943  0.6585 -0.3487
  800MOL0     H 5545  -0.621  10.151   3.792 -1.2718  0.9220 -1.3858
  800MOL0     H 5546  -0.601  10.308   3.848  0.6274  0.5127  1.3008
  800MOL0     H 5547  -0.797  10.307   3.993 -0.9651  0.1621 -0.2775
  800MOL0     H 5548  -0.845  10.142   3.952  0.5180 -0.9847 -1.8759
  800MOL0     H 5549  -0.845  10.384   3.794  1.6545  0.4834  2.7290
  800MOL0     H 5550  -0.839  10.226   3.711  0.4874 -0.5190  0.3934
  800MOL0     H 5551  -1.055  10.336   3.922  2.9282  0.7303  0.8833
  800MOL0     H 5552  -1.075  10.193   3.813 -3.4687  0.4212  1.4875
  800MOL0     H 5553  -0.995  10.334   3.516  0.9407  2.0332 -0.7859
  800MOL0     H 5554  -1.138  10.385   3.340 -0.2631  0.2976 -1.5955
  800MOL0     H 5555  -1.125  10.560   3.348  1.2478  0.9981  2.6803
  800MOL0     H 5556  -1.393  10.412   3.395  2.6448 -1.1350  1.8222
  800MOL0     H 5557  -1.343  10.480   3.245  0.4166 -1.7302  0.3141
  800MOL0     H 5558  -1.393  10.658   3.497 -2.4188  0.4657 -0.1679
  800MOL0     H 5559  -1.373  10.711   3.337  1.5318 -2.0602 -2.6371
  800MOL0     H 5560  -1.587  10.519   3.443  1.3594 -0.7874 -1.0835
  800MOL0     H 5561  -1.588  10.589   3.275 -2.8341 -0.7787  0.3304
  800MOL0     H 5562  -1.787  10.497   3.365  1.2811  0.9297 -2.2404
  800MOL0     H 5563  -2.026  10.494   3.355  0.2647  0.5172 -1.4184
  800MOL0     H 5564  -2.431  10.645   3.585 -1.8254  1.6136 -0.2861
  800MOL0     H 5565  -2.677  10.662   3.570 -1.2222  0.7334 -0.7211
  800MOL0     H 5566  -2.833  10.773   3.471  0.3637  0.8190 -2.6971
  800MOL0     H 5567  -2.916  10.629   3.534 -0.2076  1.1009  0.8588
  800MOL0     H 5568  -3.002  10.734   3.267 -0.2407 -6.5765 -1.1528
  800MOL0     H 5569  -3.051  10.829   3.419  1.6907 -0.0673  1.5070
  800MOL0     H 5570  -3.144  10.607   3.498  2.7972  0.6304  0.8755
  800MOL0     H 5571  -3.122  10.538   3.333 -1.4331  0.2940 -0.9235
  800MOL0     H 5572  -3.299  10.792   3.375 -2.9615  0.3655 -1.5162
  800MOL0     H 5573  -3.295  10.682   3.240  0.5604 -0.5906 -0.0916
  800MOL0     H 5574  -3.498  10.659   3.380  1.2771  3.0561  2.2864
  800MOL0     H 5575  -3.397  10.585   3.510 -1.0994 -2.4054 -0.1613
  800MOL0     H 5576  -3.331  10.410   3.331 -1.2379 -1.0438  0.4702
  800MOL0     H 5577  -3.455  10.474   3.224  2.9203 -2.1397 -1.1878
  800MOL0     H 5578  -3.513  10.375   3.501  3.5611  0.8130 -0.7692
  800MOL0     H 5579  -3.637  10.453   3.392 -1.1037 -1.8868 -1.1534
  800MOL0     H 5580  -3.641  10.204   3.396 -3.4656  4.3487 -2.5948
  800MOL0     H 5581  -3.463  10.201   3.354  3.2588  3.3771 -2.2473
  800MOL0     H 5582  -2.652  10.514   3.166  2.4850 -1.0257 -1.1986
  800MOL0     H 5583  -2.392  10.512   3.182  0.0872 -1.9746  0.2403
  800MOL0     H 5584  -2.039  10.909   3.424 -1.1842  0.1124  2.5419
  800MOL0     H 5585  -1.780  10.919   3.442  1.3283 -0.7279  0.8805
  800MOL0     H 5586  -0.075  10.280   4.067  0.3632 -0.8961  0.3640
  800MOL0     H 5587   0.060  10.491   3.998  1.5953  0.8367 -2.2524
  800MOL0     H 5588   0.401  10.613   3.815 -1.4687  1.5424  1.5964
  800MOL0     H 5589   0.604  10.763   3.759 -1.6663 -2.1704  3.7031
  800MOL0     H 5590   0.758  11.077   3.647 -0.9626 -1.0526 -3.0395
  800MOL0     H 5591   0.716  10.953   3.761 -1.9980 -0.2742  1.3037
  800MOL0     H 5592   0.682  11.208   3.825  1.4288 -0.6908  0.3579
  800MOL0     H 5593   0.555  11.216   3.704 -1.5644  2.3341  3.5056
  800MOL0     H 5594   0.540  11.025   3.940  2.6735  0.6421 -1.1477
  800MOL0     H 5595   0.416  11.053   3.820  2.3763 -4.5613 -0.4787
  800MOL0     H 5596   0.532  11.269   4.006  1.9329 -3.9354 -0.3420
  800MOL0     H 5597   0.427  11.307   3.864 -0.0182  1.2455 -0.4648
  800MOL0     H 5598   0.159  11.159   4.162 -0.9934  0.5767 -1.2261
  800MOL0     H 5599   0.379  10.953   3.455 -1.8690 -1.8926 -0.7724
  800MOL0     H 5600   0.187  10.803   3.507  1.1108  0.4078 -1.6446
  801MOL0     O 5601   1.004   0.345   7.640  0.3628 -0.4281  0.3271
  801MOL0     C 5602   0.916   0.259   7.644 -0.8020 -0.1328 -0.3956
  801MOL0     O 5603   0.940   0.124   7.663 -0.0192  0.1350 -0.1158
  801MOL0     C 5604   1.070   0.096   7.645 -0.3080 -0.2332 -0.6726
  801MOL0     C 5605   1.153   0.069   7.757 -0.3975 -0.3638 -0.2788
  801MOL0     C 5606   1.286   0.039   7.740 -0.5305 -0.3665  0.4523
  801MOL0     C 5607   1.346   0.043   7.611 -0.8111 -0.4745  0.1055
  801MOL0     O 5608   1.481   0.018   7.590  0.5268 -0.4203 -0.3370
  801MOL0     C 5609   1.564   0.135   7.616 -0.0237 -0.8484 -0.7187
  801MOL0     C 5610   1.710   0.099   7.598 -0.1907 -0.9351 -0.2087
  801MOL0     C 5611   1.747   0.119   7.444  0.7088 -0.9284 -0.8813
  801MOL0     C 5612   1.888   0.067   7.414  0.0308  0.3082 -0.5029
  801MOL0     C 5613   1.942   0.084   7.275 -0.3165 -0.0799  0.1470
  801MOL0     C 5614   2.039  -0.029   7.243 -0.5916  0.1763 -0.0168
  801MOL0     C 5615   2.081  -0.017   7.092  0.1103 -0.4049 -0.2834
  801MOL0     C 5616   2.197  -0.115   7.071 -0.3129 -0.8720  0.2526
  801MOL0     N 5617   2.318  -0.084   7.152 -0.3800  0.5298  0.4513
  801MOL0     C 5618   2.390   0.033   7.140 -0.7287  0.3738  0.5088
  801MOL0     C 5619   2.491   0.026   7.224  0.4608 -0.7845 -0.5439
  801MOL0     C 5620   2.595   0.136   7.231 -1.3225  0.3926  0.3647
  801MOL0     C 5621   2.525   0.269   7.270  0.0324  0.8420  0.3312
  801MOL0     C 5622   2.456   0.261   7.405 -0.4360 -0.4145 -0.2920
  801MOL0     C 5623   2.427   0.399   7.465  0.7658  1.0109 -0.4643
  801MOL0     O 5624   2.324   0.471   7.390 -0.4833 -0.1410 -0.1934
  801MOL0     C 5625   2.201   0.481   7.459 -0.4560  0.3579 -0.2088
  801MOL0     C 5626   2.132   0.372   7.523 -0.2058  0.5715  0.4731
  801MOL0     C 5627   2.004   0.380   7.572  0.5159  0.2003  0.8671
  801MOL0     C 5628   1.929   0.497   7.550  0.3625  0.3496 -0.5859
  801MOL0     C 5629   1.793   0.513   7.610 -0.0258  0.7832  0.9747
  801MOL0     O 5630   1.755   0.427   7.707  0.4699 -0.4002 -0.1827
  801MOL0     C 5631   1.627   0.446   7.771 -0.2980  0.4073  0.8611
  801MOL0     C 5632   1.511   0.481   7.703 -0.2382 -0.0801  0.2031
  801MOL0     C 5633   1.383   0.466   7.772 -0.8357  0.2764  0.0043
  801MOL0     C 5634   1.386   0.429   7.909 -0.0091  0.2901  0.7879
  801MOL0     O 5635   1.271   0.399   7.984  0.0279 -0.6896  0.3047
  801MOL0     C 5636   1.146   0.429   7.937  0.3524 -0.4891  0.4068
  801MOL0     C 5637   1.034   0.426   8.041 -1.0786  0.0753 -0.3867
  801MOL0     C 5638   0.904   0.444   7.970 -0.2892 -0.8239 -0.1171
  801MOL0     C 5639   0.789   0.460   8.072  0.5762 -0.2974  0.3112
  801MOL0     C 5640   0.648   0.438   8.002  0.1118 -0.3664 -0.4523
  801MOL0     C 5641   0.545   0.499   8.102  0.1591 -0.3676 -0.2155
  801MOL0     C 5642   0.401   0.489   8.054  0.6555  0.5362  0.1901
  801MOL0     C 5643   0.382   0.569   7.937  0.8796 -0.2723  0.3679
  801MOL0    Cl 5644   0.204   0.613   7.920 -0.2335 -0.0445 -0.1155
  801MOL0     C 5645   1.508   0.399   7.971  0.1152  0.4781 -0.1665
  801MOL0     C 5646   1.622   0.410   7.907  0.4233 -0.4178  0.2766
  801MOL0     O 5647   1.722   0.602   7.562 -0.5116  0.3006  0.5410
  801MOL0     C 5648   1.985   0.593   7.464  1.0078 -0.1921 -0.2659
  801MOL0     C 5649   2.119   0.583   7.423 -0.1906 -1.0997  0.5951
  801MOL0     N 5650   2.492  -0.094   7.288  0.2990  0.2598  0.5750
  801MOL0     N 5651   2.390  -0.161   7.242 -0.4649 -0.2206  0.3680
  801MOL0     C 5652   1.268   0.073   7.499  1.1240 -0.0202  0.1630
  801MOL0     C 5653   1.132   0.099   7.518 -0.3756 -0.4953 -0.9430
  801MOL0     C 5654   0.774   0.304   7.657  0.3188  0.2421 -0.1385
  801MOL0     C 5655   0.734   0.430   7.616 -0.0123 -0.2607  0.2913
  801MOL0     C 5656   0.600   0.458   7.602 -0.8191 -0.6268 -0.1008
  801MOL0     C 5657   0.500   0.367   7.638 -0.4955 -0.0835  0.9330
  801MOL0     O 5658   0.367   0.387   7.625 -0.2066  0.2511  0.2268
  801MOL0     C 5659   0.326   0.508   7.553  0.2710  0.5565 -0.3073
  801MOL0     C 5660   0.312   0.484   7.405 -0.4752 -0.1744  0.8616
  801MOL0     C 5661   0.258   0.342   7.378  0.4638  0.1341  0.7943
  801MOL0     C 5662   0.120   0.318   7.446  0.1686  0.1444 -0.1743
  801MOL0     C 5663   0.018   0.417   7.425  0.1894  0.5813  1.0978
  801MOL0     C 5664  -0.070   0.499   7.403 -0.3714 -0.1674 -0.5231
  801MOL0     C 5665   0.534   0.248   7.693 -0.1964 -0.9087  0.1240
  801MOL0     C 5666   0.663   0.212   7.694 -0.2994 -0.4743  0.1670
  801MOL0     H 5667   1.096   0.057   7.849 -2.6284 -0.8242 -1.6507
  801MOL0     H 5668   1.354   0.019   7.821  1.8490 -1.5804 -1.7155
  801MOL0     H 5669   1.558   0.162   7.722  2.7469 -1.9480 -0.2048
  801MOL0     H 5670   1.538   0.218   7.550  0.3752  0.7132  0.9978
  801MOL0     H 5671   1.721  -0.004   7.633 -1.2682 -0.5815  1.2651
  801MOL0     H 5672   1.767   0.147   7.678  0.3070 -4.0013  1.4067
  801MOL0     H 5673   1.739   0.226   7.423  3.3278 -0.5219 -0.2128
  801MOL0     H 5674   1.666   0.070   7.391 -0.1252 -0.4526 -0.0724
  801MOL0     H 5675   1.962   0.126   7.469 -1.3976  2.0590 -0.3368
  801MOL0     H 5676   1.893  -0.034   7.456  0.5673  0.5160 -0.0626
  801MOL0     H 5677   2.005   0.173   7.275  0.8428 -0.8703 -1.4156
  801MOL0     H 5678   1.865   0.078   7.198  0.8320 -0.4165 -0.9955
  801MOL0     H 5679   1.988  -0.124   7.258  0.8980 -0.2557  3.1315
  801MOL0     H 5680   2.128  -0.018   7.306 -0.7100 -0.1905  0.2121
  801MOL0     H 5681   1.998  -0.035   7.022  0.2820  1.3309 -0.9996
  801MOL0     H 5682   2.114   0.085   7.072 -0.4242 -0.3132 -0.7230
  801MOL0     H 5683   2.230  -0.104   6.968 -0.6362  0.6229  0.2858
  801MOL0     H 5684   2.153  -0.214   7.088  0.3567 -0.7598  3.1057
  801MOL0     H 5685   2.360   0.109   7.069 -3.8686 -2.0992 -1.0576
  801MOL0     H 5686   2.648   0.143   7.136  1.5028 -2.9330  1.4892
  801MOL0     H 5687   2.668   0.100   7.304 -2.9113 -0.8091  1.4312
  801MOL0     H 5688   2.448   0.295   7.197 -0.5217 -2.2687 -0.3380
  801MOL0     H 5689   2.610   0.339   7.265 -0.6180  1.5767 -0.9196
  801MOL0     H 5690   2.365   0.201   7.396 -0.4445 -0.5745  0.6814
  801MOL0     H 5691   2.521   0.199   7.468 -0.5974  0.9682  1.3120
  801MOL0     H 5692   2.510   0.471   7.465  0.5155  1.4078 -3.2906
  801MOL0     H 5693   2.399   0.378   7.569 -2.8182 -3.3337 -2.0431
  801MOL0     H 5694   2.178   0.274   7.523 -1.8165 -0.3111  3.6701
  801MOL0     H 5695   1.961   0.296   7.625 -2.8915  0.3506 -1.3653
  801MOL0     H 5696   1.514   0.516   7.601  1.2849  0.9953  0.5866
  801MOL0     H 5697   1.286   0.489   7.729 -1.0627  0.2138  0.4791
  801MOL0     H 5698   1.126   0.357   7.857 -0.3810 -0.1595  0.2825
  801MOL0     H 5699   1.143   0.532   7.900  1.4000 -0.5043  0.2483
  801MOL0     H 5700   1.060   0.505   8.113 -0.6673 -0.7681  0.4048
  801MOL0     H 5701   1.041   0.332   8.096 -0.6992  1.0628  1.3410
  801MOL0     H 5702   0.887   0.361   7.901  3.1984  0.5063 -2.9183
  801MOL0     H 5703   0.917   0.533   7.909  3.7363  1.3153  3.3660
  801MOL0     H 5704   0.805   0.382   8.148 -0.8600 -0.4853  0.4624
  801MOL0     H 5705   0.797   0.553   8.129  0.4642 -1.9523  3.2669
  801MOL0     H 5706   0.629   0.332   7.984  0.8622 -0.2648 -2.0285
  801MOL0     H 5707   0.642   0.487   7.904  2.1231 -1.1598 -1.0220
  801MOL0     H 5708   0.565   0.602   8.132 -0.6754 -0.2577  0.0084
  801MOL0     H 5709   0.553   0.431   8.187  3.1465  2.9298  2.4732
  801MOL0     H 5710   0.379   0.387   8.021 -0.4075  1.4405 -2.0979
  801MOL0     H 5711   0.339   0.511   8.142 -1.1960  3.8711 -1.7469
  801MOL0     H 5712   0.418   0.529   7.841  3.8765 -1.5601  1.9042
  801MOL0     H 5713   0.420   0.670   7.951  0.9342  0.0670 -1.8184
  801MOL0     H 5714   1.504   0.357   8.071 -1.3832 -4.2920 -1.9365
  801MOL0     H 5715   1.719   0.397   7.956 -0.1608 -0.2587  1.5167
  801MOL0     H 5716   1.925   0.674   7.425 -0.0759 -0.4093  0.9037
  801MOL0     H 5717   2.157   0.652   7.348  1.0881 -1.9550  0.4228
  801MOL0     H 5718   1.328   0.073   7.408  0.3315  0.4661 -0.3721
  801MOL0     H 5719   1.071   0.085   7.430 -1.1204  1.1062 -0.7235
  801MOL0     H 5720   0.804   0.502   7.575 -0.0621  0.7052  1.8204
  801MOL0     H 5721   0.586   0.555   7.555 -0.6230 -1.3857 -1.8038
  801MOL0     H 5722   0.391   0.592   7.577 -0.5943  1.2306 -0.2539
  801MOL0     H 5723   0.226   0.538   7.586  0.2600  0.2217 -0.0438
  801MOL0     H 5724   0.237   0.550   7.360  0.1945  1.4462  2.0318
  801MOL0     H 5725   0.402   0.504   7.347 -1.7342 -0.6187 -1.3633
  801MOL0     H 5726   0.334   0.271   7.411  0.4255 -0.2540  0.0723
  801MOL0     H 5727   0.240   0.323   7.271 -1.2886  2.8877  0.4916
  801MOL0     H 5728   0.088   0.220   7.408  1.7705 -0.0092 -1.2115
  801MOL0     H 5729   0.124   0.309   7.555  1.3434 -1.0895 -0.2984
  801MOL0     H 5730  -0.148   0.567   7.376  0.8500  0.3138 -3.2458
  801MOL0     H 5731   0.466   0.164   7.706 -1.9923  0.6617  1.2784
  801MOL0     H 5732   0.700   0.112   7.711  2.4490  0.2173 -1.1033
  802MOL0     O 5733   0.290   5.874   2.634 -0.7220  0.1260 -0.1561
  802MOL0     C 5734   0.370   5.774   2.648 -0.2718  0.1564 -0.4482
  802MOL0     O 5735   0.352   5.667   2.736 -0.0628  0.0729 -0.0545
  802MOL0     C 5736   0.231   5.656   2.792  0.5917  0.1622  0.5898
  802MOL0     C 5737   0.218   5.654   2.926  0.2807  0.8135  0.6968
  802MOL0     C 5738   0.100   5.639   2.999  0.5815  1.0023  0.4990
  802MOL0     C 5739  -0.020   5.630   2.920 -0.0049  0.6583 -0.1090
  802MOL0     O 5740  -0.152   5.594   2.964 -0.0999 -0.3207 -0.0190
  802MOL0     C 5741  -0.187   5.611   3.100  0.2126 -0.6310 -1.0490
  802MOL0     C 5742  -0.334   5.608   3.123  0.2333 -1.2695  0.1310
  802MOL0     C 5743  -0.366   5.671   3.258 -0.7904 -0.5946 -0.9122
  802MOL0     C 5744  -0.516   5.640   3.279  0.2963  0.5210 -0.1422
  802MOL0     C 5745  -0.530   5.554   3.403 -0.7405  0.1276 -0.0694
  802MOL0     C 5746  -0.683   5.558   3.441  0.1391 -0.2598 -0.1144
  802MOL0     C 5747  -0.707   5.471   3.559  0.1740  0.1465 -0.5388
  802MOL0     C 5748  -0.797   5.521   3.664 -0.0413 -0.8327  0.5854
  802MOL0     N 5749  -0.917   5.581   3.610  0.2244 -0.6658  0.0180
  802MOL0     C 5750  -0.976   5.667   3.694  0.0012 -0.1734 -0.0702
  802MOL0     C 5751  -1.087   5.714   3.621 -0.2388  0.6623 -0.7604
  802MOL0     C 5752  -1.200   5.805   3.662 -0.0294  0.0525 -0.5587
  802MOL0     C 5753  -1.317   5.724   3.728  0.3712 -0.1279  0.5572
  802MOL0     C 5754  -1.402   5.647   3.623  0.5839 -0.0946  0.6097
  802MOL0     C 5755  -1.526   5.596   3.699 -0.4885 -0.2300 -0.1281
  802MOL0     O 5756  -1.616   5.520   3.613 -0.9526 -0.1888 -0.1212
  802MOL0     C 5757  -1.747   5.513   3.643 -0.0864  0.3864  0.4813
  802MOL0     C 5758  -1.826   5.454   3.545 -0.0934  0.4588  0.2293
  802MOL0     C 5759  -1.960   5.438   3.563  0.1397  0.2258  0.1368
  802MOL0     C 5760  -2.021   5.491   3.668 -0.1053 -0.1814  0.4721
  802MOL0     C 5761  -2.168   5.480   3.675 -1.8083 -0.2056 -0.3002
  802MOL0     O 5762  -2.222   5.538   3.790  0.3678  0.2353  0.8496
  802MOL0     C 5763  -2.363   5.552   3.781  0.7569 -0.2052 -0.2402
  802MOL0     C 5764  -2.446   5.471   3.859 -0.6670 -1.2315  0.6222
  802MOL0     C 5765  -2.582   5.481   3.847 -0.3698  0.4965  0.5745
  802MOL0     C 5766  -2.645   5.549   3.743 -0.2292  0.4687  0.2758
  802MOL0     O 5767  -2.785   5.553   3.734 -0.2442  0.8543 -0.3161
  802MOL0     C 5768  -2.855   5.669   3.699 -0.1074  0.2790 -0.0393
  802MOL0     C 5769  -2.974   5.674   3.798  0.3969 -0.2533 -0.5828
  802MOL0     C 5770  -2.918   5.721   3.935  0.0807  0.1409 -0.9059
  802MOL0     C 5771  -3.029   5.731   4.033 -0.2214 -0.8679 -0.8381
  802MOL0     C 5772  -2.954   5.766   4.161 -0.2529 -0.9707 -1.2239
  802MOL0     C 5773  -3.060   5.822   4.266  0.0434  0.9352  0.0501
  802MOL0     C 5774  -2.998   5.898   4.389  0.6588  0.3009  0.3293
  802MOL0     C 5775  -2.901   5.804   4.467 -0.8035  0.8818 -0.5291
  802MOL0    Cl 5776  -2.912   5.860   4.643  0.2227  0.3020  0.2859
  802MOL0     C 5777  -2.559   5.608   3.647  0.6121  0.5198  0.2262
  802MOL0     C 5778  -2.420   5.624   3.672  0.2739  1.2960  0.0510
  802MOL0     O 5779  -2.233   5.415   3.592 -0.4723 -0.2412 -0.4841
  802MOL0     C 5780  -1.944   5.561   3.768  0.3919  0.0242 -0.1679
  802MOL0     C 5781  -1.807   5.560   3.759 -0.5015 -0.2177  0.7272
  802MOL0     N 5782  -1.084   5.646   3.497 -0.0531 -0.9567  0.3327
  802MOL0     N 5783  -0.982   5.566   3.494  0.5106 -0.5205 -0.0878
  802MOL0     C 5784  -0.006   5.634   2.778 -0.6862  0.2956  0.7064
  802MOL0     C 5785   0.112   5.642   2.709 -0.6818  0.5723 -0.1740
  802MOL0     C 5786   0.496   5.770   2.568 -0.1688  0.6705  0.0189
  802MOL0     C 5787   0.562   5.653   2.531 -0.5250 -0.0060  0.2490
  802MOL0     C 5788   0.685   5.656   2.462  0.3166 -0.0915 -0.4172
  802MOL0     C 5789   0.734   5.780   2.433 -0.5553 -1.0413 -0.1796
  802MOL0     O 5790   0.857   5.806   2.369 -0.5262 -0.0317  0.8812
  802MOL0     C 5791   0.893   5.763   2.235  0.0487 -0.3981 -0.2988
  802MOL0     C 5792   1.018   5.679   2.217  0.8079  0.0902 -0.4457
  802MOL0     C 5793   0.982   5.533   2.256 -0.1670  0.0685  0.4476
  802MOL0     C 5794   1.036   5.503   2.393  0.6172  0.0968 -0.6084
  802MOL0     C 5795   0.948   5.398   2.449  0.7887 -0.2327 -0.1302
  802MOL0     C 5796   0.873   5.317   2.499  0.8857 -0.9262 -0.1614
  802MOL0     C 5797   0.677   5.897   2.483  0.9558 -0.6737 -0.6963
  802MOL0     C 5798   0.555   5.894   2.552  0.2675 -0.4922  0.9416
  802MOL0     H 5799   0.308   5.653   2.986  0.1651  2.9007  0.9561
  802MOL0     H 5800   0.096   5.644   3.107 -1.1378  0.3498  0.4911
  802MOL0     H 5801  -0.146   5.706   3.136  1.8686 -1.5343 -0.4533
  802MOL0     H 5802  -0.144   5.534   3.165  2.6877  2.6703  1.5501
  802MOL0     H 5803  -0.370   5.505   3.113  0.3787 -1.4011  0.9089
  802MOL0     H 5804  -0.388   5.675   3.055 -0.2906 -1.1972  0.6185
  802MOL0     H 5805  -0.346   5.778   3.256 -1.6964 -0.3951 -0.0433
  802MOL0     H 5806  -0.308   5.630   3.342 -1.1269 -0.3313 -0.5479
  802MOL0     H 5807  -0.570   5.732   3.302  2.0870  1.6972 -0.5184
  802MOL0     H 5808  -0.573   5.589   3.201 -2.8322  0.1414  2.1405
  802MOL0     H 5809  -0.474   5.614   3.476  1.5515  3.0023 -3.8549
  802MOL0     H 5810  -0.493   5.451   3.395 -0.8866 -0.2778  2.9858
  802MOL0     H 5811  -0.724   5.518   3.347  1.6263 -0.6369 -0.6223
  802MOL0     H 5812  -0.720   5.659   3.461 -0.7141 -0.9239  1.9604
  802MOL0     H 5813  -0.744   5.380   3.511  0.1176  0.9276 -2.0450
  802MOL0     H 5814  -0.611   5.461   3.610  1.2289 -1.8515 -2.7315
  802MOL0     H 5815  -0.737   5.597   3.715  1.0994 -0.9165 -0.5740
  802MOL0     H 5816  -0.820   5.442   3.736  1.3486 -2.2048 -0.4111
  802MOL0     H 5817  -0.953   5.681   3.799 -0.4617 -0.3614  0.0583
  802MOL0     H 5818  -1.234   5.845   3.566 -0.7944  0.0174 -0.3091
  802MOL0     H 5819  -1.166   5.875   3.739 -2.2860  3.3944 -2.3812
  802MOL0     H 5820  -1.377   5.796   3.783 -2.0072 -0.3768 -1.5376
  802MOL0     H 5821  -1.272   5.651   3.796 -1.3390  1.5901  3.7782
  802MOL0     H 5822  -1.425   5.721   3.546  1.5549 -0.3051  0.1130
  802MOL0     H 5823  -1.343   5.558   3.600 -1.6084 -1.4307 -0.1030
  802MOL0     H 5824  -1.591   5.679   3.730 -0.2816 -0.0668 -0.1304
  802MOL0     H 5825  -1.486   5.537   3.782 -1.2992 -1.6985 -0.7334
  802MOL0     H 5826  -1.789   5.416   3.450 -1.0220 -0.5046  0.2412
  802MOL0     H 5827  -2.010   5.391   3.479  2.2408  0.7873 -1.5232
  802MOL0     H 5828  -2.399   5.413   3.938 -0.5458  0.4812  1.8747
  802MOL0     H 5829  -2.642   5.420   3.913  0.6183 -0.9305  0.1918
  802MOL0     H 5830  -2.883   5.667   3.594  0.3968  3.6263 -0.3407
  802MOL0     H 5831  -2.788   5.755   3.709  0.2421  0.0217 -0.1216
  802MOL0     H 5832  -3.021   5.576   3.793 -1.1384  0.5266 -2.7528
  802MOL0     H 5833  -3.052   5.740   3.760  0.2933  0.5562  0.9505
  802MOL0     H 5834  -2.866   5.818   3.932  0.9612 -0.0815  2.9253
  802MOL0     H 5835  -2.846   5.653   3.982  0.7679  1.2717 -0.2720
  802MOL0     H 5836  -3.087   5.819   4.005 -0.2836 -0.0904  1.4768
  802MOL0     H 5837  -3.097   5.646   4.043 -0.6408 -0.5392 -0.8865
  802MOL0     H 5838  -2.874   5.839   4.146 -0.8238 -0.6178 -2.6480
  802MOL0     H 5839  -2.907   5.677   4.203  2.7439  0.5339 -1.0865
  802MOL0     H 5840  -3.109   5.737   4.314  2.6627 -2.1395 -2.3348
  802MOL0     H 5841  -3.143   5.877   4.220 -1.4025  0.8723  2.4235
  802MOL0     H 5842  -2.946   5.992   4.373 -1.2101  1.2334 -0.4976
  802MOL0     H 5843  -3.082   5.919   4.456 -0.0048  1.8906 -0.9496
  802MOL0     H 5844  -2.809   5.821   4.411 -1.3111 -0.0453 -1.6916
  802MOL0     H 5845  -2.921   5.696   4.467  2.2931  0.1137  2.2897
  802MOL0     H 5846  -2.592   5.651   3.553  1.0860  1.3664  0.4405
  802MOL0     H 5847  -2.357   5.661   3.591  0.0617 -2.3039 -1.9316
  802MOL0     H 5848  -1.997   5.603   3.853  0.0601  0.0844 -0.4016
  802MOL0     H 5849  -1.748   5.600   3.842 -1.2243 -0.6486  1.4697
  802MOL0     H 5850  -0.099   5.619   2.723 -0.3690  2.1562 -0.4286
  802MOL0     H 5851   0.122   5.623   2.602 -2.5177  0.3750 -0.3424
  802MOL0     H 5852   0.529   5.551   2.545  1.8920 -0.9343 -0.3002
  802MOL0     H 5853   0.732   5.560   2.445 -0.7767 -0.4782 -1.4356
  802MOL0     H 5854   0.923   5.856   2.186  0.4450  0.1794  0.9688
  802MOL0     H 5855   0.814   5.722   2.173 -0.6960 -0.1942  0.4930
  802MOL0     H 5856   1.055   5.679   2.114 -1.9042  0.5796 -1.5065
  802MOL0     H 5857   1.099   5.709   2.283 -0.0198  1.0032  0.1930
  802MOL0     H 5858   1.029   5.467   2.183  0.3420  1.7488 -0.8085
  802MOL0     H 5859   0.873   5.526   2.248 -0.1861  0.0975  0.6781
  802MOL0     H 5860   1.134   5.457   2.379  0.5922 -0.0831 -0.1977
  802MOL0     H 5861   1.055   5.593   2.452  0.9433 -0.5075  0.2319
  802MOL0     H 5862   0.803   5.242   2.530 -0.6203 -0.0697 -1.3645
  802MOL0     H 5863   0.733   5.988   2.463  2.6075 -1.1293  1.5053
  802MOL0     H 5864   0.510   5.979   2.603  1.9199  0.6751  0.5211
  803MOL0     O 5865   5.353   0.952  10.907  0.2211 -0.5611 -0.5435
  803MOL0     C 5866   5.416   1.039  10.846  0.4685  0.1891 -0.0627
  803MOL0     O 5867   5.355   1.139  10.772  0.5955  0.6577 -0.0395
  803MOL0     C 5868   5.224   1.153  10.783 -0.7995 -0.0477 -0.7144
  803MOL0     C 5869   5.159   1.101  10.673  0.3544  0.8613 -0.2751
  803MOL0     C 5870   5.018   1.090  10.680 -0.4857 -0.5784 -0.1210
  803MOL0     C 5871   4.952   1.151  10.795 -0.1479 -0.1730 -0.4136
  803MOL0     O 5872   4.816   1.173  10.800 -0.5116  0.3256 -0.4779
  803MOL0     C 5873   4.776   1.309  10.775  0.3921  0.5465  0.3488
  803MOL0     C 5874   4.786   1.355  10.632 -0.0555 -0.5021  0.1758
  803MOL0     C 5875   4.705   1.473  10.600  0.0248 -1.0128  0.0273
  803MOL0     C 5876   4.727   1.525  10.457 -0.5225  0.2958 -0.1247
  803MOL0     C 5877   4.615   1.617  10.412 -0.3658  0.1686 -1.2403
  803MOL0     C 5878   4.627   1.628  10.262  0.3394  0.2663  0.0103
  803MOL0     C 5879   4.530   1.737  10.210 -1.3217  0.8820  0.0160
  803MOL0     C 5880   4.378   1.710  10.227  0.3318 -0.9461 -0.7317
  803MOL0     N 5881   4.302   1.836  10.217  0.1529  0.2729  0.0179
  803MOL0     C 5882   4.209   1.867  10.128  0.0517 -0.2488  0.4059
  803MOL0     C 5883   4.140   1.971  10.176  0.2119  0.1387  0.0158
  803MOL0     C 5884   4.017   2.018  10.101 -0.7133 -0.3283  0.3740
  803MOL0     C 5885   3.905   1.919  10.132 -0.9946  0.4027 -0.0801
  803MOL0     C 5886   3.778   1.993  10.106  0.5294  0.0493  0.6780
  803MOL0     C 5887   3.662   1.906  10.146  0.0522  0.2937  1.4865
  803MOL0     O 5888   3.537   1.972  10.114  0.4788  0.4242 -0.0809
  803MOL0     C 5889   3.430   1.907  10.057 -0.9398  0.1888  0.0080
  803MOL0     C 5890   3.428   1.766  10.046  0.1853 -0.4930 -0.0356
  803MOL0     C 5891   3.314   1.702   9.998 -0.6587  0.4239 -0.1431
  803MOL0     C 5892   3.202   1.771   9.965  0.2692 -0.5698  0.1909
  803MOL0     C 5893   3.076   1.692   9.941 -1.3176  0.9418 -0.2536
  803MOL0     O 5894   3.068   1.566   9.999  0.9455 -0.8514 -0.5376
  803MOL0     C 5895   2.952   1.497   9.993  0.6292  0.4878  0.4282
  803MOL0     C 5896   2.853   1.522  10.096  0.4043 -0.3338 -1.1677
  803MOL0     C 5897   2.737   1.431  10.095 -0.1707  0.1516  0.2670
  803MOL0     C 5898   2.716   1.342   9.985 -0.0482 -0.9481  0.2621
  803MOL0     O 5899   2.605   1.263   9.970 -0.5069 -0.5347 -0.3242
  803MOL0     C 5900   2.479   1.316  10.034  0.7390  0.2357 -0.4863
  803MOL0     C 5901   2.367   1.230   9.980 -0.7707  0.0745 -0.8872
  803MOL0     C 5902   2.229   1.277  10.017 -0.8578  0.2281  1.0489
  803MOL0     C 5903   2.199   1.225  10.157  0.0720  0.6455 -0.3417
  803MOL0     C 5904   2.075   1.277  10.222  0.2106  0.3696 -0.0139
  803MOL0     C 5905   1.946   1.253  10.134  0.0961  1.1768  0.8828
  803MOL0     C 5906   1.827   1.331  10.206 -0.2021 -0.2921  0.4340
  803MOL0     C 5907   1.787   1.261  10.342  0.3231  0.0779 -0.0905
  803MOL0    Cl 5908   1.721   1.099  10.314  0.2478 -0.0489 -0.4040
  803MOL0     C 5909   2.819   1.328   9.892 -0.5166 -0.8720 -0.2462
  803MOL0     C 5910   2.930   1.404   9.885 -0.5637 -0.5424  0.6189
  803MOL0     O 5911   2.992   1.747   9.881  0.9771 -0.2711 -0.5351
  803MOL0     C 5912   3.208   1.912   9.971 -0.1743  0.6836  0.9352
  803MOL0     C 5913   3.325   1.979  10.019 -0.7882 -0.4324 -0.3073
  803MOL0     N 5914   4.199   2.008  10.296 -0.4467 -0.3570 -0.2462
  803MOL0     N 5915   4.295   1.928  10.316  0.2969 -1.2897 -0.3299
  803MOL0     C 5916   5.025   1.190  10.907  0.7122 -0.9512  0.4478
  803MOL0     C 5917   5.163   1.189  10.897  0.1317  0.2561 -1.1327
  803MOL0     C 5918   5.564   1.029  10.818  0.0231 -0.3383  0.2267
  803MOL0     C 5919   5.638   1.146  10.779  0.0240  0.9076  0.0951
  803MOL0     C 5920   5.767   1.134  10.741  0.2049 -0.7505  0.8295
  803MOL0     C 5921   5.836   1.013  10.740  1.0792  0.4552  0.1843
  803MOL0     O 5922   5.966   0.996  10.695 -0.3256  0.0982 -0.7129
  803MOL0     C 5923   5.997   1.081  10.579 -0.1615  0.6352 -0.4138
  803MOL0     C 5924   6.096   0.994  10.496 -0.3119 -0.0910 -0.1994
  803MOL0     C 5925   6.219   0.948  10.583  0.2811  0.3770 -0.1387
  803MOL0     C 5926   6.340   0.897  10.502 -0.2349 -0.1301  0.4740
  803MOL0     C 5927   6.421   0.994  10.426  0.0703 -0.0092  0.9142
  803MOL0     C 5928   6.480   1.083  10.365  0.3939  0.0766 -0.6799
  803MOL0     C 5929   5.766   0.897  10.785  0.4201 -0.5297 -1.4783
  803MOL0     C 5930   5.627   0.907  10.823  0.5569 -0.1302  0.8014
  803MOL0     H 5931   5.198   1.069  10.577 -2.5047 -1.4403 -0.8207
  803MOL0     H 5932   4.951   1.057  10.601 -1.5612 -2.1837  1.3883
  803MOL0     H 5933   4.834   1.377  10.837 -1.3679  2.2095  0.2828
  803MOL0     H 5934   4.675   1.328  10.811  0.2297  1.0305 -0.3369
  803MOL0     H 5935   4.756   1.276  10.561 -0.7993 -0.2047  0.1490
  803MOL0     H 5936   4.889   1.378  10.605 -0.3398  0.3501 -0.2027
  803MOL0     H 5937   4.724   1.544  10.682 -0.7113 -2.6304  1.6573
  803MOL0     H 5938   4.600   1.442  10.604 -0.3954 -0.0603 -2.1399
  803MOL0     H 5939   4.826   1.569  10.443 -0.7848  1.0452  0.3639
  803MOL0     H 5940   4.726   1.435  10.394  0.3807  0.7437 -0.7949
  803MOL0     H 5941   4.629   1.720  10.446  1.7691  0.4951 -2.8836
  803MOL0     H 5942   4.521   1.568  10.438 -1.4188  1.8163 -1.7829
  803MOL0     H 5943   4.607   1.537  10.204 -1.7673  0.1534  0.8246
  803MOL0     H 5944   4.729   1.648  10.231  0.4179  0.4511  0.3859
  803MOL0     H 5945   4.555   1.825  10.271  0.1860 -1.0927  2.4755
  803MOL0     H 5946   4.551   1.746  10.103  3.0134 -0.8480  0.5414
  803MOL0     H 5947   4.357   1.658  10.321 -3.0744  0.1785 -0.7517
  803MOL0     H 5948   4.347   1.645  10.144  0.0440 -1.3643 -0.3015
  803MOL0     H 5949   4.182   1.812  10.038 -1.9096  3.1820 -1.3149
  803MOL0     H 5950   4.044   2.030   9.996  2.2934 -0.6520  1.0322
  803MOL0     H 5951   3.998   2.122  10.130  2.7697  0.8391 -0.9823
  803MOL0     H 5952   3.915   1.897  10.238  3.1783 -0.3059 -0.4532
  803MOL0     H 5953   3.898   1.823  10.079 -3.5926 -0.4602  1.6641
  803MOL0     H 5954   3.768   2.084  10.166 -3.3493 -0.6077  1.3035
  803MOL0     H 5955   3.776   2.004   9.997 -2.1831  1.0119  0.7632
  803MOL0     H 5956   3.675   1.900  10.255  1.1241  2.8382  1.5641
  803MOL0     H 5957   3.676   1.809  10.098  0.0871  0.6047  0.8598
  803MOL0     H 5958   3.500   1.694  10.085  1.1791  0.3070 -0.3718
  803MOL0     H 5959   3.319   1.595  10.013  3.4256  0.3076 -1.1557
  803MOL0     H 5960   2.863   1.591  10.179 -1.1091 -1.7182  0.2465
  803MOL0     H 5961   2.672   1.442  10.181 -1.2775  0.5975 -0.6024
  803MOL0     H 5962   2.473   1.418   9.994  0.5239  0.6594  0.5888
  803MOL0     H 5963   2.479   1.315  10.143  1.2334  0.5514 -0.4829
  803MOL0     H 5964   2.376   1.126  10.011 -2.4110  0.4345  1.0695
  803MOL0     H 5965   2.375   1.232   9.871  2.5741  2.1832 -0.7644
  803MOL0     H 5966   2.151   1.234   9.954 -0.6680 -0.7990  1.4949
  803MOL0     H 5967   2.237   1.386  10.014  0.9040  0.0902 -0.9451
  803MOL0     H 5968   2.195   1.116  10.153  1.7602  0.5954 -2.1657
  803MOL0     H 5969   2.279   1.243  10.229 -0.4402  0.0952  0.3772
  803MOL0     H 5970   2.093   1.384  10.234  0.4335  0.3533 -0.1937
  803MOL0     H 5971   2.083   1.236  10.323  0.7412  1.8677  0.5743
  803MOL0     H 5972   1.926   1.145  10.135  2.7429  0.5323 -1.7774
  803MOL0     H 5973   1.965   1.303  10.039  1.4417 -0.2843  0.3437
  803MOL0     H 5974   1.862   1.433  10.221  1.9479 -1.3363  3.7571
  803MOL0     H 5975   1.737   1.331  10.144  0.2070 -0.3603 -0.1723
  803MOL0     H 5976   1.714   1.326  10.391 -0.0898  0.2507 -0.9210
  803MOL0     H 5977   1.874   1.246  10.407  1.2158 -1.2487 -1.4998
  803MOL0     H 5978   2.801   1.254   9.814 -2.5431  0.6690 -1.3653
  803MOL0     H 5979   3.010   1.402   9.812  0.9761 -0.3742  2.2172
  803MOL0     H 5980   3.124   1.978   9.951 -0.8271 -0.4534 -0.3463
  803MOL0     H 5981   3.337   2.085  10.036  1.9699 -0.7349  0.0289
  803MOL0     H 5982   4.972   1.229  10.993  6.4886  4.1706  2.3955
  803MOL0     H 5983   5.220   1.214  10.986 -2.3119  0.1315  0.5458
  803MOL0     H 5984   5.589   1.243  10.786 -0.5587  0.7948 -1.8189
  803MOL0     H 5985   5.820   1.224  10.714 -1.7884 -0.0339 -1.0379
  803MOL0     H 5986   6.054   1.169  10.612  1.0059  0.8088 -2.6907
  803MOL0     H 5987   5.916   1.117  10.515 -0.7423  2.4587  1.2295
  803MOL0     H 5988   6.054   0.909  10.442 -0.5407  0.3478 -0.7142
  803MOL0     H 5989   6.126   1.066  10.420 -1.4423 -0.3736 -0.9267
  803MOL0     H 5990   6.200   0.859  10.644  0.3915  0.4578  0.0126
  803MOL0     H 5991   6.253   1.033  10.642 -0.0594  0.8164 -0.5569
  803MOL0     H 5992   6.397   0.849  10.582 -1.4858 -0.2173  1.3319
  803MOL0     H 5993   6.305   0.822  10.430 -1.2622 -0.2123  1.0431
  803MOL0     H 5994   6.516   1.171  10.315 -0.0125  0.2905 -0.5999
  803MOL0     H 5995   5.803   0.797  10.805 -1.3537 -1.4969 -2.7571
  803MOL0     H 5996   5.573   0.820  10.860 -1.0693 -0.2259 -1.5838
  804MOL0     O 5997   9.871   5.963  11.039 -0.0905  0.0102  0.5536
  804MOL0     C 5998   9.906   5.846  11.046 -0.9617 -0.0471 -0.7163
  804MOL0     O 5999   9.831   5.749  11.098  0.0175 -0.3347 -1.0711
  804MOL0     C 6000   9.693   5.766  11.119  0.5409  0.4206  0.3854
  804MOL0     C 6001   9.616   5.857  11.037 -0.3665 -0.0957 -0.2157
  804MOL0     C 6002   9.478   5.862  11.059 -0.3257  0.0766 -0.8204
  804MOL0     C 6003   9.420   5.794  11.168 -0.5906 -0.1681 -0.7826
  804MOL0     O 6004   9.291   5.803  11.198 -0.5201  0.9834  0.3004
  804MOL0     C 6005   9.245   5.937  11.192  0.1857  0.0520 -0.0893
  804MOL0     C 6006   9.096   5.956  11.241  0.7864 -0.3685  0.3275
  804MOL0     C 6007   9.014   5.856  11.158  0.3459  1.0314  1.0449
  804MOL0     C 6008   9.012   5.884  11.007  0.3071  0.1040 -0.7492
  804MOL0     C 6009   8.913   5.783  10.942  0.0967 -0.3592 -0.0952
  804MOL0     C 6010   8.763   5.811  10.985 -0.8521  0.6454  0.1094
  804MOL0     C 6011   8.674   5.727  10.896 -0.2211 -0.0007  0.0129
  804MOL0     C 6012   8.533   5.712  10.951  0.6953  0.1527  0.5194
  804MOL0     N 6013   8.477   5.837  10.992  0.1006  0.3257 -0.0295
  804MOL0     C 6014   8.452   5.942  10.904  0.3498  0.7432  0.2613
  804MOL0     C 6015   8.379   6.033  10.977  0.9456 -0.2348 -0.5771
  804MOL0     C 6016   8.352   6.169  10.930  0.1322 -0.2274  0.1947
  804MOL0     C 6017   8.199   6.182  10.936  0.2071  0.7414 -0.5121
  804MOL0     C 6018   8.152   6.330  10.940  0.0990  0.0764  0.5015
  804MOL0     C 6019   8.019   6.346  11.007  0.0070 -0.0499 -0.0430
  804MOL0     O 6020   7.912   6.302  10.920  1.1278 -0.2428  0.1530
  804MOL0     C 6021   7.782   6.311  10.959  0.0995 -0.0953  0.2391
  804MOL0     C 6022   7.733   6.390  11.073 -0.5347 -0.4622 -0.6079
  804MOL0     C 6023   7.599   6.372  11.104  0.1937  1.8181 -0.5206
  804MOL0     C 6024   7.508   6.282  11.033 -0.5945  0.8488 -0.1313
  804MOL0     C 6025   7.360   6.284  11.069 -0.0912  0.5680 -0.0035
  804MOL0     O 6026   7.283   6.181  11.011  0.7270 -0.5172 -0.0363
  804MOL0     C 6027   7.148   6.185  11.057  0.4508  0.0059 -0.4141
  804MOL0     C 6028   7.051   6.235  10.973 -0.3017  0.0124 -0.7076
  804MOL0     C 6029   6.916   6.230  11.010 -0.4472 -0.3605 -0.0638
  804MOL0     C 6030   6.882   6.179  11.139  0.1193 -0.3684 -0.7288
  804MOL0     O 6031   6.748   6.173  11.175 -0.1832 -0.2033 -0.2340
  804MOL0     C 6032   6.703   6.084  11.281 -0.4266  0.4812  0.7587
  804MOL0     C 6033   6.558   6.082  11.304  0.3498  0.3030  0.2455
  804MOL0     C 6034   6.480   6.033  11.187 -0.6104 -0.2529 -0.3774
  804MOL0     C 6035   6.349   5.958  11.218 -0.6426  0.4272  0.0925
  804MOL0     C 6036   6.277   5.920  11.087  0.4333  0.5294 -0.7754
  804MOL0     C 6037   6.132   5.890  11.132 -0.2146 -0.3786 -1.0770
  804MOL0     C 6038   6.040   5.879  11.013 -0.2039 -0.5777 -0.2915
  804MOL0     C 6039   5.898   5.853  11.055  0.3307  0.0645  0.2002
  804MOL0    Cl 6040   5.810   5.847  10.901  0.2881 -0.1031  0.3477
  804MOL0     C 6041   6.982   6.142  11.228  0.5608  0.4154 -0.9422
  804MOL0     C 6042   7.118   6.141  11.193  0.2219 -0.7455 -0.1298
  804MOL0     O 6043   7.322   6.364  11.159  0.6862  0.4263  0.8725
  804MOL0     C 6044   7.561   6.209  10.919 -0.5742 -0.3979 -0.8407
  804MOL0     C 6045   7.700   6.230  10.887 -0.3172 -0.2966  0.1893
  804MOL0     N 6046   8.341   5.971  11.087 -0.6043 -0.7222  0.3068
  804MOL0     N 6047   8.399   5.850  11.105 -0.9135 -0.0445 -0.4748
  804MOL0     C 6048   9.493   5.704  11.243  0.2841  0.6152 -0.1040
  804MOL0     C 6049   9.637   5.688  11.222  0.4601 -0.3821  0.1526
  804MOL0     C 6050  10.026   5.810  10.966  0.5480  1.5479 -0.4505
  804MOL0     C 6051  10.054   5.670  10.959  0.7116 -1.2659 -0.2950
  804MOL0     C 6052  10.173   5.628  10.899  0.9756  1.0359  0.5709
  804MOL0     C 6053  10.260   5.710  10.838  0.1962  0.2609 -0.6913
  804MOL0     O 6054  10.372   5.648  10.785  0.4865 -0.4107 -0.3301
  804MOL0     C 6055  10.466   5.729  10.714  0.8148 -0.3149 -0.4715
  804MOL0     C 6056  10.549   5.637  10.622 -0.2762 -0.6956  0.1424
  804MOL0     C 6057  10.667   5.712  10.553 -0.0555 -0.1676  0.1424
  804MOL0     C 6058  10.713   5.655  10.420 -0.5506 -0.3683  0.5391
  804MOL0     C 6059  10.627   5.700  10.307 -0.6924 -0.2147 -0.4921
  804MOL0     C 6060  10.556   5.725  10.214  0.2796  0.3649  0.1709
  804MOL0     C 6061  10.235   5.851  10.850 -0.8530  0.3329  0.6082
  804MOL0     C 6062  10.118   5.896  10.908 -0.5134 -0.0326 -0.2755
  804MOL0     H 6063   9.661   5.915  10.957 -3.2755 -0.3022 -2.1632
  804MOL0     H 6064   9.422   5.926  10.990  0.3625 -2.3369 -3.8330
  804MOL0     H 6065   9.256   5.972  11.089  0.9190  4.2050  1.2050
  804MOL0     H 6066   9.316   6.001  11.244  1.2650  0.6982 -2.2458
  804MOL0     H 6067   9.064   6.059  11.226 -2.0856 -0.9060  2.1240
  804MOL0     H 6068   9.087   5.935  11.348 -2.2659 -3.7725 -0.3990
  804MOL0     H 6069   8.913   5.851  11.200 -0.2250  0.2341 -0.3497
  804MOL0     H 6070   9.048   5.754  11.174 -3.1012 -0.0428  2.3232
  804MOL0     H 6071   8.982   5.988  10.990 -0.3492  0.1680  0.6225
  804MOL0     H 6072   9.114   5.871  10.971  0.7720  1.1421  0.1167
  804MOL0     H 6073   8.931   5.677  10.961 -3.7098 -0.8780  1.5125
  804MOL0     H 6074   8.929   5.800  10.835  0.2814 -1.6973 -0.2937
  804MOL0     H 6075   8.754   5.919  10.970  0.4859  0.6461 -0.9484
  804MOL0     H 6076   8.750   5.774  11.087 -1.1667  2.8586  0.9447
  804MOL0     H 6077   8.680   5.773  10.797  1.3346  0.9884  0.5255
  804MOL0     H 6078   8.700   5.621  10.888  0.0176 -0.2166  2.8042
  804MOL0     H 6079   8.536   5.638  11.032 -4.7096 -2.7129 -1.3858
  804MOL0     H 6080   8.471   5.672  10.870  3.1358  0.5368 -1.6731
  804MOL0     H 6081   8.468   5.952  10.797  0.5863 -1.6162  0.0197
  804MOL0     H 6082   8.394   6.191  10.831 -0.6154  2.8859  0.4582
  804MOL0     H 6083   8.390   6.231  11.012 -1.9200 -0.4482  1.3793
  804MOL0     H 6084   8.172   6.131  11.029 -0.5971  2.6841  0.3860
  804MOL0     H 6085   8.155   6.137  10.847  1.4306  1.1666 -1.3680
  804MOL0     H 6086   8.226   6.371  11.010 -1.0115 -1.7625  2.8927
  804MOL0     H 6087   8.154   6.373  10.840  1.9509  0.3263  0.6132
  804MOL0     H 6088   8.003   6.450  11.035 -1.4934 -0.5402  1.0419
  804MOL0     H 6089   8.017   6.294  11.103  1.8540  0.6514  0.4299
  804MOL0     H 6090   7.785   6.461  11.136  2.3923 -2.1689 -0.9262
  804MOL0     H 6091   7.559   6.423  11.191 -3.5559  0.2941 -1.1554
  804MOL0     H 6092   7.066   6.266  10.871  0.2396  0.0848 -0.6103
  804MOL0     H 6093   6.841   6.260  10.937 -1.4261 -2.4542  0.0008
  804MOL0     H 6094   6.755   6.108  11.374 -1.6594 -1.1588  1.9253
  804MOL0     H 6095   6.727   5.982  11.250 -1.1698  0.6569 -0.4720
  804MOL0     H 6096   6.539   6.189  11.317  1.1914  0.7209 -1.6022
  804MOL0     H 6097   6.532   6.025  11.394 -1.0038  1.2106  0.4648
  804MOL0     H 6098   6.544   5.966  11.130 -0.5398 -1.2990  0.8925
  804MOL0     H 6099   6.458   6.120  11.124 -1.3084  0.3620  0.6893
  804MOL0     H 6100   6.378   5.872  11.279 -0.8796 -0.0410 -0.4409
  804MOL0     H 6101   6.285   6.009  11.290 -1.8416 -1.1404  0.2074
  804MOL0     H 6102   6.330   5.847  11.025  2.6671 -0.0129  1.5786
  804MOL0     H 6103   6.277   6.008  11.022  1.7061  0.8357 -0.3933
  804MOL0     H 6104   6.093   5.968  11.198  0.6241 -0.6799 -0.2053
  804MOL0     H 6105   6.144   5.800  11.192 -0.4009  0.9018  0.9707
  804MOL0     H 6106   6.040   5.977  10.966 -1.9512  0.7496  2.2111
  804MOL0     H 6107   6.075   5.800  10.946  3.2669  0.0336  0.5893
  804MOL0     H 6108   5.857   5.929  11.122 -1.7432 -1.5763  0.9277
  804MOL0     H 6109   5.889   5.757  11.107  0.8385  0.7209  1.5429
  804MOL0     H 6110   6.959   6.111  11.329 -1.5712  1.5912 -1.0046
  804MOL0     H 6111   7.204   6.107  11.250 -0.5019 -3.7288 -0.6257
  804MOL0     H 6112   7.499   6.143  10.858 -2.4977  1.1597 -0.6718
  804MOL0     H 6113   7.752   6.177  10.808  0.2424  0.1246  0.2587
  804MOL0     H 6114   9.440   5.642  11.316  3.2202 -0.5557  1.1867
  804MOL0     H 6115   9.699   5.628  11.288 -1.6779 -1.6077  1.1518
  804MOL0     H 6116   9.993   5.599  11.014 -1.9344  0.8871 -0.2369
  804MOL0     H 6117  10.180   5.520  10.892  1.2789  1.1233 -1.0048
  804MOL0     H 6118  10.529   5.784  10.784  1.8102 -1.4085 -0.4816
  804MOL0     H 6119  10.430   5.806  10.646  1.2770  1.3844  1.1077
  804MOL0     H 6120  10.588   5.559  10.687 -1.2604  0.6152  2.4428
  804MOL0     H 6121  10.493   5.585  10.544  2.6839  0.6970 -3.1769
  804MOL0     H 6122  10.752   5.719  10.622 -0.6072 -0.3942  0.8487
  804MOL0     H 6123  10.632   5.813  10.530 -1.6917 -0.3188  1.7884
  804MOL0     H 6124  10.820   5.671  10.404 -0.4753 -2.7190 -2.3017
  804MOL0     H 6125  10.697   5.547  10.414  0.2575 -0.4242 -1.5526
  804MOL0     H 6126  10.503   5.740  10.122 -1.4696 -0.0381  1.0760
  804MOL0     H 6127  10.305   5.925  10.814  2.9488 -1.9672  2.6146
  804MOL0     H 6128  10.110   6.004  10.911 -0.9774 -0.0652 -0.3691
  805MOL0     O 6129   2.276   5.908   6.272  0.5013  0.1750  0.6533
  805MOL0     C 6130   2.202   6.003   6.308  0.3524  0.1159  1.2414
  805MOL0     O 6131   2.250   6.124   6.344  0.3176 -0.5339 -1.0717
  805MOL0     C 6132   2.377   6.143   6.371  1.0295 -0.4243  0.7586
  805MOL0     C 6133   2.439   6.250   6.299 -0.9400 -0.1713  0.3544
  805MOL0     C 6134   2.573   6.261   6.317 -0.5448 -0.0332 -0.2559
  805MOL0     C 6135   2.661   6.186   6.398 -0.5095 -0.0983 -0.4828
  805MOL0     O 6136   2.795   6.218   6.415 -0.2859  0.0042 -0.0592
  805MOL0     C 6137   2.823   6.348   6.471  0.4459  0.0910  0.7589
  805MOL0     C 6138   2.923   6.325   6.578 -0.2103 -0.1709  0.1089
  805MOL0     C 6139   3.060   6.314   6.522 -0.2946  0.2172  0.0969
  805MOL0     C 6140   3.155   6.289   6.648  0.3078  0.3736  0.1686
  805MOL0     C 6141   3.309   6.291   6.607 -0.3619  0.2081 -1.3119
  805MOL0     C 6142   3.383   6.428   6.579 -0.7006  0.7479  1.2353
  805MOL0     C 6143   3.540   6.410   6.573 -0.6026 -0.0083  0.4349
  805MOL0     C 6144   3.609   6.392   6.428  0.4609  0.4132  0.0571
  805MOL0     N 6145   3.559   6.277   6.358 -0.7653 -0.6869  0.6538
  805MOL0     C 6146   3.438   6.258   6.291  0.3124  0.5083 -0.1741
  805MOL0     C 6147   3.435   6.130   6.225 -0.6990 -0.2406 -0.3507
  805MOL0     C 6148   3.327   6.059   6.145 -0.8250 -0.8662 -0.1297
  805MOL0     C 6149   3.218   6.018   6.237  0.3481 -0.2767  0.3733
  805MOL0     C 6150   3.254   5.910   6.331 -0.1793 -0.3506 -0.1481
  805MOL0     C 6151   3.133   5.833   6.385  0.5231  0.5939 -0.4191
  805MOL0     O 6152   3.061   5.912   6.483  0.6491  0.4599 -0.1022
  805MOL0     C 6153   2.941   5.859   6.532 -0.2107  0.2193  0.3535
  805MOL0     C 6154   2.885   5.916   6.643  0.1861  0.0247  0.2496
  805MOL0     C 6155   2.765   5.871   6.697 -0.2181  0.2850  0.3249
  805MOL0     C 6156   2.707   5.767   6.629  0.0294  1.0033 -0.4323
  805MOL0     C 6157   2.569   5.737   6.665  0.1429 -0.2105  0.0668
  805MOL0     O 6158   2.519   5.617   6.608 -0.7888 -1.2181  0.2620
  805MOL0     C 6159   2.389   5.587   6.625  0.4310 -0.2818 -0.4310
  805MOL0     C 6160   2.361   5.475   6.709  0.5943 -0.2802 -0.4339
  805MOL0     C 6161   2.236   5.459   6.768  0.7458 -0.4362  0.1529
  805MOL0     C 6162   2.129   5.539   6.724 -0.2518  0.2035  0.4593
  805MOL0     O 6163   2.017   5.518   6.795  0.1895 -0.2487 -0.2201
  805MOL0     C 6164   1.912   5.603   6.798 -0.2507 -1.2294  0.6714
  805MOL0     C 6165   1.817   5.582   6.679  0.0593  0.3200  0.7437
  805MOL0     C 6166   1.777   5.443   6.646 -0.4353  0.8048  0.5495
  805MOL0     C 6167   1.660   5.390   6.738 -0.2447  0.2238 -0.3160
  805MOL0     C 6168   1.527   5.435   6.683 -0.4225 -0.0186  0.1855
  805MOL0     C 6169   1.431   5.412   6.793  0.1724  0.1342 -0.8531
  805MOL0     C 6170   1.280   5.440   6.771  0.3170  0.1745  0.2301
  805MOL0     C 6171   1.199   5.313   6.758 -0.5285 -0.2158  0.3088
  805MOL0    Cl 6172   1.220   5.229   6.598 -0.0456 -0.4841  0.1831
  805MOL0     C 6173   2.154   5.640   6.637 -0.1309  0.9556  0.3802
  805MOL0     C 6174   2.280   5.666   6.591 -0.6938  0.1797  0.4428
  805MOL0     O 6175   2.500   5.818   6.737 -0.6142  0.3656  0.2595
  805MOL0     C 6176   2.770   5.696   6.528  0.0379  0.1911 -0.1749
  805MOL0     C 6177   2.890   5.737   6.481  0.6429 -0.0811  0.0723
  805MOL0     N 6178   3.563   6.087   6.242 -0.5973 -0.4235  0.5613
  805MOL0     N 6179   3.635   6.175   6.310 -0.3191 -0.1814 -0.2716
  805MOL0     C 6180   2.594   6.101   6.478  0.7889  0.1157 -0.3090
  805MOL0     C 6181   2.452   6.069   6.470  0.0703 -0.2000 -0.0950
  805MOL0     C 6182   2.060   5.978   6.315 -0.2469  0.5664 -0.0340
  805MOL0     C 6183   1.970   6.084   6.334  0.2860  0.0622  0.4758
  805MOL0     C 6184   1.834   6.053   6.335 -0.2827 -0.3560 -0.3645
  805MOL0     C 6185   1.800   5.920   6.340  0.3376  0.0119  0.3241
  805MOL0     O 6186   1.669   5.886   6.318 -0.4033 -0.2787  0.2007
  805MOL0     C 6187   1.570   5.951   6.390  0.1755 -0.6364 -0.4228
  805MOL0     C 6188   1.451   5.863   6.414  0.0515 -0.5557  0.7465
  805MOL0     C 6189   1.370   5.845   6.285 -0.0422  0.7708  0.0192
  805MOL0     C 6190   1.254   5.751   6.297  1.4283  0.0132  0.6058
  805MOL0     C 6191   1.294   5.617   6.331  0.4524  0.3134  0.0244
  805MOL0     C 6192   1.314   5.506   6.354 -0.2462  1.1334 -0.1956
  805MOL0     C 6193   1.888   5.810   6.335  0.2823 -0.0407  0.3178
  805MOL0     C 6194   2.022   5.842   6.309  0.5609 -0.6697 -0.7975
  805MOL0     H 6195   2.393   6.303   6.216  1.0565  1.6830  0.3287
  805MOL0     H 6196   2.617   6.342   6.259  2.4059 -0.8233  0.6746
  805MOL0     H 6197   2.733   6.382   6.523  1.5866 -1.2863  3.8336
  805MOL0     H 6198   2.855   6.422   6.396  1.0185 -1.1638 -0.2757
  805MOL0     H 6199   2.891   6.234   6.630  1.7798 -0.6568  0.5676
  805MOL0     H 6200   2.931   6.412   6.644  2.1211 -1.4567  1.6789
  805MOL0     H 6201   3.098   6.388   6.452 -0.3120 -1.3080 -1.6130
  805MOL0     H 6202   3.054   6.222   6.462  0.4388 -1.5407  2.5571
  805MOL0     H 6203   3.148   6.353   6.736  2.6499 -1.0566  1.5226
  805MOL0     H 6204   3.139   6.190   6.691  2.4020  0.4384  1.2281
  805MOL0     H 6205   3.326   6.223   6.523 -2.3514  0.5262 -2.0269
  805MOL0     H 6206   3.348   6.252   6.702  0.5030 -1.5894 -2.3583
  805MOL0     H 6207   3.353   6.490   6.665 -0.0748 -0.0178  2.0286
  805MOL0     H 6208   3.346   6.474   6.487 -2.3199  0.4048  1.6839
  805MOL0     H 6209   3.581   6.501   6.618  0.0407  1.3357 -2.5696
  805MOL0     H 6210   3.573   6.327   6.635  0.6709 -0.9310 -1.3843
  805MOL0     H 6211   3.714   6.370   6.445  0.2726 -2.3683 -1.7251
  805MOL0     H 6212   3.594   6.485   6.372  0.5835  0.6652  0.4427
  805MOL0     H 6213   3.348   6.319   6.293  0.3689  0.6026 -0.4250
  805MOL0     H 6214   3.377   5.973   6.098  2.4712  0.2160  1.0676
  805MOL0     H 6215   3.293   6.125   6.064  0.7041  0.6028  0.3590
  805MOL0     H 6216   3.150   5.975   6.163 -0.6385  0.3061  0.9162
  805MOL0     H 6217   3.164   6.102   6.282  1.8006  1.2457 -0.6018
  805MOL0     H 6218   3.312   5.836   6.276  0.0705  1.3590 -2.2928
  805MOL0     H 6219   3.299   5.942   6.426 -0.3528 -2.1461  0.5934
  805MOL0     H 6220   3.166   5.743   6.439  1.2869  1.1663  0.0924
  805MOL0     H 6221   3.074   5.808   6.296 -0.2933  1.3979 -0.1197
  805MOL0     H 6222   2.919   6.004   6.697  1.4209 -0.1196 -0.2579
  805MOL0     H 6223   2.718   5.931   6.774 -0.1633 -0.9139  1.3268
  805MOL0     H 6224   2.438   5.404   6.738 -0.9322 -1.2990  1.3039
  805MOL0     H 6225   2.220   5.392   6.851  0.0175  0.9145  1.1311
  805MOL0     H 6226   1.945   5.707   6.790 -1.0750 -1.0385 -0.5732
  805MOL0     H 6227   1.849   5.596   6.888 -1.4944 -1.4263 -0.1791
  805MOL0     H 6228   1.872   5.614   6.590 -1.3148 -2.1575 -1.1130
  805MOL0     H 6229   1.731   5.649   6.684  0.9453  1.7473 -1.5990
  805MOL0     H 6230   1.864   5.379   6.665 -1.3099 -0.7856 -0.5990
  805MOL0     H 6231   1.740   5.432   6.544  1.7427  1.3171 -0.3607
  805MOL0     H 6232   1.668   5.282   6.731  0.3512  0.2323  0.1326
  805MOL0     H 6233   1.689   5.411   6.842  2.4506 -1.6955 -0.5820
  805MOL0     H 6234   1.492   5.395   6.587 -0.8706  2.1513 -0.6071
  805MOL0     H 6235   1.543   5.540   6.659  3.3910 -0.5042  0.0050
  805MOL0     H 6236   1.452   5.460   6.888  0.1613 -0.6875 -0.4251
  805MOL0     H 6237   1.431   5.305   6.818 -0.1773 -0.1845 -2.1344
  805MOL0     H 6238   1.234   5.495   6.854 -0.0022 -0.4917  0.5042
  805MOL0     H 6239   1.272   5.504   6.682  0.1830 -1.3682 -0.9132
  805MOL0     H 6240   1.092   5.333   6.770 -0.0066  2.3371  1.2719
  805MOL0     H 6241   1.227   5.242   6.837  1.8171 -0.4349 -0.6463
  805MOL0     H 6242   2.074   5.709   6.612  0.3877  1.7848  0.9758
  805MOL0     H 6243   2.303   5.747   6.523 -1.2059 -0.2573 -0.2732
  805MOL0     H 6244   2.731   5.609   6.477  1.2361  0.0695 -0.9220
  805MOL0     H 6245   2.928   5.699   6.386  0.7778  1.7260 -0.6451
  805MOL0     H 6246   2.651   6.049   6.555 -1.4851 -0.1309  1.3051
  805MOL0     H 6247   2.390   6.009   6.537 -0.0533  1.3962  1.2874
  805MOL0     H 6248   1.995   6.189   6.332  1.4191 -0.1427  1.8461
  805MOL0     H 6249   1.752   6.124   6.329  1.3169  2.0905  3.1589
  805MOL0     H 6250   1.537   6.046   6.347  2.3788  0.8929  1.0432
  805MOL0     H 6251   1.613   5.967   6.489 -1.2202 -0.2807  0.1478
  805MOL0     H 6252   1.486   5.762   6.439  3.7197 -0.1461 -1.9462
  805MOL0     H 6253   1.388   5.916   6.486 -3.0769 -1.3747 -1.1964
  805MOL0     H 6254   1.427   5.817   6.197 -2.5522 -1.9384 -0.8924
  805MOL0     H 6255   1.324   5.940   6.255 -0.3980 -0.0213 -2.0804
  805MOL0     H 6256   1.170   5.789   6.357  1.2028 -1.4527  1.2779
  805MOL0     H 6257   1.203   5.755   6.200  0.8026  0.3692  0.9386
  805MOL0     H 6258   1.332   5.406   6.386 -3.4535  0.0830 -1.2918
  805MOL0     H 6259   1.863   5.705   6.338  0.4227 -0.4388 -4.4176
  805MOL0     H 6260   2.102   5.768   6.303  0.4200 -1.1374  1.8785
  806MOL0     O 6261   3.874   6.408   2.503 -0.2574 -0.5660  0.0150
  806MOL0     C 6262   3.963   6.357   2.436 -0.8596  0.4294 -0.4050
  806MOL0     O 6263   3.961   6.235   2.375  0.2343 -0.8408 -0.7459
  806MOL0     C 6264   3.860   6.146   2.416 -0.5341 -0.3669  0.1719
  806MOL0     C 6265   3.905   6.013   2.435 -0.1305  0.1047 -0.8393
  806MOL0     C 6266   3.818   5.904   2.470 -0.4484 -0.3714  0.2465
  806MOL0     C 6267   3.680   5.931   2.481 -0.2939  0.6131  1.6564
  806MOL0     O 6268   3.583   5.831   2.506  0.3341 -0.6288 -0.4010
  806MOL0     C 6269   3.585   5.704   2.437 -0.5456 -0.6831 -0.2800
  806MOL0     C 6270   3.450   5.672   2.376  0.3459 -0.4592  0.0592
  806MOL0     C 6271   3.411   5.775   2.269 -1.0229  0.0853 -1.0736
  806MOL0     C 6272   3.311   5.704   2.178 -0.2827  0.5441 -0.3341
  806MOL0     C 6273   3.274   5.786   2.063 -0.6704 -0.1959 -0.0646
  806MOL0     C 6274   3.198   5.708   1.953 -0.0040  0.5545  0.0598
  806MOL0     C 6275   3.200   5.780   1.813  0.0934 -0.0871  0.3656
  806MOL0     C 6276   3.112   5.722   1.703  0.2092  0.1439  0.0070
  806MOL0     N 6277   2.977   5.688   1.748  1.3103 -0.3975 -0.0649
  806MOL0     C 6278   2.887   5.783   1.798  0.4876  0.3343 -0.2184
  806MOL0     C 6279   2.775   5.711   1.830 -0.4307  0.5275 -0.6351
  806MOL0     C 6280   2.643   5.760   1.885 -0.1737  0.0478  0.2991
  806MOL0     C 6281   2.568   5.836   1.787  0.0804  0.2015  0.9923
  806MOL0     C 6282   2.452   5.921   1.844  0.4409  0.4338 -0.1674
  806MOL0     C 6283   2.335   5.824   1.859  0.6416 -0.1889 -0.5900
  806MOL0     O 6284   2.260   5.815   1.735  1.1270  0.3348  0.2498
  806MOL0     C 6285   2.139   5.882   1.716 -0.3714 -0.0718 -0.2262
  806MOL0     C 6286   2.087   5.991   1.784 -0.4856  0.1771  0.3297
  806MOL0     C 6287   1.958   6.044   1.747  0.7805 -0.1528 -0.1665
  806MOL0     C 6288   1.881   5.979   1.648  1.1557  0.3306  0.0136
  806MOL0     C 6289   1.741   6.014   1.626  0.5935  0.0412 -0.3278
  806MOL0     O 6290   1.678   5.942   1.536 -0.1873  1.3662 -0.5400
  806MOL0     C 6291   1.549   5.954   1.514 -0.6040  0.2889  0.7290
  806MOL0     C 6292   1.479   5.835   1.493 -0.0160 -0.5401 -0.1658
  806MOL0     C 6293   1.341   5.847   1.459  0.1483  0.0882 -0.1287
  806MOL0     C 6294   1.279   5.967   1.434 -0.0299 -0.9234  0.5208
  806MOL0     O 6295   1.141   5.983   1.404 -0.7396  0.0149  0.4256
  806MOL0     C 6296   1.054   5.890   1.471  0.4693 -0.0009  0.0518
  806MOL0     C 6297   0.909   5.931   1.446 -0.0528 -0.2791 -0.2847
  806MOL0     C 6298   0.803   5.827   1.475  0.0168 -0.2370  0.7259
  806MOL0     C 6299   0.655   5.862   1.434 -0.4602  0.2188 -0.1850
  806MOL0     C 6300   0.564   5.736   1.433 -0.7205 -0.3170  0.0816
  806MOL0     C 6301   0.518   5.691   1.578 -0.6334 -0.2467  0.0472
  806MOL0     C 6302   0.426   5.788   1.655 -0.4979 -0.7288  0.2334
  806MOL0     C 6303   0.287   5.808   1.596 -0.5623  0.9640  0.5724
  806MOL0    Cl 6304   0.195   5.927   1.683  0.1495 -0.4656  0.0620
  806MOL0     C 6305   1.354   6.080   1.450 -0.3739  0.0064 -0.2834
  806MOL0     C 6306   1.485   6.078   1.482 -0.2953  0.7734 -1.1900
  806MOL0     O 6307   1.699   6.107   1.692 -0.7144 -0.3267 -0.6908
  806MOL0     C 6308   1.934   5.874   1.572  0.2287 -0.9303 -0.7024
  806MOL0     C 6309   2.064   5.833   1.606  0.2765 -0.2531 -0.1095
  806MOL0     N 6310   2.798   5.583   1.796  0.1943 -0.4406  0.3679
  806MOL0     N 6311   2.911   5.566   1.749  0.2522  0.3231 -0.3217
  806MOL0     C 6312   3.637   6.066   2.463  0.5056  0.0050 -0.7561
  806MOL0     C 6313   3.725   6.175   2.423 -0.1121  0.4661 -0.0948
  806MOL0     C 6314   4.090   6.429   2.425 -0.1453  1.3215  0.7539
  806MOL0     C 6315   4.099   6.566   2.434 -0.2579 -0.4852 -0.0234
  806MOL0     C 6316   4.226   6.625   2.444  0.1998 -1.1025  0.8390
  806MOL0     C 6317   4.349   6.559   2.445 -0.2690  0.5385 -0.0839
  806MOL0     O 6318   4.471   6.613   2.431  0.2369 -0.4677  0.3132
  806MOL0     C 6319   4.481   6.750   2.461 -0.2470 -0.5348 -0.5220
  806MOL0     C 6320   4.638   6.785   2.490 -0.0528  0.7377 -0.3220
  806MOL0     C 6321   4.706   6.738   2.621  0.2990  1.0760  0.0939
  806MOL0     C 6322   4.683   6.577   2.643 -0.8573  0.1618  0.4445
  806MOL0     C 6323   4.552   6.537   2.712 -0.6661 -0.2629  0.3964
  806MOL0     C 6324   4.452   6.524   2.782 -0.2726  0.2519  0.0749
  806MOL0     C 6325   4.339   6.419   2.422  0.0619 -1.0926  0.1490
  806MOL0     C 6326   4.211   6.354   2.406  0.0544  0.0579  0.1560
  806MOL0     H 6327   4.013   5.998   2.443 -0.0330  0.9639 -0.4574
  806MOL0     H 6328   3.864   5.806   2.478  1.4228  0.1798 -2.4959
  806MOL0     H 6329   3.608   5.621   2.504 -1.5714 -0.6252  0.1627
  806MOL0     H 6330   3.673   5.706   2.373  0.9796  1.1404  1.7511
  806MOL0     H 6331   3.368   5.682   2.447  0.3115 -0.2235 -0.0137
  806MOL0     H 6332   3.448   5.572   2.331  2.0168 -0.0519 -1.0408
  806MOL0     H 6333   3.497   5.811   2.211  1.2058  1.1328  2.5767
  806MOL0     H 6334   3.359   5.860   2.315 -0.7352  0.0033 -0.5985
  806MOL0     H 6335   3.356   5.613   2.136 -1.5566 -0.5294  0.5351
  806MOL0     H 6336   3.227   5.678   2.243  0.0588 -0.7457 -0.3613
  806MOL0     H 6337   3.363   5.834   2.021 -0.9664 -0.5348 -1.1246
  806MOL0     H 6338   3.217   5.867   2.110 -1.0478 -0.2761 -0.3713
  806MOL0     H 6339   3.094   5.698   1.988  0.0361 -2.8384 -0.4844
  806MOL0     H 6340   3.236   5.607   1.939 -1.0465  0.1193  0.2609
  806MOL0     H 6341   3.165   5.883   1.830 -1.8418 -0.7383  0.5379
  806MOL0     H 6342   3.304   5.801   1.784 -0.1775 -0.4498 -0.9109
  806MOL0     H 6343   3.157   5.628   1.672 -1.9974 -1.3130  0.9449
  806MOL0     H 6344   3.112   5.777   1.609 -2.2377 -0.7904 -0.6092
  806MOL0     H 6345   2.900   5.890   1.814  1.8471 -0.0333  1.5381
  806MOL0     H 6346   2.670   5.819   1.973  2.5420  0.7108 -0.8631
  806MOL0     H 6347   2.586   5.672   1.918  2.1713 -1.9297 -0.5951
  806MOL0     H 6348   2.524   5.772   1.710  2.9595  0.1171 -0.7625
  806MOL0     H 6349   2.640   5.900   1.734  0.2850 -0.0898  0.9152
  806MOL0     H 6350   2.475   5.953   1.946  0.1965 -0.5368  0.2064
  806MOL0     H 6351   2.420   6.013   1.795  1.1319  2.2259  2.5274
  806MOL0     H 6352   2.268   5.857   1.938  1.4801 -1.5319  0.7223
  806MOL0     H 6353   2.356   5.721   1.888 -1.5304 -0.8959 -1.3460
  806MOL0     H 6354   2.142   6.056   1.853  1.7908 -0.7715 -0.5023
  806MOL0     H 6355   1.911   6.123   1.806 -1.2449 -1.2674 -0.1918
  806MOL0     H 6356   1.525   5.739   1.511  0.9157 -0.5188 -2.1225
  806MOL0     H 6357   1.288   5.755   1.437  2.6285 -0.9030 -2.6021
  806MOL0     H 6358   1.065   5.901   1.579 -2.0676 -0.4498  0.4115
  806MOL0     H 6359   1.060   5.783   1.448  0.8174 -0.1815  0.9477
  806MOL0     H 6360   0.904   5.966   1.343  0.6742  0.4206 -0.0996
  806MOL0     H 6361   0.892   6.011   1.519  1.6842 -3.2453  3.7624
  806MOL0     H 6362   0.799   5.809   1.583  0.9707  0.2729  0.8600
  806MOL0     H 6363   0.832   5.730   1.435 -3.4206 -0.1622 -2.3952
  806MOL0     H 6364   0.614   5.936   1.503  0.9364 -0.1796  1.1002
  806MOL0     H 6365   0.650   5.899   1.331 -1.5312  0.1470 -0.1717
  806MOL0     H 6366   0.618   5.649   1.394 -0.3769  0.3741 -1.0349
  806MOL0     H 6367   0.481   5.756   1.364 -0.3545  1.7100  0.1723
  806MOL0     H 6368   0.614   5.669   1.625 -0.6930 -0.1763  0.2000
  806MOL0     H 6369   0.450   5.607   1.564 -1.3560  0.1585  1.0488
  806MOL0     H 6370   0.427   5.765   1.762 -0.7768  1.4906  0.7777
  806MOL0     H 6371   0.477   5.885   1.651 -1.2604 -0.3591 -1.3994
  806MOL0     H 6372   0.229   5.716   1.586 -0.4979  1.1703 -3.1021
  806MOL0     H 6373   0.291   5.844   1.492 -0.8107  3.0080  1.2274
  806MOL0     H 6374   1.307   6.177   1.436  0.0439  0.2372 -0.0993
  806MOL0     H 6375   1.525   6.178   1.493  0.7966  0.2443 -0.1497
  806MOL0     H 6376   1.877   5.830   1.490 -1.0087 -2.4869  0.9126
  806MOL0     H 6377   2.102   5.759   1.536  0.5006 -1.5691  1.3595
  806MOL0     H 6378   3.530   6.070   2.475  0.5179 -1.8077  0.3546
  806MOL0     H 6379   3.678   6.268   2.393 -0.2181  0.2285 -0.6933
  806MOL0     H 6380   4.010   6.627   2.430  0.1231  0.0499 -0.3538
  806MOL0     H 6381   4.221   6.733   2.435  0.6977 -0.9479  2.1767
  806MOL0     H 6382   4.430   6.781   2.552  1.2594  2.0171 -0.4616
  806MOL0     H 6383   4.442   6.807   2.377  0.0353  2.5509  1.2983
  806MOL0     H 6384   4.700   6.740   2.411  1.8541 -2.3355  2.6621
  806MOL0     H 6385   4.653   6.894   2.490  2.2533  0.5001  1.3334
  806MOL0     H 6386   4.660   6.783   2.710 -0.6582  2.7602 -1.2033
  806MOL0     H 6387   4.813   6.760   2.621  1.0374 -1.6440  3.1162
  806MOL0     H 6388   4.695   6.527   2.546 -1.2546  0.7373  0.0934
  806MOL0     H 6389   4.765   6.543   2.708 -0.0051  1.4724  0.0883
  806MOL0     H 6390   4.365   6.514   2.844 -0.3849  0.0577 -0.1113
  806MOL0     H 6391   4.416   6.346   2.397 -0.8951 -1.6986 -1.1591
  806MOL0     H 6392   4.198   6.248   2.384 -0.1992 -0.0545  0.8187
  807MOL0     O 6393  11.051   4.308   8.773  0.2740 -0.0275 -0.3697
  807MOL0     C 6394  11.035   4.197   8.832 -0.0255  0.4806  0.4872
  807MOL0     O 6395  10.974   4.185   8.952  0.1174 -0.1407 -0.3542
  807MOL0     C 6396  10.930   4.288   9.022 -0.2840  0.3110 -0.1863
  807MOL0     C 6397  10.988   4.334   9.148 -0.1896  0.3526  0.6229
  807MOL0     C 6398  10.928   4.441   9.221 -0.0509  0.7009 -0.0779
  807MOL0     C 6399  10.813   4.505   9.170 -0.0332  0.9384  0.2100
  807MOL0     O 6400  10.774   4.615   9.226 -0.2448 -0.2115  0.0952
  807MOL0     C 6401  10.787   4.647   9.370  0.8589 -0.4981 -0.0187
  807MOL0     C 6402  10.729   4.786   9.387  0.4241  0.7483  0.3072
  807MOL0     C 6403  10.582   4.784   9.354 -0.3002  0.8146 -0.3830
  807MOL0     C 6404  10.497   4.910   9.381  0.8409  0.3117  0.6725
  807MOL0     C 6405  10.347   4.874   9.366 -0.3266  0.3298  0.0660
  807MOL0     C 6406  10.301   4.828   9.228 -0.3026  0.2108  0.3371
  807MOL0     C 6407  10.153   4.869   9.208  0.9853  0.1500 -0.0168
  807MOL0     C 6408  10.141   5.015   9.164  0.1400 -0.0179  0.2201
  807MOL0     N 6409  10.000   5.059   9.169 -0.6960 -0.0152  0.4745
  807MOL0     C 6410   9.926   5.081   9.282  0.7036 -0.3392 -0.0952
  807MOL0     C 6411   9.806   5.094   9.233  0.2222  0.7723  0.0745
  807MOL0     C 6412   9.669   5.115   9.304  1.3636  0.0478 -0.3881
  807MOL0     C 6413   9.594   5.239   9.252  0.3957 -0.7478  0.7742
  807MOL0     C 6414   9.535   5.337   9.354  0.5137 -0.3977 -0.2296
  807MOL0     C 6415   9.422   5.271   9.433  0.4979 -0.2123  0.8420
  807MOL0     O 6416   9.310   5.273   9.335  0.5170  0.4997  0.8276
  807MOL0     C 6417   9.186   5.307   9.382 -0.7423 -1.0010  0.1626
  807MOL0     C 6418   9.155   5.319   9.516  1.0587 -0.0092  0.4354
  807MOL0     C 6419   9.019   5.350   9.550  0.5513 -0.4431 -0.1162
  807MOL0     C 6420   8.932   5.390   9.448 -0.7333 -0.2345 -0.2724
  807MOL0     C 6421   8.794   5.445   9.474  0.6556  0.4764 -0.5137
  807MOL0     O 6422   8.762   5.471   9.602 -0.1090 -0.0195  0.5402
  807MOL0     C 6423   8.647   5.539   9.634  0.3684  0.2259  0.5988
  807MOL0     C 6424   8.523   5.463   9.645 -0.5825  0.0821 -0.2015
  807MOL0     C 6425   8.412   5.530   9.696 -0.0023 -0.8859  0.7028
  807MOL0     C 6426   8.412   5.672   9.731 -0.2050 -0.3936  0.0587
  807MOL0     O 6427   8.297   5.741   9.763 -0.3703 -0.6565  0.7382
  807MOL0     C 6428   8.174   5.689   9.719 -0.3939 -1.2681 -0.2062
  807MOL0     C 6429   8.074   5.806   9.758 -0.5355 -0.0112  0.6303
  807MOL0     C 6430   7.934   5.761   9.702 -0.7310 -1.1160 -0.6891
  807MOL0     C 6431   7.822   5.873   9.730 -0.4704 -1.5114  0.3714
  807MOL0     C 6432   7.688   5.809   9.760 -0.0402  0.8336  0.1545
  807MOL0     C 6433   7.590   5.927   9.795  0.5206 -0.4067 -0.0926
  807MOL0     C 6434   7.456   5.873   9.832  0.0649  0.2025  0.6243
  807MOL0     C 6435   7.365   5.982   9.889  0.1572 -0.4044  0.0649
  807MOL0    Cl 6436   7.302   6.073   9.747 -0.2621  0.2443  0.3357
  807MOL0     C 6437   8.530   5.735   9.720 -0.3710 -0.2338 -0.3123
  807MOL0     C 6438   8.647   5.670   9.678  0.2695 -0.9085  0.3696
  807MOL0     O 6439   8.721   5.477   9.374 -0.2446 -0.6201  0.0319
  807MOL0     C 6440   8.972   5.381   9.317 -0.7097 -0.3867 -0.1168
  807MOL0     C 6441   9.097   5.327   9.278  0.1772 -1.2710 -0.4316
  807MOL0     N 6442   9.804   5.087   9.088  1.3822 -0.4248  0.1470
  807MOL0     N 6443   9.929   5.068   9.051  0.0930 -0.5881  0.1445
  807MOL0     C 6444  10.749   4.451   9.055 -0.9489 -0.1489  1.1782
  807MOL0     C 6445  10.811   4.342   8.985 -0.1523 -0.2703 -0.9003
  807MOL0     C 6446  11.085   4.082   8.755  0.9333  0.0874 -0.0471
  807MOL0     C 6447  11.029   3.956   8.779 -0.1048  0.3077  0.7306
  807MOL0     C 6448  11.067   3.835   8.723 -0.2645 -0.8337  0.8261
  807MOL0     C 6449  11.157   3.839   8.609 -0.0834  0.1899  0.1845
  807MOL0     O 6450  11.182   3.733   8.537  0.1016  0.2109  0.3447
  807MOL0     C 6451  11.154   3.598   8.568  0.0067  0.9649  0.1920
  807MOL0     C 6452  11.174   3.492   8.454  0.6350 -0.4483  0.1497
  807MOL0     C 6453  11.299   3.519   8.365  0.4178  0.2935 -0.4958
  807MOL0     C 6454  11.430   3.512   8.446 -0.1075  0.1410 -0.4690
  807MOL0     C 6455  11.536   3.519   8.343  0.2512 -0.5381  0.0327
  807MOL0     C 6456  11.618   3.522   8.255 -0.5826  0.5415 -0.2433
  807MOL0     C 6457  11.216   3.963   8.591  0.1014  0.1002 -0.3370
  807MOL0     C 6458  11.189   4.084   8.663  0.3849 -0.5465 -0.6912
  807MOL0     H 6459  11.073   4.295   9.202  0.3481 -1.3864 -1.3128
  807MOL0     H 6460  10.979   4.468   9.313 -0.1665  0.6448  0.0036
  807MOL0     H 6461  10.888   4.643   9.413  0.0625 -1.0976  1.9232
  807MOL0     H 6462  10.726   4.574   9.424 -0.6118 -0.3306 -1.3719
  807MOL0     H 6463  10.792   4.856   9.331  0.9615  0.2741  0.3156
  807MOL0     H 6464  10.729   4.822   9.490  0.1898  0.9205  0.2479
  807MOL0     H 6465  10.562   4.710   9.432  2.3784  2.6320  2.2671
  807MOL0     H 6466  10.558   4.748   9.253 -1.0781 -1.8964  0.6755
  807MOL0     H 6467  10.519   4.948   9.481  1.3907  0.0797  0.6486
  807MOL0     H 6468  10.534   4.985   9.311 -0.0416 -1.1710 -1.5091
  807MOL0     H 6469  10.291   4.958   9.408 -2.6553  0.2495 -2.5366
  807MOL0     H 6470  10.336   4.786   9.430  0.9886 -0.2360 -0.4572
  807MOL0     H 6471  10.306   4.718   9.223 -1.9313  0.1178  0.0214
  807MOL0     H 6472  10.370   4.868   9.153 -1.5460  0.6198 -0.6391
  807MOL0     H 6473  10.105   4.802   9.136  3.0539  0.5384 -1.8627
  807MOL0     H 6474  10.110   4.854   9.307  3.1335  0.2245  0.9664
  807MOL0     H 6475  10.173   5.016   9.059 -1.3809 -1.2011 -0.2927
  807MOL0     H 6476  10.198   5.088   9.221 -1.1006  3.9665 -3.1664
  807MOL0     H 6477   9.940   5.063   9.388 -2.3598 -0.9976  0.2951
  807MOL0     H 6478   9.681   5.126   9.412  1.1124 -0.5322 -0.2937
  807MOL0     H 6479   9.609   5.024   9.287  1.8571 -0.2740 -0.4118
  807MOL0     H 6480   9.508   5.217   9.188  1.3307  0.8368 -1.1474
  807MOL0     H 6481   9.667   5.298   9.195 -0.4404  0.7302  1.1927
  807MOL0     H 6482   9.608   5.370   9.429  2.1333 -1.5782 -1.2279
  807MOL0     H 6483   9.496   5.425   9.301 -0.4712 -2.0443 -2.3765
  807MOL0     H 6484   9.410   5.347   9.511  1.6088 -0.2325  1.0542
  807MOL0     H 6485   9.440   5.173   9.478  1.2745 -1.3489 -1.7480
  807MOL0     H 6486   9.220   5.292   9.599  1.6274  4.0793  1.5398
  807MOL0     H 6487   8.980   5.353   9.652 -0.5253 -2.1618 -0.4384
  807MOL0     H 6488   8.534   5.361   9.608 -0.4457 -0.4539  1.2389
  807MOL0     H 6489   8.314   5.482   9.699 -0.3622 -1.0555 -4.7375
  807MOL0     H 6490   8.152   5.591   9.763  0.3600 -0.9733  0.8629
  807MOL0     H 6491   8.174   5.685   9.610 -0.9714 -0.3544 -0.2530
  807MOL0     H 6492   8.099   5.904   9.716 -0.2261 -0.2664  0.2097
  807MOL0     H 6493   8.071   5.815   9.867 -1.0022 -1.6056  0.7722
  807MOL0     H 6494   7.897   5.678   9.763  0.2452  0.3410  2.0232
  807MOL0     H 6495   7.916   5.740   9.595 -1.3417 -0.6589 -0.6848
  807MOL0     H 6496   7.854   5.939   9.811  0.4135 -1.6146  0.1135
  807MOL0     H 6497   7.815   5.936   9.641  2.3913 -1.0598  0.3670
  807MOL0     H 6498   7.699   5.736   9.840  1.6902  1.2467  0.3316
  807MOL0     H 6499   7.642   5.757   9.676 -1.3016  1.5743  0.3630
  807MOL0     H 6500   7.575   5.993   9.708 -0.5735  1.7864  1.6604
  807MOL0     H 6501   7.644   5.979   9.875 -0.8908  0.5869  0.2526
  807MOL0     H 6502   7.403   5.826   9.749 -0.6976  0.0491  1.1824
  807MOL0     H 6503   7.461   5.799   9.912 -0.0541 -3.9091 -2.8217
  807MOL0     H 6504   7.410   6.054   9.958 -2.1978  1.4669 -0.2263
  807MOL0     H 6505   7.278   5.933   9.935  1.2985 -2.4356  0.1675
  807MOL0     H 6506   8.535   5.838   9.754 -3.4495 -0.3462  0.8025
  807MOL0     H 6507   8.740   5.723   9.694  1.1919 -2.5636  0.7727
  807MOL0     H 6508   8.900   5.400   9.239 -0.2885  0.2256 -0.3644
  807MOL0     H 6509   9.133   5.356   9.181  0.4583  1.6012  0.4297
  807MOL0     H 6510  10.656   4.489   9.013 -1.2677 -1.6922  0.4142
  807MOL0     H 6511  10.766   4.301   8.896 -0.8908 -0.3473 -0.5006
  807MOL0     H 6512  10.957   3.937   8.858 -2.3658  3.9114 -0.2178
  807MOL0     H 6513  11.044   3.733   8.752  0.3904 -1.0279  0.6885
  807MOL0     H 6514  11.047   3.596   8.592 -0.4221  2.9178 -1.2732
  807MOL0     H 6515  11.204   3.565   8.659  2.2944  0.3218 -1.2130
  807MOL0     H 6516  11.197   3.394   8.496  1.3099 -0.6271 -0.6209
  807MOL0     H 6517  11.080   3.493   8.399 -0.3975  2.1139  1.7947
  807MOL0     H 6518  11.281   3.620   8.328  1.1165  0.6211  0.0576
  807MOL0     H 6519  11.301   3.446   8.283 -3.1101 -1.2722  0.5880
  807MOL0     H 6520  11.433   3.603   8.507 -1.9291 -0.4022  0.5031
  807MOL0     H 6521  11.442   3.423   8.508 -3.8653  0.8338  1.5406
  807MOL0     H 6522  11.697   3.524   8.182  0.6285  1.2510  1.0388
  807MOL0     H 6523  11.303   3.966   8.527  1.5245  1.1399  1.5520
  807MOL0     H 6524  11.250   4.173   8.659  1.0867 -0.7525  2.7422
  808MOL0     O 6525  10.804   2.769   8.030  0.2024 -0.0222 -0.1877
  808MOL0     C 6526  10.861   2.847   7.957  0.1285 -0.2189  0.1339
  808MOL0     O 6527  10.799   2.935   7.871 -0.6455 -1.1273 -0.5212
  808MOL0     C 6528  10.661   2.952   7.869  0.3468 -0.5620  0.2500
  808MOL0     C 6529  10.607   3.070   7.922 -0.1073 -0.9801 -0.1115
  808MOL0     C 6530  10.468   3.088   7.926 -0.2816  1.0623 -0.6796
  808MOL0     C 6531  10.381   2.981   7.885 -0.3383  0.1672 -0.5452
  808MOL0     O 6532  10.243   2.995   7.880 -0.3042 -0.3933  0.6142
  808MOL0     C 6533  10.161   2.893   7.841  0.1536  0.2805  0.4138
  808MOL0     C 6534  10.012   2.928   7.854 -0.2391 -0.3260 -0.8738
  808MOL0     C 6535   9.963   3.072   7.802 -0.9228 -0.3318 -0.2807
  808MOL0     C 6536   9.807   3.088   7.776  0.6608  0.0602 -0.7628
  808MOL0     C 6537   9.772   3.236   7.729  0.0408 -0.5070 -0.2249
  808MOL0     C 6538   9.643   3.241   7.648  0.6635 -0.2912 -0.6277
  808MOL0     C 6539   9.643   3.389   7.578  0.0940  0.6944  0.3033
  808MOL0     C 6540   9.508   3.409   7.514  0.0635 -0.3576  0.3240
  808MOL0     N 6541   9.487   3.551   7.487  0.8088  0.3546 -0.3524
  808MOL0     C 6542   9.454   3.639   7.585 -0.1161  0.6507 -0.3992
  808MOL0     C 6543   9.439   3.761   7.524  0.4498 -0.1608  0.5873
  808MOL0     C 6544   9.393   3.872   7.604  0.1434  0.2340 -0.7097
  808MOL0     C 6545   9.239   3.903   7.573  0.6167 -0.3632 -0.3120
  808MOL0     C 6546   9.159   3.787   7.615  1.0149  0.5885 -0.0385
  808MOL0     C 6547   9.016   3.839   7.641 -0.9191  1.1009  0.7299
  808MOL0     O 6548   8.977   3.907   7.513 -0.3428  0.3286  0.1911
  808MOL0     C 6549   8.862   3.978   7.516  0.6400 -0.0785  0.1311
  808MOL0     C 6550   8.811   4.065   7.613 -0.1751 -1.1127 -0.2823
  808MOL0     C 6551   8.684   4.129   7.599 -0.0212 -0.0180  0.1761
  808MOL0     C 6552   8.618   4.115   7.476  0.6050  0.7075  1.2722
  808MOL0     C 6553   8.483   4.185   7.443 -0.2018  0.5089  0.4784
  808MOL0     O 6554   8.405   4.145   7.335  0.4137  0.7677  0.5719
  808MOL0     C 6555   8.279   4.175   7.326 -0.2192 -1.0409  0.4646
  808MOL0     C 6556   8.223   4.178   7.199 -1.0946  0.1638  1.4252
  808MOL0     C 6557   8.099   4.229   7.178  0.0461 -0.6508  0.0832
  808MOL0     C 6558   8.012   4.247   7.284 -0.2053  0.3386 -0.2421
  808MOL0     O 6559   7.879   4.279   7.280 -0.1227  0.1352  0.1852
  808MOL0     C 6560   7.833   4.319   7.157 -0.5622 -0.6840 -0.0883
  808MOL0     C 6561   7.687   4.369   7.167 -0.0546  0.0039  0.2056
  808MOL0     C 6562   7.691   4.495   7.269 -0.4967 -0.2555  0.2895
  808MOL0     C 6563   7.538   4.524   7.313  0.6812 -0.4837 -1.1795
  808MOL0     C 6564   7.454   4.572   7.195 -0.4971  0.6120  0.1702
  808MOL0     C 6565   7.304   4.574   7.238 -0.5289 -0.4233  0.3417
  808MOL0     C 6566   7.266   4.710   7.290  0.2552  0.8520  0.0395
  808MOL0     C 6567   7.113   4.723   7.313  0.7248 -0.1881 -0.3190
  808MOL0    Cl 6568   7.043   4.582   7.404 -0.2698 -0.4290 -0.0836
  808MOL0     C 6569   8.057   4.224   7.415 -0.3554  0.0766 -0.4253
  808MOL0     C 6570   8.191   4.191   7.437 -0.6238 -0.6434 -0.1446
  808MOL0     O 6571   8.461   4.283   7.513  0.2764  0.2597  0.4787
  808MOL0     C 6572   8.669   4.019   7.385  0.6408 -0.4087  0.3682
  808MOL0     C 6573   8.785   3.949   7.406 -0.4172  0.3065  0.0052
  808MOL0     N 6574   9.457   3.742   7.387  0.3982 -0.4656  0.0753
  808MOL0     N 6575   9.488   3.619   7.372  0.7947 -0.2760  0.2322
  808MOL0     C 6576  10.442   2.862   7.847 -0.1917 -0.1378  1.0681
  808MOL0     C 6577  10.579   2.851   7.840  0.4351  0.6841  0.8068
  808MOL0     C 6578  11.009   2.847   7.954  0.1709  0.2692 -0.1587
  808MOL0     C 6579  11.083   2.787   8.059  0.1589 -0.2169  0.8684
  808MOL0     C 6580  11.222   2.797   8.055 -0.2389  0.5579 -0.6833
  808MOL0     C 6581  11.289   2.862   7.946  0.7835  1.0893 -0.3101
  808MOL0     O 6582  11.420   2.888   7.936 -0.4214 -0.3246  0.3705
  808MOL0     C 6583  11.509   2.853   8.043  0.2282  0.1780 -0.4257
  808MOL0     C 6584  11.650   2.894   8.001  0.3593 -0.1778  0.3661
  808MOL0     C 6585  11.749   2.847   8.116  1.0944  0.3804 -0.1163
  808MOL0     C 6586  11.713   2.904   8.249 -0.2026  0.0382 -0.7666
  808MOL0     C 6587  11.692   3.055   8.247  0.4764  0.4591 -0.0689
  808MOL0     C 6588  11.672   3.178   8.237 -0.3130  0.5942 -0.5644
  808MOL0     C 6589  11.215   2.915   7.839 -0.1052  0.0648  0.8075
  808MOL0     C 6590  11.078   2.904   7.845  0.2625  0.1503  0.1488
  808MOL0     H 6591  10.680   3.135   7.969 -1.6555 -0.8433  2.2826
  808MOL0     H 6592  10.427   3.180   7.967  1.3388  1.9110 -0.8740
  808MOL0     H 6593  10.199   2.821   7.914  2.9820 -0.3238 -1.5174
  808MOL0     H 6594  10.181   2.872   7.736 -0.1806  3.8222 -0.4901
  808MOL0     H 6595   9.980   2.910   7.957 -0.6988  4.0909 -0.0317
  808MOL0     H 6596   9.963   2.847   7.799 -3.1603  1.3262 -0.9019
  808MOL0     H 6597  10.008   3.076   7.702 -0.6608 -1.3814 -0.2218
  808MOL0     H 6598  10.009   3.152   7.860  0.5712 -1.6717  0.4768
  808MOL0     H 6599   9.779   3.008   7.707  0.9370 -1.1377  0.4569
  808MOL0     H 6600   9.768   3.064   7.875  1.5096 -1.1407 -0.6939
  808MOL0     H 6601   9.861   3.259   7.670  1.7056  0.3575  2.4099
  808MOL0     H 6602   9.758   3.306   7.812 -1.8282  0.4159 -1.2567
  808MOL0     H 6603   9.557   3.234   7.716 -0.2038  0.2448 -1.6327
  808MOL0     H 6604   9.635   3.154   7.582  0.6184 -1.5126  0.9223
  808MOL0     H 6605   9.663   3.460   7.659 -1.0486  1.6961 -0.2625
  808MOL0     H 6606   9.717   3.386   7.497 -2.5710 -1.2168 -2.2793
  808MOL0     H 6607   9.426   3.376   7.578  0.5434 -1.7751  0.2602
  808MOL0     H 6608   9.506   3.359   7.417  1.8632  1.9929 -1.0450
  808MOL0     H 6609   9.430   3.616   7.688 -0.2715  0.0726 -0.5625
  808MOL0     H 6610   9.452   3.963   7.588 -0.1996  0.4278 -0.8731
  808MOL0     H 6611   9.403   3.851   7.711  0.7592  1.0180 -0.6024
  808MOL0     H 6612   9.217   3.930   7.469  0.9408  1.1430 -0.0261
  808MOL0     H 6613   9.216   3.992   7.633 -0.0956 -0.4469 -0.4531
  808MOL0     H 6614   9.154   3.711   7.537  2.4824 -1.1242  1.4347
  808MOL0     H 6615   9.197   3.750   7.711  0.9573  2.1842  0.6376
  808MOL0     H 6616   9.024   3.911   7.724 -0.2682  1.5150  0.3166
  808MOL0     H 6617   8.946   3.760   7.669  0.8685 -0.5883  0.6138
  808MOL0     H 6618   8.874   4.092   7.697 -1.0045  0.6760 -0.1810
  808MOL0     H 6619   8.650   4.200   7.673  1.0983  2.7027 -1.7512
  808MOL0     H 6620   8.281   4.172   7.108 -1.9449 -1.0785  0.9323
  808MOL0     H 6621   8.064   4.238   7.076 -0.6726  0.4325  0.4116
  808MOL0     H 6622   7.833   4.240   7.081 -0.0225 -0.5867 -0.1928
  808MOL0     H 6623   7.896   4.404   7.130 -0.4662 -0.1838  1.6183
  808MOL0     H 6624   7.620   4.293   7.209 -0.5539  0.7438  0.7753
  808MOL0     H 6625   7.659   4.403   7.067  1.3671  0.1128 -0.1880
  808MOL0     H 6626   7.732   4.583   7.218 -0.6608 -0.0363  0.5421
  808MOL0     H 6627   7.747   4.480   7.362 -1.6353 -0.9304  0.8921
  808MOL0     H 6628   7.497   4.436   7.365  1.2571  0.9316  1.8859
  808MOL0     H 6629   7.551   4.596   7.394 -1.3448 -2.0752  0.7114
  808MOL0     H 6630   7.452   4.500   7.112 -1.7410  0.8927 -0.0707
  808MOL0     H 6631   7.484   4.673   7.166  0.2203  1.0144  2.1883
  808MOL0     H 6632   7.286   4.501   7.318  1.8869  1.2255  2.5728
  808MOL0     H 6633   7.252   4.561   7.143  0.9684  3.2685 -1.1786
  808MOL0     H 6634   7.319   4.728   7.384  0.0327  0.2199  0.2971
  808MOL0     H 6635   7.299   4.789   7.222 -2.3981  0.9396 -1.2994
  808MOL0     H 6636   7.067   4.719   7.214  0.8481 -0.9965 -0.3440
  808MOL0     H 6637   7.103   4.824   7.356  1.3520  0.0316 -0.6840
  808MOL0     H 6638   7.977   4.219   7.488  0.6559 -2.4619  0.6493
  808MOL0     H 6639   8.218   4.179   7.542 -3.9038 -0.2495  0.8628
  808MOL0     H 6640   8.614   4.001   7.293  0.8188  2.4895 -0.4012
  808MOL0     H 6641   8.818   3.885   7.325 -2.2783 -0.8723  0.1162
  808MOL0     H 6642  10.382   2.774   7.823  0.2309 -0.1732  0.0974
  808MOL0     H 6643  10.634   2.760   7.816  4.4473  1.9091  4.2132
  808MOL0     H 6644  11.026   2.752   8.145 -1.5593 -1.4493 -0.6818
  808MOL0     H 6645  11.273   2.751   8.139 -2.3078 -0.7255 -0.0516
  808MOL0     H 6646  11.511   2.746   8.069 -1.3990  0.7028  2.2633
  808MOL0     H 6647  11.491   2.908   8.135  0.4712 -1.5361  0.7042
  808MOL0     H 6648  11.671   2.843   7.906 -2.8747  0.1385 -0.6678
  808MOL0     H 6649  11.646   3.002   7.982 -0.6994 -0.3343 -0.3747
  808MOL0     H 6650  11.850   2.883   8.097  0.1107  2.9961 -0.8390
  808MOL0     H 6651  11.739   2.738   8.124 -1.1324  0.2715 -2.8171
  808MOL0     H 6652  11.628   2.849   8.291  1.1165 -0.4000  1.5014
  808MOL0     H 6653  11.806   2.889   8.305 -0.6202  0.3659  0.0391
  808MOL0     H 6654  11.660   3.284   8.243  2.8518  0.9436  1.3027
  808MOL0     H 6655  11.274   2.963   7.761 -0.1211 -0.7352  0.2888
  808MOL0     H 6656  11.025   2.939   7.757  2.2533 -1.1717 -1.6782
  809MOL0     O 6657   9.428   4.042  10.346  0.5417  0.3156 -0.3431
  809MOL0     C 6658   9.418   4.110  10.241  0.2335  0.4149 -0.1270
  809MOL0     O 6659   9.293   4.139  10.185  0.0434  0.5139 -0.0387
  809MOL0     C 6660   9.188   4.156  10.265 -0.0660 -0.3079  0.3486
  809MOL0     C 6661   9.120   4.045  10.318  1.0148  0.6971 -0.0360
  809MOL0     C 6662   9.004   4.063  10.397  0.1357  0.2960 -0.2065
  809MOL0     C 6663   8.956   4.192  10.428 -0.6849 -0.7112  0.3285
  809MOL0     O 6664   8.877   4.203  10.545 -0.1756  0.0973  0.4868
  809MOL0     C 6665   8.755   4.280  10.545  0.3696 -0.2465  0.3226
  809MOL0     C 6666   8.639   4.213  10.612  0.4562 -0.1436 -1.1287
  809MOL0     C 6667   8.509   4.283  10.588  0.4690  0.2385 -0.1377
  809MOL0     C 6668   8.399   4.192  10.632 -0.6970 -0.1350 -0.1227
  809MOL0     C 6669   8.272   4.251  10.568  0.8009 -0.4126  0.2344
  809MOL0     C 6670   8.152   4.187  10.638 -0.2483  0.4991  0.0246
  809MOL0     C 6671   8.017   4.210  10.581 -0.2303  0.3314 -0.6702
  809MOL0     C 6672   7.890   4.144  10.667  0.5936  0.2699  0.3943
  809MOL0     N 6673   7.764   4.124  10.587  0.0076 -0.0562 -0.6318
  809MOL0     C 6674   7.640   4.146  10.627 -0.2683 -1.1468 -0.2293
  809MOL0     C 6675   7.566   4.133  10.510  0.2675 -0.3591  0.9475
  809MOL0     C 6676   7.423   4.156  10.487 -0.1131  0.2085 -0.0378
  809MOL0     C 6677   7.353   4.050  10.399  0.8194 -0.0086  0.5513
  809MOL0     C 6678   7.332   3.905  10.458  0.6320  0.4366 -0.4585
  809MOL0     C 6679   7.221   3.906  10.559 -0.5737 -0.4285 -0.4233
  809MOL0     O 6680   7.101   3.951  10.508 -0.1796  0.6253  0.2694
  809MOL0     C 6681   6.999   3.961  10.602 -0.1102 -0.3770 -0.3630
  809MOL0     C 6682   7.018   3.961  10.744  1.4660 -0.7264  0.6879
  809MOL0     C 6683   6.898   3.983  10.813 -0.1097  0.3811  0.7885
  809MOL0     C 6684   6.760   3.988  10.751  0.7662 -0.1350 -0.0743
  809MOL0     C 6685   6.631   3.991  10.831  1.1989  0.0252  0.5504
  809MOL0     O 6686   6.517   3.944  10.765 -0.4723  0.3622 -0.1106
  809MOL0     C 6687   6.394   3.938  10.832  0.0185  0.7076 -0.0238
  809MOL0     C 6688   6.386   3.869  10.951  0.3945 -0.2245  0.0902
  809MOL0     C 6689   6.267   3.834  11.016  0.2410  0.1321 -0.7189
  809MOL0     C 6690   6.139   3.875  10.960 -0.6177  0.6592 -0.6235
  809MOL0     O 6691   6.010   3.835  11.001 -1.0238 -0.1064  0.8909
  809MOL0     C 6692   6.009   3.713  11.075 -0.0779  0.0772  0.3010
  809MOL0     C 6693   5.866   3.667  11.101 -0.6277  0.1329 -0.9334
  809MOL0     C 6694   5.766   3.778  11.106  0.3375 -1.1025  0.8441
  809MOL0     C 6695   5.629   3.736  11.160  1.0071 -0.0913 -0.1583
  809MOL0     C 6696   5.536   3.852  11.187  0.4126  1.0238 -0.1505
  809MOL0     C 6697   5.401   3.812  11.242  0.2997 -0.3074  0.3902
  809MOL0     C 6698   5.313   3.765  11.133 -0.4762  0.1092 -0.5864
  809MOL0     C 6699   5.188   3.688  11.185  0.2105 -0.2067  0.6065
  809MOL0    Cl 6700   5.078   3.653  11.054 -0.1263  0.2896 -0.0533
  809MOL0     C 6701   6.150   3.931  10.835  0.0825 -0.6759  0.8416
  809MOL0     C 6702   6.268   3.965  10.771 -0.9695 -0.0884 -0.2253
  809MOL0     O 6703   6.636   4.017  10.952  0.4141  0.8521 -0.4677
  809MOL0     C 6704   6.756   3.976  10.612 -0.9201  0.1892 -0.2719
  809MOL0     C 6705   6.876   3.973  10.537  0.1923  0.7075  0.2594
  809MOL0     N 6706   7.649   4.091  10.401 -0.6057  0.1292 -0.4008
  809MOL0     N 6707   7.770   4.090  10.461 -0.4168  0.6485 -0.1403
  809MOL0     C 6708   9.022   4.301  10.373  0.0176  0.0341 -0.4969
  809MOL0     C 6709   9.135   4.282  10.290 -0.0720 -0.1338 -0.8948
  809MOL0     C 6710   9.542   4.159  10.181 -0.0985  0.5201  0.2982
  809MOL0     C 6711   9.548   4.188  10.046 -0.1687  0.2034  0.2894
  809MOL0     C 6712   9.670   4.239   9.987  0.2836  0.3668  0.2615
  809MOL0     C 6713   9.787   4.231  10.063 -0.1726  0.0831 -0.6812
  809MOL0     O 6714   9.890   4.292  10.001 -0.6427 -0.2076  0.0277
  809MOL0     C 6715  10.021   4.261  10.059  0.0862 -0.8368 -0.0853
  809MOL0     C 6716  10.135   4.316   9.979  0.3914  0.8917 -0.3124
  809MOL0     C 6717  10.268   4.266  10.026 -0.1393 -0.3498 -0.5159
  809MOL0     C 6718  10.390   4.305   9.940  0.4696  1.0648 -0.1927
  809MOL0     C 6719  10.512   4.241  10.000 -0.2556  0.0775  0.4246
  809MOL0     C 6720  10.609   4.206  10.067  0.3059 -0.2134  0.4448
  809MOL0     C 6721   9.782   4.195  10.197  1.2206  0.6006 -0.2469
  809MOL0     C 6722   9.661   4.152  10.254 -0.1222 -1.1319 -0.2301
  809MOL0     H 6723   9.164   3.948  10.300  2.9616  1.3499  0.8955
  809MOL0     H 6724   8.944   3.980  10.433 -2.6454  1.9459 -0.7576
  809MOL0     H 6725   8.724   4.300  10.441 -1.2888  2.2361  1.1967
  809MOL0     H 6726   8.780   4.377  10.590  0.8006  0.1444 -0.7279
  809MOL0     H 6727   8.655   4.199  10.720 -0.6692 -1.0935 -1.0651
  809MOL0     H 6728   8.624   4.110  10.579  1.7153 -2.6795  4.7290
  809MOL0     H 6729   8.506   4.289  10.479  1.4949 -1.3438 -0.2760
  809MOL0     H 6730   8.506   4.379  10.641 -0.6438 -1.1760  2.4965
  809MOL0     H 6731   8.418   4.090  10.597  1.8937 -0.3454  1.6016
  809MOL0     H 6732   8.388   4.187  10.740 -1.3815 -0.0190 -0.1850
  809MOL0     H 6733   8.267   4.218  10.464  0.2866  0.4503 -0.0259
  809MOL0     H 6734   8.260   4.360  10.569 -3.3231 -0.7075 -0.0627
  809MOL0     H 6735   8.156   4.219  10.742  0.6841  1.7347 -0.3566
  809MOL0     H 6736   8.159   4.078  10.633 -1.5863  0.3534  0.8787
  809MOL0     H 6737   7.994   4.317  10.580  0.6986  0.5399 -0.6131
  809MOL0     H 6738   8.013   4.168  10.480  2.2905 -0.2608 -0.6025
  809MOL0     H 6739   7.855   4.206  10.750  0.3172 -0.2617  0.6777
  809MOL0     H 6740   7.924   4.052  10.715  1.0537  0.5409  0.5895
  809MOL0     H 6741   7.609   4.179  10.725  0.2659  1.1767 -0.7819
  809MOL0     H 6742   7.428   4.257  10.444  1.8607  1.0131  1.8805
  809MOL0     H 6743   7.364   4.163  10.580 -2.0691 -1.7972 -1.0275
  809MOL0     H 6744   7.418   4.045  10.311 -0.2875  0.2553 -0.2981
  809MOL0     H 6745   7.257   4.089  10.364  1.1803  0.4323  0.0283
  809MOL0     H 6746   7.310   3.831  10.381  1.3967 -0.7055  0.3896
  809MOL0     H 6747   7.429   3.882  10.503  0.5849 -1.1499 -1.1101
  809MOL0     H 6748   7.259   3.983  10.627 -0.2135  0.0682 -1.1657
  809MOL0     H 6749   7.209   3.812  10.615  0.1979  0.1043  0.6765
  809MOL0     H 6750   7.109   3.943  10.799  0.7136  0.9295  2.5806
  809MOL0     H 6751   6.897   3.971  10.921  2.7969  0.4972  0.9204
  809MOL0     H 6752   6.476   3.843  11.006  0.2785  1.2564  1.0264
  809MOL0     H 6753   6.276   3.787  11.113 -1.3171  1.0275 -0.1026
  809MOL0     H 6754   6.049   3.724  11.176 -1.1482 -3.2225  1.2331
  809MOL0     H 6755   6.075   3.642  11.025  1.5251  0.8292  1.2695
  809MOL0     H 6756   5.875   3.615  11.196  1.2359  0.1392 -1.0617
  809MOL0     H 6757   5.826   3.589  11.035  0.2629 -0.8124 -0.3840
  809MOL0     H 6758   5.745   3.818  11.006 -0.4459 -0.9664  1.0565
  809MOL0     H 6759   5.796   3.871  11.156 -4.6071  1.9401 -1.0706
  809MOL0     H 6760   5.579   3.673  11.086 -3.0673  1.0605  1.3187
  809MOL0     H 6761   5.644   3.682  11.254 -2.3250 -1.1137 -0.0729
  809MOL0     H 6762   5.523   3.900  11.089 -2.6645 -1.0080 -0.8999
  809MOL0     H 6763   5.590   3.915  11.258  1.1416  0.6063 -0.3305
  809MOL0     H 6764   5.361   3.902  11.290  2.0029  1.0767 -0.6448
  809MOL0     H 6765   5.415   3.736  11.320 -1.1206 -1.0722 -0.0732
  809MOL0     H 6766   5.272   3.847  11.073 -1.8715  0.5679  0.9073
  809MOL0     H 6767   5.371   3.686  11.084  1.1053  0.1834  1.0710
  809MOL0     H 6768   5.143   3.738  11.272 -2.4892  0.6098 -1.1160
  809MOL0     H 6769   5.228   3.594  11.225  2.9975  1.2044  1.3514
  809MOL0     H 6770   6.057   3.955  10.785  0.0704 -0.0333  1.1589
  809MOL0     H 6771   6.277   4.001  10.669  2.6457 -3.6050 -1.3990
  809MOL0     H 6772   6.656   3.972  10.571 -1.4206 -0.5312  0.9808
  809MOL0     H 6773   6.867   3.989  10.430  2.7799  1.8747  0.1396
  809MOL0     H 6774   9.009   4.406  10.399 -0.0551  0.0042 -0.4145
  809MOL0     H 6775   9.177   4.374  10.252 -2.4743  2.0821  1.4308
  809MOL0     H 6776   9.469   4.173   9.974  0.2439 -2.9965  0.3807
  809MOL0     H 6777   9.665   4.273   9.884 -0.2868  1.7863  0.7357
  809MOL0     H 6778  10.023   4.152  10.051 -0.3172 -0.7091 -2.7162
  809MOL0     H 6779  10.037   4.307  10.157  0.8821 -0.3311 -0.4430
  809MOL0     H 6780  10.129   4.282   9.875  2.8246 -1.3478  0.1650
  809MOL0     H 6781  10.139   4.425   9.975  3.1007  0.8293 -1.9455
  809MOL0     H 6782  10.267   4.157  10.024 -1.0275 -0.3432 -1.8627
  809MOL0     H 6783  10.293   4.299  10.127  0.2296 -0.4513 -0.5721
  809MOL0     H 6784  10.381   4.272   9.836 -0.0062 -1.0893  0.4705
  809MOL0     H 6785  10.402   4.414   9.943  1.4807  0.9386  0.5935
  809MOL0     H 6786  10.692   4.187  10.131  0.9070 -2.4553 -0.9003
  809MOL0     H 6787   9.874   4.190  10.255  1.2357 -0.3131 -0.3364
  809MOL0     H 6788   9.659   4.113  10.356  1.3290 -2.7976 -0.8053
  810MOL0     O 6789   4.162  10.201   9.275  0.4585  0.3051  0.2497
  810MOL0     C 6790   4.183  10.100   9.205  0.0338  0.5892  0.9547
  810MOL0     O 6791   4.090   9.990   9.179  0.5865 -0.1995 -0.3026
  810MOL0     C 6792   3.979   9.982   9.258 -0.6937 -0.1467  0.1303
  810MOL0     C 6793   3.871  10.071   9.238 -0.0956 -0.1602 -0.6948
  810MOL0     C 6794   3.759  10.072   9.326  0.0458 -0.5596  0.2981
  810MOL0     C 6795   3.744   9.971   9.421  0.0041  0.2323  0.0085
  810MOL0     O 6796   3.632   9.973   9.502 -0.7018  0.2338 -0.1741
  810MOL0     C 6797   3.548   9.857   9.493  0.2113  0.5627 -0.5773
  810MOL0     C 6798   3.410   9.902   9.548 -0.8340 -0.2518 -0.6044
  810MOL0     C 6799   3.316   9.789   9.563  0.1729  0.7703  0.0274
  810MOL0     C 6800   3.198   9.855   9.628 -0.3720 -0.2662  0.0015
  810MOL0     C 6801   3.079   9.758   9.659  0.5788  0.0278  0.4408
  810MOL0     C 6802   2.946   9.819   9.670 -0.7222  1.0210 -0.2540
  810MOL0     C 6803   2.852   9.715   9.732  0.4390 -0.2128  0.4336
  810MOL0     C 6804   2.704   9.760   9.736 -0.5328 -0.4614 -0.1921
  810MOL0     N 6805   2.675   9.867   9.838 -0.6099  0.0791  0.2072
  810MOL0     C 6806   2.583   9.975   9.820 -0.0888  0.6429 -0.4509
  810MOL0     C 6807   2.587  10.037   9.932 -0.0560 -0.3535  0.3483
  810MOL0     C 6808   2.517  10.166   9.971  0.2774 -0.2501  0.0603
  810MOL0     C 6809   2.600  10.289   9.931 -0.1262 -0.3487  0.9136
  810MOL0     C 6810   2.590  10.314   9.777  0.0043 -0.1522 -0.1442
  810MOL0     C 6811   2.725  10.375   9.715  0.0384 -0.1371  0.9440
  810MOL0     O 6812   2.833  10.284   9.717 -0.2315  0.0952  0.2570
  810MOL0     C 6813   2.955  10.324   9.653 -0.0491  0.2593 -0.0794
  810MOL0     C 6814   3.062  10.228   9.667  0.2241 -0.2684 -0.5387
  810MOL0     C 6815   3.185  10.247   9.603  0.2474 -0.1827  0.5961
  810MOL0     C 6816   3.209  10.359   9.519 -0.0811  0.5657 -1.0371
  810MOL0     C 6817   3.330  10.377   9.457  0.0576 -0.5777  0.2080
  810MOL0     O 6818   3.344  10.507   9.395  0.2394  0.1940 -0.5005
  810MOL0     C 6819   3.461  10.554   9.330 -0.7150 -1.2887 -0.0572
  810MOL0     C 6820   3.452  10.669   9.250  0.5874 -0.0473  0.0514
  810MOL0     C 6821   3.568  10.728   9.187  0.3983 -0.8090  0.7942
  810MOL0     C 6822   3.697  10.681   9.204 -0.4362  0.0438  0.6926
  810MOL0     O 6823   3.799  10.716   9.112 -0.5585  0.1671  0.2589
  810MOL0     C 6824   3.937  10.723   9.157 -0.7782  1.5432  0.0723
  810MOL0     C 6825   4.015  10.659   9.043 -0.7138  0.4363 -0.8592
  810MOL0     C 6826   3.962  10.521   9.011 -0.7046 -0.2621 -0.4277
  810MOL0     C 6827   4.072  10.461   8.915  0.0464 -0.8345  0.3001
  810MOL0     C 6828   4.058  10.303   8.897  0.1575 -0.5489  0.4195
  810MOL0     C 6829   3.927  10.255   8.838  1.0334 -0.9925  1.3758
  810MOL0     C 6830   3.879  10.328   8.707 -0.9847  0.2411  1.1435
  810MOL0     C 6831   3.770  10.254   8.631  0.4252 -0.1374  0.1453
  810MOL0    Cl 6832   3.618  10.262   8.719  0.3781 -0.2693 -0.1541
  810MOL0     C 6833   3.707  10.569   9.287 -0.2366 -0.4468  0.0924
  810MOL0     C 6834   3.593  10.510   9.344 -0.0651 -0.6891 -0.7700
  810MOL0     O 6835   3.422  10.289   9.456  0.0426 -0.2312 -0.7508
  810MOL0     C 6836   3.102  10.452   9.501  0.2901  0.3771  0.3862
  810MOL0     C 6837   2.976  10.436   9.566 -0.2123 -0.0078  0.0917
  810MOL0     N 6838   2.681   9.996  10.013 -1.2489 -0.1564 -0.2700
  810MOL0     N 6839   2.740   9.884   9.963  0.0359  0.1390 -0.1167
  810MOL0     C 6840   3.853   9.877   9.426  0.9824  1.8508  0.0918
  810MOL0     C 6841   3.968   9.881   9.349 -0.8737 -0.4693  0.6544
  810MOL0     C 6842   4.304  10.093   9.124 -0.0275 -0.9702 -0.5753
  810MOL0     C 6843   4.406  10.186   9.142  1.3968 -0.0899 -0.1540
  810MOL0     C 6844   4.512  10.174   9.062 -0.3195  0.4611 -0.5277
  810MOL0     C 6845   4.534  10.064   8.974 -0.5124  0.0045 -0.4487
  810MOL0     O 6846   4.645  10.055   8.893 -0.0176 -0.3838  1.0560
  810MOL0     C 6847   4.755  10.145   8.891  0.8458 -0.1053 -0.2445
  810MOL0     C 6848   4.828  10.152   9.021 -0.9568  0.3013 -0.7607
  810MOL0     C 6849   4.865  10.007   9.070  0.0773  0.8241 -0.5518
  810MOL0     C 6850   4.953  10.003   9.194 -0.4206  0.2429 -0.7988
  810MOL0     C 6851   5.094  10.030   9.161  0.2909  0.1569  0.0263
  810MOL0     C 6852   5.198  10.076   9.139 -0.6587  0.0821  0.0813
  810MOL0     C 6853   4.438   9.966   8.965 -0.1777 -0.5094 -1.2881
  810MOL0     C 6854   4.327   9.973   9.043  0.6571 -0.3291  0.3193
  810MOL0     H 6855   3.890  10.148   9.164  2.7136  0.7365  0.8389
  810MOL0     H 6856   3.691  10.156   9.320  0.4463 -0.2116  0.5930
  810MOL0     H 6857   3.586   9.768   9.544  0.1496  0.4861 -0.6623
  810MOL0     H 6858   3.540   9.816   9.391  0.1292  3.0180 -1.6343
  810MOL0     H 6859   3.374   9.979   9.479  1.2215 -0.7005 -2.3084
  810MOL0     H 6860   3.425   9.947   9.646 -1.3257  0.2721 -0.7723
  810MOL0     H 6861   3.354   9.718   9.637 -0.8629 -2.3313 -2.2280
  810MOL0     H 6862   3.298   9.741   9.467  0.5238  0.5835  0.0530
  810MOL0     H 6863   3.234   9.898   9.721  3.8688 -1.8384 -0.6621
  810MOL0     H 6864   3.163   9.934   9.561  0.5357  1.3311  1.3615
  810MOL0     H 6865   3.103   9.702   9.750  1.1995 -1.1482 -0.4201
  810MOL0     H 6866   3.061   9.690   9.576 -1.7471  0.5053  0.4757
  810MOL0     H 6867   2.914   9.852   9.571 -2.0849  0.5754  0.0243
  810MOL0     H 6868   2.954   9.910   9.731  0.9932 -1.0438  2.9332
  810MOL0     H 6869   2.855   9.635   9.658 -0.1906  1.3259 -1.3403
  810MOL0     H 6870   2.893   9.683   9.828  0.3779 -2.7670 -0.3133
  810MOL0     H 6871   2.651   9.670   9.768  0.8158 -1.5645 -0.9495
  810MOL0     H 6872   2.675   9.801   9.640  1.9383  2.8766  0.3105
  810MOL0     H 6873   2.522   9.996   9.733 -0.1595  1.4830 -0.2077
  810MOL0     H 6874   2.505  10.156  10.080  2.6743  1.9063  0.6023
  810MOL0     H 6875   2.415  10.164   9.931 -1.2144 -0.2364  3.4274
  810MOL0     H 6876   2.704  10.269   9.961  0.2717 -1.8528 -1.2101
  810MOL0     H 6877   2.569  10.369   9.999 -1.3677 -1.2903  1.4969
  810MOL0     H 6878   2.570  10.223   9.720  1.8980  0.2403 -1.5071
  810MOL0     H 6879   2.509  10.385   9.755  1.6070  1.2402 -1.9012
  810MOL0     H 6880   2.754  10.470   9.760 -0.6629  1.2201 -1.2882
  810MOL0     H 6881   2.709  10.404   9.611  4.6037  1.6424  0.5410
  810MOL0     H 6882   3.042  10.140   9.727 -0.6692  0.5709  0.4237
  810MOL0     H 6883   3.258  10.167   9.597 -0.5782 -0.9147  0.0197
  810MOL0     H 6884   3.355  10.717   9.246  1.1314  1.2359  1.4249
  810MOL0     H 6885   3.564  10.814   9.121  0.3357 -1.2119  0.2584
  810MOL0     H 6886   3.945  10.670   9.252 -1.2075  0.8988 -0.2387
  810MOL0     H 6887   3.969  10.825   9.178  1.7812  1.4221 -2.6875
  810MOL0     H 6888   4.119  10.644   9.074 -1.3185  0.0831  1.1538
  810MOL0     H 6889   3.997  10.733   8.965  1.8997  3.5205  1.2200
  810MOL0     H 6890   3.868  10.518   8.956 -1.2970  1.4467  0.4103
  810MOL0     H 6891   3.956  10.463   9.103 -3.0242  0.7591  0.1297
  810MOL0     H 6892   4.060  10.507   8.817  1.8745 -0.1823  0.3423
  810MOL0     H 6893   4.175  10.468   8.951 -0.0673 -1.7669  0.8403
  810MOL0     H 6894   4.075  10.261   8.997 -2.1483  1.6084  1.8296
  810MOL0     H 6895   4.138  10.263   8.834  0.1722  1.0572 -0.6349
  810MOL0     H 6896   3.844  10.270   8.906 -1.6726 -2.0986 -1.4400
  810MOL0     H 6897   3.935  10.148   8.815 -1.3125 -1.7446  3.6487
  810MOL0     H 6898   3.852  10.431   8.728 -1.3466  0.0667  1.5491
  810MOL0     H 6899   3.965  10.341   8.641 -0.8887 -0.1535  1.1877
  810MOL0     H 6900   3.802  10.150   8.617 -1.4211 -0.6193 -0.7889
  810MOL0     H 6901   3.769  10.284   8.526  1.7639 -4.4496 -1.3466
  810MOL0     H 6902   3.797  10.512   9.310 -0.3074 -0.9963 -0.9230
  810MOL0     H 6903   3.617  10.427   9.410  1.1441  1.2958  1.4289
  810MOL0     H 6904   3.107  10.538   9.435  0.9538 -1.5588 -2.2591
  810MOL0     H 6905   2.904  10.514   9.542 -0.2128 -0.4801 -1.6430
  810MOL0     H 6906   3.846   9.794   9.496 -0.0594  1.8314 -0.0173
  810MOL0     H 6907   4.046   9.805   9.354 -1.7207 -1.3750  0.3290
  810MOL0     H 6908   4.405  10.266   9.215  1.4111 -0.7953  0.6282
  810MOL0     H 6909   4.577  10.261   9.065 -0.2448  0.4192 -0.9152
  810MOL0     H 6910   4.714  10.244   8.868 -1.3418 -0.0956  3.0794
  810MOL0     H 6911   4.822  10.100   8.816  1.1307 -2.5121  1.3404
  810MOL0     H 6912   4.924  10.202   9.011  0.8275 -3.1850 -3.1332
  810MOL0     H 6913   4.762  10.198   9.096 -1.7073  0.9820 -1.8123
  810MOL0     H 6914   4.930   9.960   8.996  0.3922 -0.2430  0.3833
  810MOL0     H 6915   4.769   9.955   9.079 -0.3901  1.6520 -0.6335
  810MOL0     H 6916   4.931  10.075   9.273 -0.3864 -1.3794  0.7422
  810MOL0     H 6917   4.938   9.906   9.242 -0.1466  1.3484  1.6630
  810MOL0     H 6918   5.291  10.125   9.116 -0.6904 -0.5203 -1.4559
  810MOL0     H 6919   4.450   9.883   8.896 -2.0164 -0.7260 -1.3775
  810MOL0     H 6920   4.256   9.891   9.045 -0.0792  0.2401 -1.1623
  811MOL0     O 6921   1.516   3.584   3.752 -0.7141 -0.4545  0.2518
  811MOL0     C 6922   1.587   3.494   3.788  0.0145 -0.1976  0.6889
  811MOL0     O 6923   1.548   3.382   3.848  0.1371  0.9988  0.4305
  811MOL0     C 6924   1.414   3.344   3.857  0.5429  0.2265 -0.3801
  811MOL0     C 6925   1.334   3.375   3.970  0.7013 -0.1828 -0.2804
  811MOL0     C 6926   1.204   3.340   3.976 -0.2923 -0.2705 -0.2828
  811MOL0     C 6927   1.143   3.277   3.861  0.5851  0.5606  0.4623
  811MOL0     O 6928   1.010   3.237   3.847 -0.3990  0.3314 -0.4467
  811MOL0     C 6929   0.918   3.329   3.900 -0.0511 -0.5699 -0.7436
  811MOL0     C 6930   0.775   3.272   3.853  0.2865  0.1163 -0.3270
  811MOL0     C 6931   0.668   3.372   3.889  1.2598  0.7235 -0.6699
  811MOL0     C 6932   0.518   3.335   3.875  0.1224 -0.2301 -0.5211
  811MOL0     C 6933   0.474   3.236   3.991  0.4837 -0.2107  0.6004
  811MOL0     C 6934   0.329   3.175   3.989  0.7401  0.5587 -0.0519
  811MOL0     C 6935   0.215   3.279   3.953 -0.0318 -0.1028 -0.9772
  811MOL0     C 6936   0.071   3.253   3.978 -0.5766 -0.0412 -0.8157
  811MOL0     N 6937   0.021   3.129   3.912  0.3112 -0.2958 -0.6395
  811MOL0     C 6938  -0.021   3.020   3.974 -0.1778 -0.6541 -0.3317
  811MOL0     C 6939  -0.079   2.943   3.886 -0.5733  0.6848 -0.8760
  811MOL0     C 6940  -0.160   2.813   3.898  0.5676  0.2649 -0.5815
  811MOL0     C 6941  -0.300   2.838   3.966 -0.3699 -0.2160 -0.1683
  811MOL0     C 6942  -0.370   2.961   3.907 -0.0680 -0.1001 -0.2857
  811MOL0     C 6943  -0.523   2.939   3.894 -0.4753 -0.6367  1.1057
  811MOL0     O 6944  -0.547   2.873   3.768  0.3479 -0.6956  0.0178
  811MOL0     C 6945  -0.659   2.897   3.702 -0.6271 -0.0125  0.3776
  811MOL0     C 6946  -0.778   2.926   3.761  0.1402 -0.7331 -0.2416
  811MOL0     C 6947  -0.892   2.940   3.682 -0.5315 -0.2371 -0.1380
  811MOL0     C 6948  -0.888   2.934   3.539  0.0787 -0.1908  0.9745
  811MOL0     C 6949  -1.017   2.924   3.452 -0.8096  0.1925 -0.7427
  811MOL0     O 6950  -1.128   2.915   3.524  0.5320  0.4450  0.4752
  811MOL0     C 6951  -1.248   2.899   3.461  0.7782 -0.2040 -0.1283
  811MOL0     C 6952  -1.305   2.994   3.376  0.2208 -1.3948  0.1687
  811MOL0     C 6953  -1.425   2.967   3.312 -0.4547 -0.5911 -0.9476
  811MOL0     C 6954  -1.492   2.848   3.328 -0.1372  0.4842  0.4082
  811MOL0     O 6955  -1.609   2.823   3.258  0.3162 -0.1760  0.0706
  811MOL0     C 6956  -1.700   2.714   3.292 -0.3557  0.4383  0.3999
  811MOL0     C 6957  -1.828   2.705   3.208  0.6021  0.6062  0.3145
  811MOL0     C 6958  -1.797   2.705   3.061  1.0881  0.8413  0.0638
  811MOL0     C 6959  -1.928   2.648   2.984 -0.1736 -0.3195 -0.2194
  811MOL0     C 6960  -1.921   2.653   2.830 -0.0090  0.2647 -0.0711
  811MOL0     C 6961  -1.825   2.551   2.780 -0.2594 -0.1080  0.6506
  811MOL0     C 6962  -1.822   2.559   2.630  0.5102  0.1225  0.0306
  811MOL0     C 6963  -1.762   2.444   2.563  0.6286 -0.0348 -0.5771
  811MOL0    Cl 6964  -1.584   2.410   2.601  0.6795  0.2287 -0.1791
  811MOL0     C 6965  -1.427   2.743   3.405 -0.9116 -0.5941 -0.2109
  811MOL0     C 6966  -1.313   2.774   3.478 -0.9519 -0.7198 -0.6314
  811MOL0     O 6967  -1.005   2.911   3.331 -0.4765 -0.1418  0.4908
  811MOL0     C 6968  -0.760   2.922   3.476  0.2541 -0.1996 -0.0504
  811MOL0     C 6969  -0.647   2.911   3.562  0.6486 -0.1812 -0.0375
  811MOL0     N 6970  -0.058   3.000   3.763 -0.3759 -0.1001  0.0144
  811MOL0     N 6971  -0.017   3.117   3.777 -0.0615 -0.6131 -0.1090
  811MOL0     C 6972   1.220   3.242   3.747  1.2347 -0.0996  0.2473
  811MOL0     C 6973   1.348   3.285   3.745 -0.9948 -0.0263  0.4197
  811MOL0     C 6974   1.735   3.506   3.766 -0.0552 -0.3005 -0.7078
  811MOL0     C 6975   1.824   3.403   3.791 -0.5231  0.5550 -0.9019
  811MOL0     C 6976   1.957   3.413   3.759  0.0683 -0.6866 -0.3259
  811MOL0     C 6977   1.999   3.525   3.689 -0.7938 -0.1434 -1.0782
  811MOL0     O 6978   2.136   3.530   3.653  0.8252  0.1910  0.5394
  811MOL0     C 6979   2.168   3.558   3.513 -1.0711  0.5120  0.4965
  811MOL0     C 6980   2.199   3.709   3.482 -0.2078  0.0980 -1.0133
  811MOL0     C 6981   2.290   3.756   3.590  0.1882  1.0836 -0.5976
  811MOL0     C 6982   2.329   3.896   3.573  0.9808  0.1603  0.4602
  811MOL0     C 6983   2.420   3.928   3.686 -0.5809 -0.9175  0.0002
  811MOL0     C 6984   2.492   3.952   3.792 -0.3446  0.8412 -0.6155
  811MOL0     C 6985   1.918   3.633   3.662  0.1080 -0.5333  0.0129
  811MOL0     C 6986   1.781   3.623   3.700 -0.5316 -0.2882  0.8614
  811MOL0     H 6987   1.382   3.415   4.059  0.9312 -3.0232  0.9824
  811MOL0     H 6988   1.133   3.357   4.056 -0.3787  0.5599 -0.5219
  811MOL0     H 6989   0.945   3.425   3.855  1.7607 -0.9331 -0.4899
  811MOL0     H 6990   0.932   3.326   4.008  0.7252  0.3389 -0.8087
  811MOL0     H 6991   0.756   3.172   3.894 -2.9764 -0.0666 -1.9800
  811MOL0     H 6992   0.776   3.257   3.745  0.0659 -1.7593 -0.1123
  811MOL0     H 6993   0.690   3.456   3.821 -1.6795  1.1037 -1.3044
  811MOL0     H 6994   0.675   3.405   3.993  2.1153  4.3525 -1.7192
  811MOL0     H 6995   0.446   3.416   3.859 -2.6955 -2.6773 -1.2096
  811MOL0     H 6996   0.512   3.287   3.776  0.4241 -0.7828 -0.2804
  811MOL0     H 6997   0.479   3.284   4.089 -0.5642  0.8330  0.1728
  811MOL0     H 6998   0.547   3.156   4.005  1.3730  0.8965  2.7929
  811MOL0     H 6999   0.308   3.128   4.085 -0.4322 -0.5089 -0.7908
  811MOL0     H 7000   0.326   3.100   3.909 -2.6195  1.1142 -0.5941
  811MOL0     H 7001   0.241   3.368   4.012  0.8892 -2.2757  2.1100
  811MOL0     H 7002   0.223   3.302   3.846 -0.5284  0.5213 -0.8875
  811MOL0     H 7003   0.004   3.337   3.958  2.1268  2.8105  1.1340
  811MOL0     H 7004   0.055   3.229   4.084  0.7698  1.2625 -0.2726
  811MOL0     H 7005  -0.024   2.998   4.080 -0.5926 -0.7407 -0.3581
  811MOL0     H 7006  -0.117   2.751   3.978 -0.6088  1.5393  1.1147
  811MOL0     H 7007  -0.161   2.750   3.809  1.0294 -2.5263  1.2472
  811MOL0     H 7008  -0.285   2.842   4.074  0.4127 -0.0875 -0.2772
  811MOL0     H 7009  -0.363   2.748   3.964  0.5379 -0.8603 -1.7868
  811MOL0     H 7010  -0.337   3.049   3.964 -1.7518  1.7213 -1.9843
  811MOL0     H 7011  -0.343   2.990   3.805  6.8326 -0.3418  1.0054
  811MOL0     H 7012  -0.584   3.029   3.905 -2.0857 -1.8307  2.6341
  811MOL0     H 7013  -0.554   2.874   3.977  2.5227 -2.6668  0.8037
  811MOL0     H 7014  -0.794   2.938   3.867 -1.4797 -1.2284 -0.4010
  811MOL0     H 7015  -0.980   2.948   3.744  1.9822 -0.6685  3.8265
  811MOL0     H 7016  -1.264   3.092   3.355 -0.6558 -0.5989  1.9355
  811MOL0     H 7017  -1.463   3.050   3.254  0.0402  1.4021  1.4393
  811MOL0     H 7018  -1.722   2.714   3.399 -0.3963  0.1035  0.3951
  811MOL0     H 7019  -1.638   2.625   3.281 -2.3687 -1.1131  0.8468
  811MOL0     H 7020  -1.907   2.780   3.224 -3.7432 -3.5067  0.4211
  811MOL0     H 7021  -1.875   2.608   3.226  3.5617 -1.9711 -3.9612
  811MOL0     H 7022  -1.713   2.638   3.039 -0.5969 -0.6196 -2.4427
  811MOL0     H 7023  -1.772   2.807   3.029  1.2992  0.8546  0.2650
  811MOL0     H 7024  -1.956   2.546   3.013 -0.6597 -0.6293 -1.6810
  811MOL0     H 7025  -2.015   2.706   3.016 -0.5477 -0.4519 -0.9770
  811MOL0     H 7026  -1.887   2.752   2.799  0.5242  0.3743  0.8166
  811MOL0     H 7027  -2.017   2.633   2.782 -0.9277  4.2435 -0.1599
  811MOL0     H 7028  -1.856   2.453   2.817 -0.2277 -0.1403  0.5904
  811MOL0     H 7029  -1.722   2.564   2.813 -0.1167  1.5520 -0.3683
  811MOL0     H 7030  -1.926   2.557   2.596  1.5423 -0.1365 -3.4127
  811MOL0     H 7031  -1.779   2.652   2.591  0.0706  0.6709  0.8166
  811MOL0     H 7032  -1.759   2.469   2.457  1.0113  0.6606 -0.4022
  811MOL0     H 7033  -1.815   2.350   2.583  0.4894  0.3122  0.7506
  811MOL0     H 7034  -1.464   2.641   3.400 -0.2865 -0.8324 -0.1632
  811MOL0     H 7035  -1.260   2.691   3.524 -1.3217 -1.4762 -1.5289
  811MOL0     H 7036  -0.742   2.917   3.369  1.3028  0.0048  0.1091
  811MOL0     H 7037  -0.546   2.896   3.526  0.9968  0.0197  0.8516
  811MOL0     H 7038   1.169   3.182   3.672 -0.3338  1.2661  0.1657
  811MOL0     H 7039   1.412   3.255   3.663  0.7836  0.0992  1.6925
  811MOL0     H 7040   1.795   3.317   3.852 -0.5928  2.5831  2.1778
  811MOL0     H 7041   2.021   3.327   3.779 -0.9325 -2.5766 -4.2757
  811MOL0     H 7042   2.092   3.524   3.442  0.6306  3.3448 -3.0340
  811MOL0     H 7043   2.258   3.506   3.478 -1.2948  0.2420  0.3164
  811MOL0     H 7044   2.250   3.719   3.385  1.9208 -1.1808 -0.0966
  811MOL0     H 7045   2.110   3.772   3.476  0.3383  0.7692 -2.7704
  811MOL0     H 7046   2.374   3.686   3.598 -0.1196  0.8641  1.0255
  811MOL0     H 7047   2.229   3.751   3.681 -0.2452  0.4781 -0.9218
  811MOL0     H 7048   2.391   3.909   3.484 -2.0190 -0.5785 -1.9117
  811MOL0     H 7049   2.237   3.955   3.572  0.0360 -1.2694  0.3824
  811MOL0     H 7050   2.574   3.973   3.857 -0.4311 -2.4919  0.7334
  811MOL0     H 7051   1.952   3.717   3.603  1.2912  0.2181  1.6781
  811MOL0     H 7052   1.718   3.709   3.680  1.5608  1.0049 -0.5340
  812MOL0     O 7053   1.890   9.299   1.628 -0.2587  0.1687  0.4206
  812MOL0     C 7054   1.902   9.350   1.733  0.5648  0.2503  0.0968
  812MOL0     O 7055   1.824   9.314   1.847 -0.1970  0.5917  0.6116
  812MOL0     C 7056   1.744   9.199   1.861 -0.3527 -0.4856  0.2001
  812MOL0     C 7057   1.627   9.210   1.945 -0.4741  0.7187 -0.3833
  812MOL0     C 7058   1.540   9.106   1.962 -0.1070 -0.0876  0.1358
  812MOL0     C 7059   1.569   8.993   1.890  0.1510 -0.3930  0.7591
  812MOL0     O 7060   1.475   8.891   1.893  0.5815 -0.3111 -0.5303
  812MOL0     C 7061   1.483   8.811   2.011 -0.0860  0.1683 -0.0897
  812MOL0     C 7062   1.372   8.822   2.114 -0.4357 -0.0472 -0.7311
  812MOL0     C 7063   1.248   8.749   2.082 -0.5141 -0.5159 -0.3050
  812MOL0     C 7064   1.173   8.725   2.208 -0.4364 -0.5406 -0.1839
  812MOL0     C 7065   1.035   8.696   2.171 -0.1057  0.5657 -0.3234
  812MOL0     C 7066   0.971   8.620   2.296  0.0087  0.4163  0.1565
  812MOL0     C 7067   0.835   8.566   2.240 -1.4170  0.1662  0.5285
  812MOL0     C 7068   0.732   8.529   2.352  0.3857 -1.1884  0.4413
  812MOL0     N 7069   0.595   8.514   2.302 -0.4503  0.2425  0.3948
  812MOL0     C 7070   0.524   8.608   2.230 -0.7448  0.3771 -0.6147
  812MOL0     C 7071   0.398   8.567   2.235  0.3985  0.3995 -0.4049
  812MOL0     C 7072   0.280   8.633   2.168 -0.4868  0.3405 -0.6041
  812MOL0     C 7073   0.164   8.658   2.271 -0.3075  0.6651  0.0146
  812MOL0     C 7074   0.036   8.714   2.202  0.7224 -0.2254  0.1417
  812MOL0     C 7075  -0.089   8.730   2.294 -0.2837 -0.7379  0.5219
  812MOL0     O 7076  -0.195   8.800   2.230 -0.2550  0.8080  0.5746
  812MOL0     C 7077  -0.308   8.829   2.310  0.6699 -0.3444  0.4794
  812MOL0     C 7078  -0.305   8.863   2.449 -0.0926  0.1978 -0.1596
  812MOL0     C 7079  -0.432   8.876   2.511  0.0496 -0.2574 -1.1244
  812MOL0     C 7080  -0.560   8.861   2.452  0.1423 -0.3953  0.9532
  812MOL0     C 7081  -0.680   8.894   2.540 -0.3975  0.6500 -0.4993
  812MOL0     O 7082  -0.798   8.834   2.514 -0.1380 -0.0444  1.0104
  812MOL0     C 7083  -0.922   8.896   2.529 -0.4494  0.1187 -1.2729
  812MOL0     C 7084  -0.943   9.033   2.553  0.0068  0.5230 -0.0173
  812MOL0     C 7085  -1.075   9.083   2.545  0.7021 -0.8328  0.1321
  812MOL0     C 7086  -1.189   8.989   2.536  0.4661 -0.4196  0.0402
  812MOL0     O 7087  -1.324   9.019   2.534 -1.1126 -0.2426  0.5218
  812MOL0     C 7088  -1.372   9.148   2.496  0.1938 -0.5891  0.5294
  812MOL0     C 7089  -1.470   9.115   2.382 -0.4623  0.0405 -0.0919
  812MOL0     C 7090  -1.500   9.241   2.304  0.0690 -0.1374 -0.6634
  812MOL0     C 7091  -1.597   9.219   2.186 -0.0679 -0.5460 -0.7350
  812MOL0     C 7092  -1.601   9.338   2.082 -0.2087  0.7900 -0.8615
  812MOL0     C 7093  -1.692   9.286   1.974 -0.4897 -0.2052  0.5039
  812MOL0     C 7094  -1.680   9.369   1.849 -0.1750 -0.7414  0.7636
  812MOL0     C 7095  -1.738   9.500   1.860  0.3794  0.6939 -0.0681
  812MOL0    Cl 7096  -1.920   9.478   1.870 -0.0675  0.2789 -0.1154
  812MOL0     C 7097  -1.159   8.854   2.531 -0.1301 -0.5700 -0.1669
  812MOL0     C 7098  -1.031   8.812   2.516 -0.7507 -0.8220  0.1163
  812MOL0     O 7099  -0.661   8.973   2.637  0.1478  0.3744 -0.0082
  812MOL0     C 7100  -0.557   8.833   2.314  0.6150 -0.8182  1.0058
  812MOL0     C 7101  -0.433   8.818   2.248  1.4354 -0.3806 -0.1389
  812MOL0     N 7102   0.394   8.462   2.333 -0.1507  0.2623  0.4456
  812MOL0     N 7103   0.513   8.425   2.365  0.1956 -1.0651  0.5005
  812MOL0     C 7104   1.677   8.978   1.808  0.6829  1.0798 -0.4601
  812MOL0     C 7105   1.770   9.080   1.797  0.5776  0.2629 -0.1607
  812MOL0     C 7106   1.996   9.468   1.749 -0.7042 -0.0635 -0.6157
  812MOL0     C 7107   2.101   9.478   1.657 -0.5166 -0.5309  0.6639
  812MOL0     C 7108   2.185   9.582   1.668 -0.8402  0.3087  0.1017
  812MOL0     C 7109   2.177   9.676   1.765 -0.2940 -0.7499 -0.2190
  812MOL0     O 7110   2.277   9.770   1.760  0.2177 -0.3248 -0.9442
  812MOL0     C 7111   2.296   9.828   1.888 -0.0453  0.0471 -0.5884
  812MOL0     C 7112   2.433   9.893   1.883  0.1476 -0.4508 -0.3863
  812MOL0     C 7113   2.416  10.033   1.942  0.3009  0.6309 -0.6890
  812MOL0     C 7114   2.536  10.116   1.916 -0.8862 -0.0819  0.5576
  812MOL0     C 7115   2.515  10.243   1.984 -0.4873  0.3460  0.0905
  812MOL0     C 7116   2.502  10.353   2.030  0.3895  0.3386 -0.3919
  812MOL0     C 7117   2.059   9.675   1.846 -0.0465  0.0572 -0.0348
  812MOL0     C 7118   1.968   9.567   1.847 -0.2855 -0.2446 -0.1488
  812MOL0     H 7119   1.596   9.301   1.995  0.8690  0.1879  1.4993
  812MOL0     H 7120   1.452   9.109   2.026  0.5979 -2.2402  1.3020
  812MOL0     H 7121   1.575   8.833   2.065 -1.7845  2.0698  2.2492
  812MOL0     H 7122   1.490   8.708   1.975 -4.1113 -0.0084 -0.8000
  812MOL0     H 7123   1.362   8.931   2.127  3.6416  0.6195 -1.5594
  812MOL0     H 7124   1.409   8.782   2.208  0.7466  0.8876 -0.7766
  812MOL0     H 7125   1.272   8.658   2.025  1.4411 -0.3091  0.1006
  812MOL0     H 7126   1.195   8.813   2.011 -0.4542  0.2155  0.2934
  812MOL0     H 7127   1.207   8.637   2.264  1.9558  0.5404  0.1864
  812MOL0     H 7128   1.179   8.810   2.277 -0.3243  1.5922 -2.6539
  812MOL0     H 7129   1.030   8.639   2.078 -2.0232 -1.4866  0.9361
  812MOL0     H 7130   0.983   8.789   2.146 -1.9630 -0.5730 -0.8414
  812MOL0     H 7131   0.961   8.683   2.385 -0.0990 -0.2459  0.6165
  812MOL0     H 7132   1.029   8.530   2.316  1.3286  0.7203 -1.9375
  812MOL0     H 7133   0.794   8.640   2.171  3.9490  1.9939 -1.1848
  812MOL0     H 7134   0.848   8.473   2.184  0.0426  0.4524  0.3701
  812MOL0     H 7135   0.741   8.605   2.430 -1.7902 -0.7222  0.2877
  812MOL0     H 7136   0.764   8.430   2.383  1.7643 -1.3036 -1.1990
  812MOL0     H 7137   0.563   8.695   2.179 -2.2201  2.6815  1.8996
  812MOL0     H 7138   0.248   8.555   2.098  1.4327 -2.4694  1.3927
  812MOL0     H 7139   0.310   8.725   2.117 -1.2393  1.8312  1.4873
  812MOL0     H 7140   0.187   8.725   2.354 -0.8457  1.8336 -0.7533
  812MOL0     H 7141   0.138   8.560   2.313  0.3576 -0.5834 -2.3380
  812MOL0     H 7142   0.064   8.815   2.171 -0.1021 -0.7936 -2.8320
  812MOL0     H 7143   0.015   8.661   2.108  0.8683  0.7612 -0.4693
  812MOL0     H 7144  -0.052   8.776   2.386 -0.8943 -0.9936  0.9029
  812MOL0     H 7145  -0.120   8.626   2.312 -0.3019 -0.3972  2.6054
  812MOL0     H 7146  -0.212   8.880   2.501 -0.3689  0.4200  0.2714
  812MOL0     H 7147  -0.439   8.908   2.614 -1.7704 -0.2028 -1.2258
  812MOL0     H 7148  -0.858   9.100   2.562  2.7221 -2.6538  0.3190
  812MOL0     H 7149  -1.082   9.191   2.533  0.8516 -0.8940 -0.5794
  812MOL0     H 7150  -1.295   9.215   2.458 -3.3075  3.9117  0.5868
  812MOL0     H 7151  -1.420   9.201   2.579  1.8483  3.3618 -0.8302
  812MOL0     H 7152  -1.562   9.074   2.426 -1.3642  1.6472 -0.3896
  812MOL0     H 7153  -1.431   9.032   2.322  1.1374  1.3489 -0.9208
  812MOL0     H 7154  -1.407   9.289   2.273  0.6686 -1.4110 -0.9218
  812MOL0     H 7155  -1.555   9.296   2.380 -0.7570 -1.1993 -0.4617
  812MOL0     H 7156  -1.578   9.127   2.130 -0.5430  0.1707 -2.1126
  812MOL0     H 7157  -1.699   9.207   2.224  0.0422 -2.5838 -0.9613
  812MOL0     H 7158  -1.496   9.354   2.057  0.6027 -1.9025  0.4993
  812MOL0     H 7159  -1.647   9.426   2.129  1.0729  0.0501  2.0177
  812MOL0     H 7160  -1.793   9.296   2.014 -1.2193 -0.9371 -1.0944
  812MOL0     H 7161  -1.663   9.184   1.947 -2.4532 -0.2727 -1.6151
  812MOL0     H 7162  -1.577   9.362   1.812 -0.7241  0.7159 -1.2108
  812MOL0     H 7163  -1.741   9.315   1.776 -2.4763  1.0310  1.2863
  812MOL0     H 7164  -1.720   9.566   1.774 -2.3262  1.7996  0.1305
  812MOL0     H 7165  -1.696   9.559   1.941  3.0868 -0.6429 -0.3752
  812MOL0     H 7166  -1.243   8.784   2.528 -1.8013  1.3664 -1.6161
  812MOL0     H 7167  -1.022   8.710   2.482 -1.7165  0.0001 -2.8870
  812MOL0     H 7168  -0.642   8.821   2.249  1.2108  1.4033 -0.2750
  812MOL0     H 7169  -0.443   8.801   2.141 -1.1605 -0.9593  0.1309
  812MOL0     H 7170   1.678   8.877   1.767 -1.7106  0.8909 -0.1927
  812MOL0     H 7171   1.864   9.061   1.745  0.9683 -0.8610  0.8990
  812MOL0     H 7172   2.122   9.409   1.577  4.7357 -0.4520  1.6188
  812MOL0     H 7173   2.267   9.596   1.599  0.5295  1.0980  1.8048
  812MOL0     H 7174   2.301   9.752   1.967 -2.8540 -0.7511 -1.0976
  812MOL0     H 7175   2.214   9.894   1.913  1.8445  1.9436  1.0041
  812MOL0     H 7176   2.497   9.833   1.949  0.4935  0.3269  0.0081
  812MOL0     H 7177   2.479   9.886   1.784  1.1617 -0.9766  0.1020
  812MOL0     H 7178   2.392  10.026   2.048  0.2092  1.3290 -0.6553
  812MOL0     H 7179   2.334  10.087   1.893  0.5507  1.1264 -0.5721
  812MOL0     H 7180   2.621  10.064   1.961 -0.2077  0.6378  0.1249
  812MOL0     H 7181   2.547  10.130   1.808  1.1927 -5.0975 -0.1778
  812MOL0     H 7182   2.489  10.450   2.074 -1.0586  0.1326 -0.3194
  812MOL0     H 7183   2.038   9.760   1.911 -2.7333 -0.4387 -0.1650
  812MOL0     H 7184   1.882   9.559   1.913 -1.6779  1.6608 -1.6217
  813MOL0     O 7185   2.622   5.703  10.706  1.2072 -0.0060  0.1524
  813MOL0     C 7186   2.567   5.805  10.687  0.0426  0.5091 -0.0234
  813MOL0     O 7187   2.447   5.821  10.623  0.6368 -0.0437 -0.5133
  813MOL0     C 7188   2.380   5.712  10.578  0.3631  1.2137 -0.4751
  813MOL0     C 7189   2.369   5.696  10.439 -1.3356  0.7758  0.3580
  813MOL0     C 7190   2.310   5.584  10.390  0.7860 -0.1761 -0.1254
  813MOL0     C 7191   2.260   5.483  10.481 -0.1001  0.1532  0.1084
  813MOL0     O 7192   2.195   5.373  10.437  0.3960  0.3497  0.2388
  813MOL0     C 7193   2.290   5.275  10.384  1.3113  0.7815  0.5102
  813MOL0     C 7194   2.248   5.287  10.228 -0.0955  0.7824  0.3205
  813MOL0     C 7195   2.113   5.243  10.172 -0.6770  0.0304 -0.0407
  813MOL0     C 7196   1.986   5.274  10.246 -0.3532 -0.2429  0.1214
  813MOL0     C 7197   1.862   5.218  10.170 -0.1852  0.1951 -0.8381
  813MOL0     C 7198   1.733   5.231  10.264  0.1442 -0.0820  0.8770
  813MOL0     C 7199   1.602   5.210  10.189  0.5581  0.6321 -0.0872
  813MOL0     C 7200   1.579   5.075  10.118  0.8166 -0.0081 -0.0787
  813MOL0     N 7201   1.456   5.067  10.039 -0.6548  0.4998  0.1639
  813MOL0     C 7202   1.324   5.077  10.087 -0.2837 -0.3231  0.5843
  813MOL0     C 7203   1.240   5.030   9.994 -0.1622  0.3380  0.7850
  813MOL0     C 7204   1.090   5.013  10.001 -0.2566 -0.3725  1.5455
  813MOL0     C 7205   1.029   4.872  10.014 -0.4556 -0.3718 -0.5202
  813MOL0     C 7206   1.045   4.820  10.153 -0.9347  0.4686 -0.8354
  813MOL0     C 7207   0.992   4.670  10.158 -0.0619  0.1816 -0.4432
  813MOL0     O 7208   0.858   4.672  10.113 -0.4392 -0.1598 -0.6790
  813MOL0     C 7209   0.751   4.707  10.193  0.6316 -0.5345  0.0320
  813MOL0     C 7210   0.763   4.728  10.333  0.1906 -0.1873 -0.5727
  813MOL0     C 7211   0.644   4.769  10.405 -0.1728  0.4739 -0.0164
  813MOL0     C 7212   0.522   4.800  10.336 -0.1491  0.0595 -0.2258
  813MOL0     C 7213   0.409   4.856  10.404 -0.2388 -0.2279 -0.2427
  813MOL0     O 7214   0.408   4.855  10.545 -0.4625  0.2965  0.2054
  813MOL0     C 7215   0.322   4.944  10.603  0.0958  0.5510  0.3709
  813MOL0     C 7216   0.203   4.899  10.664  0.4376  0.4966  0.1728
  813MOL0     C 7217   0.111   4.995  10.714 -0.2335 -0.1343  0.9903
  813MOL0     C 7218   0.140   5.129  10.704 -0.2580 -0.4345  0.5165
  813MOL0     O 7219   0.047   5.227  10.738  0.0053 -1.0042  0.9040
  813MOL0     C 7220  -0.087   5.198  10.761 -0.1873  0.6518  0.0577
  813MOL0     C 7221  -0.159   5.327  10.809  0.0405 -0.3136 -0.8076
  813MOL0     C 7222  -0.309   5.306  10.824 -0.2455 -0.6738  0.3042
  813MOL0     C 7223  -0.349   5.189  10.913  0.6981  0.7976 -0.0745
  813MOL0     C 7224  -0.296   5.183  11.050  0.0452 -0.5046 -0.0613
  813MOL0     C 7225  -0.302   5.317  11.129  0.7068 -0.6636  0.2481
  813MOL0     C 7226  -0.247   5.287  11.275 -0.7710  0.1571  0.6322
  813MOL0     C 7227  -0.208   5.403  11.355  0.3203  0.3527 -0.2910
  813MOL0    Cl 7228  -0.294   5.560  11.348 -0.1127  0.1533 -0.1352
  813MOL0     C 7229   0.265   5.175  10.660  0.0060 -0.0612  0.1833
  813MOL0     C 7230   0.353   5.082  10.603 -0.0779 -0.7764  0.1620
  813MOL0     O 7231   0.318   4.908  10.338 -0.0037  0.4327 -0.0719
  813MOL0     C 7232   0.519   4.779  10.194 -0.7292 -0.7140  0.4077
  813MOL0     C 7233   0.631   4.737  10.124 -0.4661 -0.2255 -0.3688
  813MOL0     N 7234   1.317   4.990   9.884 -0.5642  0.4202 -0.0725
  813MOL0     N 7235   1.443   5.021   9.909  0.2049 -0.2285  0.1688
  813MOL0     C 7236   2.269   5.497  10.618  0.7185 -0.9387  0.1262
  813MOL0     C 7237   2.331   5.612  10.664  1.0444 -0.9384 -0.4860
  813MOL0     C 7238   2.634   5.937  10.727 -0.3297  0.6910 -0.3652
  813MOL0     C 7239   2.760   5.949  10.804 -0.1454  0.0828 -0.4438
  813MOL0     C 7240   2.821   6.072  10.839  0.1069 -0.0490 -0.5939
  813MOL0     C 7241   2.752   6.192  10.808  0.7704 -0.4251 -0.4182
  813MOL0     O 7242   2.801   6.319  10.836 -0.3296 -0.4946  0.7266
  813MOL0     C 7243   2.933   6.337  10.894  0.5133  0.0333  1.0291
  813MOL0     C 7244   2.934   6.323  11.046 -0.6996 -0.1953 -0.3020
  813MOL0     C 7245   2.902   6.461  11.098  0.2093  0.6695 -0.3563
  813MOL0     C 7246   2.889   6.446  11.254 -0.1190  0.5991  1.2511
  813MOL0     C 7247   3.015   6.480  11.318  0.6902 -0.1617 -0.4234
  813MOL0     C 7248   3.129   6.502  11.364 -0.2982  0.7811 -0.5831
  813MOL0     C 7249   2.633   6.187  10.746  0.4258  0.3184 -0.0179
  813MOL0     C 7250   2.566   6.068  10.705  0.2822 -0.3090  0.3586
  813MOL0     H 7251   2.401   5.774  10.370  1.6980  0.6029  1.4023
  813MOL0     H 7252   2.294   5.584  10.283 -0.6472  4.1813 -0.1049
  813MOL0     H 7253   2.286   5.169  10.411  0.2219  0.5497 -0.4861
  813MOL0     H 7254   2.392   5.312  10.398  1.8125  0.6018 -2.1602
  813MOL0     H 7255   2.322   5.222  10.179 -1.4643 -0.0965 -0.6575
  813MOL0     H 7256   2.260   5.388  10.188 -1.0907 -0.2015 -2.8090
  813MOL0     H 7257   2.124   5.134  10.166 -2.7046 -0.2349  0.4587
  813MOL0     H 7258   2.105   5.285  10.072  0.0618 -0.1528 -0.1855
  813MOL0     H 7259   1.995   5.226  10.344  0.7404 -1.5334 -0.5844
  813MOL0     H 7260   1.974   5.381  10.266 -1.8435 -0.3333 -0.1222
  813MOL0     H 7261   1.882   5.113  10.145 -0.9492  0.3313 -2.1313
  813MOL0     H 7262   1.842   5.268  10.074  0.9748 -0.6025 -1.5133
  813MOL0     H 7263   1.729   5.329  10.313  1.9577  0.0771  0.7878
  813MOL0     H 7264   1.739   5.156  10.344  0.9476  0.9238  1.8114
  813MOL0     H 7265   1.516   5.214  10.257 -0.0912  5.0948 -0.8772
  813MOL0     H 7266   1.583   5.293  10.119 -1.2773 -0.0985 -0.5276
  813MOL0     H 7267   1.593   5.003  10.199 -0.0369 -0.0959 -0.0000
  813MOL0     H 7268   1.661   5.053  10.049  0.9851 -0.9699  0.4122
  813MOL0     H 7269   1.293   5.103  10.188  0.1270 -0.3264  0.7115
  813MOL0     H 7270   1.069   5.044   9.898 -0.3543  0.7464  1.8908
  813MOL0     H 7271   1.039   5.081  10.069  2.1784  1.8530  1.2949
  813MOL0     H 7272   1.070   4.802   9.940  0.8130  0.8556 -1.0189
  813MOL0     H 7273   0.922   4.889  10.005 -0.7373 -1.2707  0.8396
  813MOL0     H 7274   1.150   4.824  10.185 -1.6212 -0.8785  1.9365
  813MOL0     H 7275   0.987   4.875  10.228 -0.7586 -2.0109  1.3023
  813MOL0     H 7276   0.999   4.626  10.258  2.6964 -2.3150 -1.5906
  813MOL0     H 7277   1.049   4.606  10.090 -0.5877  2.3477 -3.0835
  813MOL0     H 7278   0.857   4.708  10.382 -0.2923  0.5466  0.6980
  813MOL0     H 7279   0.642   4.768  10.513  1.5263  0.9102  0.0501
  813MOL0     H 7280   0.177   4.794  10.661 -2.0968  1.0671 -0.1213
  813MOL0     H 7281   0.015   4.964  10.756  0.6772 -1.1906  2.3790
  813MOL0     H 7282  -0.105   5.117  10.833 -0.7448  0.8494  0.1407
  813MOL0     H 7283  -0.151   5.174  10.676  0.5805  0.6247 -0.5288
  813MOL0     H 7284  -0.149   5.411  10.739  2.1303  2.2984  2.2928
  813MOL0     H 7285  -0.122   5.372  10.902  2.0400  2.8052 -2.9123
  813MOL0     H 7286  -0.349   5.272  10.728  0.4323 -3.8847  1.0470
  813MOL0     H 7287  -0.370   5.391  10.855  0.6627 -0.0539  0.4172
  813MOL0     H 7288  -0.457   5.186  10.926  0.9622 -0.2141  2.6618
  813MOL0     H 7289  -0.324   5.096  10.862  2.2440  1.1143  0.0624
  813MOL0     H 7290  -0.194   5.146  11.048  0.9523  1.1257  4.0662
  813MOL0     H 7291  -0.351   5.114  11.115 -0.9267 -0.4864 -0.8428
  813MOL0     H 7292  -0.404   5.355  11.142  1.8933  2.1505  2.6124
  813MOL0     H 7293  -0.242   5.398  11.086 -0.3479  1.0219  1.7950
  813MOL0     H 7294  -0.328   5.234  11.326  0.3206  1.0539  3.4768
  813MOL0     H 7295  -0.159   5.221  11.266 -1.8198 -1.3762  1.1464
  813MOL0     H 7296  -0.104   5.427  11.327  0.5730  0.3054  0.5717
  813MOL0     H 7297  -0.197   5.368  11.458 -0.1101 -3.1275 -1.3163
  813MOL0     H 7298   0.284   5.282  10.657 -1.3516  0.3072  2.1418
  813MOL0     H 7299   0.441   5.122  10.554 -1.8934  0.8508 -2.0481
  813MOL0     H 7300   0.429   4.795  10.135  0.6464  1.4948 -1.2639
  813MOL0     H 7301   0.632   4.732  10.015 -0.2080 -0.2953 -0.3628
  813MOL0     H 7302   2.216   5.423  10.677 -0.1295  0.0939  0.7005
  813MOL0     H 7303   2.337   5.643  10.768 -3.1124 -0.5002 -0.1936
  813MOL0     H 7304   2.808   5.859  10.841  0.0093  0.5117  0.4496
  813MOL0     H 7305   2.912   6.074  10.898  1.3245  0.0023 -2.4057
  813MOL0     H 7306   2.964   6.438  10.869 -0.1362  0.2123  0.9231
  813MOL0     H 7307   3.005   6.263  10.858  1.1828  1.6007 -1.0789
  813MOL0     H 7308   2.861   6.250  11.080  1.4859 -1.7748  1.3106
  813MOL0     H 7309   3.030   6.285  11.083 -1.2462 -2.5707 -1.1324
  813MOL0     H 7310   2.807   6.495  11.056 -0.9828 -0.0962  1.5532
  813MOL0     H 7311   2.988   6.527  11.086  0.5580  1.0506  3.1619
  813MOL0     H 7312   2.811   6.511  11.296 -0.8299 -0.5849  1.8026
  813MOL0     H 7313   2.862   6.341  11.268  2.0196 -0.8993 -3.7935
  813MOL0     H 7314   3.229   6.534  11.387 -0.1235 -1.3716  2.1673
  813MOL0     H 7315   2.585   6.284  10.733 -0.2767  0.0514  0.5345
  813MOL0     H 7316   2.475   6.082  10.647  0.2881  0.4609  0.5265
  814MOL0     O 7317   2.656   6.252   4.917 -0.3343  0.2761  0.2517
  814MOL0     C 7318   2.684   6.362   4.872  1.1837 -0.3153 -0.3938
  814MOL0     O 7319   2.582   6.457   4.834 -0.1875  0.3229 -0.6144
  814MOL0     C 7320   2.460   6.422   4.845  0.0248  0.5021  0.3685
  814MOL0     C 7321   2.401   6.381   4.975  0.2504  0.0345  0.0189
  814MOL0     C 7322   2.264   6.349   4.983 -0.2075  0.6140 -1.0782
  814MOL0     C 7323   2.181   6.365   4.871 -0.2504 -0.1364  0.4416
  814MOL0     O 7324   2.050   6.335   4.885  0.1544  0.2406 -0.4332
  814MOL0     C 7325   2.025   6.192   4.874 -0.4361  0.1274 -0.9705
  814MOL0     C 7326   1.944   6.146   4.997 -0.6349  0.4789  0.0402
  814MOL0     C 7327   1.800   6.208   4.992 -1.1076 -0.3360 -0.3415
  814MOL0     C 7328   1.710   6.177   4.866 -1.1365 -0.6468 -0.6443
  814MOL0     C 7329   1.566   6.193   4.902 -0.0345  0.2871 -0.7919
  814MOL0     C 7330   1.477   6.150   4.785  0.2875 -0.6757 -0.0618
  814MOL0     C 7331   1.460   6.002   4.776 -0.2406 -0.1276  0.5879
  814MOL0     C 7332   1.358   5.968   4.661  0.1284 -0.2584  0.2664
  814MOL0     N 7333   1.222   5.962   4.713  0.0981 -0.4519  0.5447
  814MOL0     C 7334   1.126   5.888   4.658 -0.8243 -0.2730  0.0058
  814MOL0     C 7335   1.009   5.898   4.728 -0.1023 -0.1487 -0.2280
  814MOL0     C 7336   0.867   5.861   4.694 -0.3863  0.4256  1.1731
  814MOL0     C 7337   0.781   5.991   4.667 -0.5184  0.2580  0.2729
  814MOL0     C 7338   0.650   5.949   4.595  0.8649 -0.6890  0.3967
  814MOL0     C 7339   0.564   5.875   4.695 -0.0782 -0.1597 -0.1737
  814MOL0     O 7340   0.507   5.968   4.789 -0.0354 -0.2465 -0.5474
  814MOL0     C 7341   0.372   5.961   4.799  0.5819 -0.1978 -0.6683
  814MOL0     C 7342   0.305   5.838   4.804 -0.7143  0.2256 -2.0275
  814MOL0     C 7343   0.167   5.823   4.817 -0.2192 -0.0438  0.7063
  814MOL0     C 7344   0.084   5.935   4.823 -0.4426 -0.4233  0.6934
  814MOL0     C 7345  -0.063   5.921   4.822 -0.5727  0.6223 -0.0174
  814MOL0     O 7346  -0.138   6.027   4.783 -0.0528  0.0849  0.3340
  814MOL0     C 7347  -0.274   6.022   4.773  0.2221 -0.1539  0.2095
  814MOL0     C 7348  -0.345   6.075   4.658 -0.6279  0.2488 -0.7349
  814MOL0     C 7349  -0.488   6.077   4.659 -0.0064 -0.3922 -0.2621
  814MOL0     C 7350  -0.555   5.998   4.759  0.0497 -0.1019  0.9668
  814MOL0     O 7351  -0.691   5.984   4.745  0.7863  0.0528 -0.2370
  814MOL0     C 7352  -0.757   5.862   4.795 -0.4454  0.2515 -0.0376
  814MOL0     C 7353  -0.901   5.884   4.774 -0.1789  0.2801 -0.4567
  814MOL0     C 7354  -0.959   5.984   4.886 -0.3219 -0.3662  0.3574
  814MOL0     C 7355  -1.101   6.011   4.847  0.0538  0.1106 -0.2135
  814MOL0     C 7356  -1.177   6.066   4.974  0.1449 -0.2947 -0.9971
  814MOL0     C 7357  -1.332   6.084   4.931 -0.9295 -0.2646  0.5896
  814MOL0     C 7358  -1.417   6.117   5.053  0.2759  0.5863  0.4639
  814MOL0     C 7359  -1.566   6.105   5.010  0.2541 -0.1846 -0.1406
  814MOL0    Cl 7360  -1.594   6.185   4.859  0.2176 -0.2232  0.0719
  814MOL0     C 7361  -0.490   5.955   4.872 -0.4193  0.0814  0.1339
  814MOL0     C 7362  -0.348   5.969   4.878  0.6515 -0.0762 -0.2152
  814MOL0     O 7363  -0.104   5.812   4.849  0.0960 -0.3042 -0.0965
  814MOL0     C 7364   0.150   6.060   4.828 -0.0263 -0.7027  0.3654
  814MOL0     C 7365   0.287   6.078   4.807  0.1925 -0.3192 -0.2732
  814MOL0     N 7366   1.049   5.980   4.839  0.3891 -0.2953  0.1566
  814MOL0     N 7367   1.171   6.020   4.823  0.4991 -0.3942  0.7164
  814MOL0     C 7368   2.236   6.426   4.759 -1.0987 -0.3941  0.2214
  814MOL0     C 7369   2.371   6.448   4.735 -0.3503  0.9771 -0.1885
  814MOL0     C 7370   2.818   6.407   4.843  0.0547 -0.1560  0.5949
  814MOL0     C 7371   2.837   6.546   4.810 -0.3620 -0.0946 -0.5369
  814MOL0     C 7372   2.960   6.600   4.761 -1.2049 -0.8263  0.0763
  814MOL0     C 7373   3.070   6.520   4.752  0.2232  0.4906  0.6656
  814MOL0     O 7374   3.191   6.577   4.724  0.0114 -0.2222 -0.3904
  814MOL0     C 7375   3.304   6.491   4.719  0.6638 -0.0093  0.8384
  814MOL0     C 7376   3.423   6.565   4.673  0.2502  0.5773 -0.4731
  814MOL0     C 7377   3.467   6.653   4.791 -0.2496  0.5115  0.5079
  814MOL0     C 7378   3.553   6.775   4.765 -0.5040 -0.3200 -0.1136
  814MOL0     C 7379   3.489   6.866   4.666 -0.3300  0.3783  0.2112
  814MOL0     C 7380   3.419   6.931   4.586  1.1939  1.0886 -0.3400
  814MOL0     C 7381   3.050   6.381   4.776 -0.0333  0.1365  0.1168
  814MOL0     C 7382   2.929   6.323   4.820  0.3936  0.0871 -0.0361
  814MOL0     H 7383   2.459   6.370   5.066 -1.4611 -1.7300  0.9730
  814MOL0     H 7384   2.219   6.311   5.075  0.0157 -1.8472 -1.9011
  814MOL0     H 7385   2.108   6.127   4.846 -0.7261 -0.1491 -1.2095
  814MOL0     H 7386   1.969   6.176   4.781 -0.0705  0.3018 -1.2232
  814MOL0     H 7387   1.993   6.158   5.093 -1.6988 -0.0856  0.6768
  814MOL0     H 7388   1.925   6.041   4.971  1.0948  0.2050 -0.2487
  814MOL0     H 7389   1.799   6.317   4.993 -1.9251 -0.2902  2.7610
  814MOL0     H 7390   1.750   6.171   5.082  0.3515 -1.2888  0.0950
  814MOL0     H 7391   1.728   6.256   4.792 -0.7256  0.6480  0.7808
  814MOL0     H 7392   1.739   6.078   4.832  1.4988 -0.3406  0.4757
  814MOL0     H 7393   1.551   6.299   4.925 -1.4301  0.2923 -1.6155
  814MOL0     H 7394   1.542   6.139   4.994  0.5648 -1.4838 -1.6340
  814MOL0     H 7395   1.512   6.185   4.688 -2.0084 -1.0818 -1.1241
  814MOL0     H 7396   1.377   6.194   4.797  0.1643 -0.2939 -2.1327
  814MOL0     H 7397   1.559   5.962   4.754 -0.7838 -1.6672  0.8247
  814MOL0     H 7398   1.430   5.967   4.875  1.6356  1.0958  1.6339
  814MOL0     H 7399   1.377   5.868   4.621  0.3957 -0.4468  0.8543
  814MOL0     H 7400   1.354   6.034   4.574 -1.5329 -3.1801 -2.0789
  814MOL0     H 7401   1.130   5.826   4.569  1.7298 -1.2510  0.7130
  814MOL0     H 7402   0.828   5.801   4.777  3.4256  1.2756  3.8353
  814MOL0     H 7403   0.866   5.804   4.601 -1.1920  2.5275 -0.1978
  814MOL0     H 7404   0.839   6.058   4.603 -0.3376  1.3706  1.5649
  814MOL0     H 7405   0.751   6.035   4.763 -0.2165 -1.3375  1.1369
  814MOL0     H 7406   0.593   6.039   4.570  0.6722 -0.9445 -0.1131
  814MOL0     H 7407   0.666   5.897   4.500  1.3089  1.7636 -0.9595
  814MOL0     H 7408   0.615   5.796   4.751 -2.6032  0.2557  3.0342
  814MOL0     H 7409   0.494   5.823   4.628  1.7925 -2.0855 -0.7315
  814MOL0     H 7410   0.358   5.743   4.806 -1.6736 -0.3175 -0.7357
  814MOL0     H 7411   0.117   5.727   4.804 -2.4487  1.4339 -3.3502
  814MOL0     H 7412  -0.288   6.135   4.587  1.1501  1.2115  1.3557
  814MOL0     H 7413  -0.542   6.134   4.584 -0.6875 -3.1883 -2.0752
  814MOL0     H 7414  -0.734   5.846   4.900  0.2495 -0.8063 -0.3364
  814MOL0     H 7415  -0.723   5.770   4.746 -2.7272 -0.3278 -0.6809
  814MOL0     H 7416  -0.943   5.784   4.787 -1.6499  0.7251 -1.5441
  814MOL0     H 7417  -0.915   5.924   4.674 -1.7592  2.4294  0.5452
  814MOL0     H 7418  -0.899   6.075   4.876 -0.9749 -0.0579 -0.9490
  814MOL0     H 7419  -0.952   5.934   4.983 -2.8480 -0.5837  0.4860
  814MOL0     H 7420  -1.107   6.080   4.762 -3.2146 -0.8882 -0.9205
  814MOL0     H 7421  -1.140   5.916   4.810  0.5940 -0.4661  0.6528
  814MOL0     H 7422  -1.148   6.167   5.004  1.1531 -1.2486  1.4699
  814MOL0     H 7423  -1.176   6.002   5.063  1.3871  0.7850 -0.1816
  814MOL0     H 7424  -1.365   5.991   4.882  3.1144 -1.1311 -0.8760
  814MOL0     H 7425  -1.339   6.160   4.853 -0.8425 -0.3314  0.5162
  814MOL0     H 7426  -1.396   6.046   5.134  2.5561 -1.8948 -2.0598
  814MOL0     H 7427  -1.394   6.218   5.088 -1.4589  0.9565  0.5836
  814MOL0     H 7428  -1.635   6.153   5.081 -2.5133 -0.9464 -2.1533
  814MOL0     H 7429  -1.597   6.000   5.004  1.0479 -0.4551  0.2852
  814MOL0     H 7430  -0.550   5.889   4.934 -0.3548 -1.6715 -1.5693
  814MOL0     H 7431  -0.295   5.938   4.967  0.8585 -0.2264 -0.3906
  814MOL0     H 7432   0.098   6.156   4.828  0.4400 -0.4387 -0.3853
  814MOL0     H 7433   0.337   6.174   4.796  1.2232 -0.8618 -0.5154
  814MOL0     H 7434   2.176   6.446   4.672  2.7599  1.5011 -2.3146
  814MOL0     H 7435   2.406   6.499   4.646  0.2347  1.2117  0.1726
  814MOL0     H 7436   2.757   6.616   4.831 -0.0234 -0.1473  1.0556
  814MOL0     H 7437   2.974   6.707   4.749 -0.4928 -0.7633  1.2722
  814MOL0     H 7438   3.282   6.414   4.645  1.1783 -0.5180  1.2057
  814MOL0     H 7439   3.320   6.450   4.819 -1.9064 -0.1354  1.2768
  814MOL0     H 7440   3.506   6.503   4.638 -2.4185 -1.3010 -4.1565
  814MOL0     H 7441   3.407   6.630   4.586  0.3877  3.0972  1.2493
  814MOL0     H 7442   3.518   6.584   4.858  1.1235  2.3479  1.4263
  814MOL0     H 7443   3.386   6.686   4.857  1.5567  0.7834  2.6817
  814MOL0     H 7444   3.570   6.837   4.854 -1.6025 -0.5562  0.2789
  814MOL0     H 7445   3.655   6.745   4.738  0.4036 -0.0732  2.7581
  814MOL0     H 7446   3.353   6.990   4.527  1.3673  1.8385  0.2095
  814MOL0     H 7447   3.132   6.312   4.757  0.1391 -0.1811  1.8571
  814MOL0     H 7448   2.922   6.215   4.817  3.0182 -0.1279 -0.5071
  815MOL0     O 7449   5.557   7.540   3.654 -0.2355  0.1768  0.7261
  815MOL0     C 7450   5.658   7.477   3.639  0.3626  0.6727 -0.3657
  815MOL0     O 7451   5.681   7.359   3.701  0.4532 -0.2997 -0.6645
  815MOL0     C 7452   5.589   7.304   3.783  0.3606 -0.1723  0.7134
  815MOL0     C 7453   5.538   7.175   3.755 -0.1405  0.0185 -0.1754
  815MOL0     C 7454   5.467   7.110   3.852  0.5533  0.3510 -0.2060
  815MOL0     C 7455   5.440   7.167   3.975  0.7325 -1.1446 -0.2146
  815MOL0     O 7456   5.374   7.114   4.078 -0.6113 -0.6902 -0.2792
  815MOL0     C 7457   5.340   6.979   4.075  0.3661 -0.1435 -0.5110
  815MOL0     C 7458   5.283   6.936   4.208 -0.1836 -0.0613 -0.4336
  815MOL0     C 7459   5.215   6.797   4.205  1.2729 -0.4659 -0.2453
  815MOL0     C 7460   5.133   6.759   4.327 -0.6113 -0.3210 -1.5527
  815MOL0     C 7461   5.218   6.724   4.455 -0.8378  0.4337  0.7019
  815MOL0     C 7462   5.253   6.569   4.462  0.7604 -0.0424 -0.4451
  815MOL0     C 7463   5.142   6.492   4.522 -1.1863 -0.4454  0.1501
  815MOL0     C 7464   5.156   6.342   4.507 -0.4073  0.2167  0.1764
  815MOL0     N 7465   5.027   6.282   4.552 -0.1357  0.3592 -0.2047
  815MOL0     C 7466   5.000   6.240   4.680  0.2564 -0.4319  0.6251
  815MOL0     C 7467   4.877   6.194   4.678  0.5876 -0.0277 -0.8320
  815MOL0     C 7468   4.806   6.135   4.801  0.2539  0.4310 -0.5219
  815MOL0     C 7469   4.756   5.991   4.788  0.9069 -0.2115 -0.3746
  815MOL0     C 7470   4.692   5.944   4.923 -0.4097  0.8952 -0.8101
  815MOL0     C 7471   4.603   5.820   4.890  0.3764 -0.5772 -0.6140
  815MOL0     O 7472   4.523   5.794   5.012 -0.5670  0.7405  0.0031
  815MOL0     C 7473   4.414   5.713   4.994  0.2144  0.1656 -0.4410
  815MOL0     C 7474   4.377   5.645   4.872  0.0266  0.1341 -1.1841
  815MOL0     C 7475   4.254   5.574   4.867 -0.5214 -0.2706  0.8055
  815MOL0     C 7476   4.165   5.565   4.980  0.5651 -1.0534  0.4135
  815MOL0     C 7477   4.043   5.492   4.971  0.1574 -0.3295  0.2630
  815MOL0     O 7478   3.946   5.506   5.067  0.1084 -0.1197  0.3873
  815MOL0     C 7479   3.857   5.400   5.089  0.3674  0.2510  0.4085
  815MOL0     C 7480   3.903   5.309   5.190  0.2599  0.3846  0.3005
  815MOL0     C 7481   3.811   5.205   5.216 -0.2263 -0.0963  0.7972
  815MOL0     C 7482   3.687   5.196   5.154  1.0772  0.0382  0.4090
  815MOL0     O 7483   3.604   5.108   5.211  0.1715  0.1712  1.0302
  815MOL0     C 7484   3.483   5.078   5.130 -0.0429 -0.6262  0.0025
  815MOL0     C 7485   3.391   4.972   5.203  0.4043  0.5799  0.4178
  815MOL0     C 7486   3.246   5.009   5.191 -0.4141 -0.2203 -0.3458
  815MOL0     C 7487   3.165   4.902   5.256 -0.2348  0.4817  0.5364
  815MOL0     C 7488   3.018   4.951   5.267 -0.5452 -0.3069 -0.0813
  815MOL0     C 7489   2.930   4.846   5.347 -0.5834  0.1685 -0.8804
  815MOL0     C 7490   2.782   4.847   5.317  1.1657 -0.5005  0.7652
  815MOL0     C 7491   2.748   4.766   5.196  0.1080  0.3673 -0.7992
  815MOL0    Cl 7492   2.731   4.589   5.240  0.0309  0.1399  0.3940
  815MOL0     C 7493   3.645   5.297   5.060 -0.4096 -0.8048  0.2848
  815MOL0     C 7494   3.735   5.396   5.028 -0.4841  0.6647  1.2558
  815MOL0     O 7495   4.042   5.402   4.887  0.1249  0.2074 -0.2322
  815MOL0     C 7496   4.201   5.622   5.099 -1.1709 -0.6837  0.1314
  815MOL0     C 7497   4.320   5.706   5.102  0.2185  0.3265  0.9091
  815MOL0     N 7498   4.827   6.190   4.549  0.5171  0.2755 -0.9038
  815MOL0     N 7499   4.926   6.232   4.469 -0.0457  0.2424 -0.6016
  815MOL0     C 7500   5.480   7.303   3.993  0.6124 -0.4075 -0.1197
  815MOL0     C 7501   5.557   7.371   3.899 -0.3883 -0.2996  0.0056
  815MOL0     C 7502   5.764   7.529   3.555 -0.2486  0.5003  0.3690
  815MOL0     C 7503   5.749   7.617   3.453 -0.0470  0.4108 -0.2346
  815MOL0     C 7504   5.846   7.673   3.384 -1.0425  0.3663  0.1593
  815MOL0     C 7505   5.980   7.641   3.411 -0.4551 -0.1676  0.2095
  815MOL0     O 7506   6.080   7.709   3.336  0.5612 -0.2255  0.7970
  815MOL0     C 7507   6.222   7.713   3.369  0.3364 -0.1459 -0.6739
  815MOL0     C 7508   6.283   7.824   3.290 -0.0592 -0.3218  0.4377
  815MOL0     C 7509   6.438   7.830   3.309  0.2739  0.2144 -1.3202
  815MOL0     C 7510   6.486   7.948   3.224  0.9414 -0.3200  0.1268
  815MOL0     C 7511   6.629   7.963   3.238 -0.6747  0.9248  0.0733
  815MOL0     C 7512   6.751   7.968   3.250  0.4372 -0.2263  0.2483
  815MOL0     C 7513   6.002   7.538   3.504 -0.0212 -0.6918  1.2292
  815MOL0     C 7514   5.898   7.475   3.571 -0.8373  0.4361 -0.6248
  815MOL0     H 7515   5.551   7.131   3.656 -0.5976  1.6581 -1.0059
  815MOL0     H 7516   5.428   7.012   3.825 -0.2146  0.3390  0.8872
  815MOL0     H 7517   5.422   6.912   4.049  1.2756  0.5317  0.5239
  815MOL0     H 7518   5.254   6.968   4.008  2.0052 -2.1087 -2.4379
  815MOL0     H 7519   5.214   7.012   4.246 -2.2917 -0.4337 -3.1955
  815MOL0     H 7520   5.367   6.934   4.278 -1.3994 -0.6033  1.0680
  815MOL0     H 7521   5.281   6.716   4.172  2.5613  0.6724 -0.5021
  815MOL0     H 7522   5.131   6.809   4.136  0.8480 -0.9137  0.1837
  815MOL0     H 7523   5.068   6.843   4.354  1.3516  1.0613 -0.8812
  815MOL0     H 7524   5.062   6.678   4.315 -0.7438 -0.6713  0.9698
  815MOL0     H 7525   5.148   6.745   4.536 -3.4260 -1.2619 -0.9523
  815MOL0     H 7526   5.311   6.782   4.461 -0.3025 -0.2748 -0.4447
  815MOL0     H 7527   5.342   6.557   4.524  1.4120  0.6199 -1.2294
  815MOL0     H 7528   5.259   6.537   4.357  0.7635  1.7287 -1.0103
  815MOL0     H 7529   5.136   6.526   4.626 -0.9242 -2.1337  0.7462
  815MOL0     H 7530   5.049   6.521   4.472 -1.1234 -1.1774 -0.3994
  815MOL0     H 7531   5.242   6.302   4.562  0.0890 -0.6390 -1.1767
  815MOL0     H 7532   5.173   6.318   4.402  0.2647 -3.0370  0.9130
  815MOL0     H 7533   5.071   6.254   4.761  0.4080 -0.9810  0.5934
  815MOL0     H 7534   4.728   6.206   4.831  1.6645  1.5835  0.6189
  815MOL0     H 7535   4.883   6.129   4.879  1.4368  0.4144 -1.6521
  815MOL0     H 7536   4.840   5.923   4.772  3.0179  1.7950  1.5152
  815MOL0     H 7537   4.670   5.982   4.720  0.7335 -2.8299  0.0938
  815MOL0     H 7538   4.771   5.919   4.994 -0.2545 -0.0054 -1.2881
  815MOL0     H 7539   4.625   6.024   4.959  1.3779  0.9580  2.8890
  815MOL0     H 7540   4.664   5.731   4.874  0.7923 -0.1592 -1.4147
  815MOL0     H 7541   4.547   5.842   4.798  0.1332 -0.4287 -0.4317
  815MOL0     H 7542   4.448   5.640   4.791  2.6426  0.1112  0.9727
  815MOL0     H 7543   4.235   5.515   4.778 -3.3725 -0.3318  1.3554
  815MOL0     H 7544   4.003   5.305   5.232 -0.9797  0.4147  3.5745
  815MOL0     H 7545   3.840   5.150   5.305  2.3776 -0.3701 -0.1594
  815MOL0     H 7546   3.518   5.034   5.037 -0.1467 -1.0619  0.1693
  815MOL0     H 7547   3.421   5.166   5.112 -0.2154  0.0262  3.1870
  815MOL0     H 7548   3.413   4.973   5.310 -0.7538 -0.5587  0.6919
  815MOL0     H 7549   3.407   4.871   5.164  0.3417  0.1038  1.6089
  815MOL0     H 7550   3.215   5.019   5.087 -2.0133  0.5646  0.1847
  815MOL0     H 7551   3.231   5.102   5.247  4.0604  0.1278  0.6687
  815MOL0     H 7552   3.166   4.804   5.208  2.3651 -0.5725  2.5061
  815MOL0     H 7553   3.204   4.874   5.354  1.1139  1.3709  0.2793
  815MOL0     H 7554   2.973   4.957   5.167  4.4807 -2.1533 -2.8389
  815MOL0     H 7555   3.021   5.047   5.319  0.1829 -0.5745  0.3847
  815MOL0     H 7556   2.938   4.861   5.455  1.0422  0.3414 -0.9935
  815MOL0     H 7557   2.965   4.748   5.312 -3.3164 -0.7489 -1.2397
  815MOL0     H 7558   2.732   4.809   5.407  0.2378 -0.8645  0.1037
  815MOL0     H 7559   2.739   4.946   5.297  0.7236 -1.0243 -1.0616
  815MOL0     H 7560   2.830   4.783   5.124  2.0246 -0.2818  1.1386
  815MOL0     H 7561   2.661   4.813   5.149 -0.8444  0.5291  1.0465
  815MOL0     H 7562   3.540   5.305   5.034 -0.4213  0.2477  0.6204
  815MOL0     H 7563   3.704   5.472   4.957 -2.2216  0.7919  2.1114
  815MOL0     H 7564   4.137   5.624   5.186 -0.8411 -0.8348  0.3813
  815MOL0     H 7565   4.343   5.765   5.190  0.3438 -1.8713  2.4322
  815MOL0     H 7566   5.445   7.354   4.083 -2.6682 -1.3272 -0.7320
  815MOL0     H 7567   5.588   7.475   3.908 -2.9529  0.5120  0.3922
  815MOL0     H 7568   5.645   7.634   3.425 -0.4989 -2.1584 -0.3831
  815MOL0     H 7569   5.819   7.760   3.326  1.1910  1.3880  0.5239
  815MOL0     H 7570   6.272   7.620   3.339  3.5701  0.5720  1.8736
  815MOL0     H 7571   6.245   7.727   3.475 -2.0435  0.2660 -0.1484
  815MOL0     H 7572   6.249   7.829   3.186  0.9644  3.2385  0.1398
  815MOL0     H 7573   6.242   7.915   3.334 -0.1996  0.8638 -1.9657
  815MOL0     H 7574   6.483   7.736   3.276 -0.5632 -0.6581 -0.0825
  815MOL0     H 7575   6.467   7.843   3.413 -0.3903  0.8945 -1.2098
  815MOL0     H 7576   6.448   7.938   3.122  0.7625  2.1604 -0.1187
  815MOL0     H 7577   6.445   8.043   3.261 -0.0785 -0.0055 -1.7008
  815MOL0     H 7578   6.857   7.978   3.259  0.2794  0.1843  1.9738
  815MOL0     H 7579   6.108   7.514   3.509  0.6736  1.3526 -1.3326
  815MOL0     H 7580   5.918   7.388   3.633 -0.6115  0.1733 -1.0614
  816MOL0     O 7581   7.130   7.602   9.623 -0.1761  0.3266  0.0399
  816MOL0     C 7582   7.121   7.657   9.732 -0.6034  0.6014  0.3780
  816MOL0     O 7583   7.218   7.675   9.827  0.1432  0.7462  0.1939
  816MOL0     C 7584   7.344   7.674   9.778 -0.4154 -0.5489 -0.5993
  816MOL0     C 7585   7.389   7.709   9.648  0.2929 -0.5493 -0.3046
  816MOL0     C 7586   7.524   7.715   9.626  0.3595  0.4450  0.3641
  816MOL0     C 7587   7.621   7.680   9.717 -0.5662 -0.6949 -0.6428
  816MOL0     O 7588   7.754   7.690   9.700 -1.0198 -0.1654 -0.4422
  816MOL0     C 7589   7.811   7.796   9.620  0.2834 -0.3829  0.7437
  816MOL0     C 7590   7.957   7.823   9.653  0.5277  0.2515  0.9733
  816MOL0     C 7591   8.027   7.912   9.557 -0.2737 -0.2428 -0.0456
  816MOL0     C 7592   8.179   7.892   9.590 -0.8206 -0.8514  0.1049
  816MOL0     C 7593   8.267   7.870   9.461 -1.1587 -0.2288 -0.1746
  816MOL0     C 7594   8.255   7.728   9.407 -0.8635  0.4479 -0.1634
  816MOL0     C 7595   8.375   7.680   9.326  0.8122 -1.2858  0.2057
  816MOL0     C 7596   8.394   7.535   9.314 -0.5602  0.5180  0.0253
  816MOL0     N 7597   8.275   7.460   9.259 -0.0784 -1.1782 -0.0542
  816MOL0     C 7598   8.225   7.463   9.134  0.4370 -0.4141 -0.5629
  816MOL0     C 7599   8.114   7.390   9.129  0.5756  0.3858 -1.0171
  816MOL0     C 7600   8.015   7.381   9.019 -0.6790 -0.7942  1.0930
  816MOL0     C 7601   7.935   7.254   9.040  0.0334  0.0534  0.0751
  816MOL0     C 7602   7.825   7.255   9.151 -0.6117 -0.0780  0.3405
  816MOL0     C 7603   7.760   7.125   9.184 -0.3851 -0.2983  0.1762
  816MOL0     O 7604   7.682   7.053   9.084 -0.2927  0.1716 -0.5258
  816MOL0     C 7605   7.569   7.104   9.034 -1.5423  0.0669  0.0791
  816MOL0     C 7606   7.494   7.206   9.080 -0.1020 -0.8420  0.3886
  816MOL0     C 7607   7.379   7.249   9.006 -0.9499  0.8618  0.0854
  816MOL0     C 7608   7.350   7.203   8.880  0.2559 -0.4337 -0.5041
  816MOL0     C 7609   7.229   7.239   8.807 -0.1180 -0.4473  0.3319
  816MOL0     O 7610   7.133   7.306   8.881  0.4654  0.0509 -0.2088
  816MOL0     C 7611   7.003   7.337   8.837 -0.7051  0.3236  0.4648
  816MOL0     C 7612   6.965   7.384   8.704 -0.1157  0.8948 -0.0721
  816MOL0     C 7613   6.834   7.436   8.688 -0.4944  0.3816 -0.3564
  816MOL0     C 7614   6.747   7.436   8.800  0.7523  1.2244  0.2160
  816MOL0     O 7615   6.621   7.474   8.765  0.2565 -0.2136  0.1531
  816MOL0     C 7616   6.524   7.506   8.874  0.1417 -0.0834 -0.4033
  816MOL0     C 7617   6.388   7.530   8.809  0.5547  0.0614  0.3782
  816MOL0     C 7618   6.306   7.635   8.878  0.1389  0.5684  0.5796
  816MOL0     C 7619   6.165   7.637   8.816 -0.6636  0.0640 -0.2941
  816MOL0     C 7620   6.078   7.745   8.887  0.0714  1.0435  1.0463
  816MOL0     C 7621   5.921   7.730   8.859 -0.3436 -1.0790  1.0616
  816MOL0     C 7622   5.887   7.679   8.711 -0.3255 -0.5196 -0.7033
  816MOL0     C 7623   5.738   7.704   8.706 -0.3960  0.2920 -0.2120
  816MOL0    Cl 7624   5.710   7.874   8.675  0.0370 -0.2494 -0.1209
  816MOL0     C 7625   6.781   7.398   8.923  0.1533  0.2774 -0.1109
  816MOL0     C 7626   6.913   7.348   8.943  0.2258  0.4563 -0.5301
  816MOL0     O 7627   7.211   7.198   8.692 -0.3488  0.2081 -0.4509
  816MOL0     C 7628   7.436   7.099   8.835 -0.6784 -0.4508 -0.5470
  816MOL0     C 7629   7.535   7.047   8.919  0.4825 -0.0412 -0.2865
  816MOL0     N 7630   8.102   7.329   9.254  0.4217  0.2705  0.3070
  816MOL0     N 7631   8.193   7.378   9.333 -0.3208  0.1219 -0.0929
  816MOL0     C 7632   7.576   7.635   9.843  0.2872 -0.2474  0.1675
  816MOL0     C 7633   7.437   7.624   9.872 -0.8943  0.7608 -0.6118
  816MOL0     C 7634   6.980   7.705   9.762  0.7196  0.3403  0.0188
  816MOL0     C 7635   6.954   7.763   9.889 -0.0327  0.2262 -0.5500
  816MOL0     C 7636   6.823   7.776   9.934  0.8144 -0.2195  0.8327
  816MOL0     C 7637   6.715   7.751   9.843  0.3726 -0.2694  0.2600
  816MOL0     O 7638   6.589   7.749   9.898 -0.3707  0.4862 -0.6106
  816MOL0     C 7639   6.472   7.731   9.814 -1.1177 -1.1120 -0.2921
  816MOL0     C 7640   6.446   7.854   9.727 -0.1067 -0.6826 -0.0433
  816MOL0     C 7641   6.340   7.815   9.628  0.2525  0.0618  0.6888
  816MOL0     C 7642   6.196   7.865   9.644 -0.1525  0.1860 -0.6090
  816MOL0     C 7643   6.150   7.794   9.764  0.5538 -0.1476  0.5117
  816MOL0     C 7644   6.099   7.742   9.860 -1.1426 -0.3863 -0.4895
  816MOL0     C 7645   6.743   7.709   9.710  0.1316  0.8048 -0.3606
  816MOL0     C 7646   6.875   7.680   9.670 -0.0182 -0.0722 -0.3686
  816MOL0     H 7647   7.319   7.755   9.579  0.9229  0.5591 -0.2333
  816MOL0     H 7648   7.549   7.749   9.526  0.9678 -1.1221 -0.0514
  816MOL0     H 7649   7.755   7.888   9.641  0.1790 -0.0293 -0.9809
  816MOL0     H 7650   7.806   7.785   9.512 -1.4427  0.5448  0.6930
  816MOL0     H 7651   8.000   7.723   9.659 -1.6569 -0.9401 -1.2634
  816MOL0     H 7652   7.961   7.869   9.752 -0.8602  3.1156 -0.1723
  816MOL0     H 7653   7.991   8.014   9.571 -3.2216 -0.2734 -5.1529
  816MOL0     H 7654   8.019   7.886   9.451  2.5777 -1.6471 -0.0124
  816MOL0     H 7655   8.214   7.981   9.644 -1.8679 -0.3770  0.0228
  816MOL0     H 7656   8.196   7.820   9.671  0.5231  0.2647  0.8571
  816MOL0     H 7657   8.369   7.904   9.480 -1.2796 -0.9533  2.0421
  816MOL0     H 7658   8.232   7.933   9.379  0.3481 -0.1950 -0.8304
  816MOL0     H 7659   8.170   7.721   9.339 -2.6896 -0.3438  2.0645
  816MOL0     H 7660   8.236   7.664   9.493  1.2109 -1.6136 -1.1231
  816MOL0     H 7661   8.370   7.715   9.223 -1.6051 -0.3419  0.5696
  816MOL0     H 7662   8.467   7.719   9.372  0.2332 -1.6373  1.7418
  816MOL0     H 7663   8.418   7.487   9.409 -2.6968  1.1073  0.9308
  816MOL0     H 7664   8.477   7.506   9.249 -2.2342 -3.9039 -0.5027
  816MOL0     H 7665   8.278   7.514   9.054 -1.0817  3.8351  0.8827
  816MOL0     H 7666   8.070   7.377   8.924  2.1427  0.6698  2.5417
  816MOL0     H 7667   7.953   7.471   9.013  2.5037  1.5022  0.3750
  816MOL0     H 7668   8.002   7.167   9.046 -0.0395  0.0029  0.1634
  816MOL0     H 7669   7.889   7.240   8.942 -0.9607 -0.4768  0.6052
  816MOL0     H 7670   7.864   7.306   9.239  2.5757  0.0413 -1.0157
  816MOL0     H 7671   7.741   7.311   9.107  0.1722  2.0591  1.4119
  816MOL0     H 7672   7.682   7.146   9.258 -0.9191 -1.3568 -0.0621
  816MOL0     H 7673   7.835   7.071   9.243 -0.7704  0.4811  1.3983
  816MOL0     H 7674   7.506   7.256   9.176 -1.0134 -0.6694  0.4212
  816MOL0     H 7675   7.316   7.316   9.063 -0.5522  1.6334 -0.3744
  816MOL0     H 7676   7.032   7.382   8.620  0.3515 -2.1905  0.2592
  816MOL0     H 7677   6.797   7.447   8.587  0.8802  0.4693 -0.8712
  816MOL0     H 7678   6.544   7.591   8.939 -0.7339 -0.4266  0.3340
  816MOL0     H 7679   6.519   7.423   8.945  3.4091 -1.4342 -1.5195
  816MOL0     H 7680   6.330   7.437   8.815 -1.2770  1.0675 -0.7037
  816MOL0     H 7681   6.401   7.557   8.704  2.3328  0.0431  0.5636
  816MOL0     H 7682   6.348   7.736   8.876  3.3111 -0.6326 -2.1706
  816MOL0     H 7683   6.285   7.602   8.980 -4.0280 -3.4674 -1.1859
  816MOL0     H 7684   6.168   7.651   8.707  0.6309  1.5466 -0.1070
  816MOL0     H 7685   6.121   7.539   8.836  3.9107 -1.8203  2.0070
  816MOL0     H 7686   6.107   7.847   8.860 -1.9012  1.4022  0.1867
  816MOL0     H 7687   6.101   7.736   8.994  1.7024 -0.7076  0.6019
  816MOL0     H 7688   5.869   7.824   8.878 -2.7429 -1.9368 -0.8390
  816MOL0     H 7689   5.882   7.657   8.930 -1.1287 -0.6035  1.1304
  816MOL0     H 7690   5.930   7.734   8.627  1.1239  0.9293  0.9009
  816MOL0     H 7691   5.905   7.571   8.707  1.1344 -0.2570 -2.6766
  816MOL0     H 7692   5.693   7.669   8.799 -0.1806  2.0201  0.5847
  816MOL0     H 7693   5.699   7.648   8.620 -2.7596  1.7619 -0.1984
  816MOL0     H 7694   6.720   7.410   9.012  0.3092 -0.3877  0.0930
  816MOL0     H 7695   6.952   7.318   9.040  2.1924  1.9111 -0.8048
  816MOL0     H 7696   7.433   7.062   8.733  2.3713  0.1475 -0.9300
  816MOL0     H 7697   7.591   6.959   8.890 -0.1702  0.3489 -3.1350
  816MOL0     H 7698   7.643   7.608   9.924  0.6239 -2.1079 -0.6722
  816MOL0     H 7699   7.417   7.585   9.971  1.5860  0.3941 -0.1935
  816MOL0     H 7700   7.040   7.783   9.952  0.7485 -0.6350 -1.3133
  816MOL0     H 7701   6.799   7.806  10.035 -1.1248 -0.1353  0.3904
  816MOL0     H 7702   6.384   7.704   9.874 -1.4958  1.0672  0.2273
  816MOL0     H 7703   6.487   7.650   9.742 -1.8039  0.3772 -2.2132
  816MOL0     H 7704   6.411   7.941   9.785  0.7259 -1.2541  1.3739
  816MOL0     H 7705   6.537   7.882   9.674  1.3467 -3.0761  1.0272
  816MOL0     H 7706   6.331   7.708   9.610 -3.0168  0.2957  0.4714
  816MOL0     H 7707   6.378   7.861   9.536 -0.0475 -1.3147 -0.1420
  816MOL0     H 7708   6.198   7.968   9.679 -2.1125 -0.5759  2.1628
  816MOL0     H 7709   6.130   7.849   9.558 -1.4068  0.5404  0.2537
  816MOL0     H 7710   6.066   7.676   9.937 -1.3026 -2.4050 -2.1885
  816MOL0     H 7711   6.669   7.701   9.631  0.7465 -0.9651 -0.7995
  816MOL0     H 7712   6.903   7.650   9.570  0.0210 -0.4249 -0.2542
  817MOL0     O 7713   9.162   6.736   4.503  0.0405  0.3854  0.4006
  817MOL0     C 7714   9.193   6.678   4.403  0.7852  0.9017  0.8180
  817MOL0     O 7715   9.096   6.635   4.309  0.6995  0.4574  0.3141
  817MOL0     C 7716   8.967   6.681   4.324 -0.0878  0.1643 -0.2130
  817MOL0     C 7717   8.875   6.608   4.408 -0.0654  0.3682 -0.3194
  817MOL0     C 7718   8.744   6.659   4.423 -0.4905 -0.4436  0.1002
  817MOL0     C 7719   8.699   6.777   4.363 -1.0265  0.4734 -0.0195
  817MOL0     O 7720   8.568   6.817   4.374  0.0895  0.0078 -0.2972
  817MOL0     C 7721   8.497   6.772   4.491 -0.2248  0.3998  0.2400
  817MOL0     C 7722   8.355   6.792   4.447  0.6405  0.2266  0.1456
  817MOL0     C 7723   8.264   6.758   4.558  0.3480  0.2554 -1.2425
  817MOL0     C 7724   8.113   6.785   4.504 -0.2829 -0.7733  0.4557
  817MOL0     C 7725   8.020   6.756   4.615 -0.1553  1.1912 -0.2326
  817MOL0     C 7726   7.874   6.739   4.558 -0.2284 -0.1174  0.2132
  817MOL0     C 7727   7.851   6.595   4.498  0.6280 -0.1642  0.2377
  817MOL0     C 7728   7.711   6.555   4.445 -0.7823  0.2163 -0.0575
  817MOL0     N 7729   7.606   6.534   4.541 -0.2129  0.2802 -0.1173
  817MOL0     C 7730   7.538   6.625   4.617 -0.2952  0.9437 -0.3464
  817MOL0     C 7731   7.453   6.546   4.689  0.1012 -0.5578 -0.3853
  817MOL0     C 7732   7.339   6.588   4.787  0.5961 -0.2588  0.3776
  817MOL0     C 7733   7.217   6.649   4.704 -0.3300 -0.8776 -1.0790
  817MOL0     C 7734   7.152   6.540   4.608 -0.2584  0.6274  0.2807
  817MOL0     C 7735   7.103   6.420   4.693  0.1522  0.1495  0.7180
  817MOL0     O 7736   6.977   6.362   4.634  0.2617  0.1950 -0.6684
  817MOL0     C 7737   7.000   6.229   4.616  0.0918 -0.3458  0.4649
  817MOL0     C 7738   7.068   6.169   4.509 -0.6026  0.8698  0.2129
  817MOL0     C 7739   7.087   6.032   4.501 -0.5130  1.0540 -0.7147
  817MOL0     C 7740   7.029   5.950   4.603 -0.6428  0.1902  0.3471
  817MOL0     C 7741   7.068   5.804   4.613  0.2795 -0.3420 -0.9346
  817MOL0     O 7742   7.044   5.751   4.734 -0.0805  1.0567 -0.3273
  817MOL0     C 7743   7.074   5.619   4.753 -0.2248  0.0631  0.1650
  817MOL0     C 7744   7.182   5.589   4.832 -0.1869  0.5097 -0.4928
  817MOL0     C 7745   7.224   5.457   4.846  0.0188  1.1850 -0.1740
  817MOL0     C 7746   7.141   5.351   4.808 -0.5364 -0.1028  0.3088
  817MOL0     O 7747   7.188   5.228   4.843 -0.8207  0.2058 -0.6006
  817MOL0     C 7748   7.102   5.117   4.806 -0.8040 -0.9990 -0.6490
  817MOL0     C 7749   7.162   4.974   4.817  0.3153 -0.8648 -0.5869
  817MOL0     C 7750   7.153   4.907   4.678  0.3705 -0.6322  0.5651
  817MOL0     C 7751   7.240   4.967   4.573  0.0529 -0.0274 -0.1843
  817MOL0     C 7752   7.240   4.874   4.450  0.1599 -1.1735 -0.2070
  817MOL0     C 7753   7.311   4.931   4.328 -0.0224  0.0912  0.5716
  817MOL0     C 7754   7.293   4.833   4.214 -0.1752 -0.7114  0.0938
  817MOL0     C 7755   7.300   4.912   4.080  0.8088 -0.3830 -0.4906
  817MOL0    Cl 7756   7.300   4.811   3.929 -0.4722 -0.4768  0.1212
  817MOL0     C 7757   7.018   5.380   4.735 -0.1031 -0.6780  0.5136
  817MOL0     C 7758   6.984   5.515   4.705 -0.6498 -0.8798  0.4004
  817MOL0     O 7759   7.100   5.745   4.513  0.3514  0.1338 -0.0589
  817MOL0     C 7760   6.942   6.006   4.702 -0.6130  0.2683  1.0158
  817MOL0     C 7761   6.932   6.152   4.702 -0.3609 -0.5786  0.2992
  817MOL0     N 7762   7.466   6.412   4.654  0.8649 -0.4739  0.5730
  817MOL0     N 7763   7.565   6.410   4.568  0.6766 -0.7122  0.1389
  817MOL0     C 7764   8.793   6.840   4.282 -0.1889 -0.6797 -0.4039
  817MOL0     C 7765   8.922   6.798   4.266  0.3662  0.2867 -0.6615
  817MOL0     C 7766   9.331   6.635   4.390  0.5346  0.4277  0.0578
  817MOL0     C 7767   9.426   6.648   4.499 -1.3188  0.5032  0.1861
  817MOL0     C 7768   9.556   6.598   4.495 -0.5248 -0.1989  0.2467
  817MOL0     C 7769   9.601   6.544   4.372 -0.6017  0.3091 -0.7320
  817MOL0     O 7770   9.736   6.519   4.363 -0.2804 -0.2596  0.2778
  817MOL0     C 7771   9.796   6.460   4.249  0.7466  0.7778 -0.3671
  817MOL0     C 7772   9.944   6.431   4.271  0.6477 -0.0320 -0.3068
  817MOL0     C 7773   9.982   6.328   4.369  0.4596 -0.3269 -0.2945
  817MOL0     C 7774   9.907   6.188   4.347  0.4241 -1.0869 -0.0777
  817MOL0     C 7775   9.941   6.077   4.441 -0.3237  0.2254 -0.3549
  817MOL0     C 7776   9.962   5.990   4.521  0.3144  0.6231  0.4672
  817MOL0     C 7777   9.518   6.518   4.271  0.2427 -0.4696  0.0120
  817MOL0     C 7778   9.379   6.559   4.277 -0.8983  0.5252 -0.0246
  817MOL0     H 7779   8.907   6.509   4.440  0.3362  0.6624  0.1855
  817MOL0     H 7780   8.680   6.588   4.474 -1.1331 -0.1450 -0.2796
  817MOL0     H 7781   8.528   6.833   4.576  0.4596  0.5194 -0.0933
  817MOL0     H 7782   8.505   6.667   4.520 -1.1352  0.0489 -0.6722
  817MOL0     H 7783   8.327   6.731   4.361  1.6492  0.8779 -0.6563
  817MOL0     H 7784   8.334   6.896   4.422  0.5202  1.1277  3.4654
  817MOL0     H 7785   8.290   6.816   4.647  1.9787 -1.5965 -0.4340
  817MOL0     H 7786   8.258   6.655   4.595 -0.8625  1.0841  1.0468
  817MOL0     H 7787   8.096   6.887   4.467 -0.7630 -1.9892 -3.1071
  817MOL0     H 7788   8.088   6.712   4.426  2.1671 -3.9169  2.3569
  817MOL0     H 7789   8.012   6.842   4.682 -2.2939  1.3304 -0.5924
  817MOL0     H 7790   8.057   6.669   4.671 -0.6595  2.2096  1.7716
  817MOL0     H 7791   7.859   6.816   4.482  0.1797  0.9713  1.1930
  817MOL0     H 7792   7.800   6.761   4.636  0.4552 -0.9544  1.1217
  817MOL0     H 7793   7.919   6.581   4.414  0.0363  0.9587 -0.4451
  817MOL0     H 7794   7.878   6.516   4.569  0.3515  0.4679  1.0693
  817MOL0     H 7795   7.746   6.468   4.388  0.8980  0.6189  0.3099
  817MOL0     H 7796   7.677   6.639   4.383  2.1107  1.8394  0.3768
  817MOL0     H 7797   7.531   6.732   4.631 -2.3995  0.7119  0.9013
  817MOL0     H 7798   7.370   6.675   4.846 -2.6665  1.6675 -0.4890
  817MOL0     H 7799   7.309   6.502   4.849  1.5858 -0.6507  0.3310
  817MOL0     H 7800   7.248   6.742   4.655  1.9912  1.9902  4.8564
  817MOL0     H 7801   7.148   6.693   4.777  0.6884  0.0352 -0.6297
  817MOL0     H 7802   7.068   6.590   4.559  0.4666 -0.7823 -2.5996
  817MOL0     H 7803   7.218   6.508   4.527  0.5393 -1.7557  1.7804
  817MOL0     H 7804   7.075   6.442   4.797 -3.4032 -3.4801  0.7532
  817MOL0     H 7805   7.181   6.348   4.721 -1.0778 -0.3068  3.3357
  817MOL0     H 7806   7.122   6.241   4.448  0.4342  0.8512  1.0736
  817MOL0     H 7807   7.155   5.976   4.437 -1.7804 -0.2635 -0.9535
  817MOL0     H 7808   7.234   5.673   4.876 -0.8913  0.5154  0.3493
  817MOL0     H 7809   7.320   5.432   4.890 -0.1870 -0.8539 -0.8093
  817MOL0     H 7810   7.072   5.130   4.702 -1.9290  0.0198 -0.2223
  817MOL0     H 7811   7.015   5.127   4.872 -0.1017  1.7266  0.0051
  817MOL0     H 7812   7.103   4.931   4.899  1.9126  0.3397  1.2682
  817MOL0     H 7813   7.261   4.979   4.861 -0.4417 -0.9011  1.2112
  817MOL0     H 7814   7.047   4.908   4.650  0.5888 -1.5188 -0.3305
  817MOL0     H 7815   7.184   4.803   4.690  0.2688 -0.7099  0.1601
  817MOL0     H 7816   7.209   5.064   4.534  0.0580  0.2766  0.5645
  817MOL0     H 7817   7.343   4.968   4.608  0.5806  3.0576 -1.4709
  817MOL0     H 7818   7.138   4.859   4.415  1.1280  0.2128 -4.1897
  817MOL0     H 7819   7.277   4.774   4.475 -0.4907 -0.8025  2.5397
  817MOL0     H 7820   7.418   4.938   4.351  0.0999  1.9854 -0.3118
  817MOL0     H 7821   7.282   5.035   4.310 -0.4571  0.2453  2.0107
  817MOL0     H 7822   7.381   4.768   4.213  0.3612  0.0048 -0.3913
  817MOL0     H 7823   7.209   4.765   4.229 -0.5858  0.2589  3.0202
  817MOL0     H 7824   7.399   4.960   4.080 -0.9725  3.7109 -0.6686
  817MOL0     H 7825   7.223   4.989   4.076 -2.3066 -3.0516  1.8735
  817MOL0     H 7826   6.943   5.309   4.701 -1.0449  0.5316  0.0073
  817MOL0     H 7827   6.900   5.549   4.645  1.4393  0.8563 -1.7262
  817MOL0     H 7828   6.896   5.937   4.773  1.4536 -1.8548  0.3938
  817MOL0     H 7829   6.878   6.205   4.780 -1.3857 -2.0700  0.6521
  817MOL0     H 7830   8.755   6.926   4.227  0.0092 -1.2601 -1.4701
  817MOL0     H 7831   8.982   6.866   4.205 -0.3084 -0.0296 -1.6985
  817MOL0     H 7832   9.396   6.704   4.587 -1.1857 -0.7981  1.0786
  817MOL0     H 7833   9.630   6.606   4.573  0.1434 -1.3931 -0.2422
  817MOL0     H 7834   9.792   6.534   4.168 -2.6020  0.5805 -0.5349
  817MOL0     H 7835   9.742   6.373   4.209 -0.2295  1.4401 -0.5449
  817MOL0     H 7836   9.974   6.416   4.166 -0.4875  0.5955 -0.7343
  817MOL0     H 7837  10.004   6.515   4.305  0.2090  0.9668 -1.8906
  817MOL0     H 7838   9.972   6.373   4.469 -1.1311 -1.4044  0.0536
  817MOL0     H 7839  10.088   6.309   4.348  1.3389  1.4985  2.0333
  817MOL0     H 7840   9.803   6.220   4.361  1.1987  3.2987 -2.4010
  817MOL0     H 7841   9.919   6.149   4.246  0.6109 -0.1734 -0.4196
  817MOL0     H 7842   9.988   5.914   4.591  0.4498 -1.1025 -1.3669
  817MOL0     H 7843   9.558   6.474   4.180 -1.4970  0.3434 -1.2102
  817MOL0     H 7844   9.311   6.550   4.193 -1.1535  0.9022  0.1374
  818MOL0     O 7845  10.002   9.464   8.194 -0.0611 -0.5112 -0.4123
  818MOL0     C 7846  10.042   9.571   8.162 -0.0938 -0.5390  0.3208
  818MOL0     O 7847   9.967   9.676   8.113 -0.2920 -0.2395 -0.2631
  818MOL0     C 7848   9.844   9.654   8.072  0.9289  0.2638 -0.0559
  818MOL0     C 7849   9.741   9.652   8.179  0.1190 -1.0528  0.1685
  818MOL0     C 7850   9.614   9.619   8.132 -0.0302 -1.0413  0.8532
  818MOL0     C 7851   9.591   9.618   7.994  0.1954  0.3289  0.2634
  818MOL0     O 7852   9.470   9.593   7.929 -0.2097  0.5399 -0.1243
  818MOL0     C 7853   9.365   9.552   8.014  0.6438 -0.4983  0.6699
  818MOL0     C 7854   9.238   9.505   7.933  0.6452 -0.9142 -1.6921
  818MOL0     C 7855   9.133   9.486   8.044 -0.0117  0.0130 -0.5542
  818MOL0     C 7856   9.012   9.420   7.986  1.1548  0.0908  0.3324
  818MOL0     C 7857   8.893   9.400   8.076  0.1570 -0.7365 -0.7073
  818MOL0     C 7858   8.845   9.525   8.152 -0.1501 -0.9171  0.1005
  818MOL0     C 7859   8.708   9.514   8.211  0.1050  0.0682  0.7583
  818MOL0     C 7860   8.717   9.498   8.363  0.3113  0.0278  0.0926
  818MOL0     N 7861   8.594   9.454   8.426  0.3455  0.2455  0.7193
  818MOL0     C 7862   8.565   9.477   8.559  0.2810  0.2594 -0.3478
  818MOL0     C 7863   8.459   9.406   8.586 -0.1096  0.4376  0.2368
  818MOL0     C 7864   8.377   9.424   8.718 -0.0304 -0.2558  0.5502
  818MOL0     C 7865   8.234   9.496   8.705  0.4007 -0.0363  0.3419
  818MOL0     C 7866   8.130   9.444   8.805 -0.4340  0.2802 -1.1442
  818MOL0     C 7867   8.079   9.313   8.769 -0.3946  0.3497 -0.2211
  818MOL0     O 7868   8.006   9.338   8.651  0.0866 -0.3490 -0.1913
  818MOL0     C 7869   7.867   9.359   8.650  0.1693 -1.3933  0.7968
  818MOL0     C 7870   7.776   9.258   8.680 -0.4203 -0.6668  0.3089
  818MOL0     C 7871   7.638   9.280   8.674 -0.4503  0.8630  0.5901
  818MOL0     C 7872   7.598   9.410   8.636  0.8724  0.6447  0.3638
  818MOL0     C 7873   7.448   9.422   8.638  0.3700  0.8663  0.5510
  818MOL0     O 7874   7.371   9.327   8.711  0.7420  0.3262 -0.0499
  818MOL0     C 7875   7.235   9.327   8.713  0.4313 -0.4473  0.8325
  818MOL0     C 7876   7.148   9.443   8.720 -0.2100  0.5837 -0.2348
  818MOL0     C 7877   7.013   9.420   8.709 -0.3350  0.1735 -0.3239
  818MOL0     C 7878   6.954   9.294   8.731 -0.4651 -0.9532  0.2191
  818MOL0     O 7879   6.812   9.268   8.722 -0.2745  0.7563  0.1340
  818MOL0     C 7880   6.717   9.355   8.666 -0.2879  0.1409  0.3036
  818MOL0     C 7881   6.598   9.263   8.644  0.3714  0.4428  0.0984
  818MOL0     C 7882   6.456   9.332   8.636  0.1452  0.2800  0.2948
  818MOL0     C 7883   6.343   9.224   8.614 -0.3653 -0.5076  0.3486
  818MOL0     C 7884   6.207   9.276   8.659  0.1270  0.3175 -1.0589
  818MOL0     C 7885   6.103   9.163   8.623  0.3900 -0.4923  0.2027
  818MOL0     C 7886   5.965   9.178   8.694 -0.4948 -0.5939  0.4743
  818MOL0     C 7887   5.883   9.053   8.680  0.7319 -0.6156  0.8807
  818MOL0    Cl 7888   5.815   9.043   8.506  0.0057  0.0522 -0.3156
  818MOL0     C 7889   7.043   9.192   8.745 -0.3275  0.8752 -0.7549
  818MOL0     C 7890   7.181   9.206   8.732  1.0265 -0.3387 -0.0130
  818MOL0     O 7891   7.406   9.526   8.588 -0.4316 -0.2849  1.1493
  818MOL0     C 7892   7.685   9.509   8.604 -0.6591  0.3202  0.0675
  818MOL0     C 7893   7.821   9.486   8.613  0.0065  0.5126  1.1833
  818MOL0     N 7894   8.421   9.334   8.472 -1.6043  0.3950  0.7737
  818MOL0     N 7895   8.504   9.364   8.375 -0.2134  0.4997  0.0002
  818MOL0     C 7896   9.689   9.643   7.897 -0.2234  0.1755 -0.0411
  818MOL0     C 7897   9.823   9.640   7.934  0.3862  0.6587  0.2719
  818MOL0     C 7898  10.190   9.588   8.180 -0.2536 -0.2935 -0.5137
  818MOL0     C 7899  10.250   9.717   8.151 -0.1418  0.1679 -0.4076
  818MOL0     C 7900  10.382   9.735   8.176 -0.0077  0.0147  0.0540
  818MOL0     C 7901  10.456   9.629   8.231  1.0236 -0.1959  0.1394
  818MOL0     O 7902  10.588   9.669   8.269 -0.2370 -0.1340 -0.4523
  818MOL0     C 7903  10.688   9.581   8.216 -0.3926  0.7665 -0.5475
  818MOL0     C 7904  10.816   9.600   8.304  0.0618 -0.2225 -0.2572
  818MOL0     C 7905  10.871   9.737   8.297 -0.6625  0.3557  0.5432
  818MOL0     C 7906  10.827   9.830   8.421 -0.6897  0.3832  0.3661
  818MOL0     C 7907  10.858   9.781   8.558  0.2311  0.2260  0.2458
  818MOL0     C 7908  10.879   9.722   8.659 -0.3152 -0.4430 -0.9903
  818MOL0     C 7909  10.403   9.506   8.268  0.1907  0.0063 -0.0366
  818MOL0     C 7910  10.272   9.486   8.232  0.4287  0.0204 -0.7376
  818MOL0     H 7911   9.782   9.660   8.279  1.0571  0.1883 -0.2870
  818MOL0     H 7912   9.538   9.588   8.204 -2.1345 -1.9235 -1.5846
  818MOL0     H 7913   9.324   9.638   8.067 -1.6868 -1.8759  1.2442
  818MOL0     H 7914   9.395   9.472   8.083 -0.3190 -1.7124 -0.2700
  818MOL0     H 7915   9.267   9.412   7.883  1.7565 -1.5648  0.0484
  818MOL0     H 7916   9.207   9.576   7.856  0.9975 -0.9857 -1.9009
  818MOL0     H 7917   9.111   9.576   8.103 -0.0845 -3.4327  5.3892
  818MOL0     H 7918   9.183   9.423   8.118  4.3341  0.5760 -2.6729
  818MOL0     H 7919   8.986   9.477   7.896 -0.2765  0.6099  1.0368
  818MOL0     H 7920   9.044   9.323   7.946  0.5546  0.5695 -1.4034
  818MOL0     H 7921   8.912   9.317   8.145 -0.7593  0.2287  0.7526
  818MOL0     H 7922   8.810   9.364   8.014  1.7898 -2.4061 -2.0505
  818MOL0     H 7923   8.843   9.610   8.083 -2.5166  1.5632  2.9299
  818MOL0     H 7924   8.922   9.538   8.229  0.9932 -1.1848 -0.9798
  818MOL0     H 7925   8.653   9.607   8.194 -2.8844 -1.5347  0.9426
  818MOL0     H 7926   8.653   9.433   8.161 -2.0542  1.1237  1.3101
  818MOL0     H 7927   8.726   9.601   8.399  0.2426  0.1543 -0.2508
  818MOL0     H 7928   8.797   9.428   8.388  0.8565  0.8076  0.5684
  818MOL0     H 7929   8.614   9.539   8.633 -0.1443 -1.3136  1.3289
  818MOL0     H 7930   8.442   9.472   8.791  1.4617 -0.7868 -0.3852
  818MOL0     H 7931   8.361   9.321   8.751  4.2909 -2.2127 -2.4998
  818MOL0     H 7932   8.198   9.495   8.602 -0.4407  3.5933  0.4753
  818MOL0     H 7933   8.252   9.603   8.721 -1.1606  0.1013  1.3919
  818MOL0     H 7934   8.174   9.442   8.905 -1.9684 -1.5014 -0.4407
  818MOL0     H 7935   8.047   9.515   8.806 -1.0094 -0.3771  0.8526
  818MOL0     H 7936   8.018   9.273   8.851 -0.5922 -1.9848 -1.4201
  818MOL0     H 7937   8.161   9.244   8.747  0.6542  1.0779  1.2440
  818MOL0     H 7938   7.802   9.160   8.719 -3.8201 -1.9362 -0.3402
  818MOL0     H 7939   7.569   9.202   8.704 -1.1438  1.6175  1.0119
  818MOL0     H 7940   7.193   9.542   8.716  0.0435  0.5859  1.7908
  818MOL0     H 7941   6.956   9.505   8.674 -0.6869 -0.0730 -0.3614
  818MOL0     H 7942   6.749   9.398   8.571 -3.5221  3.7756  0.6378
  818MOL0     H 7943   6.692   9.438   8.731 -3.4780  0.7455 -1.5030
  818MOL0     H 7944   6.595   9.198   8.732  0.6241  0.5633  0.1972
  818MOL0     H 7945   6.625   9.186   8.570  0.5828  0.8188 -0.2190
  818MOL0     H 7946   6.461   9.403   8.553  2.5036 -0.5980 -0.4081
  818MOL0     H 7947   6.439   9.379   8.733  0.0531  1.8938 -0.4844
  818MOL0     H 7948   6.340   9.211   8.505 -0.0970 -1.1682  0.4187
  818MOL0     H 7949   6.371   9.126   8.651 -1.1550 -1.8706 -2.3751
  818MOL0     H 7950   6.177   9.365   8.604 -1.1232  2.6796  3.0435
  818MOL0     H 7951   6.194   9.303   8.764  1.2286 -0.8680 -0.5907
  818MOL0     H 7952   6.142   9.066   8.654  1.2886  0.3387  1.8151
  818MOL0     H 7953   6.085   9.154   8.516 -0.2077  0.3029  0.2275
  818MOL0     H 7954   5.992   9.211   8.795 -3.3879  2.8048  0.3338
  818MOL0     H 7955   5.910   9.261   8.647  4.4101  3.0087  0.2740
  818MOL0     H 7956   5.795   9.059   8.744 -0.7973  1.7001 -1.2479
  818MOL0     H 7957   5.935   8.958   8.693 -1.5631 -2.0958 -0.1151
  818MOL0     H 7958   6.998   9.096   8.769 -0.7396  0.8579 -1.5761
  818MOL0     H 7959   7.253   9.125   8.746 -0.0167 -0.9135  2.6601
  818MOL0     H 7960   7.655   9.613   8.590 -0.1085  0.6506  1.2442
  818MOL0     H 7961   7.895   9.564   8.603  2.6442 -1.8290  1.4532
  818MOL0     H 7962   9.664   9.651   7.792  3.2054 -3.2507 -1.3705
  818MOL0     H 7963   9.904   9.656   7.863 -0.3875 -1.2169 -1.1021
  818MOL0     H 7964  10.209   9.807   8.106  0.6423  0.9496  0.4046
  818MOL0     H 7965  10.435   9.825   8.146  1.8667 -0.7868  0.7689
  818MOL0     H 7966  10.723   9.607   8.116  0.9069  1.9635  0.1878
  818MOL0     H 7967  10.645   9.480   8.224 -2.2134  1.6249  1.4569
  818MOL0     H 7968  10.791   9.566   8.404  1.3906 -3.4098 -0.8762
  818MOL0     H 7969  10.898   9.535   8.271  0.1091  0.3070 -1.2532
  818MOL0     H 7970  10.858   9.791   8.203 -0.2211  1.2218  0.9735
  818MOL0     H 7971  10.980   9.733   8.306 -0.7509 -2.4383  1.4415
  818MOL0     H 7972  10.863   9.931   8.402 -0.9084  0.2781 -0.7098
  818MOL0     H 7973  10.718   9.844   8.414 -0.5132  1.6674 -0.0277
  818MOL0     H 7974  10.909   9.669   8.747  0.2870 -1.8443 -2.0127
  818MOL0     H 7975  10.444   9.420   8.320 -0.6500  0.1557  0.9146
  818MOL0     H 7976  10.253   9.381   8.253  2.5839 -0.2516  0.0748
  819MOL0     O 7977   9.857   5.726   7.579  0.1009 -0.2263  0.6325
  819MOL0     C 7978   9.789   5.624   7.600 -0.7696 -0.0124  0.3006
  819MOL0     O 7979   9.832   5.494   7.597 -0.2688 -0.7069 -1.0118
  819MOL0     C 7980   9.970   5.469   7.587  0.5380 -0.2790  0.2039
  819MOL0     C 7981  10.017   5.373   7.503  0.3365 -0.5755 -0.4213
  819MOL0     C 7982  10.154   5.359   7.486 -0.5830  0.6803 -0.3114
  819MOL0     C 7983  10.248   5.439   7.557  0.3928 -1.0028  0.5676
  819MOL0     O 7984  10.380   5.443   7.558  0.0052 -0.5854 -0.1349
  819MOL0     C 7985  10.445   5.319   7.516 -0.1900 -0.3746 -0.3178
  819MOL0     C 7986  10.593   5.315   7.550 -0.3015 -0.0074 -0.9285
  819MOL0     C 7987  10.677   5.429   7.499  0.4481 -0.2354  0.4833
  819MOL0     C 7988  10.831   5.401   7.532  0.1101 -0.5026 -0.0004
  819MOL0     C 7989  10.883   5.313   7.412 -0.1108  0.5670 -0.1260
  819MOL0     C 7990  11.026   5.245   7.438  0.4082 -0.5594  0.0616
  819MOL0     C 7991  11.153   5.348   7.446 -0.6276  0.0275 -0.3854
  819MOL0     C 7992  11.280   5.264   7.491 -0.4955 -0.0747  0.1104
  819MOL0     N 7993  11.350   5.179   7.387  0.0820 -0.3739  0.4477
  819MOL0     C 7994  11.377   5.044   7.401 -0.3885 -0.7211 -0.4608
  819MOL0     C 7995  11.408   5.000   7.275  0.2484  0.2257  0.0576
  819MOL0     C 7996  11.432   4.855   7.235  0.4780  0.4377  0.0279
  819MOL0     C 7997  11.574   4.811   7.217 -0.9091  0.1149 -0.0307
  819MOL0     C 7998  11.659   4.789   7.347  0.6062 -0.1804 -0.6655
  819MOL0     C 7999  11.807   4.772   7.326 -0.4246  0.5433 -0.0008
  819MOL0     O 8000  11.863   4.883   7.263  0.2444  0.4647  0.4294
  819MOL0     C 8001  11.994   4.897   7.292 -0.2732 -0.2075  0.5147
  819MOL0     C 8002  12.086   4.792   7.275 -0.1268 -0.5470 -0.9653
  819MOL0     C 8003  12.216   4.808   7.317  0.0126  1.0375 -0.2645
  819MOL0     C 8004  12.268   4.923   7.379 -0.6339 -0.5385  0.6465
  819MOL0     C 8005  12.397   4.919   7.434  0.2243 -1.3211 -0.9236
  819MOL0     O 8006  12.460   4.805   7.437 -0.5873  0.3480 -0.2629
  819MOL0     C 8007  12.602   4.788   7.454  0.7340 -0.2885  1.1911
  819MOL0     C 8008  12.644   4.663   7.504  0.2156 -0.6441 -0.9606
  819MOL0     C 8009  12.790   4.647   7.518  0.5331  0.1073 -1.3343
  819MOL0     C 8010  12.883   4.743   7.478  0.2422  0.1047 -0.5963
  819MOL0     O 8011  13.021   4.736   7.499  0.3446  0.9095 -0.3760
  819MOL0     C 8012  13.080   4.611   7.444 -0.6996  0.0572 -1.9578
  819MOL0     C 8013  13.226   4.596   7.489 -0.3236 -0.1964 -0.8092
  819MOL0     C 8014  13.295   4.489   7.413  0.6106  0.0988  0.0758
  819MOL0     C 8015  13.260   4.354   7.461  0.0308  0.3466 -0.2201
  819MOL0     C 8016  13.288   4.243   7.360  0.8123 -0.4951 -0.1114
  819MOL0     C 8017  13.247   4.103   7.407 -0.2389  0.0792 -0.6920
  819MOL0     C 8018  13.292   3.992   7.308 -0.4033  0.0058 -0.6457
  819MOL0     C 8019  13.236   3.857   7.347 -0.4847 -0.3795  0.0301
  819MOL0    Cl 8020  13.063   3.835   7.297  0.8136  0.3320 -0.2986
  819MOL0     C 8021  12.833   4.862   7.418  0.6974 -0.9003  0.2305
  819MOL0     C 8022  12.692   4.886   7.414 -0.3030 -0.1432  0.4013
  819MOL0     O 8023  12.444   5.031   7.459 -0.2215 -0.1855  0.5024
  819MOL0     C 8024  12.181   5.032   7.382  0.5590  0.0783 -1.1155
  819MOL0     C 8025  12.054   5.018   7.340 -0.2096  1.0301  0.1201
  819MOL0     N 8026  11.409   5.108   7.195 -0.1916 -0.0268  0.8343
  819MOL0     N 8027  11.376   5.218   7.255 -0.2537  0.8453  0.5977
  819MOL0     C 8028  10.198   5.525   7.650  0.8500 -0.1939  0.5833
  819MOL0     C 8029  10.060   5.549   7.658 -0.4037 -1.1066  0.3250
  819MOL0     C 8030   9.644   5.656   7.632 -0.3517  0.4077  0.1953
  819MOL0     C 8031   9.552   5.552   7.634  0.0422 -0.2584  0.1390
  819MOL0     C 8032   9.427   5.574   7.686 -0.4348 -0.6907  0.2220
  819MOL0     C 8033   9.382   5.701   7.724  0.5465  0.3040 -0.3123
  819MOL0     O 8034   9.253   5.725   7.763 -0.0939  0.1579 -0.6915
  819MOL0     C 8035   9.197   5.660   7.881 -0.0705  0.3525  0.2686
  819MOL0     C 8036   9.073   5.586   7.818 -0.0890 -0.0817  0.1987
  819MOL0     C 8037   8.992   5.536   7.932  0.2551 -0.0515 -0.0548
  819MOL0     C 8038   8.859   5.476   7.889 -0.2133 -0.7590  0.4299
  819MOL0     C 8039   8.781   5.474   8.013 -0.0548 -0.2027 -0.7733
  819MOL0     C 8040   8.708   5.472   8.109  0.9997  1.1993 -0.8722
  819MOL0     C 8041   9.468   5.805   7.707  0.4890  0.6620  1.0439
  819MOL0     C 8042   9.602   5.783   7.657  0.1606  0.3948 -0.6593
  819MOL0     H 8043   9.949   5.311   7.445 -0.7904 -1.4327  1.6929
  819MOL0     H 8044  10.199   5.294   7.412  1.5447  1.0871  0.5496
  819MOL0     H 8045  10.438   5.309   7.407  1.1600  2.2801 -0.7394
  819MOL0     H 8046  10.405   5.233   7.569  1.1884 -2.4751 -2.4617
  819MOL0     H 8047  10.618   5.218   7.508  0.7241  0.2243 -0.8835
  819MOL0     H 8048  10.602   5.315   7.659 -0.1609  3.3908 -0.8076
  819MOL0     H 8049  10.649   5.523   7.547  4.2229  0.3260  1.9201
  819MOL0     H 8050  10.658   5.447   7.393 -0.3212  3.5039  1.1267
  819MOL0     H 8051  10.891   5.493   7.525 -3.0600  1.5974 -1.7699
  819MOL0     H 8052  10.828   5.361   7.634 -2.0708  1.7359  0.9067
  819MOL0     H 8053  10.893   5.378   7.324 -0.0597  1.4622  0.5281
  819MOL0     H 8054  10.817   5.231   7.384  1.1955 -1.0461  1.2915
  819MOL0     H 8055  11.040   5.165   7.365  0.5117 -1.4784  1.0673
  819MOL0     H 8056  11.019   5.208   7.540  1.8493  1.7536  1.0878
  819MOL0     H 8057  11.189   5.403   7.359  0.4748  0.4273  0.2873
  819MOL0     H 8058  11.134   5.412   7.533 -0.4085 -1.8969  1.1461
  819MOL0     H 8059  11.257   5.190   7.569  1.9964 -1.2760 -0.1899
  819MOL0     H 8060  11.353   5.335   7.530 -0.2715 -0.2685  0.0489
  819MOL0     H 8061  11.385   5.001   7.500 -0.3203  0.9298  0.2769
  819MOL0     H 8062  11.368   4.836   7.149 -0.9099  3.7113  0.1997
  819MOL0     H 8063  11.387   4.797   7.316  2.5190  1.5546  2.0955
  819MOL0     H 8064  11.613   4.896   7.161  0.0582 -0.5892 -0.4372
  819MOL0     H 8065  11.586   4.719   7.159 -1.3186 -1.5539  2.3688
  819MOL0     H 8066  11.649   4.880   7.407  0.5587 -0.3636 -0.3931
  819MOL0     H 8067  11.611   4.704   7.396  0.2190 -0.0350 -0.7912
  819MOL0     H 8068  11.832   4.674   7.285 -0.9369  0.4169 -0.0224
  819MOL0     H 8069  11.842   4.773   7.429 -2.7385  0.8722  0.8571
  819MOL0     H 8070  12.052   4.697   7.236 -1.3545 -0.7849  0.5571
  819MOL0     H 8071  12.272   4.715   7.320 -0.4657  0.7200 -1.0302
  819MOL0     H 8072  12.566   4.594   7.535  0.1275  0.3802  1.2370
  819MOL0     H 8073  12.839   4.568   7.575 -2.0266 -0.8689 -0.3241
  819MOL0     H 8074  13.069   4.620   7.336 -0.5130 -3.5934 -2.3876
  819MOL0     H 8075  13.026   4.522   7.478  3.7004 -2.3328 -0.4226
  819MOL0     H 8076  13.234   4.572   7.596  0.4448  0.7955 -0.6184
  819MOL0     H 8077  13.285   4.687   7.472  1.1161 -0.7220  1.0283
  819MOL0     H 8078  13.403   4.505   7.410  0.4378  1.4980 -3.3056
  819MOL0     H 8079  13.260   4.500   7.309 -2.8898  1.8985  1.2731
  819MOL0     H 8080  13.306   4.328   7.556  1.5049 -0.5582 -1.1460
  819MOL0     H 8081  13.151   4.344   7.474 -0.1032 -3.6591 -2.6515
  819MOL0     H 8082  13.394   4.232   7.335  0.3593 -1.3464 -1.7759
  819MOL0     H 8083  13.241   4.263   7.264  0.8959  1.4806  0.2221
  819MOL0     H 8084  13.139   4.100   7.426 -0.2372  0.4541 -0.6274
  819MOL0     H 8085  13.291   4.093   7.507  0.2161 -0.2998 -0.9217
  819MOL0     H 8086  13.265   4.022   7.207 -1.1230 -1.4027 -0.8944
  819MOL0     H 8087  13.401   3.985   7.303 -0.5219 -3.5852 -0.9464
  819MOL0     H 8088  13.247   3.839   7.455  1.3280 -1.9542 -0.3626
  819MOL0     H 8089  13.301   3.777   7.312  0.3920 -1.6802  4.0724
  819MOL0     H 8090  12.912   4.930   7.388  2.2761 -2.1588  1.3498
  819MOL0     H 8091  12.659   4.984   7.383 -0.3875  0.8468  3.3200
  819MOL0     H 8092  12.222   5.127   7.415  2.0755 -0.5189 -1.2043
  819MOL0     H 8093  11.987   5.101   7.362 -1.5579 -0.2893  1.1453
  819MOL0     H 8094  10.273   5.593   7.690 -0.3033  0.1541  2.3004
  819MOL0     H 8095  10.033   5.635   7.718 -1.2897 -0.7414 -0.5595
  819MOL0     H 8096   9.571   5.458   7.583  2.9311  0.7049 -0.7597
  819MOL0     H 8097   9.359   5.492   7.708 -1.7498  0.2922 -0.0405
  819MOL0     H 8098   9.181   5.731   7.962 -0.8690  0.7709 -0.2427
  819MOL0     H 8099   9.267   5.584   7.916  1.1104  0.4324 -1.7393
  819MOL0     H 8100   9.014   5.655   7.757 -0.8016 -1.8279 -1.1704
  819MOL0     H 8101   9.113   5.508   7.752  1.9908  0.3984  0.8111
  819MOL0     H 8102   8.961   5.616   7.999 -3.1768 -1.9826  0.9587
  819MOL0     H 8103   9.055   5.469   7.991 -1.4585  0.3516  2.3992
  819MOL0     H 8104   8.809   5.550   7.827 -0.1705  0.0883  1.3759
  819MOL0     H 8105   8.867   5.377   7.843 -0.9386 -1.0315  0.8806
  819MOL0     H 8106   8.644   5.475   8.196  0.8098 -2.3997 -0.7410
  819MOL0     H 8107   9.430   5.903   7.738 -0.4437  0.2158  1.3605
  819MOL0     H 8108   9.665   5.870   7.639 -1.4675  1.7879  0.0739
  820MOL0     O 8109   2.672   8.503   8.625  0.2828 -1.0902 -0.0026
  820MOL0     C 8110   2.737   8.431   8.701 -0.0560 -0.0268  0.4143
  820MOL0     O 8111   2.696   8.308   8.763  0.0471 -0.0685  1.0967
  820MOL0     C 8112   2.571   8.253   8.779  0.4324  0.1208 -0.5799
  820MOL0     C 8113   2.461   8.315   8.731  0.5877 -0.1925 -0.0811
  820MOL0     C 8114   2.333   8.261   8.743  0.4978 -0.7180  0.5241
  820MOL0     C 8115   2.318   8.127   8.801  0.0806  0.0428  0.0140
  820MOL0     O 8116   2.198   8.064   8.825 -0.9421  0.9346  0.1030
  820MOL0     C 8117   2.080   8.119   8.775 -0.4593  0.1555 -0.3566
  820MOL0     C 8118   1.986   7.996   8.770 -0.6154 -0.5167 -0.1270
  820MOL0     C 8119   1.842   8.035   8.723  0.3190 -0.3211  0.6279
  820MOL0     C 8120   1.773   7.908   8.670 -0.6009 -0.2572 -1.1320
  820MOL0     C 8121   1.752   7.803   8.787  0.7718  0.0419 -0.1083
  820MOL0     C 8122   1.665   7.684   8.730  0.4199 -0.2411 -0.2226
  820MOL0     C 8123   1.733   7.602   8.623  0.5815  0.6046 -0.5445
  820MOL0     C 8124   1.855   7.511   8.675 -0.3112  0.1283  0.2761
  820MOL0     N 8125   1.814   7.424   8.793  0.7372 -0.3150  0.1156
  820MOL0     C 8126   1.710   7.344   8.812  0.7395  0.7362  0.3001
  820MOL0     C 8127   1.726   7.272   8.921  0.3656  0.7038  0.4221
  820MOL0     C 8128   1.626   7.192   9.001 -0.2594 -0.5360 -0.1167
  820MOL0     C 8129   1.626   7.048   8.948  0.4320  1.0422 -0.2541
  820MOL0     C 8130   1.512   6.962   9.005  0.4599 -0.1088 -0.4485
  820MOL0     C 8131   1.508   6.953   9.163 -0.1859 -0.6111 -0.9001
  820MOL0     O 8132   1.430   6.839   9.203  0.2550 -0.9172 -0.5409
  820MOL0     C 8133   1.293   6.836   9.192 -0.2586 -0.0732  0.0489
  820MOL0     C 8134   1.241   6.712   9.222  0.2150  0.0010 -0.6603
  820MOL0     C 8135   1.103   6.687   9.213  0.1135 -0.4033  0.1660
  820MOL0     C 8136   1.018   6.785   9.168 -1.0340  0.2549  0.0095
  820MOL0     C 8137   0.875   6.754   9.167 -0.3811 -0.6296 -0.7156
  820MOL0     O 8138   0.827   6.646   9.235  0.3796 -0.4118  0.3860
  820MOL0     C 8139   0.688   6.621   9.229 -0.4573  0.9611  0.3313
  820MOL0     C 8140   0.594   6.728   9.252 -0.3347 -0.0164  0.6471
  820MOL0     C 8141   0.456   6.704   9.228  0.1142 -0.8745  0.8490
  820MOL0     C 8142   0.409   6.580   9.191 -0.9775 -0.0251  0.5280
  820MOL0     O 8143   0.279   6.552   9.169  1.1671 -0.7247  0.0141
  820MOL0     C 8144   0.226   6.431   9.228  0.5596 -0.2076 -0.0142
  820MOL0     C 8145   0.087   6.457   9.293 -0.1342 -0.3841  0.5101
  820MOL0     C 8146  -0.008   6.526   9.199 -0.5941 -0.6243 -0.6646
  820MOL0     C 8147  -0.150   6.522   9.255 -0.3188  0.3282 -1.3776
  820MOL0     C 8148  -0.239   6.606   9.179  0.5664 -0.6940 -0.5722
  820MOL0     C 8149  -0.270   6.572   9.035 -0.0605  0.5590  0.1558
  820MOL0     C 8150  -0.375   6.652   8.985 -0.0026  0.0901  0.5423
  820MOL0     C 8151  -0.412   6.624   8.842  0.7114  0.2379  0.2174
  820MOL0    Cl 8152  -0.514   6.756   8.771 -0.2161  0.3138 -0.2091
  820MOL0     C 8153   0.500   6.470   9.183  0.4474  0.2280  0.1527
  820MOL0     C 8154   0.637   6.496   9.201 -0.7192 -0.7865  0.1672
  820MOL0     O 8155   0.808   6.826   9.090  0.0846  1.0930 -0.3558
  820MOL0     C 8156   1.074   6.909   9.132  1.0564 -0.8207  0.0419
  820MOL0     C 8157   1.205   6.936   9.145 -0.4177 -1.0833  0.3269
  820MOL0     N 8158   1.855   7.299   8.963  0.7771 -0.1126 -0.2756
  820MOL0     N 8159   1.899   7.400   8.893  0.1067 -0.8996  0.6417
  820MOL0     C 8160   2.437   8.056   8.846  0.5286 -0.1378 -0.4533
  820MOL0     C 8161   2.561   8.124   8.833  0.3817  0.1980  0.0958
  820MOL0     C 8162   2.886   8.465   8.722  0.6233  0.1769  0.9829
  820MOL0     C 8163   2.945   8.580   8.654 -0.6027 -0.2792 -0.6086
  820MOL0     C 8164   3.078   8.614   8.684  0.5465  0.2144 -0.1034
  820MOL0     C 8165   3.152   8.539   8.775  0.2705  1.1509  0.0730
  820MOL0     O 8166   3.284   8.577   8.782  0.3625  0.0608  0.2496
  820MOL0     C 8167   3.373   8.511   8.871  0.9003 -0.2773  1.0990
  820MOL0     C 8168   3.507   8.571   8.856  0.4505 -0.5773  0.1641
  820MOL0     C 8169   3.587   8.560   8.985  0.3476  0.0478  0.0986
  820MOL0     C 8170   3.667   8.430   8.981 -0.3068 -0.3589 -0.2876
  820MOL0     C 8171   3.778   8.433   9.082  1.3558 -0.3045 -0.7275
  820MOL0     C 8172   3.871   8.455   9.157  0.3782  0.4024  0.2661
  820MOL0     C 8173   3.100   8.417   8.830  0.3296  0.4389  0.4721
  820MOL0     C 8174   2.969   8.384   8.808  1.0382 -0.0588  0.3818
  820MOL0     H 8175   2.478   8.402   8.669 -2.4328 -0.0268 -0.8036
  820MOL0     H 8176   2.249   8.321   8.711 -0.6823 -2.1096  0.9066
  820MOL0     H 8177   2.101   8.157   8.675 -1.2091  2.0106  0.1551
  820MOL0     H 8178   2.040   8.192   8.845 -1.3639 -0.5910 -0.0792
  820MOL0     H 8179   1.988   7.957   8.872  2.1546  0.0148  0.0901
  820MOL0     H 8180   2.027   7.918   8.705  0.4953 -0.7290  0.8117
  820MOL0     H 8181   1.852   8.107   8.641  1.0617 -1.5237 -0.3596
  820MOL0     H 8182   1.798   8.078   8.814  0.5000  2.2612 -0.3974
  820MOL0     H 8183   1.679   7.937   8.621  0.7738  1.3776 -2.9204
  820MOL0     H 8184   1.833   7.857   8.594  0.4236  0.8429 -1.0855
  820MOL0     H 8185   1.696   7.841   8.873 -1.3927  0.4280 -1.6086
  820MOL0     H 8186   1.845   7.770   8.835 -0.0579 -1.6150  0.4109
  820MOL0     H 8187   1.580   7.732   8.682  1.0261  2.5966  1.3268
  820MOL0     H 8188   1.625   7.621   8.811  0.5329 -1.9220 -1.4220
  820MOL0     H 8189   1.663   7.532   8.578  0.6301 -1.5039  2.3450
  820MOL0     H 8190   1.777   7.670   8.549  0.4086  1.8270  0.4322
  820MOL0     H 8191   1.940   7.573   8.707  0.0390  0.8818 -1.9592
  820MOL0     H 8192   1.885   7.452   8.588 -1.9276  1.0296 -0.9591
  820MOL0     H 8193   1.619   7.348   8.752  2.4983 -0.6923 -2.6541
  820MOL0     H 8194   1.531   7.245   8.990  0.4982  0.6557 -1.2277
  820MOL0     H 8195   1.662   7.188   9.104  0.8085 -1.9120 -0.5064
  820MOL0     H 8196   1.720   6.997   8.969 -1.0521 -2.2099 -0.8760
  820MOL0     H 8197   1.614   7.051   8.839  3.2497 -0.3685 -0.6755
  820MOL0     H 8198   1.420   7.002   8.962  1.2399  1.2553 -0.9033
  820MOL0     H 8199   1.526   6.862   8.961  1.5227 -0.0326 -0.3125
  820MOL0     H 8200   1.463   7.041   9.209  0.4619 -0.0805 -1.2678
  820MOL0     H 8201   1.609   6.951   9.206  0.8637  0.8419 -3.1281
  820MOL0     H 8202   1.309   6.637   9.261 -1.2570 -0.4239  1.1995
  820MOL0     H 8203   1.072   6.588   9.245  4.0256 -1.8350 -0.0255
  820MOL0     H 8204   0.630   6.828   9.273  0.7855  0.1200 -1.6229
  820MOL0     H 8205   0.383   6.779   9.257  1.2642  1.1997 -1.2819
  820MOL0     H 8206   0.285   6.394   9.312  2.3535  3.1606  0.3979
  820MOL0     H 8207   0.218   6.361   9.145 -1.0605  2.2335 -2.0801
  820MOL0     H 8208   0.091   6.526   9.378 -1.1208 -0.4937  0.6505
  820MOL0     H 8209   0.052   6.361   9.330  1.2513 -0.1184  2.6812
  820MOL0     H 8210  -0.013   6.470   9.105 -0.7410 -1.2214 -0.3093
  820MOL0     H 8211   0.023   6.630   9.188 -1.7678 -0.2317 -0.4292
  820MOL0     H 8212  -0.179   6.417   9.243  2.6405 -0.5114 -2.0840
  820MOL0     H 8213  -0.151   6.566   9.355 -0.7214  5.1510 -3.2230
  820MOL0     H 8214  -0.195   6.706   9.182 -1.6885  0.3378  1.9607
  820MOL0     H 8215  -0.332   6.598   9.236  0.3073 -2.5686 -1.1811
  820MOL0     H 8216  -0.308   6.469   9.042 -0.2077  0.6673  1.0833
  820MOL0     H 8217  -0.179   6.576   8.974 -0.8086  1.1657 -0.9343
  820MOL0     H 8218  -0.463   6.639   9.049  1.7395  0.2978  3.1022
  820MOL0     H 8219  -0.342   6.755   9.000 -1.2840  0.3266  1.9556
  820MOL0     H 8220  -0.470   6.531   8.838  4.6178 -2.4732  1.1468
  820MOL0     H 8221  -0.330   6.608   8.772  2.3466  0.9755  1.9070
  820MOL0     H 8222   0.472   6.373   9.144  1.8054 -0.7181  1.4193
  820MOL0     H 8223   0.700   6.413   9.169 -1.2536 -3.5494  5.1958
  820MOL0     H 8224   1.009   6.992   9.110  2.9335  0.7061 -0.0124
  820MOL0     H 8225   1.247   7.035   9.131  1.5283 -1.8304  0.5485
  820MOL0     H 8226   2.429   7.960   8.896 -2.2414  0.4753  0.5053
  820MOL0     H 8227   2.648   8.066   8.863  0.4804 -2.8425 -4.9052
  820MOL0     H 8228   2.887   8.637   8.582 -2.4225 -0.2462  0.8404
  820MOL0     H 8229   3.133   8.697   8.642  2.0093 -0.6552  0.0003
  820MOL0     H 8230   3.382   8.406   8.844  3.0498  0.7690 -3.0060
  820MOL0     H 8231   3.332   8.514   8.973 -0.5258  0.2059  0.5481
  820MOL0     H 8232   3.558   8.534   8.767 -2.7414 -2.7791 -0.9535
  820MOL0     H 8233   3.495   8.679   8.843 -1.8739 -0.3091  3.3052
  820MOL0     H 8234   3.523   8.567   9.074  1.7100  2.7897  0.9791
  820MOL0     H 8235   3.660   8.641   8.989 -1.6766  1.9677  0.2280
  820MOL0     H 8236   3.583   8.367   9.013  2.2980 -3.5638  0.8194
  820MOL0     H 8237   3.708   8.399   8.885  0.1650 -1.9388  0.3863
  820MOL0     H 8238   3.949   8.494   9.220  0.9843 -0.5699  0.1453
  820MOL0     H 8239   3.163   8.347   8.884  1.2750  0.8801 -0.0310
  820MOL0     H 8240   2.920   8.298   8.851 -0.4061  0.5560  0.0295
  821MOL0     O 8241   2.553   8.689   3.548  0.2633 -0.6086  0.4223
  821MOL0     C 8242   2.548   8.662   3.668 -1.1538  0.2509  0.0959
  821MOL0     O 8243   2.636   8.714   3.768  0.1189 -0.6789 -0.4513
  821MOL0     C 8244   2.758   8.775   3.739  0.4734 -0.1847  0.0820
  821MOL0     C 8245   2.844   8.735   3.629 -0.5003  0.2745 -0.7428
  821MOL0     C 8246   2.973   8.787   3.614  0.1632 -0.4864  0.8257
  821MOL0     C 8247   3.026   8.875   3.707  0.1665  0.7953 -0.5344
  821MOL0     O 8248   3.157   8.910   3.719 -1.1359 -0.0094  0.3307
  821MOL0     C 8249   3.261   8.812   3.682  0.3295 -0.0145 -0.0734
  821MOL0     C 8250   3.293   8.702   3.778 -1.0777  0.0109  0.5320
  821MOL0     C 8251   3.357   8.756   3.906 -0.1387 -0.0697  0.5553
  821MOL0     C 8252   3.273   8.855   3.991  0.1744 -0.7080 -0.1285
  821MOL0     C 8253   3.338   8.869   4.128  0.2939 -0.5526  0.3365
  821MOL0     C 8254   3.280   8.987   4.210  0.1652  0.3974  0.1189
  821MOL0     C 8255   3.151   8.957   4.287 -0.2419 -0.1708  0.4339
  821MOL0     C 8256   3.080   9.082   4.340 -0.2418 -0.1888 -1.1544
  821MOL0     N 8257   3.028   9.165   4.231  0.8169  1.2404 -0.7567
  821MOL0     C 8258   2.934   9.112   4.141 -0.1553  0.4591 -0.3234
  821MOL0     C 8259   2.904   9.225   4.075 -0.0869 -0.9091 -0.6854
  821MOL0     C 8260   2.798   9.221   3.965  0.7974  0.0146 -0.2809
  821MOL0     C 8261   2.704   9.346   3.984 -0.4412  0.1973  0.1395
  821MOL0     C 8262   2.592   9.318   4.076  0.3451  0.0464  0.0897
  821MOL0     C 8263   2.455   9.290   4.016 -0.1269  0.2314 -1.0219
  821MOL0     O 8264   2.456   9.150   3.971  0.3895  0.1359  0.2383
  821MOL0     C 8265   2.358   9.104   3.892 -0.0760  0.8903 -0.1993
  821MOL0     C 8266   2.373   8.980   3.832 -0.5522 -0.5725  0.0001
  821MOL0     C 8267   2.261   8.926   3.775  0.9276  0.6837 -0.3253
  821MOL0     C 8268   2.134   8.983   3.791 -0.5245  0.9848 -0.3823
  821MOL0     C 8269   2.020   8.919   3.742 -0.1472  0.2763  0.6771
  821MOL0     O 8270   1.892   8.980   3.753  0.2465 -0.4153  0.2292
  821MOL0     C 8271   1.785   8.936   3.682 -0.5510 -0.3894 -0.1257
  821MOL0     C 8272   1.799   8.917   3.536 -0.7365  0.0213  0.1450
  821MOL0     C 8273   1.685   8.874   3.467 -0.0383 -0.4091  0.0415
  821MOL0     C 8274   1.562   8.858   3.533  0.3663  0.1210  0.3744
  821MOL0     O 8275   1.454   8.821   3.465  1.1155  0.2375 -0.0492
  821MOL0     C 8276   1.442   8.681   3.450 -0.2521  0.5250  0.3241
  821MOL0     C 8277   1.314   8.624   3.395 -0.9899 -0.2905 -0.1296
  821MOL0     C 8278   1.289   8.663   3.244 -0.0946  0.2441 -0.1185
  821MOL0     C 8279   1.161   8.601   3.197 -0.3839 -0.7856  0.5329
  821MOL0     C 8280   1.139   8.610   3.040 -0.1181  0.1231  0.5886
  821MOL0     C 8281   1.005   8.543   2.999  0.2582  0.2169 -0.3445
  821MOL0     C 8282   0.981   8.566   2.845  0.1237 -0.3629 -0.4414
  821MOL0     C 8283   0.871   8.462   2.800  0.3564  0.4698  1.4153
  821MOL0    Cl 8284   0.896   8.431   2.621 -0.2609  0.4450 -0.2458
  821MOL0     C 8285   1.545   8.878   3.672  0.1213 -0.7103 -0.1932
  821MOL0     C 8286   1.660   8.924   3.745  1.2646 -0.0326  0.2422
  821MOL0     O 8287   2.040   8.811   3.682 -0.7405 -0.8270 -0.2014
  821MOL0     C 8288   2.117   9.103   3.857 -0.5487 -0.1213 -0.0277
  821MOL0     C 8289   2.233   9.163   3.903  0.1430 -0.2280  0.2431
  821MOL0     N 8290   2.967   9.341   4.126 -0.9743  0.2459 -0.2571
  821MOL0     N 8291   3.039   9.299   4.224  0.0508 -0.4816 -0.3019
  821MOL0     C 8292   2.939   8.927   3.809 -0.5618  0.2445  0.6434
  821MOL0     C 8293   2.806   8.878   3.830 -0.6804  0.2273  0.3798
  821MOL0     C 8294   2.440   8.582   3.719 -0.8857  0.1479  0.1418
  821MOL0     C 8295   2.408   8.568   3.857 -0.2669  0.4635  0.1474
  821MOL0     C 8296   2.288   8.517   3.904  0.7076  0.0608 -0.0090
  821MOL0     C 8297   2.202   8.450   3.809 -1.3175 -0.5829 -0.7944
  821MOL0     O 8298   2.091   8.394   3.863  0.5925 -0.1697 -0.5212
  821MOL0     C 8299   1.995   8.316   3.796  0.2471  0.9858  0.5239
  821MOL0     C 8300   1.864   8.378   3.757 -0.2120 -0.0756  0.0282
  821MOL0     C 8301   1.882   8.496   3.655 -0.1904 -0.2440  0.4491
  821MOL0     C 8302   1.746   8.549   3.610  0.1001  0.5793  0.2219
  821MOL0     C 8303   1.639   8.447   3.573  0.3593  0.6152 -0.5728
  821MOL0     C 8304   1.561   8.374   3.535  0.0890 -0.1046 -0.4871
  821MOL0     C 8305   2.232   8.464   3.672  0.0154  0.3003 -0.1399
  821MOL0     C 8306   2.348   8.527   3.627  0.1598 -0.9609 -0.6457
  821MOL0     H 8307   2.814   8.660   3.556  1.0785  0.7373 -1.9350
  821MOL0     H 8308   3.036   8.744   3.537  1.7813  1.2065  1.1439
  821MOL0     H 8309   3.349   8.876   3.688 -0.4713  0.9616  2.6227
  821MOL0     H 8310   3.254   8.769   3.582 -0.7538  2.8200 -1.3049
  821MOL0     H 8311   3.355   8.634   3.721 -2.0323 -1.4677  1.2045
  821MOL0     H 8312   3.197   8.652   3.790 -1.8765  0.7836 -1.9929
  821MOL0     H 8313   3.453   8.803   3.880 -0.0894  0.6878  2.0048
  821MOL0     H 8314   3.382   8.673   3.972 -1.6205 -0.4447  0.6768
  821MOL0     H 8315   3.267   8.954   3.945  1.6708 -0.4008  0.2853
  821MOL0     H 8316   3.169   8.823   4.001 -0.0659  0.0942  0.0521
  821MOL0     H 8317   3.446   8.888   4.123  0.7239 -0.9337  4.4806
  821MOL0     H 8318   3.323   8.767   4.164  0.7882 -1.7046 -2.4869
  821MOL0     H 8319   3.272   9.079   4.151  0.8126 -0.1777 -0.9013
  821MOL0     H 8320   3.351   9.018   4.288  1.1239  1.8219 -1.2363
  821MOL0     H 8321   3.091   8.902   4.214 -0.7753  1.2135 -0.2132
  821MOL0     H 8322   3.192   8.889   4.362  3.0931 -0.8599 -1.7959
  821MOL0     H 8323   3.136   9.139   4.414 -3.9775  1.1064  0.9537
  821MOL0     H 8324   2.988   9.047   4.388  0.0256 -1.2318 -1.3738
  821MOL0     H 8325   2.900   9.009   4.138  0.9750  0.0699 -0.0552
  821MOL0     H 8326   2.751   9.125   3.944 -0.1248  0.5569 -0.8215
  821MOL0     H 8327   2.840   9.253   3.869  0.4922  0.0801 -0.3955
  821MOL0     H 8328   2.661   9.378   3.888  0.3640 -1.8385 -0.9546
  821MOL0     H 8329   2.765   9.430   4.018 -0.1149  0.0980 -0.2010
  821MOL0     H 8330   2.617   9.241   4.149  0.6370 -2.2785 -2.3288
  821MOL0     H 8331   2.578   9.414   4.127  2.0099  1.0164 -1.1823
  821MOL0     H 8332   2.425   9.357   3.936 -3.2150 -0.7352 -0.8003
  821MOL0     H 8333   2.377   9.288   4.093 -2.4292 -1.6354 -3.2108
  821MOL0     H 8334   2.468   8.931   3.813 -0.2804  0.4659 -1.5347
  821MOL0     H 8335   2.272   8.842   3.708  1.6853  2.2669 -2.2703
  821MOL0     H 8336   1.899   8.923   3.493  0.2646 -4.0627  1.3671
  821MOL0     H 8337   1.690   8.865   3.359 -3.0367  1.8090 -0.3864
  821MOL0     H 8338   1.435   8.645   3.552  1.7423 -3.2445 -0.6864
  821MOL0     H 8339   1.536   8.645   3.406  1.4193  3.2411  1.4379
  821MOL0     H 8340   1.226   8.671   3.441 -0.7744  1.6631 -1.6043
  821MOL0     H 8341   1.310   8.515   3.408  0.3022 -0.3712 -0.2352
  821MOL0     H 8342   1.375   8.640   3.181  0.3211  0.2165  0.4460
  821MOL0     H 8343   1.269   8.771   3.246 -1.9299 -0.0620  2.3308
  821MOL0     H 8344   1.161   8.494   3.221  0.8215 -1.1398 -0.8990
  821MOL0     H 8345   1.087   8.653   3.259  1.0504  0.6329  1.1494
  821MOL0     H 8346   1.221   8.557   2.992  0.3395  0.9960  0.3900
  821MOL0     H 8347   1.150   8.709   2.994  0.5305 -0.8530 -1.4686
  821MOL0     H 8348   0.926   8.590   3.060 -1.0626 -2.2635 -0.0025
  821MOL0     H 8349   1.024   8.438   3.022 -0.5335  0.0649 -0.3303
  821MOL0     H 8350   0.948   8.668   2.823 -2.0918 -0.7315  0.8193
  821MOL0     H 8351   1.069   8.546   2.784  1.0616  1.8384  0.0757
  821MOL0     H 8352   0.768   8.490   2.824 -0.9305 -2.4429 -0.2163
  821MOL0     H 8353   0.898   8.365   2.845  0.5891 -0.7871 -1.2376
  821MOL0     H 8354   1.449   8.851   3.715 -0.6329 -2.2623 -2.6205
  821MOL0     H 8355   1.645   8.946   3.851 -0.0103 -1.7662  0.4695
  821MOL0     H 8356   2.022   9.150   3.876 -0.2838 -1.3314  7.3680
  821MOL0     H 8357   2.214   9.255   3.956 -4.1636 -0.6652 -0.2086
  821MOL0     H 8358   2.979   9.006   3.871  1.0271  1.5246 -1.8512
  821MOL0     H 8359   2.739   8.900   3.912 -0.0286 -3.5619  2.1710
  821MOL0     H 8360   2.479   8.608   3.929 -1.6666  2.5136  0.4805
  821MOL0     H 8361   2.275   8.511   4.012 -0.1863 -0.4704 -0.1457
  821MOL0     H 8362   1.960   8.229   3.853 -0.6610  0.4536 -0.8060
  821MOL0     H 8363   2.041   8.276   3.705 -2.2261  2.4115 -1.4773
  821MOL0     H 8364   1.792   8.307   3.715 -3.1298  1.5197  1.9444
  821MOL0     H 8365   1.810   8.412   3.846  0.1598  0.4668  0.0529
  821MOL0     H 8366   1.944   8.465   3.571  0.3912  1.4524  0.2207
  821MOL0     H 8367   1.943   8.574   3.702  0.7181 -1.4178  1.3006
  821MOL0     H 8368   1.701   8.613   3.687 -3.5403 -0.9193 -0.4467
  821MOL0     H 8369   1.758   8.598   3.513 -1.0845 -1.1600 -0.8539
  821MOL0     H 8370   1.488   8.303   3.503  1.2662 -2.4790  1.7278
  821MOL0     H 8371   2.165   8.425   3.596  1.1535 -2.9214  0.3372
  821MOL0     H 8372   2.361   8.525   3.520  1.6340  0.2080 -0.5219
  822MOL0     O 8373   0.393   3.954   7.300 -0.0270  0.6124 -0.7435
  822MOL0     C 8374   0.487   4.029   7.320 -0.2813 -0.6715  0.7871
  822MOL0     O 8375   0.479   4.163   7.326  0.1388  0.5558 -0.6072
  822MOL0     C 8376   0.356   4.226   7.354 -1.2115 -0.2204 -0.3261
  822MOL0     C 8377   0.354   4.334   7.444 -0.3320  0.6234  0.0191
  822MOL0     C 8378   0.240   4.411   7.463 -0.0017 -0.0410  0.1444
  822MOL0     C 8379   0.123   4.381   7.390 -0.0825  0.6169 -0.0103
  822MOL0     O 8380   0.028   4.471   7.421  0.0031 -0.0827  0.1534
  822MOL0     C 8381  -0.081   4.478   7.330  0.7684 -0.2350 -0.3842
  822MOL0     C 8382  -0.143   4.618   7.351  0.5301 -0.5920  0.7582
  822MOL0     C 8383  -0.293   4.621   7.299 -0.3895 -0.8539 -0.3018
  822MOL0     C 8384  -0.328   4.764   7.256 -0.0263  0.3463 -0.3759
  822MOL0     C 8385  -0.480   4.793   7.252 -0.1335  0.7487 -0.8832
  822MOL0     C 8386  -0.531   4.791   7.403 -0.1607  0.1067 -0.4472
  822MOL0     C 8387  -0.675   4.839   7.400 -0.9209  0.2816  0.4877
  822MOL0     C 8388  -0.743   4.824   7.541  0.9494  0.1952 -0.1321
  822MOL0     N 8389  -0.881   4.880   7.547 -0.4071  0.5978  0.4556
  822MOL0     C 8390  -0.979   4.855   7.456 -0.5435  0.3161  0.6918
  822MOL0     C 8391  -1.064   4.957   7.450 -0.6218 -0.0751 -0.2191
  822MOL0     C 8392  -1.182   4.989   7.354 -0.2082  0.8706  0.5520
  822MOL0     C 8393  -1.236   4.879   7.270  0.9846  0.8736  0.5676
  822MOL0     C 8394  -1.360   4.918   7.184 -0.1657  0.2897 -0.2836
  822MOL0     C 8395  -1.476   4.927   7.269 -0.7275 -0.6098 -0.1276
  822MOL0     O 8396  -1.508   5.057   7.318  0.1714 -0.8063 -0.4628
  822MOL0     C 8397  -1.641   5.089   7.356 -0.5843 -0.2030  0.0482
  822MOL0     C 8398  -1.673   5.220   7.365 -0.1016 -1.2408  0.2031
  822MOL0     C 8399  -1.809   5.267   7.381 -0.8745  0.1257  0.0820
  822MOL0     C 8400  -1.916   5.174   7.383 -0.4144 -0.1183 -0.6477
  822MOL0     C 8401  -2.056   5.233   7.390  0.2657 -0.1438 -0.3981
  822MOL0     O 8402  -2.065   5.360   7.418 -0.0110 -0.5550  0.4321
  822MOL0     C 8403  -2.175   5.415   7.463 -1.5372 -0.7964 -1.7187
  822MOL0     C 8404  -2.175   5.554   7.451 -0.3266 -0.2213 -0.4331
  822MOL0     C 8405  -2.291   5.628   7.481  0.0877  0.0724  0.2072
  822MOL0     C 8406  -2.408   5.564   7.520  0.1705  0.0502  0.0416
  822MOL0     O 8407  -2.527   5.627   7.546 -0.2384 -0.6712 -0.5307
  822MOL0     C 8408  -2.565   5.708   7.433 -0.6799 -0.4869 -0.6489
  822MOL0     C 8409  -2.709   5.729   7.413 -0.0299 -0.9097  0.6277
  822MOL0     C 8410  -2.760   5.873   7.419  0.7797  1.1007  0.1180
  822MOL0     C 8411  -2.906   5.877   7.393  0.0751  0.2757 -0.0860
  822MOL0     C 8412  -2.945   6.023   7.426 -0.0260  0.3984 -0.0150
  822MOL0     C 8413  -3.091   6.052   7.426  0.4578  0.4130 -0.2763
  822MOL0     C 8414  -3.118   6.185   7.499 -0.5954  0.7990  0.8587
  822MOL0     C 8415  -3.271   6.222   7.503  0.2817 -0.2294 -0.1002
  822MOL0    Cl 8416  -3.329   6.272   7.337  0.3683  0.2147 -0.0828
  822MOL0     C 8417  -2.402   5.429   7.542  0.2921  0.1481 -0.5443
  822MOL0     C 8418  -2.285   5.353   7.521 -0.6923 -0.1637 -0.2164
  822MOL0     O 8419  -2.150   5.160   7.369  0.0203 -0.0836  0.4751
  822MOL0     C 8420  -1.881   5.041   7.374  0.0841  0.1813 -0.1665
  822MOL0     C 8421  -1.743   4.995   7.370 -0.0384 -0.4102  0.5994
  822MOL0     N 8422  -1.014   5.045   7.541  0.4030  0.1304 -0.4021
  822MOL0     N 8423  -0.910   4.994   7.606  0.2514 -0.0739 -0.8647
  822MOL0     C 8424   0.126   4.284   7.292  0.0946 -0.0367  0.0935
  822MOL0     C 8425   0.240   4.201   7.274  0.1335  1.0773 -0.2440
  822MOL0     C 8426   0.624   3.981   7.327 -0.1139 -0.0176 -0.7768
  822MOL0     C 8427   0.731   4.059   7.289 -0.7234 -0.0401 -0.8072
  822MOL0     C 8428   0.856   4.000   7.271 -0.4058 -0.9292 -1.0213
  822MOL0     C 8429   0.880   3.862   7.296 -0.8353 -1.4983  0.2902
  822MOL0     O 8430   1.007   3.813   7.259  0.0589 -0.5872  0.3267
  822MOL0     C 8431   1.047   3.686   7.300 -0.6229  0.1688 -0.3228
  822MOL0     C 8432   1.205   3.694   7.288  0.1675 -0.1487 -0.4176
  822MOL0     C 8433   1.263   3.744   7.422  0.2351 -0.1503  0.3658
  822MOL0     C 8434   1.415   3.735   7.417  0.0990 -0.5109 -0.6963
  822MOL0     C 8435   1.471   3.599   7.432  0.3753 -1.1222 -0.3535
  822MOL0     C 8436   1.524   3.494   7.437 -0.0896  1.5042  0.1891
  822MOL0     C 8437   0.778   3.780   7.336  1.3166 -0.1419 -0.0150
  822MOL0     C 8438   0.650   3.841   7.349  1.0079 -0.5149 -0.0915
  822MOL0     H 8439   0.443   4.363   7.497  0.5282  1.8324 -1.9654
  822MOL0     H 8440   0.238   4.483   7.545  0.3257  0.0151  0.1022
  822MOL0     H 8441  -0.152   4.397   7.354  0.5237 -1.1122 -3.5592
  822MOL0     H 8442  -0.040   4.463   7.230 -0.4825 -3.7604 -0.5217
  822MOL0     H 8443  -0.085   4.687   7.289  2.3756 -2.0207  0.7831
  822MOL0     H 8444  -0.132   4.637   7.458 -0.6493  0.3760  0.7211
  822MOL0     H 8445  -0.354   4.578   7.380  1.2194  0.8618  1.9527
  822MOL0     H 8446  -0.311   4.555   7.214 -2.5839 -2.9958  1.6578
  822MOL0     H 8447  -0.280   4.826   7.333 -0.3840 -0.5469  0.6016
  822MOL0     H 8448  -0.275   4.790   7.164  0.5432  0.0176 -0.1477
  822MOL0     H 8449  -0.539   4.721   7.194 -0.2129  0.3195 -0.2721
  822MOL0     H 8450  -0.499   4.892   7.210 -2.9516  0.7065  0.0254
  822MOL0     H 8451  -0.474   4.866   7.458 -1.1788  1.3038 -0.9824
  822MOL0     H 8452  -0.523   4.688   7.439 -2.6133 -0.8152 -2.2212
  822MOL0     H 8453  -0.682   4.941   7.362 -1.5886 -1.0434 -3.4131
  822MOL0     H 8454  -0.734   4.775   7.333  1.0091 -0.9017 -0.1411
  822MOL0     H 8455  -0.676   4.867   7.617 -0.0095  1.1626  0.1857
  822MOL0     H 8456  -0.752   4.716   7.560 -2.6419  0.6654  1.7918
  822MOL0     H 8457  -0.984   4.759   7.406 -1.0243  0.6849  0.0067
  822MOL0     H 8458  -1.142   5.066   7.287 -0.0781  0.2176 -0.1277
  822MOL0     H 8459  -1.267   5.035   7.405  2.3191  1.2227  4.8946
  822MOL0     H 8460  -1.271   4.797   7.333  0.1984 -0.3891 -1.4285
  822MOL0     H 8461  -1.153   4.841   7.209 -0.0587  0.0772 -0.3977
  822MOL0     H 8462  -1.343   4.990   7.103  1.2106 -0.5965 -0.8236
  822MOL0     H 8463  -1.370   4.834   7.115  2.0684  2.2219 -3.2604
  822MOL0     H 8464  -1.456   4.862   7.354  0.6583  1.3631  1.1337
  822MOL0     H 8465  -1.549   4.868   7.212  1.8704 -0.5810 -3.8659
  822MOL0     H 8466  -1.592   5.291   7.354  0.5586 -1.9183  0.5591
  822MOL0     H 8467  -1.812   5.375   7.389  1.6620  0.5570 -2.8194
  822MOL0     H 8468  -2.087   5.602   7.409 -0.1053 -1.3611 -1.3188
  822MOL0     H 8469  -2.297   5.736   7.480 -0.2466  0.1364  2.9258
  822MOL0     H 8470  -2.518   5.668   7.343 -0.7019 -1.9005 -0.0586
  822MOL0     H 8471  -2.516   5.803   7.456 -0.2270 -1.1288  1.2206
  822MOL0     H 8472  -2.758   5.669   7.489  0.5565  0.2763  1.9830
  822MOL0     H 8473  -2.727   5.689   7.312 -0.3867  0.1619  0.2559
  822MOL0     H 8474  -2.717   5.933   7.339 -3.1072  1.0720 -2.2032
  822MOL0     H 8475  -2.731   5.923   7.512  1.5579  1.9317 -0.5503
  822MOL0     H 8476  -2.925   5.850   7.288 -2.1649 -0.3044  0.4272
  822MOL0     H 8477  -2.956   5.798   7.450  0.5926 -0.5008 -0.6725
  822MOL0     H 8478  -2.886   6.090   7.363  0.2725  2.0234  1.9332
  822MOL0     H 8479  -2.901   6.050   7.522  2.2927  0.1998 -0.9552
  822MOL0     H 8480  -3.144   5.965   7.466 -0.3638  0.0937 -1.9694
  822MOL0     H 8481  -3.127   6.056   7.323  4.3173  0.6047 -1.7696
  822MOL0     H 8482  -3.072   6.181   7.598 -1.6223  0.7979  1.3475
  822MOL0     H 8483  -3.065   6.260   7.440 -0.6721 -1.0409 -1.6663
  822MOL0     H 8484  -3.293   6.297   7.579 -3.2234 -1.1336 -0.0711
  822MOL0     H 8485  -3.342   6.147   7.536  0.7597 -0.1748  1.0871
  822MOL0     H 8486  -2.489   5.376   7.580 -0.7349  2.7177  0.9458
  822MOL0     H 8487  -2.297   5.249   7.548  0.2247 -0.4645 -0.8968
  822MOL0     H 8488  -1.953   4.961   7.366  1.2446 -1.0924  1.3715
  822MOL0     H 8489  -1.729   4.887   7.368  0.2039 -0.4047 -2.1722
  822MOL0     H 8490   0.045   4.255   7.226 -1.6589  2.4628  1.0099
  822MOL0     H 8491   0.233   4.123   7.199  2.2500  0.2101  0.3887
  822MOL0     H 8492   0.724   4.164   7.261  0.8123  1.4466  3.5787
  822MOL0     H 8493   0.937   4.061   7.232 -2.7376  2.9029 -0.4374
  822MOL0     H 8494   1.001   3.608   7.239 -3.1347 -1.9930  3.8931
  822MOL0     H 8495   1.019   3.655   7.401 -1.7053 -3.9300 -1.6614
  822MOL0     H 8496   1.245   3.596   7.260  1.3321  0.6990 -1.8928
  822MOL0     H 8497   1.237   3.761   7.208  1.7204  3.5136  2.9242
  822MOL0     H 8498   1.221   3.699   7.512 -0.1877  0.5006  0.5068
  822MOL0     H 8499   1.230   3.848   7.433 -1.7751 -0.6299 -0.5364
  822MOL0     H 8500   1.441   3.774   7.318 -2.7192 -0.9575 -1.7024
  822MOL0     H 8501   1.443   3.807   7.495  0.8551  0.2859 -1.6659
  822MOL0     H 8502   1.559   3.396   7.463 -0.1550  1.6951  1.0563
  822MOL0     H 8503   0.791   3.674   7.354 -1.9132 -0.7010 -0.2849
  822MOL0     H 8504   0.579   3.763   7.378  2.3209 -1.1881  1.4963
  823MOL0     O 8505   0.915   3.563   4.201 -0.1477 -0.8338  0.4806
  823MOL0     C 8506   0.854   3.620   4.111  0.1133  0.2792  0.6853
  823MOL0     O 8507   0.714   3.636   4.108  0.7590 -0.1900  0.0074
  823MOL0     C 8508   0.618   3.591   4.196  0.9769  0.3198 -0.4041
  823MOL0     C 8509   0.648   3.531   4.316  0.5066 -0.9041  0.1000
  823MOL0     C 8510   0.556   3.462   4.396 -0.0755  0.1207 -0.1942
  823MOL0     C 8511   0.417   3.458   4.359 -0.4267  0.6962 -0.9556
  823MOL0     O 8512   0.331   3.405   4.453  0.2485  0.2081 -0.5793
  823MOL0     C 8513   0.216   3.329   4.405 -0.0081 -0.3651  0.7299
  823MOL0     C 8514   0.083   3.419   4.402 -0.0243 -0.1171  0.0580
  823MOL0     C 8515  -0.050   3.337   4.376  0.1387 -0.8542 -0.3490
  823MOL0     C 8516  -0.167   3.419   4.321  1.1091  0.8642  0.5281
  823MOL0     C 8517  -0.302   3.342   4.313  0.2404 -0.0053 -0.6871
  823MOL0     C 8518  -0.301   3.224   4.218  0.8139 -0.0664  0.3164
  823MOL0     C 8519  -0.409   3.120   4.244  0.0119  0.0155 -0.3723
  823MOL0     C 8520  -0.542   3.166   4.181  0.1643 -0.5153  0.0203
  823MOL0     N 8521  -0.649   3.069   4.195 -0.0111 -0.1681  0.5288
  823MOL0     C 8522  -0.702   3.035   4.314 -0.4582  0.4758 -0.1426
  823MOL0     C 8523  -0.821   2.968   4.286 -0.8790 -0.4145 -0.1118
  823MOL0     C 8524  -0.908   2.896   4.385 -0.5301  0.4233 -0.0877
  823MOL0     C 8525  -1.043   2.859   4.331  1.0307  0.3206  0.8127
  823MOL0     C 8526  -1.066   2.714   4.300 -0.8961 -0.3033 -0.3962
  823MOL0     C 8527  -1.203   2.689   4.254  0.0286  0.8336  0.4243
  823MOL0     O 8528  -1.201   2.654   4.108  0.3920  0.2232  0.2244
  823MOL0     C 8529  -1.318   2.668   4.033 -0.2762 -0.7173 -0.4326
  823MOL0     C 8530  -1.441   2.682   4.095 -0.0260 -0.2867 -0.6981
  823MOL0     C 8531  -1.563   2.698   4.026  1.4492  0.8231  0.2771
  823MOL0     C 8532  -1.575   2.668   3.890  0.3551  0.7502 -0.0335
  823MOL0     C 8533  -1.697   2.662   3.813 -0.5956  0.9597  0.1177
  823MOL0     O 8534  -1.808   2.650   3.887 -0.0496  0.0859 -1.0523
  823MOL0     C 8535  -1.925   2.643   3.815 -0.4357 -1.2797 -0.2961
  823MOL0     C 8536  -1.996   2.524   3.790 -0.5067  0.0724 -0.5467
  823MOL0     C 8537  -2.128   2.519   3.736  0.7282  0.9063 -0.0453
  823MOL0     C 8538  -2.180   2.645   3.699  0.0510  0.1876 -0.5431
  823MOL0     O 8539  -2.309   2.656   3.648 -0.3035  0.6745 -0.0099
  823MOL0     C 8540  -2.319   2.598   3.519 -0.4268 -0.1458 -0.3864
  823MOL0     C 8541  -2.465   2.599   3.480 -0.6460  0.3194  1.0175
  823MOL0     C 8542  -2.515   2.733   3.423  0.0440 -0.1085  0.3029
  823MOL0     C 8543  -2.673   2.763   3.408 -0.2967  0.1612  0.0057
  823MOL0     C 8544  -2.695   2.899   3.344 -0.4027 -0.0698  0.2538
  823MOL0     C 8545  -2.702   3.011   3.452  0.6720  0.3882 -0.2009
  823MOL0     C 8546  -2.691   3.143   3.385 -0.2795 -0.5468 -0.0453
  823MOL0     C 8547  -2.828   3.214   3.377  0.2122 -0.1368  0.3445
  823MOL0    Cl 8548  -2.945   3.157   3.262 -0.4899  0.0141  0.5542
  823MOL0     C 8549  -2.115   2.768   3.720  1.1445 -0.2523 -0.2233
  823MOL0     C 8550  -1.986   2.766   3.782 -1.0388  0.0082 -0.5577
  823MOL0     O 8551  -1.686   2.655   3.688  0.1718  0.3251 -0.4135
  823MOL0     C 8552  -1.449   2.645   3.827 -0.0296 -0.3546 -0.4933
  823MOL0     C 8553  -1.328   2.652   3.896  0.4820 -0.4784 -0.4417
  823MOL0     N 8554  -0.838   2.967   4.143 -0.8065  0.3717  0.0817
  823MOL0     N 8555  -0.739   3.037   4.099 -1.1672 -0.6209  0.3041
  823MOL0     C 8556   0.385   3.510   4.236  0.0071 -0.2768 -0.0607
  823MOL0     C 8557   0.486   3.574   4.157  0.2089 -1.2158  0.6144
  823MOL0     C 8558   0.939   3.670   4.003 -0.2705  0.9015 -0.0310
  823MOL0     C 8559   0.878   3.727   3.892  1.1450 -0.3773  0.2655
  823MOL0     C 8560   0.958   3.802   3.804 -0.6384  0.1867  0.4918
  823MOL0     C 8561   1.100   3.803   3.809 -0.4289 -0.5336  0.7578
  823MOL0     O 8562   1.149   3.859   3.695  0.7073 -0.2055 -0.3753
  823MOL0     C 8563   1.291   3.856   3.669  0.9777  0.1856  0.3459
  823MOL0     C 8564   1.365   3.965   3.729  0.3776  0.9742 -0.2244
  823MOL0     C 8565   1.516   3.953   3.708  0.0070  0.9587  0.2305
  823MOL0     C 8566   1.586   4.017   3.587  0.4219 -0.6488  0.4020
  823MOL0     C 8567   1.732   4.009   3.611  0.5561 -0.3406 -0.3361
  823MOL0     C 8568   1.852   4.022   3.615  0.3817 -0.0252 -0.7539
  823MOL0     C 8569   1.161   3.750   3.920  0.6958 -0.5184  0.8342
  823MOL0     C 8570   1.081   3.670   4.000 -1.0872 -0.5301 -0.2866
  823MOL0     H 8571   0.740   3.532   4.374 -1.7097 -1.2323  3.9890
  823MOL0     H 8572   0.592   3.429   4.493  4.3369 -0.2890 -1.7299
  823MOL0     H 8573   0.200   3.243   4.470 -2.7277 -1.0324 -0.6314
  823MOL0     H 8574   0.231   3.284   4.306 -0.4573 -0.9641  0.9277
  823MOL0     H 8575   0.093   3.506   4.336  2.0927  2.5896  3.5642
  823MOL0     H 8576   0.078   3.479   4.493 -1.3190 -0.0278 -0.0536
  823MOL0     H 8577  -0.077   3.303   4.476 -1.6263  1.7011  0.1571
  823MOL0     H 8578  -0.030   3.250   4.314  2.2366 -1.0268  0.4914
  823MOL0     H 8579  -0.189   3.487   4.404  3.3916  0.2306  1.7546
  823MOL0     H 8580  -0.151   3.471   4.226  0.9304  1.0571  0.6021
  823MOL0     H 8581  -0.373   3.421   4.287  1.5623  1.9843  1.4240
  823MOL0     H 8582  -0.340   3.313   4.411 -0.1815 -0.4533 -0.9755
  823MOL0     H 8583  -0.207   3.169   4.229  1.2942  0.1078 -2.2929
  823MOL0     H 8584  -0.315   3.264   4.117  2.3898  2.3445  0.9397
  823MOL0     H 8585  -0.385   3.025   4.194 -3.2220 -1.3161  0.2970
  823MOL0     H 8586  -0.426   3.099   4.350  1.4151 -0.5574 -0.2387
  823MOL0     H 8587  -0.526   3.188   4.075  1.2308  2.2606  0.6559
  823MOL0     H 8588  -0.563   3.261   4.231 -0.0367 -0.9061  0.6829
  823MOL0     H 8589  -0.650   3.050   4.408 -2.1468  0.2935  0.8575
  823MOL0     H 8590  -0.926   2.958   4.473 -1.7906 -0.8421  0.5922
  823MOL0     H 8591  -0.863   2.809   4.435  0.8509  1.7083  0.9971
  823MOL0     H 8592  -1.067   2.924   4.247 -1.0159 -1.4854 -0.0659
  823MOL0     H 8593  -1.131   2.875   4.395  0.4969  0.0423  0.1565
  823MOL0     H 8594  -0.999   2.669   4.226 -0.3421  0.9087 -0.6435
  823MOL0     H 8595  -1.059   2.654   4.391 -1.5469 -0.6468 -0.5657
  823MOL0     H 8596  -1.263   2.777   4.278 -0.1721  2.0242 -3.7199
  823MOL0     H 8597  -1.244   2.598   4.299  2.5654 -2.5545 -3.3764
  823MOL0     H 8598  -1.439   2.685   4.204  1.4421 -1.1757 -0.6825
  823MOL0     H 8599  -1.654   2.724   4.079  1.0290 -0.8969  0.4598
  823MOL0     H 8600  -1.935   2.439   3.821  2.9651  3.1064  1.7656
  823MOL0     H 8601  -2.170   2.428   3.695  3.6686  0.1812 -1.7542
  823MOL0     H 8602  -2.283   2.495   3.528  0.0422 -0.0599 -1.1504
  823MOL0     H 8603  -2.263   2.654   3.444 -2.5538  0.3140 -1.6926
  823MOL0     H 8604  -2.533   2.582   3.565 -5.2206  3.5965 -1.5303
  823MOL0     H 8605  -2.469   2.521   3.404  3.8985  1.6320 -0.8745
  823MOL0     H 8606  -2.476   2.751   3.323 -1.1427 -0.0646 -0.1666
  823MOL0     H 8607  -2.472   2.809   3.490 -3.9039  2.7428  0.0133
  823MOL0     H 8608  -2.704   2.674   3.351  2.7866  0.3909 -2.2679
  823MOL0     H 8609  -2.721   2.755   3.506 -0.7728  4.2220  0.2889
  823MOL0     H 8610  -2.789   2.904   3.287 -1.3576 -1.7201  1.5700
  823MOL0     H 8611  -2.610   2.920   3.279  0.8091  2.2759  2.4328
  823MOL0     H 8612  -2.623   2.995   3.527 -0.6542 -1.2686  0.9334
  823MOL0     H 8613  -2.797   3.000   3.505  1.2231 -1.9890  0.4420
  823MOL0     H 8614  -2.629   3.211   3.444 -0.1548 -1.3056  0.7061
  823MOL0     H 8615  -2.635   3.141   3.291  1.3587  0.5799  0.8564
  823MOL0     H 8616  -2.816   3.323   3.372 -2.1638  0.1374 -0.6365
  823MOL0     H 8617  -2.880   3.200   3.473 -1.0060  3.3253  0.3209
  823MOL0     H 8618  -2.173   2.860   3.708  0.2211 -0.5297  1.7105
  823MOL0     H 8619  -1.933   2.855   3.813  0.0227 -1.0275  0.7523
  823MOL0     H 8620  -1.449   2.621   3.721 -1.9371  4.5102 -1.8773
  823MOL0     H 8621  -1.236   2.639   3.839  0.3829 -0.1390 -0.6808
  823MOL0     H 8622   0.282   3.501   4.201 -0.5962  2.1238  0.8988
  823MOL0     H 8623   0.457   3.612   4.059  2.5285  0.2504  0.4294
  823MOL0     H 8624   0.771   3.730   3.873  1.2327 -0.0849 -0.2228
  823MOL0     H 8625   0.909   3.862   3.728 -0.8412 -0.3080  0.2275
  823MOL0     H 8626   1.298   3.869   3.561  1.1368  2.5354  0.5803
  823MOL0     H 8627   1.324   3.755   3.693 -2.1628 -0.6075  1.8827
  823MOL0     H 8628   1.319   4.057   3.692 -1.4563 -0.5897 -2.0620
  823MOL0     H 8629   1.345   3.968   3.837  1.2307  1.0576 -0.0559
  823MOL0     H 8630   1.543   3.849   3.692 -2.6144 -0.1237  2.1499
  823MOL0     H 8631   1.563   3.987   3.801  2.4964  0.7752 -0.8834
  823MOL0     H 8632   1.552   3.970   3.494  0.7004 -0.0339 -0.0198
  823MOL0     H 8633   1.556   4.122   3.579 -0.6370 -0.9094  0.7658
  823MOL0     H 8634   1.955   4.047   3.603  0.1102  0.7295 -1.6694
  823MOL0     H 8635   1.268   3.758   3.931  0.6493 -0.9113  1.6834
  823MOL0     H 8636   1.131   3.621   4.083 -2.4320  1.1757  1.6132
  824MOL0     O 8637   7.423   8.244   4.953  0.5422 -0.6347 -0.4804
  824MOL0     C 8638   7.470   8.336   5.024 -0.1834 -0.5941 -0.2780
  824MOL0     O 8639   7.400   8.433   5.095 -0.8960 -0.3852  0.2591
  824MOL0     C 8640   7.263   8.421   5.109  0.0196  0.2290  0.0691
  824MOL0     C 8641   7.199   8.376   5.227 -0.0125 -0.8470 -0.5395
  824MOL0     C 8642   7.060   8.380   5.253 -0.0824 -0.6239  0.5736
  824MOL0     C 8643   6.980   8.432   5.149  0.0271  0.1163 -0.6707
  824MOL0     O 8644   6.844   8.452   5.151  0.5161 -0.5160  0.3285
  824MOL0     C 8645   6.768   8.440   5.272  0.9679  1.4951  0.4381
  824MOL0     C 8646   6.708   8.302   5.298  0.0059  0.3774 -0.3513
  824MOL0     C 8647   6.618   8.307   5.425 -0.5822  0.1172  0.2460
  824MOL0     C 8648   6.555   8.176   5.469 -0.6688 -0.5273 -0.3828
  824MOL0     C 8649   6.446   8.120   5.377  1.1409 -0.1636  0.2348
  824MOL0     C 8650   6.357   8.014   5.459  0.3005 -0.1448  1.0885
  824MOL0     C 8651   6.263   7.942   5.363 -0.0861  0.4310 -0.5025
  824MOL0     C 8652   6.224   7.801   5.419  0.0291  0.2932 -0.4529
  824MOL0     N 8653   6.130   7.724   5.331 -0.0032 -0.0063 -0.4796
  824MOL0     C 8654   6.169   7.642   5.226  0.0305 -0.7544  0.1540
  824MOL0     C 8655   6.049   7.601   5.173  1.0518  0.5015  0.0485
  824MOL0     C 8656   6.017   7.513   5.055  0.0039 -0.5419  0.7750
  824MOL0     C 8657   5.911   7.412   5.072  0.5409  0.7017  0.3812
  824MOL0     C 8658   5.920   7.335   5.207 -0.0740  1.0472  0.4069
  824MOL0     C 8659   5.828   7.216   5.216 -0.6488  1.1572 -0.3123
  824MOL0     O 8660   5.856   7.149   5.344 -0.4812  0.1376 -0.7437
  824MOL0     C 8661   5.780   7.037   5.364  0.5191  0.0247 -0.2362
  824MOL0     C 8662   5.646   7.062   5.406  0.6232  0.2003  0.0887
  824MOL0     C 8663   5.558   6.954   5.422 -0.1071  0.1829  0.4785
  824MOL0     C 8664   5.600   6.823   5.400 -0.3298  0.1101  0.0295
  824MOL0     C 8665   5.506   6.712   5.420 -0.0706  0.5263  0.7385
  824MOL0     O 8666   5.398   6.736   5.489 -0.7094 -0.6126 -0.3111
  824MOL0     C 8667   5.311   6.634   5.524  0.9395  0.2468 -0.8804
  824MOL0     C 8668   5.234   6.556   5.428 -0.0778 -0.1362 -0.8095
  824MOL0     C 8669   5.147   6.452   5.464 -0.5637 -0.2499 -0.0745
  824MOL0     C 8670   5.128   6.432   5.598  0.1257 -0.3770 -0.6236
  824MOL0     O 8671   5.030   6.347   5.634 -0.3421  0.3222 -0.4332
  824MOL0     C 8672   4.986   6.349   5.776 -0.5511  0.2953 -0.1009
  824MOL0     C 8673   4.855   6.271   5.776  0.2581  0.4765 -0.4038
  824MOL0     C 8674   4.743   6.366   5.715  0.1839 -0.3736 -0.0184
  824MOL0     C 8675   4.606   6.294   5.721 -0.1332 -0.0971  0.2514
  824MOL0     C 8676   4.507   6.392   5.650  0.0898 -0.3456 -0.2498
  824MOL0     C 8677   4.360   6.330   5.643 -0.2921 -0.4682 -0.0919
  824MOL0     C 8678   4.339   6.217   5.551  0.1708 -0.8118 -0.2161
  824MOL0     C 8679   4.375   6.229   5.406 -0.3545  0.0792 -0.1084
  824MOL0    Cl 8680   4.328   6.089   5.310  0.0202 -0.0972  0.1804
  824MOL0     C 8681   5.193   6.510   5.697 -0.5958 -1.1448  0.7571
  824MOL0     C 8682   5.285   6.607   5.658  0.0594  0.0239  0.0674
  824MOL0     O 8683   5.512   6.605   5.352 -0.7338 -0.2580  0.7789
  824MOL0     C 8684   5.735   6.803   5.364 -0.4177  0.1035  0.8387
  824MOL0     C 8685   5.822   6.912   5.343 -0.6119 -0.3549 -0.2380
  824MOL0     N 8686   5.955   7.643   5.264  0.8367  0.5112 -0.2883
  824MOL0     N 8687   6.000   7.713   5.354 -0.2009  0.6487  0.0531
  824MOL0     C 8688   7.048   8.478   5.030 -0.4069  0.3653 -0.3071
  824MOL0     C 8689   7.188   8.471   5.011 -0.2525  0.1249  0.1372
  824MOL0     C 8690   7.619   8.341   5.026  0.9155  0.1045  0.4999
  824MOL0     C 8691   7.690   8.447   5.081  0.0392  0.1614  0.4424
  824MOL0     C 8692   7.833   8.454   5.086  0.6404 -0.6501 -0.8058
  824MOL0     C 8693   7.909   8.351   5.054  0.7513 -1.0264 -0.2856
  824MOL0     O 8694   8.042   8.378   5.068  0.4643  0.2611 -0.0877
  824MOL0     C 8695   8.130   8.265   5.080  0.0205 -0.1852  0.2677
  824MOL0     C 8696   8.271   8.315   5.043 -0.3925  0.0086  0.2150
  824MOL0     C 8697   8.262   8.364   4.894 -0.9476  0.6273  1.3208
  824MOL0     C 8698   8.284   8.260   4.788 -0.8229 -0.7474  0.8445
  824MOL0     C 8699   8.329   8.320   4.667 -0.5655 -1.7967  0.0370
  824MOL0     C 8700   8.361   8.384   4.564  0.8723  0.5908  0.1572
  824MOL0     C 8701   7.844   8.240   5.014  0.2706  0.5407  0.0723
  824MOL0     C 8702   7.698   8.226   4.989 -0.2630 -0.4755 -0.3073
  824MOL0     H 8703   7.262   8.347   5.311 -0.9826  0.3789  0.6725
  824MOL0     H 8704   7.021   8.345   5.348 -0.4745 -0.8207  0.3431
  824MOL0     H 8705   6.678   8.503   5.274 -0.2013 -0.1042 -0.0314
  824MOL0     H 8706   6.829   8.477   5.354  3.1900  0.6298 -0.7434
  824MOL0     H 8707   6.796   8.237   5.309  1.0469  1.9992  1.3801
  824MOL0     H 8708   6.651   8.270   5.210  0.4947 -0.9427 -0.2144
  824MOL0     H 8709   6.540   8.382   5.408 -2.0818 -0.7939  2.6557
  824MOL0     H 8710   6.686   8.329   5.508  1.4796 -1.3815 -0.9298
  824MOL0     H 8711   6.637   8.104   5.471 -0.7933 -0.8166  3.8810
  824MOL0     H 8712   6.511   8.184   5.569  1.5691  2.9697  0.5058
  824MOL0     H 8713   6.500   8.073   5.294  0.8566  0.6558 -0.4259
  824MOL0     H 8714   6.383   8.197   5.331 -0.1159 -0.7553  0.9294
  824MOL0     H 8715   6.285   8.062   5.525 -1.3550  1.7250 -1.8520
  824MOL0     H 8716   6.421   7.948   5.517  1.0388  1.0350  1.6672
  824MOL0     H 8717   6.179   8.011   5.347 -0.1235  0.7069  0.7210
  824MOL0     H 8718   6.301   7.926   5.262  1.0801 -0.2346  0.0335
  824MOL0     H 8719   6.180   7.810   5.519 -1.3512  0.0963 -1.0180
  824MOL0     H 8720   6.318   7.745   5.430 -0.8804 -1.2754 -0.3481
  824MOL0     H 8721   6.270   7.619   5.193 -0.1187 -1.5639  0.2336
  824MOL0     H 8722   6.107   7.461   5.021  0.0143 -0.2076  0.2726
  824MOL0     H 8723   5.989   7.574   4.968  1.3924  0.7579  1.1873
  824MOL0     H 8724   5.915   7.349   4.983 -4.0532  0.1394  0.3594
  824MOL0     H 8725   5.813   7.461   5.072  0.0580  0.0159  3.8141
  824MOL0     H 8726   6.022   7.296   5.221 -0.3338 -0.0138 -0.5015
  824MOL0     H 8727   5.889   7.399   5.290 -1.6920  1.1120 -0.2089
  824MOL0     H 8728   5.831   7.154   5.125  0.0150  0.6256  0.0600
  824MOL0     H 8729   5.728   7.257   5.228 -2.8587 -3.0534 -2.1831
  824MOL0     H 8730   5.595   7.154   5.430 -1.0623 -1.0833  1.7571
  824MOL0     H 8731   5.456   6.976   5.454 -0.2626  1.0051 -0.5317
  824MOL0     H 8732   5.243   6.580   5.322 -1.8819 -2.3724 -1.5571
  824MOL0     H 8733   5.086   6.401   5.389  0.2148  1.6235 -2.0728
  824MOL0     H 8734   4.992   6.446   5.825 -1.3729  0.6911 -0.7697
  824MOL0     H 8735   5.058   6.295   5.838  0.0472  1.1372 -0.0453
  824MOL0     H 8736   4.823   6.249   5.878 -0.7464  3.5554  0.0424
  824MOL0     H 8737   4.860   6.180   5.714 -1.5348 -1.4700  2.0953
  824MOL0     H 8738   4.765   6.393   5.611  0.5407  0.5940  0.2974
  824MOL0     H 8739   4.739   6.460   5.772 -0.9533 -0.5186  0.1698
  824MOL0     H 8740   4.613   6.193   5.678 -1.4401  0.0166 -0.2766
  824MOL0     H 8741   4.573   6.274   5.824  2.7241 -1.2640  1.0377
  824MOL0     H 8742   4.538   6.409   5.547 -0.8303 -3.8348 -1.2264
  824MOL0     H 8743   4.504   6.488   5.702  3.2683  0.1175 -0.7209
  824MOL0     H 8744   4.287   6.411   5.633  0.1297 -0.2370 -1.6136
  824MOL0     H 8745   4.353   6.282   5.741 -1.2140  1.7246  0.9748
  824MOL0     H 8746   4.395   6.136   5.598 -1.6684 -1.3682  1.1263
  824MOL0     H 8747   4.235   6.188   5.565 -0.6212  1.8409  0.0509
  824MOL0     H 8748   4.484   6.235   5.404 -0.3190 -0.6458 -0.5808
  824MOL0     H 8749   4.339   6.321   5.359 -2.2206  0.4595  1.8991
  824MOL0     H 8750   5.196   6.473   5.799 -1.8235 -2.6737  0.2828
  824MOL0     H 8751   5.349   6.663   5.725  0.3888  0.3721 -0.5324
  824MOL0     H 8752   5.772   6.702   5.352 -0.7118  0.2872 -2.8622
  824MOL0     H 8753   5.927   6.894   5.321 -0.2149  2.7179 -1.3628
  824MOL0     H 8754   6.990   8.509   4.943 -0.5398 -1.5508 -0.9519
  824MOL0     H 8755   7.233   8.516   4.923 -0.7582  1.0425  0.3367
  824MOL0     H 8756   7.631   8.535   5.100 -1.9311 -0.6390 -1.5431
  824MOL0     H 8757   7.879   8.551   5.105  0.4776 -0.2961 -2.0937
  824MOL0     H 8758   8.114   8.176   5.019  0.5502 -0.6793  0.8380
  824MOL0     H 8759   8.126   8.226   5.182  1.2899  0.2230  0.4861
  824MOL0     H 8760   8.307   8.400   5.102 -0.2893  1.0493 -1.2944
  824MOL0     H 8761   8.344   8.234   5.053  1.4075  1.4586 -0.7181
  824MOL0     H 8762   8.330   8.447   4.873  0.3401 -0.1460  2.3385
  824MOL0     H 8763   8.167   8.415   4.872  0.2227  2.1668 -0.4529
  824MOL0     H 8764   8.372   8.200   4.814 -0.9829  0.0524  3.4659
  824MOL0     H 8765   8.195   8.197   4.774 -1.0537 -1.5554  4.8217
  824MOL0     H 8766   8.412   8.430   4.482 -1.4421 -0.2336 -1.8835
  824MOL0     H 8767   7.898   8.153   4.976 -1.2001  0.1723 -1.3224
  824MOL0     H 8768   7.667   8.135   4.939  3.4123 -2.6651  1.0030
  825MOL0     O 8769  11.159   1.238   2.318 -0.5986  0.1054 -0.2634
  825MOL0     C 8770  11.205   1.314   2.406 -0.0384  0.4978 -0.2095
  825MOL0     O 8771  11.128   1.407   2.467 -0.4861 -0.0476 -0.4423
  825MOL0     C 8772  10.997   1.435   2.432 -0.4503  0.0098  0.2398
  825MOL0     C 8773  10.981   1.549   2.356 -0.2782  0.7345 -0.2626
  825MOL0     C 8774  10.852   1.592   2.331 -0.2112  0.4212 -0.0909
  825MOL0     C 8775  10.745   1.522   2.378 -0.2990 -0.3703  0.5529
  825MOL0     O 8776  10.624   1.566   2.341  0.2251 -0.2511 -0.1969
  825MOL0     C 8777  10.512   1.473   2.341 -0.9426 -0.0450  0.3785
  825MOL0     C 8778  10.420   1.502   2.223  0.3932 -0.0453 -0.4412
  825MOL0     C 8779  10.360   1.641   2.243 -0.2280  0.8845 -0.9832
  825MOL0     C 8780  10.238   1.674   2.156  0.3472 -0.2684  0.8462
  825MOL0     C 8781  10.124   1.578   2.188  1.3868 -0.2963  0.2352
  825MOL0     C 8782   9.983   1.641   2.159 -0.3219 -0.3466  0.1099
  825MOL0     C 8783   9.942   1.697   2.023 -0.9535  0.0435  0.1014
  825MOL0     C 8784   9.925   1.581   1.914  0.4761 -0.8672 -0.2845
  825MOL0     N 8785   9.902   1.641   1.784  0.3277  0.1320 -0.6474
  825MOL0     C 8786   9.792   1.717   1.756 -0.0568  0.1774 -0.0223
  825MOL0     C 8787   9.803   1.733   1.619 -0.9451 -0.1763 -1.2370
  825MOL0     C 8788   9.716   1.820   1.542 -0.0274 -0.1366  0.7707
  825MOL0     C 8789   9.586   1.751   1.502 -0.3069  0.1588 -0.3312
  825MOL0     C 8790   9.499   1.844   1.412 -0.0641  0.2744 -0.1846
  825MOL0     C 8791   9.380   1.773   1.365  0.5297  0.3865 -0.5471
  825MOL0     O 8792   9.315   1.723   1.477 -0.1459  0.0493  1.0118
  825MOL0     C 8793   9.250   1.611   1.450  0.5506  0.0829 -0.5014
  825MOL0     C 8794   9.147   1.604   1.350 -0.7980 -0.2137 -0.1201
  825MOL0     C 8795   9.079   1.485   1.326 -0.7398  0.2403  0.8058
  825MOL0     C 8796   9.116   1.362   1.385 -0.4037 -0.2449 -0.1326
  825MOL0     C 8797   9.035   1.236   1.365 -0.8693  0.1706 -0.8202
  825MOL0     O 8798   8.923   1.246   1.291 -0.5494  0.3519  0.5841
  825MOL0     C 8799   8.814   1.159   1.273 -0.1317  0.0665  0.0749
  825MOL0     C 8800   8.707   1.213   1.204  0.7933 -0.6809 -1.0290
  825MOL0     C 8801   8.604   1.128   1.188 -0.6651 -0.1184  0.0204
  825MOL0     C 8802   8.598   0.993   1.221  0.2991 -0.8539 -0.4552
  825MOL0     O 8803   8.482   0.928   1.186  0.7848  0.2537  1.5726
  825MOL0     C 8804   8.464   0.792   1.212 -0.8525  0.0451 -0.8915
  825MOL0     C 8805   8.407   0.721   1.093 -0.2454 -0.7837  0.6695
  825MOL0     C 8806   8.258   0.753   1.079 -0.0872  0.0409  0.1772
  825MOL0     C 8807   8.201   0.724   0.950 -0.8353 -0.4206 -0.2471
  825MOL0     C 8808   8.059   0.783   0.934  0.3499  1.1505  0.1522
  825MOL0     C 8809   7.962   0.668   0.891 -0.5008 -0.9597 -0.1971
  825MOL0     C 8810   7.852   0.722   0.802 -0.3599 -0.7878  0.3033
  825MOL0     C 8811   7.794   0.854   0.858 -0.4517  0.2586  0.4614
  825MOL0    Cl 8812   7.727   0.833   1.031  0.1361  0.1300  0.2251
  825MOL0     C 8813   8.716   0.940   1.279  0.1695  0.9211  0.3558
  825MOL0     C 8814   8.814   1.026   1.318 -0.8653 -0.4974 -0.3214
  825MOL0     O 8815   9.073   1.139   1.423 -0.7843  0.3368  0.5499
  825MOL0     C 8816   9.224   1.369   1.483  0.4241  1.0548 -0.3687
  825MOL0     C 8817   9.282   1.494   1.519 -0.1371 -0.0013 -0.4892
  825MOL0     N 8818   9.912   1.651   1.575  0.2193  0.1423 -0.9200
  825MOL0     N 8819   9.970   1.599   1.673  0.2421  0.2922 -1.0190
  825MOL0     C 8820  10.759   1.405   2.461 -0.0630  0.1698  0.0644
  825MOL0     C 8821  10.889   1.363   2.484 -0.1203  0.6090  0.3332
  825MOL0     C 8822  11.340   1.293   2.465 -0.9241  1.0950  0.2603
  825MOL0     C 8823  11.384   1.357   2.578  0.1350 -0.3467 -0.3900
  825MOL0     C 8824  11.498   1.323   2.637 -1.2807  0.2845  0.0905
  825MOL0     C 8825  11.572   1.211   2.594 -0.0788 -0.1281 -0.3953
  825MOL0     O 8826  11.687   1.171   2.641  0.7291 -0.4249 -0.0980
  825MOL0     C 8827  11.745   1.254   2.750 -0.2015  0.7292  0.0786
  825MOL0     C 8828  11.893   1.207   2.777 -0.8605  0.7950  0.8221
  825MOL0     C 8829  11.967   1.295   2.879  0.8172  0.4554 -0.2983
  825MOL0     C 8830  12.061   1.401   2.811  1.0512  0.4685 -0.2986
  825MOL0     C 8831  12.183   1.337   2.757 -1.2177 -0.3046  0.5662
  825MOL0     C 8832  12.274   1.278   2.694  0.1585 -0.3692  0.2536
  825MOL0     C 8833  11.533   1.145   2.474  0.2399  0.5344 -0.3265
  825MOL0     C 8834  11.417   1.185   2.412 -0.0218 -0.0713 -0.0917
  825MOL0     H 8835  11.069   1.608   2.332  0.1971  0.8889  1.7313
  825MOL0     H 8836  10.828   1.686   2.282  0.2444  1.6408  1.9097
  825MOL0     H 8837  10.456   1.478   2.434 -1.4119 -1.1809  0.1648
  825MOL0     H 8838  10.550   1.371   2.326  1.0102  0.4100  1.8661
  825MOL0     H 8839  10.347   1.421   2.232  1.3540 -0.6910  2.1329
  825MOL0     H 8840  10.466   1.500   2.123  1.0866  3.2408 -0.3299
  825MOL0     H 8841  10.433   1.719   2.220  0.9638  0.2117  0.3280
  825MOL0     H 8842  10.325   1.651   2.347  1.1849  3.3572 -0.6600
  825MOL0     H 8843  10.222   1.779   2.181 -2.3549 -0.1640 -0.9929
  825MOL0     H 8844  10.264   1.680   2.050 -0.2585  2.9074  0.7792
  825MOL0     H 8845  10.124   1.560   2.296 -0.4384  1.2185  0.5280
  825MOL0     H 8846  10.132   1.489   2.125  1.2599 -1.7889  2.2212
  825MOL0     H 8847   9.963   1.719   2.233 -0.4886 -3.0998  3.2164
  825MOL0     H 8848   9.909   1.561   2.171 -0.8590 -1.2652 -6.1563
  825MOL0     H 8849   9.847   1.752   2.027 -2.1279 -1.6332 -2.0847
  825MOL0     H 8850  10.009   1.776   1.988  0.3114 -0.1918  1.9152
  825MOL0     H 8851   9.844   1.516   1.951  1.7955 -3.2322 -1.3264
  825MOL0     H 8852  10.017   1.521   1.911  0.9354 -0.2820  1.0768
  825MOL0     H 8853   9.717   1.763   1.820  1.2954  0.5206  1.3795
  825MOL0     H 8854   9.779   1.844   1.456  0.9608  2.1076  2.0234
  825MOL0     H 8855   9.696   1.911   1.600  1.8194 -1.0169  2.9599
  825MOL0     H 8856   9.530   1.725   1.593  0.0771 -3.0187 -0.8748
  825MOL0     H 8857   9.618   1.654   1.462  2.2860  0.7328  0.1764
  825MOL0     H 8858   9.480   1.935   1.469  0.6464 -0.7907  1.8564
  825MOL0     H 8859   9.556   1.881   1.326  0.7751  2.6766  1.3142
  825MOL0     H 8860   9.391   1.686   1.299 -3.2168  0.3688 -1.3545
  825MOL0     H 8861   9.313   1.845   1.317 -2.3343 -0.9546  1.2203
  825MOL0     H 8862   9.117   1.701   1.314 -0.5725  0.3869  1.2325
  825MOL0     H 8863   8.993   1.488   1.260 -0.4422 -2.0056  0.2374
  825MOL0     H 8864   8.709   1.315   1.166  1.7405  0.1183  1.0233
  825MOL0     H 8865   8.509   1.157   1.144 -0.6358  1.2776  0.8224
  825MOL0     H 8866   8.396   0.773   1.296 -2.4977 -0.6868 -2.3182
  825MOL0     H 8867   8.556   0.740   1.238 -0.6704  0.6882 -0.2064
  825MOL0     H 8868   8.406   0.614   1.117  2.3482 -1.0176 -0.0085
  825MOL0     H 8869   8.458   0.739   0.998  0.0728  0.3230  1.0349
  825MOL0     H 8870   8.244   0.860   1.096 -1.1715 -0.1851  0.7683
  825MOL0     H 8871   8.200   0.706   1.159 -1.3734  0.5424 -0.4452
  825MOL0     H 8872   8.257   0.770   0.868 -0.6617 -0.1714  0.0112
  825MOL0     H 8873   8.199   0.615   0.936  0.2302 -0.4403 -0.2875
  825MOL0     H 8874   8.071   0.854   0.852  4.0812  0.2521 -0.2455
  825MOL0     H 8875   8.009   0.830   1.019  1.7059  2.7015  0.1400
  825MOL0     H 8876   7.929   0.626   0.987  2.0832  0.6935  1.5737
  825MOL0     H 8877   8.017   0.594   0.832  0.4568 -0.4238 -0.0009
  825MOL0     H 8878   7.896   0.740   0.703  2.8707 -0.1366  1.7220
  825MOL0     H 8879   7.768   0.656   0.780 -1.4330  0.5882  0.0874
  825MOL0     H 8880   7.709   0.873   0.792  0.4551 -0.1805 -0.8861
  825MOL0     H 8881   7.858   0.943   0.851  0.9213 -0.8326 -2.8102
  825MOL0     H 8882   8.734   0.833   1.287  0.4369  0.8190 -1.2677
  825MOL0     H 8883   8.904   0.995   1.369 -0.1125  0.8292 -0.7910
  825MOL0     H 8884   9.258   1.285   1.542  0.3641  1.9829  1.0194
  825MOL0     H 8885   9.357   1.489   1.597  1.4496 -0.6046 -1.9865
  825MOL0     H 8886  10.677   1.340   2.489  0.1635 -1.1344 -2.0343
  825MOL0     H 8887  10.906   1.268   2.533 -2.5961 -0.5672 -0.8692
  825MOL0     H 8888  11.312   1.428   2.617  1.0701  2.8581 -3.9242
  825MOL0     H 8889  11.522   1.360   2.736  3.1470 -0.1444 -0.6192
  825MOL0     H 8890  11.685   1.248   2.840  1.7457 -2.4106  1.3324
  825MOL0     H 8891  11.757   1.360   2.723  0.2283  0.0631 -2.7165
  825MOL0     H 8892  11.886   1.103   2.811  0.7364  0.4522  0.2164
  825MOL0     H 8893  11.945   1.209   2.681  3.0947  1.6396  2.7711
  825MOL0     H 8894  12.037   1.232   2.934  1.3070  1.7989  0.6832
  825MOL0     H 8895  11.903   1.332   2.961  0.2980 -0.2337 -0.3799
  825MOL0     H 8896  12.010   1.464   2.738  0.4002 -0.1661 -0.4063
  825MOL0     H 8897  12.093   1.465   2.893  0.7826 -2.8367  2.6043
  825MOL0     H 8898  12.362   1.240   2.647 -0.8048  0.6894 -2.6542
  825MOL0     H 8899  11.585   1.055   2.442  1.3920  0.1420  2.3524
  825MOL0     H 8900  11.375   1.128   2.330 -1.2654  0.4148  0.1834
  826MOL0     O 8901   1.129   9.750   8.871 -0.9871  0.1792  0.7102
  826MOL0     C 8902   1.121   9.825   8.775 -0.2667 -0.1072  0.5092
  826MOL0     O 8903   1.068   9.806   8.655  0.2732  0.5307 -0.8726
  826MOL0     C 8904   1.040   9.674   8.621  0.4798 -0.6574 -0.5239
  826MOL0     C 8905   0.909   9.637   8.581 -0.5244 -0.7741  0.2322
  826MOL0     C 8906   0.885   9.513   8.523  0.3526  0.1961  0.0408
  826MOL0     C 8907   0.986   9.428   8.519  0.0679  0.5198 -0.0936
  826MOL0     O 8908   0.958   9.293   8.485  0.1659  0.4279  0.7603
  826MOL0     C 8909   1.057   9.218   8.412 -0.4034  0.8015 -0.4053
  826MOL0     C 8910   0.976   9.120   8.331  0.8093  0.1830  0.4194
  826MOL0     C 8911   1.061   9.058   8.220  0.1426 -0.1053  0.9284
  826MOL0     C 8912   0.984   8.969   8.126  0.2238 -0.7520 -1.3724
  826MOL0     C 8913   1.075   8.878   8.049  1.1879  0.7740 -0.3491
  826MOL0     C 8914   1.160   8.942   7.938 -0.7459  0.6653 -0.3560
  826MOL0     C 8915   1.198   8.829   7.838 -1.1584 -0.6544  0.6464
  826MOL0     C 8916   1.287   8.876   7.716  0.7806  0.8712 -0.6216
  826MOL0     N 8917   1.423   8.908   7.748  0.0527 -0.1139  0.2047
  826MOL0     C 8918   1.524   8.814   7.745  0.0150  0.7243 -0.8313
  826MOL0     C 8919   1.637   8.893   7.747  1.2462 -0.4876  0.0544
  826MOL0     C 8920   1.763   8.826   7.733 -0.8307 -0.6513  0.0096
  826MOL0     C 8921   1.801   8.746   7.862  0.1240 -0.5278 -0.2281
  826MOL0     C 8922   1.947   8.688   7.856 -0.1330 -0.0484 -0.3069
  826MOL0     C 8923   1.971   8.624   7.989 -1.2103 -0.1362 -0.3883
  826MOL0     O 8924   2.008   8.732   8.083 -0.3604 -0.6458 -0.2352
  826MOL0     C 8925   2.130   8.799   8.081  0.0658  0.9817  0.2170
  826MOL0     C 8926   2.233   8.759   8.000 -0.5807  0.8875  0.0287
  826MOL0     C 8927   2.357   8.829   8.002 -0.4039  0.2893 -1.0361
  826MOL0     C 8928   2.386   8.938   8.086 -0.5796  0.6949  0.6020
  826MOL0     C 8929   2.516   8.998   8.063 -0.7121  0.4673 -0.8265
  826MOL0     O 8930   2.607   8.931   7.986 -0.4167  0.8005  0.1322
  826MOL0     C 8931   2.739   8.983   7.976 -0.2711 -0.1458 -0.0071
  826MOL0     C 8932   2.778   9.115   7.940 -0.6065 -0.0668  0.0632
  826MOL0     C 8933   2.911   9.139   7.923 -0.5301 -0.7322 -0.0554
  826MOL0     C 8934   3.011   9.036   7.935 -0.5173  0.1007 -0.4819
  826MOL0     O 8935   3.145   9.051   7.905  0.0772  0.9886  0.1256
  826MOL0     C 8936   3.180   9.166   7.829 -0.5121  0.3843  0.3287
  826MOL0     C 8937   3.326   9.165   7.762  1.1446  0.6763  0.2017
  826MOL0     C 8938   3.428   9.092   7.854 -0.3617 -0.5530 -0.0764
  826MOL0     C 8939   3.567   9.093   7.786 -0.0004 -0.0358  0.1153
  826MOL0     C 8940   3.670   9.057   7.897  0.8272  0.4469  0.4747
  826MOL0     C 8941   3.805   9.071   7.830  0.1975 -0.4552  0.4181
  826MOL0     C 8942   3.921   9.049   7.921 -0.8312 -0.0428 -0.2938
  826MOL0     C 8943   4.052   9.049   7.853 -0.5343 -0.1327 -0.5632
  826MOL0    Cl 8944   4.080   9.220   7.797 -0.1194  0.1102  0.1678
  826MOL0     C 8945   2.970   8.902   7.972 -1.0072 -0.4574  0.3799
  826MOL0     C 8946   2.836   8.881   7.992  0.0236  0.2728 -0.3960
  826MOL0     O 8947   2.539   9.107   8.116 -0.0475  0.4430 -0.0802
  826MOL0     C 8948   2.279   8.979   8.172  0.8093  0.8651 -0.3883
  826MOL0     C 8949   2.158   8.897   8.175 -0.3718 -0.8197 -0.0839
  826MOL0     N 8950   1.600   9.023   7.721 -0.0351 -0.7353 -0.1015
  826MOL0     N 8951   1.471   9.029   7.723  0.1430 -0.3306  0.0485
  826MOL0     C 8952   1.117   9.468   8.546  0.2869 -0.2576 -0.6855
  826MOL0     C 8953   1.150   9.585   8.602 -0.1998  0.4822 -0.3941
  826MOL0     C 8954   1.188   9.954   8.776  0.1920 -0.4537 -1.0669
  826MOL0     C 8955   1.129  10.063   8.712  0.3683  0.2236  0.0260
  826MOL0     C 8956   1.163  10.195   8.738  0.4192  0.9816 -0.1173
  826MOL0     C 8957   1.268  10.225   8.818  0.0254  0.6019  0.3770
  826MOL0     O 8958   1.315  10.355   8.824 -0.1928 -0.3540 -0.5890
  826MOL0     C 8959   1.422  10.380   8.724 -0.5581  0.6405  0.4963
  826MOL0     C 8960   1.442  10.523   8.678  0.0492 -0.4342  0.1554
  826MOL0     C 8961   1.573  10.530   8.589  0.7192 -0.1616 -0.3787
  826MOL0     C 8962   1.561  10.467   8.451  0.4745  0.2896 -0.3896
  826MOL0     C 8963   1.685  10.432   8.391  0.1466 -0.1719 -0.5162
  826MOL0     C 8964   1.789  10.381   8.353  1.0120 -0.8119  0.0962
  826MOL0     C 8965   1.326  10.118   8.885 -0.5003  0.4487  0.9505
  826MOL0     C 8966   1.279   9.989   8.865 -0.4831  0.0855  0.0351
  826MOL0     H 8967   0.833   9.715   8.588  0.6868  0.7026 -2.1017
  826MOL0     H 8968   0.789   9.481   8.485  0.7186  0.6286 -1.2967
  826MOL0     H 8969   1.126   9.175   8.485 -0.0486  1.9852 -0.0252
  826MOL0     H 8970   1.115   9.283   8.346  2.5445 -3.2488 -2.1915
  826MOL0     H 8971   0.878   9.165   8.311  0.2314  0.1515  2.8585
  826MOL0     H 8972   0.943   9.035   8.392 -1.0202  1.4813  1.3363
  826MOL0     H 8973   1.146   8.999   8.256 -0.9836 -0.9369  2.3372
  826MOL0     H 8974   1.100   9.143   8.163  2.4162 -0.7351  1.4284
  826MOL0     H 8975   0.904   8.910   8.170 -1.9935  2.5841 -0.5168
  826MOL0     H 8976   0.933   9.023   8.046 -0.7616  0.1718 -0.1600
  826MOL0     H 8977   1.011   8.805   7.998 -0.6104  0.6275  1.9130
  826MOL0     H 8978   1.133   8.815   8.118 -0.6622 -2.7561 -1.7523
  826MOL0     H 8979   1.246   8.993   7.983 -2.7291  3.3796  0.5849
  826MOL0     H 8980   1.089   9.017   7.901  0.9169  3.6792  2.0922
  826MOL0     H 8981   1.247   8.739   7.876 -0.8938 -1.7331 -2.0320
  826MOL0     H 8982   1.102   8.801   7.794 -1.2564 -2.3279  1.8346
  826MOL0     H 8983   1.233   8.959   7.669 -0.9490  1.8889  2.7968
  826MOL0     H 8984   1.303   8.795   7.645  0.8733 -0.1104  0.4880
  826MOL0     H 8985   1.514   8.706   7.750  2.7726  0.4264  0.0241
  826MOL0     H 8986   1.839   8.902   7.712 -0.2193 -0.8869  1.2939
  826MOL0     H 8987   1.774   8.761   7.645 -1.0358 -0.9537  0.2064
  826MOL0     H 8988   1.730   8.665   7.881 -0.1803 -0.5250 -1.3111
  826MOL0     H 8989   1.801   8.824   7.938 -0.9656 -1.4808  0.7754
  826MOL0     H 8990   1.944   8.613   7.776 -1.7106 -0.1601 -0.1854
  826MOL0     H 8991   2.014   8.767   7.822 -0.4586  0.3290 -0.0685
  826MOL0     H 8992   2.051   8.550   7.980 -0.9271  0.0782  0.3380
  826MOL0     H 8993   1.882   8.566   8.017 -0.3094 -2.0961 -1.3996
  826MOL0     H 8994   2.232   8.686   7.919  4.4330  0.0015  0.4179
  826MOL0     H 8995   2.435   8.782   7.942  1.2915  1.1132  0.4317
  826MOL0     H 8996   2.697   9.186   7.929  0.2398  1.4515  2.6961
  826MOL0     H 8997   2.939   9.237   7.885  0.2261  0.0789  2.3848
  826MOL0     H 8998   3.163   9.249   7.899  2.3038  2.2559 -1.0115
  826MOL0     H 8999   3.102   9.181   7.754 -3.4233 -1.9250  2.6515
  826MOL0     H 9000   3.363   9.266   7.742  1.3739  1.3202  3.3146
  826MOL0     H 9001   3.323   9.125   7.661 -0.1587  0.8253  0.1655
  826MOL0     H 9002   3.392   8.991   7.877 -5.0043  0.6772 -0.8044
  826MOL0     H 9003   3.429   9.147   7.949  0.7511 -2.2041  0.9035
  826MOL0     H 9004   3.572   9.006   7.720  2.5860 -2.6186  3.3691
  826MOL0     H 9005   3.590   9.188   7.738  0.8257 -0.0056  0.5563
  826MOL0     H 9006   3.650   8.957   7.937 -2.2649  1.8758  2.8684
  826MOL0     H 9007   3.665   9.110   7.993  0.0801 -4.2809  3.3539
  826MOL0     H 9008   3.807   9.170   7.785 -2.8849 -0.9891 -1.1667
  826MOL0     H 9009   3.816   8.999   7.749  1.6361  1.9539 -1.6410
  826MOL0     H 9010   3.923   9.123   8.002 -0.2966  2.2896 -2.3409
  826MOL0     H 9011   3.898   8.953   7.969  0.1004  1.2174  2.9695
  826MOL0     H 9012   4.054   8.982   7.767  1.0250  2.0983 -2.3528
  826MOL0     H 9013   4.135   9.022   7.919  0.9283  2.2632 -1.3081
  826MOL0     H 9014   3.052   8.834   7.987 -0.2361  0.3483 -0.0895
  826MOL0     H 9015   2.803   8.781   8.017  0.4206 -0.0012 -0.9397
  826MOL0     H 9016   2.291   9.066   8.235  1.0428  0.7121 -0.2219
  826MOL0     H 9017   2.078   8.919   8.244 -4.7428 -0.9560 -4.5066
  826MOL0     H 9018   1.197   9.396   8.530  0.6910  0.7374 -3.6832
  826MOL0     H 9019   1.253   9.617   8.616  0.6330 -1.1390 -2.3420
  826MOL0     H 9020   1.058  10.048   8.631  2.0919 -3.1147 -1.0431
  826MOL0     H 9021   1.108  10.277   8.693  0.7049  0.9284 -0.5648
  826MOL0     H 9022   1.404  10.316   8.637 -2.1187  1.3915  0.2287
  826MOL0     H 9023   1.515  10.349   8.774  0.3731  0.2331 -1.4010
  826MOL0     H 9024   1.350  10.558   8.631 -1.3567 -1.8723  1.7223
  826MOL0     H 9025   1.469  10.588   8.761 -2.9284  0.3611  0.6100
  826MOL0     H 9026   1.646  10.484   8.657 -0.2378  0.4297  1.1011
  826MOL0     H 9027   1.609  10.631   8.567 -2.8048  1.3682  0.2286
  826MOL0     H 9028   1.508  10.372   8.465 -0.3264  0.7819  0.0105
  826MOL0     H 9029   1.507  10.533   8.382 -0.1072 -1.4468 -1.6650
  826MOL0     H 9030   1.876  10.325   8.325  0.4531 -1.6746  0.0274
  826MOL0     H 9031   1.408  10.141   8.952 -1.4861  3.5911  1.2413
  826MOL0     H 9032   1.322   9.910   8.927 -2.5531  1.3784  3.4304
  827MOL0     O 9033   0.592  10.865  10.825  0.5460 -1.2712 -0.5149
  827MOL0     C 9034   0.621  10.984  10.847  0.9884  0.3442  0.7531
  827MOL0     O 9035   0.532  11.089  10.830 -0.3615  0.1979 -0.1730
  827MOL0     C 9036   0.396  11.078  10.818  0.0114  0.7851 -0.0219
  827MOL0     C 9037   0.333  10.986  10.730  0.4773  0.0773  0.3736
  827MOL0     C 9038   0.189  10.984  10.732  0.3252 -0.1757 -0.0649
  827MOL0     C 9039   0.113  11.065  10.806 -0.9765 -0.7799  0.0530
  827MOL0     O 9040  -0.025  11.054  10.804  0.0076 -0.2505 -0.0872
  827MOL0     C 9041  -0.121  11.160  10.849  0.0583  0.3835 -0.4426
  827MOL0     C 9042  -0.265  11.107  10.848 -0.0382 -0.2467 -0.3722
  827MOL0     C 9043  -0.359  11.229  10.852  0.4598 -0.7569  0.2291
  827MOL0     C 9044  -0.502  11.183  10.888  0.5118  0.7893 -0.1309
  827MOL0     C 9045  -0.626  11.274  10.872 -0.4005 -0.5339 -0.3018
  827MOL0     C 9046  -0.666  11.351  11.000 -0.5498 -0.1719 -0.5097
  827MOL0     C 9047  -0.788  11.432  10.984 -0.1059  0.3835  1.6012
  827MOL0     C 9048  -0.783  11.553  10.888 -0.5078  0.0084 -0.2976
  827MOL0     N 9049  -0.897  11.643  10.906 -0.0748 -0.5550 -0.3137
  827MOL0     C 9050  -1.024  11.640  10.871  0.4393  0.8425  0.4169
  827MOL0     C 9051  -1.092  11.742  10.938 -0.5384  0.8732  0.8081
  827MOL0     C 9052  -1.243  11.772  10.928 -0.3983  0.7637 -0.0615
  827MOL0     C 9053  -1.337  11.651  10.946 -0.7733  0.3377 -0.2760
  827MOL0     C 9054  -1.486  11.690  10.944  0.0924  0.7618  1.2347
  827MOL0     C 9055  -1.568  11.582  10.998  0.5857 -0.0893 -0.1100
  827MOL0     O 9056  -1.620  11.495  10.890  0.4190 -0.3576 -0.5708
  827MOL0     C 9057  -1.738  11.427  10.918  0.5808  0.6589  0.1262
  827MOL0     C 9058  -1.771  11.328  10.815  0.3509 -0.4634  0.4077
  827MOL0     C 9059  -1.904  11.276  10.828 -0.1683 -0.1330  0.4402
  827MOL0     C 9060  -1.988  11.295  10.943  0.5720 -1.0476  0.2704
  827MOL0     C 9061  -2.125  11.243  10.960 -1.1157  0.0214 -0.8900
  827MOL0     O 9062  -2.179  11.205  10.844 -0.8520 -0.3596  0.1275
  827MOL0     C 9063  -2.310  11.157  10.829  0.8416  0.3709  0.1607
  827MOL0     C 9064  -2.407  11.134  10.928  0.7572 -0.9300  0.1607
  827MOL0     C 9065  -2.533  11.073  10.895  0.9359  0.8481 -0.3335
  827MOL0     C 9066  -2.573  11.041  10.768  0.9589  0.5811 -0.2005
  827MOL0     O 9067  -2.702  10.996  10.732  0.4041 -0.2559 -0.2156
  827MOL0     C 9068  -2.811  11.070  10.793 -0.4448 -0.0237  0.5061
  827MOL0     C 9069  -2.929  10.981  10.830  0.0821 -0.4275 -0.8563
  827MOL0     C 9070  -3.024  10.954  10.713 -0.0730  0.7380 -1.0130
  827MOL0     C 9071  -3.145  10.874  10.766 -0.0627  0.0562  0.5743
  827MOL0     C 9072  -3.255  10.847  10.659  0.4934 -0.4325  0.3374
  827MOL0     C 9073  -3.196  10.800  10.522  0.2396  0.1099 -0.0312
  827MOL0     C 9074  -3.313  10.769  10.417  0.0896 -0.9762 -0.5148
  827MOL0     C 9075  -3.389  10.649  10.451  0.5496 -0.2674  0.3007
  827MOL0    Cl 9076  -3.523  10.605  10.332  0.0147  0.3068 -0.2084
  827MOL0     C 9077  -2.481  11.061  10.664 -0.8179 -0.3811 -0.2842
  827MOL0     C 9078  -2.349  11.112  10.701  0.1650  0.4033 -1.2510
  827MOL0     O 9079  -2.178  11.239  11.070  0.3778  0.1146  0.3772
  827MOL0     C 9080  -1.931  11.370  11.041  0.6208 -0.4878 -0.7352
  827MOL0     C 9081  -1.811  11.440  11.031 -0.1700 -0.3844  0.2951
  827MOL0     N 9082  -0.994  11.815  10.995 -0.0523  0.6272 -0.0101
  827MOL0     N 9083  -0.879  11.761  10.975 -0.7488 -0.2912  0.3391
  827MOL0     C 9084   0.183  11.165  10.880  0.4062  0.8519  1.1998
  827MOL0     C 9085   0.323  11.171  10.882  0.1816  0.3971  0.1329
  827MOL0     C 9086   0.764  11.013  10.855 -0.6430  0.2592  1.0291
  827MOL0     C 9087   0.796  11.146  10.889 -0.1979 -0.0262 -0.3996
  827MOL0     C 9088   0.933  11.188  10.881 -0.3849  0.0310 -0.3628
  827MOL0     C 9089   1.034  11.099  10.848 -0.2819  0.4088  0.3541
  827MOL0     O 9090   1.163  11.139  10.842  0.3943 -0.2164 -0.0621
  827MOL0     C 9091   1.245  11.087  10.734  0.2634  0.7044 -0.1365
  827MOL0     C 9092   1.359  11.187  10.725 -0.8755 -0.8721  0.7025
  827MOL0     C 9093   1.469  11.148  10.829  0.1231 -0.5690 -0.1489
  827MOL0     C 9094   1.517  11.292  10.884  0.5102 -0.4866 -1.1214
  827MOL0     C 9095   1.645  11.284  10.956  0.9889  0.5575  0.1698
  827MOL0     C 9096   1.746  11.254  11.010 -0.0181  0.2603 -0.1606
  827MOL0     C 9097   1.000  10.961  10.816 -0.3811 -0.0812 -0.1831
  827MOL0     C 9098   0.869  10.918  10.818 -0.2162  0.3045 -0.4581
  827MOL0     H 9099   0.388  10.922  10.662 -2.2805 -0.4378 -1.5212
  827MOL0     H 9100   0.136  10.912  10.671 -1.0776  2.2452 -1.8745
  827MOL0     H 9101  -0.120  11.250  10.788 -2.7695  0.7168 -0.1271
  827MOL0     H 9102  -0.099  11.209  10.945 -2.6167 -1.0200  1.0157
  827MOL0     H 9103  -0.284  11.032  10.926  1.3444  1.4224  1.6770
  827MOL0     H 9104  -0.281  11.054  10.753 -0.0825 -1.1549  0.1310
  827MOL0     H 9105  -0.350  11.275  10.753  1.4759 -2.8464 -0.7060
  827MOL0     H 9106  -0.330  11.290  10.938  1.9485 -1.9891  0.6384
  827MOL0     H 9107  -0.526  11.099  10.822 -0.0856 -2.4658  3.8570
  827MOL0     H 9108  -0.498  11.130  10.983  1.7382  0.9147 -0.0951
  827MOL0     H 9109  -0.712  11.213  10.844 -1.4741 -0.4267  2.4365
  827MOL0     H 9110  -0.614  11.351  10.796  0.5690  0.3696  0.7191
  827MOL0     H 9111  -0.579  11.409  11.032 -0.9494  0.2768 -0.2205
  827MOL0     H 9112  -0.699  11.277  11.074 -0.2551 -3.1792 -3.1395
  827MOL0     H 9113  -0.868  11.369  10.944 -0.4072  2.3942 -1.3395
  827MOL0     H 9114  -0.819  11.476  11.079  3.6867  1.5662  2.4355
  827MOL0     H 9115  -0.768  11.533  10.782  0.8831  0.9953 -0.3086
  827MOL0     H 9116  -0.692  11.605  10.917  1.9316 -3.0856 -1.7718
  827MOL0     H 9117  -1.079  11.563  10.819 -1.3257 -0.3554  3.7486
  827MOL0     H 9118  -1.265  11.818  10.832 -0.9933  0.3914 -0.1120
  827MOL0     H 9119  -1.280  11.841  11.004  1.6679  1.7745  0.0868
  827MOL0     H 9120  -1.314  11.592  11.036 -1.2863  0.2837 -0.1804
  827MOL0     H 9121  -1.324  11.584  10.860 -0.0610 -1.1237  0.9193
  827MOL0     H 9122  -1.495  11.772  11.017  0.8327  0.2992  1.8477
  827MOL0     H 9123  -1.511  11.713  10.840  3.6102 -1.1235 -0.1800
  827MOL0     H 9124  -1.645  11.634  11.054  0.1106  0.8977 -1.6263
  827MOL0     H 9125  -1.517  11.511  11.065 -1.4170  0.0327  1.6189
  827MOL0     H 9126  -1.702  11.306  10.733  1.5611 -0.6632  1.4584
  827MOL0     H 9127  -1.941  11.221  10.742 -1.2831  0.5014  0.4891
  827MOL0     H 9128  -2.386  11.160  11.032  0.4057  0.2639 -0.0466
  827MOL0     H 9129  -2.598  11.043  10.976  0.7151  2.7134  0.2321
  827MOL0     H 9130  -2.851  11.142  10.720  1.1333  0.4333  0.0534
  827MOL0     H 9131  -2.791  11.121  10.887 -2.1342  2.2402 -0.2461
  827MOL0     H 9132  -2.987  11.043  10.899  2.7970 -0.3692  1.5491
  827MOL0     H 9133  -2.891  10.895  10.885 -3.7311 -3.4556 -2.5230
  827MOL0     H 9134  -2.967  10.892  10.643  1.0146  1.5883 -0.9242
  827MOL0     H 9135  -3.049  11.052  10.671 -1.7212  2.1423  2.8742
  827MOL0     H 9136  -3.122  10.780  10.817 -3.3915  0.0033  2.3005
  827MOL0     H 9137  -3.186  10.933  10.848 -1.1454  1.1668 -0.6990
  827MOL0     H 9138  -3.311  10.941  10.651  2.3705  0.8149  1.0296
  827MOL0     H 9139  -3.319  10.765  10.694  1.1067 -1.3979 -0.7338
  827MOL0     H 9140  -3.134  10.712  10.540  0.5939  0.0153 -1.5388
  827MOL0     H 9141  -3.127  10.870  10.472  0.2814  0.7421  0.8878
  827MOL0     H 9142  -3.389  10.847  10.422  1.2011  0.1108 -0.2761
  827MOL0     H 9143  -3.283  10.768  10.312 -0.5010  2.1260 -0.8063
  827MOL0     H 9144  -3.438  10.646  10.549 -3.4305 -0.8041 -1.5290
  827MOL0     H 9145  -3.324  10.561  10.453 -2.6297 -2.7992 -0.0556
  827MOL0     H 9146  -2.505  11.032  10.563 -0.3462  2.1893 -1.2308
  827MOL0     H 9147  -2.266  11.130  10.634  1.0397  0.5274 -0.1603
  827MOL0     H 9148  -1.989  11.391  11.130 -1.7828  1.2220 -2.5751
  827MOL0     H 9149  -1.792  11.514  11.108 -1.8006 -0.1378  0.4957
  827MOL0     H 9150   0.126  11.241  10.932 -0.8180  0.8559 -0.0852
  827MOL0     H 9151   0.373  11.248  10.939 -2.6748  0.2189  3.1532
  827MOL0     H 9152   0.715  11.210  10.921  0.7904  2.6975 -2.9403
  827MOL0     H 9153   0.953  11.293  10.902  1.4253 -0.7719  2.6357
  827MOL0     H 9154   1.200  11.107  10.636  0.4359  0.3602 -0.2859
  827MOL0     H 9155   1.272  10.982  10.746  0.5587  0.9022  1.0153
  827MOL0     H 9156   1.400  11.199  10.625  2.9192  2.3161  2.3685
  827MOL0     H 9157   1.335  11.291  10.752  2.0538 -0.8417  3.9166
  827MOL0     H 9158   1.554  11.104  10.777  0.8566 -0.4507  0.9145
  827MOL0     H 9159   1.444  11.083  10.914  2.0251 -1.1876 -0.0314
  827MOL0     H 9160   1.534  11.378  10.818 -0.2616  0.9223  0.4290
  827MOL0     H 9161   1.445  11.334  10.955  1.1710 -1.8095  0.3750
  827MOL0     H 9162   1.836  11.236  11.066  1.3983  2.5150 -1.5516
  827MOL0     H 9163   1.076  10.887  10.798  0.9177  0.2403  3.2496
  827MOL0     H 9164   0.835  10.819  10.792  0.1963 -0.5430  2.0596
  828MOL0     O 9165   2.048   3.562   9.316  0.2315 -0.3816 -0.0655
  828MOL0     C 9166   2.076   3.680   9.357 -0.9913  0.4635  0.2763
  828MOL0     O 9167   2.007   3.747   9.450  0.5352 -0.5581  0.1213
  828MOL0     C 9168   1.888   3.701   9.492 -0.7796  0.2317  0.7174
  828MOL0     C 9169   1.879   3.682   9.625 -0.2721 -0.1562 -0.0950
  828MOL0     C 9170   1.761   3.633   9.685 -0.9118 -0.0658 -0.0570
  828MOL0     C 9171   1.659   3.587   9.604  0.1364 -0.0646 -0.4533
  828MOL0     O 9172   1.542   3.531   9.658  0.3343  0.1288 -0.1442
  828MOL0     C 9173   1.422   3.600   9.650  0.3604 -0.3598  0.1894
  828MOL0     C 9174   1.318   3.531   9.556  0.6295  0.2303  0.2724
  828MOL0     C 9175   1.192   3.602   9.572  0.7889 -0.0593  0.3135
  828MOL0     C 9176   1.088   3.509   9.638  1.2615  0.5371  0.1458
  828MOL0     C 9177   0.950   3.569   9.627 -0.1199  0.3519 -0.0926
  828MOL0     C 9178   0.928   3.692   9.710  0.2225  0.3873  0.0724
  828MOL0     C 9179   0.790   3.754   9.684 -0.1037  0.0537 -0.2344
  828MOL0     C 9180   0.755   3.874   9.765 -0.3454  0.3392 -0.2431
  828MOL0     N 9181   0.616   3.930   9.752  0.0797  0.0844 -0.6912
  828MOL0     C 9182   0.576   4.042   9.828  0.9328  0.6352  0.7651
  828MOL0     C 9183   0.448   4.051   9.790  0.7522  0.1427 -0.0779
  828MOL0     C 9184   0.357   4.169   9.820  0.5134 -0.6129  0.5370
  828MOL0     C 9185   0.286   4.158   9.955  0.1379  0.5670  0.0945
  828MOL0     C 9186   0.189   4.279   9.989 -0.0248 -0.3712 -0.2297
  828MOL0     C 9187   0.088   4.290   9.880  0.2080 -0.1408 -0.1163
  828MOL0     O 9188  -0.021   4.379   9.899 -0.1671 -1.2189  0.1694
  828MOL0     C 9189  -0.113   4.366  10.000  0.5748  0.1605 -0.5870
  828MOL0     C 9190  -0.139   4.256  10.083 -1.7288  0.2656  0.6477
  828MOL0     C 9191  -0.230   4.267  10.178  0.2420 -0.6098 -0.9516
  828MOL0     C 9192  -0.318   4.375  10.197  0.6523  0.9532  0.4590
  828MOL0     C 9193  -0.424   4.381  10.294 -0.4308  0.4523  0.1337
  828MOL0     O 9194  -0.541   4.438  10.249  0.0192  0.3928 -0.3267
  828MOL0     C 9195  -0.643   4.462  10.336 -0.2142 -0.6844 -0.6801
  828MOL0     C 9196  -0.710   4.368  10.408 -0.4201 -0.0803  0.8109
  828MOL0     C 9197  -0.826   4.397  10.483 -0.2005  0.5413 -0.9099
  828MOL0     C 9198  -0.873   4.531  10.490  0.1174  0.2541  0.1024
  828MOL0     O 9199  -0.985   4.557  10.567 -0.1823 -0.0221 -0.9879
  828MOL0     C 9200  -1.067   4.660  10.530  0.7757  0.6064  0.0299
  828MOL0     C 9201  -1.143   4.622  10.400  0.1125  0.2419  0.6300
  828MOL0     C 9202  -1.265   4.710  10.365 -0.5233 -0.0349  0.1551
  828MOL0     C 9203  -1.309   4.679  10.222 -0.1541 -0.2644  0.3879
  828MOL0     C 9204  -1.446   4.600  10.219  0.0892 -0.9826  0.0474
  828MOL0     C 9205  -1.559   4.703  10.251  1.1082  0.1419  0.6986
  828MOL0     C 9206  -1.692   4.643  10.306  0.0300 -0.3462  0.6243
  828MOL0     C 9207  -1.727   4.507  10.241  0.9151 -0.2880 -0.1066
  828MOL0    Cl 9208  -1.878   4.447  10.310 -0.3433 -0.3530 -0.0060
  828MOL0     C 9209  -0.799   4.633  10.426  0.5587  0.1032 -0.4999
  828MOL0     C 9210  -0.685   4.594  10.355  0.7771 -0.0550 -0.4489
  828MOL0     O 9211  -0.408   4.320  10.401  1.1433 -0.5177 -0.4250
  828MOL0     C 9212  -0.301   4.479  10.103 -0.3508 -0.4884 -0.9436
  828MOL0     C 9213  -0.204   4.480  10.002 -1.1303  0.4776  0.1927
  828MOL0     N 9214   0.415   3.946   9.715  1.2421 -0.1465  0.2964
  828MOL0     N 9215   0.512   3.862   9.707  0.8018  0.4667  0.3193
  828MOL0     C 9216   1.666   3.589   9.467  0.0131 -0.5961 -0.4372
  828MOL0     C 9217   1.786   3.652   9.415 -0.4492  0.3889 -0.2617
  828MOL0     C 9218   2.193   3.745   9.294  0.5538 -0.5477 -0.3029
  828MOL0     C 9219   2.253   3.863   9.335 -0.0762 -0.2135 -0.0706
  828MOL0     C 9220   2.362   3.917   9.274  0.1318 -0.6109  0.1465
  828MOL0     C 9221   2.414   3.867   9.159  0.9530  0.1638  1.1592
  828MOL0     O 9222   2.496   3.935   9.072  0.0942 -0.3892  0.5016
  828MOL0     C 9223   2.607   4.005   9.125  0.3574 -0.0171  0.2851
  828MOL0     C 9224   2.665   4.079   9.003  0.2080  0.6537 -0.2323
  828MOL0     C 9225   2.812   4.130   9.026  0.0227  0.1610 -0.3985
  828MOL0     C 9226   2.833   4.259   8.947 -0.6442  0.6583  0.1165
  828MOL0     C 9227   2.973   4.301   8.942  0.1224 -0.9554  0.4389
  828MOL0     C 9228   3.087   4.326   8.911 -0.1844 -0.3246  0.0245
  828MOL0     C 9229   2.353   3.752   9.105 -0.2599 -0.0003  0.3370
  828MOL0     C 9230   2.250   3.687   9.180  0.3393 -0.1465  0.2941
  828MOL0     H 9231   1.962   3.717   9.686 -2.0472  1.9969  1.2899
  828MOL0     H 9232   1.753   3.617   9.792 -3.2222 -0.2346 -0.1910
  828MOL0     H 9233   1.442   3.704   9.622  1.0325 -0.7948 -0.9758
  828MOL0     H 9234   1.388   3.596   9.755  2.8974 -0.0585  1.0844
  828MOL0     H 9235   1.317   3.425   9.584 -1.9673  0.5198  1.5572
  828MOL0     H 9236   1.355   3.541   9.454 -0.9771  4.3087 -0.0925
  828MOL0     H 9237   1.159   3.651   9.480  1.0481 -1.6917 -0.6926
  828MOL0     H 9238   1.203   3.682   9.645  0.2677 -0.9566  1.4080
  828MOL0     H 9239   1.081   3.416   9.580 -1.0762 -1.1176  2.8187
  828MOL0     H 9240   1.113   3.486   9.742 -0.0687 -1.4024  0.0880
  828MOL0     H 9241   0.874   3.499   9.662 -0.4346 -0.2018 -1.7817
  828MOL0     H 9242   0.928   3.589   9.521  0.6825 -3.1496 -1.0725
  828MOL0     H 9243   1.003   3.768   9.688  1.3211 -1.3696 -2.6484
  828MOL0     H 9244   0.923   3.657   9.814 -1.5360  1.6722  0.4708
  828MOL0     H 9245   0.797   3.783   9.579  2.4405 -1.1380 -0.4675
  828MOL0     H 9246   0.709   3.683   9.707 -1.5982  1.4778 -0.9150
  828MOL0     H 9247   0.828   3.950   9.736  1.9267 -2.6020 -2.8876
  828MOL0     H 9248   0.776   3.843   9.868 -0.8761 -0.4819 -0.3715
  828MOL0     H 9249   0.627   4.098   9.905 -0.0933 -1.9689  3.5170
  828MOL0     H 9250   0.286   4.187   9.739 -2.9452 -2.8043  2.7737
  828MOL0     H 9251   0.438   4.242   9.827  2.1909 -2.4283  0.7594
  828MOL0     H 9252   0.358   4.143  10.036  0.2148 -1.7814 -0.3202
  828MOL0     H 9253   0.224   4.068   9.958  0.5847  0.2869  1.2779
  828MOL0     H 9254   0.130   4.254  10.077  0.2992 -0.5705 -0.0646
  828MOL0     H 9255   0.245   4.372  10.006 -1.9923  0.3649  2.9551
  828MOL0     H 9256   0.047   4.193   9.854 -2.4323  0.6394  0.8412
  828MOL0     H 9257   0.139   4.332   9.793 -3.1646  1.1898 -1.6365
  828MOL0     H 9258  -0.073   4.169  10.075  0.1463  1.7004 -0.3286
  828MOL0     H 9259  -0.224   4.183  10.246 -0.7834 -1.5612 -1.9819
  828MOL0     H 9260  -0.672   4.267  10.399 -0.0878  0.0604  0.6176
  828MOL0     H 9261  -0.877   4.321  10.540 -0.3977  1.1390 -0.2773
  828MOL0     H 9262  -1.017   4.757  10.524  1.2087  0.5507  2.0999
  828MOL0     H 9263  -1.135   4.675  10.614 -0.1269  1.5382 -0.8220
  828MOL0     H 9264  -1.166   4.515  10.406  0.5013  0.1416  0.3979
  828MOL0     H 9265  -1.068   4.622  10.320  0.2681 -4.7394  0.4292
  828MOL0     H 9266  -1.252   4.818  10.382 -1.7527  0.1063  0.2973
  828MOL0     H 9267  -1.337   4.676  10.440  0.7505 -0.8453  1.0634
  828MOL0     H 9268  -1.320   4.772  10.166 -0.4385 -2.0662 -2.7996
  828MOL0     H 9269  -1.238   4.617  10.167 -3.3019 -2.9247 -1.0346
  828MOL0     H 9270  -1.431   4.529  10.301  4.6995  1.3893  1.6065
  828MOL0     H 9271  -1.454   4.545  10.125 -1.9619  0.2403 -0.5472
  828MOL0     H 9272  -1.585   4.754  10.157 -1.6811 -0.6128  0.9909
  828MOL0     H 9273  -1.523   4.784  10.315  3.3332 -0.3838  0.2059
  828MOL0     H 9274  -1.677   4.621  10.412  0.6626 -1.5206  0.3086
  828MOL0     H 9275  -1.774   4.713  10.288 -0.8788 -1.8597 -1.4879
  828MOL0     H 9276  -1.643   4.440  10.262 -0.0269 -1.8094 -0.9687
  828MOL0     H 9277  -1.748   4.513  10.134 -0.4222  2.4948  0.2285
  828MOL0     H 9278  -0.816   4.740  10.434 -1.8479 -0.2417 -0.3398
  828MOL0     H 9279  -0.627   4.667  10.300  2.8684 -1.7919 -0.6630
  828MOL0     H 9280  -0.366   4.566  10.110 -0.4921 -0.7110  4.2759
  828MOL0     H 9281  -0.203   4.560   9.930  0.1113 -2.2872 -3.1107
  828MOL0     H 9282   1.587   3.541   9.410 -0.9248  0.1862  0.1816
  828MOL0     H 9283   1.810   3.654   9.309 -2.8204  4.0383 -0.8692
  828MOL0     H 9284   2.237   3.912   9.430 -1.3401 -0.6021 -0.0712
  828MOL0     H 9285   2.405   4.006   9.320  0.7076  0.3722 -2.1291
  828MOL0     H 9286   2.679   3.941   9.177 -0.6426 -1.6299 -0.2462
  828MOL0     H 9287   2.562   4.081   9.189 -1.7873  0.5103 -1.7271
  828MOL0     H 9288   2.663   4.003   8.924 -0.5596  1.7660 -1.3099
  828MOL0     H 9289   2.598   4.163   8.984 -0.5615  0.4473  1.3892
  828MOL0     H 9290   2.871   4.042   8.997 -0.5441 -1.4014  2.7561
  828MOL0     H 9291   2.832   4.148   9.132  0.1067 -1.2262 -0.1594
  828MOL0     H 9292   2.803   4.246   8.843 -2.1515 -1.3419  0.7330
  828MOL0     H 9293   2.771   4.346   8.972 -2.8819 -0.3892 -1.4479
  828MOL0     H 9294   3.190   4.349   8.893  0.5901 -2.1625  1.8299
  828MOL0     H 9295   2.384   3.715   9.008 -0.5679 -1.2089  0.6856
  828MOL0     H 9296   2.206   3.598   9.136  0.8577 -0.5456  0.5777
  829MOL0     O 9297   7.086   9.405   2.189  0.3450 -0.3712  0.0553
  829MOL0     C 9298   7.137   9.321   2.122  0.3838  1.0311 -0.2981
  829MOL0     O 9299   7.070   9.221   2.045 -0.7080 -0.4860 -0.5618
  829MOL0     C 9300   6.938   9.219   2.022  0.3494 -0.5728  0.2311
  829MOL0     C 9301   6.881   9.093   1.985 -0.7561  0.5997  1.3553
  829MOL0     C 9302   6.746   9.080   1.957 -1.0520 -0.4198 -0.0757
  829MOL0     C 9303   6.667   9.194   1.958 -0.3909 -0.5299  1.0551
  829MOL0     O 9304   6.535   9.171   1.920 -0.0674  0.2606 -0.6207
  829MOL0     C 9305   6.444   9.277   1.943 -0.2468 -0.2549  0.5637
  829MOL0     C 9306   6.324   9.247   1.852  0.3334 -0.0567  0.8542
  829MOL0     C 9307   6.249   9.119   1.894  0.3476 -0.6253 -0.0301
  829MOL0     C 9308   6.107   9.113   1.821 -0.4786 -0.7744 -0.1285
  829MOL0     C 9309   5.996   9.043   1.889  0.4517  0.3463  0.8655
  829MOL0     C 9310   6.015   8.884   1.870  0.9740  0.3201 -0.4271
  829MOL0     C 9311   5.890   8.817   1.927 -0.4983 -0.2221 -0.4704
  829MOL0     C 9312   5.792   8.778   1.802 -0.0164  0.3304 -0.8075
  829MOL0     N 9313   5.662   8.735   1.859 -0.0643 -0.2721 -0.0767
  829MOL0     C 9314   5.604   8.765   1.978  0.3661 -1.1414  0.0748
  829MOL0     C 9315   5.494   8.694   1.977 -0.4624  0.1406 -0.2080
  829MOL0     C 9316   5.404   8.691   2.097  0.7589 -0.7831  0.7898
  829MOL0     C 9317   5.250   8.696   2.075 -0.0475  0.0111 -0.1479
  829MOL0     C 9318   5.195   8.567   2.011  0.8195  0.5163  0.0235
  829MOL0     C 9319   5.048   8.571   1.985  0.1060  0.5986  0.2411
  829MOL0     O 9320   5.012   8.645   1.864 -0.3621 -0.7339 -0.1081
  829MOL0     C 9321   4.882   8.637   1.817  0.5518  0.1843 -0.2968
  829MOL0     C 9322   4.789   8.550   1.873  0.4376 -0.5901  0.4066
  829MOL0     C 9323   4.657   8.539   1.830 -0.0672  0.8078  0.8196
  829MOL0     C 9324   4.609   8.617   1.718  0.2341 -0.6923  0.8554
  829MOL0     C 9325   4.471   8.614   1.684  0.2089  0.2031 -0.0333
  829MOL0     O 9326   4.396   8.510   1.741 -0.0885  0.1895 -0.4846
  829MOL0     C 9327   4.260   8.494   1.711 -0.7166 -0.2458 -0.3884
  829MOL0     C 9328   4.170   8.600   1.708  0.2123  0.5367 -0.0233
  829MOL0     C 9329   4.026   8.580   1.721 -0.8098 -0.3724  0.0844
  829MOL0     C 9330   3.981   8.446   1.704  0.2136 -0.2546 -0.2172
  829MOL0     O 9331   3.847   8.413   1.717 -0.4253 -1.5128 -0.6365
  829MOL0     C 9332   3.816   8.331   1.831 -0.0008 -0.0727  1.4985
  829MOL0     C 9333   3.662   8.341   1.836  0.3186  0.3291  0.7836
  829MOL0     C 9334   3.619   8.248   1.949 -0.3163  0.6099 -0.1266
  829MOL0     C 9335   3.468   8.242   1.943  0.0935 -0.2950 -0.0686
  829MOL0     C 9336   3.411   8.137   2.045 -0.3745 -0.1920 -0.5738
  829MOL0     C 9337   3.439   8.177   2.192  0.5918 -0.0777 -0.1745
  829MOL0     C 9338   3.331   8.115   2.280 -0.3788 -0.0543 -0.0721
  829MOL0     C 9339   3.287   8.205   2.397 -0.6247 -0.9686 -0.8306
  829MOL0    Cl 9340   3.413   8.223   2.517  0.2156 -0.1765 -0.1494
  829MOL0     C 9341   4.078   8.342   1.700 -1.2694 -0.2056  0.5235
  829MOL0     C 9342   4.212   8.363   1.698  0.2409 -0.2947 -0.3425
  829MOL0     O 9343   4.424   8.702   1.606 -0.2234  0.0539 -0.0279
  829MOL0     C 9344   4.702   8.712   1.670 -0.8795  0.1828  0.4242
  829MOL0     C 9345   4.831   8.719   1.716 -0.1007  0.1256  0.1005
  829MOL0     N 9346   5.484   8.618   1.862 -0.2373  0.3978 -0.0500
  829MOL0     N 9347   5.591   8.641   1.793 -0.0528 -0.0351 -0.3615
  829MOL0     C 9348   6.727   9.323   1.976 -0.0365 -0.4031  0.0640
  829MOL0     C 9349   6.861   9.332   2.007  0.8566 -0.3938  0.8197
  829MOL0     C 9350   7.287   9.320   2.104  0.2772  0.9146 -0.1783
  829MOL0     C 9351   7.344   9.208   2.041 -0.1361  0.4678 -0.0671
  829MOL0     C 9352   7.485   9.198   2.034 -0.3935  0.6740 -0.0508
  829MOL0     C 9353   7.572   9.281   2.103 -0.0765  0.2015  0.5871
  829MOL0     O 9354   7.716   9.271   2.098 -0.0726 -1.0564 -0.4703
  829MOL0     C 9355   7.772   9.210   1.984 -1.1022  0.0093 -0.0812
  829MOL0     C 9356   7.897   9.286   1.948  0.0379 -0.8584  0.2056
  829MOL0     C 9357   7.984   9.292   2.072 -0.0496  0.8351 -0.0025
  829MOL0     C 9358   8.029   9.153   2.117  0.3477  0.2544  1.0657
  829MOL0     C 9359   8.133   9.163   2.220 -0.1701 -0.2252 -0.4369
  829MOL0     C 9360   8.219   9.171   2.305  0.3777  0.6789 -0.2105
  829MOL0     C 9361   7.514   9.389   2.163  0.5365 -0.4711  0.1808
  829MOL0     C 9362   7.371   9.404   2.167  0.2989  0.2806  0.0318
  829MOL0     H 9363   6.943   9.004   1.977 -1.2832  0.2429  1.1784
  829MOL0     H 9364   6.693   8.987   1.943 -2.9736  0.2276  2.1962
  829MOL0     H 9365   6.479   9.380   1.928 -1.2079  0.5255  3.1215
  829MOL0     H 9366   6.409   9.291   2.046 -0.0369  1.0260  0.4793
  829MOL0     H 9367   6.359   9.234   1.749  1.4704 -0.9244  1.3246
  829MOL0     H 9368   6.259   9.334   1.860 -0.6504 -0.3599 -2.5542
  829MOL0     H 9369   6.240   9.109   2.002 -0.2229 -0.5522 -0.0688
  829MOL0     H 9370   6.313   9.032   1.874 -1.2545 -1.4405 -2.0883
  829MOL0     H 9371   6.056   9.210   1.814  0.9702 -0.0396 -1.3049
  829MOL0     H 9372   6.130   9.065   1.725  2.2766  0.4622 -0.2023
  829MOL0     H 9373   5.907   9.071   1.831 -0.8572 -0.0585  2.5998
  829MOL0     H 9374   5.967   9.086   1.985 -1.1269  2.8853 -0.6168
  829MOL0     H 9375   6.098   8.848   1.932  1.4511  2.5989  0.3422
  829MOL0     H 9376   6.033   8.844   1.770  3.1819 -2.3115  0.9014
  829MOL0     H 9377   5.912   8.721   1.975 -0.7850 -0.1595 -0.2171
  829MOL0     H 9378   5.844   8.875   2.007  1.1741  0.4502  0.0401
  829MOL0     H 9379   5.839   8.692   1.756  2.4924  1.3957 -0.3935
  829MOL0     H 9380   5.778   8.862   1.733 -2.4723  1.3149  0.7187
  829MOL0     H 9381   5.629   8.843   2.050  0.3212 -0.3515 -0.7549
  829MOL0     H 9382   5.439   8.777   2.154 -0.0216  2.1484 -2.7702
  829MOL0     H 9383   5.422   8.607   2.165  0.5716 -1.4329  0.0497
  829MOL0     H 9384   5.225   8.778   2.007 -2.4445 -0.3361  0.2062
  829MOL0     H 9385   5.192   8.710   2.166 -0.0399 -1.9591  0.2159
  829MOL0     H 9386   5.242   8.535   1.917  0.7648 -2.0612  0.8006
  829MOL0     H 9387   5.213   8.480   2.074  1.2058 -1.1260 -2.2060
  829MOL0     H 9388   4.996   8.615   2.070 -3.6757 -1.1434 -0.9528
  829MOL0     H 9389   5.007   8.470   1.976 -1.8216  1.4352 -1.0065
  829MOL0     H 9390   4.808   8.490   1.961 -0.4304  0.1775  1.1434
  829MOL0     H 9391   4.591   8.473   1.885  1.8579  0.6501  3.0708
  829MOL0     H 9392   4.213   8.698   1.724  0.0729  0.8858 -1.6167
  829MOL0     H 9393   3.958   8.665   1.721 -0.2689  0.0641  0.1622
  829MOL0     H 9394   3.854   8.367   1.927  2.5580 -1.1902  0.9782
  829MOL0     H 9395   3.856   8.231   1.813  3.6817  1.2992  1.2908
  829MOL0     H 9396   3.617   8.325   1.737 -2.9219  3.6596  1.4772
  829MOL0     H 9397   3.624   8.441   1.860 -2.7379  0.3161 -3.0044
  829MOL0     H 9398   3.656   8.272   2.048  1.2557 -3.2317  0.4070
  829MOL0     H 9399   3.650   8.144   1.932 -0.3390  0.3830  1.1323
  829MOL0     H 9400   3.430   8.344   1.952  0.1041 -0.0624 -2.2040
  829MOL0     H 9401   3.443   8.215   1.840 -0.3043  0.3785 -0.1512
  829MOL0     H 9402   3.447   8.036   2.027  0.1443  0.3193 -2.7195
  829MOL0     H 9403   3.303   8.129   2.028 -0.3078 -0.8846 -0.6709
  829MOL0     H 9404   3.434   8.286   2.205  0.0128 -0.3646  2.5199
  829MOL0     H 9405   3.533   8.138   2.234  1.1067 -0.2566 -1.4447
  829MOL0     H 9406   3.248   8.080   2.218 -0.1746 -0.8332  0.0812
  829MOL0     H 9407   3.375   8.024   2.323 -1.7153 -1.1123 -0.8581
  829MOL0     H 9408   3.199   8.165   2.448 -1.1272 -0.1497 -1.0282
  829MOL0     H 9409   3.254   8.306   2.369  1.8636 -0.0418 -0.6377
  829MOL0     H 9410   4.046   8.239   1.689 -1.3183  0.0671 -3.9009
  829MOL0     H 9411   4.285   8.282   1.696  1.1206  0.5044 -2.0786
  829MOL0     H 9412   4.683   8.767   1.578 -1.9736 -3.1696 -1.5555
  829MOL0     H 9413   4.904   8.781   1.665  0.9898 -1.3139 -0.1581
  829MOL0     H 9414   6.685   9.423   1.971  1.6548  0.2876 -3.3929
  829MOL0     H 9415   6.903   9.430   2.026  2.5279 -0.0682 -3.3907
  829MOL0     H 9416   7.286   9.124   2.005 -1.2492  0.7703  0.9451
  829MOL0     H 9417   7.527   9.105   1.997  1.9895  1.2149  1.1186
  829MOL0     H 9418   7.702   9.218   1.901  0.5840  1.6397 -1.4378
  829MOL0     H 9419   7.797   9.105   1.999  0.7439  0.3161 -0.6931
  829MOL0     H 9420   7.957   9.232   1.875  0.8936 -1.5814  1.3947
  829MOL0     H 9421   7.875   9.384   1.906  3.6373 -0.0445 -0.1111
  829MOL0     H 9422   7.928   9.345   2.149  0.9749 -0.3676  1.6433
  829MOL0     H 9423   8.076   9.341   2.038  0.6365 -0.3907  0.0536
  829MOL0     H 9424   7.940   9.115   2.168 -1.5908  1.7855 -1.0017
  829MOL0     H 9425   8.057   9.087   2.035 -0.7680  0.6774  0.3218
  829MOL0     H 9426   8.295   9.179   2.380 -0.4139 -2.4332  1.0831
  829MOL0     H 9427   7.579   9.464   2.207 -0.2082  1.3445 -1.6429
  829MOL0     H 9428   7.316   9.478   2.223 -2.1847 -1.7451  0.4615
  830MOL0     O 9429   6.120   3.904  10.464 -0.6213 -0.3480  0.4727
  830MOL0     C 9430   6.215   3.822  10.470  0.6653  0.2000 -0.0917
  830MOL0     O 9431   6.206   3.708  10.540 -0.1887 -0.7856  0.0036
  830MOL0     C 9432   6.087   3.652  10.552  1.6769 -0.6304 -0.8097
  830MOL0     C 9433   6.045   3.612  10.681 -0.3232  0.2421 -0.0432
  830MOL0     C 9434   5.925   3.557  10.707  0.2363  0.1515  0.4465
  830MOL0     C 9435   5.823   3.553  10.610 -0.3236  0.2112 -0.0687
  830MOL0     O 9436   5.701   3.486  10.621  0.8205 -0.7452 -0.3673
  830MOL0     C 9437   5.591   3.581  10.611 -0.5692  0.1572 -0.2265
  830MOL0     C 9438   5.451   3.515  10.620 -0.2866  0.2157  0.2229
  830MOL0     C 9439   5.331   3.611  10.632  0.2456 -0.0221 -0.2278
  830MOL0     C 9440   5.213   3.515  10.600  0.2181 -0.6147  0.4730
  830MOL0     C 9441   5.075   3.586  10.624  0.1949  0.3816  1.1627
  830MOL0     C 9442   4.965   3.485  10.622  0.2723  0.2972  0.4641
  830MOL0     C 9443   4.914   3.447  10.481  0.4605 -0.5801  1.2279
  830MOL0     C 9444   4.786   3.374  10.492  0.5383 -0.7606 -0.2900
  830MOL0     N 9445   4.692   3.341  10.380  0.0818  0.4893 -0.5504
  830MOL0     C 9446   4.699   3.240  10.286  0.2353 -0.3395 -0.2674
  830MOL0     C 9447   4.591   3.240  10.212  0.2968 -0.0492  0.7319
  830MOL0     C 9448   4.552   3.139  10.099 -0.0792 -0.6971 -0.6259
  830MOL0     C 9449   4.640   3.156   9.975 -0.2897  0.3181 -0.1348
  830MOL0     C 9450   4.618   3.286   9.892  1.0655 -0.4952  0.3539
  830MOL0     C 9451   4.483   3.299   9.834 -0.2016  0.1377 -0.6801
  830MOL0     O 9452   4.389   3.344   9.931  0.1561 -0.1011 -0.4768
  830MOL0     C 9453   4.260   3.338   9.895  0.5957 -0.6418  0.1020
  830MOL0     C 9454   4.221   3.328   9.764 -0.6009  0.2862 -0.4125
  830MOL0     C 9455   4.084   3.311   9.738  0.1595  0.9950 -0.2389
  830MOL0     C 9456   3.981   3.318   9.841 -0.5535 -0.1835  0.0465
  830MOL0     C 9457   3.835   3.302   9.802  0.8072  0.6495  1.5041
  830MOL0     O 9458   3.741   3.301   9.904 -0.3516  0.0801  0.0380
  830MOL0     C 9459   3.612   3.263   9.875 -0.3194  0.3169 -0.6197
  830MOL0     C 9460   3.514   3.362   9.904 -0.9388 -1.1658  1.1049
  830MOL0     C 9461   3.381   3.335   9.871  0.0590 -1.1755  0.5012
  830MOL0     C 9462   3.345   3.215   9.808  0.7991  0.7209  0.0013
  830MOL0     O 9463   3.217   3.178   9.780  0.0978 -1.6261  0.2761
  830MOL0     C 9464   3.113   3.191   9.878 -0.1071 -1.2226 -0.0833
  830MOL0     C 9465   3.074   3.069   9.952 -0.1225  0.8028 -0.0873
  830MOL0     C 9466   2.924   3.060   9.993  0.0357  0.0145  0.2537
  830MOL0     C 9467   2.900   2.935  10.074  0.2168  0.6413 -0.0335
  830MOL0     C 9468   2.743   2.915  10.100 -0.1045  0.5192 -0.0250
  830MOL0     C 9469   2.673   2.841   9.985 -0.7159 -0.5980 -0.2398
  830MOL0     C 9470   2.563   2.751  10.036 -0.5452  0.5664 -0.0602
  830MOL0     C 9471   2.509   2.645   9.938 -0.5664  0.1128 -0.1435
  830MOL0    Cl 9472   2.368   2.567  10.002  0.3105 -0.0432  0.0729
  830MOL0     C 9473   3.443   3.119   9.790  0.2068  0.5753 -0.2145
  830MOL0     C 9474   3.573   3.137   9.833 -0.0317  0.3305 -0.1117
  830MOL0     O 9475   3.801   3.294   9.686 -1.0009  0.2626  1.0141
  830MOL0     C 9476   4.020   3.348   9.973 -0.2279 -0.5912 -0.2057
  830MOL0     C 9477   4.160   3.348   9.997  0.5568 -0.2316 -0.7801
  830MOL0     N 9478   4.516   3.344  10.259  0.1589 -0.5384 -0.5245
  830MOL0     N 9479   4.571   3.393  10.365 -0.2032 -0.2426 -0.1099
  830MOL0     C 9480   5.858   3.591  10.479  0.6066 -0.3208 -0.3611
  830MOL0     C 9481   5.987   3.642  10.453  0.3314  0.0658  0.0364
  830MOL0     C 9482   6.352   3.843  10.410  0.1174  1.1611  0.1804
  830MOL0     C 9483   6.364   3.944  10.309  0.3423 -0.3311 -0.4549
  830MOL0     C 9484   6.493   3.962  10.242  0.6351  0.0964  1.2885
  830MOL0     C 9485   6.603   3.881  10.275 -0.0571 -0.3704  0.2586
  830MOL0     O 9486   6.721   3.908  10.215  0.1461  0.1649 -0.2747
  830MOL0     C 9487   6.755   3.811  10.118 -0.8178  0.6720  0.3586
  830MOL0     C 9488   6.882   3.860  10.045 -0.2154  0.5512 -0.5353
  830MOL0     C 9489   6.983   3.939  10.134  0.1335 -0.0408  0.5374
  830MOL0     C 9490   7.111   3.968  10.072 -0.3156 -0.3744 -0.3224
  830MOL0     C 9491   7.200   3.853  10.075 -0.0981  1.0346  0.8103
  830MOL0     C 9492   7.280   3.765  10.062  0.5356  0.0777 -0.9481
  830MOL0     C 9493   6.583   3.784  10.378 -0.3585 -0.8230  0.1156
  830MOL0     C 9494   6.463   3.762  10.444 -0.1302 -0.1809 -0.7379
  830MOL0     H 9495   6.112   3.620  10.767  2.6657 -0.4143 -2.1494
  830MOL0     H 9496   5.901   3.520  10.806  1.7741 -1.2071  0.3476
  830MOL0     H 9497   5.597   3.650  10.527 -0.4084  2.0775  1.2891
  830MOL0     H 9498   5.603   3.645  10.699  2.4970  1.7126 -1.5993
  830MOL0     H 9499   5.463   3.449  10.707 -0.3339  1.7625  1.4394
  830MOL0     H 9500   5.438   3.456  10.529  0.0607  0.0642  0.2666
  830MOL0     H 9501   5.343   3.696  10.564  3.1022  3.2234  3.8000
  830MOL0     H 9502   5.318   3.654  10.731  2.3734 -1.9034  0.9557
  830MOL0     H 9503   5.202   3.492  10.493 -3.1900 -0.7933  0.7721
  830MOL0     H 9504   5.229   3.430  10.666  0.0800 -0.5652  0.5690
  830MOL0     H 9505   5.061   3.668  10.553 -0.6250  0.9740  1.9967
  830MOL0     H 9506   5.072   3.636  10.721  1.3576  0.7050  1.0469
  830MOL0     H 9507   4.877   3.524  10.673 -0.4200 -0.2196 -0.2943
  830MOL0     H 9508   4.989   3.393  10.675 -1.6846 -0.4975  0.0781
  830MOL0     H 9509   4.887   3.539  10.429 -1.9679 -0.5548  2.3809
  830MOL0     H 9510   4.989   3.388  10.428 -1.2185 -3.9448  2.2615
  830MOL0     H 9511   4.729   3.446  10.551  0.8912  0.3907 -1.3018
  830MOL0     H 9512   4.794   3.281  10.549 -2.7653 -0.8035  0.3232
  830MOL0     H 9513   4.775   3.163  10.274 -1.2488 -2.1580  1.3634
  830MOL0     H 9514   4.448   3.152  10.067  0.0683  0.3704 -0.7374
  830MOL0     H 9515   4.577   3.043  10.144  0.4785  0.9610  2.9518
  830MOL0     H 9516   4.624   3.078   9.900 -1.3920  2.1660 -1.9157
  830MOL0     H 9517   4.746   3.160  10.000 -0.2076  4.1735 -0.5977
  830MOL0     H 9518   4.636   3.366   9.966 -0.3298 -0.5354  0.7561
  830MOL0     H 9519   4.689   3.299   9.810  0.3313  1.4385 -0.0238
  830MOL0     H 9520   4.455   3.204   9.789  2.1929 -0.4931 -0.9687
  830MOL0     H 9521   4.484   3.376   9.756  1.4316  0.8653  0.0037
  830MOL0     H 9522   4.300   3.317   9.690 -1.4296 -2.5379 -0.9917
  830MOL0     H 9523   4.045   3.286   9.640 -1.0101  0.7903  0.2641
  830MOL0     H 9524   3.554   3.455   9.945  0.1723 -0.0430 -2.1693
  830MOL0     H 9525   3.298   3.402   9.889 -0.2012 -2.0964  3.1074
  830MOL0     H 9526   3.019   3.234   9.843 -1.6531 -0.0914  4.6685
  830MOL0     H 9527   3.145   3.267   9.951  2.8024 -0.4792 -1.9445
  830MOL0     H 9528   3.129   3.075  10.046  1.3564  0.7382 -0.9110
  830MOL0     H 9529   3.096   2.977   9.897  0.7187  1.4052 -0.7808
  830MOL0     H 9530   2.861   3.074   9.905 -1.9159  3.0753  1.9544
  830MOL0     H 9531   2.896   3.141  10.061 -1.1266 -0.0974 -0.0695
  830MOL0     H 9532   2.941   2.845  10.027 -1.5256 -1.2980  1.9813
  830MOL0     H 9533   2.941   2.945  10.175 -0.6758  4.6218  0.0996
  830MOL0     H 9534   2.693   3.011  10.112 -1.6528 -0.2618  0.0813
  830MOL0     H 9535   2.725   2.858  10.192 -0.5705 -1.3383 -1.2145
  830MOL0     H 9536   2.752   2.774   9.950  0.9832 -1.3653  4.3084
  830MOL0     H 9537   2.639   2.909   9.906 -3.1170  2.3648  3.0220
  830MOL0     H 9538   2.594   2.699  10.128  0.8221  3.9037  1.5292
  830MOL0     H 9539   2.482   2.818  10.065 -0.4050 -0.5241  3.3558
  830MOL0     H 9540   2.585   2.570   9.917  0.3203  0.6562  1.0044
  830MOL0     H 9541   2.474   2.682   9.842 -1.0836 -2.3657 -0.9902
  830MOL0     H 9542   3.412   3.025   9.744  0.2666  0.8505 -0.8226
  830MOL0     H 9543   3.643   3.056   9.815  2.9693  2.5952  0.6335
  830MOL0     H 9544   3.948   3.352  10.054 -2.0941 -2.5859 -1.6782
  830MOL0     H 9545   4.185   3.365  10.101  1.2886  2.7694 -1.3436
  830MOL0     H 9546   5.786   3.589  10.398 -0.6351 -2.0844  0.7325
  830MOL0     H 9547   6.005   3.670  10.350 -0.3180  0.0031 -0.0950
  830MOL0     H 9548   6.279   4.007  10.285  1.8472  1.5592 -1.0742
  830MOL0     H 9549   6.500   4.047  10.175 -2.6650  0.9625  1.8480
  830MOL0     H 9550   6.675   3.817  10.043 -1.4599  2.2241  1.1175
  830MOL0     H 9551   6.750   3.708  10.153 -3.1942  0.9751  1.1386
  830MOL0     H 9552   6.928   3.768  10.008  1.7188  0.9025  0.8128
  830MOL0     H 9553   6.840   3.915   9.960 -3.6280 -0.2771  0.4327
  830MOL0     H 9554   7.002   3.891  10.230 -2.2195 -3.0622 -0.3173
  830MOL0     H 9555   6.945   4.039  10.152  2.3673  1.1257 -0.7935
  830MOL0     H 9556   7.108   4.003   9.968  0.7988 -1.5050 -0.7637
  830MOL0     H 9557   7.165   4.042  10.132  1.1867 -1.1084 -0.7109
  830MOL0     H 9558   7.337   3.676  10.043  2.0008  1.0695 -1.3526
  830MOL0     H 9559   6.672   3.737  10.420  0.5986 -0.0939 -1.0451
  830MOL0     H 9560   6.448   3.684  10.517  0.1321 -1.5757 -2.1201
  831MOL0     O 9561   1.534   8.443   4.211  0.4475 -0.5832 -0.4111
  831MOL0     C 9562   1.562   8.536   4.136 -0.1321  0.4636 -0.3547
  831MOL0     O 9563   1.484   8.580   4.034 -0.2541  0.4104 -0.7812
  831MOL0     C 9564   1.357   8.518   4.009  0.0188 -0.5264  0.0476
  831MOL0     C 9565   1.310   8.533   3.879  0.1806 -0.4181 -0.1351
  831MOL0     C 9566   1.182   8.511   3.848 -0.0231 -0.0580  0.4227
  831MOL0     C 9567   1.085   8.465   3.940  0.1661  0.1819  0.1036
  831MOL0     O 9568   0.951   8.434   3.924  0.3473  0.0851  0.0234
  831MOL0     C 9569   0.873   8.481   3.801  0.3633  0.1878  0.2523
  831MOL0     C 9570   0.766   8.376   3.774  0.1886  1.1747 -0.8313
  831MOL0     C 9571   0.638   8.450   3.715 -0.5311  0.2130  0.3774
  831MOL0     C 9572   0.556   8.558   3.794  0.0976  0.1489  0.5103
  831MOL0     C 9573   0.423   8.587   3.718  0.5606  0.0969 -0.1016
  831MOL0     C 9574   0.318   8.671   3.798 -0.2965  0.2261  0.4380
  831MOL0     C 9575   0.171   8.660   3.747 -0.5664 -0.1966  0.5255
  831MOL0     C 9576   0.065   8.753   3.821 -0.6270  0.2582  0.3530
  831MOL0     N 9577  -0.000   8.667   3.924 -0.1618  0.0300 -0.5424
  831MOL0     C 9578   0.063   8.612   4.032  0.5382 -0.3728 -0.6075
  831MOL0     C 9579  -0.033   8.557   4.106  0.0047 -0.2867 -0.4058
  831MOL0     C 9580  -0.002   8.490   4.239 -0.4200 -1.0994 -0.4311
  831MOL0     C 9581   0.045   8.357   4.208  0.9470  0.3968  0.2385
  831MOL0     C 9582   0.103   8.291   4.327 -1.0733  0.7815 -0.5302
  831MOL0     C 9583   0.171   8.165   4.283 -0.5326 -0.1360  0.0050
  831MOL0     O 9584   0.274   8.117   4.371  0.3254  0.3804  0.0072
  831MOL0     C 9585   0.337   7.998   4.350  0.2148 -0.2213  0.5069
  831MOL0     C 9586   0.437   7.953   4.434 -0.1303  0.4359  0.2780
  831MOL0     C 9587   0.488   7.824   4.416  0.2319  0.0511 -1.0800
  831MOL0     C 9588   0.440   7.739   4.316  0.7030 -0.0721 -0.4127
  831MOL0     C 9589   0.494   7.602   4.301  0.1542  0.3176 -0.0448
  831MOL0     O 9590   0.625   7.572   4.339  0.2472  0.2857  0.7673
  831MOL0     C 9591   0.664   7.446   4.325  1.3091 -0.6293 -0.0333
  831MOL0     C 9592   0.620   7.340   4.405 -0.6712 -0.0255 -0.2520
  831MOL0     C 9593   0.666   7.213   4.386 -0.4343  0.3449  0.9192
  831MOL0     C 9594   0.758   7.182   4.286  0.4808 -0.1423 -0.7596
  831MOL0     O 9595   0.794   7.056   4.248  0.4181  0.7399  0.2463
  831MOL0     C 9596   0.705   6.951   4.271 -0.2442  0.2904 -0.0555
  831MOL0     C 9597   0.758   6.826   4.202 -0.4712 -0.4490  0.0066
  831MOL0     C 9598   0.868   6.755   4.271 -1.2324  1.2748 -1.4901
  831MOL0     C 9599   0.896   6.609   4.226 -0.4302  0.1672 -0.1254
  831MOL0     C 9600   1.020   6.541   4.289 -0.0394  0.1548 -0.1937
  831MOL0     C 9601   1.164   6.574   4.236  0.4790 -0.0032 -0.5136
  831MOL0     C 9602   1.189   6.504   4.098 -0.9063  0.1498 -0.8834
  831MOL0     C 9603   1.335   6.531   4.051  0.6913  0.6485  0.4286
  831MOL0    Cl 9604   1.362   6.700   4.005  0.0901  0.1611 -0.5595
  831MOL0     C 9605   0.814   7.294   4.214 -0.2022 -0.1696 -0.8398
  831MOL0     C 9606   0.761   7.421   4.230 -0.0819 -0.6572 -0.0953
  831MOL0     O 9607   0.408   7.523   4.257  0.0779 -0.0793 -0.7204
  831MOL0     C 9608   0.346   7.784   4.227 -0.1782  0.1420 -0.0127
  831MOL0     C 9609   0.296   7.911   4.240  0.5550 -0.9024  0.1742
  831MOL0     N 9610  -0.151   8.570   4.038  0.0326 -0.7668  0.4909
  831MOL0     N 9611  -0.126   8.634   3.929  0.9447 -0.0947 -0.2847
  831MOL0     C 9612   1.137   8.436   4.068  0.1870  0.6553 -0.0638
  831MOL0     C 9613   1.272   8.467   4.107 -0.1999 -0.3348  0.0407
  831MOL0     C 9614   1.703   8.587   4.133  0.2607  0.0983 -0.2166
  831MOL0     C 9615   1.791   8.571   4.244  0.1138 -0.2090  0.3607
  831MOL0     C 9616   1.916   8.629   4.234  1.0493 -0.1552  0.4111
  831MOL0     C 9617   1.956   8.685   4.112 -1.0427 -0.3211  0.2473
  831MOL0     O 9618   2.075   8.754   4.097  0.5007  0.1448 -0.0370
  831MOL0     C 9619   2.154   8.789   4.209 -0.6339  1.2758  0.5963
  831MOL0     C 9620   2.278   8.872   4.168  0.1193  0.2485  0.5391
  831MOL0     C 9621   2.403   8.847   4.251 -0.8920  0.4078  0.4082
  831MOL0     C 9622   2.529   8.923   4.202 -0.2109  0.1287  0.6413
  831MOL0     C 9623   2.641   8.910   4.285 -1.2806  0.1484 -0.1935
  831MOL0     C 9624   2.735   8.897   4.362  0.1181 -0.3277 -0.5325
  831MOL0     C 9625   1.872   8.704   4.003 -0.2102  0.3144 -0.4930
  831MOL0     C 9626   1.743   8.656   4.017  0.1074  0.1839  0.5307
  831MOL0     H 9627   1.375   8.588   3.811  1.6675  0.5137  1.9131
  831MOL0     H 9628   1.161   8.534   3.744 -0.6678  0.0680  0.5794
  831MOL0     H 9629   0.944   8.499   3.720 -0.4074  1.7728 -0.1200
  831MOL0     H 9630   0.824   8.577   3.824 -0.2209  0.4169 -1.7024
  831MOL0     H 9631   0.745   8.332   3.872  1.0330  2.0944 -0.2080
  831MOL0     H 9632   0.798   8.301   3.701  0.2651  2.5404 -2.2595
  831MOL0     H 9633   0.573   8.368   3.682  2.3859 -2.8580  1.5538
  831MOL0     H 9634   0.674   8.503   3.626  1.9826 -1.6259  0.1724
  831MOL0     H 9635   0.542   8.526   3.898  1.3236 -0.7130  0.4381
  831MOL0     H 9636   0.612   8.652   3.803 -2.2627  1.5695  1.1110
  831MOL0     H 9637   0.377   8.491   3.694  0.3651  0.3355 -0.6912
  831MOL0     H 9638   0.447   8.646   3.629  0.7681 -2.7732 -2.0743
  831MOL0     H 9639   0.332   8.779   3.800 -0.7064  0.5077 -3.5647
  831MOL0     H 9640   0.311   8.624   3.896 -3.8470 -1.6928 -0.5475
  831MOL0     H 9641   0.153   8.679   3.641 -0.6726  2.0310  0.8930
  831MOL0     H 9642   0.133   8.561   3.774  1.9051 -0.9529  1.4955
  831MOL0     H 9643  -0.012   8.782   3.748 -1.7077 -3.4215 -0.2037
  831MOL0     H 9644   0.115   8.838   3.867  2.2200 -2.4348  2.6921
  831MOL0     H 9645   0.171   8.616   4.042  0.4611 -0.8474  0.6913
  831MOL0     H 9646  -0.098   8.489   4.291  1.4240 -2.0997  3.3448
  831MOL0     H 9647   0.075   8.549   4.288  0.4392 -0.5808 -2.3193
  831MOL0     H 9648   0.115   8.366   4.125  0.9865 -1.4270  0.0467
  831MOL0     H 9649  -0.047   8.307   4.176  1.2267  0.9931 -1.6237
  831MOL0     H 9650   0.178   8.354   4.377  0.7684 -2.8647  1.7359
  831MOL0     H 9651   0.027   8.271   4.403 -1.1863  5.0583  0.7491
  831MOL0     H 9652   0.216   8.177   4.184  3.3223 -1.9879  1.3591
  831MOL0     H 9653   0.100   8.083   4.268 -1.4117  0.7696 -0.9258
  831MOL0     H 9654   0.485   8.019   4.505  2.5117 -0.7189 -0.3389
  831MOL0     H 9655   0.560   7.782   4.485  0.0866 -1.0817 -1.5963
  831MOL0     H 9656   0.539   7.349   4.477 -0.9245  3.5714 -0.7826
  831MOL0     H 9657   0.627   7.135   4.450 -0.8500 -0.4406 -0.2603
  831MOL0     H 9658   0.607   6.975   4.228 -1.5053  0.5598  2.7388
  831MOL0     H 9659   0.694   6.936   4.379  1.5458 -0.9705  0.0095
  831MOL0     H 9660   0.793   6.842   4.099  0.5487  5.9929  0.9487
  831MOL0     H 9661   0.668   6.764   4.194 -1.8309  1.4486  0.0905
  831MOL0     H 9662   0.847   6.750   4.379 -2.9330  0.5839 -1.8294
  831MOL0     H 9663   0.958   6.818   4.270 -1.2331  1.5142  1.8968
  831MOL0     H 9664   0.807   6.547   4.244  0.6032 -0.5723  3.1028
  831MOL0     H 9665   0.916   6.618   4.119  0.3891  1.4770  0.1159
  831MOL0     H 9666   0.999   6.434   4.298  0.3034  0.2216  2.3257
  831MOL0     H 9667   1.017   6.588   4.388 -1.7887  1.8853 -0.9905
  831MOL0     H 9668   1.238   6.535   4.306  1.5151  0.0294 -1.5743
  831MOL0     H 9669   1.182   6.679   4.212 -3.8500  0.3501 -3.4437
  831MOL0     H 9670   1.177   6.397   4.113  0.4484 -0.3581 -3.0281
  831MOL0     H 9671   1.116   6.533   4.022  0.0507  3.8490 -0.5874
  831MOL0     H 9672   1.340   6.458   3.970 -1.4356  1.6235 -0.6820
  831MOL0     H 9673   1.405   6.502   4.130  1.8714  0.3136 -0.7112
  831MOL0     H 9674   0.876   7.279   4.127 -0.9422 -1.7624 -1.1187
  831MOL0     H 9675   0.800   7.493   4.158  1.5769 -2.8080 -1.4939
  831MOL0     H 9676   0.314   7.723   4.143  1.0040  2.1423 -2.0495
  831MOL0     H 9677   0.229   7.935   4.158  1.4303 -0.5792 -0.4594
  831MOL0     H 9678   1.077   8.388   4.144  1.0602  0.5301  0.5562
  831MOL0     H 9679   1.297   8.460   4.213 -4.5333  0.8500  1.3651
  831MOL0     H 9680   1.768   8.523   4.339 -0.5745  2.7453  1.8272
  831MOL0     H 9681   1.985   8.625   4.318 -1.2274  0.2126  2.4052
  831MOL0     H 9682   2.199   8.701   4.256 -2.3981  2.2169  4.4532
  831MOL0     H 9683   2.098   8.843   4.286 -5.1469 -0.1539 -1.3274
  831MOL0     H 9684   2.302   8.845   4.065  0.3050 -0.0998  0.6698
  831MOL0     H 9685   2.263   8.979   4.152  1.7287  0.0573 -3.4185
  831MOL0     H 9686   2.433   8.741   4.252  2.0321  1.1100 -0.9348
  831MOL0     H 9687   2.388   8.874   4.356  0.6378  0.3745  0.6618
  831MOL0     H 9688   2.563   8.885   4.105 -0.2794 -4.3102  2.1161
  831MOL0     H 9689   2.517   9.031   4.187 -1.9240 -0.2613 -1.1273
  831MOL0     H 9690   2.811   8.890   4.438  0.7095 -2.4871 -1.2418
  831MOL0     H 9691   1.901   8.747   3.908  0.5350  0.0915 -0.3733
  831MOL0     H 9692   1.675   8.673   3.934  0.0239  1.3930  0.8285
  832MOL0     O 9693   8.446  11.110   2.699  1.3248  0.7031 -0.7613
  832MOL0     C 9694   8.411  11.222   2.705 -0.3297 -0.2666 -0.0718
  832MOL0     O 9695   8.312  11.281   2.637  0.5844  0.1182 -1.0216
  832MOL0     C 9696   8.228  11.187   2.572  0.8797  0.3759 -0.5548
  832MOL0     C 9697   8.236  11.145   2.443  0.1606  0.1772  1.0052
  832MOL0     C 9698   8.145  11.067   2.378  0.0537  0.2016 -0.0319
  832MOL0     C 9699   8.036  11.029   2.449  0.1523  0.8662  0.0543
  832MOL0     O 9700   7.941  10.950   2.376 -0.5953 -0.5053 -0.2157
  832MOL0     C 9701   7.813  10.927   2.442 -0.3076  0.9279  0.1267
  832MOL0     C 9702   7.725  10.828   2.360 -0.5364  0.5161 -0.2949
  832MOL0     C 9703   7.578  10.869   2.391 -0.7296 -0.7771  0.0228
  832MOL0     C 9704   7.481  10.789   2.301  0.9324  1.1725 -0.0746
  832MOL0     C 9705   7.342  10.838   2.291 -0.3474 -0.4724 -0.3199
  832MOL0     C 9706   7.247  10.752   2.216 -0.3655 -0.5801 -0.0096
  832MOL0     C 9707   7.109  10.809   2.227 -0.1120  0.3703 -0.2455
  832MOL0     C 9708   6.995  10.706   2.199  0.8212 -0.8881  0.0636
  832MOL0     N 9709   6.875  10.796   2.174 -0.3983 -0.6413  0.0567
  832MOL0     C 9710   6.850  10.888   2.066 -0.2601  0.9074 -0.7818
  832MOL0     C 9711   6.717  10.923   2.085 -0.3681 -0.0655  0.1576
  832MOL0     C 9712   6.649  11.011   1.986 -0.3341  0.3712  0.1159
  832MOL0     C 9713   6.516  10.942   1.942 -0.3465  0.2096  0.5326
  832MOL0     C 9714   6.445  11.009   1.819  0.7015  0.7206  0.6638
  832MOL0     C 9715   6.305  10.948   1.820 -0.5227  0.4021 -0.1839
  832MOL0     O 9716   6.237  11.022   1.920  0.3729 -0.0544 -0.4359
  832MOL0     C 9717   6.115  10.980   1.970  0.6531 -0.7249 -0.5251
  832MOL0     C 9718   6.053  11.038   2.084 -0.3218  0.6393 -0.3507
  832MOL0     C 9719   5.927  11.004   2.140  1.2264  0.3070  0.3003
  832MOL0     C 9720   5.845  10.902   2.081 -0.3097 -0.7938 -0.6944
  832MOL0     C 9721   5.700  10.878   2.110 -0.1337 -0.2274  0.3746
  832MOL0     O 9722   5.633  10.827   2.006  0.0912 -0.2956 -0.1483
  832MOL0     C 9723   5.502  10.823   2.012  0.4451  0.6264 -1.7943
  832MOL0     C 9724   5.423  10.925   1.946  0.1921 -0.2521 -0.1987
  832MOL0     C 9725   5.281  10.940   1.964 -0.0983 -0.3810  1.3239
  832MOL0     C 9726   5.213  10.854   2.053 -0.5975  0.1113 -0.0227
  832MOL0     O 9727   5.071  10.861   2.066  0.1557 -0.5475 -0.1703
  832MOL0     C 9728   5.012  10.825   2.190  0.3583 -1.0381 -0.0688
  832MOL0     C 9729   4.868  10.884   2.203  0.0199  0.1478  0.3096
  832MOL0     C 9730   4.785  10.797   2.111  1.5182 -1.1313 -0.8667
  832MOL0     C 9731   4.634  10.828   2.132 -0.9923 -0.9236  0.1648
  832MOL0     C 9732   4.543  10.781   2.015 -0.8211 -0.2653 -0.2144
  832MOL0     C 9733   4.394  10.824   2.054  0.5786  0.1629 -0.3978
  832MOL0     C 9734   4.310  10.847   1.932  0.0415  0.0863  0.4919
  832MOL0     C 9735   4.189  10.942   1.955  0.4476 -0.7611 -0.3789
  832MOL0    Cl 9736   4.090  10.887   2.094 -0.8101  0.0013  0.0906
  832MOL0     C 9737   5.285  10.757   2.115 -0.4483  0.1398  0.0538
  832MOL0     C 9738   5.427  10.741   2.102  0.8256 -0.1064 -0.0256
  832MOL0     O 9739   5.656  10.927   2.215 -0.2347  0.5730 -0.2471
  832MOL0     C 9740   5.909  10.842   1.971  0.3138  0.0738  0.1879
  832MOL0     C 9741   6.035  10.875   1.920 -0.9585 -0.0117  1.0353
  832MOL0     N 9742   6.660  10.855   2.192 -0.6201 -0.6582 -0.1911
  832MOL0     N 9743   6.758  10.774   2.237  0.3448  0.0395 -0.3685
  832MOL0     C 9744   8.006  11.083   2.574 -0.5341 -0.0504 -0.8157
  832MOL0     C 9745   8.104  11.156   2.636 -0.4603  0.6964  0.2137
  832MOL0     C 9746   8.494  11.312   2.791 -0.6821  0.4777 -0.0579
  832MOL0     C 9747   8.585  11.253   2.877 -0.1783 -1.0460 -0.1969
  832MOL0     C 9748   8.672  11.327   2.946  0.3983 -0.2702 -1.0909
  832MOL0     C 9749   8.664  11.467   2.938 -0.0149 -0.2830 -1.1667
  832MOL0     O 9750   8.752  11.548   2.999 -0.2070  0.8321  0.4870
  832MOL0     C 9751   8.834  11.493   3.101  1.0729  0.7984  0.0423
  832MOL0     C 9752   8.968  11.446   3.052 -0.2943 -0.6411  0.1688
  832MOL0     C 9753   9.046  11.558   2.968  0.0124 -0.0278 -0.7924
  832MOL0     C 9754   9.187  11.574   3.021  0.9844 -0.6230  0.3578
  832MOL0     C 9755   9.200  11.656   3.143 -0.5565 -0.0365 -0.0685
  832MOL0     C 9756   9.225  11.723   3.244 -0.2912 -0.3250 -0.4721
  832MOL0     C 9757   8.568  11.531   2.859 -0.2776  0.1129  0.2137
  832MOL0     C 9758   8.483  11.447   2.780 -0.1102 -0.8613 -0.2351
  832MOL0     H 9759   8.324  11.166   2.383 -0.9521 -1.2960 -1.2640
  832MOL0     H 9760   8.150  11.055   2.270 -1.0209  0.1786 -0.0942
  832MOL0     H 9761   7.766  11.026   2.453 -3.4168 -0.3735 -0.2674
  832MOL0     H 9762   7.827  10.874   2.537 -0.6264 -2.0207 -1.3757
  832MOL0     H 9763   7.745  10.723   2.381 -0.6395 -0.0805 -2.8120
  832MOL0     H 9764   7.752  10.846   2.255 -0.1930 -0.5830 -0.4062
  832MOL0     H 9765   7.567  10.977   2.382  0.4590 -0.6685 -0.2900
  832MOL0     H 9766   7.556  10.842   2.494 -0.9108 -1.5762 -0.2173
  832MOL0     H 9767   7.523  10.784   2.200  2.6783 -0.1380  0.6565
  832MOL0     H 9768   7.475  10.688   2.342 -0.9872  1.5598  0.6990
  832MOL0     H 9769   7.347  10.940   2.250 -0.7052  1.6484  4.3159
  832MOL0     H 9770   7.302  10.833   2.393 -3.1000 -0.1394 -1.2824
  832MOL0     H 9771   7.244  10.657   2.271 -0.6073  0.6732  2.2591
  832MOL0     H 9772   7.277  10.757   2.111 -3.3049  0.5815 -0.9039
  832MOL0     H 9773   7.095  10.848   2.328 -2.0976 -1.1877  0.1357
  832MOL0     H 9774   7.100  10.894   2.158 -2.9433 -0.9063 -1.5993
  832MOL0     H 9775   6.983  10.640   2.285  0.7320  1.0629  1.6342
  832MOL0     H 9776   7.029  10.647   2.114  0.6100 -0.3200 -0.4243
  832MOL0     H 9777   6.912  10.921   1.984  0.4534  0.4952 -0.4186
  832MOL0     H 9778   6.709  11.054   1.906  2.3047 -1.1748  1.1270
  832MOL0     H 9779   6.631  11.099   2.050  0.8882 -0.3686  1.5600
  832MOL0     H 9780   6.446  10.936   2.025  0.5008 -0.6935  1.1973
  832MOL0     H 9781   6.545  10.838   1.926  1.4091  0.1611  3.4902
  832MOL0     H 9782   6.446  11.118   1.828  0.5732  0.9556 -1.6245
  832MOL0     H 9783   6.496  10.978   1.728  4.7320 -0.7880  3.1795
  832MOL0     H 9784   6.307  10.843   1.848 -0.7170 -0.8568 -4.2738
  832MOL0     H 9785   6.249  10.951   1.726 -3.7576  0.7454  1.6037
  832MOL0     H 9786   6.102  11.120   2.136 -1.2608  0.8703  0.2003
  832MOL0     H 9787   5.876  11.067   2.213  1.2416 -0.8794  1.3647
  832MOL0     H 9788   5.474  10.988   1.874 -1.8379  0.6588 -0.8935
  832MOL0     H 9789   5.236  11.027   1.918  1.7214 -0.6325 -1.0886
  832MOL0     H 9790   5.075  10.866   2.270  2.3034  0.0915 -2.0597
  832MOL0     H 9791   5.023  10.716   2.194  1.8898 -0.9051  0.1053
  832MOL0     H 9792   4.870  10.989   2.171 -2.2535 -0.0458 -0.6379
  832MOL0     H 9793   4.842  10.859   2.306 -0.7485  2.6195  0.7874
  832MOL0     H 9794   4.813  10.693   2.127  3.7398 -0.2160  2.2247
  832MOL0     H 9795   4.800  10.826   2.006  0.4997 -0.2308 -0.7819
  832MOL0     H 9796   4.613  10.770   2.222  0.5770 -0.5293  0.8293
  832MOL0     H 9797   4.617  10.936   2.142 -1.1713 -0.9158 -0.2230
  832MOL0     H 9798   4.552  10.672   2.011 -0.6939 -0.3139  1.1066
  832MOL0     H 9799   4.571  10.829   1.920  0.2200  2.4342  1.3508
  832MOL0     H 9800   4.390  10.913   2.117  0.4435 -0.9914  1.2884
  832MOL0     H 9801   4.357  10.736   2.107 -1.5148  0.1646 -1.7617
  832MOL0     H 9802   4.379  10.885   1.857  1.8666 -0.7012  1.6982
  832MOL0     H 9803   4.273  10.753   1.892  1.1892  0.2347 -0.9956
  832MOL0     H 9804   4.139  10.941   1.858  0.2743  0.0990 -0.3037
  832MOL0     H 9805   4.214  11.043   1.987 -0.2024 -0.5411 -0.5341
  832MOL0     H 9806   5.239  10.695   2.191  1.4519 -0.9760  0.3573
  832MOL0     H 9807   5.477  10.665   2.162 -0.7424 -2.8954 -2.0221
  832MOL0     H 9808   5.857  10.761   1.921  0.4269 -2.2247  3.4841
  832MOL0     H 9809   6.063  10.829   1.826 -0.8785 -0.4639  1.2770
  832MOL0     H 9810   7.920  11.062   2.637  0.3872 -2.5119 -0.3000
  832MOL0     H 9811   8.079  11.200   2.732 -1.5986 -1.1402  0.8129
  832MOL0     H 9812   8.592  11.145   2.879  0.0666 -1.0294 -0.1374
  832MOL0     H 9813   8.760  11.273   2.979 -0.3262 -1.5276 -1.1487
  832MOL0     H 9814   8.787  11.413   3.160  1.9171 -1.4029 -2.1033
  832MOL0     H 9815   8.837  11.579   3.169  1.3706  2.4016 -1.8946
  832MOL0     H 9816   9.034  11.411   3.131  1.7289  1.2169 -0.5795
  832MOL0     H 9817   8.957  11.365   2.979 -0.1116 -0.3591 -0.1737
  832MOL0     H 9818   8.994  11.653   2.981  4.4198  2.2755  2.2285
  832MOL0     H 9819   9.049  11.531   2.862 -0.7886  2.6748 -1.5803
  832MOL0     H 9820   9.247  11.484   3.037  1.8220 -0.8142 -3.0225
  832MOL0     H 9821   9.257  11.612   2.946  0.0325  0.5591  0.0429
  832MOL0     H 9822   9.261  11.778   3.329 -1.3855 -1.3279  0.6746
  832MOL0     H 9823   8.570  11.639   2.853  0.4315  0.0517 -1.3947
  832MOL0     H 9824   8.405  11.487   2.717 -0.5955 -0.0476  0.8665
  833MOL0     O 9825   0.053   3.522   0.749  0.5724 -0.3535 -0.5146
  833MOL0     C 9826   0.167   3.502   0.781  0.5091 -0.0365  0.8315
  833MOL0     O 9827   0.217   3.437   0.893  0.1423 -0.2754  0.8557
  833MOL0     C 9828   0.135   3.379   0.985  0.1740 -0.5895 -0.0743
  833MOL0     C 9829   0.176   3.266   1.054 -1.1246 -0.1582 -0.3646
  833MOL0     C 9830   0.111   3.218   1.162 -0.5411  0.1691 -0.5756
  833MOL0     C 9831  -0.003   3.282   1.214 -0.3199  0.1634 -0.1482
  833MOL0     O 9832  -0.071   3.215   1.314  0.4821 -0.5055  0.4219
  833MOL0     C 9833  -0.009   3.136   1.408 -0.2418  1.0064  0.7275
  833MOL0     C 9834   0.099   3.223   1.495  0.3942  0.3897  0.2427
  833MOL0     C 9835   0.195   3.132   1.574 -0.1214 -0.4187 -0.6395
  833MOL0     C 9836   0.127   3.067   1.695  1.0074 -0.2967  0.3899
  833MOL0     C 9837   0.054   3.164   1.784  0.3095  0.7264  1.2076
  833MOL0     C 9838   0.044   3.091   1.922 -0.4670 -0.7909 -0.1074
  833MOL0     C 9839  -0.032   3.171   2.032  0.4136 -0.8923 -0.4740
  833MOL0     C 9840   0.059   3.297   2.094 -1.1976  0.3052 -0.0431
  833MOL0     N 9841  -0.046   3.355   2.184  0.1521  0.4157  1.0244
  833MOL0     C 9842  -0.067   3.488   2.183 -0.1303  0.7973 -0.0775
  833MOL0     C 9843  -0.176   3.493   2.262  0.2275  0.4414  0.3496
  833MOL0     C 9844  -0.252   3.626   2.282  0.4224  1.0019  0.1066
  833MOL0     C 9845  -0.384   3.629   2.365  0.1420 -0.4722  0.3727
  833MOL0     C 9846  -0.506   3.558   2.296 -0.6094  0.3046 -0.1515
  833MOL0     C 9847  -0.634   3.588   2.387 -0.0066 -0.5106  0.3323
  833MOL0     O 9848  -0.689   3.720   2.349 -0.3774  0.3315 -0.0375
  833MOL0     C 9849  -0.791   3.768   2.424  0.1131  0.4864  0.0046
  833MOL0     C 9850  -0.780   3.907   2.447  0.2808  0.2651  0.2723
  833MOL0     C 9851  -0.862   3.975   2.535 -0.3816 -0.3952  0.9847
  833MOL0     C 9852  -0.968   3.906   2.607 -0.0573 -0.2864 -0.1815
  833MOL0     C 9853  -1.075   3.985   2.678 -0.4682 -0.9689 -0.2724
  833MOL0     O 9854  -1.169   3.911   2.739  0.0040  0.0709  0.2015
  833MOL0     C 9855  -1.280   3.965   2.794  0.1301  0.8992  0.2550
  833MOL0     C 9856  -1.409   3.899   2.767 -0.1385 -0.1073 -0.1850
  833MOL0     C 9857  -1.522   3.951   2.830  0.5380  0.0267 -0.3366
  833MOL0     C 9858  -1.518   4.056   2.921 -0.8181 -0.6054 -0.2388
  833MOL0     O 9859  -1.636   4.114   2.971  0.1112 -0.1971  0.8123
  833MOL0     C 9860  -1.741   4.029   3.011  0.1714  0.5879 -0.6172
  833MOL0     C 9861  -1.852   4.119   3.069 -0.5296  0.0222 -0.0812
  833MOL0     C 9862  -1.963   4.017   3.124 -0.9051 -1.1426 -0.2686
  833MOL0     C 9863  -2.081   4.090   3.181  0.2415 -0.2162 -0.2775
  833MOL0     C 9864  -2.182   3.998   3.248  1.4712  0.9641 -0.9515
  833MOL0     C 9865  -2.237   3.873   3.157  0.8337 -0.8120 -0.1093
  833MOL0     C 9866  -2.346   3.786   3.226 -0.4956  0.5543 -0.1173
  833MOL0     C 9867  -2.490   3.844   3.212  0.0972 -0.1558 -0.7583
  833MOL0    Cl 9868  -2.554   3.854   3.038 -0.1518  0.0771 -0.0137
  833MOL0     C 9869  -1.395   4.113   2.953 -0.4853  0.4681 -1.4156
  833MOL0     C 9870  -1.278   4.064   2.891  0.1263  0.1749  0.3968
  833MOL0     O 9871  -1.059   4.109   2.682 -0.0079 -0.0898 -0.3600
  833MOL0     C 9872  -0.972   3.764   2.591  1.2163 -0.8289 -0.0306
  833MOL0     C 9873  -0.885   3.698   2.504  1.2101  0.5513 -0.2270
  833MOL0     N 9874  -0.213   3.371   2.307  0.3419 -0.5250 -0.5734
  833MOL0     N 9875  -0.135   3.289   2.255  0.4552  0.0157  0.1063
  833MOL0     C 9876  -0.049   3.384   1.146 -0.1128  0.1125  0.2507
  833MOL0     C 9877   0.022   3.439   1.034  0.0319  0.0712 -0.4769
  833MOL0     C 9878   0.267   3.550   0.682 -0.4109  0.2986 -0.0719
  833MOL0     C 9879   0.224   3.576   0.552 -0.8563 -0.3292  0.7921
  833MOL0     C 9880   0.327   3.602   0.450  0.1502 -0.5933  0.5322
  833MOL0     C 9881   0.461   3.614   0.480 -0.2661  0.2295 -0.1379
  833MOL0     O 9882   0.559   3.635   0.388 -0.8776  0.6833  0.0453
  833MOL0     C 9883   0.524   3.629   0.247  0.4095 -0.5511 -0.7537
  833MOL0     C 9884   0.640   3.666   0.158 -0.3848 -0.3168  0.3891
  833MOL0     C 9885   0.766   3.585   0.190 -0.3095 -0.6198 -0.8587
  833MOL0     C 9886   0.873   3.636   0.092 -0.3873  0.1061 -0.0867
  833MOL0     C 9887   1.002   3.622   0.140 -0.3305 -0.4692  0.0440
  833MOL0     C 9888   1.109   3.614   0.194 -0.6788 -0.0129 -0.8711
  833MOL0     C 9889   0.505   3.587   0.606  0.5677 -0.2698  0.1812
  833MOL0     C 9890   0.410   3.542   0.704  0.3564  0.1758  0.6120
  833MOL0     H 9891   0.265   3.215   1.019  0.6238  1.7367  1.0529
  833MOL0     H 9892   0.158   3.138   1.219 -1.9586  0.1976  0.7002
  833MOL0     H 9893   0.033   3.044   1.367 -2.4570  0.0036  0.5359
  833MOL0     H 9894  -0.094   3.101   1.468 -0.8205  0.5925 -0.3025
  833MOL0     H 9895   0.039   3.291   1.556 -1.4891 -0.6221 -0.4006
  833MOL0     H 9896   0.163   3.281   1.428 -0.3067 -0.2351 -1.0102
  833MOL0     H 9897   0.272   3.198   1.614 -2.0666  1.6839 -0.1131
  833MOL0     H 9898   0.249   3.066   1.506 -1.6122  0.9198 -3.3174
  833MOL0     H 9899   0.072   2.978   1.666 -0.1956 -0.1101  1.9142
  833MOL0     H 9900   0.217   3.040   1.752 -0.0133 -1.6520  1.4160
  833MOL0     H 9901  -0.042   3.193   1.741  1.4802  0.1900 -2.0190
  833MOL0     H 9902   0.119   3.252   1.782 -0.6368  1.4709 -1.3970
  833MOL0     H 9903   0.140   3.059   1.961 -1.2433  0.9718  3.6792
  833MOL0     H 9904  -0.008   2.999   1.892  1.8767 -1.5927 -2.0845
  833MOL0     H 9905  -0.119   3.216   1.984  0.8752  1.4369  0.6815
  833MOL0     H 9906  -0.058   3.097   2.108  1.9242 -0.4202  0.5430
  833MOL0     H 9907   0.092   3.374   2.024  0.4198 -0.4853 -0.1927
  833MOL0     H 9908   0.137   3.243   2.149 -0.2217  0.2249 -1.4652
  833MOL0     H 9909  -0.013   3.568   2.133 -0.7714  0.5230 -1.2454
  833MOL0     H 9910  -0.281   3.655   2.181  2.2707 -0.5007 -0.9169
  833MOL0     H 9911  -0.180   3.705   2.306  1.0527  1.0232 -1.7274
  833MOL0     H 9912  -0.405   3.736   2.379 -2.2250 -0.7477 -0.4573
  833MOL0     H 9913  -0.370   3.589   2.466  0.9596  1.6653  1.1582
  833MOL0     H 9914  -0.515   3.586   2.191  0.8785 -3.5536 -1.4739
  833MOL0     H 9915  -0.485   3.451   2.284 -2.8395 -0.2371  0.3724
  833MOL0     H 9916  -0.601   3.591   2.492 -1.5916 -1.4079  0.8835
  833MOL0     H 9917  -0.703   3.505   2.372 -0.3577 -0.0837 -0.4474
  833MOL0     H 9918  -0.706   3.967   2.396  0.0674 -1.3647 -2.1325
  833MOL0     H 9919  -0.850   4.082   2.536 -3.2114 -0.0069  0.9943
  833MOL0     H 9920  -1.414   3.819   2.693  2.6751 -0.0618 -0.5561
  833MOL0     H 9921  -1.621   3.921   2.797  1.2603 -0.7756 -1.8825
  833MOL0     H 9922  -1.700   3.975   3.097 -0.0101  2.4466  0.6908
  833MOL0     H 9923  -1.769   3.960   2.931 -0.6175 -0.9135  0.8970
  833MOL0     H 9924  -1.897   4.191   3.001 -0.4759  0.4325  0.3102
  833MOL0     H 9925  -1.813   4.195   3.138  1.2399 -0.9585  0.0615
  833MOL0     H 9926  -1.917   3.956   3.202 -1.9171  0.7943  1.9700
  833MOL0     H 9927  -1.995   3.954   3.040 -1.3091 -1.5120  0.1563
  833MOL0     H 9928  -2.055   4.156   3.265 -1.3227 -2.9341  2.5425
  833MOL0     H 9929  -2.124   4.153   3.103 -2.7930 -2.1580 -0.3519
  833MOL0     H 9930  -2.261   4.056   3.297  2.2071 -1.8359  4.2080
  833MOL0     H 9931  -2.142   3.952   3.339 -3.8851  2.4592  2.7035
  833MOL0     H 9932  -2.147   3.812   3.151  3.7592  2.5107  3.9135
  833MOL0     H 9933  -2.277   3.908   3.061  1.5557 -0.0087 -0.1362
  833MOL0     H 9934  -2.335   3.685   3.187 -0.6898 -0.3040  1.9166
  833MOL0     H 9935  -2.319   3.777   3.332  0.1324  1.9133 -0.1315
  833MOL0     H 9936  -2.503   3.948   3.243 -2.3773 -0.3442 -0.9392
  833MOL0     H 9937  -2.564   3.789   3.270 -0.7041  1.7456  0.0909
  833MOL0     H 9938  -1.397   4.194   3.025  1.4638 -0.3081 -0.3903
  833MOL0     H 9939  -1.177   4.100   2.909  0.7387  0.2418 -2.6542
  833MOL0     H 9940  -1.053   3.703   2.629 -0.2652  1.0598 -0.0070
  833MOL0     H 9941  -0.885   3.589   2.500  3.1674  0.4867  0.1364
  833MOL0     H 9942  -0.146   3.425   1.171  1.5207  2.7333  2.7879
  833MOL0     H 9943  -0.021   3.536   1.010  2.0885  1.1596 -0.0613
  833MOL0     H 9944   0.121   3.572   0.517 -0.8925 -2.3080  0.9797
  833MOL0     H 9945   0.289   3.626   0.351 -0.6704 -1.6720  0.5551
  833MOL0     H 9946   0.446   3.705   0.231  1.5444  1.3211  1.7202
  833MOL0     H 9947   0.485   3.529   0.227 -0.0537 -0.7766  1.0341
  833MOL0     H 9948   0.621   3.659   0.051 -0.7608 -2.2792  0.5476
  833MOL0     H 9949   0.656   3.774   0.169 -2.3074 -0.0017  0.4877
  833MOL0     H 9950   0.750   3.477   0.184 -0.8532 -0.4869 -2.1683
  833MOL0     H 9951   0.803   3.598   0.292 -0.9405  0.5632 -0.7624
  833MOL0     H 9952   0.869   3.580  -0.002  1.7993 -1.8327  0.8917
  833MOL0     H 9953   0.869   3.743   0.068  0.5949  0.3179  0.6136
  833MOL0     H 9954   1.205   3.581   0.228 -1.0801 -0.1953  0.1494
  833MOL0     H 9955   0.609   3.573   0.637  0.3779  1.2013  1.6362
  833MOL0     H 9956   0.454   3.508   0.797 -0.8509  0.0397  1.1464
  834MOL0     O 9957  10.530  10.031   5.277 -0.2715 -0.3015 -0.8064
  834MOL0     C 9958  10.607  10.026   5.183  0.6342  0.6562  0.4425
  834MOL0     O 9959  10.569  10.041   5.050 -0.4352  0.3397  0.0395
  834MOL0     C 9960  10.444  10.063   4.995 -0.5125 -0.7938 -0.5676
  834MOL0     C 9961  10.321  10.043   5.059 -0.1323 -0.1839 -0.4365
  834MOL0     C 9962  10.200  10.089   5.008  0.5187  0.6232  0.0117
  834MOL0     C 9963  10.191  10.158   4.884  0.7267 -0.1153 -0.2383
  834MOL0     O 9964  10.070  10.206   4.831  0.6161 -0.6035  0.0380
  834MOL0     C 9965  10.033  10.138   4.709  1.0956  0.8953  0.3078
  834MOL0     C 9966   9.884  10.155   4.678  0.6462 -0.3921 -0.2727
  834MOL0     C 9967   9.794  10.111   4.796 -0.4755 -0.2343 -0.0100
  834MOL0     C 9968   9.761  10.238   4.886  0.2241 -0.0055  0.9433
  834MOL0     C 9969   9.650  10.212   4.995 -0.4225  0.2537  0.1936
  834MOL0     C 9970   9.521  10.190   4.920 -0.0302  0.0130 -0.5847
  834MOL0     C 9971   9.406  10.170   5.023 -0.8600 -0.0769  0.1993
  834MOL0     C 9972   9.412  10.051   5.123 -0.0333 -0.4554 -0.2408
  834MOL0     N 9973   9.282  10.010   5.174 -0.1350 -0.1284 -0.1366
  834MOL0     C 9974   9.178   9.979   5.094 -0.3265  0.1684 -0.3713
  834MOL0     C 9975   9.097   9.906   5.169  0.2269  0.1244 -0.1002
  834MOL0     C 9976   8.986   9.824   5.115 -0.5450  0.5284  0.8870
  834MOL0     C 9977   8.858   9.847   5.192 -0.2721 -0.2967 -0.0127
  834MOL0     C 9978   8.830   9.995   5.206 -0.3555  0.9383 -0.6671
  834MOL0     C 9979   8.692  10.001   5.263  0.4030 -0.7057  0.0781
  834MOL0     O 9980   8.680   9.943   5.397 -0.3454  0.3170 -0.2621
  834MOL0     C 9981   8.559   9.920   5.455 -0.5156  0.5531  0.5407
  834MOL0     C 9982   8.571   9.844   5.571  0.6637  0.0866  0.0507
  834MOL0     C 9983   8.456   9.814   5.650  0.6577 -0.0985 -0.7908
  834MOL0     C 9984   8.325   9.867   5.606 -0.5192  0.4404  0.1421
  834MOL0     C 9985   8.209   9.853   5.683  0.6077  0.1979 -0.2791
  834MOL0     O 9986   8.129   9.962   5.696 -0.1335 -0.4814  0.0817
  834MOL0     C 9987   8.020   9.954   5.776  0.4376  0.0476 -0.7081
  834MOL0     C 9988   8.014  10.027   5.897  0.3005 -0.6061 -1.0196
  834MOL0     C 9989   7.893  10.029   5.969 -0.2990 -1.0153 -0.0550
  834MOL0     C 9990   7.782   9.958   5.930 -0.3775 -0.6751 -0.2967
  834MOL0     O 9991   7.669   9.966   6.002 -0.2206  0.5495  0.6715
  834MOL0     C 9992   7.553   9.903   5.953 -0.0943 -0.1344 -0.2653
  834MOL0     C 9993   7.427   9.953   6.037  0.0394 -0.5047  1.2850
  834MOL0     C 9994   7.297   9.870   6.001 -0.4686 -0.3323 -1.1888
  834MOL0     C 9995   7.195   9.913   6.108  0.0329  0.7125  0.0033
  834MOL0     C 9996   7.056   9.844   6.082  0.2299  0.0765  1.2194
  834MOL0     C 9997   6.937   9.921   6.136  0.8932 -0.0843 -0.4702
  834MOL0     C 9998   6.884  10.017   6.033  0.2812  0.2147  0.1761
  834MOL0     C 9999   6.780  10.111   6.103 -0.5245  0.3880 -0.2047
  834MOL0    Cl10000   6.850  10.227   6.215  0.0788 -0.3147 -0.2407
  834MOL0     C10001   7.795   9.875   5.816  0.3345  0.7046  0.0064
  834MOL0     C10002   7.909   9.867   5.741  1.2138  0.2923 -0.0208
  834MOL0     O10003   8.191   9.745   5.740  0.2528  0.1967 -0.7358
  834MOL0     C10004   8.318   9.936   5.480  0.4757 -0.0618 -0.9892
  834MOL0     C10005   8.433   9.962   5.413  0.0670 -0.2992 -0.3007
  834MOL0     N10006   9.152   9.916   5.305 -0.8424 -0.6402  0.6088
  834MOL0     N10007   9.264   9.973   5.298 -0.3500  0.9642  0.1072
  834MOL0     C10008  10.312  10.173   4.813 -0.2041  0.9909  0.7645
  834MOL0     C10009  10.437  10.117   4.863  0.1334 -1.1221 -0.4294
  834MOL0     C10010  10.747   9.984   5.204 -0.6611 -0.3039 -0.0176
  834MOL0     C10011  10.849   9.988   5.102 -0.7487  0.5672 -0.3921
  834MOL0     C10012  10.971   9.930   5.118  0.3036  1.0596  0.5633
  834MOL0     C10013  11.011   9.880   5.241  0.3529 -0.5521 -0.0137
  834MOL0     O10014  11.140   9.825   5.244  0.5014 -0.4195 -0.4311
  834MOL0     C10015  11.169   9.732   5.350 -0.2180 -0.2863  0.7687
  834MOL0     C10016  11.325   9.708   5.355  0.0373  0.6936 -0.4771
  834MOL0     C10017  11.397   9.834   5.341 -0.0570 -0.5731  0.3507
  834MOL0     C10018  11.425   9.882   5.197  0.2814  0.8590  0.0095
  834MOL0     C10019  11.528   9.972   5.201 -0.5464  0.7629 -0.0757
  834MOL0     C10020  11.626  10.044   5.211  1.2499 -0.0691  0.7329
  834MOL0     C10021  10.923   9.894   5.349  0.0388  0.3535 -0.0495
  834MOL0     C10022  10.788   9.934   5.327 -0.2101  0.3097 -0.2648
  834MOL0     H10023  10.319   9.997   5.158  0.1726  0.8456  0.0573
  834MOL0     H10024  10.105  10.067   5.056  0.3185 -2.0131 -1.3723
  834MOL0     H10025  10.043  10.031   4.728  3.3568  1.2159  1.2194
  834MOL0     H10026  10.099  10.170   4.628 -0.5039  2.8874 -0.3230
  834MOL0     H10027   9.862  10.088   4.594  1.7708 -0.3391 -0.6220
  834MOL0     H10028   9.854  10.254   4.642 -2.1856 -1.5967 -1.5307
  834MOL0     H10029   9.844  10.037   4.859  0.0577  1.5201  1.7322
  834MOL0     H10030   9.711  10.053   4.752  0.4682 -1.7975  0.1871
  834MOL0     H10031   9.860  10.276   4.915  2.9289 -1.1235 -5.1422
  834MOL0     H10032   9.714  10.312   4.821  0.9847  1.0748  1.5774
  834MOL0     H10033   9.647  10.300   5.059 -0.3832  0.4296 -0.0446
  834MOL0     H10034   9.668  10.125   5.058  0.1221 -0.3316 -0.7424
  834MOL0     H10035   9.528  10.096   4.863  1.4770 -0.1575 -0.1720
  834MOL0     H10036   9.501  10.274   4.853  0.5344  1.2679  0.7725
  834MOL0     H10037   9.391  10.261   5.083 -1.5621 -0.5363  0.7338
  834MOL0     H10038   9.322  10.156   4.954  0.8026  0.2814 -2.0184
  834MOL0     H10039   9.475  10.088   5.204 -0.5978 -2.2774  1.0899
  834MOL0     H10040   9.468   9.962   5.091 -0.0025 -0.3615 -0.4496
  834MOL0     H10041   9.178   9.989   4.986 -0.2171  0.2174 -0.3664
  834MOL0     H10042   9.011   9.718   5.125 -1.1257  0.6338  4.9697
  834MOL0     H10043   8.976   9.853   5.010  3.6484 -2.3832 -0.6044
  834MOL0     H10044   8.858   9.809   5.294  0.2108  2.2026  0.9885
  834MOL0     H10045   8.778   9.798   5.136  2.2609 -2.0188 -2.4198
  834MOL0     H10046   8.897  10.059   5.265 -2.1727  1.6850  0.6839
  834MOL0     H10047   8.834  10.042   5.108 -0.5319  0.8893 -0.6983
  834MOL0     H10048   8.626   9.956   5.189  0.2767  3.4628 -2.6870
  834MOL0     H10049   8.661  10.106   5.259 -1.9281 -1.3528 -0.8097
  834MOL0     H10050   8.670   9.801   5.582  0.4837 -0.0254  1.4197
  834MOL0     H10051   8.465   9.741   5.730  0.5800  1.1043  0.3538
  834MOL0     H10052   8.090  10.093   5.936  0.7125 -1.6895  0.0825
  834MOL0     H10053   7.871  10.105   6.044  1.1049 -2.1948  1.6395
  834MOL0     H10054   7.556   9.793   5.958 -0.9641 -0.1726 -0.3195
  834MOL0     H10055   7.532   9.933   5.850 -2.6215  1.7987  0.7159
  834MOL0     H10056   7.416  10.060   6.017  1.1225 -0.5505  0.3102
  834MOL0     H10057   7.449   9.952   6.144 -3.8974 -1.5772  2.2756
  834MOL0     H10058   7.323   9.766   6.023  0.6009  0.5911  2.7782
  834MOL0     H10059   7.260   9.891   5.900 -0.2038  1.8165 -0.9018
  834MOL0     H10060   7.237   9.902   6.208 -0.8029 -2.8343  0.0980
  834MOL0     H10061   7.172  10.018   6.090 -3.0790  0.0831 -0.2640
  834MOL0     H10062   7.073   9.748   6.133 -2.5976  0.5584  3.3261
  834MOL0     H10063   7.034   9.827   5.976  2.3547  2.7116  0.2389
  834MOL0     H10064   6.987   9.980   6.212  0.4800 -1.3581  0.8435
  834MOL0     H10065   6.857   9.859   6.180  1.8276 -1.6754 -0.9340
  834MOL0     H10066   6.971  10.075   6.001  1.9714 -1.5375  1.3325
  834MOL0     H10067   6.823   9.968   5.958 -1.1936 -0.8185  1.9684
  834MOL0     H10068   6.718  10.049   6.167  2.3655 -1.7013  0.7699
  834MOL0     H10069   6.713  10.161   6.032 -1.6596  0.2192  0.7209
  834MOL0     H10070   7.711   9.813   5.785  2.5439 -1.3756 -2.2470
  834MOL0     H10071   7.911   9.803   5.653  0.4993 -0.6330  0.6267
  834MOL0     H10072   8.227   9.987   5.450 -1.9423 -2.5356  1.5182
  834MOL0     H10073   8.417  10.014   5.319 -0.2243 -0.7158 -0.4875
  834MOL0     H10074  10.315  10.222   4.715  3.0227  0.0041  0.2579
  834MOL0     H10075  10.531  10.131   4.810 -0.2539 -1.7177 -1.2841
  834MOL0     H10076  10.822  10.011   5.000  0.5397 -0.6661 -1.0357
  834MOL0     H10077  11.040   9.921   5.035 -1.3466 -0.4474 -0.7328
  834MOL0     H10078  11.112   9.641   5.329  0.9147 -1.3087  1.9997
  834MOL0     H10079  11.139   9.777   5.445  0.7181  2.1080  0.0159
  834MOL0     H10080  11.339   9.662   5.453 -2.6384  0.0081 -0.3255
  834MOL0     H10081  11.364   9.642   5.277 -2.3197  1.3295 -2.2925
  834MOL0     H10082  11.497   9.823   5.382  1.1963  0.7300 -2.1244
  834MOL0     H10083  11.339   9.909   5.397 -2.0328 -1.8014  0.0559
  834MOL0     H10084  11.453   9.791   5.142  2.2550  1.0766  0.5503
  834MOL0     H10085  11.340   9.927   5.146 -2.1211  0.2650  3.2098
  834MOL0     H10086  11.715  10.102   5.225  2.5148 -2.2058  2.3079
  834MOL0     H10087  10.949   9.873   5.452  0.0159  2.4656  0.4300
  834MOL0     H10088  10.716   9.919   5.406  0.4088  2.4574  0.7744
  835MOL0     O10089   2.608   3.421   5.299 -0.1719  1.0985 -0.1067
  835MOL0     C10090   2.654   3.448   5.408 -0.3561  0.1758 -0.5277
  835MOL0     O10091   2.587   3.504   5.515 -0.4606  0.0707 -0.5150
  835MOL0     C10092   2.454   3.527   5.507  0.1647 -0.0492  0.5732
  835MOL0     C10093   2.392   3.593   5.402  0.1673 -0.4767  0.3273
  835MOL0     C10094   2.251   3.618   5.406 -0.2470  0.7648  0.2720
  835MOL0     C10095   2.174   3.594   5.523 -0.3827 -1.3229 -0.0561
  835MOL0     O10096   2.040   3.615   5.533  0.1422 -0.4756 -0.2716
  835MOL0     C10097   1.983   3.708   5.431 -0.7442 -0.6862  0.6524
  835MOL0     C10098   1.830   3.725   5.450 -0.1215 -0.8113  0.7197
  835MOL0     C10099   1.767   3.807   5.338  0.4344  0.7420 -0.2031
  835MOL0     C10100   1.630   3.859   5.381  0.4307  0.6276  0.0286
  835MOL0     C10101   1.576   3.936   5.258 -0.4989 -0.6093  0.0711
  835MOL0     C10102   1.483   4.042   5.304  0.4608 -0.2264  0.1724
  835MOL0     C10103   1.366   3.993   5.377  0.3697  0.2142 -0.6724
  835MOL0     C10104   1.300   4.106   5.458 -0.1119 -0.4322  0.4618
  835MOL0     N10105   1.245   4.216   5.370 -0.8946 -0.8561 -0.7651
  835MOL0     C10106   1.175   4.210   5.250 -0.4547  0.6577  0.5726
  835MOL0     C10107   1.129   4.330   5.211 -0.3312 -1.0484 -0.3583
  835MOL0     C10108   1.031   4.365   5.104 -0.1159  0.9936  0.5464
  835MOL0     C10109   0.896   4.401   5.168 -1.2260  0.4591 -0.1223
  835MOL0     C10110   0.789   4.435   5.066  0.0745  0.3068 -0.2771
  835MOL0     C10111   0.662   4.495   5.133 -1.2756  0.3477 -0.3490
  835MOL0     O10112   0.549   4.459   5.054 -0.8850 -0.0983 -0.8807
  835MOL0     C10113   0.425   4.519   5.081  0.1447 -0.3219 -0.2718
  835MOL0     C10114   0.404   4.622   5.172  0.0659  0.6988  0.2899
  835MOL0     C10115   0.280   4.668   5.209 -0.7313  0.6051 -0.0903
  835MOL0     C10116   0.168   4.622   5.141 -1.4818 -0.1504  0.4159
  835MOL0     C10117   0.039   4.675   5.179  0.6041  0.5359 -0.6415
  835MOL0     O10118  -0.059   4.656   5.092 -0.1565  0.2319  0.4818
  835MOL0     C10119  -0.189   4.674   5.127  0.4943  0.4904 -0.8448
  835MOL0     C10120  -0.233   4.801   5.147  0.2644  0.3424  0.4074
  835MOL0     C10121  -0.363   4.821   5.204 -0.4073  0.1669  0.5781
  835MOL0     C10122  -0.450   4.715   5.219 -0.1917 -0.0128 -0.0804
  835MOL0     O10123  -0.580   4.749   5.267  0.0462  0.5988  0.1091
  835MOL0     C10124  -0.687   4.655   5.242 -0.5400 -0.9859  0.6174
  835MOL0     C10125  -0.820   4.724   5.284  0.1830  0.6123  0.2998
  835MOL0     C10126  -0.869   4.837   5.188 -0.4450 -0.3825  0.0437
  835MOL0     C10127  -0.921   4.791   5.049 -0.1948 -0.3827 -0.4404
  835MOL0     C10128  -0.953   4.901   4.948  0.7637  0.1850 -0.1325
  835MOL0     C10129  -1.092   4.971   4.990 -0.1114 -0.0069 -0.2039
  835MOL0     C10130  -1.152   5.069   4.889 -0.4439  0.0660 -0.3382
  835MOL0     C10131  -1.286   5.112   4.932  0.0850 -0.4919  0.1209
  835MOL0    Cl10132  -1.314   5.235   4.796 -0.2787 -0.4552 -0.2402
  835MOL0     C10133  -0.405   4.582   5.195  0.0562  0.2573 -0.3580
  835MOL0     C10134  -0.275   4.563   5.145  0.4333 -0.1161  0.1057
  835MOL0     O10135   0.021   4.707   5.294  0.5306 -0.1518 -0.3656
  835MOL0     C10136   0.188   4.528   5.041  0.8730 -0.2068 -0.0030
  835MOL0     C10137   0.310   4.471   5.012  0.0667 -0.2500 -0.0685
  835MOL0     N10138   1.188   4.418   5.300 -0.3005  0.2549 -0.6362
  835MOL0     N10139   1.259   4.349   5.387 -0.5307  0.4871 -0.2683
  835MOL0     C10140   2.247   3.540   5.631  0.3130  0.0542 -0.2027
  835MOL0     C10141   2.381   3.506   5.626 -0.3821 -0.3291 -0.3006
  835MOL0     C10142   2.789   3.421   5.419  0.0816  0.1094  0.6610
  835MOL0     C10143   2.856   3.409   5.547 -0.5736 -0.2602  0.0272
  835MOL0     C10144   2.995   3.385   5.548 -0.3886 -0.4290 -0.2370
  835MOL0     C10145   3.070   3.374   5.428 -0.7517  0.2422 -0.2699
  835MOL0     O10146   3.213   3.369   5.447 -0.5253  0.6034 -0.2516
  835MOL0     C10147   3.303   3.404   5.336 -0.0483  0.4735 -0.4533
  835MOL0     C10148   3.376   3.275   5.281  0.7570  1.0775 -0.1452
  835MOL0     C10149   3.419   3.302   5.139 -0.2114 -0.5647  0.3239
  835MOL0     C10150   3.481   3.189   5.052 -0.1337 -0.3387  0.0568
  835MOL0     C10151   3.508   3.252   4.918 -0.8593  0.6964 -0.2750
  835MOL0     C10152   3.516   3.299   4.810  0.0113  0.7355  0.4091
  835MOL0     C10153   3.009   3.384   5.303  0.5424  0.5667  0.0401
  835MOL0     C10154   2.869   3.414   5.297 -0.8902  0.4555 -0.2102
  835MOL0     H10155   2.452   3.622   5.317 -1.1885 -1.6721 -1.1041
  835MOL0     H10156   2.216   3.663   5.314 -0.6151 -0.8357 -0.4153
  835MOL0     H10157   2.011   3.687   5.327  0.0103 -0.4781  0.8080
  835MOL0     H10158   2.022   3.808   5.452 -0.9229 -0.9720  2.5035
  835MOL0     H10159   1.814   3.779   5.544 -0.8533 -2.8131  1.7933
  835MOL0     H10160   1.777   3.630   5.465 -1.0123 -0.4343  0.0675
  835MOL0     H10161   1.764   3.737   5.254  4.6419 -0.0953  0.1540
  835MOL0     H10162   1.833   3.884   5.297  2.6533 -1.9348 -2.0144
  835MOL0     H10163   1.567   3.774   5.409  1.9178 -1.4812 -2.5086
  835MOL0     H10164   1.637   3.925   5.468 -1.2365  1.5422 -0.4887
  835MOL0     H10165   1.525   3.864   5.193 -0.3974 -1.7429  1.2138
  835MOL0     H10166   1.655   3.991   5.206 -0.7484  0.5869  0.9263
  835MOL0     H10167   1.450   4.102   5.219  2.2314  1.0676  0.3534
  835MOL0     H10168   1.538   4.107   5.372 -0.3556  0.0810  0.5511
  835MOL0     H10169   1.288   3.944   5.317  0.8300  0.1892 -1.2518
  835MOL0     H10170   1.387   3.922   5.458 -2.5847 -1.4206 -1.1503
  835MOL0     H10171   1.388   4.139   5.513  1.2394 -0.7570 -1.4202
  835MOL0     H10172   1.215   4.068   5.515 -1.6324 -1.9645 -2.5950
  835MOL0     H10173   1.146   4.115   5.206  1.5325 -0.6780  1.9527
  835MOL0     H10174   1.021   4.279   5.037 -1.4999  1.8892 -0.4497
  835MOL0     H10175   1.063   4.451   5.045 -2.5346  1.5113 -0.1272
  835MOL0     H10176   0.905   4.496   5.221 -1.6993  0.9842 -0.9621
  835MOL0     H10177   0.848   4.324   5.229 -1.6511  0.5747 -0.3049
  835MOL0     H10178   0.815   4.506   4.987  0.5194  1.6702  1.0604
  835MOL0     H10179   0.766   4.339   5.019  3.3229 -1.6777  1.7706
  835MOL0     H10180   0.682   4.603   5.131  0.9139 -0.0226 -0.0335
  835MOL0     H10181   0.657   4.464   5.238  0.1815 -1.8855 -0.8762
  835MOL0     H10182   0.485   4.679   5.217 -1.1685  1.3210  1.8145
  835MOL0     H10183   0.271   4.751   5.279  2.4906  2.1556 -1.3015
  835MOL0     H10184  -0.180   4.893   5.122  0.5084 -0.1320 -0.8682
  835MOL0     H10185  -0.402   4.923   5.205  0.9884  1.0045 -4.2573
  835MOL0     H10186  -0.670   4.558   5.290 -0.4973 -2.2842 -1.8368
  835MOL0     H10187  -0.706   4.628   5.137 -0.9417  0.7309  0.2099
  835MOL0     H10188  -0.817   4.748   5.391 -1.3563 -1.4203  0.8692
  835MOL0     H10189  -0.902   4.651   5.282 -0.5096  1.3957 -0.6246
  835MOL0     H10190  -0.787   4.909   5.183 -0.9865  0.1961 -0.6937
  835MOL0     H10191  -0.950   4.894   5.234  1.3199  4.3369 -2.0386
  835MOL0     H10192  -0.842   4.726   5.010  0.1467  0.0324 -0.4472
  835MOL0     H10193  -1.016   4.740   5.065 -1.3366  1.7868 -0.0673
  835MOL0     H10194  -0.953   4.863   4.846  2.5859 -0.5791  0.1176
  835MOL0     H10195  -0.871   4.973   4.944  2.9217 -2.1774 -0.0258
  835MOL0     H10196  -1.081   5.032   5.080 -1.5073 -0.0399  0.0138
  835MOL0     H10197  -1.171   4.895   5.000 -2.3689  1.8191 -2.7166
  835MOL0     H10198  -1.081   5.152   4.885  1.3169 -1.4279 -1.9468
  835MOL0     H10199  -1.143   5.020   4.792  1.3046  0.0511 -0.2054
  835MOL0     H10200  -1.279   5.161   5.030 -1.2928  1.5154 -0.7142
  835MOL0     H10201  -1.345   5.020   4.926  2.0591 -1.9465  1.7178
  835MOL0     H10202  -0.461   4.492   5.218  2.5207 -1.5035 -0.8055
  835MOL0     H10203  -0.235   4.464   5.128  2.9880  1.2400 -2.7803
  835MOL0     H10204   0.096   4.494   4.995 -0.9578  2.9752  0.9587
  835MOL0     H10205   0.320   4.386   4.946 -0.4367 -2.1432  2.1806
  835MOL0     H10206   2.185   3.522   5.718  0.2584  0.1312 -0.2251
  835MOL0     H10207   2.441   3.471   5.710 -0.8284  1.8817  1.0140
  835MOL0     H10208   2.803   3.406   5.641  1.7928  1.0464  1.5086
  835MOL0     H10209   3.042   3.369   5.645  2.8519 -0.6440 -1.7122
  835MOL0     H10210   3.366   3.485   5.375  0.5754 -0.3862  0.3883
  835MOL0     H10211   3.247   3.452   5.255 -0.5772  1.3476  0.4103
  835MOL0     H10212   3.464   3.234   5.332  1.4479  2.5854 -0.0868
  835MOL0     H10213   3.296   3.199   5.283 -1.2853  2.9504 -2.9910
  835MOL0     H10214   3.484   3.388   5.119  0.9701 -1.3568  0.6143
  835MOL0     H10215   3.329   3.330   5.084  0.7691  0.3881 -0.8606
  835MOL0     H10216   3.585   3.169   5.082 -0.2097 -2.5836 -1.0064
  835MOL0     H10217   3.436   3.091   5.037  0.0856 -0.4996  0.4145
  835MOL0     H10218   3.538   3.336   4.712 -0.9386 -1.7926 -0.8654
  835MOL0     H10219   3.073   3.404   5.217  1.1274  0.2356  0.3893
  835MOL0     H10220   2.832   3.434   5.197 -0.3945 -0.7238 -0.6487
  836MOL0     O10221   0.734   4.989   2.137  0.1952 -0.0010  0.3193
  836MOL0     C10222   0.764   4.879   2.105  0.4178 -0.2901  0.2146
  836MOL0     O10223   0.679   4.793   2.035  0.0373 -0.5221 -0.1712
  836MOL0     C10224   0.550   4.840   2.026  0.0308  0.1841 -0.4077
  836MOL0     C10225   0.485   4.825   1.909 -0.2893  0.1739 -0.0552
  836MOL0     C10226   0.347   4.850   1.890  0.2503 -0.5111 -0.4705
  836MOL0     C10227   0.270   4.897   2.000  0.1831  0.2326  0.0315
  836MOL0     O10228   0.139   4.937   2.000 -0.0169 -0.6194  0.3026
  836MOL0     C10229   0.097   5.016   1.893 -0.2476 -0.3907  1.0666
  836MOL0     C10230  -0.056   5.051   1.895  0.4283  0.9870 -0.1214
  836MOL0     C10231  -0.139   4.917   1.885  0.2106  0.2196 -0.2494
  836MOL0     C10232  -0.285   4.946   1.920 -0.6986  0.8802 -0.1083
  836MOL0     C10233  -0.374   4.830   1.874  0.8152  0.0605  0.7991
  836MOL0     C10234  -0.518   4.862   1.905  0.4325 -0.1630  0.8052
  836MOL0     C10235  -0.615   4.743   1.870 -0.4352  0.4933 -0.0714
  836MOL0     C10236  -0.757   4.782   1.888 -0.6928  0.2587 -0.1143
  836MOL0     N10237  -0.836   4.664   1.870 -0.3626  0.2644 -0.0816
  836MOL0     C10238  -0.872   4.580   1.971  0.9658  0.8880  0.0803
  836MOL0     C10239  -0.977   4.503   1.922 -0.4163 -0.3242  0.6794
  836MOL0     C10240  -1.057   4.397   1.978  0.0069 -0.7725  0.1826
  836MOL0     C10241  -1.174   4.439   2.065 -0.2683 -0.3594  0.1744
  836MOL0     C10242  -1.249   4.323   2.123  0.1469  1.0246 -0.6028
  836MOL0     C10243  -1.388   4.360   2.161 -0.3232  0.5717 -0.0195
  836MOL0     O10244  -1.485   4.247   2.180  0.3946  0.1510 -0.1676
  836MOL0     C10245  -1.618   4.264   2.153 -0.5646  0.1684 -0.1554
  836MOL0     C10246  -1.670   4.370   2.077 -0.1334 -0.4937 -0.4479
  836MOL0     C10247  -1.806   4.385   2.068 -0.2756 -0.7712 -1.3422
  836MOL0     C10248  -1.899   4.295   2.129 -0.1305  0.2765  0.4445
  836MOL0     C10249  -2.039   4.320   2.142  0.5714 -0.4381 -0.5623
  836MOL0     O10250  -2.118   4.235   2.215 -0.4319  0.8684  0.4032
  836MOL0     C10251  -2.253   4.240   2.218 -0.2009  0.0512 -0.2640
  836MOL0     C10252  -2.316   4.204   2.337 -0.0527  0.6206 -0.0903
  836MOL0     C10253  -2.459   4.201   2.346 -0.5599 -0.2098 -0.6380
  836MOL0     C10254  -2.539   4.240   2.239 -0.0530  0.1664  0.7298
  836MOL0     O10255  -2.673   4.245   2.264  0.7538  0.2969 -0.1920
  836MOL0     C10256  -2.757   4.310   2.164 -0.7544  0.8110 -0.7080
  836MOL0     C10257  -2.897   4.310   2.218 -0.9850  0.3027  0.6422
  836MOL0     C10258  -2.981   4.411   2.140 -0.1692 -0.1696  0.4158
  836MOL0     C10259  -3.125   4.406   2.188 -0.5712  0.2869  0.2280
  836MOL0     C10260  -3.212   4.507   2.128  0.2622  0.1095  0.4685
  836MOL0     C10261  -3.254   4.486   1.973 -0.8375 -0.1524  0.2759
  836MOL0     C10262  -3.344   4.601   1.926 -0.1793  0.3941 -0.0178
  836MOL0     C10263  -3.484   4.598   1.982 -0.2221  0.5885  0.4127
  836MOL0    Cl10264  -3.566   4.737   1.904 -0.0191 -0.4149  0.1837
  836MOL0     C10265  -2.471   4.276   2.117 -0.1881  0.3436  0.0864
  836MOL0     C10266  -2.336   4.271   2.115  0.4596 -0.2954  0.3436
  836MOL0     O10267  -2.069   4.430   2.093  0.9138 -0.2942 -0.8279
  836MOL0     C10268  -1.842   4.182   2.201  0.5040  0.4399  0.5476
  836MOL0     C10269  -1.698   4.175   2.218  0.1394  0.4650  0.8065
  836MOL0     N10270  -0.992   4.539   1.791 -0.2852  0.1740 -0.5106
  836MOL0     N10271  -0.907   4.631   1.763  0.0703  0.0895 -0.1840
  836MOL0     C10272   0.331   4.899   2.124  0.8405  1.1957  0.3204
  836MOL0     C10273   0.467   4.883   2.141 -0.1137  0.3614 -0.1049
  836MOL0     C10274   0.906   4.823   2.130  1.0940  0.3105  0.0022
  836MOL0     C10275   0.993   4.900   2.215 -0.3313 -0.3708 -0.6404
  836MOL0     C10276   1.123   4.861   2.244  0.1098  0.3780  0.0207
  836MOL0     C10277   1.177   4.752   2.173  0.3132 -0.0157 -0.3700
  836MOL0     O10278   1.308   4.706   2.177 -0.4459  0.0700 -0.0647
  836MOL0     C10279   1.427   4.792   2.208  0.5174  0.0955 -0.0895
  836MOL0     C10280   1.550   4.695   2.209  0.5026  0.6999  0.4192
  836MOL0     C10281   1.551   4.622   2.067 -0.3530 -0.1689  0.5389
  836MOL0     C10282   1.672   4.523   2.076  0.4281 -0.3145 -0.3019
  836MOL0     C10283   1.718   4.461   1.954 -0.8828 -0.3304 -0.2283
  836MOL0     C10284   1.769   4.407   1.854 -0.1331 -0.5297 -1.0837
  836MOL0     C10285   1.094   4.677   2.090  0.2692 -0.5027 -0.6192
  836MOL0     C10286   0.960   4.709   2.069 -0.1297  0.4022 -0.1332
  836MOL0     H10287   0.535   4.773   1.828 -0.6753 -2.4053  1.2504
  836MOL0     H10288   0.301   4.839   1.793 -0.8799 -2.1236  0.2006
  836MOL0     H10289   0.106   4.966   1.796 -3.1792  1.0731 -0.0762
  836MOL0     H10290   0.167   5.099   1.881  1.1754 -1.5371  1.0340
  836MOL0     H10291  -0.073   5.106   1.802  1.7609 -0.2401 -1.1307
  836MOL0     H10292  -0.076   5.114   1.983  1.7666 -0.8618  1.6072
  836MOL0     H10293  -0.099   4.848   1.960  1.9243  0.2429 -1.0983
  836MOL0     H10294  -0.123   4.875   1.786  0.5451  1.7139 -0.8629
  836MOL0     H10295  -0.275   4.946   2.028  3.8978 -1.5818 -0.2887
  836MOL0     H10296  -0.320   5.041   1.878 -0.3306  0.8682 -0.4421
  836MOL0     H10297  -0.349   4.739   1.930  0.7493 -0.4717 -0.0205
  836MOL0     H10298  -0.363   4.808   1.767  0.2529  0.2186  0.7068
  836MOL0     H10299  -0.551   4.951   1.851 -0.1008  0.4626  2.1146
  836MOL0     H10300  -0.522   4.869   2.014  2.3190  1.0358  0.8435
  836MOL0     H10301  -0.598   4.724   1.763  1.8610  2.6803 -0.2044
  836MOL0     H10302  -0.584   4.662   1.936 -1.0692 -1.4608 -2.0387
  836MOL0     H10303  -0.773   4.861   1.814 -0.8567 -1.0044 -1.4511
  836MOL0     H10304  -0.779   4.839   1.979  0.2446  2.7510 -1.3309
  836MOL0     H10305  -0.833   4.564   2.071  0.8935 -2.9072 -0.3739
  836MOL0     H10306  -0.990   4.335   2.038  2.2125  2.1128  0.9292
  836MOL0     H10307  -1.103   4.344   1.894  0.6075  0.9007 -1.2634
  836MOL0     H10308  -1.223   4.510   1.997  3.2387  0.3732 -1.8472
  836MOL0     H10309  -1.136   4.502   2.146  1.4672  2.7404 -2.7812
  836MOL0     H10310  -1.235   4.242   2.051  3.1477  0.9117 -0.0109
  836MOL0     H10311  -1.186   4.298   2.208  0.7414 -0.0547 -1.3373
  836MOL0     H10312  -1.429   4.416   2.076 -0.2727 -2.4887 -2.2436
  836MOL0     H10313  -1.384   4.424   2.249  3.8477 -1.7729  1.7844
  836MOL0     H10314  -1.624   4.461   2.039 -2.6715  0.5031 -1.3533
  836MOL0     H10315  -1.848   4.481   2.042 -1.7990 -1.1652 -0.4301
  836MOL0     H10316  -2.267   4.155   2.420  0.9755  0.6133 -0.6773
  836MOL0     H10317  -2.499   4.172   2.442  3.6947 -0.8806  1.1488
  836MOL0     H10318  -2.750   4.249   2.074  1.0067 -0.0502 -0.0344
  836MOL0     H10319  -2.716   4.409   2.145 -2.3083  1.4158 -1.0359
  836MOL0     H10320  -2.887   4.338   2.324 -1.0149  1.9636  0.2423
  836MOL0     H10321  -2.942   4.211   2.206  1.2318 -0.7866  0.8189
  836MOL0     H10322  -2.981   4.374   2.037  1.8309 -1.3576  0.7718
  836MOL0     H10323  -2.940   4.512   2.146  0.6689 -0.4996  0.3761
  836MOL0     H10324  -3.165   4.305   2.174  0.9286 -0.7239  2.4707
  836MOL0     H10325  -3.129   4.425   2.296  0.8818  0.3299  0.2920
  836MOL0     H10326  -3.173   4.608   2.141 -5.1486  2.5599  0.2698
  836MOL0     H10327  -3.306   4.496   2.183 -0.2173 -0.5271 -0.4420
  836MOL0     H10328  -3.298   4.387   1.956 -2.4444  1.0234 -3.2389
  836MOL0     H10329  -3.164   4.503   1.913 -1.6053 -2.8562 -1.8279
  836MOL0     H10330  -3.295   4.693   1.958  0.7525 -0.2286  0.3678
  836MOL0     H10331  -3.360   4.612   1.819 -1.3385  4.5975  0.4032
  836MOL0     H10332  -3.484   4.594   2.091  1.6653 -0.8728  0.4252
  836MOL0     H10333  -3.537   4.506   1.956 -0.1521  0.7168 -0.2059
  836MOL0     H10334  -2.527   4.317   2.034 -0.4459 -1.7048 -0.8136
  836MOL0     H10335  -2.290   4.306   2.022 -0.5570 -0.5948 -0.2856
  836MOL0     H10336  -1.906   4.105   2.242  1.3345 -0.0044  1.0225
  836MOL0     H10337  -1.654   4.096   2.278  0.3487 -0.0601 -0.0197
  836MOL0     H10338   0.282   4.928   2.217 -0.3964  1.6302 -0.4440
  836MOL0     H10339   0.520   4.895   2.235  1.7677 -3.2131 -0.5324
  836MOL0     H10340   0.951   4.989   2.261  3.0992  1.3922 -0.5679
  836MOL0     H10341   1.191   4.912   2.313  2.0153 -2.3700  0.3374
  836MOL0     H10342   1.424   4.842   2.305  2.7405  0.7065 -0.2727
  836MOL0     H10343   1.443   4.875   2.139  2.5848  1.7297  2.1725
  836MOL0     H10344   1.646   4.747   2.219 -0.5918  4.0604 -3.7032
  836MOL0     H10345   1.534   4.616   2.284  1.0690  2.1317  2.1186
  836MOL0     H10346   1.552   4.705   1.996  1.3297 -0.6593 -0.0644
  836MOL0     H10347   1.463   4.559   2.056  0.8588 -1.6950 -1.1261
  836MOL0     H10348   1.758   4.584   2.105 -0.0620  0.0624  0.4002
  836MOL0     H10349   1.648   4.451   2.154 -0.2309 -1.6283 -1.6807
  836MOL0     H10350   1.811   4.354   1.771 -2.2280  0.4395 -2.8752
  836MOL0     H10351   1.146   4.587   2.058  3.8381  0.9210  0.5971
  836MOL0     H10352   0.913   4.658   1.986  1.4460  2.1032 -2.1751
  837MOL0     O10353   3.586   5.195   0.900 -0.2590 -0.0516 -0.1929
  837MOL0     C10354   3.563   5.155   0.793 -0.4356 -0.7963 -0.1901
  837MOL0     O10355   3.442   5.114   0.739  0.8210  0.0540 -0.1904
  837MOL0     C10356   3.334   5.104   0.826 -0.0711  0.0817  0.4052
  837MOL0     C10357   3.229   5.193   0.809  0.0544  0.0760  0.1890
  837MOL0     C10358   3.116   5.181   0.884  0.4468 -0.7420  0.0788
  837MOL0     C10359   3.114   5.095   0.991  0.5515 -0.1060  1.1029
  837MOL0     O10360   3.004   5.070   1.072 -0.5602 -0.1218  0.1206
  837MOL0     C10361   2.887   5.160   1.078  0.0455  0.1603 -0.4216
  837MOL0     C10362   2.807   5.162   1.218 -0.3862  0.1089  0.6205
  837MOL0     C10363   2.679   5.242   1.200 -0.1922  0.1430  0.2277
  837MOL0     C10364   2.595   5.268   1.318  0.6484 -0.2674  0.1141
  837MOL0     C10365   2.462   5.321   1.265  0.0059  0.4237  0.7002
  837MOL0     C10366   2.373   5.356   1.379  0.7394 -0.2191  0.0093
  837MOL0     C10367   2.236   5.405   1.326  0.2621 -0.1932  0.4101
  837MOL0     C10368   2.182   5.529   1.392  0.2549 -0.4403  1.0158
  837MOL0     N10369   2.047   5.557   1.325  1.0641  0.8095  1.7061
  837MOL0     C10370   2.022   5.587   1.190 -0.0770  0.1866 -0.4709
  837MOL0     C10371   1.893   5.640   1.180  0.1292  0.3522 -0.2140
  837MOL0     C10372   1.822   5.675   1.044 -0.1567  0.9060  0.1683
  837MOL0     C10373   1.689   5.742   1.063  0.4385 -0.0272  0.6801
  837MOL0     C10374   1.698   5.874   1.127  0.3510 -0.9586 -0.2685
  837MOL0     C10375   1.567   5.947   1.138  0.2634 -0.1369 -0.1890
  837MOL0     O10376   1.519   5.970   1.006  0.0109  0.1360  0.1909
  837MOL0     C10377   1.386   5.981   0.981 -0.6295 -0.5357 -0.4294
  837MOL0     C10378   1.348   5.957   0.857  0.7012 -0.1337 -0.4010
  837MOL0     C10379   1.212   5.970   0.817 -0.5750 -0.2234  0.1014
  837MOL0     C10380   1.114   6.001   0.913 -0.0645  0.5791  0.5142
  837MOL0     C10381   0.968   5.997   0.875 -0.0426 -0.4475  0.1955
  837MOL0     O10382   0.882   5.980   0.971 -0.6563  0.0335 -0.4128
  837MOL0     C10383   0.747   5.996   0.949 -0.6283 -0.4211  0.2591
  837MOL0     C10384   0.691   6.104   0.875  0.2607 -0.0392  0.6142
  837MOL0     C10385   0.548   6.116   0.874  0.1012 -0.0206  0.1400
  837MOL0     C10386   0.470   6.027   0.951  0.5055  0.1962 -0.9654
  837MOL0     O10387   0.331   6.042   0.960  0.2513  0.3749  0.6953
  837MOL0     C10388   0.250   5.921   0.939 -0.2141 -0.9049 -0.3977
  837MOL0     C10389   0.109   5.963   0.911 -0.2497 -0.0712  0.3212
  837MOL0     C10390   0.043   5.830   0.862 -0.5914  0.3973  0.0703
  837MOL0     C10391  -0.110   5.841   0.859 -0.0494 -1.0532 -0.8750
  837MOL0     C10392  -0.162   5.859   1.010  0.5599 -0.1555  0.9072
  837MOL0     C10393  -0.154   5.724   1.083  0.5741 -0.2453 -0.1294
  837MOL0     C10394  -0.236   5.711   1.213 -0.3137 -0.6723  0.1686
  837MOL0     C10395  -0.173   5.799   1.321  0.1070  0.6171 -0.2292
  837MOL0    Cl10396  -0.002   5.764   1.354  0.2056  0.0351  0.0166
  837MOL0     C10397   0.533   5.933   1.031  0.3788  0.7413  0.5492
  837MOL0     C10398   0.669   5.915   1.032 -0.3138  0.4711  0.0155
  837MOL0     O10399   0.939   6.022   0.760 -0.0604 -0.3317  0.0679
  837MOL0     C10400   1.155   6.021   1.044  0.3206 -0.7503 -0.4483
  837MOL0     C10401   1.288   6.019   1.071  0.1176 -0.0380  0.3464
  837MOL0     N10402   1.842   5.620   1.306  0.3341 -0.8897  0.4571
  837MOL0     N10403   1.928   5.572   1.385  0.0449  0.4161  0.8543
  837MOL0     C10404   3.224   5.005   1.005  0.7689  0.2509 -0.4393
  837MOL0     C10405   3.332   5.012   0.921  0.5420 -1.1396  1.3135
  837MOL0     C10406   3.676   5.140   0.702  0.1281  0.1429 -0.3044
  837MOL0     C10407   3.787   5.225   0.705 -0.4887  0.4337 -0.1090
  837MOL0     C10408   3.895   5.216   0.620  0.8297 -0.0011 -0.0179
  837MOL0     C10409   3.898   5.131   0.519  0.3332 -0.5132  0.5597
  837MOL0     O10410   3.997   5.122   0.431 -0.4719  0.6515  0.3385
  837MOL0     C10411   4.091   5.233   0.427 -0.5118 -1.1990  0.3993
  837MOL0     C10412   4.184   5.218   0.310 -1.2787 -0.4557 -0.9990
  837MOL0     C10413   4.266   5.343   0.288  0.2062 -0.8201 -0.5453
  837MOL0     C10414   4.394   5.312   0.207  0.2646 -1.2629  0.7784
  837MOL0     C10415   4.519   5.378   0.248  0.1160 -0.2120 -0.1180
  837MOL0     C10416   4.615   5.451   0.275 -0.2438  0.4864 -0.1487
  837MOL0     C10417   3.788   5.037   0.509 -0.1887  1.3911  0.6901
  837MOL0     C10418   3.676   5.041   0.602  0.1365  0.4451  0.6274
  837MOL0     H10419   3.228   5.260   0.723 -0.4441  0.4299  0.4678
  837MOL0     H10420   3.026   5.233   0.855  0.1388 -0.8046  0.8874
  837MOL0     H10421   2.821   5.118   1.002 -0.6602 -0.6507  0.5965
  837MOL0     H10422   2.931   5.258   1.058 -0.8788  0.6689 -0.0202
  837MOL0     H10423   2.870   5.197   1.300 -0.9300 -0.6110  1.3734
  837MOL0     H10424   2.775   5.062   1.251  0.7577 -1.0810 -1.6287
  837MOL0     H10425   2.614   5.201   1.122 -1.4379  0.2004  1.1976
  837MOL0     H10426   2.715   5.340   1.167 -1.2845  0.6727  0.5373
  837MOL0     H10427   2.584   5.168   1.361  1.6809  0.6084  2.6446
  837MOL0     H10428   2.624   5.338   1.397 -2.0217  1.7079 -0.5081
  837MOL0     H10429   2.416   5.243   1.203 -0.4674 -0.5150  2.1625
  837MOL0     H10430   2.479   5.413   1.208  2.4915  0.1006  0.8383
  837MOL0     H10431   2.419   5.438   1.436  0.2440  0.7503 -0.9304
  837MOL0     H10432   2.355   5.275   1.450  0.5669 -0.1356  0.0615
  837MOL0     H10433   2.250   5.421   1.219  0.1539 -0.2821  0.3832
  837MOL0     H10434   2.165   5.323   1.328  0.0734 -0.0328  0.3097
  837MOL0     H10435   2.244   5.616   1.368  1.6019 -1.4138  0.7983
  837MOL0     H10436   2.191   5.512   1.500 -1.9644 -1.3473  1.0971
  837MOL0     H10437   2.096   5.577   1.112  1.0198  0.3029  0.5137
  837MOL0     H10438   1.806   5.576   0.999 -0.1060  0.5972  0.8248
  837MOL0     H10439   1.884   5.726   0.971 -1.0750  1.1600 -0.4536
  837MOL0     H10440   1.625   5.666   1.108 -1.2176 -0.4582 -2.1684
  837MOL0     H10441   1.641   5.763   0.967  0.4820 -1.2974  0.3700
  837MOL0     H10442   1.734   5.859   1.230 -0.6415 -3.8019 -0.2543
  837MOL0     H10443   1.764   5.932   1.062 -2.2050  1.1911 -1.1444
  837MOL0     H10444   1.582   6.043   1.189  1.1139  0.7520 -1.9991
  837MOL0     H10445   1.486   5.890   1.184 -0.5183  0.1766 -1.1299
  837MOL0     H10446   1.425   5.931   0.784  1.1195  2.7187 -1.0855
  837MOL0     H10447   1.200   5.962   0.710 -4.1426 -1.1932  0.4468
  837MOL0     H10448   0.757   6.173   0.824 -1.0043 -0.0767 -1.1600
  837MOL0     H10449   0.504   6.194   0.813  0.6211 -0.4257 -0.7692
  837MOL0     H10450   0.259   5.857   1.027  3.0085 -0.0181  0.0617
  837MOL0     H10451   0.287   5.867   0.851 -1.3031  0.9543 -2.0979
  837MOL0     H10452   0.113   6.048   0.842 -0.0781 -0.7851 -0.5741
  837MOL0     H10453   0.068   6.000   1.005 -0.0143 -0.4212  0.5666
  837MOL0     H10454   0.060   5.754   0.940  0.1641  1.9666  1.4839
  837MOL0     H10455   0.098   5.796   0.774 -0.7970 -0.9182  0.4218
  837MOL0     H10456  -0.125   5.934   0.804 -0.1664 -2.1575 -2.7799
  837MOL0     H10457  -0.173   5.769   0.806 -1.9886 -1.5158  1.8061
  837MOL0     H10458  -0.267   5.889   1.014  0.4169  0.4051 -3.0266
  837MOL0     H10459  -0.109   5.934   1.070 -1.0970  0.3103  1.8350
  837MOL0     H10460  -0.050   5.707   1.113  0.7836 -0.2788 -0.8529
  837MOL0     H10461  -0.181   5.647   1.010 -1.2274  2.8112 -2.9688
  837MOL0     H10462  -0.341   5.736   1.199 -0.9626 -3.4455 -0.5513
  837MOL0     H10463  -0.237   5.606   1.244 -1.1454 -1.5405 -2.5641
  837MOL0     H10464  -0.230   5.789   1.414  2.5612 -0.5025  1.2799
  837MOL0     H10465  -0.174   5.903   1.287  0.4760  0.5296 -0.5206
  837MOL0     H10466   0.462   5.870   1.084  0.3237 -0.2918 -0.6787
  837MOL0     H10467   0.716   5.838   1.092  0.6492 -0.3108 -1.6734
  837MOL0     H10468   1.086   6.033   1.127 -0.2241  1.0213 -1.1214
  837MOL0     H10469   1.327   6.053   1.167 -0.2595  0.1647  0.4301
  837MOL0     H10470   3.215   4.926   1.079  1.0158 -0.9330 -1.6210
  837MOL0     H10471   3.414   4.941   0.927  1.0222 -0.7973 -0.4291
  837MOL0     H10472   3.801   5.297   0.785  0.4552 -3.1973  3.2778
  837MOL0     H10473   3.981   5.282   0.627  1.1034  0.0894 -3.0464
  837MOL0     H10474   4.155   5.233   0.515  1.6969 -1.7137 -1.1357
  837MOL0     H10475   4.040   5.330   0.423  1.0068 -0.4238 -0.8585
  837MOL0     H10476   4.248   5.130   0.325  1.0476  1.5506  2.3835
  837MOL0     H10477   4.139   5.195   0.214  2.0454  0.6326 -2.9871
  837MOL0     H10478   4.295   5.396   0.378 -0.9379  0.9602 -1.1777
  837MOL0     H10479   4.208   5.413   0.226 -0.4537  2.7852  3.6498
  837MOL0     H10480   4.409   5.203   0.200  1.9024 -0.9752 -1.3502
  837MOL0     H10481   4.368   5.363   0.114  0.1413  0.9988  1.9981
  837MOL0     H10482   4.702   5.511   0.291 -0.3047  0.3484  0.7994
  837MOL0     H10483   3.804   4.964   0.430 -0.6114  0.8648  1.0896
  837MOL0     H10484   3.598   4.966   0.596  1.8807 -1.4543  0.6362
  838MOL0     O10485   8.234   1.641   2.670  0.4092  0.2964  1.0670
  838MOL0     C10486   8.348   1.625   2.703 -0.1292 -0.2710  0.0664
  838MOL0     O10487   8.395   1.533   2.795 -0.8460  0.4860 -0.2998
  838MOL0     C10488   8.321   1.471   2.891  0.4866  0.9240 -0.9534
  838MOL0     C10489   8.201   1.524   2.941  0.5040 -0.9320  1.3465
  838MOL0     C10490   8.135   1.463   3.037  0.3468  0.7433  0.6650
  838MOL0     C10491   8.176   1.353   3.104  0.3713  0.5683  0.2723
  838MOL0     O10492   8.095   1.296   3.196 -0.2203  0.2080 -0.0037
  838MOL0     C10493   8.140   1.186   3.269 -0.5215  1.0382 -0.1938
  838MOL0     C10494   8.207   1.225   3.401  0.5633 -0.4353 -0.9643
  838MOL0     C10495   8.122   1.309   3.497  0.6628 -0.1904  0.0680
  838MOL0     C10496   8.195   1.381   3.609  1.1034  0.7317 -0.7340
  838MOL0     C10497   8.101   1.463   3.691  0.1690 -0.0855  0.7944
  838MOL0     C10498   8.187   1.518   3.808 -0.5622 -0.3744 -0.6137
  838MOL0     C10499   8.284   1.636   3.782  0.2086  0.1962 -0.8460
  838MOL0     C10500   8.199   1.753   3.752  0.3261 -0.8146  0.3011
  838MOL0     N10501   8.137   1.811   3.876 -0.0114 -0.4378 -0.7594
  838MOL0     C10502   8.210   1.836   3.994  0.2791  0.0208  0.0688
  838MOL0     C10503   8.117   1.862   4.089 -1.1203  0.5158 -0.1149
  838MOL0     C10504   8.163   1.913   4.228 -0.3030 -0.6088  0.4298
  838MOL0     C10505   8.123   2.057   4.263  0.1114  0.9852  0.0176
  838MOL0     C10506   7.972   2.048   4.302  0.2235 -0.0954 -0.2946
  838MOL0     C10507   7.909   2.177   4.351  0.1518  0.3586  0.3255
  838MOL0     O10508   7.866   2.256   4.238 -0.6528  0.3553  0.3002
  838MOL0     C10509   7.762   2.339   4.270  0.2161  0.7281  0.3664
  838MOL0     C10510   7.651   2.332   4.188  0.7902  0.1179 -0.0375
  838MOL0     C10511   7.551   2.420   4.216  0.7176 -0.1439  0.0276
  838MOL0     C10512   7.562   2.521   4.306 -0.2607 -0.8055 -0.6464
  838MOL0     C10513   7.461   2.635   4.323 -0.2608  0.1006  0.5566
  838MOL0     O10514   7.493   2.742   4.409 -0.1685 -0.1646  0.2349
  838MOL0     C10515   7.420   2.857   4.412  1.3031 -0.2234 -0.7875
  838MOL0     C10516   7.393   2.927   4.295 -0.9917 -0.2598  0.3952
  838MOL0     C10517   7.316   3.050   4.295 -0.7105  0.2981  0.1415
  838MOL0     C10518   7.277   3.101   4.416  0.9115  0.1438  0.4524
  838MOL0     O10519   7.226   3.232   4.428 -0.5670 -0.4058  0.2671
  838MOL0     C10520   7.116   3.261   4.336 -0.1307 -0.3840  0.3631
  838MOL0     C10521   6.985   3.231   4.403 -0.9145 -0.3423  0.3583
  838MOL0     C10522   6.949   3.338   4.510 -0.4574  0.0916 -0.9026
  838MOL0     C10523   7.019   3.340   4.650  0.3173  0.3977 -0.2328
  838MOL0     C10524   6.950   3.451   4.739  0.1029 -0.1944  0.0679
  838MOL0     C10525   6.992   3.410   4.882 -0.1407 -0.1490 -0.5586
  838MOL0     C10526   7.123   3.474   4.926 -0.1668 -0.2549  0.2119
  838MOL0     C10527   7.148   3.483   5.077  0.3903 -0.3755 -0.4234
  838MOL0    Cl10528   7.303   3.563   5.123  0.0982 -0.0285 -0.4821
  838MOL0     C10529   7.306   3.032   4.534 -0.3683 -0.2388  0.4709
  838MOL0     C10530   7.377   2.914   4.533 -0.3668 -0.1402  0.3529
  838MOL0     O10531   7.359   2.631   4.257  0.0863  0.8220  0.0302
  838MOL0     C10532   7.680   2.522   4.388 -0.1324 -0.1720  0.0304
  838MOL0     C10533   7.773   2.430   4.373  0.2765  0.1389  0.5293
  838MOL0     N10534   7.995   1.851   4.031  0.1598  0.2333 -0.3416
  838MOL0     N10535   8.005   1.812   3.907  0.2260  0.2680 -0.8015
  838MOL0     C10536   8.304   1.300   3.065  0.2459  0.8483 -0.5725
  838MOL0     C10537   8.370   1.359   2.958  0.8955 -0.1783  0.3533
  838MOL0     C10538   8.448   1.691   2.626  0.0333  0.4601  0.0913
  838MOL0     C10539   8.585   1.698   2.665 -1.1659 -0.0130 -0.2457
  838MOL0     C10540   8.676   1.773   2.589  1.1597  0.1033  0.0177
  838MOL0     C10541   8.637   1.827   2.476 -0.1533 -0.3495 -0.2950
  838MOL0     O10542   8.732   1.896   2.398 -0.1390 -0.0497 -0.5035
  838MOL0     C10543   8.833   1.812   2.348  0.2151  0.6969  0.3410
  838MOL0     C10544   8.777   1.698   2.261  0.3637 -0.7207 -1.1998
  838MOL0     C10545   8.717   1.764   2.141 -0.5691  0.1821  0.3370
  838MOL0     C10546   8.705   1.670   2.019  0.3362  0.6956 -0.6521
  838MOL0     C10547   8.603   1.734   1.930  0.3133 -0.5455  0.8949
  838MOL0     C10548   8.519   1.759   1.848 -0.0112 -0.2907  1.1159
  838MOL0     C10549   8.502   1.836   2.439  0.6044  0.1025 -0.0410
  838MOL0     C10550   8.406   1.757   2.513  0.1478 -0.0812 -0.1114
  838MOL0     H10551   8.164   1.622   2.911 -1.2173 -1.2157  2.3502
  838MOL0     H10552   8.038   1.500   3.068 -0.9671 -3.0283  1.5541
  838MOL0     H10553   8.204   1.107   3.227 -2.2247 -1.5171  1.7189
  838MOL0     H10554   8.054   1.126   3.298  1.1374 -2.4597 -1.8635
  838MOL0     H10555   8.302   1.277   3.388  0.7399  0.0957  1.9405
  838MOL0     H10556   8.233   1.133   3.453  2.1919  0.3890 -0.2483
  838MOL0     H10557   8.037   1.252   3.537  0.1415 -0.2063 -1.0451
  838MOL0     H10558   8.088   1.398   3.445 -0.8203 -0.0207  1.2376
  838MOL0     H10559   8.227   1.292   3.664 -2.4873 -1.3941 -1.7514
  838MOL0     H10560   8.284   1.436   3.574  2.0298 -0.1103  0.2355
  838MOL0     H10561   8.030   1.404   3.750 -1.3302  0.5642 -0.2849
  838MOL0     H10562   8.055   1.537   3.624  1.2762 -2.9636 -3.5251
  838MOL0     H10563   8.243   1.434   3.851 -1.5089 -2.7137 -3.5672
  838MOL0     H10564   8.120   1.553   3.887 -0.2921 -0.6431 -0.2610
  838MOL0     H10565   8.337   1.654   3.876 -2.3808 -1.2491  1.0121
  838MOL0     H10566   8.351   1.615   3.698  0.0639  0.5940 -1.0624
  838MOL0     H10567   8.126   1.747   3.671  0.5269  1.9261 -0.1496
  838MOL0     H10568   8.267   1.833   3.722 -1.6693  0.2210 -1.7676
  838MOL0     H10569   8.318   1.848   4.004  0.2376 -0.7689  1.7693
  838MOL0     H10570   8.272   1.905   4.226 -0.2356 -0.9433  2.6860
  838MOL0     H10571   8.141   1.841   4.308 -0.6233  0.6374  1.5081
  838MOL0     H10572   8.136   2.113   4.169 -0.7893  0.6175 -0.3409
  838MOL0     H10573   8.185   2.102   4.341 -0.9312 -1.7334  2.5936
  838MOL0     H10574   7.912   2.012   4.218 -2.4727  2.7059  0.2547
  838MOL0     H10575   7.975   1.980   4.387  0.2761  0.2671 -0.0036
  838MOL0     H10576   7.985   2.236   4.402  0.0386  0.9384 -0.1685
  838MOL0     H10577   7.824   2.157   4.417  1.3845  2.3028  2.6413
  838MOL0     H10578   7.642   2.253   4.114 -1.1886  0.4850 -0.2357
  838MOL0     H10579   7.459   2.423   4.158 -0.1879  2.5358  1.4330
  838MOL0     H10580   7.431   2.886   4.203  1.5641  0.0116  1.2617
  838MOL0     H10581   7.295   3.107   4.206  2.9274  1.0823 -0.3847
  838MOL0     H10582   7.108   3.209   4.240 -2.2362  0.2690  0.1252
  838MOL0     H10583   7.119   3.362   4.295  2.9528 -1.3706 -2.2391
  838MOL0     H10584   6.987   3.133   4.450  0.9488 -1.6057 -2.0880
  838MOL0     H10585   6.910   3.247   4.325 -0.0499  2.4100 -0.0260
  838MOL0     H10586   6.842   3.324   4.529 -0.6816 -0.7230 -2.5827
  838MOL0     H10587   6.965   3.439   4.470 -1.3178  0.2258 -0.9311
  838MOL0     H10588   7.010   3.242   4.699 -0.3718  0.1616 -0.8170
  838MOL0     H10589   7.127   3.353   4.635  0.3104 -1.3988 -2.2289
  838MOL0     H10590   6.841   3.445   4.730  0.0090  1.8327 -0.7726
  838MOL0     H10591   6.978   3.552   4.708 -1.2623 -0.0623 -0.8176
  838MOL0     H10592   6.996   3.302   4.899 -0.0647  0.1525  1.5827
  838MOL0     H10593   6.908   3.447   4.942  1.2688  1.6051  0.4410
  838MOL0     H10594   7.192   3.416   4.864  0.0182 -2.0498  2.0022
  838MOL0     H10595   7.130   3.577   4.890  0.9370 -0.7445 -1.0498
  838MOL0     H10596   7.131   3.387   5.127  0.6423 -0.4707 -0.5199
  838MOL0     H10597   7.060   3.538   5.113 -0.2868 -1.2003 -0.7930
  838MOL0     H10598   7.282   3.072   4.632  2.6234  0.4151  1.0290
  838MOL0     H10599   7.413   2.872   4.626 -0.6733  1.7587  1.3983
  838MOL0     H10600   7.697   2.583   4.476  0.8699  0.0941 -0.3357
  838MOL0     H10601   7.857   2.404   4.437 -0.3785 -1.2940  0.8462
  838MOL0     H10602   8.339   1.212   3.118 -1.8414  0.6198  0.5084
  838MOL0     H10603   8.469   1.328   2.928  2.6351  2.7183  2.5274
  838MOL0     H10604   8.613   1.665   2.765 -0.1446  2.6944  0.4560
  838MOL0     H10605   8.778   1.781   2.625  1.3284 -0.7158 -0.2691
  838MOL0     H10606   8.880   1.751   2.426 -1.5218  1.2020  1.8414
  838MOL0     H10607   8.917   1.858   2.295  0.9295 -2.8804 -2.0050
  838MOL0     H10608   8.855   1.628   2.232  1.6711 -0.4168  1.2700
  838MOL0     H10609   8.708   1.643   2.326  1.8992  0.9836  2.0997
  838MOL0     H10610   8.779   1.852   2.126 -0.8100  0.6166  1.7561
  838MOL0     H10611   8.618   1.796   2.176 -1.4698  0.3114 -2.0975
  838MOL0     H10612   8.803   1.644   1.976  2.0480 -1.0264  3.7545
  838MOL0     H10613   8.660   1.577   2.056 -1.5652  2.5211  1.9476
  838MOL0     H10614   8.451   1.787   1.770 -4.0626 -1.1319  4.0265
  838MOL0     H10615   8.483   1.899   2.353 -0.4432 -1.3775 -0.9405
  838MOL0     H10616   8.302   1.765   2.481 -0.7838  3.2676  3.0143
  839MOL0     O10617   4.637  10.475   1.468  0.0233 -0.5720  0.2369
  839MOL0     C10618   4.698  10.494   1.574 -0.5461 -0.0559 -0.0150
  839MOL0     O10619   4.633  10.482   1.696 -0.0790 -0.0295  0.5077
  839MOL0     C10620   4.500  10.452   1.685 -0.7504  0.6059 -0.8407
  839MOL0     C10621   4.406  10.550   1.684  0.6408  0.3846  0.4660
  839MOL0     C10622   4.271  10.519   1.674  0.8383  0.3325  0.7840
  839MOL0     C10623   4.234  10.380   1.668 -0.5339  0.0107  0.2725
  839MOL0     O10624   4.098  10.374   1.634 -0.5898 -0.0905  0.0599
  839MOL0     C10625   4.035  10.247   1.601 -0.1788  0.8164  0.8189
  839MOL0     C10626   4.000  10.151   1.718  0.1822 -0.1210 -0.6233
  839MOL0     C10627   3.885  10.203   1.813 -0.2432  0.2341 -0.1140
  839MOL0     C10628   3.747  10.207   1.751 -0.0703  0.1489  0.1569
  839MOL0     C10629   3.650  10.245   1.860 -0.5769  1.2277  0.7498
  839MOL0     C10630   3.513  10.272   1.800  0.9222 -0.5716  0.7538
  839MOL0     C10631   3.418  10.315   1.916  0.0895  0.5883  0.7074
  839MOL0     C10632   3.295  10.402   1.881  0.2026  0.3928 -0.2862
  839MOL0     N10633   3.189  10.325   1.796  0.1131  0.1054  0.0233
  839MOL0     C10634   3.078  10.259   1.849  0.4516  0.1297 -0.6918
  839MOL0     C10635   3.027  10.177   1.755 -0.8666  0.4374  0.6241
  839MOL0     C10636   2.898  10.096   1.754 -0.6865 -0.3233 -0.0421
  839MOL0     C10637   2.922   9.949   1.793  0.0369  0.2786  0.6883
  839MOL0     C10638   2.801   9.865   1.749  0.2986  0.7530  0.3796
  839MOL0     C10639   2.800   9.735   1.827 -0.4292 -0.3845  0.4252
  839MOL0     O10640   2.701   9.641   1.767 -0.8165  0.1450 -0.1214
  839MOL0     C10641   2.637   9.566   1.861 -0.5478  0.2319  0.9028
  839MOL0     C10642   2.499   9.547   1.835 -1.5476 -0.5336 -0.3340
  839MOL0     C10643   2.418   9.473   1.923 -0.2637 -0.3997  0.8755
  839MOL0     C10644   2.473   9.423   2.039  0.1343 -0.4513 -1.4241
  839MOL0     C10645   2.377   9.353   2.134  0.2707 -0.3836 -0.5684
  839MOL0     O10646   2.271   9.287   2.075  0.1501 -0.1171 -0.0549
  839MOL0     C10647   2.178   9.215   2.145 -0.3641  0.6576 -0.1753
  839MOL0     C10648   2.213   9.126   2.241 -0.3352  0.9512  0.2674
  839MOL0     C10649   2.127   9.048   2.313  0.3847 -0.1914 -0.0101
  839MOL0     C10650   1.986   9.061   2.293  0.3740 -0.2749 -0.2254
  839MOL0     O10651   1.900   9.000   2.383 -0.3575  0.0259  0.1263
  839MOL0     C10652   1.769   9.054   2.383 -0.5418  0.2572  0.1377
  839MOL0     C10653   1.701   8.958   2.490  0.1312 -0.2926 -1.1167
  839MOL0     C10654   1.645   8.847   2.416  0.2321 -0.3804  0.1062
  839MOL0     C10655   1.561   8.758   2.504  0.4745 -0.1444 -0.4316
  839MOL0     C10656   1.513   8.628   2.448  0.8697  0.6803  0.9911
  839MOL0     C10657   1.419   8.539   2.534  0.9647 -0.0665 -0.6154
  839MOL0     C10658   1.381   8.413   2.458 -0.5222  0.3904  0.5295
  839MOL0     C10659   1.348   8.305   2.555  0.7096 -0.0250 -0.1162
  839MOL0    Cl10660   1.237   8.343   2.691  0.2610 -0.3692 -0.0836
  839MOL0     C10661   1.943   9.147   2.183  0.7385  0.0837  0.2185
  839MOL0     C10662   2.043   9.228   2.121 -0.1508 -1.2599  0.4064
  839MOL0     O10663   2.401   9.343   2.250 -0.0423 -0.0883 -0.5324
  839MOL0     C10664   2.602   9.457   2.071 -0.7168  1.1298 -0.2136
  839MOL0     C10665   2.693   9.519   1.985 -0.2939  0.4024 -0.1381
  839MOL0     N10666   3.103  10.194   1.643  0.1185 -0.5949  1.1075
  839MOL0     N10667   3.203  10.273   1.670  0.5814 -0.2701 -0.3112
  839MOL0     C10668   4.329  10.279   1.668  0.4739  0.3425  0.3862
  839MOL0     C10669   4.461  10.315   1.680 -0.1248  0.2896  0.1290
  839MOL0     C10670   4.832  10.553   1.572 -0.9837  0.8434  0.4868
  839MOL0     C10671   4.891  10.591   1.692  0.8855  0.2698 -0.5743
  839MOL0     C10672   5.020  10.640   1.696 -0.4077 -1.0862  0.6354
  839MOL0     C10673   5.085  10.669   1.579 -0.3701 -0.8509 -0.1563
  839MOL0     O10674   5.205  10.747   1.586  0.0949  0.1197  0.2986
  839MOL0     C10675   5.303  10.744   1.480  0.6669 -0.7942  0.7587
  839MOL0     C10676   5.442  10.779   1.531  0.3709 -0.1817  1.2920
  839MOL0     C10677   5.508  10.661   1.607  0.3801 -0.2242  0.8862
  839MOL0     C10678   5.650  10.689   1.648 -0.6215 -0.1470  0.3623
  839MOL0     C10679   5.709  10.560   1.694  0.2601 -0.1472  0.2965
  839MOL0     C10680   5.766  10.459   1.730 -0.3289  0.2339 -0.4734
  839MOL0     C10681   5.030  10.631   1.461 -0.0325  0.5656 -0.3031
  839MOL0     C10682   4.907  10.569   1.460 -0.6468 -0.1075 -0.4647
  839MOL0     H10683   4.411  10.658   1.670 -1.4487  0.4188 -0.3217
  839MOL0     H10684   4.205  10.604   1.658  1.8649  1.0676  0.2886
  839MOL0     H10685   4.092  10.189   1.527  0.6440 -0.7780  2.6234
  839MOL0     H10686   3.939  10.265   1.552  0.1487  1.8968  0.5477
  839MOL0     H10687   4.086  10.137   1.784 -0.0666  5.7117  1.4944
  839MOL0     H10688   3.972  10.057   1.669 -3.7082 -0.3733  1.6237
  839MOL0     H10689   3.920  10.301   1.848 -0.1448 -0.1103  0.7701
  839MOL0     H10690   3.880  10.140   1.902 -1.6727  1.7419  0.9332
  839MOL0     H10691   3.744  10.277   1.667  0.5224 -1.1571 -0.9904
  839MOL0     H10692   3.714  10.108   1.719  0.0490 -0.2544  1.2531
  839MOL0     H10693   3.680  10.339   1.907 -0.0014  2.0953 -1.2603
  839MOL0     H10694   3.630  10.161   1.927 -0.4010  0.7327  0.1959
  839MOL0     H10695   3.475  10.190   1.739 -0.3302 -0.6496  1.6055
  839MOL0     H10696   3.534  10.362   1.742  3.2148 -1.4465  0.1250
  839MOL0     H10697   3.373  10.232   1.971  0.7557 -0.6683 -0.5885
  839MOL0     H10698   3.484  10.373   1.981  2.3635 -0.1866 -0.7876
  839MOL0     H10699   3.328  10.490   1.825  0.0791  0.9320  0.4700
  839MOL0     H10700   3.254  10.425   1.980 -0.8894  0.0992 -0.6466
  839MOL0     H10701   3.024  10.259   1.943 -1.7562 -3.0552 -1.8000
  839MOL0     H10702   2.843  10.095   1.659 -0.1419  0.9200 -0.3856
  839MOL0     H10703   2.828  10.142   1.824 -1.6595 -1.1413 -0.4498
  839MOL0     H10704   2.936   9.929   1.899 -0.5264  1.1939  0.9464
  839MOL0     H10705   3.009   9.905   1.743 -0.1599  1.9691 -1.2924
  839MOL0     H10706   2.703   9.910   1.767 -0.6063 -0.9661 -0.0021
  839MOL0     H10707   2.804   9.843   1.642  0.7270  3.1910 -0.1798
  839MOL0     H10708   2.788   9.748   1.934 -1.4673  0.0988  0.2570
  839MOL0     H10709   2.902   9.699   1.807 -0.2011  1.0486 -1.2383
  839MOL0     H10710   2.454   9.566   1.738  3.3533  4.5075 -2.1779
  839MOL0     H10711   2.314   9.448   1.902  0.3413 -0.9830 -1.8624
  839MOL0     H10712   2.320   9.108   2.248 -0.3671  0.7677  0.2772
  839MOL0     H10713   2.158   8.990   2.400  2.4203  2.1940  0.9860
  839MOL0     H10714   1.722   9.033   2.286  1.5437 -1.7086 -0.5300
  839MOL0     H10715   1.769   9.160   2.409  1.5671 -0.3285  3.1237
  839MOL0     H10716   1.618   9.013   2.535  0.2832  0.7454 -2.0508
  839MOL0     H10717   1.774   8.921   2.562 -0.8073 -0.6226 -0.3126
  839MOL0     H10718   1.725   8.785   2.373  2.0036  1.1175  1.0879
  839MOL0     H10719   1.585   8.887   2.334  0.8706  3.7480  1.4324
  839MOL0     H10720   1.623   8.732   2.591  0.2566  0.3784 -0.1136
  839MOL0     H10721   1.479   8.817   2.546  0.0713  0.2153 -1.6863
  839MOL0     H10722   1.603   8.570   2.427  0.8641  0.8703  0.4280
  839MOL0     H10723   1.466   8.649   2.352  2.6613  1.1849  0.1952
  839MOL0     H10724   1.334   8.599   2.568  1.0035 -0.9508  1.1637
  839MOL0     H10725   1.472   8.521   2.628  0.0907  0.5956  0.0193
  839MOL0     H10726   1.298   8.443   2.393 -1.5222 -1.9411  0.6539
  839MOL0     H10727   1.469   8.385   2.399  0.0334 -0.0044  1.5269
  839MOL0     H10728   1.446   8.283   2.598  1.0117 -0.7530 -1.1445
  839MOL0     H10729   1.294   8.225   2.504 -3.2453 -0.9701  4.7218
  839MOL0     H10730   1.843   9.143   2.141  1.7415 -2.1854 -2.2486
  839MOL0     H10731   2.020   9.308   2.052  1.9140  1.4641  2.6539
  839MOL0     H10732   2.636   9.437   2.172  4.6988  2.4195 -1.4728
  839MOL0     H10733   2.798   9.533   2.006 -0.9160  1.4754  2.7462
  839MOL0     H10734   4.318  10.171   1.680 -0.4029  0.4940  0.9965
  839MOL0     H10735   4.540  10.240   1.688  0.8423  1.4403  4.4271
  839MOL0     H10736   4.845  10.570   1.788 -0.3513 -1.9275 -1.5718
  839MOL0     H10737   5.072  10.680   1.782  0.9455 -0.5152 -0.4056
  839MOL0     H10738   5.279  10.824   1.410 -1.8053  0.4962  2.8795
  839MOL0     H10739   5.297  10.648   1.428 -2.1473 -1.0962  1.4327
  839MOL0     H10740   5.505  10.799   1.444  0.7407 -1.8060  1.1482
  839MOL0     H10741   5.440  10.871   1.590  2.6694  2.2279 -2.0461
  839MOL0     H10742   5.506  10.574   1.541 -0.9625 -0.8509  1.7082
  839MOL0     H10743   5.451  10.622   1.692  2.0309 -2.8786  0.9223
  839MOL0     H10744   5.705  10.741   1.569 -0.6914  1.9006  1.6016
  839MOL0     H10745   5.656  10.750   1.738  1.7259 -0.7370  0.6839
  839MOL0     H10746   5.799  10.358   1.742  0.9507  0.8192  1.2990
  839MOL0     H10747   5.076  10.649   1.365 -1.2276 -0.2862 -1.0574
  839MOL0     H10748   4.869  10.527   1.368 -0.7849 -0.8792 -0.0704
  840MOL0     O10749   8.435  10.702   4.315 -0.1342  0.0820  0.4010
  840MOL0     C10750   8.457  10.818   4.280  0.3959  1.1497 -0.2876
  840MOL0     O10751   8.364  10.900   4.230 -0.5639 -0.0058  0.3940
  840MOL0     C10752   8.235  10.882   4.266 -0.4646 -1.0331 -0.6234
  840MOL0     C10753   8.193  10.848   4.394  0.0670  0.0537  0.0928
  840MOL0     C10754   8.055  10.837   4.422  0.1401  0.3088 -0.7845
  840MOL0     C10755   7.955  10.848   4.327 -0.3386 -0.4300  0.4987
  840MOL0     O10756   7.822  10.835   4.339  0.4933  0.0023 -0.2485
  840MOL0     C10757   7.767  10.889   4.468 -0.3693  0.3349  0.4723
  840MOL0     C10758   7.622  10.940   4.445  0.1727 -0.5034  0.0337
  840MOL0     C10759   7.526  10.831   4.479  0.5385 -0.1046  0.0626
  840MOL0     C10760   7.383  10.864   4.501  0.8027  0.2888  0.5972
  840MOL0     C10761   7.310  10.929   4.383 -0.3941 -0.5378  0.1325
  840MOL0     C10762   7.175  10.999   4.417  0.2075  0.7016  0.0677
  840MOL0     C10763   7.077  10.904   4.493  0.0877 -0.4378 -0.3338
  840MOL0     C10764   6.956  10.998   4.526  0.7199 -0.5762  0.3073
  840MOL0     N10765   6.836  10.922   4.569 -0.1638 -0.5178 -0.3840
  840MOL0     C10766   6.732  10.883   4.482  0.5018  0.3192 -0.6940
  840MOL0     C10767   6.657  10.790   4.554  0.6910 -0.7003  0.5623
  840MOL0     C10768   6.543  10.710   4.502  0.1870  0.0013  0.1542
  840MOL0     C10769   6.429  10.669   4.599 -0.0953 -0.1446 -0.0396
  840MOL0     C10770   6.364  10.778   4.683  0.9741  0.1385 -0.2609
  840MOL0     C10771   6.302  10.885   4.594  0.0545  0.0132 -0.1631
  840MOL0     O10772   6.213  10.843   4.488 -0.1451  0.3880  0.0847
  840MOL0     C10773   6.088  10.798   4.514 -0.6214  0.4963 -0.1332
  840MOL0     C10774   5.988  10.890   4.498  0.2379 -0.3543 -0.2752
  840MOL0     C10775   5.855  10.870   4.517 -0.2498  0.0706 -1.1632
  840MOL0     C10776   5.808  10.747   4.563 -1.2460  0.4067  0.4790
  840MOL0     C10777   5.667  10.732   4.602  0.0861 -0.1186  0.2104
  840MOL0     O10778   5.630  10.625   4.678  0.2286 -0.5667 -0.4439
  840MOL0     C10779   5.499  10.604   4.689  0.8091 -0.1023  0.1026
  840MOL0     C10780   5.422  10.621   4.802 -0.1071 -0.3454  0.1693
  840MOL0     C10781   5.295  10.574   4.809  0.1235  0.4632 -0.3810
  840MOL0     C10782   5.238  10.494   4.710 -1.5344  0.8372 -0.0779
  840MOL0     O10783   5.123  10.419   4.726  0.1622  0.5559  0.2084
  840MOL0     C10784   5.034  10.435   4.837  0.6837 -0.5647 -0.0920
  840MOL0     C10785   4.888  10.435   4.794  0.2361 -0.4203 -0.2672
  840MOL0     C10786   4.834  10.309   4.714  0.1018 -0.1060  0.2253
  840MOL0     C10787   4.685  10.331   4.676  0.7590  0.8042  1.0058
  840MOL0     C10788   4.633  10.225   4.584  0.4866 -0.4296 -0.5643
  840MOL0     C10789   4.517  10.286   4.497 -0.3145  0.6981 -0.0116
  840MOL0     C10790   4.468  10.179   4.413 -0.3600  0.4225  0.9906
  840MOL0     C10791   4.376  10.078   4.481 -1.4652 -0.3933 -0.2504
  840MOL0    Cl10792   4.232  10.162   4.537  0.0311  0.0368  0.2393
  840MOL0     C10793   5.303  10.481   4.590  0.6317 -0.2872  0.4285
  840MOL0     C10794   5.439  10.534   4.586 -0.1122  0.2845  0.3701
  840MOL0     O10795   5.594  10.816   4.550 -0.4596  0.3886  0.0613
  840MOL0     C10796   5.914  10.648   4.567 -0.9044  0.6162 -0.3514
  840MOL0     C10797   6.049  10.669   4.540  0.1397 -0.4273 -0.2412
  840MOL0     N10798   6.718  10.779   4.679  0.3852 -0.7037 -0.1860
  840MOL0     N10799   6.826  10.852   4.686 -0.2780 -0.2813 -0.1256
  840MOL0     C10800   7.998  10.876   4.196 -0.1395 -0.2885  0.0930
  840MOL0     C10801   8.136  10.897   4.169  0.4668  0.2368 -0.3470
  840MOL0     C10802   8.595  10.880   4.287 -0.7955 -0.0735 -1.2610
  840MOL0     C10803   8.700  10.799   4.333 -0.4440 -0.3691 -0.4810
  840MOL0     C10804   8.832  10.850   4.343 -0.5863  0.0959 -0.9753
  840MOL0     C10805   8.871  10.978   4.309  0.2124 -0.9603  0.5975
  840MOL0     O10806   9.003  11.023   4.344  0.3808  0.3751 -0.1328
  840MOL0     C10807   9.115  10.948   4.301 -0.0844  0.3736 -0.1232
  840MOL0     C10808   9.232  11.041   4.284  0.3205 -0.4757  0.1437
  840MOL0     C10809   9.326  10.999   4.161  1.0537 -0.8581  0.5815
  840MOL0     C10810   9.452  11.092   4.174 -0.0616  0.5639  0.3923
  840MOL0     C10811   9.537  11.042   4.280  0.1068  0.7953 -0.6790
  840MOL0     C10812   9.602  11.006   4.372  0.5167  0.2206 -0.3782
  840MOL0     C10813   8.759  11.063   4.266  0.2149 -0.4310  0.4643
  840MOL0     C10814   8.628  11.011   4.244  0.3798 -0.7682 -0.3711
  840MOL0     H10815   8.264  10.837   4.475 -1.9592 -1.0593  1.8125
  840MOL0     H10816   8.025  10.818   4.525  1.8627  1.0702 -0.0890
  840MOL0     H10817   7.825  10.972   4.509 -0.0739  0.1188  0.4981
  840MOL0     H10818   7.775  10.808   4.542  2.4295  1.9139  2.0356
  840MOL0     H10819   7.614  10.965   4.339 -0.8906  0.1212  0.2475
  840MOL0     H10820   7.604  11.032   4.501  0.8624 -0.0987 -0.3897
  840MOL0     H10821   7.571  10.814   4.577  1.3672  1.7470  0.0548
  840MOL0     H10822   7.534  10.752   4.404  0.0209 -0.1787  0.0858
  840MOL0     H10823   7.341  10.765   4.523  0.6650 -0.2210 -1.6565
  840MOL0     H10824   7.366  10.932   4.584 -1.0888  0.3617  0.2054
  840MOL0     H10825   7.298  10.865   4.295 -1.0695 -1.4112  0.8495
  840MOL0     H10826   7.377  11.012   4.357 -1.7113  1.0668  1.5907
  840MOL0     H10827   7.130  11.038   4.325  1.5599  0.1989 -0.8613
  840MOL0     H10828   7.200  11.086   4.478  1.9887  0.1443  0.2068
  840MOL0     H10829   7.046  10.830   4.419  1.5549 -1.7001  0.2660
  840MOL0     H10830   7.110  10.858   4.586  1.2587  2.5366  0.8685
  840MOL0     H10831   6.923  11.074   4.455 -3.7669 -1.1460  1.4808
  840MOL0     H10832   6.986  11.044   4.620 -1.1970  1.0970  0.1596
  840MOL0     H10833   6.716  10.927   4.384 -0.5130  0.2493 -0.5696
  840MOL0     H10834   6.568  10.619   4.446 -1.2875  0.8234 -1.9480
  840MOL0     H10835   6.499  10.773   4.424  0.2417  0.0975  0.2016
  840MOL0     H10836   6.478  10.604   4.672  2.9595  1.7221 -0.2322
  840MOL0     H10837   6.348  10.608   4.557 -0.7490 -0.6945  1.9190
  840MOL0     H10838   6.290  10.715   4.734 -0.8593  1.1832 -1.5082
  840MOL0     H10839   6.440  10.817   4.751  1.3004 -0.6332 -0.1674
  840MOL0     H10840   6.382  10.949   4.558  1.1540 -1.1858  0.0691
  840MOL0     H10841   6.242  10.945   4.663  1.0620  1.0491 -0.1577
  840MOL0     H10842   6.015  10.990   4.466  0.1046  0.9301  3.1779
  840MOL0     H10843   5.790  10.952   4.488 -0.3887  0.2943 -0.2367
  840MOL0     H10844   5.463  10.659   4.895 -0.8352 -1.0545  0.7927
  840MOL0     H10845   5.257  10.566   4.911  0.4825  0.6194 -0.2339
  840MOL0     H10846   5.056  10.530   4.887  1.0932 -0.8452  0.2602
  840MOL0     H10847   5.043  10.354   4.910  1.3931 -1.6159 -1.3095
  840MOL0     H10848   4.863  10.533   4.754 -0.3238 -0.0700  0.8935
  840MOL0     H10849   4.823  10.451   4.880 -0.1874  2.8625 -1.0569
  840MOL0     H10850   4.847  10.219   4.774 -0.8720 -0.1635  0.3757
  840MOL0     H10851   4.887  10.290   4.620 -2.0679  0.3954 -1.1782
  840MOL0     H10852   4.632  10.318   4.770 -0.6817  0.1191  0.1299
  840MOL0     H10853   4.682  10.433   4.636  2.1257  0.7325  0.6532
  840MOL0     H10854   4.591  10.152   4.654  0.2235  2.7103  2.8522
  840MOL0     H10855   4.714  10.171   4.534  1.3007 -0.7657  1.0613
  840MOL0     H10856   4.577  10.362   4.446  2.1790 -1.3579 -0.3405
  840MOL0     H10857   4.443  10.329   4.565 -0.5021 -2.2447  1.8135
  840MOL0     H10858   4.414  10.238   4.338 -0.7469 -0.2330  0.7354
  840MOL0     H10859   4.554  10.128   4.369  1.2323  3.9990 -0.4125
  840MOL0     H10860   4.423  10.045   4.575  0.1891 -2.9933 -1.8669
  840MOL0     H10861   4.354   9.994   4.414 -1.6720 -1.1200  0.7022
  840MOL0     H10862   5.275  10.426   4.501  0.3227  0.1531  0.2515
  840MOL0     H10863   5.497  10.512   4.497 -1.3706 -0.1587 -0.3522
  840MOL0     H10864   5.865  10.551   4.568  2.0761 -0.9995 -0.0849
  840MOL0     H10865   6.119  10.587   4.525 -2.2505 -2.0414 -4.0912
  840MOL0     H10866   7.920  10.887   4.122  0.8261 -0.0873 -0.9273
  840MOL0     H10867   8.168  10.929   4.070 -2.2286  1.7534 -0.8429
  840MOL0     H10868   8.683  10.700   4.374  0.0306  0.7866  2.8018
  840MOL0     H10869   8.916  10.786   4.365 -1.4308 -0.9871 -0.8255
  840MOL0     H10870   9.098  10.906   4.201 -1.6257  0.6873 -0.0195
  840MOL0     H10871   9.144  10.867   4.369  0.6386 -1.0224 -2.0144
  840MOL0     H10872   9.196  11.144   4.274  0.4090 -0.4682 -0.1183
  840MOL0     H10873   9.285  11.044   4.379 -1.8482 -0.0183  1.4025
  840MOL0     H10874   9.271  11.030   4.072  1.9711  1.6652  0.8243
  840MOL0     H10875   9.360  10.895   4.164  1.7868 -0.8361 -3.0444
  840MOL0     H10876   9.515  11.079   4.085  0.9895 -0.2580  1.2219
  840MOL0     H10877   9.414  11.194   4.188 -0.3646  0.4728  0.2311
  840MOL0     H10878   9.661  10.972   4.454 -0.6389  0.2396  0.4756
  840MOL0     H10879   8.763  11.169   4.241 -0.0087 -0.4962  0.1360
  840MOL0     H10880   8.558  11.086   4.208 -0.7283 -1.8537 -0.5526
  841MOL0     O10881   1.522   0.475   4.587 -0.4047 -0.0918  0.4423
  841MOL0     C10882   1.540   0.457   4.705 -0.3555  0.7825  0.3451
  841MOL0     O10883   1.660   0.410   4.751 -0.3624 -0.1896 -0.5951
  841MOL0     C10884   1.780   0.457   4.690  0.6140  1.2620  0.1614
  841MOL0     C10885   1.894   0.386   4.728 -0.0855  0.8446 -0.0465
  841MOL0     C10886   2.018   0.430   4.699  0.4297 -0.3831  0.2467
  841MOL0     C10887   2.035   0.531   4.612 -0.3831  0.0156 -0.2903
  841MOL0     O10888   2.164   0.582   4.595  0.1986 -0.1077 -0.0575
  841MOL0     C10889   2.195   0.716   4.631 -0.0918  0.6697  1.2054
  841MOL0     C10890   2.342   0.738   4.610 -0.4938 -0.2728  0.1802
  841MOL0     C10891   2.442   0.696   4.722 -0.0572  0.0068  0.1509
  841MOL0     C10892   2.440   0.798   4.836  0.1760  0.0836  0.3030
  841MOL0     C10893   2.565   0.770   4.939 -0.2481  0.5147 -0.1006
  841MOL0     C10894   2.523   0.834   5.084  0.2949  0.1844  0.2773
  841MOL0     C10895   2.422   0.758   5.170  0.5068 -0.4084 -0.1362
  841MOL0     C10896   2.419   0.811   5.314 -0.4803 -0.2370  0.1622
  841MOL0     N10897   2.342   0.931   5.323  0.4171 -0.9077 -0.5602
  841MOL0     C10898   2.212   0.945   5.367 -0.2731  0.1256 -0.0578
  841MOL0     C10899   2.202   1.077   5.401  0.3509  0.4781  1.0107
  841MOL0     C10900   2.080   1.145   5.455 -0.5596  0.5434 -0.3991
  841MOL0     C10901   2.122   1.259   5.540  0.1333  0.3656 -0.8868
  841MOL0     C10902   2.006   1.318   5.623  0.4390  0.1312  0.6150
  841MOL0     C10903   1.911   1.411   5.542 -0.7655 -0.2661  0.7516
  841MOL0     O10904   1.819   1.348   5.452 -0.1168  0.3941  0.3950
  841MOL0     C10905   1.690   1.396   5.463  0.8022  0.2303  0.0313
  841MOL0     C10906   1.622   1.438   5.350 -0.3990  0.8894 -0.2340
  841MOL0     C10907   1.490   1.460   5.365 -0.4866 -0.4567 -0.1689
  841MOL0     C10908   1.426   1.459   5.494 -0.4555 -0.1121  0.4060
  841MOL0     C10909   1.283   1.511   5.496 -0.5679  0.1257  0.0852
  841MOL0     O10910   1.229   1.539   5.376  0.8518 -0.0912 -0.1352
  841MOL0     C10911   1.086   1.545   5.378  0.4873 -0.1319  0.8486
  841MOL0     C10912   1.018   1.666   5.395 -0.7610 -0.3361 -0.8318
  841MOL0     C10913   0.883   1.678   5.381  0.2221 -0.1486 -0.0641
  841MOL0     C10914   0.801   1.575   5.337  0.3752 -0.3776 -0.7663
  841MOL0     O10915   0.665   1.589   5.343  0.0234  0.0038 -0.0727
  841MOL0     C10916   0.581   1.468   5.356 -0.2176  0.8603 -0.8300
  841MOL0     C10917   0.431   1.499   5.349 -0.4598 -0.4295  0.0723
  841MOL0     C10918   0.344   1.371   5.374 -0.5414 -0.1769  0.1982
  841MOL0     C10919   0.197   1.400   5.399 -0.2799 -0.0919 -0.3751
  841MOL0     C10920   0.101   1.289   5.377 -0.1810  0.0222  0.2807
  841MOL0     C10921  -0.037   1.331   5.424  0.8073 -0.6232 -0.2267
  841MOL0     C10922  -0.137   1.263   5.338  0.4320  0.4749 -0.0283
  841MOL0     C10923  -0.269   1.291   5.394  0.4357  0.2465 -0.7615
  841MOL0    Cl10924  -0.332   1.452   5.353 -0.0422 -0.3618 -0.0192
  841MOL0     C10925   0.862   1.452   5.319 -0.7336  0.1085  0.1093
  841MOL0     C10926   1.004   1.440   5.332  0.2796 -0.0627 -0.5405
  841MOL0     O10927   1.230   1.530   5.600 -0.0874  0.3801 -0.0089
  841MOL0     C10928   1.503   1.426   5.607 -0.7383 -0.6013  1.0510
  841MOL0     C10929   1.629   1.378   5.591 -0.3310 -0.6326 -0.7608
  841MOL0     N10930   2.320   1.145   5.368 -0.0697  0.8752 -1.4784
  841MOL0     N10931   2.405   1.055   5.330 -0.5521 -0.1329 -0.0611
  841MOL0     C10932   1.928   0.591   4.553 -0.3295  0.5192  0.5520
  841MOL0     C10933   1.798   0.560   4.601  0.3669  0.0095  0.6949
  841MOL0     C10934   1.421   0.451   4.793  0.7245 -0.4667 -0.4205
  841MOL0     C10935   1.303   0.519   4.750 -0.1430  0.7711 -0.8775
  841MOL0     C10936   1.195   0.539   4.841  0.0359  0.3859  0.8239
  841MOL0     C10937   1.203   0.482   4.973  0.5386 -0.8184  0.1809
  841MOL0     O10938   1.106   0.478   5.076  0.5838 -0.0461  0.1342
  841MOL0     C10939   0.990   0.556   5.040 -0.4236  0.0683  0.3653
  841MOL0     C10940   0.887   0.558   5.153  0.4268  0.3781 -0.4796
  841MOL0     C10941   0.761   0.631   5.123 -0.1021 -0.3039  0.6520
  841MOL0     C10942   0.677   0.641   5.248 -0.6536  0.1173 -0.7348
  841MOL0     C10943   0.566   0.541   5.257 -0.0548  0.1985 -0.0615
  841MOL0     C10944   0.474   0.466   5.283  0.6344  0.1997 -0.3188
  841MOL0     C10945   1.323   0.418   5.010 -0.5538 -0.5197  0.4896
  841MOL0     C10946   1.431   0.400   4.923  0.1345 -0.6591 -1.0138
  841MOL0     H10947   1.896   0.297   4.789  0.3665  0.3354 -0.7807
  841MOL0     H10948   2.111   0.400   4.745  0.6636  2.1148  1.5855
  841MOL0     H10949   2.164   0.726   4.736  0.6249 -1.4135  1.6526
  841MOL0     H10950   2.131   0.779   4.568 -0.3323  0.1187  0.8885
  841MOL0     H10951   2.346   0.847   4.599 -0.8719 -0.3370 -0.6646
  841MOL0     H10952   2.362   0.678   4.521 -3.8039  0.1874 -1.0029
  841MOL0     H10953   2.536   0.702   4.667 -0.3648 -0.8140 -0.4942
  841MOL0     H10954   2.423   0.593   4.755  1.5652 -0.7196 -1.0559
  841MOL0     H10955   2.451   0.902   4.803  2.4706  0.0135  0.7252
  841MOL0     H10956   2.345   0.788   4.890 -0.3428 -3.2782 -0.9925
  841MOL0     H10957   2.661   0.813   4.911  0.4118 -0.3701  0.7358
  841MOL0     H10958   2.589   0.664   4.946  1.8054  0.7828 -2.0606
  841MOL0     H10959   2.478   0.931   5.060 -2.6174 -1.4567 -1.4185
  841MOL0     H10960   2.616   0.840   5.143  0.1972  0.5004  0.4022
  841MOL0     H10961   2.321   0.762   5.130 -0.5166 -1.7318  2.1198
  841MOL0     H10962   2.455   0.654   5.176 -0.6433 -0.7006  1.8754
  841MOL0     H10963   2.517   0.820   5.363 -1.1460  0.4371  1.4091
  841MOL0     H10964   2.364   0.737   5.373 -0.4825 -0.4484 -0.1075
  841MOL0     H10965   2.142   0.862   5.372 -1.1205  0.8962  2.6205
  841MOL0     H10966   2.029   1.068   5.513  2.8568 -2.5515 -1.1548
  841MOL0     H10967   2.002   1.167   5.381  0.6907  1.3982 -1.5249
  841MOL0     H10968   2.183   1.334   5.489  0.0900  1.1305  0.1340
  841MOL0     H10969   2.181   1.219   5.623 -0.1179 -0.9613 -1.3295
  841MOL0     H10970   1.937   1.243   5.664  0.4579 -1.4036 -1.9314
  841MOL0     H10971   2.045   1.386   5.699  0.7957  3.2550 -2.1244
  841MOL0     H10972   1.986   1.476   5.496 -0.2652 -3.0431 -2.7380
  841MOL0     H10973   1.863   1.471   5.620  1.6773  0.3933  1.8784
  841MOL0     H10974   1.667   1.439   5.251 -1.3346 -1.8105 -0.7840
  841MOL0     H10975   1.434   1.486   5.276 -2.7872 -1.5194  0.8924
  841MOL0     H10976   1.086   1.742   5.432  0.4213 -1.7052 -0.0833
  841MOL0     H10977   0.832   1.773   5.396  0.9790  0.5597 -1.6702
  841MOL0     H10978   0.597   1.431   5.458 -0.0614  0.3843 -1.0244
  841MOL0     H10979   0.609   1.394   5.280 -1.0225 -0.0435 -0.2624
  841MOL0     H10980   0.412   1.545   5.251  1.5292 -0.0470 -0.1663
  841MOL0     H10981   0.413   1.575   5.426  0.8504 -1.7096  1.7030
  841MOL0     H10982   0.390   1.316   5.457  0.4469  3.1381  2.0458
  841MOL0     H10983   0.358   1.295   5.296 -0.3081 -0.2213  0.2819
  841MOL0     H10984   0.184   1.438   5.501  0.8746 -1.3257  0.2663
  841MOL0     H10985   0.175   1.481   5.329  2.3684  0.2544 -0.9226
  841MOL0     H10986   0.133   1.200   5.431 -1.4160  0.1793  1.3407
  841MOL0     H10987   0.105   1.265   5.270 -1.3503 -0.5859  0.3492
  841MOL0     H10988  -0.045   1.440   5.415  2.1346 -0.3498  1.3270
  841MOL0     H10989  -0.046   1.304   5.530 -2.1186 -0.9848 -0.5043
  841MOL0     H10990  -0.126   1.308   5.239 -1.2164 -1.0559 -0.9748
  841MOL0     H10991  -0.116   1.156   5.333  3.0004  0.9465 -0.2528
  841MOL0     H10992  -0.267   1.278   5.503  4.2442  2.0131 -0.4918
  841MOL0     H10993  -0.344   1.225   5.348 -0.5876  1.2030 -0.4944
  841MOL0     H10994   0.805   1.362   5.294  0.1346 -1.0437  2.0338
  841MOL0     H10995   1.054   1.345   5.316 -1.5610 -0.8226 -2.1507
  841MOL0     H10996   1.465   1.427   5.709  2.6388 -4.7036  2.6422
  841MOL0     H10997   1.678   1.334   5.677  2.3019 -1.0116 -2.3641
  841MOL0     H10998   1.934   0.673   4.483 -1.4400  0.5431  0.4741
  841MOL0     H10999   1.718   0.619   4.558  1.5567  0.1988 -1.4222
  841MOL0     H11000   1.292   0.545   4.646  0.9195 -1.6550 -1.6647
  841MOL0     H11001   1.104   0.583   4.801  0.7433 -0.0048 -1.3722
  841MOL0     H11002   0.935   0.526   4.951 -0.8083 -0.9514  0.9234
  841MOL0     H11003   1.026   0.656   5.018 -1.4801  0.3437 -0.1517
  841MOL0     H11004   0.851   0.459   5.184 -0.9499  1.2079  0.7076
  841MOL0     H11005   0.944   0.608   5.232  1.3293  0.1093 -0.9378
  841MOL0     H11006   0.701   0.587   5.043 -0.7094 -0.1342  1.0049
  841MOL0     H11007   0.779   0.734   5.094 -0.8482  0.1800  1.8276
  841MOL0     H11008   0.745   0.630   5.334 -1.5369 -0.6354 -0.1168
  841MOL0     H11009   0.621   0.735   5.254 -0.6497  0.0371  1.8688
  841MOL0     H11010   0.388   0.405   5.296  0.9369  0.1789  1.9532
  841MOL0     H11011   1.328   0.376   5.110 -0.8347 -0.5159  0.5059
  841MOL0     H11012   1.524   0.353   4.950  2.0092  1.8066 -2.7259
  842MOL0     O11013   2.092   5.004   3.571 -0.5756  0.4117 -0.2041
  842MOL0     C11014   2.139   4.912   3.504  0.0495 -0.4223 -0.0350
  842MOL0     O11015   2.064   4.822   3.439 -0.0170 -0.1839  0.0606
  842MOL0     C11016   1.922   4.812   3.440 -0.7237  0.3984  0.4177
  842MOL0     C11017   1.867   4.731   3.337 -0.7640  0.9198 -0.0482
  842MOL0     C11018   1.728   4.740   3.309  0.3359 -0.2895  0.6557
  842MOL0     C11019   1.642   4.826   3.388 -0.8798  0.6347  0.3607
  842MOL0     O11020   1.516   4.826   3.339 -0.4179 -0.4512  0.5606
  842MOL0     C11021   1.410   4.880   3.413  0.9044  0.4821 -0.2277
  842MOL0     C11022   1.283   4.854   3.330 -0.2393 -0.0727  0.0105
  842MOL0     C11023   1.205   4.725   3.372 -0.5543  0.7566 -0.0045
  842MOL0     C11024   1.060   4.723   3.308 -0.9636  0.7538 -0.0779
  842MOL0     C11025   0.972   4.592   3.340  0.6786 -0.6959  0.5344
  842MOL0     C11026   0.833   4.626   3.375  0.7233  0.5148 -0.0870
  842MOL0     C11027   0.736   4.501   3.376  0.3760  0.3579  0.0475
  842MOL0     C11028   0.598   4.531   3.443 -0.2017  0.1732  0.0125
  842MOL0     N11029   0.606   4.597   3.572 -0.3643  0.0210 -0.0912
  842MOL0     C11030   0.632   4.532   3.690 -0.4023  0.5889 -0.0282
  842MOL0     C11031   0.634   4.629   3.778 -0.1348 -0.6640  0.0533
  842MOL0     C11032   0.653   4.620   3.938  0.8409  0.9902  0.5219
  842MOL0     C11033   0.786   4.675   3.994  0.3968  0.3445  0.5886
  842MOL0     C11034   0.793   4.655   4.148 -0.1428 -0.9604 -0.1353
  842MOL0     C11035   0.842   4.515   4.183  0.9529 -0.2791 -0.1490
  842MOL0     O11036   0.977   4.495   4.143  0.5929 -0.1188 -0.4586
  842MOL0     C11037   1.083   4.553   4.210  0.6915 -0.2462 -0.3628
  842MOL0     C11038   1.197   4.519   4.146 -0.5497 -0.2657  1.0447
  842MOL0     C11039   1.327   4.569   4.192 -0.3603 -0.0308  0.3381
  842MOL0     C11040   1.334   4.646   4.311  0.0038 -0.7831 -0.3052
  842MOL0     C11041   1.453   4.654   4.387 -0.0367 -0.0825  0.5220
  842MOL0     O11042   1.446   4.670   4.523  0.3095  0.3062 -0.4996
  842MOL0     C11043   1.564   4.657   4.592 -0.0634 -0.9191  0.2655
  842MOL0     C11044   1.664   4.562   4.577 -0.2313  0.2838  0.4026
  842MOL0     C11045   1.765   4.544   4.670  0.5219  0.5265  0.2395
  842MOL0     C11046   1.772   4.612   4.788  0.6420 -0.1933 -0.1523
  842MOL0     O11047   1.852   4.577   4.894  0.6052  0.1404  0.1579
  842MOL0     C11048   1.966   4.498   4.882 -0.9452 -0.2864 -0.5817
  842MOL0     C11049   2.015   4.446   5.020  0.3356  0.4476  0.2883
  842MOL0     C11050   2.064   4.557   5.107 -0.5202 -0.5964 -0.2886
  842MOL0     C11051   2.127   4.493   5.231  0.5337  0.5812  0.7418
  842MOL0     C11052   2.172   4.581   5.348 -0.0345 -0.4186  0.4357
  842MOL0     C11053   2.274   4.681   5.290 -0.3282 -0.1750  0.2841
  842MOL0     C11054   2.331   4.762   5.404  0.6551 -0.8103 -0.0253
  842MOL0     C11055   2.445   4.709   5.472 -0.3457 -0.0611 -0.7579
  842MOL0    Cl11056   2.515   4.854   5.574 -0.4509 -0.2726 -0.3277
  842MOL0     C11057   1.677   4.713   4.808  0.5070  0.1758 -0.6978
  842MOL0     C11058   1.572   4.731   4.714 -0.9267  0.1330 -0.1420
  842MOL0     O11059   1.556   4.637   4.315 -0.1129 -0.5006  0.5081
  842MOL0     C11060   1.211   4.686   4.373  0.5268  0.3480  0.6931
  842MOL0     C11061   1.080   4.637   4.326 -1.0020 -0.0044 -0.0700
  842MOL0     N11062   0.609   4.750   3.713  0.1057 -0.5727 -0.4837
  842MOL0     N11063   0.601   4.733   3.589  0.2437  0.1924 -0.3960
  842MOL0     C11064   1.701   4.892   3.497  1.0463 -0.1267 -0.2148
  842MOL0     C11065   1.839   4.880   3.520 -0.5049 -0.1133 -0.0078
  842MOL0     C11066   2.285   4.910   3.486  0.1061 -0.0226 -0.2292
  842MOL0     C11067   2.344   4.808   3.411 -0.3431 -0.5563 -1.1246
  842MOL0     C11068   2.481   4.814   3.385  0.8132 -0.2483 -0.1204
  842MOL0     C11069   2.560   4.915   3.440  0.2860 -0.2520  0.2783
  842MOL0     O11070   2.694   4.906   3.417 -0.0093  0.4613 -0.1383
  842MOL0     C11071   2.752   4.782   3.467 -0.3380  0.3452  0.8472
  842MOL0     C11072   2.859   4.815   3.570 -0.1481 -0.0788 -0.1337
  842MOL0     C11073   2.827   4.938   3.661  0.7941  0.2862  0.1875
  842MOL0     C11074   2.914   4.919   3.786  0.2447 -1.0184 -0.8526
  842MOL0     C11075   3.050   4.980   3.786 -0.2300 -0.5440  0.2576
  842MOL0     C11076   3.165   5.022   3.775 -0.8210  0.8503  0.4996
  842MOL0     C11077   2.499   5.003   3.526 -0.9431  0.5167  0.0327
  842MOL0     C11078   2.362   5.012   3.542  0.3121  0.0905  0.0797
  842MOL0     H11079   1.931   4.670   3.274 -3.0960 -2.6487  0.7229
  842MOL0     H11080   1.697   4.692   3.217  0.8396  1.5835 -0.5527
  842MOL0     H11081   1.418   4.987   3.435 -1.1099  0.3796  1.3535
  842MOL0     H11082   1.393   4.831   3.510  2.1791 -0.5900 -0.5168
  842MOL0     H11083   1.316   4.852   3.225 -2.2551 -0.8724 -0.6468
  842MOL0     H11084   1.215   4.939   3.339 -1.4980 -0.9950 -0.4651
  842MOL0     H11085   1.201   4.729   3.481 -0.7819  1.4552 -0.0301
  842MOL0     H11086   1.260   4.635   3.342 -0.0642 -0.5533  4.1663
  842MOL0     H11087   1.001   4.809   3.341 -1.4987  0.0446  0.8888
  842MOL0     H11088   1.083   4.740   3.202 -0.2301  0.4960  0.0372
  842MOL0     H11089   1.014   4.528   3.417  1.2912 -0.7828  0.1407
  842MOL0     H11090   0.981   4.528   3.251 -2.3012  0.0772 -0.4294
  842MOL0     H11091   0.791   4.702   3.309 -2.2010  1.0259  2.1449
  842MOL0     H11092   0.838   4.679   3.471 -2.2288 -0.6340  0.8044
  842MOL0     H11093   0.722   4.458   3.276 -2.3123 -0.7415  0.7997
  842MOL0     H11094   0.788   4.424   3.433  3.0596  1.6550 -0.4905
  842MOL0     H11095   0.535   4.442   3.440 -2.5422  1.7096  0.5659
  842MOL0     H11096   0.554   4.592   3.363 -0.9961  0.3315  0.5659
  842MOL0     H11097   0.653   4.426   3.696  0.7060  0.8190  0.2777
  842MOL0     H11098   0.639   4.515   3.964 -1.8149  0.4502 -2.4141
  842MOL0     H11099   0.567   4.674   3.979  1.3658  0.8385  1.8562
  842MOL0     H11100   0.768   4.781   3.978 -2.1429 -0.3035 -1.5522
  842MOL0     H11101   0.878   4.650   3.941 -0.4701 -0.1549 -0.7325
  842MOL0     H11102   0.860   4.733   4.182 -0.9057 -0.9703  1.4730
  842MOL0     H11103   0.691   4.672   4.186  0.8238  1.3231  1.6440
  842MOL0     H11104   0.783   4.439   4.130 -1.6217 -0.1501  2.2561
  842MOL0     H11105   0.831   4.488   4.289 -2.5056 -0.9658 -0.5773
  842MOL0     H11106   1.196   4.455   4.059 -1.4676 -1.3949  1.8493
  842MOL0     H11107   1.417   4.548   4.134 -1.8001  0.7723 -2.3093
  842MOL0     H11108   1.649   4.503   4.487  0.0218  2.7997 -1.3912
  842MOL0     H11109   1.835   4.464   4.648 -1.3260 -0.2286 -4.1403
  842MOL0     H11110   2.046   4.557   4.836 -1.1198 -0.4525 -1.1000
  842MOL0     H11111   1.946   4.415   4.814  1.4568  1.3796 -3.6036
  842MOL0     H11112   2.098   4.379   4.998 -0.0673  0.5705 -1.8229
  842MOL0     H11113   1.936   4.384   5.064  1.2546 -1.4914 -0.6839
  842MOL0     H11114   1.985   4.620   5.147 -1.1646 -2.6565  1.9893
  842MOL0     H11115   2.135   4.612   5.045 -1.0298 -0.9292 -1.1748
  842MOL0     H11116   2.048   4.434   5.279  1.2579 -2.0557 -1.0965
  842MOL0     H11117   2.214   4.435   5.199 -0.4983 -0.6410  0.0651
  842MOL0     H11118   2.212   4.529   5.435 -0.4969  1.6930  1.9681
  842MOL0     H11119   2.083   4.633   5.384 -1.1815 -0.1215 -2.5019
  842MOL0     H11120   2.227   4.745   5.214  0.7195  0.4935  0.1858
  842MOL0     H11121   2.362   4.634   5.245 -0.5152 -0.3595  0.1037
  842MOL0     H11122   2.369   4.859   5.374  0.9465 -0.2752  1.9388
  842MOL0     H11123   2.243   4.772   5.468  0.6396  0.5346 -0.2246
  842MOL0     H11124   2.530   4.680   5.410  3.1387 -2.3728  4.3841
  842MOL0     H11125   2.420   4.622   5.533 -1.6878  0.6092 -0.3002
  842MOL0     H11126   1.690   4.765   4.902  0.3250  2.0714 -1.6842
  842MOL0     H11127   1.497   4.802   4.747 -0.0746  0.2167  1.7415
  842MOL0     H11128   1.211   4.761   4.451 -2.3218 -1.1861  2.3384
  842MOL0     H11129   0.987   4.657   4.378 -1.1124 -0.3771 -0.1173
  842MOL0     H11130   1.638   4.959   3.555  3.0429  0.4525  1.3939
  842MOL0     H11131   1.876   4.931   3.609 -0.2180 -1.1725  0.4998
  842MOL0     H11132   2.287   4.724   3.374 -3.9915  0.4264  1.6487
  842MOL0     H11133   2.536   4.738   3.331  0.3475  0.2653 -1.3593
  842MOL0     H11134   2.801   4.733   3.382  0.4785  2.3731  0.0938
  842MOL0     H11135   2.678   4.710   3.505 -0.0530 -1.7638 -2.2386
  842MOL0     H11136   2.868   4.721   3.627 -1.7718 -1.0257 -1.3472
  842MOL0     H11137   2.955   4.831   3.520 -1.1590  0.8259 -1.8982
  842MOL0     H11138   2.721   4.948   3.686  0.0041 -0.0453 -2.6887
  842MOL0     H11139   2.842   5.032   3.608 -0.6779  2.1537  2.8414
  842MOL0     H11140   2.869   4.953   3.880  1.8420 -2.2808  0.4552
  842MOL0     H11141   2.915   4.811   3.807 -1.4936 -0.6299  1.6834
  842MOL0     H11142   3.270   5.040   3.762 -0.7691 -1.4969 -4.2907
  842MOL0     H11143   2.555   5.088   3.563  1.0038 -0.6853 -0.0179
  842MOL0     H11144   2.321   5.099   3.592  1.5819 -0.6670  2.5692
  843MOL0     O11145   9.703   4.080  11.105 -0.6849 -0.0375  0.6724
  843MOL0     C11146   9.789   4.060  11.019 -0.2805 -0.0961 -0.3286
  843MOL0     O11147   9.760   4.019  10.895 -0.6978  0.7302 -0.5677
  843MOL0     C11148   9.633   3.983  10.860  0.2122  0.6036 -0.0701
  843MOL0     C11149   9.528   4.075  10.888  0.2436  0.3173 -0.0821
  843MOL0     C11150   9.402   4.038  10.845 -1.1312  0.6101 -0.5178
  843MOL0     C11151   9.382   3.923  10.774  0.4535  0.5075  0.1473
  843MOL0     O11152   9.258   3.877  10.733  0.2445 -0.2073 -0.5020
  843MOL0     C11153   9.128   3.938  10.777  0.1125  0.3763  1.0259
  843MOL0     C11154   9.015   3.851  10.734  0.8882 -0.6509  0.5359
  843MOL0     C11155   8.881   3.908  10.780 -0.3353  0.4962  0.1380
  843MOL0     C11156   8.782   3.791  10.738 -0.4845 -0.2403 -0.0170
  843MOL0     C11157   8.641   3.828  10.793  0.3562  0.5393 -0.7973
  843MOL0     C11158   8.523   3.764  10.716  0.2029 -0.2743 -0.1420
  843MOL0     C11159   8.383   3.796  10.782 -0.5136 -0.3348  0.8985
  843MOL0     C11160   8.369   3.764  10.935  0.2153  0.7326  0.3933
  843MOL0     N11161   8.243   3.834  10.976  0.3049  0.1320  0.0084
  843MOL0     C11162   8.233   3.964  11.009 -0.1577 -0.0780 -0.3235
  843MOL0     C11163   8.102   3.999  11.011 -0.2378  0.1253  0.3899
  843MOL0     C11164   8.024   4.116  11.052  0.0929 -0.3170  0.4060
  843MOL0     C11165   7.950   4.100  11.186 -0.1188 -0.0634 -0.8537
  843MOL0     C11166   7.952   4.237  11.247 -0.2841 -0.9908 -0.1435
  843MOL0     C11167   7.884   4.242  11.380 -0.0779 -0.1506 -1.3606
  843MOL0     O11168   7.747   4.215  11.362  0.0054 -0.8938  0.4056
  843MOL0     C11169   7.657   4.314  11.397  0.0747  0.7883  0.0852
  843MOL0     C11170   7.687   4.449  11.393  0.3928 -0.3250  0.0546
  843MOL0     C11171   7.585   4.540  11.424 -0.0790  0.7256  0.4421
  843MOL0     C11172   7.452   4.507  11.434  0.1413 -0.4356 -0.0364
  843MOL0     C11173   7.338   4.606  11.435 -0.2722  0.8430  0.0750
  843MOL0     O11174   7.216   4.546  11.408 -0.9299  0.7143 -0.7906
  843MOL0     C11175   7.103   4.624  11.390  0.1015  0.2241  0.6529
  843MOL0     C11176   7.069   4.736  11.459 -0.2145 -0.8574  0.1412
  843MOL0     C11177   6.963   4.813  11.419  0.1686  0.3823  0.1036
  843MOL0     C11178   6.877   4.770  11.313  0.5738 -0.1272  0.0328
  843MOL0     O11179   6.767   4.843  11.290  1.1867  0.1607 -0.4740
  843MOL0     C11180   6.653   4.784  11.214 -0.4676 -0.0714 -0.4030
  843MOL0     C11181   6.542   4.874  11.249  0.8234  0.8748  1.1164
  843MOL0     C11182   6.423   4.857  11.138 -0.4358 -0.0142 -0.4219
  843MOL0     C11183   6.292   4.924  11.188 -0.5310 -0.0257  0.1476
  843MOL0     C11184   6.180   4.896  11.083  0.7536 -0.3744  0.5430
  843MOL0     C11185   6.039   4.919  11.132  0.7366 -0.7604 -1.2159
  843MOL0     C11186   5.930   4.861  11.032  0.0059 -0.1384 -0.3581
  843MOL0     C11187   5.922   4.928  10.904 -0.5202 -0.5167  0.3012
  843MOL0    Cl11188   5.760   4.893  10.839 -0.1115  0.4712 -0.0679
  843MOL0     C11189   6.905   4.654  11.248 -0.1934 -0.1311  0.5016
  843MOL0     C11190   7.016   4.575  11.279 -0.4700  0.8171 -0.2248
  843MOL0     O11191   7.353   4.728  11.449 -0.8147 -0.2184 -0.3996
  843MOL0     C11192   7.428   4.366  11.427  0.7820 -0.7160 -0.7740
  843MOL0     C11193   7.523   4.269  11.413  0.6773 -0.1723  0.0200
  843MOL0     N11194   8.040   3.878  10.977  0.3297  0.2981  0.2996
  843MOL0     N11195   8.117   3.785  10.954 -0.3556  0.3588 -0.3528
  843MOL0     C11196   9.485   3.840  10.741  0.5625  0.3613  0.2139
  843MOL0     C11197   9.611   3.867  10.791 -0.2296 -0.5049  0.2742
  843MOL0     C11198   9.924   4.090  11.037  0.1810  0.9401 -0.4776
  843MOL0     C11199  10.020   4.086  10.937 -0.0649 -0.1647  0.0031
  843MOL0     C11200  10.149   4.135  10.954  0.3701 -0.3173 -0.1781
  843MOL0     C11201  10.191   4.190  11.076 -0.0011  0.2354  1.3386
  843MOL0     O11202  10.314   4.241  11.094 -0.5359  0.2244 -0.0895
  843MOL0     C11203  10.381   4.214  11.223 -0.8007 -0.0585 -0.2907
  843MOL0     C11204  10.419   4.070  11.214 -1.1200  0.3758  0.2133
  843MOL0     C11205  10.476   4.007  11.345 -0.0293 -0.2152  0.3302
  843MOL0     C11206  10.627   4.048  11.382 -0.6014  0.5859 -0.4253
  843MOL0     C11207  10.722   3.983  11.282  0.6785  0.5372 -0.2285
  843MOL0     C11208  10.818   3.927  11.221  0.2148 -0.0411  0.3367
  843MOL0     C11209  10.093   4.175  11.178 -0.3758 -0.4155 -0.1494
  843MOL0     C11210   9.959   4.142  11.155  0.3196 -0.0699  0.2977
  843MOL0     H11211   9.537   4.169  10.940 -0.6045  1.4301 -1.8427
  843MOL0     H11212   9.318   4.092  10.888 -0.9299  0.9499 -0.5521
  843MOL0     H11213   9.120   4.041  10.740  0.4075 -0.1470 -0.5827
  843MOL0     H11214   9.137   3.938  10.886  3.1160 -1.0943  0.8938
  843MOL0     H11215   9.023   3.755  10.786 -2.3007 -0.5580  1.3914
  843MOL0     H11216   9.009   3.840  10.625 -1.4799 -0.8365  0.6240
  843MOL0     H11217   8.853   3.997  10.724 -0.6208 -1.4310 -2.9876
  843MOL0     H11218   8.871   3.917  10.889 -0.8578  0.3049  0.1048
  843MOL0     H11219   8.778   3.783  10.629  1.9248 -0.6001 -0.1378
  843MOL0     H11220   8.811   3.691  10.771  0.4419  0.0842  0.1637
  843MOL0     H11221   8.614   3.933  10.786 -0.9506  0.3712  0.9973
  843MOL0     H11222   8.639   3.797  10.898 -2.6275 -0.1896 -0.9789
  843MOL0     H11223   8.528   3.657  10.694 -3.3848 -0.7922  0.9035
  843MOL0     H11224   8.512   3.808  10.617 -2.4583 -3.3424 -1.3945
  843MOL0     H11225   8.359   3.901  10.763  0.4718  0.2027  2.4649
  843MOL0     H11226   8.306   3.741  10.727  0.2682  1.5166 -2.3734
  843MOL0     H11227   8.451   3.801  10.997  0.3899  0.0168  0.5968
  843MOL0     H11228   8.347   3.657  10.944 -2.5350  1.0111 -1.8330
  843MOL0     H11229   8.317   4.028  11.032  1.5482 -2.9494  2.0568
  843MOL0     H11230   7.953   4.139  10.972  0.7416  0.7697  0.1292
  843MOL0     H11231   8.100   4.195  11.050  1.7345 -1.8417  0.1597
  843MOL0     H11232   7.998   4.027  11.252  0.5225 -0.7145 -2.0133
  843MOL0     H11233   7.846   4.071  11.170 -0.7081  0.6151  1.3062
  843MOL0     H11234   8.054   4.271  11.268 -0.7247 -0.2506  0.9525
  843MOL0     H11235   7.909   4.323  11.194 -2.5754 -2.0062 -0.0321
  843MOL0     H11236   7.902   4.335  11.435  4.2254 -1.4087 -0.2274
  843MOL0     H11237   7.919   4.157  11.440 -4.2188  1.1348  3.6255
  843MOL0     H11238   7.782   4.484  11.353 -1.0860  0.4342 -3.0836
  843MOL0     H11239   7.613   4.645  11.419 -1.1994  1.1016  1.5346
  843MOL0     H11240   7.136   4.778  11.534 -1.6699  1.4515  0.2528
  843MOL0     H11241   6.958   4.908  11.471  0.2840 -0.8072  2.3731
  843MOL0     H11242   6.621   4.680  11.225 -6.1984  1.3117 -0.8967
  843MOL0     H11243   6.670   4.800  11.107 -1.7506  0.2025 -0.5786
  843MOL0     H11244   6.574   4.978  11.249 -1.4973  1.6405  0.4156
  843MOL0     H11245   6.500   4.848  11.347  0.0729 -0.8772  0.3760
  843MOL0     H11246   6.397   4.751  11.127 -1.7611  0.0483  1.4352
  843MOL0     H11247   6.452   4.897  11.041 -1.4396  4.5510  0.9572
  843MOL0     H11248   6.269   4.886  11.288 -1.0223  0.9355  0.4082
  843MOL0     H11249   6.296   5.031  11.211 -0.1420 -0.6868  3.7743
  843MOL0     H11250   6.191   4.795  11.042  0.3585  0.5290 -2.0387
  843MOL0     H11251   6.185   4.967  10.999  0.4614  0.5868  1.3087
  843MOL0     H11252   6.019   5.022  11.163 -0.4804 -1.4123  0.2849
  843MOL0     H11253   6.018   4.859  11.220  0.0354  1.3679  0.1554
  843MOL0     H11254   5.950   4.755  11.010  4.9766  0.7689 -1.6494
  843MOL0     H11255   5.838   4.871  11.090  1.1799 -1.8723  1.9767
  843MOL0     H11256   6.000   4.909  10.829 -1.7987 -0.9659 -0.9592
  843MOL0     H11257   5.927   5.036  10.923  1.6190 -0.6917  1.0301
  843MOL0     H11258   6.838   4.619  11.170  0.8580 -0.3535 -0.3249
  843MOL0     H11259   7.057   4.487  11.232  0.6186  1.4515 -0.5138
  843MOL0     H11260   7.326   4.331  11.418  0.3259  0.4876 -0.5066
  843MOL0     H11261   7.507   4.162  11.418  0.7976 -0.2813 -1.4780
  843MOL0     H11262   9.467   3.745  10.692 -0.5528 -0.4279  2.0211
  843MOL0     H11263   9.700   3.805  10.785 -0.1161 -0.7178  2.8542
  843MOL0     H11264  10.002   4.052  10.836  2.8634 -1.3654 -0.2201
  843MOL0     H11265  10.217   4.125  10.870  2.5708 -3.4223  1.7526
  843MOL0     H11266  10.318   4.223  11.313  0.2461 -1.0262  0.5668
  843MOL0     H11267  10.468   4.280  11.232 -0.5017 -0.7196  2.9076
  843MOL0     H11268  10.335   4.011  11.175 -3.1555  3.4255 -0.3311
  843MOL0     H11269  10.501   4.067  11.142  1.5876 -0.6297  3.1016
  843MOL0     H11270  10.467   3.902  11.316  2.8331  0.2504 -2.8457
  843MOL0     H11271  10.402   4.042  11.418 -0.1279  3.0080 -1.1522
  843MOL0     H11272  10.640   4.157  11.372  1.5087  0.3969 -0.3200
  843MOL0     H11273  10.654   4.037  11.487 -2.1450  2.5740  0.2473
  843MOL0     H11274  10.898   3.901  11.155  0.8655  0.2028  1.0170
  843MOL0     H11275  10.125   4.194  11.280  2.4937 -0.1272 -0.9904
  843MOL0     H11276   9.889   4.160  11.236  1.4072 -0.1898  1.2880
  844MOL0     O11277   2.425   0.026   4.244 -0.5491 -0.4610  0.2885
  844MOL0     C11278   2.520  -0.049   4.266 -0.7144 -0.5474  1.1086
  844MOL0     O11279   2.512  -0.169   4.328 -0.2661 -0.0486 -0.1223
  844MOL0     C11280   2.387  -0.213   4.377  0.0609  0.1732  0.6937
  844MOL0     C11281   2.386  -0.281   4.494 -0.1720 -0.6278  0.1694
  844MOL0     C11282   2.267  -0.331   4.545 -1.0585 -0.0579 -0.9009
  844MOL0     C11283   2.154  -0.336   4.471 -0.0932 -0.0865  0.7541
  844MOL0     O11284   2.037  -0.400   4.505  0.6116 -0.4226  0.2897
  844MOL0     C11285   2.050  -0.524   4.580 -0.0861 -0.9638 -0.7390
  844MOL0     C11286   1.916  -0.602   4.564  0.3311  0.2230  0.3913
  844MOL0     C11287   1.797  -0.504   4.611  0.4580 -0.1650  0.5583
  844MOL0     C11288   1.660  -0.575   4.608  0.1252  1.2971 -0.2803
  844MOL0     C11289   1.557  -0.473   4.661 -0.8499  0.1315  0.6296
  844MOL0     C11290   1.418  -0.524   4.671 -0.3148  0.0938  0.3011
  844MOL0     C11291   1.335  -0.421   4.748 -0.2956 -0.0545 -0.4435
  844MOL0     C11292   1.183  -0.457   4.765  0.0530  0.2608 -1.1420
  844MOL0     N11293   1.140  -0.551   4.863  0.1753 -0.3824 -0.1331
  844MOL0     C11294   1.223  -0.635   4.928  0.1542 -0.2389 -0.4216
  844MOL0     C11295   1.153  -0.688   5.030 -0.0318  0.5564 -0.2599
  844MOL0     C11296   1.190  -0.790   5.139 -0.1108 -0.4160  0.8792
  844MOL0     C11297   1.214  -0.741   5.280  0.3037 -0.4680 -0.6333
  844MOL0     C11298   1.363  -0.709   5.307  0.0124  0.6964 -0.1108
  844MOL0     C11299   1.433  -0.611   5.213 -0.5737 -0.3978  0.1645
  844MOL0     O11300   1.562  -0.577   5.262 -0.3074 -0.1314  0.1877
  844MOL0     C11301   1.656  -0.503   5.185  0.4687  0.0767 -0.2960
  844MOL0     C11302   1.629  -0.403   5.092  1.1952  0.6992  0.5767
  844MOL0     C11303   1.733  -0.352   5.021  0.1453  0.0236 -0.1599
  844MOL0     C11304   1.869  -0.381   5.038  0.1679  0.4535 -0.2477
  844MOL0     C11305   1.962  -0.297   4.966  0.7183 -0.3341  0.1722
  844MOL0     O11306   1.920  -0.176   4.912  1.4494  0.5413 -0.1745
  844MOL0     C11307   2.014  -0.093   4.860  0.8741  0.4791  0.1778
  844MOL0     C11308   2.062   0.023   4.923  0.1913  0.7459 -0.4220
  844MOL0     C11309   2.143   0.112   4.859 -0.7123  0.5567 -0.0112
  844MOL0     C11310   2.196   0.084   4.737  0.7036 -0.1120  0.7442
  844MOL0     O11311   2.279   0.183   4.687  0.4526 -0.5684  0.0030
  844MOL0     C11312   2.302   0.187   4.547  0.2353 -0.9869 -0.3882
  844MOL0     C11313   2.384   0.316   4.536 -0.0300  0.3101 -0.9491
  844MOL0     C11314   2.524   0.293   4.588 -0.1303  0.2004 -0.2938
  844MOL0     C11315   2.609   0.215   4.485 -0.1558  0.5830  0.5860
  844MOL0     C11316   2.724   0.142   4.562 -0.1124 -0.0659  0.1396
  844MOL0     C11317   2.847   0.234   4.594  0.3118 -0.1656 -0.5654
  844MOL0     C11318   2.976   0.158   4.584 -0.6594  0.0093  0.7897
  844MOL0     C11319   3.104   0.243   4.611 -0.3275  1.0089 -0.3108
  844MOL0    Cl11320   3.116   0.361   4.477 -0.7225  0.1793  0.2529
  844MOL0     C11321   2.150  -0.033   4.666  0.2686 -0.1211 -0.6303
  844MOL0     C11322   2.056  -0.125   4.732  0.7787 -0.0644  0.2055
  844MOL0     O11323   2.075  -0.341   4.966 -0.1341 -0.2449  0.0936
  844MOL0     C11324   1.896  -0.476   5.136 -0.3483  0.3105  0.1752
  844MOL0     C11325   1.789  -0.532   5.216 -0.0332  0.1744  0.0277
  844MOL0     N11326   1.023  -0.643   5.020 -0.4298  0.2688 -0.6584
  844MOL0     N11327   1.017  -0.557   4.922 -0.0004  0.1675  0.9662
  844MOL0     C11328   2.157  -0.276   4.341  0.3042 -0.4039 -0.2475
  844MOL0     C11329   2.270  -0.211   4.297  0.0387  0.7708  0.3968
  844MOL0     C11330   2.657  -0.006   4.205  0.4512 -0.1150 -0.3346
  844MOL0     C11331   2.767  -0.088   4.206 -0.3883  0.7633 -0.2579
  844MOL0     C11332   2.893  -0.059   4.153 -0.0619 -0.4246 -1.1347
  844MOL0     C11333   2.912   0.074   4.103  0.8098  0.9710  0.0390
  844MOL0     O11334   3.023   0.126   4.058  0.5824  0.8883  0.3215
  844MOL0     C11335   3.117   0.161   4.163 -0.0923  0.1045 -0.2877
  844MOL0     C11336   3.256   0.177   4.121 -0.2342  0.2338 -0.0885
  844MOL0     C11337   3.336   0.252   4.231  0.5606  0.2490  0.0888
  844MOL0     C11338   3.488   0.263   4.213 -0.0467 -0.2411  0.0855
  844MOL0     C11339   3.522   0.362   4.106 -0.5440  0.0526 -0.0813
  844MOL0     C11340   3.546   0.442   4.018  0.4498 -0.9925 -0.4784
  844MOL0     C11341   2.810   0.161   4.098  0.2480 -0.1335  0.1303
  844MOL0     C11342   2.686   0.125   4.148  0.3213 -0.8369  0.2578
  844MOL0     H11343   2.482  -0.296   4.543  0.2141  2.2058  0.4655
  844MOL0     H11344   2.265  -0.389   4.636 -0.4008 -0.1312 -0.9274
  844MOL0     H11345   2.071  -0.514   4.687  0.3514 -1.6926 -0.7444
  844MOL0     H11346   2.132  -0.581   4.534 -0.0719 -3.1781  1.7738
  844MOL0     H11347   1.912  -0.697   4.618 -0.7662  0.0051 -0.0351
  844MOL0     H11348   1.911  -0.619   4.457 -6.2626 -0.3638  0.3768
  844MOL0     H11349   1.798  -0.410   4.555 -0.4054  0.2092  1.1501
  844MOL0     H11350   1.811  -0.470   4.714  0.5535  0.1762  0.4342
  844MOL0     H11351   1.628  -0.604   4.507  1.5620  0.2083 -0.4616
  844MOL0     H11352   1.669  -0.670   4.662 -0.2838 -0.2898 -2.7704
  844MOL0     H11353   1.564  -0.383   4.599 -0.4614 -1.7976 -2.3050
  844MOL0     H11354   1.589  -0.451   4.763  1.5802  1.8563 -0.4160
  844MOL0     H11355   1.433  -0.617   4.727 -0.1773  0.3475  0.6909
  844MOL0     H11356   1.385  -0.533   4.568  2.4930  3.5917 -1.1311
  844MOL0     H11357   1.384  -0.392   4.842  1.5723  1.0337 -1.7084
  844MOL0     H11358   1.343  -0.326   4.695  0.7783 -1.2995 -2.6192
  844MOL0     H11359   1.145  -0.491   4.668  0.3973 -4.1572  0.0499
  844MOL0     H11360   1.130  -0.363   4.781  0.4962  0.5259 -1.2245
  844MOL0     H11361   1.329  -0.648   4.909  1.0950  3.9722  0.9848
  844MOL0     H11362   1.274  -0.850   5.102 -1.1694 -0.6473 -1.3301
  844MOL0     H11363   1.105  -0.859   5.145  1.0642 -2.1986 -1.2724
  844MOL0     H11364   1.184  -0.833   5.331  0.2865 -0.4544 -0.6186
  844MOL0     H11365   1.156  -0.655   5.313  0.2784 -0.4766 -0.6548
  844MOL0     H11366   1.380  -0.674   5.410  1.7109  2.1945 -0.8530
  844MOL0     H11367   1.414  -0.805   5.322  0.5795  1.1991  1.3661
  844MOL0     H11368   1.380  -0.516   5.211 -2.0847 -1.2074 -0.1771
  844MOL0     H11369   1.436  -0.671   5.121  0.9681 -2.1194  1.2576
  844MOL0     H11370   1.526  -0.370   5.083  0.3643 -2.0900 -1.3206
  844MOL0     H11371   1.702  -0.275   4.950 -0.9187 -1.2254 -1.1045
  844MOL0     H11372   2.039   0.049   5.026  0.6503  1.1217 -0.4144
  844MOL0     H11373   2.169   0.194   4.925 -1.7753  0.2070  0.8678
  844MOL0     H11374   2.208   0.183   4.492  0.1380 -0.6089 -0.2509
  844MOL0     H11375   2.366   0.104   4.517 -0.3954 -1.6379  0.0527
  844MOL0     H11376   2.342   0.397   4.597  2.0720 -0.1816  1.3181
  844MOL0     H11377   2.390   0.360   4.436  3.3800 -0.4534 -1.2193
  844MOL0     H11378   2.524   0.223   4.672  1.3731  2.4258  1.7153
  844MOL0     H11379   2.588   0.381   4.602  0.1478 -0.2525  1.4253
  844MOL0     H11380   2.552   0.135   4.438 -2.5207  3.8420 -2.6477
  844MOL0     H11381   2.648   0.285   4.411  1.2571 -1.4823 -0.7422
  844MOL0     H11382   2.771   0.091   4.477  1.4802  3.2437 -1.1626
  844MOL0     H11383   2.690   0.086   4.649 -0.9215  0.6487  0.2869
  844MOL0     H11384   2.834   0.277   4.693 -3.1041  2.7216 -2.0706
  844MOL0     H11385   2.844   0.323   4.531 -3.1607  1.8120  2.0611
  844MOL0     H11386   2.974   0.065   4.641  3.3208  0.4309  1.9398
  844MOL0     H11387   2.978   0.129   4.479 -1.3988  0.9526  0.4943
  844MOL0     H11388   3.186   0.172   4.601 -0.4486  1.2013 -3.9735
  844MOL0     H11389   3.107   0.302   4.703  0.1451 -1.2749  1.2038
  844MOL0     H11390   2.201  -0.071   4.578  0.0652 -3.3987  0.5210
  844MOL0     H11391   2.025  -0.211   4.674  0.8351  2.2134 -3.4946
  844MOL0     H11392   1.998  -0.506   5.154 -0.7142 -1.5888 -0.5931
  844MOL0     H11393   1.810  -0.599   5.299 -3.5060  2.2290  2.8412
  844MOL0     H11394   2.071  -0.287   4.276  0.2636 -2.3491  0.0694
  844MOL0     H11395   2.250  -0.167   4.199 -1.8828 -2.7665 -0.9574
  844MOL0     H11396   2.769  -0.192   4.237  0.8569  0.9951  0.5273
  844MOL0     H11397   2.973  -0.128   4.126 -1.8498 -1.2731 -4.8797
  844MOL0     H11398   3.133   0.075   4.229  1.1416 -1.0347 -1.9937
  844MOL0     H11399   3.072   0.244   4.219 -0.0260  0.7572 -1.1747
  844MOL0     H11400   3.299   0.079   4.096 -4.4432 -1.2590 -2.4427
  844MOL0     H11401   3.270   0.233   4.028 -2.6961  1.8243  0.4038
  844MOL0     H11402   3.326   0.198   4.325  0.0649  1.4338  0.7354
  844MOL0     H11403   3.289   0.348   4.254 -3.4467 -1.4139 -0.2258
  844MOL0     H11404   3.519   0.320   4.301 -0.7604  0.1841  0.0768
  844MOL0     H11405   3.535   0.165   4.214  1.4284  0.3562  3.5116
  844MOL0     H11406   3.569   0.526   3.956  0.7441 -0.0185  0.9003
  844MOL0     H11407   2.817   0.261   4.057 -1.4880 -0.2166 -0.4469
  844MOL0     H11408   2.608   0.201   4.138  3.6364  3.0389  0.9813
  845MOL0     O11409   2.510   9.723   4.184  0.4206 -0.1712 -0.5634
  845MOL0     C11410   2.532   9.775   4.296  0.5736 -0.5838  0.2603
  845MOL0     O11411   2.432   9.815   4.381 -1.0852 -0.6515 -0.1593
  845MOL0     C11412   2.304   9.779   4.365  0.1222  0.3133  0.2106
  845MOL0     C11413   2.224   9.746   4.479  0.2547 -0.5726 -0.0478
  845MOL0     C11414   2.088   9.735   4.472  0.3839 -0.1773 -0.7441
  845MOL0     C11415   2.020   9.763   4.354 -0.5638  0.5721  0.8185
  845MOL0     O11416   1.878   9.752   4.347 -0.0527 -0.3768 -0.1462
  845MOL0     C11417   1.835   9.621   4.388  0.8199 -0.9452  0.2080
  845MOL0     C11418   1.730   9.559   4.303  0.5719 -0.3625 -0.4504
  845MOL0     C11419   1.583   9.579   4.340  0.4306 -0.8459 -0.5593
  845MOL0     C11420   1.490   9.505   4.246 -0.3477  0.0914 -0.0018
  845MOL0     C11421   1.344   9.505   4.274  0.2929 -0.2626  0.7988
  845MOL0     C11422   1.277   9.638   4.230  0.2745 -0.5097  0.1150
  845MOL0     C11423   1.122   9.632   4.249 -0.4840  0.2184  0.1880
  845MOL0     C11424   1.055   9.548   4.138 -0.4320 -0.4465  0.5774
  845MOL0     N11425   0.914   9.545   4.171 -0.5015  0.4263 -0.0601
  845MOL0     C11426   0.859   9.530   4.300 -0.2580  0.1106  0.8465
  845MOL0     C11427   0.727   9.538   4.275 -0.0701  0.2423 -0.9703
  845MOL0     C11428   0.625   9.536   4.384  0.0906  0.1279  0.1821
  845MOL0     C11429   0.484   9.505   4.338 -0.1582  0.8213  0.6489
  845MOL0     C11430   0.388   9.513   4.458 -0.8750  0.4478  0.7718
  845MOL0     C11431   0.245   9.480   4.413 -0.1292  0.0797  0.2180
  845MOL0     O11432   0.151   9.511   4.520 -0.2472 -0.3570  0.8557
  845MOL0     C11433   0.057   9.600   4.477 -0.4690 -0.0732  0.5567
  845MOL0     C11434  -0.080   9.558   4.477  0.9191 -0.5690  0.4283
  845MOL0     C11435  -0.174   9.658   4.441  0.5329 -0.3115 -0.1975
  845MOL0     C11436  -0.144   9.790   4.410  0.6996  0.0435 -0.1910
  845MOL0     C11437  -0.253   9.883   4.369  0.5845  0.7328  0.0361
  845MOL0     O11438  -0.381   9.841   4.383  0.7513  0.4325  0.2545
  845MOL0     C11439  -0.480   9.935   4.371  0.7123 -0.3596  0.3761
  845MOL0     C11440  -0.587   9.902   4.288 -0.1417  0.2420 -0.5757
  845MOL0     C11441  -0.700   9.984   4.272 -0.7065 -0.0922  0.3282
  845MOL0     C11442  -0.708  10.107   4.343  0.0247  0.5538 -0.8344
  845MOL0     O11443  -0.811  10.192   4.317 -0.5747  0.2586 -0.1842
  845MOL0     C11444  -0.832  10.313   4.392 -1.1576  0.2884  0.5551
  845MOL0     C11445  -0.946  10.396   4.331 -0.4328 -0.2190 -0.2337
  845MOL0     C11446  -1.072  10.319   4.287 -0.7766 -0.2993  0.1637
  845MOL0     C11447  -1.184  10.417   4.250  0.0060  0.7291 -0.1583
  845MOL0     C11448  -1.309  10.349   4.191 -0.1381  0.0569 -0.5729
  845MOL0     C11449  -1.382  10.263   4.291  0.6928 -0.1987 -0.4516
  845MOL0     C11450  -1.525  10.239   4.234  0.4404  0.7046 -0.5328
  845MOL0     C11451  -1.547  10.169   4.098  0.7453  0.3608 -1.4442
  845MOL0    Cl11452  -1.720  10.111   4.090  0.1921  0.0928 -0.1714
  845MOL0     C11453  -0.593  10.135   4.430  0.1992 -0.9130 -0.7264
  845MOL0     C11454  -0.489  10.053   4.450  0.0359  0.1057  0.0685
  845MOL0     O11455  -0.224   9.990   4.334 -0.3359 -0.8950 -0.6654
  845MOL0     C11456  -0.012   9.826   4.403 -0.6641 -0.6131  0.1583
  845MOL0     C11457   0.087   9.731   4.433  0.2704  0.4945  0.4332
  845MOL0     N11458   0.706   9.572   4.143  0.4401 -0.0526 -0.2438
  845MOL0     N11459   0.817   9.574   4.084 -0.0706 -0.7685  0.3593
  845MOL0     C11460   2.096   9.784   4.238  0.5783 -0.9956  0.2268
  845MOL0     C11461   2.231   9.796   4.244 -0.8257  1.3002  0.3778
  845MOL0     C11462   2.675   9.780   4.333 -0.6175 -0.4135 -0.9528
  845MOL0     C11463   2.716   9.797   4.466 -0.1393  0.4094 -0.0360
  845MOL0     C11464   2.849   9.791   4.510 -0.2225 -0.0600  0.1077
  845MOL0     C11465   2.954   9.771   4.413  0.4964  0.6290 -0.3912
  845MOL0     O11466   3.093   9.763   4.434  0.0024  0.3753  0.5395
  845MOL0     C11467   3.142   9.767   4.568 -0.5275  0.1488  0.7836
  845MOL0     C11468   3.173   9.908   4.625  0.1460  0.2254 -0.8613
  845MOL0     C11469   3.315   9.938   4.582  1.4154 -0.1738  0.2738
  845MOL0     C11470   3.340  10.084   4.608  0.2665  0.2745 -0.1007
  845MOL0     C11471   3.457  10.128   4.534  0.1365 -0.4979  0.4491
  845MOL0     C11472   3.551  10.160   4.467 -0.2609 -0.4147  0.1075
  845MOL0     C11473   2.914   9.762   4.283  0.1392 -0.1511  0.7083
  845MOL0     C11474   2.781   9.764   4.240 -0.8065  1.0414  0.8948
  845MOL0     H11475   2.281   9.738   4.570 -1.0157  4.1392  1.4968
  845MOL0     H11476   2.027   9.723   4.562  2.2531 -1.1904  0.4491
  845MOL0     H11477   1.801   9.625   4.492  2.1851  0.0031  0.6398
  845MOL0     H11478   1.911   9.543   4.399  0.8875 -0.8499  0.4155
  845MOL0     H11479   1.742   9.451   4.309  0.4982 -0.2840  2.9705
  845MOL0     H11480   1.740   9.597   4.201 -3.8189  0.4728 -0.7827
  845MOL0     H11481   1.555   9.681   4.314 -0.3184 -1.1940 -1.1726
  845MOL0     H11482   1.564   9.552   4.445  2.0588  1.9397  0.5566
  845MOL0     H11483   1.514   9.546   4.147  0.1060 -2.7493 -1.1680
  845MOL0     H11484   1.513   9.398   4.242 -1.5926 -0.3834  3.1484
  845MOL0     H11485   1.310   9.475   4.374 -1.2914 -1.3549 -0.0310
  845MOL0     H11486   1.295   9.429   4.213 -4.0949  3.5008 -1.0102
  845MOL0     H11487   1.295   9.677   4.130  1.3938 -0.1956  0.4182
  845MOL0     H11488   1.310   9.714   4.302 -0.3800  0.6594 -0.7834
  845MOL0     H11489   1.115   9.577   4.343 -1.2199  0.3254  0.1991
  845MOL0     H11490   1.068   9.727   4.253  1.3622  1.3036  0.8819
  845MOL0     H11491   1.101   9.448   4.136  1.6999  0.4753 -1.4018
  845MOL0     H11492   1.070   9.589   4.038 -1.9461 -4.4547 -1.5112
  845MOL0     H11493   0.900   9.521   4.400  2.8147  1.0662 -0.2191
  845MOL0     H11494   0.634   9.631   4.438 -0.6174 -0.2994  1.0716
  845MOL0     H11495   0.646   9.454   4.453  2.5590 -0.3987 -1.0619
  845MOL0     H11496   0.479   9.411   4.283 -3.9369  3.1781 -3.7330
  845MOL0     H11497   0.449   9.582   4.268  0.4115  1.0576  0.6211
  845MOL0     H11498   0.408   9.441   4.539  1.8266  0.1811 -0.0564
  845MOL0     H11499   0.380   9.611   4.505 -2.5199  0.4651  0.5169
  845MOL0     H11500   0.243   9.373   4.391 -0.1071  0.3942 -1.3883
  845MOL0     H11501   0.236   9.534   4.319 -0.3946 -0.4338 -0.0555
  845MOL0     H11502  -0.100   9.455   4.506  1.8449 -0.5958  0.9973
  845MOL0     H11503  -0.281   9.641   4.438  0.4838 -0.0834  0.2582
  845MOL0     H11504  -0.585   9.798   4.256 -3.2531  0.0955 -0.6251
  845MOL0     H11505  -0.788   9.949   4.218 -0.3398  3.0599 -2.6782
  845MOL0     H11506  -0.738  10.369   4.385  0.7273 -2.4423  2.1056
  845MOL0     H11507  -0.845  10.292   4.499  0.2240 -0.8104  0.5320
  845MOL0     H11508  -0.933  10.450   4.237 -2.8347 -0.6700 -0.8715
  845MOL0     H11509  -0.973  10.479   4.397 -0.5222 -0.5337  0.1325
  845MOL0     H11510  -1.102  10.255   4.370 -0.9028  0.4737  0.7300
  845MOL0     H11511  -1.039  10.264   4.198 -1.5992 -0.8497  0.1904
  845MOL0     H11512  -1.209  10.454   4.350 -0.5132 -1.4848  0.5776
  845MOL0     H11513  -1.152  10.501   4.187 -1.3660  1.1221 -0.3639
  845MOL0     H11514  -1.272  10.296   4.102  1.0733  0.6314 -0.4293
  845MOL0     H11515  -1.380  10.426   4.158  1.6432  2.4930  0.9769
  845MOL0     H11516  -1.396  10.316   4.385 -2.3153 -1.1690 -0.2171
  845MOL0     H11517  -1.333  10.169   4.317  5.2278  2.2575  0.8599
  845MOL0     H11518  -1.575  10.181   4.313  0.3218 -1.3803 -2.0618
  845MOL0     H11519  -1.560  10.343   4.240  4.2016  2.0834  0.0712
  845MOL0     H11520  -1.480  10.083   4.105  3.1447  2.2558  2.0220
  845MOL0     H11521  -1.520  10.226   4.008  0.5837  1.0807 -1.0394
  845MOL0     H11522  -0.585  10.220   4.498  1.7749 -1.2321 -0.4828
  845MOL0     H11523  -0.397  10.076   4.502  1.0534 -1.3501 -0.9972
  845MOL0     H11524   0.008   9.929   4.376 -2.4512  0.1989  1.6545
  845MOL0     H11525   0.190   9.764   4.425  1.0644 -1.8632  0.1538
  845MOL0     H11526   2.045   9.818   4.148 -0.8292 -1.3513  0.8671
  845MOL0     H11527   2.282   9.831   4.155  3.8882 -1.5411  1.6370
  845MOL0     H11528   2.637   9.817   4.537  0.8016 -1.3793  1.6134
  845MOL0     H11529   2.869   9.801   4.616  0.9173 -0.8171 -0.0194
  845MOL0     H11530   3.234   9.710   4.558  0.5509  2.1819 -2.0570
  845MOL0     H11531   3.077   9.706   4.632  0.7165 -1.7106  0.3595
  845MOL0     H11532   3.095   9.979   4.595  0.4528  1.0893  0.3280
  845MOL0     H11533   3.162   9.909   4.734  0.8467  1.6177 -0.7710
  845MOL0     H11534   3.319   9.924   4.473 -3.0663  6.1781 -1.3019
  845MOL0     H11535   3.390   9.887   4.643 -0.1458 -0.2610  2.1878
  845MOL0     H11536   3.257  10.144   4.571 -1.6962 -2.0332  0.3700
  845MOL0     H11537   3.368  10.096   4.713 -0.1027  0.0764  0.0217
  845MOL0     H11538   3.626  10.200   4.401 -3.9451  2.0304 -3.0830
  845MOL0     H11539   2.999   9.747   4.217  0.6352 -0.4751  1.4106
  845MOL0     H11540   2.753   9.760   4.135 -1.4647  2.3081  0.9997
  846MOL0     O11541   4.159   2.467   8.857 -0.4867  0.8264 -0.0195
  846MOL0     C11542   4.225   2.412   8.766  0.2382  0.2826 -0.8945
  846MOL0     O11543   4.170   2.336   8.665  0.0805  0.2708 -0.3285
  846MOL0     C11544   4.037   2.334   8.639 -0.4829 -0.0084  0.1657
  846MOL0     C11545   3.983   2.208   8.617  0.0665 -0.5377 -0.0273
  846MOL0     C11546   3.848   2.200   8.593 -0.8179 -0.5515  0.8304
  846MOL0     C11547   3.760   2.312   8.585 -0.7905 -0.0210  0.1499
  846MOL0     O11548   3.624   2.312   8.576 -0.1369 -0.7182 -0.6706
  846MOL0     C11549   3.574   2.217   8.495 -0.2113  0.1502 -0.1433
  846MOL0     C11550   3.428   2.250   8.452  0.0248 -0.0156  0.3305
  846MOL0     C11551   3.321   2.223   8.553  0.1587  0.0978 -0.4008
  846MOL0     C11552   3.182   2.253   8.495 -1.0185 -0.1735  0.1215
  846MOL0     C11553   3.055   2.208   8.568 -0.1401  0.2372  0.4919
  846MOL0     C11554   3.036   2.045   8.569 -0.1626  0.0023 -0.0951
  846MOL0     C11555   3.048   1.987   8.713  0.0188  0.0923 -0.1089
  846MOL0     C11556   3.050   1.831   8.720 -0.2802 -0.6329 -0.6723
  846MOL0     N11557   2.913   1.773   8.728 -0.6763 -0.2078 -0.1044
  846MOL0     C11558   2.849   1.736   8.846 -0.8201 -0.2365 -0.2821
  846MOL0     C11559   2.741   1.666   8.798 -0.2331 -0.9612 -0.1132
  846MOL0     C11560   2.652   1.594   8.893 -0.0187 -0.5008  0.1113
  846MOL0     C11561   2.508   1.649   8.871  0.9106 -0.4155 -0.3215
  846MOL0     C11562   2.404   1.546   8.921  0.4000  0.0588 -0.2181
  846MOL0     C11563   2.417   1.508   9.067  0.4176 -0.3779 -0.5085
  846MOL0     O11564   2.368   1.618   9.155 -0.2863  0.1614  0.4256
  846MOL0     C11565   2.237   1.606   9.203 -0.0051  0.4716 -0.0562
  846MOL0     C11566   2.203   1.489   9.272 -0.0425  0.4482  0.4126
  846MOL0     C11567   2.067   1.478   9.308 -0.2093  0.0195 -0.0327
  846MOL0     C11568   1.977   1.579   9.280  0.0575  0.5166 -0.4806
  846MOL0     C11569   1.830   1.554   9.306 -0.1956  1.0134  0.2322
  846MOL0     O11570   1.788   1.427   9.327  0.2729 -0.8928  0.2144
  846MOL0     C11571   1.650   1.412   9.346 -0.0625 -0.5516 -0.5759
  846MOL0     C11572   1.565   1.401   9.236  0.2513 -0.4867 -0.1012
  846MOL0     C11573   1.433   1.381   9.261 -0.0771 -0.0367 -0.6592
  846MOL0     C11574   1.381   1.364   9.390 -1.1612  0.0798 -0.5293
  846MOL0     O11575   1.255   1.329   9.411 -0.4155 -0.3019 -0.0829
  846MOL0     C11576   1.199   1.219   9.329  0.2959 -0.2077 -0.0106
  846MOL0     C11577   1.124   1.121   9.420 -0.0884  0.5302  0.1406
  846MOL0     C11578   1.036   1.019   9.343 -0.7285  0.4175  0.3852
  846MOL0     C11579   0.954   0.926   9.431  0.5736 -0.1227  0.4546
  846MOL0     C11580   0.894   0.808   9.347 -0.2410  0.2124  0.4650
  846MOL0     C11581   0.876   0.681   9.437  0.4409 -0.4217  0.1751
  846MOL0     C11582   1.006   0.598   9.469  0.9064 -0.4069  1.7328
  846MOL0     C11583   0.961   0.496   9.578  0.1175 -0.6436 -0.2527
  846MOL0    Cl11584   0.847   0.368   9.517  0.2730  0.6090  0.0145
  846MOL0     C11585   1.466   1.372   9.493 -0.7030  0.0212  0.0941
  846MOL0     C11586   1.602   1.403   9.479 -0.1391 -0.9264 -0.4720
  846MOL0     O11587   1.760   1.654   9.295 -0.0581  0.9291  0.2196
  846MOL0     C11588   2.025   1.699   9.221 -0.2124  0.0107  1.2273
  846MOL0     C11589   2.154   1.709   9.175 -0.9515  0.1844  0.5742
  846MOL0     N11590   2.745   1.664   8.667  0.2305  0.0504 -0.1693
  846MOL0     N11591   2.840   1.730   8.623 -0.1778 -0.4333 -0.1772
  846MOL0     C11592   3.823   2.435   8.595 -0.0462 -0.1709  0.3814
  846MOL0     C11593   3.961   2.451   8.621  0.3897 -0.6000 -0.2614
  846MOL0     C11594   4.368   2.428   8.774  0.4956  0.6888  0.3260
  846MOL0     C11595   4.433   2.452   8.896 -0.1779  0.2399 -0.4962
  846MOL0     C11596   4.567   2.481   8.911 -1.1012 -0.1082  0.5023
  846MOL0     C11597   4.653   2.472   8.799 -1.0738  0.3212 -0.3015
  846MOL0     O11598   4.792   2.492   8.801 -0.6444 -0.6039 -0.0559
  846MOL0     C11599   4.843   2.525   8.931  0.4379 -0.1324  0.0225
  846MOL0     C11600   4.994   2.552   8.921  0.5523 -0.1024  0.1929
  846MOL0     C11601   5.011   2.695   8.874  0.1348  0.3120  0.6600
  846MOL0     C11602   5.156   2.706   8.816 -0.6679  0.6009 -0.2448
  846MOL0     C11603   5.191   2.840   8.776  0.4763 -0.1755 -0.5819
  846MOL0     C11604   5.236   2.942   8.724 -0.3096 -0.3562  0.1011
  846MOL0     C11605   4.590   2.412   8.679 -0.5078  0.5715 -0.8507
  846MOL0     C11606   4.451   2.395   8.664 -0.3481 -0.1506 -0.4231
  846MOL0     H11607   4.050   2.122   8.618  1.3975  0.4327 -0.9825
  846MOL0     H11608   3.812   2.097   8.586  0.7816 -1.0304 -1.3331
  846MOL0     H11609   3.579   2.119   8.543 -0.0299  0.8380  1.2661
  846MOL0     H11610   3.625   2.206   8.399 -1.6545 -0.0318 -0.9312
  846MOL0     H11611   3.409   2.185   8.367 -2.7253 -1.6296  2.0239
  846MOL0     H11612   3.430   2.354   8.418  4.1695 -0.8013 -2.5623
  846MOL0     H11613   3.334   2.282   8.644  0.3592 -1.3773  0.5514
  846MOL0     H11614   3.315   2.119   8.587  3.2013 -0.0060  0.1218
  846MOL0     H11615   3.180   2.361   8.482  0.7751  0.7151  5.0395
  846MOL0     H11616   3.175   2.215   8.393  2.9427 -0.4445 -0.1708
  846MOL0     H11617   2.969   2.266   8.533  0.6205  1.8960  1.2314
  846MOL0     H11618   3.083   2.249   8.666  0.9133  0.6566  0.0264
  846MOL0     H11619   3.122   2.004   8.514  0.7197  2.2906 -0.5607
  846MOL0     H11620   2.940   2.022   8.523 -1.6321  0.9794  2.2949
  846MOL0     H11621   3.144   2.022   8.752 -0.1799  0.9779 -0.4088
  846MOL0     H11622   2.988   2.028   8.795  0.2590 -0.1465  0.1898
  846MOL0     H11623   3.110   1.797   8.805 -0.3297 -0.3427 -0.5186
  846MOL0     H11624   3.104   1.798   8.631  0.6678 -0.0255 -0.3405
  846MOL0     H11625   2.881   1.742   8.949 -0.0106 -3.7177 -0.2031
  846MOL0     H11626   2.685   1.606   8.996  0.5085 -1.7832  0.1071
  846MOL0     H11627   2.656   1.488   8.869  2.5696  0.3340 -4.1187
  846MOL0     H11628   2.493   1.672   8.765 -1.3854  0.3879  0.1303
  846MOL0     H11629   2.489   1.746   8.918 -0.7439  1.3414 -4.1754
  846MOL0     H11630   2.306   1.593   8.906  0.1809 -0.1442  0.5319
  846MOL0     H11631   2.410   1.464   8.850  2.0530  0.2288 -0.3120
  846MOL0     H11632   2.518   1.473   9.090  0.6495  0.5627 -0.0324
  846MOL0     H11633   2.354   1.420   9.078  0.1961 -0.3512 -1.4604
  846MOL0     H11634   2.278   1.415   9.299 -1.2862 -1.3888 -0.9499
  846MOL0     H11635   2.027   1.387   9.350 -1.8845  0.2163 -1.1344
  846MOL0     H11636   1.612   1.414   9.139 -1.0377  1.0390 -0.5549
  846MOL0     H11637   1.358   1.364   9.184 -0.1479 -1.8702 -0.2427
  846MOL0     H11638   1.279   1.167   9.275  2.8452  1.2001  2.1405
  846MOL0     H11639   1.123   1.259   9.260 -2.7661  0.6907  3.5835
  846MOL0     H11640   1.059   1.179   9.486  0.1684  1.8096 -0.6877
  846MOL0     H11641   1.189   1.064   9.487 -2.2547 -1.2260  0.8639
  846MOL0     H11642   1.105   0.962   9.280 -1.0654 -1.5876  1.7545
  846MOL0     H11643   0.960   1.072   9.285  0.2977  0.0201 -1.4062
  846MOL0     H11644   1.027   0.888   9.502  0.7581 -1.8067 -0.5820
  846MOL0     H11645   0.870   0.982   9.475 -0.2428  0.6952 -1.9725
  846MOL0     H11646   0.966   0.780   9.269 -3.7130 -0.4718 -2.8315
  846MOL0     H11647   0.804   0.836   9.292 -0.2860  1.6694  1.2584
  846MOL0     H11648   0.805   0.614   9.386 -2.9197 -0.2132  4.0428
  846MOL0     H11649   0.833   0.708   9.534  0.1126  0.2935 -0.1616
  846MOL0     H11650   1.030   0.542   9.378 -4.8036 -1.3226  0.3921
  846MOL0     H11651   1.093   0.659   9.494  1.9435 -0.7950 -0.6370
  846MOL0     H11652   0.905   0.554   9.653 -1.7183 -2.7775  0.1361
  846MOL0     H11653   1.047   0.457   9.633 -0.4944  0.4211  1.5660
  846MOL0     H11654   1.438   1.347   9.595 -0.8920  2.7913  0.8144
  846MOL0     H11655   1.672   1.396   9.561 -1.9934  0.0231  1.2991
  846MOL0     H11656   1.955   1.777   9.195  1.0140  0.9139  0.5379
  846MOL0     H11657   2.187   1.793   9.114 -0.5801  0.1423  0.7191
  846MOL0     H11658   3.771   2.529   8.580 -1.2986 -1.0580 -1.0598
  846MOL0     H11659   3.992   2.552   8.647  0.6917 -0.4699 -1.0959
  846MOL0     H11660   4.370   2.450   8.985 -0.6937 -2.2430 -0.8508
  846MOL0     H11661   4.600   2.511   9.010 -1.4824  0.7855  0.3716
  846MOL0     H11662   4.851   2.433   8.990  1.1887 -0.1768 -0.1421
  846MOL0     H11663   4.793   2.603   8.991 -0.5443  0.5917 -1.6533
  846MOL0     H11664   5.026   2.527   9.022 -1.4620 -0.6087  0.7348
  846MOL0     H11665   5.038   2.491   8.841 -1.8303 -0.3011 -1.0375
  846MOL0     H11666   4.992   2.764   8.956  0.7246 -0.4004  1.4131
  846MOL0     H11667   4.934   2.700   8.797  0.4527 -1.4206  0.1939
  846MOL0     H11668   5.232   2.666   8.884 -0.8550  0.4009 -0.1522
  846MOL0     H11669   5.157   2.645   8.726  0.8699  1.2649 -0.7167
  846MOL0     H11670   5.252   3.032   8.669 -1.8952 -0.2485 -0.2326
  846MOL0     H11671   4.644   2.395   8.587 -1.2006  0.7491 -1.2935
  846MOL0     H11672   4.413   2.370   8.565 -0.9011  2.2448 -0.8741
  847MOL0     O11673   2.534   2.834   9.587  0.3298  0.5316  0.0008
  847MOL0     C11674   2.575   2.724   9.605 -0.8067  0.7876 -0.0226
  847MOL0     O11675   2.503   2.605   9.593 -0.1604 -0.0834 -0.2015
  847MOL0     C11676   2.366   2.611   9.572 -1.1806  0.1052  0.7986
  847MOL0     C11677   2.280   2.572   9.669 -0.4765 -0.3071 -0.1797
  847MOL0     C11678   2.145   2.583   9.640  0.5652 -0.4124 -0.8780
  847MOL0     C11679   2.095   2.608   9.512 -0.6024  0.8850  0.1642
  847MOL0     O11680   1.959   2.613   9.472 -0.6981 -0.6437  0.5025
  847MOL0     C11681   1.857   2.587   9.565 -0.0237 -0.3067  0.1491
  847MOL0     C11682   1.729   2.584   9.495  0.1493 -0.1855  0.3345
  847MOL0     C11683   1.603   2.558   9.584  0.7376 -1.0608  0.3510
  847MOL0     C11684   1.481   2.558   9.499  0.5823 -1.1945  0.1667
  847MOL0     C11685   1.356   2.555   9.593 -0.2259  0.7222 -0.0497
  847MOL0     C11686   1.234   2.555   9.509  0.5451  0.9438  0.4420
  847MOL0     C11687   1.204   2.704   9.451  0.1028  0.5177 -0.2146
  847MOL0     C11688   1.071   2.708   9.373  0.3342 -0.5604 -0.6517
  847MOL0     N11689   0.950   2.711   9.461 -0.3595 -0.2235 -0.7731
  847MOL0     C11690   0.947   2.686   9.594  0.1059 -0.1751 -0.5880
  847MOL0     C11691   0.821   2.684   9.627 -0.4558  0.1038 -0.5624
  847MOL0     C11692   0.752   2.657   9.754 -0.2010  0.3345 -0.0707
  847MOL0     C11693   0.839   2.712   9.873  0.3044  0.4197 -0.0494
  847MOL0     C11694   0.753   2.722  10.000 -0.2121  0.6264 -0.1628
  847MOL0     C11695   0.758   2.586  10.081 -0.3011  0.2013 -0.2622
  847MOL0     O11696   0.693   2.614  10.207 -0.4016  0.3819 -0.5372
  847MOL0     C11697   0.566   2.673  10.217 -1.0469  1.2579  0.0739
  847MOL0     C11698   0.473   2.666  10.112  0.1633  0.3233 -0.1404
  847MOL0     C11699   0.345   2.723  10.142 -0.6058  0.0292 -0.5396
  847MOL0     C11700   0.306   2.780  10.269  0.4698 -0.1765  0.2050
  847MOL0     C11701   0.174   2.846  10.281 -0.2459  0.1516  0.2147
  847MOL0     O11702   0.127   2.846  10.408  0.0153 -0.0905  0.1188
  847MOL0     C11703  -0.002   2.862  10.443  0.1165 -0.7261 -0.5572
  847MOL0     C11704  -0.119   2.834  10.361 -0.0446 -0.1362  0.5475
  847MOL0     C11705  -0.251   2.862  10.415 -0.6996  0.1072  0.3418
  847MOL0     C11706  -0.271   2.913  10.543  0.1901  0.1849 -0.6137
  847MOL0     O11707  -0.392   2.937  10.595 -0.3552  0.8171  0.8975
  847MOL0     C11708  -0.519   2.908  10.523  0.3533 -0.2988  0.4142
  847MOL0     C11709  -0.643   2.918  10.604  0.6493 -0.7799 -0.0786
  847MOL0     C11710  -0.774   2.878  10.527 -0.2125  0.2097  1.1584
  847MOL0     C11711  -0.898   2.909  10.609  0.9478 -0.3273  0.1223
  847MOL0     C11712  -1.022   2.909  10.522  0.6157  0.3513  0.0829
  847MOL0     C11713  -1.138   2.963  10.611  0.3471  0.7579  0.1440
  847MOL0     C11714  -1.268   2.961  10.530 -0.6132  1.3609 -0.7032
  847MOL0     C11715  -1.394   2.977  10.613 -0.2029  0.5857 -1.1244
  847MOL0    Cl11716  -1.379   3.097  10.740 -0.7444 -0.2349  0.4153
  847MOL0     C11717  -0.154   2.933  10.620  0.7417 -0.4125  0.6585
  847MOL0     C11718  -0.027   2.923  10.569  0.3863  0.0003 -0.0402
  847MOL0     O11719   0.117   2.888  10.179 -0.9229 -0.1762  0.1559
  847MOL0     C11720   0.395   2.762  10.374 -0.7087 -0.4449  0.3324
  847MOL0     C11721   0.522   2.702  10.348  0.1484 -0.5414  0.1691
  847MOL0     N11722   0.740   2.695   9.519  0.2818 -0.2397  0.8831
  847MOL0     N11723   0.820   2.714   9.419 -0.1828  0.2857 -0.3456
  847MOL0     C11724   2.192   2.627   9.409 -0.0766 -0.3912  0.0452
  847MOL0     C11725   2.329   2.637   9.439  0.2174 -0.0210 -0.5272
  847MOL0     C11726   2.719   2.717   9.641  0.8880  0.1335  0.0522
  847MOL0     C11727   2.794   2.838   9.658 -0.1234 -0.0951  0.8384
  847MOL0     C11728   2.930   2.839   9.695  1.3288  0.5787 -0.5764
  847MOL0     C11729   2.995   2.720   9.704  0.6219  0.1278  1.0935
  847MOL0     O11730   3.127   2.706   9.714  0.0075  0.0820 -0.4921
  847MOL0     C11731   3.190   2.781   9.610  0.0763  0.1561  0.0681
  847MOL0     C11732   3.321   2.717   9.572  0.8303 -1.0326  0.5418
  847MOL0     C11733   3.309   2.584   9.503 -0.0294 -0.0874  0.0731
  847MOL0     C11734   3.457   2.543   9.456  0.8632 -0.0201 -0.5787
  847MOL0     C11735   3.447   2.420   9.384  0.9737  1.2205 -0.4763
  847MOL0     C11736   3.423   2.314   9.319  0.1841 -0.4696  0.6585
  847MOL0     C11737   2.925   2.604   9.688 -0.9652 -0.5567  0.1214
  847MOL0     C11738   2.788   2.592   9.657 -0.6431  0.8000  0.3514
  847MOL0     H11739   2.311   2.548   9.771 -0.4156  2.1395  0.4568
  847MOL0     H11740   2.078   2.557   9.722  1.0563  1.6233  0.2314
  847MOL0     H11741   1.858   2.665   9.642 -0.2886 -0.4993  0.3484
  847MOL0     H11742   1.879   2.492   9.613  0.1929 -0.5431 -0.4104
  847MOL0     H11743   1.734   2.505   9.420  0.2690 -0.4873  0.6582
  847MOL0     H11744   1.708   2.677   9.440 -0.5014  0.0994  1.0451
  847MOL0     H11745   1.581   2.629   9.664  1.3567  0.0387 -0.4295
  847MOL0     H11746   1.615   2.458   9.625  0.4817 -1.2949 -0.1388
  847MOL0     H11747   1.473   2.654   9.447  0.7472 -0.8330  0.7915
  847MOL0     H11748   1.481   2.488   9.415  0.5945  0.9757 -1.7352
  847MOL0     H11749   1.357   2.626   9.675 -3.7340  0.4084  0.4112
  847MOL0     H11750   1.364   2.453   9.631 -2.5875 -0.3324 -2.0748
  847MOL0     H11751   1.147   2.514   9.563  2.5446 -3.4252  0.7452
  847MOL0     H11752   1.247   2.483   9.429  3.0068  1.0461  0.6855
  847MOL0     H11753   1.208   2.770   9.538 -1.6584 -0.3828  0.6026
  847MOL0     H11754   1.280   2.737   9.380 -0.1318  0.6402 -0.4069
  847MOL0     H11755   1.078   2.629   9.297  3.8794  0.2134 -1.2903
  847MOL0     H11756   1.062   2.792   9.304 -0.0390 -1.2086 -1.4078
  847MOL0     H11757   1.030   2.679   9.664 -0.5002  4.2715  0.8799
  847MOL0     H11758   0.748   2.548   9.766  2.5332  0.4114  2.9328
  847MOL0     H11759   0.649   2.695   9.753 -1.0455 -1.8268 -1.0389
  847MOL0     H11760   0.879   2.811   9.848  2.1130 -0.4666 -0.8079
  847MOL0     H11761   0.919   2.641   9.895 -2.0879 -2.5794 -0.3216
  847MOL0     H11762   0.795   2.799  10.067 -2.1922  1.4964  0.1545
  847MOL0     H11763   0.655   2.752   9.964 -2.0757 -2.1063  2.1421
  847MOL0     H11764   0.863   2.559  10.095  0.3762  2.3577 -0.7635
  847MOL0     H11765   0.706   2.505  10.028  0.9310 -2.2517  2.0568
  847MOL0     H11766   0.503   2.613  10.023 -1.0312 -1.4793  0.4749
  847MOL0     H11767   0.269   2.727  10.064  1.6313  0.8126 -2.7805
  847MOL0     H11768  -0.092   2.784  10.268  0.4055  0.9648  0.0544
  847MOL0     H11769  -0.337   2.850  10.349 -0.4108 -1.1811  0.1789
  847MOL0     H11770  -0.519   2.808  10.478 -3.4156  0.6843 -2.2604
  847MOL0     H11771  -0.533   2.970  10.435 -0.6163 -1.2839 -0.1525
  847MOL0     H11772  -0.652   3.024  10.631  0.2270 -1.0686  0.9881
  847MOL0     H11773  -0.639   2.861  10.697  1.6425 -0.9105 -0.1950
  847MOL0     H11774  -0.782   2.773  10.498  0.8062  0.5104 -0.3216
  847MOL0     H11775  -0.781   2.939  10.436  0.5337  0.8803  1.5363
  847MOL0     H11776  -0.910   2.841  10.693 -1.3937 -0.2743 -0.1128
  847MOL0     H11777  -0.878   3.011  10.645 -0.6114  0.4954 -1.1989
  847MOL0     H11778  -1.045   2.802  10.519  2.1579 -0.2931  4.0251
  847MOL0     H11779  -1.001   2.959  10.427 -2.2704 -0.6980 -1.2102
  847MOL0     H11780  -1.116   3.066  10.641  0.3490  0.9987 -0.6774
  847MOL0     H11781  -1.131   2.903  10.703  3.0943 -0.7132 -0.9265
  847MOL0     H11782  -1.251   3.018  10.438  2.9862 -3.0960 -3.2035
  847MOL0     H11783  -1.286   2.865  10.480 -5.6570  0.8331  1.4663
  847MOL0     H11784  -1.424   2.887  10.667 -0.5284  3.2632  3.7228
  847MOL0     H11785  -1.466   3.023  10.544  1.6374  1.9792 -2.1940
  847MOL0     H11786  -0.169   2.970  10.721  2.7653 -3.1007  2.0867
  847MOL0     H11787   0.053   2.961  10.631  2.4433  0.5013 -2.7790
  847MOL0     H11788   0.369   2.790  10.476 -1.6974 -0.7153  0.1594
  847MOL0     H11789   0.582   2.685  10.437  0.7362 -0.0241 -0.1189
  847MOL0     H11790   2.147   2.653   9.314 -0.8910  5.8173  1.6623
  847MOL0     H11791   2.406   2.657   9.366 -1.4734 -1.0520 -2.6881
  847MOL0     H11792   2.730   2.926   9.657 -1.5253 -1.0605 -1.3023
  847MOL0     H11793   2.985   2.932   9.701  0.9554  0.7737 -0.1425
  847MOL0     H11794   3.205   2.884   9.642 -0.4704  0.7371 -1.4877
  847MOL0     H11795   3.125   2.787   9.523 -2.5384  1.4472  1.9877
  847MOL0     H11796   3.377   2.788   9.510 -0.8623 -0.2879 -0.2271
  847MOL0     H11797   3.377   2.714   9.665  0.9376  2.0089  0.6918
  847MOL0     H11798   3.241   2.576   9.418 -0.3184 -0.7290  0.3584
  847MOL0     H11799   3.273   2.513   9.578  1.3906  0.2239  1.0786
  847MOL0     H11800   3.504   2.629   9.407  0.2343  2.2281  2.4621
  847MOL0     H11801   3.516   2.531   9.547 -0.5328  2.0802  0.6993
  847MOL0     H11802   3.425   2.225   9.259 -1.7838  0.4585 -0.8660
  847MOL0     H11803   2.983   2.514   9.704 -0.1904 -0.0770  0.0725
  847MOL0     H11804   2.744   2.494   9.644  1.4489 -0.1458 -0.1137
  848MOL0     O11805   1.020   0.996   0.192 -0.2946 -0.8191  0.8945
  848MOL0     C11806   1.132   1.055   0.199  0.6844 -0.6572  0.4616
  848MOL0     O11807   1.143   1.197   0.193  0.0880  0.0916 -0.2603
  848MOL0     C11808   1.027   1.267   0.176  0.7489 -0.0320  0.3783
  848MOL0     C11809   0.911   1.251   0.256  0.1436  0.2639  0.3868
  848MOL0     C11810   0.800   1.326   0.235  1.0213 -0.5347  0.0994
  848MOL0     C11811   0.794   1.419   0.124 -0.2825  0.5786 -0.2845
  848MOL0     O11812   0.675   1.485   0.121  0.4253 -0.6555 -0.1914
  848MOL0     C11813   0.650   1.583   0.021 -0.3845  0.5227 -0.8135
  848MOL0     C11814   0.530   1.677   0.042 -0.0471 -0.2331 -0.9887
  848MOL0     C11815   0.402   1.584   0.048 -0.5112  0.0720 -0.1200
  848MOL0     C11816   0.276   1.669   0.073 -0.5721 -0.2250  0.1511
  848MOL0     C11817   0.156   1.566   0.070 -0.5601  0.0613  0.6546
  848MOL0     C11818   0.030   1.658   0.119 -0.5720  1.0495 -0.0028
  848MOL0     C11819  -0.105   1.587   0.095 -1.2122 -0.1861  0.0235
  848MOL0     C11820  -0.231   1.677   0.096 -0.0718 -0.6021 -0.0639
  848MOL0     N11821  -0.349   1.626   0.014 -0.1049  0.6798  0.4949
  848MOL0     C11822  -0.405   1.500   0.019 -0.0945 -0.2990 -0.2731
  848MOL0     C11823  -0.487   1.499  -0.086  0.8143  0.6671 -0.1472
  848MOL0     C11824  -0.576   1.386  -0.130 -0.5779 -0.1432 -0.1446
  848MOL0     C11825  -0.605   1.283  -0.029  0.3836  0.5690 -1.1466
  848MOL0     C11826  -0.694   1.174  -0.078 -0.0845  0.5429  0.0430
  848MOL0     C11827  -0.732   1.080   0.045 -0.2277  0.1869 -0.0182
  848MOL0     O11828  -0.790   0.960   0.000 -0.0170  0.3136  0.6969
  848MOL0     C11829  -0.912   0.953  -0.061  0.1434 -0.9874  0.2776
  848MOL0     C11830  -0.953   0.828  -0.114  0.0850  0.1917  0.2650
  848MOL0     C11831  -1.089   0.817  -0.168  0.4208 -0.2768  0.9149
  848MOL0     C11832  -1.178   0.923  -0.180  0.1154 -0.2478  0.3235
  848MOL0     C11833  -1.310   0.904  -0.251 -0.3099  0.2524 -1.0019
  848MOL0     O11834  -1.359   0.777  -0.259  0.1630 -0.4412 -0.4459
  848MOL0     C11835  -1.496   0.770  -0.280  0.5631 -0.2441 -0.2046
  848MOL0     C11836  -1.578   0.834  -0.191 -0.4529 -0.3975 -0.1596
  848MOL0     C11837  -1.721   0.826  -0.198  0.1076 -0.3473 -0.5006
  848MOL0     C11838  -1.779   0.751  -0.309  0.7893 -0.4520 -0.2894
  848MOL0     O11839  -1.918   0.737  -0.316 -0.0915 -0.3692 -0.3070
  848MOL0     C11840  -1.975   0.627  -0.389  0.0830  0.7401  0.8819
  848MOL0     C11841  -2.131   0.636  -0.386 -1.2587 -0.2319 -0.2387
  848MOL0     C11842  -2.192   0.753  -0.462 -0.4119 -0.1052 -0.3268
  848MOL0     C11843  -2.335   0.717  -0.498  0.3099 -0.1536 -0.7342
  848MOL0     C11844  -2.435   0.716  -0.377 -0.2325  0.4052  0.0604
  848MOL0     C11845  -2.483   0.864  -0.353  0.8665 -0.4578  0.1945
  848MOL0     C11846  -2.574   0.882  -0.225  0.3159  0.5836  0.2831
  848MOL0     C11847  -2.679   0.789  -0.224  0.2132  0.6925  0.1499
  848MOL0    Cl11848  -2.771   0.788  -0.380 -0.2461  0.2987 -0.5615
  848MOL0     C11849  -1.696   0.692  -0.403 -0.1683 -0.0143  1.0335
  848MOL0     C11850  -1.558   0.704  -0.385 -0.3498 -0.2773  0.2818
  848MOL0     O11851  -1.367   1.015  -0.269  0.0904 -0.3485  1.0344
  848MOL0     C11852  -1.145   1.048  -0.113  0.4596 -0.5505  0.7472
  848MOL0     C11853  -1.015   1.053  -0.055  0.7590 -0.5721  0.1991
  848MOL0     N11854  -0.484   1.616  -0.151  0.3507 -0.1986 -0.1429
  848MOL0     N11855  -0.402   1.692  -0.095 -0.2816 -0.5195 -0.2885
  848MOL0     C11856   0.904   1.444   0.056 -0.3451  0.1298 -0.0817
  848MOL0     C11857   1.025   1.370   0.080  0.0897  0.3429  0.0550
  848MOL0     C11858   1.255   0.973   0.181 -0.5345  0.5927  0.2147
  848MOL0     C11859   1.248   0.835   0.205 -0.5350 -0.0019 -0.0626
  848MOL0     C11860   1.357   0.746   0.186 -0.6967 -0.5204  0.4277
  848MOL0     C11861   1.470   0.798   0.138 -1.2146  0.3918  0.4257
  848MOL0     O11862   1.560   0.702   0.111  0.1294 -0.0359  0.3379
  848MOL0     C11863   1.697   0.721   0.076  0.0616 -0.4832  0.2363
  848MOL0     C11864   1.693   0.756  -0.074  0.9975  0.7845  0.4501
  848MOL0     C11865   1.840   0.766  -0.130 -0.2827 -0.0700 -0.2110
  848MOL0     C11866   1.828   0.726  -0.278  0.1762  0.4409 -0.9276
  848MOL0     C11867   1.709   0.775  -0.352 -0.0070 -0.0911 -1.3480
  848MOL0     C11868   1.612   0.799  -0.417  0.1764  0.6657 -0.8399
  848MOL0     C11869   1.483   0.935   0.113 -0.2231  0.6184  0.3151
  848MOL0     C11870   1.374   1.021   0.143 -0.1265  0.2558 -0.9092
  848MOL0     H11871   0.919   1.174   0.332  1.4467 -1.4149 -1.3495
  848MOL0     H11872   0.707   1.313   0.290 -1.1522 -1.2635 -3.3765
  848MOL0     H11873   0.641   1.529  -0.073 -2.9533  3.0127 -2.1685
  848MOL0     H11874   0.737   1.647   0.008  0.1047 -0.1851 -1.0574
  848MOL0     H11875   0.523   1.752  -0.037 -3.5644  0.9452  0.2856
  848MOL0     H11876   0.543   1.735   0.135  1.3704  0.7524 -1.7595
  848MOL0     H11877   0.411   1.503   0.122 -0.1702  1.0098  0.8966
  848MOL0     H11878   0.393   1.540  -0.052  1.6671 -1.5132  0.2837
  848MOL0     H11879   0.278   1.717   0.172 -1.7402  0.1245  0.0215
  848MOL0     H11880   0.268   1.738  -0.011 -2.7984  0.7424  1.0759
  848MOL0     H11881   0.183   1.471   0.117 -0.2904 -1.3410 -2.1305
  848MOL0     H11882   0.149   1.538  -0.036 -0.4577  3.8066 -0.4754
  848MOL0     H11883   0.039   1.752   0.064 -1.7200  1.4126  0.4126
  848MOL0     H11884   0.035   1.673   0.227  1.4890 -0.8055  0.2592
  848MOL0     H11885  -0.106   1.561  -0.011 -0.9370  1.0968 -0.3098
  848MOL0     H11886  -0.132   1.500   0.156  0.5558 -1.2479 -0.6350
  848MOL0     H11887  -0.191   1.769   0.052  3.9127  0.6408  5.1789
  848MOL0     H11888  -0.265   1.704   0.196  1.4057  1.6990 -0.1085
  848MOL0     H11889  -0.377   1.423   0.090 -0.8488 -0.3296 -0.0004
  848MOL0     H11890  -0.541   1.330  -0.217 -0.9046 -3.3083  1.6449
  848MOL0     H11891  -0.671   1.434  -0.156 -0.1730  1.5164  1.2134
  848MOL0     H11892  -0.654   1.326   0.059 -1.5052  0.9514 -2.3353
  848MOL0     H11893  -0.513   1.231  -0.000 -1.0560 -1.0314  0.9077
  848MOL0     H11894  -0.791   1.200  -0.122  0.1578 -0.1697 -0.9355
  848MOL0     H11895  -0.640   1.118  -0.155 -0.1638 -0.0026  0.3786
  848MOL0     H11896  -0.790   1.134   0.120 -1.6647  1.2535 -1.8005
  848MOL0     H11897  -0.641   1.042   0.091  0.5004  1.2708 -0.5221
  848MOL0     H11898  -0.886   0.743  -0.108  0.1005  0.3001  2.0236
  848MOL0     H11899  -1.127   0.715  -0.175  1.5817 -0.7599  1.3293
  848MOL0     H11900  -1.521   0.895  -0.121  0.2596 -1.2507  0.0098
  848MOL0     H11901  -1.780   0.876  -0.122  0.0786 -0.0389 -0.7255
  848MOL0     H11902  -1.936   0.534  -0.345 -1.2189 -0.2072  0.1116
  848MOL0     H11903  -1.939   0.633  -0.492  0.4094  2.1135  1.0630
  848MOL0     H11904  -2.160   0.663  -0.284  0.8027 -0.4636  0.4510
  848MOL0     H11905  -2.182   0.544  -0.414 -0.9020  0.2635 -2.8023
  848MOL0     H11906  -2.131   0.762  -0.552 -0.4305  1.5009 -0.2099
  848MOL0     H11907  -2.179   0.847  -0.408 -1.3864  0.0016 -0.2540
  848MOL0     H11908  -2.392   0.789  -0.557 -0.3380  0.7853  0.9545
  848MOL0     H11909  -2.337   0.623  -0.553  1.5548 -1.6404  1.6068
  848MOL0     H11910  -2.391   0.683  -0.283  1.9373  1.4336 -0.5232
  848MOL0     H11911  -2.524   0.656  -0.402 -1.1363  0.2587  3.2696
  848MOL0     H11912  -2.522   0.912  -0.442  1.2554  1.0054  0.7738
  848MOL0     H11913  -2.393   0.924  -0.333 -0.3556  1.9430 -1.0813
  848MOL0     H11914  -2.517   0.857  -0.135  3.3351 -1.1775 -1.9378
  848MOL0     H11915  -2.614   0.983  -0.216 -1.8184 -0.1557 -0.3633
  848MOL0     H11916  -2.745   0.807  -0.139 -1.9413 -4.0334 -0.1862
  848MOL0     H11917  -2.639   0.689  -0.207 -4.8598 -1.9359 -1.2975
  848MOL0     H11918  -1.741   0.640  -0.487 -3.8285  0.0311  2.7602
  848MOL0     H11919  -1.501   0.672  -0.472 -1.4804  2.4323 -1.5980
  848MOL0     H11920  -1.198   1.142  -0.098  0.2930 -0.8144  1.8753
  848MOL0     H11921  -0.996   1.144  -0.001  2.4330 -2.2695  2.6950
  848MOL0     H11922   0.894   1.517  -0.023 -1.1424  0.6397  0.4673
  848MOL0     H11923   1.111   1.378   0.014 -1.2251  0.8259 -1.6788
  848MOL0     H11924   1.149   0.799   0.231  0.0446  0.7989  4.0002
  848MOL0     H11925   1.360   0.639   0.206 -0.6841 -0.3237  1.5394
  848MOL0     H11926   1.754   0.631   0.098 -2.1389 -2.2106 -0.7111
  848MOL0     H11927   1.743   0.802   0.133 -0.9094  0.0707  0.2680
  848MOL0     H11928   1.642   0.665  -0.107  0.7732  0.6915  1.0350
  848MOL0     H11929   1.628   0.843  -0.088  0.3307  0.5797  1.9741
  848MOL0     H11930   1.903   0.699  -0.071 -0.1568 -1.5228 -1.9040
  848MOL0     H11931   1.880   0.868  -0.125 -4.0866  1.6068  0.0160
  848MOL0     H11932   1.914   0.766  -0.331  0.7676 -1.2646 -1.3398
  848MOL0     H11933   1.826   0.617  -0.287 -0.3089  0.3380  0.2447
  848MOL0     H11934   1.521   0.831  -0.463 -0.4285  0.1452 -0.0328
  848MOL0     H11935   1.576   0.972   0.069  0.7944  1.5625  3.0340
  848MOL0     H11936   1.382   1.126   0.117  0.6990 -0.3089 -3.1295
  849MOL0     O11937   4.898  11.123   6.030 -0.6967 -0.2291 -0.2235
  849MOL0     C11938   4.908  11.047   6.128 -0.4680 -0.5609 -0.0124
  849MOL0     O11939   4.828  11.051   6.241 -0.1163 -0.7217  0.3414
  849MOL0     C11940   4.686  11.057   6.222 -0.1713  0.3554 -0.6917
  849MOL0     C11941   4.611  11.132   6.306 -0.0925  0.1133 -0.2683
  849MOL0     C11942   4.470  11.126   6.298 -0.7602  0.3878  0.7331
  849MOL0     C11943   4.409  11.034   6.207  0.2667  0.2514 -0.2663
  849MOL0     O11944   4.278  11.004   6.230 -0.2954  0.0651 -0.0197
  849MOL0     C11945   4.201  10.954   6.118  0.3126 -0.2690 -0.5398
  849MOL0     C11946   4.064  10.958   6.181 -0.5002  0.2721  0.2691
  849MOL0     C11947   3.961  10.916   6.081  0.2401 -0.1836 -0.2242
  849MOL0     C11948   3.828  10.916   6.143  0.1132 -1.1335  0.2025
  849MOL0     C11949   3.724  10.881   6.046  1.3648  0.2396  0.8447
  849MOL0     C11950   3.585  10.862   6.128 -1.0382  0.0147  0.1142
  849MOL0     C11951   3.461  10.896   6.039  0.6200 -0.4064 -0.2370
  849MOL0     C11952   3.337  10.819   6.067 -0.1653 -0.4977 -0.1503
  849MOL0     N11953   3.329  10.691   6.000  0.8078 -0.5108 -0.4357
  849MOL0     C11954   3.371  10.569   6.035  0.0188 -0.1027  0.3084
  849MOL0     C11955   3.315  10.490   5.937  0.1150 -0.1464  1.0918
  849MOL0     C11956   3.318  10.341   5.935 -0.4271  0.7478 -0.1760
  849MOL0     C11957   3.190  10.277   6.001  0.1587  0.7130  0.5529
  849MOL0     C11958   3.206  10.130   6.036 -0.0831 -0.5697 -0.1791
  849MOL0     C11959   3.066  10.073   6.047 -0.0013  0.0761 -0.6022
  849MOL0     O11960   3.091   9.932   6.058  0.1745 -0.6987 -0.4221
  849MOL0     C11961   2.996   9.838   6.035 -0.0836 -0.3794  0.1594
  849MOL0     C11962   2.855   9.872   6.023 -0.2068  0.2230 -0.5987
  849MOL0     C11963   2.770   9.770   5.985 -0.8712  0.2774  0.1446
  849MOL0     C11964   2.809   9.639   5.977 -0.5030  1.0940 -0.4230
  849MOL0     C11965   2.701   9.531   5.960  0.0249 -0.8290  0.2256
  849MOL0     O11966   2.581   9.549   6.029 -0.1116 -0.7866  0.1308
  849MOL0     C11967   2.475   9.470   5.991  0.6855  0.2072  0.7010
  849MOL0     C11968   2.385   9.435   6.093  1.4702  0.4156  0.3849
  849MOL0     C11969   2.259   9.378   6.064 -0.2705  1.4482 -0.2157
  849MOL0     C11970   2.219   9.341   5.930 -0.4209  0.1857  0.0359
  849MOL0     O11971   2.102   9.286   5.893  0.0632  0.2447 -0.5770
  849MOL0     C11972   2.014   9.222   5.985 -0.6383 -0.2717  0.3062
  849MOL0     C11973   1.922   9.126   5.912  0.2786 -0.0136  0.0381
  849MOL0     C11974   1.808   9.060   6.000 -0.2332 -1.0927  0.5784
  849MOL0     C11975   1.760   8.928   5.919 -0.2007  0.5904  0.1534
  849MOL0     C11976   1.609   8.882   5.944  0.2351 -0.5002 -1.0376
  849MOL0     C11977   1.594   8.821   6.091  0.4117  0.7330 -0.0210
  849MOL0     C11978   1.453   8.768   6.121  0.5862 -0.3666 -0.4495
  849MOL0     C11979   1.349   8.873   6.094  0.2455 -1.0494  0.5647
  849MOL0    Cl11980   1.197   8.807   6.133 -0.4930 -0.3728 -0.1186
  849MOL0     C11981   2.308   9.376   5.826  0.8439  0.1418  0.2766
  849MOL0     C11982   2.428   9.446   5.860 -0.0982 -0.0908 -0.2982
  849MOL0     O11983   2.725   9.444   5.873  0.6215  0.4282 -0.6197
  849MOL0     C11984   2.945   9.610   5.978 -0.6230  0.3260  0.0914
  849MOL0     C11985   3.038   9.708   6.018 -0.0722  0.4047  0.1232
  849MOL0     N11986   3.252  10.571   5.839  0.1403  0.4384 -0.3571
  849MOL0     N11987   3.269  10.694   5.880 -0.0995  0.7152  0.7240
  849MOL0     C11988   4.484  10.964   6.116 -0.3442  1.2653  0.0327
  849MOL0     C11989   4.623  10.976   6.122  0.0164  0.4815 -0.4851
  849MOL0     C11990   5.005  10.936   6.126 -0.5299 -0.0214 -0.2822
  849MOL0     C11991   5.096  10.915   6.019  0.3462  0.5194  0.0185
  849MOL0     C11992   5.208  10.830   6.029 -0.0157  0.0048  0.0036
  849MOL0     C11993   5.231  10.761   6.144  0.0338 -0.0814  0.3378
  849MOL0     O11994   5.346  10.693   6.169 -0.2366  0.9396 -0.5850
  849MOL0     C11995   5.345  10.569   6.247 -0.4571  0.1628  0.0284
  849MOL0     C11996   5.420  10.579   6.380  0.8439  0.4342 -0.2564
  849MOL0     C11997   5.551  10.656   6.372 -0.5765 -0.2252 -0.0172
  849MOL0     C11998   5.532  10.810   6.386  0.3879  0.0513 -0.0716
  849MOL0     C11999   5.645  10.857   6.469  0.8418  1.0357  0.5406
  849MOL0     C12000   5.747  10.884   6.524  0.6483 -0.2753  0.5305
  849MOL0     C12001   5.143  10.776   6.247  0.9316 -0.3652  1.2413
  849MOL0     C12002   5.039  10.869   6.244  0.3867 -0.5799  0.2221
  849MOL0     H12003   4.656  11.198   6.379 -0.3041  0.5933 -0.5688
  849MOL0     H12004   4.408  11.181   6.368  1.3604  0.0655  3.0299
  849MOL0     H12005   4.236  10.851   6.107  1.1222 -0.2930  1.7789
  849MOL0     H12006   4.209  11.009   6.024  2.0146  1.7127  0.6894
  849MOL0     H12007   4.036  11.057   6.218 -0.6485 -0.3608  1.9394
  849MOL0     H12008   4.059  10.899   6.273  1.8742  0.4390  0.5460
  849MOL0     H12009   3.975  10.807   6.071 -1.6708 -0.5388  0.6171
  849MOL0     H12010   3.969  10.970   5.987  0.7279  1.5879  0.7851
  849MOL0     H12011   3.817  10.845   6.226 -1.2867 -0.9399  0.2096
  849MOL0     H12012   3.794  11.013   6.180  0.2765 -1.1617  0.4250
  849MOL0     H12013   3.760  10.806   5.975 -0.3644  2.1764 -2.3555
  849MOL0     H12014   3.711  10.966   5.977  1.2099 -0.3222  0.1699
  849MOL0     H12015   3.591  10.929   6.214 -0.4764 -2.6759  2.2702
  849MOL0     H12016   3.582  10.761   6.169 -3.6704 -0.5334 -1.1641
  849MOL0     H12017   3.435  11.000   6.059  0.6384 -0.3433 -0.5338
  849MOL0     H12018   3.485  10.883   5.933  1.4404 -3.1137  0.2168
  849MOL0     H12019   3.256  10.873   6.017  0.1046 -0.3150 -0.3915
  849MOL0     H12020   3.315  10.809   6.173 -0.1160 -1.9201 -0.2507
  849MOL0     H12021   3.417  10.533   6.127 -3.0702 -1.5493  1.4154
  849MOL0     H12022   3.412  10.300   5.974 -0.0459 -0.7391 -2.4427
  849MOL0     H12023   3.320  10.304   5.832  3.7221  1.9798 -0.7406
  849MOL0     H12024   3.113  10.281   5.924  2.2063  0.0145 -1.6789
  849MOL0     H12025   3.158  10.335   6.088  0.7276 -0.5523  1.6608
  849MOL0     H12026   3.260  10.083   5.954 -2.5579 -1.7207 -1.2462
  849MOL0     H12027   3.248  10.123   6.137 -0.7495 -2.2085  0.0100
  849MOL0     H12028   3.012  10.090   5.954  3.8814  1.8308 -2.7663
  849MOL0     H12029   3.008  10.108   6.133 -1.1811 -1.4003 -0.7615
  849MOL0     H12030   2.809   9.968   6.042 -3.1559 -0.9537 -1.3099
  849MOL0     H12031   2.664   9.788   5.970 -0.8456 -1.0743 -2.2264
  849MOL0     H12032   2.413   9.463   6.194  3.2356  2.9244 -0.6782
  849MOL0     H12033   2.187   9.356   6.142  2.0352  3.1502  2.5719
  849MOL0     H12034   1.953   9.294   6.041 -0.3792 -1.2361  1.9149
  849MOL0     H12035   2.068   9.157   6.055 -0.2035 -2.1677 -1.6853
  849MOL0     H12036   1.995   9.049   5.883  1.8291  1.4719 -0.1521
  849MOL0     H12037   1.887   9.173   5.820  4.6163  1.3385 -1.2072
  849MOL0     H12038   1.723   9.128   6.016  0.4163 -0.0781 -0.1660
  849MOL0     H12039   1.827   9.039   6.106  1.1130  1.1103  0.8436
  849MOL0     H12040   1.777   8.945   5.812 -0.8626 -1.7629 -0.3719
  849MOL0     H12041   1.821   8.843   5.952 -0.0964  0.6823  0.1976
  849MOL0     H12042   1.570   8.815   5.867  0.2880 -0.4610 -1.0984
  849MOL0     H12043   1.550   8.973   5.930  0.1220 -0.6630 -1.6689
  849MOL0     H12044   1.618   8.907   6.155  3.2536 -0.2371  0.3859
  849MOL0     H12045   1.664   8.743   6.122 -0.0114  1.3682  2.8738
  849MOL0     H12046   1.435   8.685   6.053  2.1399 -2.5878  1.6716
  849MOL0     H12047   1.447   8.731   6.224  2.8079 -0.0316 -0.1456
  849MOL0     H12048   1.341   8.906   5.990 -1.8373 -1.0427  0.6718
  849MOL0     H12049   1.371   8.959   6.158  0.5944 -1.8487  1.5507
  849MOL0     H12050   2.294   9.363   5.719 -2.1709 -1.1808  0.7445
  849MOL0     H12051   2.490   9.479   5.778  0.0969  0.3381  0.0209
  849MOL0     H12052   2.972   9.505   5.975 -1.8804 -0.1130  2.2697
  849MOL0     H12053   3.143   9.690   6.037 -0.3733 -1.2920  0.3648
  849MOL0     H12054   4.444  10.893   6.045  1.0816  1.2811 -0.8196
  849MOL0     H12055   4.686  10.913   6.061  1.4166  0.0794  1.2828
  849MOL0     H12056   5.098  10.971   5.926 -0.7729  1.0594  0.3149
  849MOL0     H12057   5.281  10.824   5.949 -0.0107  1.1169 -0.0930
  849MOL0     H12058   5.403  10.504   6.180  1.0916  1.7412 -0.2364
  849MOL0     H12059   5.248  10.520   6.262 -0.5314  1.0775  3.1096
  849MOL0     H12060   5.358  10.627   6.456  1.8373  1.0876  0.1715
  849MOL0     H12061   5.446  10.478   6.411  2.3655  0.6704 -0.6396
  849MOL0     H12062   5.594  10.638   6.273  0.2238 -0.8176  0.4238
  849MOL0     H12063   5.634  10.611   6.428  0.8283 -0.0426 -1.8247
  849MOL0     H12064   5.543  10.858   6.288  1.2389 -2.5520 -1.3475
  849MOL0     H12065   5.439  10.837   6.437  0.5460 -2.5747  1.8013
  849MOL0     H12066   5.845  10.906   6.560 -0.6726  0.8208  3.8651
  849MOL0     H12067   5.152  10.724   6.342 -1.6745 -2.0043  0.6989
  849MOL0     H12068   4.993  10.891   6.339 -0.3128  1.5170 -0.5450
  850MOL0     O12069   4.111   6.564   7.218  0.2628  0.2002 -0.0845
  850MOL0     C12070   4.118   6.446   7.198 -0.9376  0.6540 -0.3497
  850MOL0     O12071   4.026   6.351   7.244 -0.0793 -1.4666  0.0117
  850MOL0     C12072   3.906   6.389   7.294 -0.7433 -0.5949  0.3635
  850MOL0     C12073   3.880   6.501   7.378  0.5607 -0.3818  0.0224
  850MOL0     C12074   3.745   6.528   7.413 -0.6953 -0.0210 -0.6907
  850MOL0     C12075   3.639   6.435   7.386  0.0129 -0.6029  0.7264
  850MOL0     O12076   3.497   6.448   7.404 -0.4331  0.2561  0.3900
  850MOL0     C12077   3.439   6.564   7.471  0.2427  0.0378  0.1962
  850MOL0     C12078   3.290   6.548   7.482 -0.0992 -0.9641  0.2676
  850MOL0     C12079   3.231   6.666   7.562  0.6550  0.1717 -0.4674
  850MOL0     C12080   3.085   6.649   7.609  0.2330 -0.3617 -0.2800
  850MOL0     C12081   3.014   6.770   7.654 -0.4577  0.5958 -0.1070
  850MOL0     C12082   2.872   6.739   7.711  0.5190 -0.4263 -0.1305
  850MOL0     C12083   2.761   6.732   7.607 -0.8825  0.2650  0.1635
  850MOL0     C12084   2.731   6.864   7.531  0.8492  0.7536  0.5861
  850MOL0     N12085   2.585   6.893   7.523  1.1126  0.1026 -0.1727
  850MOL0     C12086   2.502   6.840   7.426 -0.0971 -0.4699 -0.0115
  850MOL0     C12087   2.386   6.902   7.450 -0.3080 -0.4247 -0.3923
  850MOL0     C12088   2.258   6.886   7.365 -0.1634  0.1131 -0.0069
  850MOL0     C12089   2.206   6.743   7.384 -0.4754 -0.3367  0.8744
  850MOL0     C12090   2.152   6.717   7.528  0.8514 -0.5439  0.7732
  850MOL0     C12091   2.000   6.684   7.525 -1.0479  0.4891 -0.2900
  850MOL0     O12092   1.924   6.751   7.431 -0.7238 -1.3030  0.4871
  850MOL0     C12093   1.792   6.735   7.422 -0.0950  0.6943 -0.2627
  850MOL0     C12094   1.720   6.627   7.484 -0.2730  0.4950  0.2061
  850MOL0     C12095   1.581   6.628   7.479  0.6922 -0.1893  0.6881
  850MOL0     C12096   1.512   6.721   7.397  0.0949  0.0060  0.7696
  850MOL0     C12097   1.365   6.740   7.386  0.3566  1.1853  0.4095
  850MOL0     O12098   1.295   6.710   7.503  0.0021  0.7331  0.0550
  850MOL0     C12099   1.158   6.702   7.499  1.0387  0.7299  0.4569
  850MOL0     C12100   1.072   6.780   7.588  0.3163  0.3655 -0.1000
  850MOL0     C12101   0.929   6.768   7.576  0.3276 -0.2785  0.0954
  850MOL0     C12102   0.882   6.673   7.484 -0.0790 -0.0808 -0.1671
  850MOL0     O12103   0.741   6.680   7.476  0.2107  0.6278  0.0384
  850MOL0     C12104   0.685   6.643   7.344  0.3410  0.1841  0.1468
  850MOL0     C12105   0.545   6.701   7.342  0.6976 -0.1068  0.4623
  850MOL0     C12106   0.464   6.637   7.462  0.0521  0.1305  0.4000
  850MOL0     C12107   0.330   6.710   7.492 -0.4858  0.5651 -0.1846
  850MOL0     C12108   0.250   6.646   7.609 -0.6932 -0.8470 -0.3942
  850MOL0     C12109   0.151   6.749   7.667 -0.6319  0.3329  0.3437
  850MOL0     C12110   0.050   6.796   7.554 -0.6249  0.7338 -0.1143
  850MOL0     C12111  -0.061   6.876   7.624 -0.2953 -0.4950  0.0321
  850MOL0    Cl12112  -0.004   7.000   7.747  0.0977  0.1878  0.0367
  850MOL0     C12113   0.964   6.596   7.405 -0.7686  0.2135  0.0689
  850MOL0     C12114   1.104   6.614   7.412  0.3135 -0.9166 -1.1622
  850MOL0     O12115   1.313   6.790   7.287 -0.6610  0.3590 -0.4409
  850MOL0     C12116   1.588   6.810   7.319  1.0631 -0.0722  0.2097
  850MOL0     C12117   1.722   6.817   7.345 -0.0612 -0.8628  0.2731
  850MOL0     N12118   2.393   6.990   7.557 -0.4277 -0.3572  1.4043
  850MOL0     N12119   2.515   6.979   7.593 -0.3730 -0.1411  0.3121
  850MOL0     C12120   3.676   6.322   7.305  0.7473 -0.4289 -0.3402
  850MOL0     C12121   3.810   6.304   7.263  0.1189 -0.0374 -0.0418
  850MOL0     C12122   4.225   6.397   7.107  0.0496  0.0270  0.4497
  850MOL0     C12123   4.221   6.262   7.076  0.1528  0.7794 -1.0462
  850MOL0     C12124   4.317   6.212   6.989 -0.7069  0.3756  0.0693
  850MOL0     C12125   4.420   6.291   6.937  1.3897  0.3268 -0.4699
  850MOL0     O12126   4.525   6.230   6.872  1.1782  1.4203  0.2181
  850MOL0     C12127   4.550   6.262   6.736 -0.3518 -0.0704  0.5375
  850MOL0     C12128   4.593   6.141   6.657 -0.0707  0.0756 -0.4516
  850MOL0     C12129   4.598   6.169   6.507 -1.0792 -0.5408  0.6374
  850MOL0     C12130   4.638   6.032   6.435  0.3098  0.6705 -0.3776
  850MOL0     C12131   4.670   6.069   6.296 -0.6762 -0.1670  0.7758
  850MOL0     C12132   4.681   6.105   6.183  0.5171 -0.3502  0.7255
  850MOL0     C12133   4.438   6.424   6.989  0.4846  0.4630 -0.3638
  850MOL0     C12134   4.338   6.474   7.076  1.2530  0.2966 -0.4346
  850MOL0     H12135   3.959   6.572   7.396 -0.3189  0.7167 -0.3319
  850MOL0     H12136   3.741   6.620   7.472 -1.7701 -1.0990  0.9928
  850MOL0     H12137   3.457   6.652   7.409 -1.4273  0.5367  0.3813
  850MOL0     H12138   3.474   6.571   7.575  0.5084 -0.0821  0.1164
  850MOL0     H12139   3.266   6.453   7.531 -4.6690  0.4552  1.2338
  850MOL0     H12140   3.258   6.552   7.378  1.3086 -0.6978 -0.1879
  850MOL0     H12141   3.237   6.761   7.507 -0.8995  1.9817  2.1998
  850MOL0     H12142   3.293   6.678   7.652  1.8293  0.4670 -1.3002
  850MOL0     H12143   3.036   6.587   7.533  0.4014 -0.6769 -0.1338
  850MOL0     H12144   3.099   6.584   7.695  0.6972  1.6361  1.2323
  850MOL0     H12145   3.006   6.826   7.561  1.3167  2.3716  0.7376
  850MOL0     H12146   3.080   6.825   7.723 -1.5028  1.3940  0.2766
  850MOL0     H12147   2.853   6.811   7.791 -1.7631 -0.2721 -0.7267
  850MOL0     H12148   2.881   6.649   7.772 -0.4078 -1.7135 -1.8012
  850MOL0     H12149   2.779   6.661   7.525 -2.2650 -1.5597  1.3501
  850MOL0     H12150   2.670   6.690   7.651 -0.5606 -3.7074 -2.3640
  850MOL0     H12151   2.772   6.876   7.430 -1.9760  1.0560 -0.6041
  850MOL0     H12152   2.769   6.951   7.586 -0.6739  1.9368 -0.1553
  850MOL0     H12153   2.524   6.768   7.348  0.8864 -0.6845  0.4557
  850MOL0     H12154   2.288   6.919   7.265  0.5545  0.4271  0.3083
  850MOL0     H12155   2.175   6.952   7.394 -1.6243 -2.4944  2.1234
  850MOL0     H12156   2.294   6.678   7.377 -0.7615 -0.6929  0.5684
  850MOL0     H12157   2.140   6.704   7.306 -0.2753 -1.0937  1.0737
  850MOL0     H12158   2.217   6.646   7.580  0.2922 -1.3597  0.3771
  850MOL0     H12159   2.150   6.813   7.581  1.4002  0.7631 -1.4132
  850MOL0     H12160   1.950   6.697   7.621 -1.4922 -3.5613  0.1890
  850MOL0     H12161   1.989   6.576   7.509  0.9436 -0.0130  1.4110
  850MOL0     H12162   1.772   6.552   7.544  1.1599  0.9185 -0.4518
  850MOL0     H12163   1.526   6.551   7.533  1.5652 -1.0903  0.3333
  850MOL0     H12164   1.124   6.843   7.660  1.3954 -1.4809  0.7904
  850MOL0     H12165   0.862   6.833   7.631 -1.3954 -0.3522 -1.7841
  850MOL0     H12166   0.677   6.533   7.342  1.3132  0.0746  1.5226
  850MOL0     H12167   0.743   6.682   7.260 -0.4116  2.8325  0.7733
  850MOL0     H12168   0.496   6.697   7.244  0.6744  3.8973  0.1445
  850MOL0     H12169   0.557   6.807   7.366  0.4108 -0.1530  0.8231
  850MOL0     H12170   0.519   6.646   7.556 -0.0973  0.8631  0.4278
  850MOL0     H12171   0.448   6.532   7.437  0.7173  0.6541 -2.7032
  850MOL0     H12172   0.347   6.818   7.504  0.3182  0.7981 -2.6745
  850MOL0     H12173   0.260   6.693   7.410  0.3438  0.5396 -0.9109
  850MOL0     H12174   0.325   6.632   7.687  0.0541 -2.5162 -1.3807
  850MOL0     H12175   0.199   6.556   7.575 -3.5809 -0.0702  1.4903
  850MOL0     H12176   0.212   6.828   7.712  2.3491 -0.2349 -2.3563
  850MOL0     H12177   0.091   6.707   7.748 -0.8849  1.1758  0.6044
  850MOL0     H12178   0.103   6.863   7.486  2.5124  0.7444  2.1696
  850MOL0     H12179   0.009   6.714   7.494 -1.2040  0.9708 -0.0579
  850MOL0     H12180  -0.130   6.814   7.683 -4.1561  0.9637 -2.5696
  850MOL0     H12181  -0.121   6.925   7.547 -0.8203 -0.5683  0.3891
  850MOL0     H12182   0.932   6.522   7.333  0.3915  1.2569 -1.5754
  850MOL0     H12183   1.168   6.554   7.349  1.1260 -2.0679  0.6743
  850MOL0     H12184   1.546   6.886   7.254 -0.0834 -3.6274 -3.6326
  850MOL0     H12185   1.777   6.893   7.290 -0.6031 -0.6936 -0.0487
  850MOL0     H12186   3.594   6.262   7.268  0.4283 -0.0272 -0.2930
  850MOL0     H12187   3.826   6.222   7.194 -1.8372  1.2094 -2.1481
  850MOL0     H12188   4.144   6.188   7.096  1.7113 -1.3279 -2.4650
  850MOL0     H12189   4.329   6.105   6.972  2.7719  0.2725  2.0713
  850MOL0     H12190   4.625   6.341   6.723 -0.0851 -0.7366 -2.8421
  850MOL0     H12191   4.461   6.315   6.701  1.1396  2.0508 -0.2781
  850MOL0     H12192   4.690   6.107   6.696  1.1154  2.8673 -0.7181
  850MOL0     H12193   4.519   6.071   6.696 -1.4721  1.5176 -0.4338
  850MOL0     H12194   4.680   6.240   6.489 -2.2462  0.7703  0.3603
  850MOL0     H12195   4.502   6.212   6.479 -0.1053  1.9914  0.8652
  850MOL0     H12196   4.730   6.002   6.486  0.1427 -1.4496 -1.2190
  850MOL0     H12197   4.558   5.957   6.429 -0.0167  1.1402 -2.3787
  850MOL0     H12198   4.702   6.119   6.079  2.6152 -2.9577  0.6929
  850MOL0     H12199   4.534   6.471   6.969  0.9184  0.8155  2.2001
  850MOL0     H12200   4.346   6.579   7.103 -2.2077  1.2345 -2.4357
  851MOL0     O12201   0.525   2.865   0.708 -0.1245 -0.1819  0.3055
  851MOL0     C12202   0.625   2.880   0.772  1.0569 -0.7104 -0.3834
  851MOL0     O12203   0.637   2.914   0.906  0.2590  0.0649  0.0185
  851MOL0     C12204   0.530   2.887   0.987 -0.4743 -0.0443 -0.5671
  851MOL0     C12205   0.506   2.974   1.091  0.2088 -0.1051 -0.4547
  851MOL0     C12206   0.398   2.954   1.183 -0.5405 -0.5163 -0.0643
  851MOL0     C12207   0.314   2.842   1.177  0.0095  0.0250  0.7687
  851MOL0     O12208   0.218   2.820   1.273  0.1255  0.0225  0.4857
  851MOL0     C12209   0.118   2.719   1.253  0.8102  0.0625 -0.2110
  851MOL0     C12210  -0.002   2.735   1.355  0.2544 -0.3331 -0.2913
  851MOL0     C12211   0.041   2.712   1.500 -0.4656  1.0191  0.0554
  851MOL0     C12212  -0.075   2.726   1.593  0.0873  0.6167  1.0200
  851MOL0     C12213  -0.033   2.708   1.747  0.0027  0.2166 -0.0994
  851MOL0     C12214  -0.156   2.680   1.838  0.2444  0.4623 -1.4833
  851MOL0     C12215  -0.260   2.800   1.848 -0.0501  0.0666  0.5153
  851MOL0     C12216  -0.392   2.776   1.930  0.6009  0.0118  0.0322
  851MOL0     N12217  -0.365   2.791   2.072  0.0445  0.2900 -0.0778
  851MOL0     C12218  -0.344   2.902   2.150 -0.2144 -0.8166  0.3198
  851MOL0     C12219  -0.330   2.864   2.278  0.0922  0.0561 -0.1265
  851MOL0     C12220  -0.298   2.948   2.400 -0.0282 -0.8314  0.6150
  851MOL0     C12221  -0.145   2.978   2.427  0.6126 -0.5690 -0.8529
  851MOL0     C12222  -0.071   2.847   2.460  0.4559  0.1370  0.0597
  851MOL0     C12223   0.085   2.866   2.495 -0.1046 -1.2185  0.9071
  851MOL0     O12224   0.155   2.908   2.373 -0.7125 -0.1712 -0.0211
  851MOL0     C12225   0.290   2.928   2.377 -0.3339 -0.6581 -0.4719
  851MOL0     C12226   0.373   2.897   2.483  0.1177 -0.1061 -0.3756
  851MOL0     C12227   0.513   2.926   2.482 -0.0287  0.0419  0.1133
  851MOL0     C12228   0.570   3.001   2.384 -0.0503 -0.2914  0.0467
  851MOL0     C12229   0.721   3.028   2.380 -0.1838 -0.9846 -0.0053
  851MOL0     O12230   0.791   2.977   2.477 -0.2074 -0.3231  0.9255
  851MOL0     C12231   0.921   2.948   2.459  1.3626  0.6646  0.4195
  851MOL0     C12232   0.946   2.810   2.428 -0.2609 -0.6767 -0.1274
  851MOL0     C12233   1.078   2.779   2.414  0.4135 -0.9361 -0.3001
  851MOL0     C12234   1.177   2.885   2.403 -0.2365  0.1498 -0.5151
  851MOL0     O12235   1.299   2.844   2.371 -0.5851 -0.0307  0.5818
  851MOL0     C12236   1.388   2.939   2.315  0.0724  0.2696 -0.1902
  851MOL0     C12237   1.511   2.850   2.262  0.2601 -0.7343 -0.1839
  851MOL0     C12238   1.637   2.946   2.253 -0.3973  0.1255  0.1871
  851MOL0     C12239   1.743   2.884   2.161  0.0170 -0.7266  1.2908
  851MOL0     C12240   1.836   2.985   2.096 -0.1838 -0.2176 -0.9002
  851MOL0     C12241   1.915   3.074   2.196  0.9126 -0.2916  0.1488
  851MOL0     C12242   2.008   3.169   2.114 -0.2430 -0.1538 -0.4934
  851MOL0     C12243   2.140   3.189   2.201  0.5435 -0.3066 -0.4598
  851MOL0    Cl12244   2.236   3.036   2.219  0.4359 -0.0410  0.0061
  851MOL0     C12245   1.148   3.016   2.437 -0.7774 -0.3572  0.4262
  851MOL0     C12246   1.020   3.049   2.471  0.6431 -0.4826 -0.2211
  851MOL0     O12247   0.770   3.092   2.290 -0.8125  0.3847 -0.0902
  851MOL0     C12248   0.486   3.039   2.271 -0.4210 -1.0413  0.3924
  851MOL0     C12249   0.352   2.997   2.273 -0.3561 -0.4577  0.0845
  851MOL0     N12250  -0.366   2.731   2.281  0.0646 -0.0142 -0.4591
  851MOL0     N12251  -0.362   2.689   2.158 -0.0504  0.2366  0.0686
  851MOL0     C12252   0.335   2.759   1.069 -0.1871  0.7775  0.2259
  851MOL0     C12253   0.451   2.767   0.982  0.2578  0.1338 -0.0067
  851MOL0     C12254   0.754   2.857   0.695 -0.3414  0.3040 -0.5123
  851MOL0     C12255   0.740   2.847   0.551 -0.6842  0.1036  0.1309
  851MOL0     C12256   0.854   2.827   0.480 -0.7013  0.2475  0.1272
  851MOL0     C12257   0.978   2.821   0.538 -0.7783 -0.0373 -0.0500
  851MOL0     O12258   1.079   2.779   0.457 -0.5616  0.0456  0.1720
  851MOL0     C12259   1.216   2.785   0.504  0.0762 -0.4579  1.2896
  851MOL0     C12260   1.290   2.714   0.393  0.1504 -0.9494 -0.5927
  851MOL0     C12261   1.319   2.808   0.280 -0.4270 -0.5235  0.1070
  851MOL0     C12262   1.379   2.731   0.159  0.1357  0.4778  0.4031
  851MOL0     C12263   1.468   2.820   0.083 -0.2467 -0.4518 -0.2283
  851MOL0     C12264   1.547   2.885   0.013 -0.7734  0.5340  0.4316
  851MOL0     C12265   0.986   2.842   0.674 -0.2098  0.2084 -0.7637
  851MOL0     C12266   0.876   2.851   0.756 -0.1658  0.4398 -1.1515
  851MOL0     H12267   0.578   3.055   1.102  0.3200 -0.2945  0.3015
  851MOL0     H12268   0.383   3.035   1.255  3.3328 -0.3567  0.7482
  851MOL0     H12269   0.158   2.618   1.261 -0.1690 -0.2734  0.6326
  851MOL0     H12270   0.067   2.731   1.157 -4.8174  0.6292  2.4373
  851MOL0     H12271  -0.082   2.664   1.333 -0.1091  0.3929 -1.4361
  851MOL0     H12272  -0.039   2.837   1.338  1.5740  0.0332 -1.1070
  851MOL0     H12273   0.115   2.790   1.523 -1.2096  1.6578  0.3074
  851MOL0     H12274   0.079   2.610   1.509 -4.0574 -0.5979 -1.4037
  851MOL0     H12275  -0.126   2.822   1.581 -0.6297  0.1604  0.3533
  851MOL0     H12276  -0.147   2.649   1.565  4.3416 -3.2225 -0.7150
  851MOL0     H12277   0.011   2.799   1.788 -0.9344  0.6897 -0.1302
  851MOL0     H12278   0.038   2.626   1.758 -1.8797 -1.6320 -0.9451
  851MOL0     H12279  -0.130   2.651   1.940  1.2512 -0.5658 -2.0094
  851MOL0     H12280  -0.209   2.590   1.803 -1.9650  0.2775  1.9303
  851MOL0     H12281  -0.216   2.892   1.886 -0.6398 -0.8035  3.5458
  851MOL0     H12282  -0.301   2.809   1.747 -0.6111 -4.9755  0.0373
  851MOL0     H12283  -0.414   2.672   1.903  3.2843 -0.0429 -2.4662
  851MOL0     H12284  -0.469   2.842   1.890  2.4434  2.2671  0.0004
  851MOL0     H12285  -0.325   3.002   2.111 -2.1775 -0.2632  0.6944
  851MOL0     H12286  -0.345   2.905   2.489 -0.0510 -0.0104  1.0184
  851MOL0     H12287  -0.358   3.039   2.388 -1.0266 -1.4800  0.6673
  851MOL0     H12288  -0.143   3.057   2.503 -2.4740  2.3132 -3.3926
  851MOL0     H12289  -0.111   3.022   2.333 -1.1065  0.8210 -0.8843
  851MOL0     H12290  -0.119   2.795   2.543  1.7265 -0.5766  0.3769
  851MOL0     H12291  -0.080   2.780   2.375 -0.6963 -0.0922  0.3509
  851MOL0     H12292   0.130   2.771   2.524  0.3528 -1.6810 -1.1805
  851MOL0     H12293   0.110   2.939   2.573  0.4030 -0.5794  0.1579
  851MOL0     H12294   0.334   2.836   2.565 -0.3497  1.2989  0.4863
  851MOL0     H12295   0.585   2.899   2.559  2.5920  0.6641 -1.9467
  851MOL0     H12296   0.861   2.747   2.405  0.5448 -2.2362  1.0393
  851MOL0     H12297   1.115   2.677   2.403 -0.5828 -1.2930 -0.4393
  851MOL0     H12298   1.421   3.004   2.397 -2.2836  0.2244  0.8778
  851MOL0     H12299   1.346   2.997   2.233 -3.3068 -0.9524  0.5068
  851MOL0     H12300   1.473   2.809   2.168 -1.2098 -1.9659  0.8935
  851MOL0     H12301   1.529   2.762   2.324 -1.8578 -0.2672  1.2033
  851MOL0     H12302   1.688   2.949   2.350  0.0757 -1.1362  0.0022
  851MOL0     H12303   1.602   3.044   2.220 -0.7489  0.5657  1.8029
  851MOL0     H12304   1.790   2.799   2.210 -5.1548 -3.4206  2.2480
  851MOL0     H12305   1.687   2.836   2.080 -0.9117  0.6670  1.0647
  851MOL0     H12306   1.773   3.052   2.037 -0.9124  1.2612  1.4305
  851MOL0     H12307   1.913   2.935   2.036  0.5968  1.4705 -1.3788
  851MOL0     H12308   1.980   3.011   2.258  1.6098 -0.2471 -0.5209
  851MOL0     H12309   1.848   3.136   2.256  1.8963 -1.1562  2.2489
  851MOL0     H12310   2.038   3.134   2.014  2.8387  0.8196 -0.0354
  851MOL0     H12311   1.962   3.267   2.097 -1.0881 -0.7552 -1.8594
  851MOL0     H12312   2.108   3.228   2.298 -1.2954  0.0648 -1.1846
  851MOL0     H12313   2.192   3.280   2.170 -0.5347  1.3655  2.2882
  851MOL0     H12314   1.226   3.091   2.439 -0.6869 -0.3181 -1.9154
  851MOL0     H12315   0.988   3.151   2.492  2.4391 -0.0324  0.4711
  851MOL0     H12316   0.530   3.094   2.188 -0.6740 -0.1224  0.8523
  851MOL0     H12317   0.285   3.037   2.197 -0.5546  2.7104  1.7683
  851MOL0     H12318   0.269   2.675   1.049  1.3618 -0.4148 -0.1043
  851MOL0     H12319   0.470   2.698   0.900  1.3849  0.2430  0.1469
  851MOL0     H12320   0.649   2.853   0.493  0.6706  2.8154 -1.9167
  851MOL0     H12321   0.835   2.815   0.374 -3.3815 -2.8769  0.7747
  851MOL0     H12322   1.224   2.732   0.600  0.5892  1.0321  2.1192
  851MOL0     H12323   1.257   2.886   0.516 -2.6772  1.0368 -0.7909
  851MOL0     H12324   1.383   2.671   0.433  0.9184  2.3181  1.4949
  851MOL0     H12325   1.225   2.630   0.368 -1.3168 -0.2695  0.7423
  851MOL0     H12326   1.384   2.889   0.314 -1.1673 -0.9407  2.7266
  851MOL0     H12327   1.225   2.846   0.239  0.0135  0.3182 -0.1399
  851MOL0     H12328   1.449   2.657   0.198  2.0981  0.9897 -1.8919
  851MOL0     H12329   1.306   2.683   0.093  0.2402 -1.8127  1.8542
  851MOL0     H12330   1.624   2.939  -0.038  1.7781 -0.9885  2.4246
  851MOL0     H12331   1.082   2.846   0.724 -0.0780 -2.0363 -0.7337
  851MOL0     H12332   0.872   2.853   0.865 -1.9543 -0.2983 -1.1664
  852MOL0     O12333   6.629   2.397  11.210  0.4142  0.6985  0.0802
  852MOL0     C12334   6.606   2.287  11.263  0.1486  0.6256 -0.5851
  852MOL0     O12335   6.684   2.173  11.256 -0.0160 -0.8188  0.3916
  852MOL0     C12336   6.816   2.192  11.211  0.4633  0.1264 -0.2526
  852MOL0     C12337   6.876   2.091  11.132 -0.2678  0.2003 -0.6673
  852MOL0     C12338   7.012   2.082  11.111  0.5102  0.0439 -0.5156
  852MOL0     C12339   7.100   2.181  11.160 -0.0688  0.2096 -0.6027
  852MOL0     O12340   7.241   2.180  11.134 -0.7006  0.2417  0.2954
  852MOL0     C12341   7.283   2.115  11.011  0.1097  0.4534  0.9076
  852MOL0     C12342   7.428   2.135  10.973  1.0017  0.1806  0.5719
  852MOL0     C12343   7.471   2.080  10.841  0.4750 -0.4563  0.3571
  852MOL0     C12344   7.593   2.155  10.773  0.9587  0.4726 -0.0654
  852MOL0     C12345   7.711   2.076  10.807 -0.5201 -0.9737 -0.1842
  852MOL0     C12346   7.710   1.943  10.741  0.4676 -0.4835 -0.5137
  852MOL0     C12347   7.852   1.884  10.760 -0.7706 -0.7061 -0.6342
  852MOL0     C12348   7.851   1.735  10.726 -0.7304  0.1280 -0.2482
  852MOL0     N12349   7.973   1.693  10.670  0.1093 -0.0377  1.2744
  852MOL0     C12350   8.050   1.747  10.569  0.0318 -0.8707  0.4584
  852MOL0     C12351   8.175   1.697  10.587 -0.1239  0.4036  0.4330
  852MOL0     C12352   8.300   1.730  10.495 -0.1270 -0.0530 -0.7941
  852MOL0     C12353   8.284   1.698  10.342 -0.0643 -0.1217 -0.7783
  852MOL0     C12354   8.239   1.566  10.282 -0.1977  0.4068  0.0649
  852MOL0     C12355   8.093   1.526  10.297  1.4047 -0.2873 -0.2422
  852MOL0     O12356   8.012   1.631  10.238  0.6404  0.0362  0.0790
  852MOL0     C12357   7.877   1.637  10.277  0.3620  0.0561  0.3419
  852MOL0     C12358   7.799   1.734  10.233 -0.2819  0.7701  0.6163
  852MOL0     C12359   7.668   1.753  10.276 -0.3072  0.0102 -0.2606
  852MOL0     C12360   7.606   1.682  10.369 -0.4619  0.4085  0.1562
  852MOL0     C12361   7.470   1.712  10.413  0.3171 -0.3064 -0.0187
  852MOL0     O12362   7.418   1.654  10.521  0.2385  0.2126 -0.5272
  852MOL0     C12363   7.307   1.711  10.590 -0.4914 -0.0956 -0.1324
  852MOL0     C12364   7.306   1.838  10.643 -0.3146 -1.2766 -0.3567
  852MOL0     C12365   7.195   1.883  10.717  0.4982 -0.3455 -0.6157
  852MOL0     C12366   7.084   1.804  10.735  0.4791  0.1116  0.4825
  852MOL0     O12367   6.973   1.855  10.808  0.8863  0.0449  0.4645
  852MOL0     C12368   6.866   1.771  10.869  0.3011  0.4539  0.4398
  852MOL0     C12369   6.750   1.773  10.773  0.1725  0.5012  0.9253
  852MOL0     C12370   6.640   1.661  10.796  0.3226  0.9178  1.2564
  852MOL0     C12371   6.588   1.644  10.936  0.0390 -0.2961 -0.2732
  852MOL0     C12372   6.502   1.767  10.979  0.1467 -0.5578  0.5442
  852MOL0     C12373   6.482   1.768  11.131  0.6122 -0.6256 -0.3364
  852MOL0     C12374   6.399   1.893  11.172  0.8873  0.3625  0.5750
  852MOL0     C12375   6.245   1.884  11.128  0.1588  0.1144  0.9578
  852MOL0    Cl12376   6.177   1.743  11.202  0.2729 -0.2840  0.5813
  852MOL0     C12377   7.079   1.673  10.671  0.3539 -0.5299 -0.2426
  852MOL0     C12378   7.197   1.625  10.605 -0.1737  0.5714  0.3220
  852MOL0     O12379   7.425   1.820  10.378 -0.0813  0.1126 -0.7322
  852MOL0     C12380   7.683   1.583  10.435 -0.4059  0.8154  0.1485
  852MOL0     C12381   7.816   1.553  10.380  0.2428 -0.3427  0.5090
  852MOL0     N12382   8.174   1.621  10.701  0.3502 -0.2025  0.4720
  852MOL0     N12383   8.055   1.616  10.750 -0.3216 -0.4404 -0.0565
  852MOL0     C12384   7.043   2.289  11.233  0.4443  0.1638  1.1215
  852MOL0     C12385   6.906   2.295  11.254  0.5649  0.2758 -0.0944
  852MOL0     C12386   6.469   2.271  11.322  0.2523 -0.2937  0.2465
  852MOL0     C12387   6.428   2.148  11.385  0.0221  0.6778 -0.0348
  852MOL0     C12388   6.300   2.131  11.424 -0.0345  0.2942  0.0641
  852MOL0     C12389   6.194   2.226  11.407  0.2145 -0.7487 -0.0695
  852MOL0     O12390   6.059   2.212  11.435 -0.5048  0.5270 -0.0394
  852MOL0     C12391   6.009   2.074  11.441 -0.2674 -0.0696 -0.1714
  852MOL0     C12392   5.858   2.080  11.466 -0.5484  0.1596 -0.1804
  852MOL0     C12393   5.787   1.954  11.412 -0.1607 -0.0840 -0.4787
  852MOL0     C12394   5.636   1.963  11.444 -0.5285  0.5816  0.3192
  852MOL0     C12395   5.598   1.858  11.541 -0.1625 -0.1381  1.1133
  852MOL0     C12396   5.578   1.768  11.623  0.5959  0.1256  0.5342
  852MOL0     C12397   6.231   2.352  11.360 -0.6311  1.1156 -1.1080
  852MOL0     C12398   6.367   2.372  11.317  0.0804  0.8475  0.8884
  852MOL0     H12399   6.811   2.005  11.119  0.2941 -0.5184  0.9512
  852MOL0     H12400   7.037   1.994  11.053  0.2633 -0.5846  0.3157
  852MOL0     H12401   7.211   2.156  10.940 -1.0909  0.3238  2.0134
  852MOL0     H12402   7.273   2.006  11.014  3.9610 -0.1159 -1.2555
  852MOL0     H12403   7.478   2.081  11.054  0.0880 -0.6005  0.6350
  852MOL0     H12404   7.457   2.240  10.973  1.0278  0.3803 -3.6886
  852MOL0     H12405   7.394   2.109  10.769  1.4650  1.7980  0.1321
  852MOL0     H12406   7.465   1.970  10.843 -0.6406 -0.4694 -1.5414
  852MOL0     H12407   7.576   2.162  10.665  0.0646 -0.2945  0.0147
  852MOL0     H12408   7.601   2.261  10.801  2.7256  0.9847 -2.2055
  852MOL0     H12409   7.718   2.054  10.914 -1.1384 -1.5401 -0.2506
  852MOL0     H12410   7.802   2.129  10.776 -2.2317  2.4441  0.2088
  852MOL0     H12411   7.689   1.964  10.635 -1.0316  0.8694  0.0144
  852MOL0     H12412   7.638   1.872  10.784 -1.1213 -0.0325 -2.2654
  852MOL0     H12413   7.915   1.947  10.698  0.7725 -1.6284 -0.0682
  852MOL0     H12414   7.896   1.898  10.859  3.1930  0.7747 -2.4093
  852MOL0     H12415   7.770   1.732  10.653 -0.4791 -1.1551 -0.4859
  852MOL0     H12416   7.823   1.689  10.821 -3.1812  1.5114 -0.2095
  852MOL0     H12417   8.007   1.818  10.499  2.0256 -0.8945 -0.8884
  852MOL0     H12418   8.386   1.675  10.534 -1.3958 -1.0956  0.6611
  852MOL0     H12419   8.326   1.833  10.520 -2.3860  0.4828 -0.3888
  852MOL0     H12420   8.384   1.711  10.300 -0.4249 -1.1521 -2.0257
  852MOL0     H12421   8.219   1.775  10.298 -0.9583 -0.0901  0.5423
  852MOL0     H12422   8.263   1.567  10.175  3.0526 -0.1609  0.6582
  852MOL0     H12423   8.299   1.482  10.319 -0.5835  0.3243  0.5140
  852MOL0     H12424   8.067   1.507  10.401 -0.4576 -1.6005 -0.8967
  852MOL0     H12425   8.072   1.427  10.254  0.9506  1.3877 -4.3926
  852MOL0     H12426   7.829   1.796  10.149  2.0312 -0.7638  0.2212
  852MOL0     H12427   7.609   1.820  10.214 -0.5406  0.3783  0.3481
  852MOL0     H12428   7.395   1.898  10.627 -1.3744  1.7761  3.4081
  852MOL0     H12429   7.202   1.976  10.772 -0.7043 -0.4082 -0.3400
  852MOL0     H12430   6.838   1.817  10.964  1.4292  1.9306  0.1018
  852MOL0     H12431   6.913   1.674  10.887  0.1608  0.3171  0.0745
  852MOL0     H12432   6.769   1.760  10.666 -0.0494  1.7394  0.7135
  852MOL0     H12433   6.696   1.869  10.775  0.3593  0.6024  2.1889
  852MOL0     H12434   6.688   1.566  10.773 -1.7462  0.4555 -1.7520
  852MOL0     H12435   6.560   1.689  10.727  3.5685  5.1152 -1.3228
  852MOL0     H12436   6.531   1.551  10.946 -2.9307  1.3275 -1.0271
  852MOL0     H12437   6.674   1.632  11.002  0.7787  2.6137 -0.5722
  852MOL0     H12438   6.407   1.770  10.926  0.6172  1.8357 -0.3080
  852MOL0     H12439   6.547   1.866  10.961  0.6149 -0.5465  1.7027
  852MOL0     H12440   6.576   1.764  11.187 -0.1325  2.1617  1.3232
  852MOL0     H12441   6.424   1.677  11.146 -0.6067 -0.5617 -3.7896
  852MOL0     H12442   6.404   1.912  11.279  1.0819  0.9005  0.4741
  852MOL0     H12443   6.442   1.975  11.113  0.9004 -1.4948 -2.1940
  852MOL0     H12444   6.239   1.883  11.019  2.3655  3.3306  0.6736
  852MOL0     H12445   6.185   1.971  11.154 -2.7603 -1.7076  0.7437
  852MOL0     H12446   6.997   1.605  10.690  0.8238 -2.2227 -3.5261
  852MOL0     H12447   7.198   1.529  10.554 -2.6044 -0.8342  2.6626
  852MOL0     H12448   7.649   1.508  10.506 -0.3133  0.4651 -0.1733
  852MOL0     H12449   7.869   1.463  10.409  1.4240  0.2618  0.2781
  852MOL0     H12450   7.111   2.368  11.265  0.2614  1.9491 -2.4441
  852MOL0     H12451   6.866   2.368  11.323 -0.4276 -0.8176  0.5282
  852MOL0     H12452   6.490   2.059  11.398  1.1220  1.4974  0.4566
  852MOL0     H12453   6.269   2.030  11.448  0.0385 -0.2075 -1.7687
  852MOL0     H12454   6.056   2.010  11.517 -2.0980 -0.0303  1.0714
  852MOL0     H12455   6.033   2.020  11.349 -0.0489  0.1556 -0.2472
  852MOL0     H12456   5.839   2.102  11.571  1.1971 -0.4613  0.3023
  852MOL0     H12457   5.825   2.168  11.410  0.9847 -0.1566 -1.6519
  852MOL0     H12458   5.839   1.863  11.443  3.6634  1.8908 -0.4442
  852MOL0     H12459   5.803   1.961  11.304 -0.8768  4.3465 -0.4729
  852MOL0     H12460   5.623   2.060  11.494 -0.1445 -0.0240  1.6351
  852MOL0     H12461   5.579   1.956  11.351  1.8811  2.0926 -1.3729
  852MOL0     H12462   5.557   1.685  11.686  0.5128  0.5386  1.0611
  852MOL0     H12463   6.165   2.438  11.363 -1.9588  0.1180 -0.6663
  852MOL0     H12464   6.392   2.465  11.266 -0.1704 -0.0373 -0.9247
  853MOL0     O12465   4.642   1.202   9.559 -0.7468  0.2120  0.7097
  853MOL0     C12466   4.557   1.218   9.468  0.0146 -0.2321  0.5471
  853MOL0     O12467   4.580   1.251   9.336 -0.1138  0.2043 -0.2186
  853MOL0     C12468   4.716   1.244   9.306 -0.1737  0.4489 -0.5671
  853MOL0     C12469   4.784   1.126   9.273 -0.3146  0.6437 -0.6376
  853MOL0     C12470   4.926   1.127   9.252 -0.2424 -0.1421 -0.4614
  853MOL0     C12471   5.000   1.244   9.278 -0.3598  0.3709  1.3929
  853MOL0     O12472   5.139   1.260   9.253 -0.1054  0.3794 -0.2172
  853MOL0     C12473   5.215   1.140   9.251 -0.3545  0.9188  0.6205
  853MOL0     C12474   5.359   1.173   9.189  0.0735 -0.2108 -0.9026
  853MOL0     C12475   5.472   1.105   9.269 -0.1735  0.4636  0.7051
  853MOL0     C12476   5.473   0.949   9.266  0.1483  0.0369  0.3194
  853MOL0     C12477   5.596   0.887   9.332 -1.1724  0.1956  0.4185
  853MOL0     C12478   5.589   0.738   9.299  0.0184  0.8884 -0.5070
  853MOL0     C12479   5.710   0.677   9.367  0.4002  0.0975  0.6626
  853MOL0     C12480   5.709   0.529   9.315 -0.1078  0.4255 -0.2065
  853MOL0     N12481   5.835   0.460   9.370  0.1609 -0.0467 -0.5828
  853MOL0     C12482   5.850   0.397   9.492  0.1434  0.0560  0.7398
  853MOL0     C12483   5.969   0.339   9.492 -0.4483 -0.1268  0.4425
  853MOL0     C12484   6.018   0.227   9.583  0.5668 -0.3894 -0.0091
  853MOL0     C12485   6.113   0.132   9.519 -0.5720 -0.9852 -0.2677
  853MOL0     C12486   6.169   0.022   9.609  0.0476  0.2157  0.1295
  853MOL0     C12487   6.071  -0.082   9.659  0.4916 -0.0198  0.2804
  853MOL0     O12488   6.010  -0.148   9.548  0.0536  0.3972  0.6734
  853MOL0     C12489   5.888  -0.204   9.577  0.4141  0.2665  0.3844
  853MOL0     C12490   5.771  -0.173   9.507  0.0114 -0.1969  0.7726
  853MOL0     C12491   5.647  -0.224   9.541 -0.2558  0.3971  0.0377
  853MOL0     C12492   5.636  -0.327   9.637  0.3084  0.0002 -0.6167
  853MOL0     C12493   5.500  -0.370   9.683 -0.5064  0.0334  0.4972
  853MOL0     O12494   5.393  -0.315   9.616  0.3991 -0.0018  0.6021
  853MOL0     C12495   5.274  -0.336   9.677 -0.2606 -0.4318  0.8280
  853MOL0     C12496   5.244  -0.288   9.803  1.3173  0.1717 -0.6749
  853MOL0     C12497   5.114  -0.297   9.853  0.2879  0.3025 -0.0123
  853MOL0     C12498   5.015  -0.348   9.775 -0.4958  0.3225  0.2861
  853MOL0     O12499   4.887  -0.365   9.819  0.0265 -0.2163 -0.0545
  853MOL0     C12500   4.840  -0.277   9.926  0.6135  0.2306  0.3069
  853MOL0     C12501   4.840  -0.132   9.883 -0.0738 -0.4912 -0.1382
  853MOL0     C12502   4.815  -0.029   9.995  0.1759 -0.1175  0.1574
  853MOL0     C12503   4.798   0.117   9.948 -0.6050 -0.1264 -0.5318
  853MOL0     C12504   4.859   0.218  10.044 -0.2144  0.5999  0.0134
  853MOL0     C12505   5.010   0.237  10.014 -0.3401 -0.4996  0.4016
  853MOL0     C12506   5.061   0.361  10.085 -0.0047 -0.0517 -0.0543
  853MOL0     C12507   5.118   0.345  10.225 -0.0800 -0.4697  0.6930
  853MOL0    Cl12508   4.993   0.260  10.335 -0.1677 -0.0890  0.9002
  853MOL0     C12509   5.040  -0.396   9.653  0.3698  0.4337 -0.9290
  853MOL0     C12510   5.167  -0.389   9.605 -1.0380 -0.0950  0.7559
  853MOL0     O12511   5.497  -0.454   9.782 -0.5086 -1.3564 -0.0450
  853MOL0     C12512   5.753  -0.361   9.705 -0.0535 -0.3435 -0.2711
  853MOL0     C12513   5.875  -0.299   9.680 -0.2881 -0.6158  0.5369
  853MOL0     N12514   6.026   0.373   9.366  0.2034  0.9634 -0.7073
  853MOL0     N12515   5.949   0.452   9.306  0.9157 -0.4856  0.8681
  853MOL0     C12516   4.931   1.361   9.310 -0.2468  0.4600  0.3916
  853MOL0     C12517   4.792   1.362   9.322 -0.1901  0.4155  0.1471
  853MOL0     C12518   4.419   1.183   9.512  0.0904  0.2760 -0.1153
  853MOL0     C12519   4.313   1.251   9.455 -1.1945  0.2199 -0.3237
  853MOL0     C12520   4.180   1.234   9.498  0.7624 -0.0308  0.4346
  853MOL0     C12521   4.146   1.148   9.607 -0.2303  0.5143  0.2649
  853MOL0     O12522   4.024   1.123   9.667  0.7432 -0.5784 -0.0551
  853MOL0     C12523   3.909   1.197   9.597  0.1680  0.1478  0.3412
  853MOL0     C12524   3.791   1.180   9.699 -0.1311 -0.2309 -0.8639
  853MOL0     C12525   3.810   1.252   9.838 -0.5356  0.9162  0.0039
  853MOL0     C12526   3.725   1.373   9.837  0.6826  0.1477 -1.0950
  853MOL0     C12527   3.748   1.445   9.961  0.1739 -0.5658  0.6071
  853MOL0     C12528   3.775   1.513  10.057 -0.2090 -0.6405  0.0323
  853MOL0     C12529   4.258   1.087   9.668 -0.4992  0.7563 -0.7793
  853MOL0     C12530   4.390   1.098   9.623 -0.6107  0.1899  0.9261
  853MOL0     H12531   4.738   1.028   9.281  3.1123 -0.9474  3.0092
  853MOL0     H12532   4.972   1.030   9.233 -3.3485 -1.6529 -0.9312
  853MOL0     H12533   5.182   1.054   9.191  0.7770 -0.0583  1.3373
  853MOL0     H12534   5.219   1.101   9.354  1.5765 -0.3666  0.1313
  853MOL0     H12535   5.383   1.280   9.190 -0.5082 -0.0766 -0.4576
  853MOL0     H12536   5.365   1.135   9.087 -1.1479  0.9591 -1.4511
  853MOL0     H12537   5.474   1.141   9.373  1.4706  0.2408  0.7680
  853MOL0     H12538   5.566   1.139   9.226  2.3377 -4.7687  1.2926
  853MOL0     H12539   5.383   0.901   9.305 -0.8563 -0.1203 -2.0561
  853MOL0     H12540   5.465   0.927   9.159 -0.4171  0.0275  0.3616
  853MOL0     H12541   5.599   0.910   9.439 -1.3264  4.4769 -0.3241
  853MOL0     H12542   5.691   0.920   9.288 -2.4970  0.4979 -2.4698
  853MOL0     H12543   5.582   0.727   9.191 -0.3128  2.5227 -0.6734
  853MOL0     H12544   5.498   0.698   9.347  1.3930 -2.7411 -0.6105
  853MOL0     H12545   5.791   0.735   9.321 -1.2591  1.6374 -0.4438
  853MOL0     H12546   5.699   0.678   9.476  1.1668 -1.7183  0.7837
  853MOL0     H12547   5.704   0.534   9.206  2.1416  2.3078 -0.3130
  853MOL0     H12548   5.622   0.471   9.346 -0.0942  1.4629  1.9742
  853MOL0     H12549   5.770   0.393   9.565 -0.0688  0.3937  0.5319
  853MOL0     H12550   5.931   0.174   9.624  1.9449 -1.9287  1.0848
  853MOL0     H12551   6.078   0.284   9.655 -2.2072  0.7090  1.5871
  853MOL0     H12552   6.198   0.184   9.474  0.3954 -3.1215 -1.0514
  853MOL0     H12553   6.069   0.075   9.437 -0.5170 -2.3409  0.6104
  853MOL0     H12554   6.241  -0.027   9.543 -0.0396  2.4458 -1.7320
  853MOL0     H12555   6.225   0.064   9.694 -0.3669  0.1538  0.4384
  853MOL0     H12556   6.014  -0.015   9.724  0.1913  1.4371 -1.4061
  853MOL0     H12557   6.129  -0.154   9.718  3.5960  0.1240 -2.3145
  853MOL0     H12558   5.778  -0.092   9.435  3.4845  0.9631  2.1748
  853MOL0     H12559   5.560  -0.189   9.486  0.3867 -2.0129 -2.7609
  853MOL0     H12560   5.307  -0.230   9.870  0.8407  2.8179 -2.3805
  853MOL0     H12561   5.097  -0.280   9.959  4.0930  0.5987  0.7045
  853MOL0     H12562   4.902  -0.304  10.012  2.3502 -0.3811 -1.0872
  853MOL0     H12563   4.738  -0.306   9.956  0.5440 -1.2840 -1.2034
  853MOL0     H12564   4.763  -0.131   9.805 -0.6152 -0.0304  0.3851
  853MOL0     H12565   4.926  -0.097   9.825  1.0729 -2.7793  0.0643
  853MOL0     H12566   4.896  -0.034  10.068 -2.5381 -1.6257  3.3170
  853MOL0     H12567   4.728  -0.058  10.055 -0.0307 -0.0968 -0.1291
  853MOL0     H12568   4.844   0.130   9.849 -0.1740  1.0161 -0.1947
  853MOL0     H12569   4.693   0.140   9.929 -0.2411  0.1839 -2.4169
  853MOL0     H12570   4.839   0.205  10.151  1.0195 -0.8540  0.1035
  853MOL0     H12571   4.808   0.313  10.023 -0.9528  0.3190  0.4847
  853MOL0     H12572   5.027   0.266   9.910  0.7181 -0.1006  0.6672
  853MOL0     H12573   5.080   0.160  10.045  1.2200  0.1765 -1.2830
  853MOL0     H12574   5.150   0.394  10.032  1.9908 -0.9842  2.5219
  853MOL0     H12575   4.985   0.439  10.075  0.0789 -0.0939 -1.1663
  853MOL0     H12576   5.141   0.443  10.268 -4.1601  0.9100  0.1974
  853MOL0     H12577   5.212   0.289  10.223 -0.4771 -1.2486  2.2505
  853MOL0     H12578   4.951  -0.420   9.595  0.6114  5.0594 -3.7405
  853MOL0     H12579   5.177  -0.398   9.497  0.4553  3.8401  0.3712
  853MOL0     H12580   5.757  -0.441   9.778  2.8359 -0.5578 -0.5253
  853MOL0     H12581   5.961  -0.326   9.741 -1.2389  0.2121  2.3361
  853MOL0     H12582   4.988   1.453   9.320  0.9388 -0.2259  0.0587
  853MOL0     H12583   4.734   1.445   9.361 -0.3404  1.2796 -1.8127
  853MOL0     H12584   4.334   1.313   9.368 -1.4218  0.6894 -0.0485
  853MOL0     H12585   4.114   1.291   9.433  2.0236  1.4640  0.3843
  853MOL0     H12586   3.875   1.156   9.502 -1.4826  1.9241  0.1015
  853MOL0     H12587   3.935   1.302   9.583 -1.8412  0.5133 -1.1506
  853MOL0     H12588   3.700   1.212   9.647 -0.1482  1.7833  0.2611
  853MOL0     H12589   3.773   1.075   9.724  0.3383 -0.5755 -1.9305
  853MOL0     H12590   3.917   1.264   9.853 -0.7492 -0.2678  3.4931
  853MOL0     H12591   3.767   1.193   9.920 -0.2042  3.1015  1.8577
  853MOL0     H12592   3.760   1.433   9.753 -2.3109  2.1049 -1.1027
  853MOL0     H12593   3.620   1.342   9.826  0.6654  0.1709 -0.9894
  853MOL0     H12594   3.812   1.567  10.142  2.5072  0.3147 -1.6299
  853MOL0     H12595   4.243   1.022   9.753 -1.9078  1.7766 -0.1901
  853MOL0     H12596   4.471   1.045   9.672  0.3331  0.3687 -0.3814
  854MOL0     O12597   1.421   0.961   9.818 -0.1662  1.0377  0.1155
  854MOL0     C12598   1.487   1.065   9.839 -0.9422  0.2476  0.5880
  854MOL0     O12599   1.463   1.161   9.930 -0.1686 -0.8901 -0.0658
  854MOL0     C12600   1.340   1.166   9.990 -0.0544 -0.3016  0.6314
  854MOL0     C12601   1.325   1.155  10.129 -0.1786  0.1034  1.1274
  854MOL0     C12602   1.194   1.163  10.177 -0.2863 -0.6558  0.4425
  854MOL0     C12603   1.080   1.161  10.098  0.3742 -0.1336  0.3062
  854MOL0     O12604   0.948   1.166  10.141  0.5707  0.1746  0.3994
  854MOL0     C12605   0.911   1.101  10.273  0.1261  0.3277 -0.1998
  854MOL0     C12606   0.777   1.018  10.258  0.5564 -0.1031 -0.4726
  854MOL0     C12607   0.663   1.112  10.244  0.3981  0.0133  1.4160
  854MOL0     C12608   0.536   1.049  10.193  0.8698  0.1589  0.3369
  854MOL0     C12609   0.533   1.003  10.050  0.1755 -0.8980 -0.6167
  854MOL0     C12610   0.430   0.892  10.009 -0.1550 -0.4334 -0.6688
  854MOL0     C12611   0.460   0.757  10.080  0.7845  0.5727  0.9986
  854MOL0     C12612   0.602   0.709  10.057  0.1494  0.3020  0.5806
  854MOL0     N12613   0.628   0.602  10.150 -0.1220 -0.1691  0.2279
  854MOL0     C12614   0.653   0.472  10.115 -0.2406  0.1068 -0.0010
  854MOL0     C12615   0.670   0.410  10.237 -0.8938  0.2441 -0.2188
  854MOL0     C12616   0.697   0.264  10.274  0.6699 -0.1051  0.5435
  854MOL0     C12617   0.614   0.169  10.189  0.5906 -0.9966  0.5032
  854MOL0     C12618   0.596   0.026  10.230  0.1141 -0.6247 -1.0630
  854MOL0     C12619   0.488  -0.053  10.153 -0.3432  0.1847  0.2375
  854MOL0     O12620   0.490  -0.186  10.207  0.9807  0.4935  0.3701
  854MOL0     C12621   0.386  -0.273  10.169  0.2256 -0.3728 -0.7123
  854MOL0     C12622   0.326  -0.373  10.257 -0.0625 -0.1463  0.2456
  854MOL0     C12623   0.220  -0.455  10.222 -0.1784 -0.3260  0.3149
  854MOL0     C12624   0.171  -0.449  10.094 -0.2733 -0.3175  0.2298
  854MOL0     C12625   0.054  -0.532  10.051 -0.0654 -0.0574  0.5863
  854MOL0     O12626   0.006  -0.510   9.922 -0.4675 -0.3639  0.5543
  854MOL0     C12627  -0.097  -0.581   9.872  0.3157  0.4298 -0.7348
  854MOL0     C12628  -0.205  -0.635   9.948 -0.1576 -0.2241  0.0020
  854MOL0     C12629  -0.314  -0.689   9.880  0.2918  0.4324 -0.6064
  854MOL0     C12630  -0.318  -0.704   9.747  0.4387 -0.2084  0.9503
  854MOL0     O12631  -0.426  -0.753   9.664  0.1776 -0.4416 -0.1466
  854MOL0     C12632  -0.536  -0.812   9.737 -1.0039 -0.4715 -0.0212
  854MOL0     C12633  -0.620  -0.710   9.797  0.4881 -0.6240 -0.5887
  854MOL0     C12634  -0.706  -0.644   9.681  0.3751 -0.5941  0.9568
  854MOL0     C12635  -0.823  -0.558   9.726  0.6537 -0.5827 -0.0755
  854MOL0     C12636  -0.941  -0.635   9.798  0.9103 -0.3166 -0.4368
  854MOL0     C12637  -1.027  -0.709   9.683  0.7159  0.3614 -0.0434
  854MOL0     C12638  -1.132  -0.799   9.749  0.0626 -1.3809  0.7265
  854MOL0     C12639  -1.229  -0.864   9.654  0.2944 -0.7933 -0.5437
  854MOL0    Cl12640  -1.365  -0.943   9.743 -0.4220  0.3356 -0.4409
  854MOL0     C12641  -0.207  -0.669   9.669  0.2700  0.3138 -0.5138
  854MOL0     C12642  -0.111  -0.580   9.729 -0.8585  0.7662  0.1922
  854MOL0     O12643   0.020  -0.627  10.118 -0.2172  0.3333 -0.0429
  854MOL0     C12644   0.219  -0.363  10.002 -0.2961  0.0538 -0.5241
  854MOL0     C12645   0.322  -0.273  10.041  1.0654 -0.1740  0.0183
  854MOL0     N12646   0.642   0.498  10.336 -0.7837  0.0111  0.3023
  854MOL0     N12647   0.628   0.612  10.287 -0.4514  0.1035  0.2633
  854MOL0     C12648   1.094   1.173   9.961  0.1212  0.9943  0.4542
  854MOL0     C12649   1.227   1.178   9.909  0.4297 -0.5312 -0.1268
  854MOL0     C12650   1.619   1.096   9.765  0.2310  0.7907  0.3897
  854MOL0     C12651   1.702   1.200   9.803 -0.2690  0.0912  0.1577
  854MOL0     C12652   1.817   1.230   9.727 -0.2662 -0.3487 -0.3047
  854MOL0     C12653   1.844   1.155   9.613 -0.2872  0.0624  0.1184
  854MOL0     O12654   1.947   1.181   9.525  0.8657 -0.4254 -0.3654
  854MOL0     C12655   2.078   1.158   9.581  0.0924  0.2259 -0.0596
  854MOL0     C12656   2.170   1.115   9.461  0.3339 -1.1988 -0.0960
  854MOL0     C12657   2.121   0.989   9.385  0.6434 -0.0577 -0.7860
  854MOL0     C12658   2.110   1.003   9.232 -0.2477 -0.3575  0.5453
  854MOL0     C12659   2.004   1.097   9.196 -0.7817 -0.7341 -0.2440
  854MOL0     C12660   1.931   1.187   9.156 -0.4980 -0.1698  0.0851
  854MOL0     C12661   1.767   1.046   9.571  0.5693 -0.0099 -1.0817
  854MOL0     C12662   1.654   1.020   9.651  1.1419  0.0294 -0.4833
  854MOL0     H12663   1.407   1.154  10.199  1.7097 -3.3911 -0.8864
  854MOL0     H12664   1.192   1.161  10.286  0.6386  0.9965  0.5199
  854MOL0     H12665   0.903   1.183  10.345  2.8507  0.9007 -0.4637
  854MOL0     H12666   0.982   1.029  10.313  0.1367 -0.1492 -1.0522
  854MOL0     H12667   0.761   0.949  10.342  1.3434 -1.7470 -1.6024
  854MOL0     H12668   0.790   0.954  10.170 -4.3541  0.4316 -1.8750
  854MOL0     H12669   0.707   1.186  10.176  2.8011 -2.4622  0.0906
  854MOL0     H12670   0.642   1.162  10.339 -0.1369  0.6955  0.9518
  854MOL0     H12671   0.501   0.965  10.253 -0.3097 -2.5544 -3.7634
  854MOL0     H12672   0.455   1.119  10.214  0.7375 -0.2014  1.0825
  854MOL0     H12673   0.635   0.980  10.017  0.9387  3.4151 -1.9478
  854MOL0     H12674   0.516   1.100  10.001  1.4570  0.4183  1.4117
  854MOL0     H12675   0.439   0.873   9.902  0.2480  1.4733 -1.0070
  854MOL0     H12676   0.333   0.926  10.046  0.3061 -0.5576  0.7184
  854MOL0     H12677   0.433   0.766  10.186 -1.3768  0.7194  0.4881
  854MOL0     H12678   0.393   0.680  10.042  2.2702 -0.9345  1.3492
  854MOL0     H12679   0.688   0.776  10.071  0.4253  0.4516 -1.5498
  854MOL0     H12680   0.615   0.666   9.958  1.9970 -1.3676  1.4772
  854MOL0     H12681   0.677   0.431  10.017 -1.9046  2.0330 -1.2868
  854MOL0     H12682   0.669   0.251  10.379  1.4570  1.1025  0.9153
  854MOL0     H12683   0.803   0.245  10.255  0.6813  2.5599 -2.8947
  854MOL0     H12684   0.638   0.157  10.083 -1.5846 -3.1859  0.1753
  854MOL0     H12685   0.515   0.215  10.195  1.2975  0.7464 -0.4985
  854MOL0     H12686   0.698  -0.010  10.210  1.2690  2.7057 -1.6886
  854MOL0     H12687   0.580   0.022  10.338 -0.7055 -0.5322 -1.1778
  854MOL0     H12688   0.507  -0.052  10.045  2.7284 -3.0398  0.5600
  854MOL0     H12689   0.392  -0.008  10.180 -0.9826 -0.9083 -0.1407
  854MOL0     H12690   0.367  -0.365  10.357  3.1224 -0.7082 -0.9101
  854MOL0     H12691   0.183  -0.514  10.305  0.7604 -3.4319 -1.3114
  854MOL0     H12692  -0.201  -0.638  10.056  0.2326 -0.2130 -0.0094
  854MOL0     H12693  -0.393  -0.716   9.949  1.5209 -1.2348  0.2282
  854MOL0     H12694  -0.488  -0.873   9.815  1.8225  3.1744  1.3413
  854MOL0     H12695  -0.585  -0.879   9.665 -0.5343  2.1327 -2.9570
  854MOL0     H12696  -0.566  -0.630   9.849 -0.8969 -0.6609  0.9941
  854MOL0     H12697  -0.695  -0.757   9.861 -0.2027 -3.1373 -3.0323
  854MOL0     H12698  -0.749  -0.719   9.614 -2.0099  2.6196 -1.4344
  854MOL0     H12699  -0.635  -0.585   9.622 -0.7187  1.8046  1.9158
  854MOL0     H12700  -0.789  -0.481   9.796 -0.4254  1.6820 -1.9106
  854MOL0     H12701  -0.852  -0.499   9.638  0.3323  2.5227  1.9314
  854MOL0     H12702  -1.005  -0.565   9.853  1.0068 -0.6086  0.0593
  854MOL0     H12703  -0.907  -0.709   9.872 -0.1475 -0.2480  0.1376
  854MOL0     H12704  -0.956  -0.778   9.638 -0.5699  0.7917 -2.9281
  854MOL0     H12705  -1.061  -0.639   9.606  2.9196 -1.8831 -3.2834
  854MOL0     H12706  -1.082  -0.879   9.805 -2.1438 -2.2925  1.4953
  854MOL0     H12707  -1.192  -0.724   9.802  1.3832 -0.0332  0.3906
  854MOL0     H12708  -1.175  -0.938   9.594 -1.7635 -1.8411 -1.1886
  854MOL0     H12709  -1.271  -0.797   9.578  1.1211 -2.2556 -2.3912
  854MOL0     H12710  -0.197  -0.697   9.565 -1.7105  1.4281 -1.0656
  854MOL0     H12711  -0.037  -0.544   9.659  0.3909 -1.0173  0.5161
  854MOL0     H12712   0.179  -0.347   9.902 -1.5952 -1.0079 -0.1965
  854MOL0     H12713   0.355  -0.215   9.955 -1.0424 -1.8771 -2.0812
  854MOL0     H12714   1.004   1.177   9.899 -0.4211 -0.6412  1.0607
  854MOL0     H12715   1.241   1.211   9.807  1.0358  1.7025  0.6382
  854MOL0     H12716   1.679   1.266   9.886 -0.7500  2.0671 -1.4767
  854MOL0     H12717   1.891   1.302   9.759 -2.2354  1.8572 -0.4397
  854MOL0     H12718   2.097   1.091   9.666 -1.2695  0.4343  0.4291
  854MOL0     H12719   2.116   1.253   9.618  2.3201 -0.1022 -1.3379
  854MOL0     H12720   2.181   1.189   9.382  2.6241 -1.3283  0.0292
  854MOL0     H12721   2.267   1.114   9.511 -1.5679 -0.0861  4.0687
  854MOL0     H12722   2.022   0.960   9.419  0.2156 -0.4356 -2.2939
  854MOL0     H12723   2.185   0.904   9.411  0.5835 -0.0438 -0.5953
  854MOL0     H12724   2.204   1.044   9.193 -0.1961  0.8742  1.8749
  854MOL0     H12725   2.088   0.906   9.186 -3.6870  0.9448 -0.8941
  854MOL0     H12726   1.838   1.239   9.147 -0.0454  0.6711  0.1983
  854MOL0     H12727   1.791   0.999   9.477  0.9695  2.1495 -2.1279
  854MOL0     H12728   1.572   0.959   9.615  0.1656  2.3184 -2.4515
  855MOL0     O12729   7.828   8.562   6.341  0.6065 -0.2162  0.8393
  855MOL0     C12730   7.887   8.669   6.364 -0.7490  0.5995 -0.0054
  855MOL0     O12731   7.843   8.774   6.425  0.2488 -0.3829 -0.1113
  855MOL0     C12732   7.707   8.781   6.435  0.3033 -0.8388  0.1502
  855MOL0     C12733   7.624   8.821   6.324  0.1552 -0.1292  0.2779
  855MOL0     C12734   7.488   8.852   6.344 -0.3679  0.6159 -0.4196
  855MOL0     C12735   7.428   8.844   6.475 -1.4858  0.0600  0.3689
  855MOL0     O12736   7.309   8.896   6.506 -0.5826 -0.0905 -0.4041
  855MOL0     C12737   7.253   8.995   6.411 -0.4076  0.7779 -0.3569
  855MOL0     C12738   7.141   9.075   6.484 -0.3026 -0.3029 -0.5777
  855MOL0     C12739   7.021   8.977   6.510  0.1874  0.0095 -0.1073
  855MOL0     C12740   6.937   8.951   6.389 -0.2724  0.2543  0.7579
  855MOL0     C12741   6.812   8.856   6.417 -0.2321  0.5353 -0.1317
  855MOL0     C12742   6.751   8.792   6.289  0.1414  0.0386 -0.6159
  855MOL0     C12743   6.609   8.736   6.315 -0.1419  0.3522 -0.0241
  855MOL0     C12744   6.555   8.657   6.194  0.2589 -0.0398  0.1278
  855MOL0     N12745   6.519   8.745   6.079 -0.5274 -1.5355  0.1092
  855MOL0     C12746   6.404   8.825   6.055  0.3761  1.2234 -0.5025
  855MOL0     C12747   6.439   8.901   5.946 -0.9520 -0.6758 -1.1486
  855MOL0     C12748   6.350   8.993   5.867  0.1445 -0.3246  0.3258
  855MOL0     C12749   6.314   8.938   5.720  0.5524  0.6338  0.8011
  855MOL0     C12750   6.192   9.020   5.674  0.0575  0.5021  0.3807
  855MOL0     C12751   6.099   8.945   5.589  0.8279  0.5754 -0.0621
  855MOL0     O12752   6.173   8.895   5.477 -0.7264  0.1962  0.0219
  855MOL0     C12753   6.137   8.790   5.405 -0.2682  0.1531  0.1361
  855MOL0     C12754   6.228   8.706   5.342 -0.3893 -1.0675 -0.2075
  855MOL0     C12755   6.192   8.599   5.264 -0.3587 -0.7242 -0.7029
  855MOL0     C12756   6.062   8.567   5.251 -0.1294  0.1385  1.1461
  855MOL0     C12757   6.025   8.441   5.179 -0.4656 -0.3682 -0.2759
  855MOL0     O12758   5.904   8.409   5.172 -0.1715  0.0018 -0.5337
  855MOL0     C12759   5.869   8.283   5.165 -0.1130 -0.5602  0.6059
  855MOL0     C12760   5.754   8.275   5.091 -0.8704 -0.0302  0.7105
  855MOL0     C12761   5.689   8.161   5.087  0.2870 -0.4297 -0.3806
  855MOL0     C12762   5.737   8.050   5.151  0.1499  0.5126  0.2079
  855MOL0     O12763   5.660   7.934   5.141 -0.5147  0.4898 -0.0416
  855MOL0     C12764   5.721   7.811   5.176 -0.6659  0.3136 -0.4384
  855MOL0     C12765   5.635   7.682   5.150 -0.0569  0.6212 -0.8922
  855MOL0     C12766   5.504   7.697   5.243  0.6972  0.0911 -0.0269
  855MOL0     C12767   5.416   7.569   5.242 -0.2796  0.1710  0.0724
  855MOL0     C12768   5.266   7.608   5.258  0.8812 -0.8633 -0.5605
  855MOL0     C12769   5.224   7.657   5.399 -0.5246  0.0700 -0.6240
  855MOL0     C12770   5.099   7.735   5.395 -0.3047  0.3937  0.6956
  855MOL0     C12771   4.982   7.663   5.331  0.3632  0.2262  0.8907
  855MOL0    Cl12772   4.939   7.526   5.441  0.1605  0.3024 -0.4093
  855MOL0     C12773   5.863   8.045   5.206 -0.3758 -1.3546  0.3880
  855MOL0     C12774   5.929   8.171   5.225 -0.2378  0.7982 -0.4121
  855MOL0     O12775   6.115   8.375   5.137 -0.1521  0.0713  0.8944
  855MOL0     C12776   5.966   8.648   5.313  0.8677 -0.3943 -0.8919
  855MOL0     C12777   6.000   8.757   5.392  0.1365  0.0751  0.1749
  855MOL0     N12778   6.569   8.876   5.915 -0.6319  0.3621  0.2447
  855MOL0     N12779   6.613   8.793   5.994 -0.2258 -0.0178 -0.4274
  855MOL0     C12780   7.509   8.782   6.578  0.3309  0.1369  0.2495
  855MOL0     C12781   7.650   8.750   6.558  0.2505  0.3698  0.0165
  855MOL0     C12782   8.036   8.660   6.334  0.6463  0.1309 -0.0997
  855MOL0     C12783   8.090   8.568   6.243  0.6006  0.2298 -1.2249
  855MOL0     C12784   8.225   8.569   6.225 -0.1800  0.2452 -0.3881
  855MOL0     C12785   8.308   8.661   6.280  0.4964  0.1304  0.0628
  855MOL0     O12786   8.449   8.652   6.263  0.4094  0.3399 -0.6268
  855MOL0     C12787   8.508   8.528   6.236  0.1560 -0.0131  0.2911
  855MOL0     C12788   8.644   8.531   6.290 -0.0410 -0.1229 -0.5860
  855MOL0     C12789   8.734   8.642   6.221 -0.8262 -0.0388  0.1184
  855MOL0     C12790   8.884   8.639   6.274 -0.4954 -0.5405  0.4467
  855MOL0     C12791   8.933   8.504   6.236  0.0743  0.0781  1.0464
  855MOL0     C12792   8.966   8.391   6.236  0.1945  0.2747  0.2765
  855MOL0     C12793   8.254   8.759   6.366 -0.0422  0.2529  0.1837
  855MOL0     C12794   8.117   8.749   6.404 -0.3159 -0.1014 -0.7877
  855MOL0     H12795   7.679   8.834   6.231  1.2885 -2.2993  0.5667
  855MOL0     H12796   7.442   8.900   6.258 -1.6896 -0.1466 -0.1597
  855MOL0     H12797   7.213   8.936   6.328  1.8793 -0.4708 -0.6396
  855MOL0     H12798   7.336   9.064   6.395 -1.1130  2.2826  1.8885
  855MOL0     H12799   7.113   9.163   6.425  1.5079  0.2292 -0.6901
  855MOL0     H12800   7.173   9.120   6.578  2.3678 -0.5155 -1.3144
  855MOL0     H12801   6.959   9.022   6.589  1.3176 -0.6583  1.2097
  855MOL0     H12802   7.050   8.879   6.550 -0.5646 -1.4346 -2.8769
  855MOL0     H12803   6.911   9.046   6.342  0.9034  0.0705 -0.3141
  855MOL0     H12804   7.001   8.899   6.317  2.0661  1.5739  1.7927
  855MOL0     H12805   6.745   8.920   6.475  0.5671  0.8281  0.4872
  855MOL0     H12806   6.830   8.777   6.489 -1.8735 -0.2750 -0.5745
  855MOL0     H12807   6.816   8.711   6.254  0.8852 -0.2778  1.3621
  855MOL0     H12808   6.738   8.878   6.223 -2.4101  0.6810  0.6089
  855MOL0     H12809   6.606   8.675   6.406  0.3546  0.4014  0.0282
  855MOL0     H12810   6.540   8.821   6.325 -0.1323  0.3254  0.2985
  855MOL0     H12811   6.465   8.605   6.228  0.7272 -0.2554  1.0892
  855MOL0     H12812   6.625   8.580   6.163 -2.9474 -3.6890  1.1420
  855MOL0     H12813   6.311   8.819   6.110  0.9291  0.2620  0.3652
  855MOL0     H12814   6.392   9.093   5.859 -1.8437  0.5011 -0.4116
  855MOL0     H12815   6.255   9.007   5.921 -0.6425  0.2565 -1.1519
  855MOL0     H12816   6.288   8.833   5.732  0.8849  0.4335 -0.1108
  855MOL0     H12817   6.390   8.955   5.643  1.1067 -0.2862  1.1280
  855MOL0     H12818   6.141   9.079   5.750  1.4884  1.0530  0.9520
  855MOL0     H12819   6.243   9.088   5.605 -1.0838  0.7880 -0.2057
  855MOL0     H12820   6.014   9.007   5.557  0.5767  0.9367  1.2259
  855MOL0     H12821   6.054   8.866   5.650 -1.4612  2.1026  0.3896
  855MOL0     H12822   6.334   8.724   5.356 -1.2864  4.3073  1.9980
  855MOL0     H12823   6.275   8.542   5.223  0.7240 -1.1471  1.8769
  855MOL0     H12824   5.703   8.353   5.035  0.7081 -0.6153 -1.6854
  855MOL0     H12825   5.595   8.165   5.032  1.1189  1.8853 -1.8016
  855MOL0     H12826   5.746   7.814   5.283  0.1454  1.6369 -0.6311
  855MOL0     H12827   5.813   7.808   5.117 -0.1988  1.7712  0.1499
  855MOL0     H12828   5.689   7.591   5.175 -3.2666 -1.2803 -0.2449
  855MOL0     H12829   5.599   7.668   5.048 -2.2164  2.9176 -0.5633
  855MOL0     H12830   5.447   7.779   5.197  0.9100  0.0650 -0.3355
  855MOL0     H12831   5.528   7.726   5.346  2.6946  0.0263 -0.4473
  855MOL0     H12832   5.431   7.517   5.147 -0.4296 -0.5425  0.4324
  855MOL0     H12833   5.456   7.507   5.322  2.7726  2.4871  0.5240
  855MOL0     H12834   5.207   7.518   5.236  0.8406 -1.4774  1.8186
  855MOL0     H12835   5.233   7.681   5.183 -1.0701 -2.3906 -1.2832
  855MOL0     H12836   5.293   7.726   5.448  0.4463 -0.7558 -0.7919
  855MOL0     H12837   5.235   7.568   5.463  0.8943  1.8991  1.8571
  855MOL0     H12838   5.062   7.769   5.492 -0.5216  2.3704 -0.0541
  855MOL0     H12839   5.131   7.821   5.335  0.0653 -0.3016 -0.1330
  855MOL0     H12840   5.007   7.630   5.230 -0.5446  2.5313 -0.1636
  855MOL0     H12841   4.897   7.730   5.312 -0.3403 -0.8166  0.2016
  855MOL0     H12842   5.903   7.951   5.245 -0.2715 -2.0394 -1.2712
  855MOL0     H12843   6.020   8.185   5.283 -0.9612  4.2779  0.1258
  855MOL0     H12844   5.861   8.626   5.299  0.2447  0.7522  1.5033
  855MOL0     H12845   5.932   8.818   5.450  2.2675  1.9638  0.8314
  855MOL0     H12846   7.457   8.753   6.669  0.1386 -1.2906 -0.2929
  855MOL0     H12847   7.696   8.701   6.643 -3.8083  1.8192  3.4366
  855MOL0     H12848   8.032   8.493   6.190 -0.1878  1.2896 -1.9138
  855MOL0     H12849   8.247   8.478   6.171  4.2210  0.1034  1.2061
  855MOL0     H12850   8.503   8.505   6.130  1.3324  1.2186 -0.0647
  855MOL0     H12851   8.464   8.452   6.301  1.5633 -0.7668  0.4017
  855MOL0     H12852   8.631   8.561   6.394 -2.0701  2.0113 -1.3661
  855MOL0     H12853   8.689   8.432   6.306  2.6553  1.3520  1.8079
  855MOL0     H12854   8.696   8.742   6.246  0.8416  0.1081  2.4719
  855MOL0     H12855   8.732   8.625   6.113 -2.2343  2.0916 -0.2513
  855MOL0     H12856   8.935   8.722   6.224  1.8447 -1.9057  0.3887
  855MOL0     H12857   8.887   8.656   6.382 -0.9489  1.2889  0.2027
  855MOL0     H12858   9.002   8.290   6.225 -0.6450 -0.2806  2.1377
  855MOL0     H12859   8.325   8.826   6.412  1.5201 -0.8998 -0.4546
  855MOL0     H12860   8.070   8.814   6.476 -1.9797 -1.0716 -0.9431
  856MOL0     O12861   2.213   7.659   5.547  0.5537 -0.7951  0.0871
  856MOL0     C12862   2.216   7.549   5.608  0.0838 -1.0245 -0.2322
  856MOL0     O12863   2.302   7.518   5.710 -0.5773 -1.0450 -0.2500
  856MOL0     C12864   2.416   7.600   5.729 -0.6644  0.0876 -0.2336
  856MOL0     C12865   2.541   7.529   5.724 -0.0340 -0.2160  0.0901
  856MOL0     C12866   2.658   7.595   5.737  0.0036  0.6032 -0.1461
  856MOL0     C12867   2.660   7.734   5.766  0.1920  0.0494 -0.5530
  856MOL0     O12868   2.779   7.795   5.769 -0.8987 -0.2286  0.2839
  856MOL0     C12869   2.834   7.807   5.903  1.1871 -0.1937  0.1843
  856MOL0     C12870   2.973   7.858   5.910 -0.1493 -0.6052  0.0248
  856MOL0     C12871   3.086   7.752   5.888  0.1652 -0.1427 -0.5452
  856MOL0     C12872   3.224   7.819   5.867  0.1592  0.2423 -0.7595
  856MOL0     C12873   3.335   7.706   5.861 -0.3153  0.1029 -0.2980
  856MOL0     C12874   3.488   7.753   5.856  0.3118 -0.0529 -0.9015
  856MOL0     C12875   3.525   7.843   5.738 -0.2730  0.6873 -0.3061
  856MOL0     C12876   3.616   7.783   5.637 -0.6270  0.0515 -0.4580
  856MOL0     N12877   3.551   7.674   5.562 -0.5851  1.2506 -0.2623
  856MOL0     C12878   3.572   7.536   5.596 -0.1327  0.3917 -0.1060
  856MOL0     C12879   3.501   7.468   5.498  0.6227 -0.3190  0.9181
  856MOL0     C12880   3.459   7.316   5.507  0.9763  0.3108  0.0957
  856MOL0     C12881   3.332   7.307   5.582 -0.5268 -0.6388  0.0940
  856MOL0     C12882   3.204   7.306   5.489  0.0943 -0.3411 -0.5113
  856MOL0     C12883   3.163   7.162   5.470  0.0927  0.9502 -0.4154
  856MOL0     O12884   3.055   7.152   5.372 -0.1804  0.5086  0.3471
  856MOL0     C12885   2.937   7.091   5.412  0.8135  0.1377  0.2153
  856MOL0     C12886   2.830   7.176   5.437  0.6710 -0.4039 -0.3952
  856MOL0     C12887   2.709   7.123   5.478  0.6361 -0.2673 -0.8994
  856MOL0     C12888   2.683   6.986   5.491  0.6070  0.3358  0.5665
  856MOL0     C12889   2.543   6.946   5.528 -0.0298 -0.0681 -0.1349
  856MOL0     O12890   2.518   6.807   5.532  0.1779 -0.0025 -0.0457
  856MOL0     C12891   2.394   6.778   5.575 -0.2731  0.4945  0.5708
  856MOL0     C12892   2.375   6.725   5.706  1.0176  0.0725  0.8887
  856MOL0     C12893   2.249   6.677   5.738 -0.3262 -1.0704 -1.0303
  856MOL0     C12894   2.137   6.703   5.655 -0.1387 -0.0538 -0.4702
  856MOL0     O12895   2.010   6.685   5.702  0.1678 -0.0253  0.3582
  856MOL0     C12896   1.902   6.652   5.610 -0.2831 -0.1950  0.4074
  856MOL0     C12897   1.781   6.622   5.691 -0.3725 -0.0917  0.6459
  856MOL0     C12898   1.659   6.621   5.601 -0.7374 -0.1798 -0.1515
  856MOL0     C12899   1.534   6.648   5.689 -0.0117 -0.0066 -0.4366
  856MOL0     C12900   1.398   6.670   5.613 -1.1668  0.1757 -0.4180
  856MOL0     C12901   1.307   6.550   5.585 -0.4899  0.1802  0.0834
  856MOL0     C12902   1.169   6.571   5.523  0.2189 -0.2279  0.2648
  856MOL0     C12903   1.086   6.439   5.521  0.8509  0.2949 -0.5621
  856MOL0    Cl12904   1.013   6.396   5.682  0.0912 -0.3713 -0.3329
  856MOL0     C12905   2.165   6.754   5.525  0.3496  0.2334  1.0818
  856MOL0     C12906   2.291   6.795   5.486  1.1386  0.6313 -0.5045
  856MOL0     O12907   2.463   7.037   5.564 -0.2157 -0.1690  0.4559
  856MOL0     C12908   2.793   6.904   5.466 -0.2365  0.7205  0.8579
  856MOL0     C12909   2.916   6.954   5.419 -0.2128  0.0014  0.0460
  856MOL0     N12910   3.445   7.558   5.407 -0.5402 -0.8926 -0.1185
  856MOL0     N12911   3.475   7.673   5.446  0.4276 -0.0744  0.3550
  856MOL0     C12912   2.539   7.804   5.758  0.1477 -0.4808 -0.0016
  856MOL0     C12913   2.416   7.742   5.741 -0.2434  0.5622 -0.5951
  856MOL0     C12914   2.113   7.450   5.560  0.4406  0.4459  0.2541
  856MOL0     C12915   2.144   7.313   5.564  0.3384  0.4303 -0.0492
  856MOL0     C12916   2.057   7.210   5.519 -0.0273 -0.4335  0.1571
  856MOL0     C12917   1.942   7.258   5.452  0.3797 -0.1316  0.4548
  856MOL0     O12918   1.848   7.180   5.392  0.8225  0.1915  0.4953
  856MOL0     C12919   1.792   7.072   5.478 -0.4189 -0.4275  1.1544
  856MOL0     C12920   1.737   7.116   5.607 -0.5339 -0.9253 -0.7619
  856MOL0     C12921   1.659   7.004   5.674 -0.3272 -0.0906 -0.8022
  856MOL0     C12922   1.560   7.058   5.784 -0.2574  0.1943  0.4510
  856MOL0     C12923   1.625   7.128   5.898 -0.7083 -0.3735  0.9868
  856MOL0     C12924   1.657   7.200   5.986 -0.4099 -0.2592 -0.2823
  856MOL0     C12925   1.914   7.390   5.433 -0.1095 -0.1786 -0.9767
  856MOL0     C12926   2.001   7.492   5.481  0.7574 -0.0636 -0.6658
  856MOL0     H12927   2.540   7.421   5.713  3.3599 -0.9279  4.2860
  856MOL0     H12928   2.756   7.550   5.730 -0.1931  0.0030  0.7188
  856MOL0     H12929   2.832   7.708   5.951 -0.0351 -0.7269 -0.9229
  856MOL0     H12930   2.769   7.875   5.958 -1.1093 -1.8921 -0.2944
  856MOL0     H12931   2.979   7.879   6.018  0.5812 -5.4707  1.1594
  856MOL0     H12932   2.986   7.947   5.847 -1.5171 -0.5362 -0.1831
  856MOL0     H12933   3.077   7.699   5.794 -1.6574  2.0010 -1.6713
  856MOL0     H12934   3.097   7.686   5.975  2.6665  1.3877  0.3952
  856MOL0     H12935   3.223   7.884   5.778  0.2420  1.7571  0.3076
  856MOL0     H12936   3.244   7.884   5.953  0.6254  0.1447 -0.7923
  856MOL0     H12937   3.308   7.643   5.776 -3.2730 -1.6939  1.7545
  856MOL0     H12938   3.320   7.639   5.946  2.1956 -1.8161 -1.2739
  856MOL0     H12939   3.553   7.666   5.869 -1.0430 -0.6839  3.6162
  856MOL0     H12940   3.516   7.809   5.946 -0.1374  0.2510 -0.9447
  856MOL0     H12941   3.437   7.873   5.680  0.5303  1.1406 -1.3329
  856MOL0     H12942   3.583   7.923   5.785 -1.1445  1.4150 -0.4445
  856MOL0     H12943   3.706   7.750   5.690 -0.0833  1.1894 -0.6350
  856MOL0     H12944   3.649   7.869   5.577  0.0602 -0.2181 -0.4741
  856MOL0     H12945   3.617   7.485   5.681  1.2262  0.1772 -0.9363
  856MOL0     H12946   3.544   7.268   5.558  2.5921  1.9340 -0.9322
  856MOL0     H12947   3.445   7.260   5.414  1.9516  0.5417 -0.2107
  856MOL0     H12948   3.325   7.401   5.639 -2.0892  0.4429 -1.7650
  856MOL0     H12949   3.325   7.224   5.653 -1.5943 -1.0385 -0.4527
  856MOL0     H12950   3.125   7.366   5.534 -0.3075 -1.8286  0.8632
  856MOL0     H12951   3.221   7.346   5.389  0.9051  1.5339  0.3420
  856MOL0     H12952   3.132   7.113   5.563 -0.3538  1.1459 -0.4579
  856MOL0     H12953   3.244   7.093   5.445 -2.1119 -2.1435  0.4656
  856MOL0     H12954   2.845   7.282   5.418  1.0760 -0.0502  1.6648
  856MOL0     H12955   2.635   7.199   5.502  0.9405 -1.0392  3.1920
  856MOL0     H12956   2.453   6.713   5.781  0.6490  0.9782  1.4433
  856MOL0     H12957   2.236   6.641   5.840 -1.1711 -2.3593 -1.5691
  856MOL0     H12958   1.938   6.583   5.533  2.4283  0.7077  0.7674
  856MOL0     H12959   1.888   6.738   5.544 -0.1402 -0.2119  0.3540
  856MOL0     H12960   1.773   6.702   5.766  0.5332  0.8654 -0.2474
  856MOL0     H12961   1.798   6.524   5.737 -1.6358  0.4707  2.4533
  856MOL0     H12962   1.653   6.523   5.554 -0.1211 -1.0989  1.5775
  856MOL0     H12963   1.664   6.699   5.525  3.3338  0.5122  0.5921
  856MOL0     H12964   1.514   6.574   5.767 -1.6673  3.8315  3.1653
  856MOL0     H12965   1.551   6.735   5.752  0.3085 -1.8700  2.2264
  856MOL0     H12966   1.431   6.718   5.520 -0.7609  0.5324 -0.0981
  856MOL0     H12967   1.341   6.743   5.671  0.2954  0.3545  0.8669
  856MOL0     H12968   1.297   6.491   5.676 -1.9572  3.7369  2.4314
  856MOL0     H12969   1.356   6.489   5.508  0.0770  0.7895 -0.0449
  856MOL0     H12970   1.118   6.654   5.573  0.2051  0.9291 -1.5312
  856MOL0     H12971   1.183   6.605   5.419 -2.2422 -0.7938 -0.3249
  856MOL0     H12972   1.144   6.351   5.490 -1.3517 -1.9726  1.3614
  856MOL0     H12973   1.002   6.442   5.451  0.0465 -2.9993  0.1138
  856MOL0     H12974   2.089   6.785   5.454 -1.4441 -1.1903  2.2972
  856MOL0     H12975   2.294   6.835   5.385 -0.6110 -1.2917 -1.3993
  856MOL0     H12976   2.782   6.796   5.472  2.2868  0.1502 -2.3294
  856MOL0     H12977   2.999   6.888   5.395 -0.1257  1.1474 -3.3077
  856MOL0     H12978   2.532   7.912   5.761 -2.3726 -0.4741 -2.1127
  856MOL0     H12979   2.326   7.802   5.750  0.1316  0.9138  1.4257
  856MOL0     H12980   2.236   7.274   5.606  0.8369 -1.7837 -2.9284
  856MOL0     H12981   2.083   7.105   5.530 -1.4268 -0.5972  2.5845
  856MOL0     H12982   1.873   7.002   5.498  0.1604  0.6852  2.8990
  856MOL0     H12983   1.716   7.020   5.419 -0.5534  0.7856  0.2012
  856MOL0     H12984   1.816   7.151   5.674 -2.0405 -0.5909  0.9207
  856MOL0     H12985   1.676   7.204   5.585  0.7916  0.0283 -0.7849
  856MOL0     H12986   1.720   6.927   5.721  0.7602  1.0682 -0.2596
  856MOL0     H12987   1.598   6.954   5.598 -1.8165 -2.3299  1.6889
  856MOL0     H12988   1.489   7.132   5.744 -0.8524  0.6701  2.3091
  856MOL0     H12989   1.490   6.979   5.813 -0.2450 -0.3876 -0.9815
  856MOL0     H12990   1.682   7.235   6.084 -3.9008 -2.8388  1.7742
  856MOL0     H12991   1.834   7.418   5.366  0.3551 -1.2568 -2.0055
  856MOL0     H12992   1.992   7.595   5.450  3.1207  0.9222  1.6212
  857MOL0     O12993   2.818   3.931  10.927 -0.7456  0.0981 -0.1345
  857MOL0     C12994   2.845   3.873  11.035  1.0183  0.5435 -0.4410
  857MOL0     O12995   2.753   3.815  11.127  0.7962 -0.6513 -0.7508
  857MOL0     C12996   2.623   3.811  11.085 -0.5588 -0.7335  0.2011
  857MOL0     C12997   2.525   3.842  11.176  0.3197 -0.9537  0.0705
  857MOL0     C12998   2.388   3.845  11.136  0.6524  0.8639  0.4201
  857MOL0     C12999   2.348   3.810  10.999 -0.3070  0.0080 -1.1692
  857MOL0     O13000   2.219   3.814  10.969 -0.0720  0.0071 -0.3656
  857MOL0     C13001   2.167   3.703  10.889 -0.0274 -0.4877  0.1495
  857MOL0     C13002   2.020   3.691  10.899  0.2561  0.3064  0.0113
  857MOL0     C13003   1.966   3.686  11.036 -0.4867 -0.0682 -0.3839
  857MOL0     C13004   1.818   3.682  11.043  0.3746 -0.9222 -0.4968
  857MOL0     C13005   1.780   3.659  11.189  0.6870  1.1406 -0.7761
  857MOL0     C13006   1.624   3.678  11.220  0.1160  0.3709 -0.9458
  857MOL0     C13007   1.600   3.649  11.370  0.3244  0.8637 -0.0917
  857MOL0     C13008   1.454   3.636  11.413  0.6729  0.2126 -0.1579
  857MOL0     N13009   1.445   3.607  11.554 -0.3079  0.0283  0.0782
  857MOL0     C13010   1.413   3.704  11.647 -0.0562 -0.5892  0.3645
  857MOL0     C13011   1.398   3.644  11.766 -0.4734 -0.3352  0.0157
  857MOL0     C13012   1.356   3.706  11.901  0.5985 -0.1234  0.1529
  857MOL0     C13013   1.224   3.673  11.960 -0.1019  0.8911  0.0726
  857MOL0     C13014   1.108   3.739  11.894  0.4337 -0.6986  0.1917
  857MOL0     C13015   0.964   3.736  11.949  0.0432  0.1635  0.1611
  857MOL0     O13016   0.979   3.827  12.060  0.3049  0.5771  0.1258
  857MOL0     C13017   0.869   3.833  12.145 -0.5694  0.6227  0.2537
  857MOL0     C13018   0.902   3.863  12.275  0.0757 -0.0389  0.4817
  857MOL0     C13019   0.806   3.884  12.374  0.1637  0.3760 -0.4327
  857MOL0     C13020   0.667   3.859  12.346  0.2739  0.4594 -0.6121
  857MOL0     C13021   0.567   3.895  12.441 -0.4037 -0.2384  0.7920
  857MOL0     O13022   0.601   3.879  12.573 -0.2137 -0.2709 -0.2034
  857MOL0     C13023   0.498   3.877  12.665 -0.7079  0.3975  0.0218
  857MOL0     C13024   0.386   3.789  12.661 -0.3167  0.3613 -0.2778
  857MOL0     C13025   0.315   3.767  12.778  0.4236  0.2729 -0.1742
  857MOL0     C13026   0.348   3.835  12.900 -0.1044  0.3572 -0.1426
  857MOL0     O13027   0.283   3.814  13.017  0.1334  0.0035  0.0700
  857MOL0     C13028   0.174   3.719  13.011  0.4791  0.2474  0.1142
  857MOL0     C13029   0.092   3.737  13.151 -0.2645 -0.7110  0.1389
  857MOL0     C13030   0.042   3.887  13.176 -0.7720  0.3145 -0.9847
  857MOL0     C13031  -0.011   3.915  13.320  0.0458  1.5608  0.3629
  857MOL0     C13032  -0.017   4.067  13.344  0.1247 -0.2845 -0.0787
  857MOL0     C13033  -0.048   4.101  13.486  0.0413 -0.1672  0.0032
  857MOL0     C13034   0.081   4.170  13.556  0.3757  0.2574  0.5241
  857MOL0     C13035   0.065   4.221  13.696 -0.7199  0.1995 -0.0368
  857MOL0    Cl13036  -0.075   4.331  13.719 -0.0592  0.4662 -0.2115
  857MOL0     C13037   0.447   3.926  12.900  0.4316  0.7592 -0.6574
  857MOL0     C13038   0.531   3.936  12.790  0.7282 -0.0588 -0.3511
  857MOL0     O13039   0.457   3.935  12.399  0.1987  0.5774 -0.3226
  857MOL0     C13040   0.630   3.821  12.211 -0.2315 -0.3975 -0.0411
  857MOL0     C13041   0.737   3.812  12.115  0.3489 -0.3351  0.1112
  857MOL0     N13042   1.423   3.512  11.743  0.9054  0.5900  0.2360
  857MOL0     N13043   1.468   3.494  11.619  0.6678 -0.8438  0.0244
  857MOL0     C13044   2.454   3.777  10.906  0.8665  0.4032  0.2989
  857MOL0     C13045   2.580   3.772  10.954 -0.2819 -0.6136 -0.9941
  857MOL0     C13046   2.989   3.866  11.066  0.1028  0.1836 -0.5242
  857MOL0     C13047   3.051   3.840  11.196 -0.8016  0.2876  0.3065
  857MOL0     C13048   3.189   3.819  11.210 -0.6788  0.6955 -0.3601
  857MOL0     C13049   3.264   3.829  11.100 -0.1464 -0.4158 -0.4741
  857MOL0     O13050   3.395   3.821  11.102 -0.7499  0.0069 -0.2188
  857MOL0     C13051   3.458   3.794  11.229  0.4758 -0.4560  0.5924
  857MOL0     C13052   3.496   3.920  11.316  0.1690  0.1196 -0.3340
  857MOL0     C13053   3.618   3.993  11.262  0.0092 -0.3918  0.0983
  857MOL0     C13054   3.703   4.047  11.373  0.7375 -0.6324  0.7003
  857MOL0     C13055   3.634   4.122  11.472  0.7273  0.3349 -0.9069
  857MOL0     C13056   3.571   4.170  11.561 -0.3011  0.6886  0.1914
  857MOL0     C13057   3.217   3.862  10.979  0.3641 -0.1003  0.1922
  857MOL0     C13058   3.083   3.891  10.961  0.5173 -1.0196 -1.3222
  857MOL0     H13059   2.554   3.859  11.279  2.6206 -2.7340 -0.1947
  857MOL0     H13060   2.312   3.871  11.209  1.2560  1.4042  0.8631
  857MOL0     H13061   2.216   3.610  10.919  2.7586  0.4874 -0.9824
  857MOL0     H13062   2.201   3.713  10.785 -0.0458 -1.2861  0.0630
  857MOL0     H13063   1.995   3.596  10.851  1.5086  0.5489 -1.1934
  857MOL0     H13064   1.973   3.772  10.842 -0.2354  0.7940  1.0779
  857MOL0     H13065   2.010   3.766  11.097  2.1336 -1.8131  0.1925
  857MOL0     H13066   2.002   3.593  11.081 -1.7570  0.1245  1.1149
  857MOL0     H13067   1.773   3.775  11.006  0.0963 -0.8233  0.0908
  857MOL0     H13068   1.782   3.599  10.980 -0.6704  0.6265 -2.0463
  857MOL0     H13069   1.841   3.727  11.249 -0.2568  0.5501  0.9327
  857MOL0     H13070   1.811   3.562  11.229 -0.7756 -0.0015 -2.2462
  857MOL0     H13071   1.573   3.607  11.154  2.6978 -1.4789 -1.1125
  857MOL0     H13072   1.601   3.781  11.190 -1.4906 -0.0167 -1.1056
  857MOL0     H13073   1.651   3.553  11.386  1.3638  0.7358 -3.3736
  857MOL0     H13074   1.652   3.725  11.429  2.4932 -1.8259  1.7468
  857MOL0     H13075   1.413   3.547  11.365  2.1210  0.6140 -2.2849
  857MOL0     H13076   1.398   3.726  11.385  0.9649  0.4121 -0.1092
  857MOL0     H13077   1.406   3.810  11.626  1.4350 -0.1551  1.7937
  857MOL0     H13078   1.356   3.812  11.872 -0.5986 -0.4908 -1.3235
  857MOL0     H13079   1.440   3.701  11.970 -0.6732  5.9112  2.7540
  857MOL0     H13080   1.218   3.702  12.065  0.1161  2.5205 -0.3411
  857MOL0     H13081   1.220   3.563  11.959  1.5020  0.8185 -0.8873
  857MOL0     H13082   1.134   3.843  11.873  2.9680 -1.1745  0.6255
  857MOL0     H13083   1.104   3.683  11.800 -2.4394  0.3067 -0.3999
  857MOL0     H13084   0.939   3.636  11.987  3.8173 -0.7304  0.7442
  857MOL0     H13085   0.891   3.768  11.875 -0.2404  0.2935  0.4933
  857MOL0     H13086   1.008   3.886  12.290 -0.2996  1.0807  1.6537
  857MOL0     H13087   0.829   3.932  12.469  0.1918 -1.8208  0.7358
  857MOL0     H13088   0.373   3.731  12.570 -2.8159 -0.3255  0.4367
  857MOL0     H13089   0.231   3.698  12.784  0.1982  0.6896  2.0496
  857MOL0     H13090   0.211   3.617  13.005 -1.6563 -0.7053  1.9479
  857MOL0     H13091   0.103   3.740  12.930  0.0326 -0.3441  0.3539
  857MOL0     H13092   0.167   3.709  13.225  0.8676  1.0566 -0.2797
  857MOL0     H13093   0.001   3.675  13.153 -1.4306  0.9452  0.6308
  857MOL0     H13094  -0.025   3.914  13.094  0.6225  0.8804 -1.9818
  857MOL0     H13095   0.131   3.949  13.165  1.1682 -1.9344  1.0529
  857MOL0     H13096  -0.100   3.862  13.356  1.2201  1.1300  2.8668
  857MOL0     H13097   0.071   3.873  13.378  0.0067 -1.6467 -1.6941
  857MOL0     H13098  -0.096   4.118  13.287 -1.9247 -2.1946  0.8666
  857MOL0     H13099   0.082   4.102  13.315  1.0026 -4.7846 -3.6868
  857MOL0     H13100  -0.090   4.024  13.551 -0.4583 -0.9499 -1.2346
  857MOL0     H13101  -0.137   4.164  13.485 -2.0104 -2.9033 -0.5861
  857MOL0     H13102   0.161   4.096  13.548 -0.9360 -1.2888  1.0593
  857MOL0     H13103   0.116   4.253  13.494 -1.5316 -0.8377 -2.2345
  857MOL0     H13104   0.159   4.266  13.732 -0.0094 -1.0510 -0.2767
  857MOL0     H13105   0.056   4.138  13.767  2.1530  2.4229  3.2927
  857MOL0     H13106   0.457   3.998  12.981  1.6329 -1.2161  1.0512
  857MOL0     H13107   0.614   4.006  12.797  2.0111 -1.2376 -2.6475
  857MOL0     H13108   0.531   3.801  12.173 -0.4167  0.6556 -0.1376
  857MOL0     H13109   0.714   3.777  12.015  2.6187  1.4267 -1.1345
  857MOL0     H13110   2.428   3.750  10.805 -0.1225  2.6576 -0.1116
  857MOL0     H13111   2.665   3.755  10.888  0.0606  1.0049 -1.0193
  857MOL0     H13112   2.979   3.825  11.276 -0.9613 -2.0408 -0.2027
  857MOL0     H13113   3.225   3.812  11.312  2.4572  0.6016 -1.3896
  857MOL0     H13114   3.556   3.751  11.204  0.5935  0.0355  0.2103
  857MOL0     H13115   3.403   3.718  11.286  0.7992  0.6939  2.5370
  857MOL0     H13116   3.416   3.994  11.312  0.5695  0.6438  0.8696
  857MOL0     H13117   3.509   3.892  11.421 -3.4703 -0.1602  0.1857
  857MOL0     H13118   3.580   4.068  11.192  0.1547  2.4083  2.8152
  857MOL0     H13119   3.680   3.924  11.204 -2.7330  0.4482 -4.3279
  857MOL0     H13120   3.770   3.983  11.432 -1.5991  0.1667  4.5892
  857MOL0     H13121   3.769   4.125  11.333  0.0251  0.6434  1.9100
  857MOL0     H13122   3.504   4.190  11.642 -1.9788 -0.5373 -0.8262
  857MOL0     H13123   3.290   3.882  10.901  0.1554  1.2039  0.3067
  857MOL0     H13124   3.063   3.924  10.860  0.7509 -0.9642 -1.3495
  858MOL0     O13125   1.564   6.723   6.271  0.1782 -0.2945 -0.2750
  858MOL0     C13126   1.613   6.779   6.175  0.4322 -0.3789  0.6823
  858MOL0     O13127   1.554   6.838   6.073  0.2216  0.2729 -0.3785
  858MOL0     C13128   1.420   6.809   6.050  0.7107  0.3589 -0.3948
  858MOL0     C13129   1.366   6.682   6.050 -1.1438  0.3400 -0.5388
  858MOL0     C13130   1.229   6.663   6.031  0.1549  0.3396 -0.0864
  858MOL0     C13131   1.139   6.770   6.006  0.2474  0.5962 -0.4593
  858MOL0     O13132   1.002   6.757   6.001  0.3733  0.0960 -0.4345
  858MOL0     C13133   0.958   6.622   5.979 -0.6695  0.6300  0.1358
  858MOL0     C13134   0.814   6.621   5.917 -0.4087  0.1760 -0.6272
  858MOL0     C13135   0.694   6.668   6.010 -0.1671  0.6583  0.4993
  858MOL0     C13136   0.569   6.581   5.993 -0.9630 -0.4783 -0.1677
  858MOL0     C13137   0.442   6.640   6.051 -1.1449 -0.1595 -0.0079
  858MOL0     C13138   0.318   6.552   6.004  0.5357  0.1237 -0.1962
  858MOL0     C13139   0.194   6.641   6.007 -0.1705  0.9826  0.6052
  858MOL0     C13140   0.069   6.547   5.996 -0.2427  0.3861  0.4265
  858MOL0     N13141  -0.041   6.636   5.971 -0.3621 -0.0140 -0.0266
  858MOL0     C13142  -0.099   6.729   6.052  0.1013 -0.0655  0.2659
  858MOL0     C13143  -0.218   6.768   5.998 -0.5652 -0.0531  0.0189
  858MOL0     C13144  -0.323   6.859   6.045 -0.1599 -0.4236 -0.4320
  858MOL0     C13145  -0.461   6.780   6.073  0.2090 -0.1010  0.2177
  858MOL0     C13146  -0.563   6.868   6.151  0.3426 -0.1992  0.5398
  858MOL0     C13147  -0.692   6.869   6.071 -0.8801  0.2031 -0.4208
  858MOL0     O13148  -0.783   6.953   6.134  0.1829 -0.7222  0.0120
  858MOL0     C13149  -0.908   6.957   6.075  0.8649  0.0532 -1.0755
  858MOL0     C13150  -0.992   7.068   6.114  0.1295  0.3230  0.5260
  858MOL0     C13151  -1.110   7.092   6.049 -0.0543 -0.0143  0.1931
  858MOL0     C13152  -1.173   6.996   5.962 -0.4914 -0.4410  0.2428
  858MOL0     C13153  -1.302   7.030   5.901  0.6814  0.1507  0.4160
  858MOL0     O13154  -1.356   7.156   5.930 -0.3221  0.2109  0.1485
  858MOL0     C13155  -1.465   7.213   5.867  0.9356 -0.3991 -0.2480
  858MOL0     C13156  -1.562   7.136   5.796  0.1727  0.6779  0.2200
  858MOL0     C13157  -1.676   7.200   5.749  0.2764  0.6685 -0.3152
  858MOL0     C13158  -1.697   7.336   5.769  0.0592 -0.0091  0.0980
  858MOL0     O13159  -1.815   7.403   5.741  0.0536 -0.2279  0.1029
  858MOL0     C13160  -1.930   7.335   5.680 -0.2400  0.1925  0.4139
  858MOL0     C13161  -1.897   7.296   5.529 -0.8047 -0.5463  0.2342
  858MOL0     C13162  -1.919   7.411   5.433  0.0781  0.3852  0.9357
  858MOL0     C13163  -1.872   7.390   5.290 -0.8577 -0.3142  0.9490
  858MOL0     C13164  -1.920   7.509   5.214 -0.1915 -0.5099  0.0605
  858MOL0     C13165  -1.873   7.514   5.068 -0.2288  0.5638  0.3970
  858MOL0     C13166  -1.922   7.635   4.992  0.2387  0.3312 -0.5117
  858MOL0     C13167  -1.888   7.611   4.841 -0.3480 -0.0915  0.5441
  858MOL0    Cl13168  -1.911   7.763   4.738 -0.0051 -0.1284 -0.6262
  858MOL0     C13169  -1.599   7.416   5.827  0.5472 -0.1842  0.7564
  858MOL0     C13170  -1.485   7.352   5.877  0.3994 -0.0031 -0.2565
  858MOL0     O13171  -1.343   6.952   5.823 -0.4086  0.6341 -0.0953
  858MOL0     C13172  -1.094   6.874   5.928  0.6884  0.4247  0.7316
  858MOL0     C13173  -0.967   6.864   5.983  0.3065 -0.0237 -0.2667
  858MOL0     N13174  -0.217   6.707   5.881 -0.1400 -0.0284  0.3062
  858MOL0     N13175  -0.113   6.630   5.856 -0.0403 -0.2343 -0.1079
  858MOL0     C13176   1.189   6.902   6.007 -0.6163  0.2554 -0.2399
  858MOL0     C13177   1.331   6.921   6.027 -0.5131  0.2010 -0.0153
  858MOL0     C13178   1.756   6.787   6.190  0.2487 -0.0281  0.9575
  858MOL0     C13179   1.823   6.811   6.317 -0.0740  0.9115  0.3353
  858MOL0     C13180   1.961   6.833   6.321  0.2030  0.9511 -0.1438
  858MOL0     C13181   2.040   6.819   6.213 -0.6501  0.7631 -0.3105
  858MOL0     O13182   2.184   6.816   6.216  0.4292  0.2259  0.4010
  858MOL0     C13183   2.252   6.821   6.343 -0.4414 -0.2415  0.4033
  858MOL0     C13184   2.407   6.801   6.328 -0.1448  1.2877  0.0042
  858MOL0     C13185   2.446   6.674   6.252  0.4177  0.8393  1.0059
  858MOL0     C13186   2.598   6.670   6.206  0.4042  1.3778 -0.2463
  858MOL0     C13187   2.695   6.707   6.310  0.3573 -0.6350  0.2393
  858MOL0     C13188   2.764   6.741   6.401  0.4345 -0.4846 -0.4284
  858MOL0     C13189   1.978   6.805   6.092 -0.3967  1.0488  0.4130
  858MOL0     C13190   1.833   6.792   6.074  0.4760 -0.1942  0.6415
  858MOL0     H13191   1.416   6.591   6.082 -1.6248  0.2758  0.0444
  858MOL0     H13192   1.200   6.558   6.040 -2.8322  1.1453  0.8182
  858MOL0     H13193   0.955   6.571   6.076  3.0474  0.7348  0.4404
  858MOL0     H13194   1.031   6.571   5.917 -1.3621 -1.8102  1.2117
  858MOL0     H13195   0.798   6.519   5.880  2.5498 -0.0845 -1.4770
  858MOL0     H13196   0.806   6.684   5.828  0.2356 -1.1451 -1.6677
  858MOL0     H13197   0.673   6.774   5.998 -2.5038  0.1445 -0.5353
  858MOL0     H13198   0.733   6.657   6.111 -0.1472 -1.5849  0.2997
  858MOL0     H13199   0.550   6.576   5.885 -4.2252 -1.6593  0.3423
  858MOL0     H13200   0.584   6.478   6.026 -2.0762  0.9619  6.0612
  858MOL0     H13201   0.423   6.746   6.029 -0.2940  0.2313  1.0828
  858MOL0     H13202   0.449   6.638   6.160  1.9068 -1.0701 -0.1381
  858MOL0     H13203   0.309   6.466   6.071  1.5286 -0.6448 -1.0092
  858MOL0     H13204   0.351   6.500   5.914  3.9956  0.2032  0.8686
  858MOL0     H13205   0.185   6.701   6.098 -2.0530 -0.8951  1.7540
  858MOL0     H13206   0.199   6.706   5.919  0.1734  2.4355  1.6567
  858MOL0     H13207   0.062   6.478   6.081 -2.4020  0.1412  0.1207
  858MOL0     H13208   0.069   6.488   5.904  0.7445  2.5007 -1.0151
  858MOL0     H13209  -0.078   6.769   6.150 -2.3598  2.4970 -0.0945
  858MOL0     H13210  -0.331   6.941   5.973  0.7256 -0.0840 -0.1591
  858MOL0     H13211  -0.284   6.893   6.141 -0.4502 -0.4643 -0.3000
  858MOL0     H13212  -0.443   6.697   6.142  1.7929  1.1000  1.3023
  858MOL0     H13213  -0.490   6.729   5.980  1.0571 -2.6281  1.2670
  858MOL0     H13214  -0.579   6.818   6.248  1.4901 -0.1070  0.7943
  858MOL0     H13215  -0.519   6.967   6.164  1.3237 -0.4207 -0.9109
  858MOL0     H13216  -0.736   6.769   6.064  1.2090 -0.6611 -2.8445
  858MOL0     H13217  -0.662   6.897   5.969 -0.5420  1.4400  0.0034
  858MOL0     H13218  -0.948   7.128   6.193  1.6532 -1.3022  0.9798
  858MOL0     H13219  -1.153   7.184   6.087  0.4917  0.8107 -1.1238
  858MOL0     H13220  -1.557   7.029   5.780 -1.9157  0.5643  0.0289
  858MOL0     H13221  -1.744   7.137   5.693 -2.1866  1.3125  1.7352
  858MOL0     H13222  -2.019   7.398   5.677 -0.2581  0.2619  1.9507
  858MOL0     H13223  -1.957   7.241   5.729 -0.2812 -0.5695 -0.9945
  858MOL0     H13224  -1.951   7.207   5.496  1.6294 -1.6396 -1.0916
  858MOL0     H13225  -1.793   7.262   5.527 -1.2109 -1.8286  0.2663
  858MOL0     H13226  -1.867   7.501   5.469 -0.9574  2.0257 -1.4163
  858MOL0     H13227  -2.026   7.436   5.440 -0.1495  0.0649 -0.9610
  858MOL0     H13228  -1.762   7.391   5.290 -0.8186  2.0714  1.6091
  858MOL0     H13229  -1.913   7.304   5.236  0.3993 -0.0273 -0.5310
  858MOL0     H13230  -1.884   7.601   5.262  1.9860 -1.1568 -0.2094
  858MOL0     H13231  -2.029   7.504   5.205 -0.1410  0.1399 -1.2181
  858MOL0     H13232  -1.907   7.425   5.013  0.1383 -0.0982  1.2220
  858MOL0     H13233  -1.764   7.511   5.073 -0.2754 -1.4882  1.5832
  858MOL0     H13234  -2.031   7.640   5.005  0.1646 -1.7555 -0.0136
  858MOL0     H13235  -1.882   7.732   5.024 -1.4304  0.3728  1.6925
  858MOL0     H13236  -1.943   7.528   4.797  0.0563 -0.4230  0.6531
  858MOL0     H13237  -1.782   7.584   4.828 -0.4928  0.5937 -3.0685
  858MOL0     H13238  -1.607   7.523   5.848  1.7892  0.4879 -1.8636
  858MOL0     H13239  -1.410   7.408   5.932 -0.8677  2.3101 -0.7531
  858MOL0     H13240  -1.133   6.795   5.865  1.8152 -0.8002  1.5248
  858MOL0     H13241  -0.915   6.777   5.944 -0.4087 -0.7809  0.4329
  858MOL0     H13242   1.120   6.983   5.988 -0.3004  0.1429 -2.0794
  858MOL0     H13243   1.374   7.020   6.034 -1.4673  0.6595 -0.5475
  858MOL0     H13244   1.772   6.796   6.412  1.2756 -1.1861  0.7892
  858MOL0     H13245   2.002   6.835   6.421  1.5717 -1.1253 -0.6057
  858MOL0     H13246   2.231   6.741   6.415  2.7753 -1.3548  0.2885
  858MOL0     H13247   2.228   6.912   6.398  0.3172  0.2866 -0.1192
  858MOL0     H13248   2.461   6.882   6.279 -0.9720  1.1097 -1.2472
  858MOL0     H13249   2.434   6.797   6.435 -0.3973  0.3332  0.0442
  858MOL0     H13250   2.388   6.671   6.160  1.1456 -0.3913  0.5643
  858MOL0     H13251   2.415   6.584   6.306 -3.0604  1.8448  0.9044
  858MOL0     H13252   2.634   6.570   6.180 -2.7512 -0.3504  1.4069
  858MOL0     H13253   2.622   6.734   6.120 -0.3551  0.2874 -1.2910
  858MOL0     H13254   2.826   6.764   6.485  0.4668 -2.0937  0.0103
  858MOL0     H13255   2.043   6.790   6.006 -0.5403 -1.3694  0.6579
  858MOL0     H13256   1.795   6.779   5.973  2.3182 -1.7076  0.0757
  859MOL0     O13257   6.341  10.130   2.477 -0.4386 -0.2740  0.4350
  859MOL0     C13258   6.420  10.043   2.500 -0.5576  0.0445  0.4178
  859MOL0     O13259   6.395   9.908   2.493 -0.0870  0.6418 -0.3290
  859MOL0     C13260   6.280   9.876   2.419  0.0761 -0.3423 -0.8055
  859MOL0     C13261   6.247   9.933   2.294 -0.0100 -0.0943 -0.8122
  859MOL0     C13262   6.140   9.881   2.215 -0.0899  0.2655  0.1211
  859MOL0     C13263   6.061   9.779   2.263  0.0453 -0.0598 -0.2306
  859MOL0     O13264   5.946   9.731   2.204 -0.1251  0.0052  0.2520
  859MOL0     C13265   5.936   9.727   2.062  0.2984  0.4718 -0.4482
  859MOL0     C13266   5.823   9.812   2.010 -0.8113 -0.1011 -0.2436
  859MOL0     C13267   5.692   9.746   2.062  0.0325 -0.0409  0.6930
  859MOL0     C13268   5.584   9.850   2.065  0.7168 -0.0022  0.2330
  859MOL0     C13269   5.451   9.813   2.121  0.3449 -0.8167  0.6998
  859MOL0     C13270   5.366   9.941   2.128 -0.4979 -1.1236  0.7417
  859MOL0     C13271   5.221   9.916   2.153  1.0028 -0.1588  0.3129
  859MOL0     C13272   5.137   9.907   2.026  0.0898 -0.3909 -0.4027
  859MOL0     N13273   4.995   9.895   2.066 -0.5287 -0.6735  0.2910
  859MOL0     C13274   4.914   9.996   2.113 -0.1779 -0.5004 -0.0799
  859MOL0     C13275   4.792   9.940   2.123  0.1713  0.6730  0.1052
  859MOL0     C13276   4.668  10.007   2.160  1.0273 -0.1961 -0.4987
  859MOL0     C13277   4.578  10.024   2.031  0.3289  0.9914 -0.0287
  859MOL0     C13278   4.522   9.891   1.988 -0.7936 -0.1650 -0.1028
  859MOL0     C13279   4.381   9.890   1.923  0.2986  0.3091  0.4692
  859MOL0     O13280   4.301   9.762   1.930  1.2488 -0.3319  0.6299
  859MOL0     C13281   4.182   9.728   1.869 -0.2476 -0.3075  0.1283
  859MOL0     C13282   4.102   9.817   1.800 -0.2190 -0.2958  0.0833
  859MOL0     C13283   3.974   9.773   1.747  0.4280  0.2947  0.1522
  859MOL0     C13284   3.928   9.639   1.778  0.7440 -0.6319  0.2741
  859MOL0     C13285   3.786   9.583   1.746 -0.0143 -0.1507  0.4982
  859MOL0     O13286   3.783   9.447   1.770  0.7171 -0.5423 -1.0040
  859MOL0     C13287   3.677   9.378   1.706 -0.2583  0.0481 -0.5165
  859MOL0     C13288   3.541   9.397   1.731  1.2283  0.3056  0.1820
  859MOL0     C13289   3.435   9.319   1.673 -0.6943  0.2749 -1.2548
  859MOL0     C13290   3.469   9.226   1.576 -0.1579  0.5210 -0.1625
  859MOL0     O13291   3.361   9.152   1.522  0.0614 -0.7210 -0.3391
  859MOL0     C13292   3.388   9.111   1.387  0.0106  0.5855 -0.0620
  859MOL0     C13293   3.266   9.029   1.331  0.2474 -0.1950 -0.7894
  859MOL0     C13294   3.126   9.039   1.402  0.1856 -0.3882 -0.4298
  859MOL0     C13295   3.027   8.944   1.340  0.0939  0.7486  0.1842
  859MOL0     C13296   2.885   8.964   1.416 -0.1292 -0.2657  0.4763
  859MOL0     C13297   2.784   8.867   1.340 -0.4917  0.2253 -0.2160
  859MOL0     C13298   2.651   8.875   1.424  0.7559 -0.0360 -0.2607
  859MOL0     C13299   2.536   8.811   1.350  0.2400  0.6090  0.2358
  859MOL0    Cl13300   2.565   8.649   1.323  0.1800  0.2021 -0.0707
  859MOL0     C13301   3.599   9.195   1.557  0.0529  0.2787  0.1778
  859MOL0     C13302   3.704   9.277   1.610  0.7839  0.3912 -0.4776
  859MOL0     O13303   3.692   9.655   1.709 -0.3387  0.2957  0.2394
  859MOL0     C13304   4.017   9.551   1.845  0.1882 -0.1890 -0.2947
  859MOL0     C13305   4.134   9.599   1.898 -0.3523  0.3239  0.7333
  859MOL0     N13306   4.813   9.803   2.086 -0.1300  0.2440  0.7856
  859MOL0     N13307   4.931   9.785   2.042  0.0130  0.3699 -0.2915
  859MOL0     C13308   6.094   9.717   2.383 -0.0971 -1.4226 -0.5344
  859MOL0     C13309   6.194   9.770   2.462  0.3101 -0.0497 -0.2926
  859MOL0     C13310   6.542  10.089   2.550 -0.0628 -0.4021  0.0794
  859MOL0     C13311   6.537  10.220   2.613  1.2732  0.7596 -0.7978
  859MOL0     C13312   6.657  10.267   2.671 -0.2365 -0.1995  0.8064
  859MOL0     C13313   6.777  10.198   2.657  1.1560 -0.5964 -0.1088
  859MOL0     O13314   6.885  10.247   2.717 -0.5806  0.3850  0.2600
  859MOL0     C13315   6.984  10.166   2.787 -0.5690 -0.0906  0.1224
  859MOL0     C13316   7.073  10.267   2.869  1.0965 -0.0418 -0.7213
  859MOL0     C13317   7.140  10.356   2.768 -1.2942 -0.9132 -0.0390
  859MOL0     C13318   7.255  10.443   2.819  0.8093 -0.1463  0.8989
  859MOL0     C13319   7.316  10.538   2.723  0.4786 -0.5652 -0.5465
  859MOL0     C13320   7.352  10.617   2.632 -0.1511  0.0391  0.1817
  859MOL0     C13321   6.781  10.081   2.580  0.5976 -0.8263 -0.9603
  859MOL0     C13322   6.662  10.027   2.529  0.9503 -1.2472 -0.9512
  859MOL0     H13323   6.302  10.013   2.246  0.5303  0.6645  0.9682
  859MOL0     H13324   6.136   9.928   2.117  3.2061 -3.2609 -1.9579
  859MOL0     H13325   5.926   9.629   2.015 -1.2677  1.3841 -2.0974
  859MOL0     H13326   6.029   9.760   2.015 -1.1637  0.1604 -3.8254
  859MOL0     H13327   5.833   9.823   1.901  0.9467 -0.8381 -0.1798
  859MOL0     H13328   5.822   9.916   2.044 -0.1336 -0.2249  0.1685
  859MOL0     H13329   5.701   9.707   2.163 -0.9588  0.2166  0.8920
  859MOL0     H13330   5.666   9.666   1.993  2.0683 -0.7648  0.6958
  859MOL0     H13331   5.624   9.932   2.127  0.5388  0.1735  0.1146
  859MOL0     H13332   5.567   9.878   1.961  2.4821  1.5479  0.3034
  859MOL0     H13333   5.457   9.763   2.218  2.1907 -1.6260  0.1986
  859MOL0     H13334   5.415   9.742   2.046  0.1288  0.3921 -0.3825
  859MOL0     H13335   5.387  10.006   2.043  0.1271 -0.6202  1.2671
  859MOL0     H13336   5.401  10.002   2.213 -1.5191 -1.2687  1.2849
  859MOL0     H13337   5.204   9.819   2.200 -1.3772 -1.9116 -3.6778
  859MOL0     H13338   5.176   9.989   2.221 -2.0805  0.1927 -1.8735
  859MOL0     H13339   5.168   9.830   1.954 -0.8245 -1.7851  0.6238
  859MOL0     H13340   5.151   9.998   1.968  2.0903 -1.2482 -1.3930
  859MOL0     H13341   4.935  10.101   2.126 -2.9864  0.6458 -3.3636
  859MOL0     H13342   4.702  10.104   2.200  2.2739 -1.1782  0.9217
  859MOL0     H13343   4.615   9.959   2.243 -1.3670 -0.3962 -2.0628
  859MOL0     H13344   4.652  10.064   1.961  2.2890 -0.8702  0.8623
  859MOL0     H13345   4.503  10.100   2.056  1.9818  2.9741 -0.7818
  859MOL0     H13346   4.587   9.837   1.919 -1.3023 -1.4567  0.4083
  859MOL0     H13347   4.527   9.826   2.075  0.3896 -0.1660 -0.1535
  859MOL0     H13348   4.375   9.929   1.821 -1.5556  1.3950  0.9403
  859MOL0     H13349   4.324   9.960   1.984 -1.7299  0.5353 -1.5820
  859MOL0     H13350   4.139   9.918   1.785 -0.8384  0.3798  2.5885
  859MOL0     H13351   3.906   9.834   1.689 -0.2884 -1.1703 -0.6070
  859MOL0     H13352   3.516   9.471   1.806 -2.4352 -0.1903 -0.3188
  859MOL0     H13353   3.335   9.325   1.713 -0.7843 -1.9541 -0.9690
  859MOL0     H13354   3.469   9.039   1.401  1.4118  1.7689 -1.7305
  859MOL0     H13355   3.411   9.188   1.313 -0.6718 -0.4427 -1.3906
  859MOL0     H13356   3.293   8.923   1.334  1.6316  0.0909 -2.0750
  859MOL0     H13357   3.257   9.058   1.226 -0.2959  1.9553 -0.2032
  859MOL0     H13358   3.093   9.143   1.390  0.7877 -0.4711 -3.9614
  859MOL0     H13359   3.149   9.020   1.507 -0.0001 -1.9245 -0.6435
  859MOL0     H13360   3.013   8.958   1.233  2.5534  1.4289 -0.1155
  859MOL0     H13361   3.061   8.842   1.361 -0.6051  0.8032  1.7278
  859MOL0     H13362   2.844   9.065   1.405  0.9310  0.4379  2.3839
  859MOL0     H13363   2.885   8.929   1.520  0.0202 -0.1864  0.5040
  859MOL0     H13364   2.822   8.767   1.317 -1.7405  0.4519 -4.0299
  859MOL0     H13365   2.753   8.911   1.244 -4.0488 -3.2215 -0.8784
  859MOL0     H13366   2.671   8.847   1.528  1.6145 -1.1846 -0.7169
  859MOL0     H13367   2.621   8.980   1.424 -0.8647 -0.4506  0.8575
  859MOL0     H13368   2.530   8.862   1.253  1.9528 -1.7673 -1.2506
  859MOL0     H13369   2.444   8.831   1.404 -0.2513 -4.1168  1.6617
  859MOL0     H13370   3.640   9.113   1.498  0.9759  0.5963  0.3651
  859MOL0     H13371   3.805   9.251   1.581  0.3645 -1.5387 -0.3032
  859MOL0     H13372   3.997   9.446   1.865 -0.4550 -0.3046 -1.5109
  859MOL0     H13373   4.209   9.534   1.944  2.3342 -0.4987 -4.1702
  859MOL0     H13374   6.028   9.640   2.422 -1.5469  0.0488 -0.0021
  859MOL0     H13375   6.214   9.716   2.554 -0.2924  1.1423  0.5728
  859MOL0     H13376   6.453  10.289   2.615  0.2634 -0.1441 -4.6110
  859MOL0     H13377   6.642  10.360   2.725 -0.9520 -0.1566  0.5424
  859MOL0     H13378   7.058  10.123   2.718 -0.2622 -0.2108  0.5221
  859MOL0     H13379   6.942  10.084   2.846 -0.9377 -0.8976 -1.2128
  859MOL0     H13380   7.007  10.320   2.938 -0.2732 -0.3768 -1.7320
  859MOL0     H13381   7.129  10.203   2.938 -1.8534 -2.4997 -0.3861
  859MOL0     H13382   7.066  10.429   2.732 -0.4971  0.7709  1.5885
  859MOL0     H13383   7.189  10.296   2.691 -1.6476  1.6968 -2.4634
  859MOL0     H13384   7.207  10.508   2.893 -0.5219  1.6840 -1.4136
  859MOL0     H13385   7.337  10.385   2.862  0.6651  0.7519  2.4598
  859MOL0     H13386   7.381  10.681   2.551  1.0584  0.0081  0.5670
  859MOL0     H13387   6.877  10.030   2.574  0.7805 -0.5426 -0.4839
  859MOL0     H13388   6.662   9.930   2.480  0.3870 -2.7692  1.8393
  860MOL0     O13389   3.881   6.111   6.897 -0.3092  0.1256  0.1702
  860MOL0     C13390   3.863   6.098   6.773  0.1114  0.0607 -1.0524
  860MOL0     O13391   3.734   6.076   6.713  0.6466 -0.1443 -0.1058
  860MOL0     C13392   3.620   6.023   6.784 -0.3874 -0.0581  0.1876
  860MOL0     C13393   3.618   5.972   6.912  0.8073 -0.6434 -0.2238
  860MOL0     C13394   3.500   5.903   6.957 -0.4711  0.2753 -0.2160
  860MOL0     C13395   3.398   5.874   6.871  1.4778  0.6964  0.1864
  860MOL0     O13396   3.288   5.803   6.926 -0.0896  0.2090 -0.0864
  860MOL0     C13397   3.171   5.795   6.849  0.4924  0.5130 -0.6782
  860MOL0     C13398   3.082   5.689   6.924  0.1072 -0.0783  0.0367
  860MOL0     C13399   2.928   5.698   6.892  0.1851  0.4724 -0.3984
  860MOL0     C13400   2.846   5.629   6.999 -1.2297  0.1762  0.2165
  860MOL0     C13401   2.691   5.637   6.982  0.2130  0.7005 -0.1209
  860MOL0     C13402   2.615   5.568   7.092  0.0880 -0.3806 -0.2791
  860MOL0     C13403   2.467   5.572   7.046 -0.0598  0.4055  0.3049
  860MOL0     C13404   2.351   5.515   7.130 -0.9593 -0.6080  1.5097
  860MOL0     N13405   2.362   5.572   7.268  0.1180  0.4693 -0.2586
  860MOL0     C13406   2.351   5.701   7.304 -0.4748  0.1803  0.6891
  860MOL0     C13407   2.348   5.696   7.439  0.2157 -0.4563  0.8430
  860MOL0     C13408   2.324   5.798   7.544 -0.2026  0.5284  0.2143
  860MOL0     C13409   2.179   5.789   7.608  0.9362  0.4222 -0.5436
  860MOL0     C13410   2.074   5.879   7.535 -0.0171  0.2651  0.4478
  860MOL0     C13411   2.087   5.887   7.385  0.6432  0.9282  0.1518
  860MOL0     O13412   2.032   5.772   7.313  0.2641 -0.1339 -0.1237
  860MOL0     C13413   1.893   5.777   7.284  0.2368  0.1294 -0.0043
  860MOL0     C13414   1.842   5.660   7.219 -0.4341 -1.1571  0.0385
  860MOL0     C13415   1.709   5.655   7.199  0.5756  0.1670 -0.5994
  860MOL0     C13416   1.614   5.754   7.234  0.2463 -0.8811  0.2150
  860MOL0     C13417   1.472   5.745   7.200  0.4683 -0.5340  0.2454
  860MOL0     O13418   1.378   5.853   7.223  0.4561 -0.3376  0.1470
  860MOL0     C13419   1.240   5.843   7.203 -0.3703 -0.1932 -0.2618
  860MOL0     C13420   1.179   5.951   7.143  0.1434 -0.1190  0.9255
  860MOL0     C13421   1.045   5.961   7.130  0.5795  0.2372 -0.0667
  860MOL0     C13422   0.964   5.859   7.176 -0.0797  0.1177 -0.5943
  860MOL0     O13423   0.827   5.872   7.162 -0.4508 -0.2085  0.3112
  860MOL0     C13424   0.755   5.752   7.121 -0.1708  0.1117  0.1411
  860MOL0     C13425   0.654   5.789   7.015 -0.2736  0.4226 -0.0565
  860MOL0     C13426   0.520   5.819   7.074 -0.6093 -0.5340  0.7399
  860MOL0     C13427   0.409   5.843   6.968  0.4406  0.0139 -0.2796
  860MOL0     C13428   0.268   5.850   7.036 -1.0423 -0.3300  0.6006
  860MOL0     C13429   0.236   5.993   7.064 -0.0937 -0.5879  0.0494
  860MOL0     C13430   0.120   6.006   7.170 -0.3117 -0.0943  0.4468
  860MOL0     C13431   0.003   5.917   7.146 -0.7242 -0.5276 -0.2324
  860MOL0    Cl13432  -0.137   5.983   7.230  0.1260 -0.0855 -0.0961
  860MOL0     C13433   1.025   5.749   7.239  0.7957  0.4146  0.0959
  860MOL0     C13434   1.162   5.738   7.256  0.3025 -1.4026  0.3332
  860MOL0     O13435   1.437   5.640   7.156  0.2307 -0.3611 -0.1041
  860MOL0     C13436   1.666   5.874   7.296  0.7660  0.2878 -0.3915
  860MOL0     C13437   1.801   5.886   7.313 -0.1790 -0.6275  0.5322
  860MOL0     N13438   2.350   5.565   7.488  0.8295 -0.0508 -0.3166
  860MOL0     N13439   2.365   5.495   7.382  0.2559 -0.0448 -0.1878
  860MOL0     C13440   3.396   5.932   6.741  0.5253 -0.6393  0.1169
  860MOL0     C13441   3.507   6.002   6.698  0.2466  0.1485  0.3021
  860MOL0     C13442   3.968   6.124   6.682  0.2976  0.9122 -0.2791
  860MOL0     C13443   4.107   6.113   6.713  0.1628  0.0473  0.6081
  860MOL0     C13444   4.200   6.140   6.607 -0.8935 -0.3600  1.3016
  860MOL0     C13445   4.158   6.181   6.473  0.2812 -0.2682  0.3830
  860MOL0     O13446   4.254   6.192   6.379 -0.2499 -0.4352  0.7798
  860MOL0     C13447   4.201   6.197   6.240  0.3445  0.2893 -0.6045
  860MOL0     C13448   4.313   6.149   6.150 -0.3388 -0.3813 -0.4673
  860MOL0     C13449   4.255   6.189   6.006 -0.2377  0.0860 -0.3381
  860MOL0     C13450   4.241   6.065   5.909 -1.1613  0.9808 -0.1759
  860MOL0     C13451   4.364   5.992   5.920  0.3538  0.1423 -0.6306
  860MOL0     C13452   4.471   5.936   5.910  0.1224  0.6716  1.2985
  860MOL0     C13453   4.020   6.201   6.452  0.1249  0.0282 -0.1033
  860MOL0     C13454   3.929   6.178   6.554  0.6048 -0.6502  1.1503
  860MOL0     H13455   3.700   5.993   6.980  1.7505  1.4814 -1.9122
  860MOL0     H13456   3.495   5.862   7.058 -1.3019  2.5437  0.7259
  860MOL0     H13457   3.193   5.743   6.755  0.0209 -0.3801 -0.3091
  860MOL0     H13458   3.120   5.892   6.840 -1.4330 -0.3484  0.3710
  860MOL0     H13459   3.075   5.721   7.028 -1.3915 -0.9186  0.2286
  860MOL0     H13460   3.127   5.590   6.909 -1.6669 -0.6626 -2.0033
  860MOL0     H13461   2.901   5.647   6.799 -1.8392 -0.2154  0.4930
  860MOL0     H13462   2.908   5.805   6.880  2.2209  0.9354  0.0104
  860MOL0     H13463   2.884   5.527   7.010  1.6540  1.3548  2.5627
  860MOL0     H13464   2.878   5.671   7.095  0.6057 -0.6451  0.0008
  860MOL0     H13465   2.655   5.601   6.886 -0.3775 -0.5354  0.5339
  860MOL0     H13466   2.667   5.743   6.991  2.6571  1.4391 -1.4326
  860MOL0     H13467   2.622   5.636   7.177  1.8249  1.1656 -1.5819
  860MOL0     H13468   2.637   5.462   7.108  0.5420 -0.5437 -1.7844
  860MOL0     H13469   2.432   5.674   7.031  4.2200  2.4126  2.0233
  860MOL0     H13470   2.465   5.515   6.953  0.2284 -1.2201  1.2650
  860MOL0     H13471   2.362   5.407   7.123  0.3132 -0.3946 -0.4515
  860MOL0     H13472   2.255   5.535   7.082 -0.6169  1.1242  1.4883
  860MOL0     H13473   2.339   5.786   7.238 -0.7661 -2.6671 -3.3254
  860MOL0     H13474   2.349   5.897   7.503  1.5226 -0.5636 -1.5169
  860MOL0     H13475   2.397   5.777   7.623 -0.7433  0.4062  0.6932
  860MOL0     H13476   2.200   5.827   7.708  0.6818 -0.2085 -0.2487
  860MOL0     H13477   2.155   5.682   7.610  0.9115  0.3783 -2.1044
  860MOL0     H13478   1.973   5.848   7.563  0.6057 -0.5682  1.9121
  860MOL0     H13479   2.088   5.984   7.564 -3.0625  0.6957  0.6617
  860MOL0     H13480   2.189   5.914   7.355 -0.1858  2.5937 -1.3995
  860MOL0     H13481   2.034   5.977   7.350  1.5206  1.4827  0.2166
  860MOL0     H13482   1.914   5.586   7.188 -0.0469 -0.7842  0.0382
  860MOL0     H13483   1.654   5.574   7.154 -2.8665  2.5168 -0.9922
  860MOL0     H13484   1.247   6.029   7.109 -2.4168  0.8763 -2.4358
  860MOL0     H13485   1.007   6.050   7.082  3.6036  1.4909 -0.4115
  860MOL0     H13486   0.716   5.702   7.210  0.3686 -2.1269 -0.8136
  860MOL0     H13487   0.825   5.679   7.079  1.1953  0.9825  0.8208
  860MOL0     H13488   0.645   5.705   6.947 -3.2616 -1.4298  2.3533
  860MOL0     H13489   0.688   5.879   6.962  2.5744  0.0590  0.9937
  860MOL0     H13490   0.540   5.903   7.143  0.4042 -0.9108  0.9297
  860MOL0     H13491   0.485   5.736   7.135  0.4198 -0.9727  0.7600
  860MOL0     H13492   0.434   5.932   6.910 -1.9370  1.5054  0.7978
  860MOL0     H13493   0.409   5.757   6.901 -2.0009 -2.3545  2.4241
  860MOL0     H13494   0.282   5.803   7.134  1.3145  0.6748  0.8191
  860MOL0     H13495   0.194   5.801   6.973 -0.7501 -0.9945  0.7663
  860MOL0     H13496   0.201   6.034   6.969  1.0084 -1.7591 -0.9022
  860MOL0     H13497   0.327   6.046   7.089  1.7415 -1.2302 -4.3082
  860MOL0     H13498   0.149   6.000   7.276 -0.1934 -1.8235  0.3442
  860MOL0     H13499   0.089   6.110   7.163 -3.5153 -0.8738  1.1806
  860MOL0     H13500   0.015   5.813   7.179  0.7781  0.2657  1.9079
  860MOL0     H13501  -0.021   5.915   7.039 -0.0963 -1.1116 -0.3714
  860MOL0     H13502   0.971   5.658   7.265  3.5026 -0.9451  1.3745
  860MOL0     H13503   1.216   5.651   7.294  0.5999 -0.6702  1.6229
  860MOL0     H13504   1.614   5.966   7.321  1.5052  0.3582  0.9618
  860MOL0     H13505   1.832   5.977   7.363 -2.8209 -0.4322  2.0107
  860MOL0     H13506   3.305   5.915   6.685 -0.9169  1.3544  1.6967
  860MOL0     H13507   3.498   6.050   6.601  0.5410 -1.1821 -0.4154
  860MOL0     H13508   4.156   6.102   6.809 -0.7137  0.2846  1.0949
  860MOL0     H13509   4.307   6.140   6.622 -0.9216 -0.3054  1.5068
  860MOL0     H13510   4.174   6.300   6.214 -1.7879 -0.4322 -1.5025
  860MOL0     H13511   4.120   6.127   6.216  1.1453 -0.1841 -2.0275
  860MOL0     H13512   4.406   6.200   6.177 -0.1980 -1.7516  1.9530
  860MOL0     H13513   4.335   6.044   6.171 -2.5047 -0.4682  1.8268
  860MOL0     H13514   4.315   6.267   5.958  2.7222 -1.9922 -0.2334
  860MOL0     H13515   4.154   6.231   6.007  0.5896  2.1753  0.7788
  860MOL0     H13516   4.160   6.002   5.947 -2.1766  1.4875 -1.4214
  860MOL0     H13517   4.219   6.092   5.805 -2.2103  1.3246  0.1236
  860MOL0     H13518   4.553   5.874   5.880 -0.1630 -0.2545  2.3580
  860MOL0     H13519   4.000   6.239   6.353 -1.4622 -0.8807 -0.1583
  860MOL0     H13520   3.822   6.189   6.534  0.6145 -1.9689  0.2963
  861MOL0     O13521   2.427   1.733  11.057 -0.5182  0.3448  0.6350
  861MOL0     C13522   2.478   1.772  10.952  1.0632  0.1471 -0.2616
  861MOL0     O13523   2.415   1.845  10.853  0.1556 -0.1737 -1.0202
  861MOL0     C13524   2.281   1.873  10.869  0.6047  0.0547  0.1212
  861MOL0     C13525   2.203   1.910  10.978 -0.6631 -0.5618  0.2864
  861MOL0     C13526   2.069   1.932  10.964  0.2236  0.8349 -0.2012
  861MOL0     C13527   2.003   1.926  10.843  0.8372  0.0204  0.7352
  861MOL0     O13528   1.871   1.942  10.827  1.0252 -0.7799 -0.0997
  861MOL0     C13529   1.821   2.073  10.883 -0.6017  0.4242 -0.4883
  861MOL0     C13530   1.719   2.043  10.991  1.0786  0.8457 -0.0874
  861MOL0     C13531   1.570   2.009  10.937 -0.8604 -0.3424 -0.7891
  861MOL0     C13532   1.480   1.966  11.056 -0.3873  0.8142 -0.0467
  861MOL0     C13533   1.332   1.951  11.019 -0.2148  0.5455  0.2182
  861MOL0     C13534   1.258   1.906  11.145 -0.1738 -0.2084 -0.5358
  861MOL0     C13535   1.106   1.915  11.120 -0.4807 -0.4592 -0.0535
  861MOL0     C13536   1.026   1.899  11.251 -0.5264 -0.1251 -0.0317
  861MOL0     N13537   0.892   1.947  11.231 -0.2056 -0.0267  0.4050
  861MOL0     C13538   0.851   2.075  11.258 -0.3158 -0.1157 -0.1324
  861MOL0     C13539   0.722   2.080  11.218  1.3715 -0.6702 -0.7340
  861MOL0     C13540   0.634   2.207  11.250  0.2242 -0.2906 -0.7411
  861MOL0     C13541   0.601   2.231  11.406 -0.3455 -0.3555 -0.3717
  861MOL0     C13542   0.540   2.124  11.490 -0.2592  0.1893  0.0688
  861MOL0     C13543   0.390   2.114  11.433  0.3817  1.3411 -0.3953
  861MOL0     O13544   0.325   2.018  11.524 -0.6015 -0.2867 -0.4929
  861MOL0     C13545   0.188   2.009  11.533 -0.1211  0.3990  1.0657
  861MOL0     C13546   0.139   1.919  11.623 -0.1182  0.5678 -0.4429
  861MOL0     C13547   0.005   1.900  11.651  0.8781  1.2688 -0.0700
  861MOL0     C13548  -0.091   1.988  11.594 -0.2169  0.3697  0.4406
  861MOL0     C13549  -0.233   1.972  11.620  1.6845 -0.2376  0.1917
  861MOL0     O13550  -0.327   2.063  11.548 -0.2055 -0.6241  0.2365
  861MOL0     C13551  -0.461   2.043  11.557 -0.1332 -0.1148  0.5804
  861MOL0     C13552  -0.534   1.974  11.455  0.2183 -0.4279 -0.1602
  861MOL0     C13553  -0.670   1.963  11.482  0.4291  0.7062 -0.2658
  861MOL0     C13554  -0.738   2.019  11.590 -0.2981 -1.0893 -0.7003
  861MOL0     O13555  -0.870   2.009  11.617  0.7510  0.1633  0.8005
  861MOL0     C13556  -0.935   1.881  11.590 -0.3287  0.1755 -0.7702
  861MOL0     C13557  -1.040   1.859  11.699 -0.5091 -0.3990  0.1377
  861MOL0     C13558  -1.169   1.788  11.645  0.3611 -1.1958  0.0852
  861MOL0     C13559  -1.251   1.873  11.535  0.0389  0.4564 -0.3412
  861MOL0     C13560  -1.395   1.833  11.513 -0.5596 -0.2756  1.0919
  861MOL0     C13561  -1.410   1.684  11.478 -1.1412 -0.0883  0.3223
  861MOL0     C13562  -1.444   1.585  11.595 -0.2011 -1.1491 -0.0507
  861MOL0     C13563  -1.599   1.563  11.605 -0.1144 -0.0749  0.0143
  861MOL0    Cl13564  -1.648   1.484  11.766  0.3842  0.2537 -0.3711
  861MOL0     C13565  -0.662   2.102  11.667 -0.1019 -0.5291 -0.6600
  861MOL0     C13566  -0.523   2.114  11.660 -0.7615  0.7031  0.6317
  861MOL0     O13567  -0.266   1.893  11.706 -0.9310  0.1147 -0.2100
  861MOL0     C13568  -0.047   2.087  11.499  0.5494 -0.1449 -0.0829
  861MOL0     C13569   0.093   2.090  11.463 -0.3019 -0.6745 -0.1660
  861MOL0     N13570   0.692   1.956  11.161 -0.1109 -0.0974 -0.0922
  861MOL0     N13571   0.795   1.887  11.169  0.3814 -0.7303  0.2423
  861MOL0     C13572   2.081   1.902  10.725 -0.4099  0.8118  0.3990
  861MOL0     C13573   2.217   1.877  10.744 -0.1505  0.8262  0.3390
  861MOL0     C13574   2.622   1.756  10.949 -0.4381 -1.1664  0.4584
  861MOL0     C13575   2.690   1.720  11.058 -0.2690 -0.3904  0.2533
  861MOL0     C13576   2.829   1.712  11.052 -0.2052 -0.2973 -1.0346
  861MOL0     C13577   2.899   1.714  10.930 -0.8234 -0.5288  0.2106
  861MOL0     O13578   3.029   1.663  10.923  0.3982 -0.2738  0.1846
  861MOL0     C13579   3.051   1.541  10.858 -0.8923  0.3068 -0.8304
  861MOL0     C13580   3.048   1.543  10.707 -0.2895  0.1418  0.3453
  861MOL0     C13581   3.133   1.428  10.660  0.7200 -0.1001  0.6684
  861MOL0     C13582   3.144   1.418  10.512  0.8970 -0.3219 -0.3898
  861MOL0     C13583   3.019   1.366  10.448 -0.0424  0.1040 -0.6383
  861MOL0     C13584   2.921   1.324  10.393 -0.0344  0.2204 -0.1325
  861MOL0     C13585   2.837   1.766  10.813  0.2462  0.0225 -0.5895
  861MOL0     C13586   2.694   1.786  10.827 -0.2396  0.4548 -0.2600
  861MOL0     H13587   2.240   1.905  11.080 -0.1999  0.9760  0.2268
  861MOL0     H13588   2.001   1.935  11.049 -0.1770 -1.2730 -0.4009
  861MOL0     H13589   1.763   2.130  10.810  0.9029  1.7240 -0.7171
  861MOL0     H13590   1.895   2.149  10.913 -0.6491  1.2864 -2.4294
  861MOL0     H13591   1.719   2.138  11.045  1.3721 -0.5011  2.4262
  861MOL0     H13592   1.746   1.970  11.067 -1.0054 -1.4511 -1.4061
  861MOL0     H13593   1.581   1.921  10.873  1.5570 -1.3823  0.8967
  861MOL0     H13594   1.517   2.092  10.889 -1.4692 -0.0429  0.3710
  861MOL0     H13595   1.514   1.873  11.102 -1.2188  0.6281  0.2261
  861MOL0     H13596   1.485   2.036  11.140 -0.1304  0.8960 -0.1306
  861MOL0     H13597   1.323   1.873  10.943  0.0481 -1.3645  2.0570
  861MOL0     H13598   1.285   2.038  10.973 -0.4731  1.5242  2.2557
  861MOL0     H13599   1.276   1.980  11.225 -1.2309  0.2986 -0.7474
  861MOL0     H13600   1.280   1.804  11.177  0.0920 -0.1551 -0.5460
  861MOL0     H13601   1.082   2.019  11.097  0.4158 -0.6234 -1.8536
  861MOL0     H13602   1.068   1.857  11.036 -1.8956 -2.4929  1.8666
  861MOL0     H13603   1.077   1.948  11.334  2.3600  0.9084 -2.2450
  861MOL0     H13604   1.021   1.792  11.274  0.1679  0.3024  2.3924
  861MOL0     H13605   0.906   2.155  11.307 -0.8864 -0.5456  1.2601
  861MOL0     H13606   0.538   2.205  11.199  1.0365 -1.9855 -2.3466
  861MOL0     H13607   0.681   2.295  11.204  0.3747  0.5819  1.0036
  861MOL0     H13608   0.549   2.326  11.418 -0.2938 -0.6036  2.4401
  861MOL0     H13609   0.704   2.246  11.441 -0.2114  1.6987 -1.4702
  861MOL0     H13610   0.603   2.034  11.485  0.2122  0.5393 -0.4685
  861MOL0     H13611   0.521   2.163  11.590 -3.8237 -0.5195 -0.1993
  861MOL0     H13612   0.395   2.073  11.332  4.8548  1.1346 -0.3069
  861MOL0     H13613   0.335   2.208  11.436  0.2514  1.2412  0.8279
  861MOL0     H13614   0.214   1.858  11.674  0.2901 -2.3269 -4.0578
  861MOL0     H13615  -0.025   1.832  11.730 -0.6574  0.3242 -1.3910
  861MOL0     H13616  -0.491   1.919  11.372  2.5893 -0.3141  0.9096
  861MOL0     H13617  -0.724   1.902  11.411  1.0860 -0.9142  0.5678
  861MOL0     H13618  -0.854   1.807  11.594  0.1939  0.7685 -0.2262
  861MOL0     H13619  -0.977   1.877  11.489 -0.0346 -2.9414 -0.8803
  861MOL0     H13620  -1.077   1.958  11.729  0.3333 -0.1322  0.3116
  861MOL0     H13621  -0.990   1.824  11.790  0.9739  0.1854 -0.4234
  861MOL0     H13622  -1.235   1.775  11.732  0.8220 -2.0994  0.3132
  861MOL0     H13623  -1.144   1.697  11.590 -0.4813 -0.3927 -1.6999
  861MOL0     H13624  -1.241   1.979  11.561 -3.5227  1.2198 -1.5516
  861MOL0     H13625  -1.195   1.879  11.441  2.0057  5.1825  0.8495
  861MOL0     H13626  -1.428   1.902  11.436  2.7628 -1.7362 -1.9352
  861MOL0     H13627  -1.444   1.840  11.611  1.9744 -0.6313  2.4915
  861MOL0     H13628  -1.325   1.647  11.420 -3.0391 -2.8516 -0.8910
  861MOL0     H13629  -1.492   1.668  11.408  0.3046 -4.0029 -0.7645
  861MOL0     H13630  -1.395   1.489  11.580 -0.5059 -1.2504 -0.4208
  861MOL0     H13631  -1.397   1.637  11.678  3.1761 -2.0841 -1.2018
  861MOL0     H13632  -1.632   1.494  11.526 -1.3232  0.5381 -0.0387
  861MOL0     H13633  -1.652   1.656  11.586  1.5137  1.5034  2.5857
  861MOL0     H13634  -0.717   2.152  11.747 -0.2195  0.5306 -1.3698
  861MOL0     H13635  -0.462   2.171  11.729  1.7098  0.2560 -1.0700
  861MOL0     H13636  -0.121   2.158  11.462  0.7306 -0.5314 -1.2207
  861MOL0     H13637   0.128   2.168  11.396  1.8820 -0.2740  1.3402
  861MOL0     H13638   2.043   1.912  10.624 -0.4128  2.1057  0.5153
  861MOL0     H13639   2.276   1.863  10.654  1.1629  3.0554  0.7598
  861MOL0     H13640   2.641   1.732  11.155 -3.0541  2.0348 -1.2944
  861MOL0     H13641   2.889   1.682  11.137  0.5883 -0.2019 -1.5515
  861MOL0     H13642   2.984   1.468  10.905  1.9989 -1.4407  0.8785
  861MOL0     H13643   3.146   1.501  10.895 -1.7091  0.0060  1.0660
  861MOL0     H13644   2.950   1.542  10.660  0.5076  4.2133 -1.8421
  861MOL0     H13645   3.093   1.633  10.664  4.0012 -1.5706  0.7548
  861MOL0     H13646   3.104   1.340  10.720  0.1680  1.2986  2.5590
  861MOL0     H13647   3.235   1.452  10.690  1.5719 -2.4897 -0.0995
  861MOL0     H13648   3.158   1.518  10.471  1.6679  0.6578  2.0831
  861MOL0     H13649   3.231   1.357  10.484  1.2145 -1.0337  1.9611
  861MOL0     H13650   2.829   1.296  10.348 -0.7578  3.4874 -0.9608
  861MOL0     H13651   2.879   1.798  10.718  0.6862 -0.7158 -0.6514
  861MOL0     H13652   2.642   1.835  10.745  2.8387  2.2322 -1.3067
  862MOL0     O13653  10.782   3.476   7.868  0.0892  0.5997 -0.2241
  862MOL0     C13654  10.762   3.467   7.989 -0.1916 -0.4818  0.1718
  862MOL0     O13655  10.669   3.532   8.054 -0.9323  0.2233 -0.4103
  862MOL0     C13656  10.589   3.619   7.988 -0.0745 -0.4233 -0.8733
  862MOL0     C13657  10.631   3.717   7.896 -0.5533 -0.1754 -0.2417
  862MOL0     C13658  10.541   3.804   7.842  0.5292  0.1780  0.3793
  862MOL0     C13659  10.404   3.785   7.857 -0.4779 -0.1876 -0.5250
  862MOL0     O13660  10.299   3.867   7.802 -0.2239  0.2303 -0.2834
  862MOL0     C13661  10.337   3.997   7.790  0.5153  0.1196 -0.6326
  862MOL0     C13662  10.209   4.077   7.810 -0.2634  0.0765 -0.0624
  862MOL0     C13663  10.112   4.053   7.923 -0.5051 -0.0022  0.2383
  862MOL0     C13664  10.178   4.090   8.056 -0.2530 -0.0061 -0.7055
  862MOL0     C13665  10.094   4.041   8.172 -0.6131 -0.3311 -0.3204
  862MOL0     C13666  10.081   3.889   8.180 -1.2870  0.5701 -0.3019
  862MOL0     C13667  10.024   3.834   8.310 -0.1794 -0.4790 -0.5564
  862MOL0     C13668  10.033   3.680   8.297 -0.1177 -0.0518  0.5226
  862MOL0     N13669   9.980   3.618   8.412  0.7928 -0.4420  0.1922
  862MOL0     C13670   9.852   3.630   8.461  0.3783  0.1095 -0.5765
  862MOL0     C13671   9.835   3.522   8.546  0.5452  0.0169  0.1873
  862MOL0     C13672   9.718   3.480   8.629 -0.5024 -0.6101  0.2739
  862MOL0     C13673   9.602   3.443   8.535  0.4424  0.3384 -0.0323
  862MOL0     C13674   9.606   3.295   8.489  0.5732  0.4963 -0.1083
  862MOL0     C13675   9.496   3.270   8.393 -0.1551  0.6402  1.0748
  862MOL0     O13676   9.362   3.297   8.449 -0.0563  0.1198  0.2585
  862MOL0     C13677   9.253   3.298   8.367  0.3077  0.4930  0.5264
  862MOL0     C13678   9.252   3.312   8.225 -1.3786 -0.2111  0.7314
  862MOL0     C13679   9.145   3.328   8.141 -0.2120  0.6166 -0.0443
  862MOL0     C13680   9.016   3.332   8.206  0.2247  0.2219  1.1836
  862MOL0     C13681   8.894   3.340   8.122  0.6034 -0.0010 -0.2391
  862MOL0     O13682   8.785   3.397   8.186  0.0811 -0.4104  0.3307
  862MOL0     C13683   8.664   3.428   8.118  0.7249  0.0120  0.4507
  862MOL0     C13684   8.581   3.525   8.182  0.6431 -0.0008 -0.5642
  862MOL0     C13685   8.452   3.542   8.133  0.2742 -0.5506 -0.4186
  862MOL0     C13686   8.418   3.494   8.010 -0.8952 -0.0620  0.0520
  862MOL0     O13687   8.309   3.529   7.945  0.5047  0.0654  0.3526
  862MOL0     C13688   8.183   3.535   8.009  0.7277 -0.0180 -0.2127
  862MOL0     C13689   8.073   3.525   7.901  0.3766 -0.6618 -0.0517
  862MOL0     C13690   8.035   3.385   7.873 -0.0787 -0.3733 -0.3865
  862MOL0     C13691   7.948   3.322   7.982  0.0016  0.2871  0.2812
  862MOL0     C13692   7.847   3.216   7.933 -0.4543  0.7538 -0.7059
  862MOL0     C13693   7.752   3.160   8.042 -0.0904 -0.7253 -0.1893
  862MOL0     C13694   7.655   3.067   7.970 -0.1253 -0.5416  0.6070
  862MOL0     C13695   7.565   3.012   8.072 -0.6219 -0.0619 -0.4315
  862MOL0    Cl13696   7.643   2.905   8.189  0.0091 -0.1890  0.0606
  862MOL0     C13697   8.502   3.409   7.942 -0.3174 -0.4388 -0.7082
  862MOL0     C13698   8.620   3.370   7.998 -0.4280 -0.9000  0.9740
  862MOL0     O13699   8.904   3.320   8.003  0.6799  0.9394  0.7275
  862MOL0     C13700   9.009   3.320   8.344 -0.0462  0.8672 -0.1721
  862MOL0     C13701   9.126   3.302   8.422 -0.6690  0.8844 -0.1187
  862MOL0     N13702   9.949   3.456   8.550 -0.0704 -0.3836 -0.7503
  862MOL0     N13703  10.036   3.512   8.469  0.0730  0.0166 -0.2790
  862MOL0     C13704  10.368   3.677   7.936  0.4277 -0.0667 -0.4237
  862MOL0     C13705  10.458   3.597   8.003 -0.5711  0.3165 -0.5454
  862MOL0     C13706  10.845   3.372   8.069  0.5173 -0.6221 -0.3679
  862MOL0     C13707  10.935   3.281   8.009 -0.7229 -0.1957  1.1554
  862MOL0     C13708  11.008   3.189   8.076  0.4075 -0.8723 -0.5914
  862MOL0     C13709  11.002   3.187   8.212 -0.3418  0.7572  0.2681
  862MOL0     O13710  11.088   3.095   8.268  0.6195 -0.4067 -0.0022
  862MOL0     C13711  11.089   3.090   8.408 -0.1197 -0.1237  0.0727
  862MOL0     C13712  11.159   2.974   8.472  0.0033 -0.6674  0.6308
  862MOL0     C13713  11.307   2.974   8.457 -0.1561  0.0613  0.1955
  862MOL0     C13714  11.386   3.101   8.501 -0.5856  0.2380 -0.3490
  862MOL0     C13715  11.363   3.144   8.640  0.1387 -0.2967 -0.4228
  862MOL0     C13716  11.340   3.186   8.753  0.3998 -0.3798  0.7930
  862MOL0     C13717  10.919   3.274   8.271  0.6470 -0.6124 -0.3480
  862MOL0     C13718  10.849   3.375   8.205 -0.5942 -0.2805 -0.4806
  862MOL0     H13719  10.734   3.736   7.870 -0.5572  2.3713  1.2888
  862MOL0     H13720  10.579   3.889   7.786 -0.8632 -0.1985 -1.2015
  862MOL0     H13721  10.380   4.027   7.694  1.0288  0.3594 -0.3347
  862MOL0     H13722  10.409   4.027   7.866  1.4137  2.2503 -2.2362
  862MOL0     H13723  10.159   4.063   7.714  1.0682 -3.0474 -0.4035
  862MOL0     H13724  10.241   4.182   7.814  0.2622 -0.1099  1.5243
  862MOL0     H13725  10.072   3.952   7.910 -0.4584 -0.2260  1.7355
  862MOL0     H13726  10.025   4.117   7.908 -0.4686 -0.1598 -0.7137
  862MOL0     H13727  10.280   4.053   8.065  0.5379  1.7881 -1.7819
  862MOL0     H13728  10.181   4.199   8.065  0.6141  0.1656 -2.6511
  862MOL0     H13729   9.999   4.092   8.154  0.1686  2.0384  1.7302
  862MOL0     H13730  10.132   4.086   8.264  0.6702  1.3609 -1.6182
  862MOL0     H13731  10.184   3.856   8.162  0.0610  3.2828  1.7723
  862MOL0     H13732  10.017   3.851   8.099 -2.3549 -4.6807  2.5282
  862MOL0     H13733  10.084   3.871   8.394 -0.1765 -1.9394  0.1076
  862MOL0     H13734   9.922   3.869   8.328 -0.0630  0.5301 -1.7128
  862MOL0     H13735  10.139   3.653   8.295 -0.6455 -2.8202  2.9976
  862MOL0     H13736   9.979   3.651   8.207 -0.5276  2.3881 -0.1029
  862MOL0     H13737   9.772   3.700   8.440  0.3601  0.7697  1.4757
  862MOL0     H13738   9.681   3.565   8.687  3.4912  1.5760 -0.0274
  862MOL0     H13739   9.739   3.405   8.706 -1.6642 -0.5876  0.6242
  862MOL0     H13740   9.604   3.508   8.446 -4.0440  1.6320  0.5666
  862MOL0     H13741   9.507   3.466   8.584 -0.0576 -0.6973 -0.4824
  862MOL0     H13742   9.700   3.276   8.437 -0.3679 -0.8677 -1.4135
  862MOL0     H13743   9.592   3.234   8.578  0.4543  2.7003  1.4735
  862MOL0     H13744   9.499   3.165   8.361 -2.7211  1.1967 -1.3613
  862MOL0     H13745   9.515   3.338   8.310 -2.3293  1.9366  1.5680
  862MOL0     H13746   9.350   3.306   8.179 -2.8332  2.1115 -3.1992
  862MOL0     H13747   9.149   3.327   8.033 -3.8501 -1.7408 -0.3234
  862MOL0     H13748   8.607   3.578   8.273 -1.2290  0.2206 -0.1167
  862MOL0     H13749   8.379   3.598   8.190  0.8249  0.7695 -0.9601
  862MOL0     H13750   8.178   3.634   8.056  2.7048  0.8906 -1.7410
  862MOL0     H13751   8.169   3.457   8.084 -1.1590  0.5444  0.0637
  862MOL0     H13752   8.110   3.565   7.806 -0.1268  0.9927  0.4214
  862MOL0     H13753   7.987   3.584   7.934  0.9180 -0.5856  1.3258
  862MOL0     H13754   8.132   3.336   7.857  0.5080  0.4815  0.4066
  862MOL0     H13755   7.980   3.369   7.781 -1.0087 -0.3139  0.1503
  862MOL0     H13756   8.007   3.269   8.058  1.2735  0.8720 -0.2797
  862MOL0     H13757   7.889   3.395   8.039 -0.0038  0.3829  0.1525
  862MOL0     H13758   7.918   3.140   7.899  0.6380 -0.9250  4.5028
  862MOL0     H13759   7.786   3.246   7.847 -1.4452 -1.9778 -1.0441
  862MOL0     H13760   7.698   3.245   8.085  1.6890  0.5842 -0.4507
  862MOL0     H13761   7.799   3.101   8.121  0.7998 -1.7524 -1.4308
  862MOL0     H13762   7.595   3.115   7.892 -3.7850 -0.7238  3.0126
  862MOL0     H13763   7.717   2.994   7.917  0.8705  1.3484 -0.9062
  862MOL0     H13764   7.478   2.965   8.027 -1.4758  1.0740 -0.0233
  862MOL0     H13765   7.510   3.090   8.125 -2.7781 -0.8312 -1.4098
  862MOL0     H13766   8.477   3.378   7.841  0.1786  0.0420 -0.9789
  862MOL0     H13767   8.680   3.292   7.953 -0.5035 -0.1252 -0.5282
  862MOL0     H13768   8.909   3.328   8.385  0.4191  3.1666  0.6877
  862MOL0     H13769   9.127   3.305   8.530  2.5665 -0.2176  0.0133
  862MOL0     H13770  10.260   3.671   7.941  0.3234  0.5729 -1.5588
  862MOL0     H13771  10.427   3.524   8.078  0.6995 -0.8601 -1.1271
  862MOL0     H13772  10.939   3.275   7.901  1.3189 -0.7079  1.2110
  862MOL0     H13773  11.078   3.118   8.032 -1.4401 -4.1782  1.3289
  862MOL0     H13774  10.988   3.088   8.452 -0.6153  0.2697 -1.0046
  862MOL0     H13775  11.142   3.175   8.452 -1.3204  0.6109  0.1548
  862MOL0     H13776  11.135   2.973   8.579 -1.2074 -1.0045  0.3784
  862MOL0     H13777  11.120   2.885   8.422 -0.6209  0.6310 -1.3162
  862MOL0     H13778  11.325   2.951   8.352  0.4084 -0.3384  0.3719
  862MOL0     H13779  11.352   2.893   8.516 -0.8465  2.8268  5.1362
  862MOL0     H13780  11.493   3.086   8.488 -0.6924 -0.6842 -0.2377
  862MOL0     H13781  11.356   3.186   8.439 -0.6176  0.5218  0.0556
  862MOL0     H13782  11.313   3.229   8.847 -0.2268  1.0987 -0.0189
  862MOL0     H13783  10.917   3.276   8.380 -0.4514  1.4511 -0.3570
  862MOL0     H13784  10.796   3.453   8.258  0.1952  0.6626 -1.0483
  863MOL0     O13785   5.147   4.545   8.850 -0.2079  0.1121  0.0950
  863MOL0     C13786   5.240   4.490   8.789  0.4739  0.0786 -0.6043
  863MOL0     O13787   5.233   4.368   8.727  0.3584  0.8758 -0.0058
  863MOL0     C13788   5.115   4.314   8.687  0.0234 -0.2611  0.8829
  863MOL0     C13789   5.020   4.388   8.619  0.8930  0.2385  0.4171
  863MOL0     C13790   4.890   4.335   8.587  0.4115 -0.1938 -0.3112
  863MOL0     C13791   4.866   4.193   8.610  1.2412 -0.6427 -0.4153
  863MOL0     O13792   4.766   4.112   8.556  0.5626 -0.5951  0.5745
  863MOL0     C13793   4.647   4.174   8.509  0.7247  0.7833  0.0282
  863MOL0     C13794   4.538   4.073   8.467  0.4556  0.3833 -0.6224
  863MOL0     C13795   4.573   3.976   8.356 -1.0440 -1.1346 -0.4597
  863MOL0     C13796   4.460   3.882   8.326  0.1943 -0.3336 -0.0541
  863MOL0     C13797   4.485   3.803   8.199 -0.5605 -0.2932 -0.8554
  863MOL0     C13798   4.372   3.731   8.136  0.2829 -1.1011  0.0707
  863MOL0     C13799   4.413   3.662   8.001  0.0710  0.6206  0.3795
  863MOL0     C13800   4.314   3.553   7.959  0.0365 -0.3081  0.0116
  863MOL0     N13801   4.194   3.599   7.883 -0.1021 -0.2012 -0.6765
  863MOL0     C13802   4.143   3.525   7.780  0.3592 -0.3786 -0.0783
  863MOL0     C13803   4.051   3.611   7.737 -0.6411 -0.3539  0.5577
  863MOL0     C13804   3.975   3.568   7.607 -0.6779  0.1574 -0.9337
  863MOL0     C13805   3.824   3.542   7.634  0.0488  0.0220 -0.3302
  863MOL0     C13806   3.770   3.447   7.532 -0.4169 -0.3897 -0.5615
  863MOL0     C13807   3.618   3.434   7.540 -0.3630 -0.4012  0.5290
  863MOL0     O13808   3.590   3.351   7.649 -0.4199  0.5548  0.0324
  863MOL0     C13809   3.458   3.311   7.677  0.4732 -0.7335  0.6170
  863MOL0     C13810   3.426   3.223   7.781 -0.0659  1.8602  0.5914
  863MOL0     C13811   3.313   3.146   7.777 -0.0775 -0.1442 -0.4258
  863MOL0     C13812   3.199   3.181   7.690  0.2968  0.0311  0.0979
  863MOL0     C13813   3.067   3.117   7.687  0.5151 -0.2823  0.3687
  863MOL0     O13814   3.069   2.996   7.741 -0.3716  0.2066  0.0532
  863MOL0     C13815   2.953   2.915   7.753  0.3290  0.3882  0.0928
  863MOL0     C13816   2.959   2.803   7.830 -0.0738  0.3639 -0.6005
  863MOL0     C13817   2.849   2.721   7.866  0.5634  0.2092  0.1548
  863MOL0     C13818   2.720   2.748   7.821  0.1879  0.1246 -0.1586
  863MOL0     O13819   2.612   2.675   7.863 -0.3385 -0.2155 -0.3070
  863MOL0     C13820   2.570   2.573   7.768  0.5460  0.1019  0.2437
  863MOL0     C13821   2.592   2.596   7.618  0.7389  0.2546 -1.4208
  863MOL0     C13822   2.542   2.480   7.540 -0.5933 -0.2463  0.2951
  863MOL0     C13823   2.401   2.435   7.575 -0.5102  0.6790  0.5789
  863MOL0     C13824   2.369   2.319   7.489  0.4520  0.1526  0.0538
  863MOL0     C13825   2.226   2.260   7.479  0.0545  0.1981 -0.4200
  863MOL0     C13826   2.142   2.284   7.608  0.3194 -0.8387 -0.1126
  863MOL0     C13827   2.014   2.207   7.619  0.1414  0.3711  1.2989
  863MOL0    Cl13828   1.908   2.262   7.492 -0.3077  0.1923  0.0747
  863MOL0     C13829   2.712   2.861   7.736  0.2530  1.3590  0.4868
  863MOL0     C13830   2.830   2.936   7.698 -0.2852  0.6008  0.5026
  863MOL0     O13831   2.972   3.174   7.636 -0.4840 -0.4300 -0.3052
  863MOL0     C13832   3.224   3.287   7.595 -0.0216  0.3205  0.1838
  863MOL0     C13833   3.345   3.343   7.596 -1.1215 -0.3452 -0.0279
  863MOL0     N13834   4.049   3.729   7.803 -0.3913 -0.1798  0.6670
  863MOL0     N13835   4.131   3.720   7.911  0.2903 -1.0046  0.1454
  863MOL0     C13836   4.967   4.118   8.657 -0.0535  0.4710 -0.9039
  863MOL0     C13837   5.094   4.176   8.688  0.0463 -0.5580  0.1058
  863MOL0     C13838   5.369   4.559   8.799  0.1956 -0.3972 -0.7811
  863MOL0     C13839   5.379   4.695   8.847 -0.2025 -0.0753 -0.5803
  863MOL0     C13840   5.505   4.756   8.859  0.1645 -0.0478  0.3438
  863MOL0     C13841   5.622   4.690   8.816  0.1684 -0.2645 -0.6892
  863MOL0     O13842   5.749   4.734   8.823  0.0722 -0.0487  0.2778
  863MOL0     C13843   5.792   4.867   8.866  0.5661  0.9297  0.5314
  863MOL0     C13844   5.758   4.971   8.760  0.4178  1.1604  0.3275
  863MOL0     C13845   5.789   4.917   8.619 -0.2147  0.9611 -0.2560
  863MOL0     C13846   5.759   5.035   8.520 -0.4350  0.4304  0.3019
  863MOL0     C13847   5.804   5.167   8.553 -0.5232  0.6581  0.2972
  863MOL0     C13848   5.846   5.280   8.555  0.0708  0.2593  0.1426
  863MOL0     C13849   5.616   4.560   8.773 -0.2589 -0.0754 -0.4248
  863MOL0     C13850   5.493   4.490   8.776  1.0882  0.1492 -0.3603
  863MOL0     H13851   5.037   4.493   8.600 -1.0554  0.0310 -3.5289
  863MOL0     H13852   4.817   4.399   8.539  0.3328  1.1739  1.5011
  863MOL0     H13853   4.675   4.224   8.415 -2.4798 -0.1141 -1.5554
  863MOL0     H13854   4.600   4.244   8.579  1.3883  1.2652  0.0058
  863MOL0     H13855   4.441   4.118   8.442  0.4254  0.7895  0.2096
  863MOL0     H13856   4.517   4.009   8.554 -1.9953  1.8533 -0.0393
  863MOL0     H13857   4.665   3.923   8.382 -0.5217 -0.6072 -1.1874
  863MOL0     H13858   4.592   4.046   8.274 -2.5449  3.3273  2.6350
  863MOL0     H13859   4.448   3.807   8.405  3.1202 -0.4469  0.3856
  863MOL0     H13860   4.367   3.940   8.316 -1.4445 -2.9619 -1.1381
  863MOL0     H13861   4.557   3.725   8.224 -1.0353 -0.1903  0.9387
  863MOL0     H13862   4.526   3.860   8.114  0.1421  2.0467  0.9297
  863MOL0     H13863   4.289   3.798   8.113  0.5152 -1.3724 -1.6982
  863MOL0     H13864   4.334   3.649   8.198 -0.8406 -2.5448 -2.3894
  863MOL0     H13865   4.424   3.728   7.915 -0.3093 -2.5986 -2.3540
  863MOL0     H13866   4.504   3.606   8.025  0.7866  1.2636 -0.7498
  863MOL0     H13867   4.284   3.498   8.049  0.2536 -2.8110 -1.3779
  863MOL0     H13868   4.368   3.476   7.904  2.8371  2.2455 -1.1244
  863MOL0     H13869   4.181   3.431   7.741  0.0017 -1.3461  1.7775
  863MOL0     H13870   4.018   3.476   7.566  0.7888 -0.4116  1.6454
  863MOL0     H13871   3.996   3.641   7.528  1.1658  0.0671 -0.5763
  863MOL0     H13872   3.763   3.633   7.634  0.6160  0.4226  1.0469
  863MOL0     H13873   3.813   3.494   7.731 -0.0402  1.1382  0.2284
  863MOL0     H13874   3.800   3.483   7.433 -1.5228  0.7545 -0.5111
  863MOL0     H13875   3.813   3.348   7.548  1.0725  0.0649 -1.5324
  863MOL0     H13876   3.586   3.379   7.451 -2.5880 -1.8698  2.1492
  863MOL0     H13877   3.567   3.531   7.533 -2.1519 -1.3317 -0.0128
  863MOL0     H13878   3.506   3.193   7.849 -0.2894 -1.2021 -0.3452
  863MOL0     H13879   3.298   3.063   7.846  5.4038 -1.4620 -0.4023
  863MOL0     H13880   3.060   2.781   7.865  1.3641  1.4538 -3.7099
  863MOL0     H13881   2.850   2.637   7.935 -2.5446  0.9357  1.2513
  863MOL0     H13882   2.466   2.543   7.788  0.7847 -2.9298 -2.2215
  863MOL0     H13883   2.642   2.497   7.797  0.6221 -0.6601 -1.7367
  863MOL0     H13884   2.696   2.626   7.602  1.2842  1.7887  3.3012
  863MOL0     H13885   2.529   2.684   7.601  0.1277  0.4165  1.1888
  863MOL0     H13886   2.609   2.396   7.560 -1.0687 -0.8296 -0.5445
  863MOL0     H13887   2.549   2.496   7.433  1.3666 -3.1006 -0.0982
  863MOL0     H13888   2.397   2.393   7.676  0.5002 -2.3717 -0.5340
  863MOL0     H13889   2.330   2.513   7.546 -2.0688 -1.2214 -1.0066
  863MOL0     H13890   2.437   2.239   7.522  0.9548  1.3033  1.9624
  863MOL0     H13891   2.383   2.335   7.382 -1.3697 -1.4320 -0.4797
  863MOL0     H13892   2.249   2.157   7.452  0.1449  0.8096 -3.0164
  863MOL0     H13893   2.166   2.309   7.401  1.3020  0.5478 -1.1808
  863MOL0     H13894   2.203   2.279   7.698  1.0011 -1.1999 -0.5912
  863MOL0     H13895   2.123   2.391   7.596  1.0039 -0.6848  0.1826
  863MOL0     H13896   1.962   2.214   7.715 -1.2242 -1.0879  0.7065
  863MOL0     H13897   2.046   2.102   7.611  0.0134  0.4934 -2.0495
  863MOL0     H13898   2.618   2.869   7.682 -0.4876 -1.1803  1.2474
  863MOL0     H13899   2.800   3.015   7.630 -0.2288  0.2560  0.0717
  863MOL0     H13900   3.150   3.319   7.522 -1.0730  0.4147  1.2682
  863MOL0     H13901   3.369   3.408   7.513 -0.1677 -1.7437 -0.8858
  863MOL0     H13902   4.960   4.011   8.672  0.7810  0.7566  2.5375
  863MOL0     H13903   5.154   4.098   8.735 -2.0876 -0.6317  3.0275
  863MOL0     H13904   5.295   4.746   8.893 -1.0235 -1.9538  0.1248
  863MOL0     H13905   5.519   4.852   8.907 -0.3733 -0.7237  1.9383
  863MOL0     H13906   5.900   4.872   8.879  1.3836  0.8914 -4.3735
  863MOL0     H13907   5.741   4.895   8.958  2.1110  0.6455  1.5030
  863MOL0     H13908   5.649   4.982   8.764  0.2080 -0.2607 -0.8154
  863MOL0     H13909   5.809   5.061   8.794 -0.3400  0.6460  3.0705
  863MOL0     H13910   5.723   4.836   8.585  1.5951 -1.0783  0.8692
  863MOL0     H13911   5.891   4.885   8.600  0.5278  4.3175 -3.0312
  863MOL0     H13912   5.784   5.008   8.417 -4.6373  1.0164 -1.0939
  863MOL0     H13913   5.650   5.051   8.517 -0.3268  1.0874 -1.0497
  863MOL0     H13914   5.901   5.373   8.553  1.5752 -0.4266  3.3930
  863MOL0     H13915   5.705   4.508   8.740 -0.5075 -1.1971  0.6172
  863MOL0     H13916   5.494   4.390   8.733 -2.4684  0.0708 -0.5088
  864MOL0     O13917   9.683   4.155   9.588  0.5764 -0.3284 -1.1878
  864MOL0     C13918   9.779   4.184   9.513  0.0722  0.4714 -0.3433
  864MOL0     O13919   9.764   4.272   9.411 -0.4199  0.3201 -0.2089
  864MOL0     C13920   9.641   4.305   9.375  0.5393  0.2006  0.5051
  864MOL0     C13921   9.607   4.279   9.250 -0.6468 -0.5270  1.7569
  864MOL0     C13922   9.487   4.328   9.193 -0.5869  0.3865 -0.1832
  864MOL0     C13923   9.398   4.399   9.272  0.1602  0.3280  0.2614
  864MOL0     O13924   9.289   4.472   9.232  0.4446  0.1331  0.2425
  864MOL0     C13925   9.267   4.456   9.091  0.1690 -1.6818 -0.4101
  864MOL0     C13926   9.145   4.537   9.046 -0.3333 -0.2827 -0.3793
  864MOL0     C13927   9.011   4.488   9.112 -0.2735 -0.6958 -0.2886
  864MOL0     C13928   8.919   4.615   9.141 -1.1211  0.6037 -0.0990
  864MOL0     C13929   8.793   4.589   9.233 -0.3993  0.3653 -0.3971
  864MOL0     C13930   8.698   4.705   9.219 -0.5655  0.4135  0.3436
  864MOL0     C13931   8.559   4.665   9.250 -0.2229 -0.0468  0.1017
  864MOL0     C13932   8.472   4.789   9.229  0.4137 -0.1420 -0.9902
  864MOL0     N13933   8.326   4.753   9.224  0.1784 -0.5438 -0.1266
  864MOL0     C13934   8.223   4.829   9.164  0.1362 -0.1447 -0.3048
  864MOL0     C13935   8.108   4.763   9.199  0.6198 -0.2866 -0.0050
  864MOL0     C13936   7.972   4.814   9.146 -0.2901  0.0477  0.6602
  864MOL0     C13937   7.940   4.955   9.204  0.0738 -0.8128 -0.1747
  864MOL0     C13938   7.800   5.005   9.143 -0.3033 -0.8823 -0.4904
  864MOL0     C13939   7.677   4.954   9.213 -0.7611 -0.9209 -0.1668
  864MOL0     O13940   7.567   4.986   9.121  0.4851 -0.4309  0.0231
  864MOL0     C13941   7.467   5.078   9.152 -0.2130 -0.2313  0.4248
  864MOL0     C13942   7.383   5.117   9.050 -0.3797 -0.5047  0.6533
  864MOL0     C13943   7.271   5.196   9.074  0.2962 -0.6496 -0.7001
  864MOL0     C13944   7.232   5.229   9.209 -0.7255  0.3752 -0.1502
  864MOL0     C13945   7.111   5.315   9.223 -0.1714 -0.5479  0.6147
  864MOL0     O13946   7.032   5.341   9.110 -0.0097  0.2106  0.3357
  864MOL0     C13947   6.921   5.420   9.129  0.6615 -0.3496 -0.1249
  864MOL0     C13948   6.805   5.354   9.085 -0.0617  1.0493  0.0611
  864MOL0     C13949   6.679   5.407   9.090  0.2540 -0.3188  0.2359
  864MOL0     C13950   6.661   5.533   9.145  0.3318 -0.2381 -0.1971
  864MOL0     O13951   6.538   5.605   9.144  0.1921 -0.2580  0.7072
  864MOL0     C13952   6.415   5.533   9.110 -0.0879  0.1796 -0.2860
  864MOL0     C13953   6.300   5.625   9.123 -0.2081 -0.9178 -0.6564
  864MOL0     C13954   6.170   5.546   9.128 -0.6838  1.2041 -0.1641
  864MOL0     C13955   6.059   5.648   9.111  0.2807 -0.6966  0.1043
  864MOL0     C13956   5.921   5.583   9.141 -0.4432  0.6885 -0.0996
  864MOL0     C13957   5.886   5.456   9.060 -0.0457  0.3035 -0.6290
  864MOL0     C13958   5.735   5.418   9.055  0.6980  0.4313  0.0975
  864MOL0     C13959   5.703   5.273   9.016  0.5573 -0.1505  0.1588
  864MOL0    Cl13960   5.776   5.181   9.141 -0.2043  0.1562 -0.1201
  864MOL0     C13961   6.775   5.600   9.205  0.9632  0.6422  0.2279
  864MOL0     C13962   6.901   5.545   9.188  0.7968  0.6028  0.8010
  864MOL0     O13963   7.086   5.360   9.338 -0.0328  0.7347  0.1993
  864MOL0     C13964   7.324   5.200   9.312  0.1755 -0.5657  0.1316
  864MOL0     C13965   7.441   5.121   9.279  0.4261  0.0832 -0.0279
  864MOL0     N13966   8.140   4.640   9.259  0.0302  0.6370  0.7238
  864MOL0     N13967   8.269   4.633   9.271  0.1990 -0.5015  0.2696
  864MOL0     C13968   9.430   4.409   9.405  0.5169 -0.0890 -0.5185
  864MOL0     C13969   9.552   4.373   9.451  0.3550  0.2426 -0.1112
  864MOL0     C13970   9.907   4.134   9.553 -0.6661  0.1203  0.1331
  864MOL0     C13971  10.002   4.100   9.450  0.6856 -0.5597  0.5463
  864MOL0     C13972  10.125   4.064   9.491 -0.8939  0.1829  0.1446
  864MOL0     C13973  10.162   4.046   9.625 -0.3277 -0.9982  0.5491
  864MOL0     O13974  10.290   4.000   9.630 -0.1097 -0.1518 -0.4410
  864MOL0     C13975  10.341   3.920   9.746  0.8644 -0.1715  0.3777
  864MOL0     C13976  10.495   3.902   9.749 -0.0654  0.1833  0.9883
  864MOL0     C13977  10.542   3.801   9.649 -0.1448  0.5724  0.4630
  864MOL0     C13978  10.676   3.835   9.585  0.2955 -1.0219  0.0840
  864MOL0     C13979  10.720   3.745   9.481  0.5278  0.1223 -0.0260
  864MOL0     C13980  10.745   3.659   9.396  0.3441  0.2405 -0.3105
  864MOL0     C13981  10.062   4.056   9.721 -0.0592 -0.3357 -0.3681
  864MOL0     C13982   9.934   4.113   9.687 -0.5763 -0.4528  0.1876
  864MOL0     H13983   9.679   4.221   9.193  0.1659  1.8997  0.1851
  864MOL0     H13984   9.471   4.307   9.087  1.4177 -2.7265  0.0183
  864MOL0     H13985   9.241   4.352   9.072  0.0830 -1.4220 -1.8072
  864MOL0     H13986   9.363   4.483   9.044 -0.9273  2.6090 -0.6398
  864MOL0     H13987   9.141   4.534   8.937 -2.7960  4.2261 -0.6746
  864MOL0     H13988   9.165   4.640   9.077  2.8101 -1.7367  3.1550
  864MOL0     H13989   9.031   4.452   9.213  5.0228  3.8865  0.7561
  864MOL0     H13990   8.956   4.417   9.049  2.1764 -3.0386  0.0659
  864MOL0     H13991   8.975   4.690   9.199  1.0971 -0.9589 -0.0912
  864MOL0     H13992   8.898   4.657   9.042  0.9270  4.3960  0.8502
  864MOL0     H13993   8.831   4.581   9.335 -1.4852 -2.0722 -0.1020
  864MOL0     H13994   8.740   4.499   9.200 -0.5885  1.3301 -2.9427
  864MOL0     H13995   8.707   4.740   9.116  2.6991 -1.1693 -0.0552
  864MOL0     H13996   8.728   4.782   9.292 -1.8315  0.1333  1.1901
  864MOL0     H13997   8.533   4.583   9.183  3.6818  0.0037 -1.7633
  864MOL0     H13998   8.567   4.622   9.350  2.2271  0.5641  0.2430
  864MOL0     H13999   8.488   4.834   9.131  1.3837  2.1812  0.1345
  864MOL0     H14000   8.482   4.856   9.316  0.5747 -0.6108 -0.6413
  864MOL0     H14001   8.233   4.915   9.098 -0.7912  0.1399 -0.0792
  864MOL0     H14002   7.895   4.744   9.179  2.4961 -1.7617  3.9127
  864MOL0     H14003   7.974   4.825   9.037  0.8672  0.9281  0.7487
  864MOL0     H14004   8.025   5.014   9.171  2.1327 -3.5287 -0.0424
  864MOL0     H14005   7.940   4.963   9.314 -2.4576 -0.0027 -0.1491
  864MOL0     H14006   7.796   5.114   9.151  0.2224 -0.9874  2.9289
  864MOL0     H14007   7.807   4.975   9.038  1.7127  1.4505 -1.1284
  864MOL0     H14008   7.675   4.991   9.315 -0.6665 -2.7560  0.5425
  864MOL0     H14009   7.678   4.846   9.232 -3.3797 -1.1375 -0.8047
  864MOL0     H14010   7.412   5.081   8.951 -0.2690 -2.6781  1.4242
  864MOL0     H14011   7.217   5.245   8.993  3.5524  2.9629 -0.9928
  864MOL0     H14012   6.819   5.256   9.041 -1.1523  1.0127 -0.2304
  864MOL0     H14013   6.597   5.349   9.050 -0.7873  2.4932 -2.0333
  864MOL0     H14014   6.403   5.453   9.184  2.5221 -0.0674 -0.0135
  864MOL0     H14015   6.403   5.489   9.011 -2.3065  1.1892 -0.5030
  864MOL0     H14016   6.292   5.704   9.047 -1.0359  0.8294  1.1361
  864MOL0     H14017   6.313   5.682   9.216  0.8019 -0.8066 -0.8465
  864MOL0     H14018   6.159   5.502   9.228  1.4272  2.4813  0.7000
  864MOL0     H14019   6.168   5.473   9.048  0.8301  2.0729 -1.0379
  864MOL0     H14020   6.075   5.738   9.171 -0.4515 -0.0319 -0.6708
  864MOL0     H14021   6.057   5.677   9.006 -1.7776  1.0677  0.5520
  864MOL0     H14022   5.843   5.658   9.121 -1.3499 -0.2780 -0.2558
  864MOL0     H14023   5.918   5.564   9.248 -2.0336 -1.1963 -0.4118
  864MOL0     H14024   5.954   5.381   9.103  1.5101  1.3493 -1.1710
  864MOL0     H14025   5.929   5.469   8.960  1.6502  1.8814  0.2512
  864MOL0     H14026   5.678   5.439   9.146  0.2102 -0.2365 -0.0456
  864MOL0     H14027   5.690   5.476   8.974  1.5273  0.7628 -0.1377
  864MOL0     H14028   5.751   5.261   8.918 -1.3420  4.2253 -1.5581
  864MOL0     H14029   5.597   5.249   9.006  0.3109  0.6724  0.6799
  864MOL0     H14030   6.748   5.701   9.233 -1.1756  0.4402 -0.9096
  864MOL0     H14031   6.989   5.603   9.213 -0.9573  3.4175  0.9128
  864MOL0     H14032   7.305   5.231   9.415 -1.0139  3.3064 -1.0887
  864MOL0     H14033   7.491   5.096   9.372  0.5307 -1.3191 -0.4409
  864MOL0     H14034   9.360   4.464   9.468  2.1046  3.3842 -1.5306
  864MOL0     H14035   9.573   4.391   9.556  2.2140 -2.0442 -0.0080
  864MOL0     H14036   9.976   4.112   9.345  0.2557  4.6931  1.0126
  864MOL0     H14037  10.199   4.033   9.417  0.6469 -2.0075  2.4350
  864MOL0     H14038  10.286   3.826   9.747  1.1827 -0.4257 -1.9558
  864MOL0     H14039  10.318   3.973   9.840  1.9586  4.3405 -1.6287
  864MOL0     H14040  10.535   3.999   9.717  1.7551 -1.8196 -3.6558
  864MOL0     H14041  10.526   3.872   9.850 -5.1697  1.3733  3.2786
  864MOL0     H14042  10.476   3.774   9.566  1.8631 -2.2983 -0.3588
  864MOL0     H14043  10.557   3.712   9.711 -0.3010 -0.4265 -0.8776
  864MOL0     H14044  10.680   3.937   9.544 -0.3018 -0.9176  0.2734
  864MOL0     H14045  10.755   3.835   9.661  0.2279  0.8856  0.2156
  864MOL0     H14046  10.766   3.582   9.325  1.8871  1.3418 -1.1022
  864MOL0     H14047  10.075   4.027   9.825  2.0546 -4.9560 -1.6204
  864MOL0     H14048   9.861   4.137   9.764 -0.3667  0.8981 -0.0133
  865MOL0     O14049   1.092   2.171   0.205 -0.4138  0.6796  0.5906
  865MOL0     C14050   1.177   2.253   0.174 -0.2723  0.2100 -0.3558
  865MOL0     O14051   1.165   2.382   0.149 -0.5984 -0.4300 -0.3542
  865MOL0     C14052   1.041   2.438   0.168 -0.7820 -0.2106 -0.1114
  865MOL0     C14053   0.955   2.461   0.059 -0.6939  0.5057  0.5633
  865MOL0     C14054   0.825   2.509   0.092  0.5405  0.1077 -0.2771
  865MOL0     C14055   0.778   2.529   0.223  0.3965  0.0545 -0.9086
  865MOL0     O14056   0.643   2.564   0.239 -0.1583  0.0396  0.2273
  865MOL0     C14057   0.583   2.514   0.363 -0.7316  0.0404  0.3370
  865MOL0     C14058   0.435   2.548   0.354  0.0962  1.3904  0.1462
  865MOL0     C14059   0.386   2.559   0.483  1.0316 -0.2568 -0.2470
  865MOL0     C14060   0.235   2.589   0.478 -0.1913 -0.3006 -0.7254
  865MOL0     C14061   0.184   2.605   0.621 -0.7741 -0.3451 -0.8419
  865MOL0     C14062   0.203   2.489   0.715  0.2465  0.0714 -0.0478
  865MOL0     C14063   0.091   2.481   0.833  0.3891 -0.6367  0.4276
  865MOL0     C14064   0.125   2.383   0.942  0.0645  1.1509  0.2121
  865MOL0     N14065   0.034   2.400   1.062  0.6328  0.3837  0.0709
  865MOL0     C14066  -0.100   2.413   1.059 -0.2394  0.1622 -0.4653
  865MOL0     C14067  -0.141   2.414   1.185  0.2092 -0.6766  0.1910
  865MOL0     C14068  -0.283   2.442   1.234 -0.3174  0.3475  0.0327
  865MOL0     C14069  -0.358   2.315   1.232 -0.0837 -0.0777 -0.5436
  865MOL0     C14070  -0.496   2.331   1.302 -0.6169  0.1705 -0.0210
  865MOL0     C14071  -0.609   2.354   1.202 -0.7077  0.0398 -0.1878
  865MOL0     O14072  -0.583   2.480   1.135 -0.3347 -0.4490  0.1243
  865MOL0     C14073  -0.688   2.496   1.044 -0.6788 -0.6557  0.1196
  865MOL0     C14074  -0.688   2.441   0.918 -0.7266 -0.5656 -0.6000
  865MOL0     C14075  -0.802   2.411   0.846  0.1699  0.4535 -0.1009
  865MOL0     C14076  -0.918   2.469   0.893  1.1245  1.1125 -0.0309
  865MOL0     C14077  -1.053   2.452   0.825  0.3354  0.3650  0.7296
  865MOL0     O14078  -1.163   2.465   0.886  0.0412  0.4197  0.3487
  865MOL0     C14079  -1.286   2.464   0.821 -0.8583 -0.1159  0.4674
  865MOL0     C14080  -1.299   2.511   0.692  0.4132 -0.4253 -0.4310
  865MOL0     C14081  -1.417   2.514   0.625  0.3730  0.2367  0.4794
  865MOL0     C14082  -1.533   2.460   0.685  0.5075  0.3621 -0.2196
  865MOL0     O14083  -1.652   2.455   0.626 -0.1187  0.1155 -0.0731
  865MOL0     C14084  -1.691   2.535   0.517 -1.2509 -0.4671 -0.5910
  865MOL0     C14085  -1.837   2.514   0.471 -1.4006  0.6377 -0.2925
  865MOL0     C14086  -1.946   2.531   0.565 -0.5212  0.7786 -0.2862
  865MOL0     C14087  -2.074   2.466   0.495 -0.0828 -0.1496  0.8002
  865MOL0     C14088  -2.102   2.333   0.565 -0.1738 -0.0650 -0.4705
  865MOL0     C14089  -2.209   2.248   0.490  0.4749  0.1593  0.0478
  865MOL0     C14090  -2.230   2.118   0.562 -0.3110 -0.1030 -0.0257
  865MOL0     C14091  -2.340   2.028   0.515 -0.0269 -0.4086  0.2162
  865MOL0    Cl14092  -2.333   1.879   0.611 -0.5794  0.2430  0.0468
  865MOL0     C14093  -1.521   2.423   0.817 -0.4771 -0.4786  0.0152
  865MOL0     C14094  -1.402   2.415   0.879  0.0574 -0.6354  0.8664
  865MOL0     O14095  -1.040   2.407   0.711 -0.8869  0.2006 -0.4813
  865MOL0     C14096  -0.922   2.541   1.015 -0.7878  0.9917  0.2190
  865MOL0     C14097  -0.806   2.559   1.092  0.7408  0.1312  0.5008
  865MOL0     N14098  -0.029   2.394   1.265  0.3659 -0.1399  0.4671
  865MOL0     N14099   0.075   2.386   1.187 -0.6024  0.1591 -0.2336
  865MOL0     C14100   0.868   2.493   0.324 -0.5346  0.4876 -0.4282
  865MOL0     C14101   1.002   2.465   0.305 -0.2173 -0.1461 -0.0304
  865MOL0     C14102   1.314   2.203   0.144  0.4050  0.1385 -0.1054
  865MOL0     C14103   1.352   2.080   0.206  0.0281 -0.0581 -0.8144
  865MOL0     C14104   1.491   2.054   0.187  0.6158 -1.5813  0.8650
  865MOL0     C14105   1.584   2.124   0.114 -0.0755  0.0524  0.7232
  865MOL0     O14106   1.719   2.090   0.122  0.1405  0.5698  0.4671
  865MOL0     C14107   1.825   2.172   0.064  0.7090  0.2172 -0.3837
  865MOL0     C14108   1.962   2.095   0.056  0.5811 -0.2909 -0.5414
  865MOL0     C14109   2.019   2.070   0.197 -0.3926  1.2058  0.1195
  865MOL0     C14110   2.059   2.187   0.278  0.5582 -0.7487 -0.4269
  865MOL0     C14111   2.153   2.278   0.209 -0.8473  0.0815  0.0435
  865MOL0     C14112   2.213   2.358   0.146  0.0342 -0.7044 -0.3657
  865MOL0     C14113   1.543   2.244   0.058  0.0604  0.4738 -0.1005
  865MOL0     C14114   1.406   2.283   0.082 -0.1815 -0.6209 -1.1216
  865MOL0     H14115   1.001   2.454  -0.039 -2.1025  1.5837 -0.2097
  865MOL0     H14116   0.749   2.518   0.015 -0.6398 -0.7617  0.7398
  865MOL0     H14117   0.635   2.556   0.449 -2.3861  1.6154  0.6439
  865MOL0     H14118   0.590   2.405   0.376  0.3635 -0.1856 -1.7684
  865MOL0     H14119   0.389   2.471   0.291  0.4250 -1.8046  3.4686
  865MOL0     H14120   0.433   2.642   0.298 -2.0099  0.8883 -0.6922
  865MOL0     H14121   0.438   2.646   0.525 -1.4883  1.9721 -1.3909
  865MOL0     H14122   0.404   2.471   0.546  0.1133 -1.8268 -2.0768
  865MOL0     H14123   0.219   2.681   0.420 -4.8596  0.0238  0.6906
  865MOL0     H14124   0.179   2.509   0.430 -0.5858 -0.2912 -0.2928
  865MOL0     H14125   0.075   2.618   0.621 -0.4595  4.2090  1.5035
  865MOL0     H14126   0.227   2.697   0.661  0.9895 -1.2214 -0.5952
  865MOL0     H14127   0.301   2.501   0.761  0.9343 -2.3534 -0.7132
  865MOL0     H14128   0.206   2.396   0.658  2.0614 -1.1033  1.8282
  865MOL0     H14129   0.091   2.576   0.886  0.2138 -0.4290  0.0513
  865MOL0     H14130  -0.009   2.455   0.799 -0.2068  0.0824  1.5864
  865MOL0     H14131   0.227   2.371   0.978 -0.0631  0.3885  0.3370
  865MOL0     H14132   0.103   2.283   0.904  0.0737  1.7069 -1.3020
  865MOL0     H14133  -0.163   2.419   0.970 -0.7021 -3.6130 -0.5566
  865MOL0     H14134  -0.331   2.514   1.167 -0.8162 -0.7254 -0.7956
  865MOL0     H14135  -0.291   2.484   1.335  2.1322  1.1471 -0.0332
  865MOL0     H14136  -0.303   2.235   1.282 -2.5391 -1.4290  0.1732
  865MOL0     H14137  -0.383   2.286   1.130 -2.8310  0.0481  0.0089
  865MOL0     H14138  -0.528   2.236   1.345 -1.9653  0.0354 -1.2312
  865MOL0     H14139  -0.481   2.408   1.377  0.2380  0.7417 -0.7588
  865MOL0     H14140  -0.704   2.359   1.257  1.7494  0.0066  4.6314
  865MOL0     H14141  -0.617   2.276   1.126 -1.4505 -0.4753  0.4107
  865MOL0     H14142  -0.599   2.395   0.876 -1.3538  0.3924 -3.1976
  865MOL0     H14143  -0.803   2.346   0.760 -1.2569 -1.5739  1.3565
  865MOL0     H14144  -1.218   2.557   0.636 -2.0748  0.9072 -3.2511
  865MOL0     H14145  -1.417   2.548   0.522  3.0622 -1.7133 -0.2660
  865MOL0     H14146  -1.623   2.519   0.433 -2.1473  4.3772 -2.6314
  865MOL0     H14147  -1.685   2.637   0.557  1.3065 -1.9183  3.2186
  865MOL0     H14148  -1.836   2.408   0.447  1.4391  0.5552 -0.1034
  865MOL0     H14149  -1.849   2.563   0.373  2.6859 -2.8314 -2.8911
  865MOL0     H14150  -1.956   2.638   0.587  0.3299  0.7801  0.1527
  865MOL0     H14151  -1.931   2.481   0.661 -1.7692 -0.1095 -0.5316
  865MOL0     H14152  -2.161   2.531   0.515  0.7056  1.5574 -0.9503
  865MOL0     H14153  -2.070   2.457   0.386 -1.1229  1.0698  0.6286
  865MOL0     H14154  -2.133   2.342   0.669 -0.2241 -1.9438 -0.2920
  865MOL0     H14155  -2.014   2.268   0.559 -1.3893 -2.2338  2.5729
  865MOL0     H14156  -2.182   2.222   0.387 -2.2485 -0.1581 -0.6573
  865MOL0     H14157  -2.305   2.301   0.486  0.9048  1.0263  0.8702
  865MOL0     H14158  -2.142   2.053   0.560 -1.4592 -1.7006 -0.5300
  865MOL0     H14159  -2.255   2.149   0.664  0.8833  0.5838  0.0756
  865MOL0     H14160  -2.315   2.000   0.412  3.0383 -0.1509  0.8011
  865MOL0     H14161  -2.437   2.076   0.530 -0.3364 -0.3757 -1.6608
  865MOL0     H14162  -1.607   2.384   0.871 -0.3942 -0.6222  0.0428
  865MOL0     H14163  -1.402   2.370   0.978  1.5047 -1.9129  0.3332
  865MOL0     H14164  -1.012   2.591   1.048  1.0483  3.7507  1.3700
  865MOL0     H14165  -0.806   2.609   1.188  2.5014 -0.7564  1.0050
  865MOL0     H14166   0.840   2.492   0.428 -0.2005 -0.6116 -0.3388
  865MOL0     H14167   1.063   2.421   0.384 -0.4643 -1.1305 -0.3741
  865MOL0     H14168   1.288   2.006   0.253  2.0771 -1.3917  0.0159
  865MOL0     H14169   1.541   1.969   0.233  0.4871 -2.5416 -0.7084
  865MOL0     H14170   1.827   2.266   0.119  1.8290 -0.2841  0.4582
  865MOL0     H14171   1.797   2.191  -0.040 -0.4609  0.2550 -0.0763
  865MOL0     H14172   1.951   1.997   0.008 -1.4459 -1.5241  2.1776
  865MOL0     H14173   2.031   2.146  -0.012  2.6594 -0.8362  1.0680
  865MOL0     H14174   2.109   2.010   0.178 -2.1391 -1.1434 -1.3392
  865MOL0     H14175   1.960   1.999   0.256  2.5177 -1.7444 -0.2226
  865MOL0     H14176   1.973   2.245   0.313  2.7259  2.5118 -0.0774
  865MOL0     H14177   2.125   2.149   0.356 -0.3648 -0.3361  0.5837
  865MOL0     H14178   2.268   2.428   0.086 -0.3633 -1.4334 -1.6183
  865MOL0     H14179   1.616   2.298  -0.002  0.1196  1.4527  0.8272
  865MOL0     H14180   1.378   2.384   0.055 -2.5785 -0.7106  0.7422
  866MOL0     O14181   9.100   3.129   0.699  0.3196  0.7343  0.4390
  866MOL0     C14182   9.116   3.184   0.805  0.0039  0.5858 -1.2441
  866MOL0     O14183   9.029   3.193   0.905  0.0927 -0.0277  0.0754
  866MOL0     C14184   8.905   3.128   0.892  0.5243 -0.2127  0.8921
  866MOL0     C14185   8.866   3.017   0.807 -0.4554  0.3428 -0.3233
  866MOL0     C14186   8.735   2.969   0.815  0.0267 -0.1889 -0.4562
  866MOL0     C14187   8.639   3.034   0.888 -0.5972  0.3705  0.3057
  866MOL0     O14188   8.517   2.972   0.873  0.1682  0.5670  0.0495
  866MOL0     C14189   8.395   3.026   0.935 -0.0543  0.3715  0.0449
  866MOL0     C14190   8.269   2.998   0.855 -0.4283  0.4800 -0.0585
  866MOL0     C14191   8.146   2.992   0.956 -0.1719 -0.3498  0.4022
  866MOL0     C14192   8.011   2.983   0.878 -0.8636 -0.1842  0.9651
  866MOL0     C14193   7.915   2.908   0.971  0.0284 -0.4941 -0.3394
  866MOL0     C14194   7.787   2.866   0.906 -0.1597  0.7181 -0.4651
  866MOL0     C14195   7.700   2.794   1.019  0.1491  0.3038  0.2957
  866MOL0     C14196   7.623   2.891   1.111 -0.1753 -0.1793 -0.7969
  866MOL0     N14197   7.523   2.831   1.205  0.2679 -0.0093  1.0507
  866MOL0     C14198   7.435   2.730   1.164  0.1595 -0.3264  0.7718
  866MOL0     C14199   7.393   2.669   1.276  0.1242  1.3303  0.5212
  866MOL0     C14200   7.316   2.539   1.287 -1.1139  0.5843  0.2724
  866MOL0     C14201   7.289   2.474   1.146 -0.1096  0.4616 -0.6312
  866MOL0     C14202   7.227   2.335   1.168  0.1927 -0.9302  0.0365
  866MOL0     C14203   7.090   2.321   1.218  0.1198 -0.5097  0.9343
  866MOL0     O14204   6.990   2.384   1.135 -0.1475  0.1755 -0.6161
  866MOL0     C14205   6.862   2.366   1.169  0.5609 -0.6728 -1.0774
  866MOL0     C14206   6.808   2.272   1.254 -0.2947 -0.1328 -0.9948
  866MOL0     C14207   6.663   2.268   1.272 -0.4772  0.5456 -0.3292
  866MOL0     C14208   6.581   2.340   1.190  0.2218  0.2456 -0.2842
  866MOL0     C14209   6.433   2.318   1.223  0.0607  0.2271  0.2883
  866MOL0     O14210   6.341   2.383   1.137 -1.2269 -0.7281  0.5454
  866MOL0     C14211   6.206   2.353   1.157  0.2996 -0.5015  0.5240
  866MOL0     C14212   6.123   2.338   1.043 -0.3654 -0.0682 -0.4441
  866MOL0     C14213   5.979   2.333   1.064 -0.0585  0.2681  0.1135
  866MOL0     C14214   5.921   2.324   1.192 -0.4440  0.8112  0.2951
  866MOL0     O14215   5.787   2.337   1.217  0.4822 -0.2142  0.0405
  866MOL0     C14216   5.739   2.459   1.164 -0.1528 -0.2205 -0.4198
  866MOL0     C14217   5.635   2.449   1.047  0.7165  0.2664 -0.5704
  866MOL0     C14218   5.497   2.397   1.094  0.1694 -0.5431 -0.1153
  866MOL0     C14219   5.401   2.413   0.972 -1.0255 -0.0333 -0.2423
  866MOL0     C14220   5.275   2.342   0.985 -0.1111  0.0113  0.2706
  866MOL0     C14221   5.186   2.349   0.858  0.2717  0.5660  0.2149
  866MOL0     C14222   5.075   2.245   0.866  0.7980 -0.0119  0.7975
  866MOL0     C14223   4.955   2.293   0.779  0.0555  0.1837 -0.1392
  866MOL0    Cl14224   4.807   2.185   0.813 -0.2234 -0.1068 -0.3988
  866MOL0     C14225   6.013   2.332   1.295 -0.4710  0.1254 -0.0019
  866MOL0     C14226   6.152   2.351   1.286 -0.7569 -0.4952  0.5464
  866MOL0     O14227   6.395   2.230   1.298 -0.8103  0.0097 -0.0006
  866MOL0     C14228   6.635   2.440   1.108 -0.4191  0.4353 -0.1111
  866MOL0     C14229   6.777   2.456   1.105 -0.5515  0.6170  0.4311
  866MOL0     N14230   7.459   2.727   1.381 -0.4153  0.4232  0.0801
  866MOL0     N14231   7.530   2.828   1.338 -0.0056 -0.0040  0.0180
  866MOL0     C14232   8.674   3.146   0.959  0.8220  0.2366 -0.1474
  866MOL0     C14233   8.799   3.192   0.964 -0.2576 -0.4469  1.0103
  866MOL0     C14234   9.252   3.246   0.817 -0.0722  0.4328  0.5582
  866MOL0     C14235   9.330   3.270   0.705  0.5891  0.3797 -0.7248
  866MOL0     C14236   9.454   3.341   0.716  0.0962  0.8107 -0.1436
  866MOL0     C14237   9.504   3.371   0.851 -0.0996  1.1904 -0.5475
  866MOL0     O14238   9.617   3.438   0.878  0.4411 -0.6456  0.6500
  866MOL0     C14239   9.732   3.424   0.799  0.4356  0.0087 -0.6847
  866MOL0     C14240   9.855   3.439   0.894  0.3851 -0.1202  0.1944
  866MOL0     C14241   9.870   3.572   0.962  0.3593  0.6762 -0.0397
  866MOL0     C14242   9.893   3.687   0.864 -0.4804 -0.2521 -0.1445
  866MOL0     C14243   9.958   3.802   0.915  0.2625  0.1262  0.1631
  866MOL0     C14244  10.016   3.898   0.956 -0.4708 -1.0288 -0.9084
  866MOL0     C14245   9.422   3.357   0.963  0.1970  0.5418  0.9506
  866MOL0     C14246   9.295   3.293   0.939 -0.6110 -0.7329 -0.2492
  866MOL0     H14247   8.923   2.950   0.745 -2.2440 -0.1877 -1.4810
  866MOL0     H14248   8.708   2.877   0.763  2.2289 -0.5732 -1.0519
  866MOL0     H14249   8.420   3.133   0.937  1.7574 -0.0328  0.1608
  866MOL0     H14250   8.386   2.995   1.040  0.8755  1.0589  0.3431
  866MOL0     H14251   8.289   2.902   0.806  2.0256  1.3399 -0.9187
  866MOL0     H14252   8.260   3.073   0.777 -0.0401  0.2743 -0.3087
  866MOL0     H14253   8.152   3.077   1.025  1.7049 -0.1446  0.0374
  866MOL0     H14254   8.164   2.902   1.015 -0.4473 -0.3679  0.4611
  866MOL0     H14255   7.969   3.082   0.857  0.9711  0.3900 -0.2789
  866MOL0     H14256   8.030   2.947   0.776 -0.6131  2.9865 -0.2126
  866MOL0     H14257   7.898   2.972   1.058  2.4253 -1.4813  0.9308
  866MOL0     H14258   7.957   2.813   1.006 -0.7402 -0.7294 -0.0389
  866MOL0     H14259   7.822   2.800   0.825 -0.0785 -0.2779  0.3626
  866MOL0     H14260   7.746   2.953   0.853 -0.9797 -1.1548 -3.1533
  866MOL0     H14261   7.635   2.728   0.961 -0.4520  1.4806 -0.4107
  866MOL0     H14262   7.769   2.728   1.073  0.5233 -0.2080 -0.7855
  866MOL0     H14263   7.580   2.966   1.044  2.5773  0.3835 -2.0610
  866MOL0     H14264   7.692   2.944   1.177 -0.8363 -1.9764  1.4690
  866MOL0     H14265   7.415   2.683   1.068 -1.0133 -2.5791  2.0348
  866MOL0     H14266   7.225   2.570   1.339  0.9613  2.2074  3.2055
  866MOL0     H14267   7.391   2.476   1.336  1.2279  2.8747 -0.1403
  866MOL0     H14268   7.384   2.461   1.092  1.5398  1.4075  1.8866
  866MOL0     H14269   7.216   2.531   1.087  2.4447  6.1534  1.0410
  866MOL0     H14270   7.239   2.285   1.071  1.2829  0.5408 -0.6236
  866MOL0     H14271   7.300   2.292   1.237  2.7479  1.2561 -1.1175
  866MOL0     H14272   7.081   2.362   1.320  0.4884  0.8802  0.4292
  866MOL0     H14273   7.068   2.214   1.213 -2.4360 -0.0247 -0.0421
  866MOL0     H14274   6.880   2.217   1.313 -1.0462 -0.0650  0.0096
  866MOL0     H14275   6.627   2.195   1.345 -4.0840  0.9892 -1.4439
  866MOL0     H14276   6.169   2.351   0.946  0.0366  3.1271  0.0662
  866MOL0     H14277   5.916   2.344   0.976 -1.9492 -4.2872  0.6364
  866MOL0     H14278   5.818   2.533   1.145 -1.4935  1.0572 -1.2581
  866MOL0     H14279   5.692   2.516   1.244  2.0476  1.8816 -0.5126
  866MOL0     H14280   5.680   2.376   0.979  0.4149  1.9412 -2.6915
  866MOL0     H14281   5.635   2.545   0.993  1.5552 -1.1191 -3.2107
  866MOL0     H14282   5.462   2.452   1.182  0.8795 -1.3814  0.7136
  866MOL0     H14283   5.497   2.294   1.131 -1.5581  0.0529  1.7726
  866MOL0     H14284   5.366   2.513   0.944  0.2146 -0.0940 -2.1418
  866MOL0     H14285   5.457   2.375   0.886  1.0340 -1.3086  1.5538
  866MOL0     H14286   5.226   2.389   1.071  0.0007 -0.9121  0.8623
  866MOL0     H14287   5.290   2.236   1.008  0.9133  0.1043  0.0898
  866MOL0     H14288   5.250   2.313   0.776  0.2582 -1.2134  0.9437
  866MOL0     H14289   5.150   2.451   0.848  1.5441  0.8338 -3.0594
  866MOL0     H14290   5.105   2.153   0.816 -0.5080 -0.8852  1.5749
  866MOL0     H14291   5.042   2.222   0.968 -0.1020  0.5503  0.6489
  866MOL0     H14292   4.987   2.290   0.674  3.5225 -1.0292  0.8341
  866MOL0     H14293   4.926   2.397   0.798 -1.3777 -0.3304  0.6316
  866MOL0     H14294   5.973   2.319   1.395 -3.1777  1.1631 -0.8485
  866MOL0     H14295   6.208   2.381   1.373  1.0796 -0.6737 -0.5335
  866MOL0     H14296   6.569   2.513   1.063 -1.5260  2.0593  3.7016
  866MOL0     H14297   6.825   2.523   1.035  2.5071 -1.3557  0.4078
  866MOL0     H14298   8.598   3.209   1.005 -1.0302 -0.7698 -1.6649
  866MOL0     H14299   8.811   3.282   1.024 -1.9764 -0.1104  0.8975
  866MOL0     H14300   9.296   3.251   0.604 -1.1974  2.2514 -0.5347
  866MOL0     H14301   9.512   3.374   0.631  2.2301  0.4755  1.0977
  866MOL0     H14302   9.719   3.505   0.726 -0.4086  0.7920  0.3008
  866MOL0     H14303   9.729   3.319   0.768 -2.8623 -0.5435  0.9910
  866MOL0     H14304   9.845   3.359   0.968 -0.1937 -1.2387 -1.0377
  866MOL0     H14305   9.947   3.412   0.841  0.3955 -1.4636  0.8491
  866MOL0     H14306   9.940   3.571   1.046 -1.1448  2.9358  1.3323
  866MOL0     H14307   9.777   3.589   1.016 -1.2238 -3.2460 -1.1568
  866MOL0     H14308   9.961   3.645   0.790  1.2565 -0.4817  1.5191
  866MOL0     H14309   9.799   3.711   0.813  0.7192  3.7168 -0.8181
  866MOL0     H14310  10.066   3.976   1.010 -1.5174 -2.1702  1.9579
  866MOL0     H14311   9.432   3.371   1.071 -2.7610 -4.4987  2.2143
  866MOL0     H14312   9.224   3.282   1.020 -0.3281  2.0914  0.4625
  867MOL0     O14313   3.064   7.098   1.081  0.8610  0.2164 -0.1655
  867MOL0     C14314   3.133   7.191   1.126 -0.3568  0.0510 -0.3190
  867MOL0     O14315   3.096   7.324   1.145 -0.1209  0.3164 -0.5120
  867MOL0     C14316   2.979   7.351   1.087 -0.0997 -0.2402 -0.1359
  867MOL0     C14317   2.985   7.427   0.964  0.1866  0.5428 -1.0546
  867MOL0     C14318   2.868   7.463   0.901  0.5297  0.3319  1.4489
  867MOL0     C14319   2.745   7.438   0.943 -0.7033 -0.4889 -0.3942
  867MOL0     O14320   2.632   7.492   0.875  0.0944  0.5271  0.4528
  867MOL0     C14321   2.500   7.449   0.929  0.2118  0.4846  0.1474
  867MOL0     C14322   2.387   7.518   0.855  0.7405 -0.0747 -0.8387
  867MOL0     C14323   2.384   7.670   0.869 -0.0094  0.1099 -0.4842
  867MOL0     C14324   2.296   7.739   0.773  0.2094  1.0843  0.4279
  867MOL0     C14325   2.145   7.698   0.773 -0.7474 -1.7083  0.2146
  867MOL0     C14326   2.084   7.720   0.907 -0.2010  0.0321 -0.3887
  867MOL0     C14327   2.089   7.862   0.960 -0.4575 -0.0550 -0.0329
  867MOL0     C14328   2.045   7.868   1.109 -0.1105  0.1915  0.4810
  867MOL0     N14329   1.903   7.829   1.119 -0.1370 -0.8282 -0.5900
  867MOL0     C14330   1.861   7.697   1.141 -0.6082  0.5542  0.6753
  867MOL0     C14331   1.720   7.707   1.160 -0.3870  0.1969 -0.0818
  867MOL0     C14332   1.644   7.582   1.197  0.1962  0.4711  0.3358
  867MOL0     C14333   1.516   7.597   1.272 -0.2628 -0.4345  0.9028
  867MOL0     C14334   1.454   7.473   1.339  0.4735  0.1428 -0.5962
  867MOL0     C14335   1.435   7.349   1.251  0.4101  0.0359  0.2973
  867MOL0     O14336   1.333   7.260   1.307 -0.1042 -0.3791 -0.2850
  867MOL0     C14337   1.201   7.291   1.276  0.1217 -0.5061  0.1433
  867MOL0     C14338   1.141   7.401   1.209 -0.5987 -0.5868  0.0309
  867MOL0     C14339   0.997   7.417   1.209  0.1334  0.1464  0.5603
  867MOL0     C14340   0.914   7.328   1.270  0.1601 -0.2127  0.0320
  867MOL0     C14341   0.765   7.342   1.269 -0.3208 -0.9204 -0.0415
  867MOL0     O14342   0.721   7.428   1.170 -0.0817  0.0030 -0.4589
  867MOL0     C14343   0.586   7.467   1.190 -0.3864 -0.6002 -0.6701
  867MOL0     C14344   0.544   7.504   1.322  0.5852 -0.9196  0.5887
  867MOL0     C14345   0.411   7.544   1.347 -0.3588  0.0626  0.2231
  867MOL0     C14346   0.307   7.550   1.244 -0.1129  0.7681 -0.1032
  867MOL0     O14347   0.176   7.586   1.245  0.2403  0.8118 -0.3043
  867MOL0     C14348   0.137   7.682   1.347 -0.3231 -0.6186  0.5536
  867MOL0     C14349   0.066   7.605   1.463  0.2120 -0.2792 -0.9689
  867MOL0     C14350  -0.084   7.574   1.436  0.3643 -0.0612 -0.8767
  867MOL0     C14351  -0.170   7.705   1.431 -0.4346 -0.3799 -0.6471
  867MOL0     C14352  -0.317   7.675   1.422 -0.1325 -0.3127 -0.3260
  867MOL0     C14353  -0.378   7.632   1.281 -0.2011 -0.1852  0.5040
  867MOL0     C14354  -0.529   7.599   1.292 -0.1469  0.2699  0.2768
  867MOL0     C14355  -0.569   7.518   1.161 -0.2668  0.1025 -0.2207
  867MOL0    Cl14356  -0.740   7.470   1.133 -0.0381 -0.0520 -0.3013
  867MOL0     C14357   0.351   7.504   1.120 -0.0023 -0.7769 -0.9857
  867MOL0     C14358   0.486   7.471   1.091 -0.5764 -1.2775  0.6344
  867MOL0     O14359   0.698   7.268   1.331  0.6670 -0.3173 -0.0738
  867MOL0     C14360   0.967   7.219   1.338 -0.2638  0.1794 -0.5818
  867MOL0     C14361   1.105   7.201   1.339  0.2355 -1.1117 -0.5359
  867MOL0     N14362   1.694   7.850   1.175 -0.4342 -0.4480  0.8927
  867MOL0     N14363   1.795   7.919   1.140 -0.2773 -0.4495  0.7611
  867MOL0     C14364   2.732   7.354   1.058 -0.8427  0.1467 -0.7428
  867MOL0     C14365   2.848   7.314   1.128 -0.8562 -0.3627 -1.3847
  867MOL0     C14366   3.260   7.160   1.187 -0.5710 -0.7029 -0.4942
  867MOL0     C14367   3.359   7.271   1.195 -0.8785  0.6325 -0.2341
  867MOL0     C14368   3.489   7.257   1.244  0.1499 -0.0928  0.5690
  867MOL0     C14369   3.530   7.130   1.291 -0.4099  0.3070 -0.5535
  867MOL0     O14370   3.664   7.115   1.319  0.3397  0.1230  1.0311
  867MOL0     C14371   3.700   7.005   1.390 -1.0718 -0.2560 -0.0125
  867MOL0     C14372   3.851   6.991   1.410  0.6687 -0.0083  0.9106
  867MOL0     C14373   3.906   7.074   1.538  0.2240  0.2660  0.5929
  867MOL0     C14374   3.907   7.229   1.521  0.4350  0.0055  0.3239
  867MOL0     C14375   3.950   7.287   1.648 -0.4954  0.4466  0.0163
  867MOL0     C14376   3.985   7.344   1.744 -0.1832 -0.7756 -0.2999
  867MOL0     C14377   3.430   7.027   1.293 -1.1831  0.1919 -0.7646
  867MOL0     C14378   3.297   7.043   1.241  0.0673  0.4025  0.2045
  867MOL0     H14379   3.084   7.458   0.931  0.2885 -0.0994 -1.3633
  867MOL0     H14380   2.848   7.518   0.810 -0.1820 -1.8298  0.2121
  867MOL0     H14381   2.492   7.477   1.034 -1.2733 -0.8660  0.4262
  867MOL0     H14382   2.487   7.341   0.917  1.1011 -0.0078  2.9407
  867MOL0     H14383   2.300   7.466   0.897  2.0979 -2.7587 -1.1120
  867MOL0     H14384   2.385   7.490   0.749 -0.1512  0.2938 -0.9337
  867MOL0     H14385   2.483   7.713   0.853 -1.5565  4.0632 -0.4572
  867MOL0     H14386   2.359   7.697   0.972  4.1939  4.4123 -0.2489
  867MOL0     H14387   2.309   7.848   0.776  1.2866  1.0933 -1.8925
  867MOL0     H14388   2.331   7.717   0.672 -0.8962 -1.8621  0.6008
  867MOL0     H14389   2.128   7.599   0.730 -2.6972 -0.4986 -2.0689
  867MOL0     H14390   2.098   7.760   0.696  3.2829 -2.2078 -2.9620
  867MOL0     H14391   2.134   7.653   0.977  0.8138 -1.0753 -2.1048
  867MOL0     H14392   1.978   7.693   0.902 -0.2257  0.2542 -4.0341
  867MOL0     H14393   2.179   7.921   0.940 -1.2635  0.5453 -2.1160
  867MOL0     H14394   2.008   7.904   0.901  1.0413  0.9358 -1.4792
  867MOL0     H14395   2.062   7.969   1.146 -0.7068  0.3509  0.3325
  867MOL0     H14396   2.098   7.792   1.168 -2.4705 -2.7754 -0.9340
  867MOL0     H14397   1.915   7.605   1.125 -0.8755 -0.0179  2.7753
  867MOL0     H14398   1.709   7.508   1.245 -0.3580 -1.0155 -1.1063
  867MOL0     H14399   1.608   7.545   1.101 -0.7273  1.4602  0.2798
  867MOL0     H14400   1.444   7.641   1.203 -0.2658  0.8202  1.6698
  867MOL0     H14401   1.535   7.657   1.361 -0.8090 -0.1600  0.8363
  867MOL0     H14402   1.510   7.438   1.426 -0.4840  1.4128  0.5735
  867MOL0     H14403   1.358   7.501   1.385  0.0448 -2.3006  0.1855
  867MOL0     H14404   1.524   7.293   1.224  0.3520  0.5517 -1.0506
  867MOL0     H14405   1.398   7.375   1.151  0.2454  0.5302  0.4793
  867MOL0     H14406   1.198   7.482   1.163 -1.4076  0.5336  0.9435
  867MOL0     H14407   0.956   7.505   1.160 -0.8600  0.0169  1.1230
  867MOL0     H14408   0.612   7.501   1.406 -0.9498  0.4373  1.9278
  867MOL0     H14409   0.401   7.550   1.455  0.3298 -0.5035  0.3212
  867MOL0     H14410   0.076   7.756   1.296 -0.9981 -3.3071 -2.9523
  867MOL0     H14411   0.223   7.728   1.395 -0.1140 -1.6875  1.2607
  867MOL0     H14412   0.070   7.672   1.550  1.1432  0.8823 -1.8748
  867MOL0     H14413   0.126   7.516   1.484  1.2056  1.0015  2.4727
  867MOL0     H14414  -0.107   7.519   1.528  2.8119  2.8542  1.7320
  867MOL0     H14415  -0.096   7.518   1.343 -0.1635  0.2623 -1.0035
  867MOL0     H14416  -0.151   7.772   1.515 -2.5609 -0.0194 -0.4005
  867MOL0     H14417  -0.143   7.755   1.338  0.5547 -2.3864 -1.5060
  867MOL0     H14418  -0.369   7.771   1.431 -1.4482 -1.0971  0.6572
  867MOL0     H14419  -0.352   7.602   1.496  0.0431 -2.2402 -2.0423
  867MOL0     H14420  -0.332   7.539   1.246  0.3603  0.0860  0.5136
  867MOL0     H14421  -0.350   7.697   1.198 -0.5854 -0.8559 -0.1605
  867MOL0     H14422  -0.547   7.524   1.370  3.1002 -3.0456 -1.7823
  867MOL0     H14423  -0.594   7.686   1.302  1.0615  1.2717 -0.3094
  867MOL0     H14424  -0.502   7.434   1.139  1.7381  1.9281 -1.4741
  867MOL0     H14425  -0.550   7.593   1.083  0.6306 -1.6728 -1.8099
  867MOL0     H14426   0.283   7.486   1.038 -2.5197 -1.0778  1.0414
  867MOL0     H14427   0.520   7.434   0.994 -0.4641 -0.1340  0.2178
  867MOL0     H14428   0.900   7.145   1.380  1.7414 -0.3514  1.9254
  867MOL0     H14429   1.136   7.110   1.390 -1.5479 -0.9772  0.8667
  867MOL0     H14430   2.636   7.312   1.089  0.7476 -0.3370  4.3481
  867MOL0     H14431   2.851   7.252   1.217  2.1735 -0.2764 -1.3115
  867MOL0     H14432   3.343   7.375   1.170 -0.9842  1.0103  1.3541
  867MOL0     H14433   3.565   7.334   1.236  1.7978 -1.6169  0.9054
  867MOL0     H14434   3.664   6.914   1.341 -1.1643  0.9777 -2.4014
  867MOL0     H14435   3.657   7.009   1.490 -3.4757 -1.0466 -0.9391
  867MOL0     H14436   3.862   6.884   1.429 -0.9554 -0.1253  1.2990
  867MOL0     H14437   3.907   7.020   1.321 -1.1864 -1.1302 -0.6884
  867MOL0     H14438   4.006   7.033   1.557 -0.2506 -1.9301 -1.2361
  867MOL0     H14439   3.844   7.057   1.627  0.9971  1.2644  1.3615
  867MOL0     H14440   3.972   7.255   1.437 -0.9894 -1.5648 -1.3560
  867MOL0     H14441   3.805   7.264   1.501 -2.1378 -4.9804  2.7058
  867MOL0     H14442   4.003   7.417   1.820 -0.0806 -0.3575 -0.7197
  867MOL0     H14443   3.457   6.927   1.322  0.2081  0.4204 -1.2001
  867MOL0     H14444   3.223   6.965   1.228 -0.8585  1.0295  1.5225
  868MOL0     O14445   7.875   5.144   3.617  1.2851 -0.3338 -0.0005
  868MOL0     C14446   7.878   5.147   3.494  0.3691  0.9904 -0.2178
  868MOL0     O14447   7.986   5.124   3.412  0.3489 -0.0260 -0.3294
  868MOL0     C14448   8.110   5.081   3.457 -0.2696 -0.0029 -0.9614
  868MOL0     C14449   8.148   5.070   3.592  0.3509  0.3055  0.8373
  868MOL0     C14450   8.274   5.033   3.626  0.9196  0.9804  0.2974
  868MOL0     C14451   8.379   5.015   3.522  0.3062 -0.8044  0.1467
  868MOL0     O14452   8.511   4.983   3.541  0.1350  0.9080 -0.1389
  868MOL0     C14453   8.561   4.973   3.671  0.2128  0.3395 -0.8431
  868MOL0     C14454   8.606   5.107   3.718  0.3759 -0.7307 -0.5525
  868MOL0     C14455   8.736   5.106   3.800  0.2358  1.0245  0.3433
  868MOL0     C14456   8.864   5.066   3.735  0.5860  1.0526 -0.5531
  868MOL0     C14457   8.985   5.101   3.813 -0.2138 -0.0398 -0.4874
  868MOL0     C14458   9.116   5.078   3.734 -0.2993  0.0518 -0.2943
  868MOL0     C14459   9.234   5.108   3.816 -0.6015  0.6184 -0.2559
  868MOL0     C14460   9.363   5.082   3.732  0.1223 -0.2550 -0.6170
  868MOL0     N14461   9.481   5.089   3.817  0.5260 -0.0200 -0.2882
  868MOL0     C14462   9.585   5.171   3.796  0.0500  0.2099  0.6406
  868MOL0     C14463   9.670   5.147   3.893  0.9586  0.5429  0.0842
  868MOL0     C14464   9.806   5.205   3.907  0.5799  0.3795  0.2649
  868MOL0     C14465   9.889   5.166   3.789 -0.8222 -0.1562 -0.1429
  868MOL0     C14466  10.012   5.260   3.782 -0.3537 -0.0983 -0.4029
  868MOL0     C14467  10.114   5.210   3.677  0.3339  0.3605 -0.0176
  868MOL0     O14468  10.182   5.094   3.727 -0.1433 -0.2909 -0.1604
  868MOL0     C14469  10.316   5.069   3.704 -1.3344 -0.1457  0.5879
  868MOL0     C14470  10.370   5.123   3.590  0.4265  0.1429 -0.2328
  868MOL0     C14471  10.500   5.103   3.558  0.0522 -0.6493  0.0789
  868MOL0     C14472  10.587   5.025   3.636  0.4009  0.0792 -0.2060
  868MOL0     C14473  10.728   5.013   3.600 -1.1181 -0.5659  0.4590
  868MOL0     O14474  10.791   4.900   3.659 -0.1503 -0.3320  0.5021
  868MOL0     C14475  10.929   4.890   3.647  0.7059 -0.2168  0.1047
  868MOL0     C14476  10.995   4.897   3.528 -0.0667  0.6052  1.0303
  868MOL0     C14477  11.131   4.882   3.526  0.0190 -0.2118 -0.5464
  868MOL0     C14478  11.203   4.863   3.641  0.0195  0.0406  0.2179
  868MOL0     O14479  11.342   4.874   3.647  0.4866 -0.4224  0.4320
  868MOL0     C14480  11.425   4.857   3.526 -0.4607  0.6169  1.3636
  868MOL0     C14481  11.439   4.707   3.505 -0.0474  0.0201  0.4101
  868MOL0     C14482  11.558   4.677   3.408  0.2765 -0.8153 -0.0111
  868MOL0     C14483  11.524   4.699   3.264  0.1213 -0.3568  0.1982
  868MOL0     C14484  11.606   4.612   3.161 -0.3788 -0.2510 -0.0899
  868MOL0     C14485  11.594   4.632   3.007  1.4812  0.2529  0.4053
  868MOL0     C14486  11.668   4.753   2.954 -0.7331 -0.9896  0.0984
  868MOL0     C14487  11.649   4.778   2.799 -0.2693 -0.6135 -0.0369
  868MOL0    Cl14488  11.723   4.638   2.706  0.2251 -0.5494  0.0009
  868MOL0     C14489  11.133   4.841   3.761 -0.8170 -0.4841 -0.5061
  868MOL0     C14490  10.995   4.844   3.759  0.5340  0.1831  0.6847
  868MOL0     O14491  10.785   5.091   3.520 -0.3693  0.1501 -0.1125
  868MOL0     C14492  10.537   4.978   3.760  0.2761 -0.5369 -0.0748
  868MOL0     C14493  10.399   4.999   3.795  0.1739  0.3176 -0.6134
  868MOL0     N14494   9.615   5.051   3.979 -0.0734 -0.6857  0.5924
  868MOL0     N14495   9.499   5.019   3.933  0.6145 -0.6038  0.0258
  868MOL0     C14496   8.344   5.051   3.393  0.9514 -0.0201 -0.1701
  868MOL0     C14497   8.208   5.070   3.364 -0.2853 -0.1761  0.7665
  868MOL0     C14498   7.751   5.172   3.429  0.4992  1.6869 -0.0833
  868MOL0     C14499   7.648   5.231   3.499  0.6231  0.6110 -0.4927
  868MOL0     C14500   7.531   5.244   3.425 -0.0603 -0.3181 -0.0371
  868MOL0     C14501   7.513   5.189   3.294  0.9192  0.0879 -0.1706
  868MOL0     O14502   7.384   5.190   3.234 -0.0040 -0.2442 -0.2879
  868MOL0     C14503   7.356   5.088   3.140 -0.1187  0.2271  0.3653
  868MOL0     C14504   7.200   5.072   3.105 -0.5725  0.9696  0.6043
  868MOL0     C14505   7.147   5.203   3.036  0.4315 -0.5029  0.4389
  868MOL0     C14506   6.991   5.213   3.038  0.6837 -0.0073  0.4199
  868MOL0     C14507   6.933   5.344   3.003 -0.3142 -0.2607  0.3471
  868MOL0     C14508   6.890   5.456   2.992 -0.0539 -0.1322 -0.1621
  868MOL0     C14509   7.618   5.122   3.227 -0.0511 -0.4183  0.1571
  868MOL0     C14510   7.736   5.130   3.295 -0.5872 -0.0484 -0.0738
  868MOL0     H14511   8.088   5.080   3.681 -1.6165 -1.5251 -0.1810
  868MOL0     H14512   8.303   5.021   3.730  2.3405 -0.1500 -0.1973
  868MOL0     H14513   8.646   4.906   3.665  1.3051  1.6177 -0.2912
  868MOL0     H14514   8.493   4.937   3.749  1.9533  0.4165  0.7979
  868MOL0     H14515   8.538   5.154   3.789  1.9345 -1.7344  1.7472
  868MOL0     H14516   8.615   5.177   3.634 -1.6521 -2.0359 -1.9245
  868MOL0     H14517   8.733   5.041   3.887  1.3424 -0.1555 -0.4584
  868MOL0     H14518   8.755   5.208   3.836  1.7546  1.0267 -0.3702
  868MOL0     H14519   8.859   4.961   3.705 -6.3719  0.8802 -0.5021
  868MOL0     H14520   8.865   5.115   3.637  0.7346  2.9865  0.3761
  868MOL0     H14521   8.991   5.057   3.913  0.3011  0.9266 -0.0712
  868MOL0     H14522   8.974   5.206   3.843  0.2619 -0.5931  1.8163
  868MOL0     H14523   9.108   5.129   3.638 -0.8414 -2.7882 -1.8612
  868MOL0     H14524   9.105   4.976   3.697 -2.2263  0.8706 -2.2153
  868MOL0     H14525   9.219   5.206   3.863  0.7514  0.1688  1.1712
  868MOL0     H14526   9.241   5.037   3.898 -0.6220  1.7904  0.7876
  868MOL0     H14527   9.374   5.156   3.652  0.4892  0.8269  0.3937
  868MOL0     H14528   9.358   4.983   3.686  1.0313 -1.8411  2.4315
  868MOL0     H14529   9.598   5.242   3.715 -0.6828 -0.7609 -0.3569
  868MOL0     H14530   9.861   5.162   3.991 -0.2211  0.0045  0.6171
  868MOL0     H14531   9.793   5.313   3.923  1.4218  0.4613  0.4112
  868MOL0     H14532   9.830   5.181   3.698 -0.3628  2.2221 -0.1047
  868MOL0     H14533   9.922   5.062   3.799 -1.6311 -0.2938  1.3505
  868MOL0     H14534   9.981   5.361   3.756 -4.9908 -1.3403 -0.6124
  868MOL0     H14535  10.060   5.262   3.881 -1.0916 -1.2401  0.0037
  868MOL0     H14536  10.172   5.300   3.655 -1.5201  1.8362  0.8786
  868MOL0     H14537  10.062   5.176   3.588 -1.7262  0.2512  1.1589
  868MOL0     H14538  10.316   5.180   3.515 -1.6532  0.5243  1.4339
  868MOL0     H14539  10.526   5.151   3.464 -0.9554 -1.2601 -0.5275
  868MOL0     H14540  10.939   4.911   3.436  0.8437 -2.9070 -0.2260
  868MOL0     H14541  11.176   4.890   3.428 -1.4745 -1.8927 -1.4241
  868MOL0     H14542  11.521   4.902   3.552 -1.2899  2.7466  0.9232
  868MOL0     H14543  11.385   4.905   3.436  0.0318 -0.5511  0.5049
  868MOL0     H14544  11.346   4.669   3.462  0.0823  0.7192 -0.5084
  868MOL0     H14545  11.462   4.657   3.600  1.9169 -1.9379 -0.9857
  868MOL0     H14546  11.586   4.571   3.416  1.1386 -0.8657 -2.6792
  868MOL0     H14547  11.646   4.733   3.441  0.2254  0.3113 -1.6812
  868MOL0     H14548  11.415   4.687   3.255  0.1225 -1.1004  1.0952
  868MOL0     H14549  11.551   4.803   3.244  1.0459 -0.8298 -1.1400
  868MOL0     H14550  11.586   4.506   3.180  2.5782 -1.1740 -1.5598
  868MOL0     H14551  11.712   4.627   3.183 -0.9805  4.3511  0.7396
  868MOL0     H14552  11.490   4.647   2.978  1.8774  0.6884 -0.8767
  868MOL0     H14553  11.628   4.537   2.965 -3.0362 -0.8138 -1.3730
  868MOL0     H14554  11.632   4.840   3.010  3.2568  0.0292  1.4271
  868MOL0     H14555  11.775   4.748   2.978  0.2887  2.1570 -3.0443
  868MOL0     H14556  11.682   4.875   2.761 -1.3322 -0.2025  0.0574
  868MOL0     H14557  11.542   4.777   2.774  0.2266 -0.5403 -2.3422
  868MOL0     H14558  11.179   4.850   3.859 -3.0947  0.6717  0.5378
  868MOL0     H14559  10.937   4.825   3.849  1.1003  0.6263  1.1492
  868MOL0     H14560  10.613   4.943   3.830 -0.7211 -0.4219  1.0797
  868MOL0     H14561  10.366   4.969   3.894  0.1240  0.3991 -0.6059
  868MOL0     H14562   8.409   5.059   3.306 -0.5191  0.7941 -1.2347
  868MOL0     H14563   8.188   5.096   3.261 -3.1119  2.9557  1.8913
  868MOL0     H14564   7.652   5.277   3.597  0.4880  1.1121 -0.7147
  868MOL0     H14565   7.456   5.309   3.470  0.9528  2.8904 -2.5822
  868MOL0     H14566   7.388   4.992   3.181 -1.4327  0.7469  2.8392
  868MOL0     H14567   7.405   5.108   3.045 -1.8284  0.6411 -0.4625
  868MOL0     H14568   7.179   4.998   3.027 -3.5908  1.8989  0.4246
  868MOL0     H14569   7.153   5.038   3.197  0.1799  0.3410  0.7709
  868MOL0     H14570   7.186   5.208   2.934 -1.1179 -0.0311 -0.1501
  868MOL0     H14571   7.185   5.294   3.085 -0.8525  0.0251  0.4808
  868MOL0     H14572   6.945   5.135   2.977 -0.7289  1.5558 -0.5806
  868MOL0     H14573   6.959   5.187   3.139  1.2114  1.8781  1.1111
  868MOL0     H14574   6.859   5.559   2.998 -0.2842 -0.2794  3.0269
  868MOL0     H14575   7.616   5.079   3.128 -0.1715 -3.6473  1.4462
  868MOL0     H14576   7.822   5.084   3.247  0.5407  0.4554  1.3846
  869MOL0     O14577   9.594   9.504   7.548  0.1809 -0.2048 -1.0346
  869MOL0     C14578   9.674   9.591   7.525 -0.0735 -0.2214  1.2159
  869MOL0     O14579   9.645   9.722   7.520 -0.5655 -0.4304 -0.4541
  869MOL0     C14580   9.517   9.774   7.531  0.1635  0.3392 -0.5571
  869MOL0     C14581   9.424   9.725   7.626  1.0288 -0.4055  0.0411
  869MOL0     C14582   9.297   9.775   7.634 -0.0069 -0.9654 -0.4320
  869MOL0     C14583   9.267   9.896   7.565 -0.7528  0.9864 -0.2243
  869MOL0     O14584   9.154   9.944   7.597  0.3940 -0.0532 -0.1459
  869MOL0     C14585   9.128  10.082   7.592 -0.3934 -0.4046 -0.0275
  869MOL0     C14586   8.978  10.100   7.591  0.5018  0.7005  0.3603
  869MOL0     C14587   8.912  10.112   7.726  0.1409 -0.1500 -0.3494
  869MOL0     C14588   8.760  10.080   7.719  0.1810  0.2408 -0.3349
  869MOL0     C14589   8.699  10.058   7.857  0.3698 -0.5642  0.2581
  869MOL0     C14590   8.564   9.993   7.833 -0.2460  0.2645 -0.6003
  869MOL0     C14591   8.484   9.983   7.971 -0.0094 -0.2335 -0.3011
  869MOL0     C14592   8.554   9.894   8.073  0.4068 -0.9787 -0.2244
  869MOL0     N14593   8.473   9.867   8.185 -0.1397 -0.9613  0.5418
  869MOL0     C14594   8.413   9.751   8.218  0.3845  1.0932 -0.2364
  869MOL0     C14595   8.342   9.778   8.329 -0.8954  0.1051 -0.6525
  869MOL0     C14596   8.253   9.679   8.407 -0.6366 -0.0819 -0.1379
  869MOL0     C14597   8.145   9.614   8.321 -0.6726 -0.0467  0.3097
  869MOL0     C14598   8.030   9.706   8.302  0.2617  0.4930  0.5589
  869MOL0     C14599   7.930   9.642   8.208 -0.1875 -0.3118 -0.6184
  869MOL0     O14600   7.813   9.725   8.223 -0.2510 -0.9842 -0.0963
  869MOL0     C14601   7.692   9.664   8.203  0.0396  0.7497 -0.9967
  869MOL0     C14602   7.579   9.726   8.253 -0.2209 -0.0814 -0.5289
  869MOL0     C14603   7.453   9.656   8.266  0.5647 -0.4978 -0.3310
  869MOL0     C14604   7.437   9.520   8.228 -0.2698 -0.3892  0.1818
  869MOL0     C14605   7.300   9.453   8.241 -0.3939  1.2084 -0.3430
  869MOL0     O14606   7.200   9.514   8.312 -0.7015 -0.1847 -0.6230
  869MOL0     C14607   7.082   9.445   8.317 -0.0741 -0.1535 -0.1172
  869MOL0     C14608   7.063   9.341   8.399  0.1526  0.2619 -0.2804
  869MOL0     C14609   6.948   9.256   8.397 -0.5968 -0.6793  0.0137
  869MOL0     C14610   6.847   9.288   8.309 -0.6720  0.3922 -0.7146
  869MOL0     O14611   6.736   9.206   8.303 -0.2512 -0.5357  0.0252
  869MOL0     C14612   6.760   9.078   8.237  0.0656 -0.5417 -0.2967
  869MOL0     C14613   6.635   9.026   8.162 -1.4240  0.7504  0.0069
  869MOL0     C14614   6.504   9.018   8.247 -0.1130  0.3803 -1.1391
  869MOL0     C14615   6.493   8.885   8.320 -0.2501  0.7035 -0.3442
  869MOL0     C14616   6.371   8.878   8.418 -0.7317  0.9209 -0.1407
  869MOL0     C14617   6.237   8.865   8.351 -0.6541 -0.4604 -0.6947
  869MOL0     C14618   6.139   8.801   8.452 -0.6682  0.0249  0.4901
  869MOL0     C14619   6.004   8.760   8.398  1.1756 -0.0428  0.5038
  869MOL0    Cl14620   6.004   8.617   8.282 -0.1081 -0.3934  0.3807
  869MOL0     C14621   6.855   9.405   8.228  0.4953 -0.1693  0.0496
  869MOL0     C14622   6.975   9.482   8.229 -0.6870 -0.3010  0.6119
  869MOL0     O14623   7.286   9.337   8.186 -0.8711 -0.3606 -0.3395
  869MOL0     C14624   7.543   9.461   8.163  0.4765 -0.2669 -0.4319
  869MOL0     C14625   7.670   9.526   8.163 -0.1928 -0.6182 -0.2299
  869MOL0     N14626   8.370   9.906   8.362 -0.2305 -0.0615  0.6234
  869MOL0     N14627   8.449   9.961   8.278  0.0510  0.4663  0.6301
  869MOL0     C14628   9.361   9.956   7.479  0.5941  0.9162 -0.1586
  869MOL0     C14629   9.487   9.893   7.462  0.6298 -0.3039 -0.0844
  869MOL0     C14630   9.819   9.549   7.521  0.0470 -0.5730  0.3355
  869MOL0     C14631   9.910   9.648   7.497 -0.3923 -0.8668  0.6971
  869MOL0     C14632  10.044   9.626   7.511  0.0430 -0.0671  0.3881
  869MOL0     C14633  10.096   9.507   7.556  0.3334 -0.0200 -0.3715
  869MOL0     O14634  10.229   9.486   7.577 -0.5763 -0.0267 -0.3751
  869MOL0     C14635  10.273   9.363   7.623 -0.2034  0.2974  0.0815
  869MOL0     C14636  10.415   9.389   7.683 -0.2621  0.1560  0.1688
  869MOL0     C14637  10.415   9.454   7.819  0.5471 -0.2698  0.4045
  869MOL0     C14638  10.552   9.522   7.851  0.7237  0.7539  0.0545
  869MOL0     C14639  10.672   9.434   7.867 -0.2508 -0.0533 -0.0978
  869MOL0     C14640  10.771   9.368   7.867 -1.1759 -0.7238  1.0371
  869MOL0     C14641   9.996   9.413   7.580  0.1812  0.1686  0.3551
  869MOL0     C14642   9.858   9.425   7.560 -0.4374 -0.5732 -0.2790
  869MOL0     H14643   9.454   9.648   7.696  1.9741 -0.2553 -0.1825
  869MOL0     H14644   9.235   9.714   7.700  1.0348 -3.7214 -1.8245
  869MOL0     H14645   9.180  10.153   7.527  0.6621  1.9145  3.1154
  869MOL0     H14646   9.151  10.126   7.690  2.4458  0.1029 -0.8391
  869MOL0     H14647   8.927  10.018   7.539 -1.6251  3.2087 -1.8003
  869MOL0     H14648   8.954  10.184   7.525  1.7881 -0.1197 -1.2189
  869MOL0     H14649   8.918  10.219   7.751  0.7330 -0.4733  1.0013
  869MOL0     H14650   8.959  10.044   7.797 -1.3730 -1.6827 -0.7608
  869MOL0     H14651   8.714  10.155   7.653  0.3978 -0.6921 -1.5823
  869MOL0     H14652   8.742   9.992   7.656  2.5499 -0.9240  0.5176
  869MOL0     H14653   8.698  10.157   7.903  0.3522  0.3516 -1.6116
  869MOL0     H14654   8.769   9.999   7.917  0.6654 -0.3010  0.1739
  869MOL0     H14655   8.573   9.891   7.795 -0.0544 -0.1857  0.6099
  869MOL0     H14656   8.512  10.059   7.763 -2.6614 -1.3011 -0.4244
  869MOL0     H14657   8.468  10.078   8.023  0.3407 -0.6390  0.5700
  869MOL0     H14658   8.377   9.961   7.969 -0.8823  3.1377  1.0009
  869MOL0     H14659   8.650   9.937   8.101  1.0169 -0.8312 -2.3721
  869MOL0     H14660   8.592   9.802   8.027  1.4585 -2.4010  3.1267
  869MOL0     H14661   8.425   9.655   8.168  3.1176  1.8512 -1.1924
  869MOL0     H14662   8.212   9.714   8.502  0.5079  3.3424 -0.7537
  869MOL0     H14663   8.328   9.602   8.430  0.1279  0.2479 -1.4261
  869MOL0     H14664   8.111   9.523   8.371 -1.5208  1.2394  2.2082
  869MOL0     H14665   8.192   9.584   8.227  0.4492 -1.1162  1.1720
  869MOL0     H14666   7.978   9.717   8.397 -1.6004  2.9936 -0.6150
  869MOL0     H14667   8.049   9.809   8.267 -1.8436  1.1329  1.1658
  869MOL0     H14668   7.916   9.543   8.252  0.7516 -0.1712  0.0334
  869MOL0     H14669   7.975   9.640   8.108  1.2386 -1.9721  0.0031
  869MOL0     H14670   7.592   9.820   8.305  0.8273 -0.8666  0.6824
  869MOL0     H14671   7.371   9.706   8.316  1.0775 -0.0145  0.0386
  869MOL0     H14672   7.142   9.315   8.468  0.6394 -1.8316 -1.5114
  869MOL0     H14673   6.941   9.159   8.445  0.0288  0.4979  2.7003
  869MOL0     H14674   6.802   9.005   8.308  0.0768 -1.4728 -1.2346
  869MOL0     H14675   6.844   9.092   8.168  0.5070  1.6224  0.5979
  869MOL0     H14676   6.660   8.923   8.132  0.2025  0.8303  0.9905
  869MOL0     H14677   6.609   9.086   8.075  0.2139  1.3537 -0.1008
  869MOL0     H14678   6.417   9.025   8.181  0.4238 -2.0764 -2.2292
  869MOL0     H14679   6.503   9.097   8.322 -0.2219 -0.1110 -0.6134
  869MOL0     H14680   6.483   8.802   8.250  0.8813  1.0467 -0.9410
  869MOL0     H14681   6.583   8.877   8.382 -2.1436 -1.6286  2.3850
  869MOL0     H14682   6.368   8.957   8.493  0.2753  1.9386 -1.1110
  869MOL0     H14683   6.385   8.786   8.475  0.9259  2.8735  2.8893
  869MOL0     H14684   6.243   8.803   8.261  0.7083  0.2135 -1.1023
  869MOL0     H14685   6.209   8.962   8.308 -0.1927 -0.3377 -0.7217
  869MOL0     H14686   6.183   8.719   8.510  0.8746  0.4662 -0.0092
  869MOL0     H14687   6.123   8.883   8.522  1.8427  2.7462 -1.8513
  869MOL0     H14688   5.958   8.847   8.350  1.5030  0.6504  1.4234
  869MOL0     H14689   5.937   8.732   8.479  0.6232  2.3014  0.9324
  869MOL0     H14690   6.767   9.427   8.169  0.4405  0.1127  0.2367
  869MOL0     H14691   6.981   9.570   8.166 -0.9980  0.1438  1.1874
  869MOL0     H14692   7.542   9.355   8.141 -1.8215 -0.5622  0.8158
  869MOL0     H14693   7.754   9.471   8.122 -1.8020 -3.0662 -0.4985
  869MOL0     H14694   9.330  10.048   7.431 -1.9338 -0.0311 -0.5080
  869MOL0     H14695   9.557   9.938   7.392  1.1982 -0.4942  0.3623
  869MOL0     H14696   9.874   9.742   7.458  1.6153 -0.0252  0.7912
  869MOL0     H14697  10.113   9.706   7.485  1.0337 -1.1734 -0.5350
  869MOL0     H14698  10.269   9.282   7.549 -0.6449  0.3865  0.0028
  869MOL0     H14699  10.209   9.348   7.711 -0.3210  2.4897  0.4270
  869MOL0     H14700  10.471   9.296   7.697 -2.1994 -1.3734 -1.5189
  869MOL0     H14701  10.473   9.446   7.610  2.0165 -3.9440 -1.5467
  869MOL0     H14702  10.397   9.379   7.898  1.7498 -0.5736  0.4190
  869MOL0     H14703  10.340   9.533   7.820  1.9610  1.1196  0.9226
  869MOL0     H14704  10.569   9.589   7.766 -2.2779 -1.1474 -2.2754
  869MOL0     H14705  10.543   9.594   7.933 -1.5369  0.6759 -0.0557
  869MOL0     H14706  10.854   9.301   7.873  0.4739  1.2422  1.2734
  869MOL0     H14707  10.021   9.311   7.609 -4.1725 -1.3886 -0.6857
  869MOL0     H14708   9.795   9.342   7.590 -0.0158 -0.0561  2.2684
  870MOL0     O14709  10.842   2.951   9.220 -0.6310 -0.1540  0.8068
  870MOL0     C14710  10.794   2.963   9.102  0.0813  0.1612 -0.2346
  870MOL0     O14711  10.678   3.022   9.070 -0.4574 -0.0982 -0.3372
  870MOL0     C14712  10.625   3.137   9.133 -0.3403  0.0160 -0.9742
  870MOL0     C14713  10.496   3.172   9.094  0.3429  0.0141  0.5863
  870MOL0     C14714  10.438   3.277   9.163 -0.0823  0.3242  0.0575
  870MOL0     C14715  10.501   3.345   9.275 -0.4621  0.3048 -0.0625
  870MOL0     O14716  10.439   3.440   9.349  0.5230  0.1396  0.1220
  870MOL0     C14717  10.297   3.443   9.350 -0.2148 -0.4510 -0.1997
  870MOL0     C14718  10.265   3.548   9.462 -0.0657 -0.1710 -1.0829
  870MOL0     C14719  10.121   3.586   9.483 -0.2817 -1.1458  0.1235
  870MOL0     C14720  10.064   3.652   9.356 -0.5517 -0.2252  0.4926
  870MOL0     C14721   9.916   3.684   9.376  0.0055 -0.0856  0.2902
  870MOL0     C14722   9.862   3.783   9.277 -0.5918  0.0488 -0.1683
  870MOL0     C14723   9.712   3.828   9.299 -0.6091 -0.1942 -0.2906
  870MOL0     C14724   9.642   3.890   9.174 -0.4283  0.4627  0.9984
  870MOL0     N14725   9.507   3.926   9.190 -0.7099 -0.4205 -0.2783
  870MOL0     C14726   9.453   4.016   9.281  0.2892 -0.5949 -0.1254
  870MOL0     C14727   9.315   4.036   9.247 -0.6514 -0.3629  0.0437
  870MOL0     C14728   9.208   4.104   9.320  0.2291  0.2333  0.1991
  870MOL0     C14729   9.080   4.031   9.361 -0.3644 -0.4576  0.3224
  870MOL0     C14730   8.972   4.131   9.359  0.4466  0.0444  0.1987
  870MOL0     C14731   8.837   4.074   9.392 -0.2504 -0.8980 -0.0738
  870MOL0     O14732   8.761   4.188   9.432 -0.2592  0.2553  0.0703
  870MOL0     C14733   8.632   4.172   9.465 -0.1573  0.2808 -0.0651
  870MOL0     C14734   8.580   4.068   9.543 -0.5581 -0.5739 -0.7637
  870MOL0     C14735   8.443   4.073   9.591  0.7770 -1.0143 -0.8465
  870MOL0     C14736   8.365   4.185   9.558 -0.9655  0.3997  0.2387
  870MOL0     C14737   8.225   4.207   9.597 -0.4364  1.5904 -0.6447
  870MOL0     O14738   8.160   4.318   9.552  0.0151 -0.2112  0.6012
  870MOL0     C14739   8.024   4.338   9.577 -0.6851  0.7350 -0.3684
  870MOL0     C14740   7.985   4.458   9.520 -0.2306  0.7527 -0.6263
  870MOL0     C14741   7.857   4.492   9.529  1.1309  0.0551 -0.8490
  870MOL0     C14742   7.764   4.423   9.627  0.2534  0.1514  0.1647
  870MOL0     O14743   7.637   4.470   9.643 -0.4235 -0.0401  0.3303
  870MOL0     C14744   7.541   4.394   9.713 -0.0288  0.7019  0.0261
  870MOL0     C14745   7.400   4.433   9.685 -0.0161  0.0475 -0.2629
  870MOL0     C14746   7.304   4.385   9.799  0.6161 -0.2662 -0.8378
  870MOL0     C14747   7.154   4.411   9.765 -0.0618 -0.3965 -0.2881
  870MOL0     C14748   7.056   4.310   9.825  0.7032 -0.1123 -0.9126
  870MOL0     C14749   6.987   4.352   9.958  0.0805  0.1263  0.2121
  870MOL0     C14750   7.096   4.381  10.064  1.1951  0.4388 -0.3823
  870MOL0     C14751   7.028   4.394  10.205 -0.4131  0.0260  0.3003
  870MOL0    Cl14752   7.173   4.436  10.309 -0.1992  0.5735 -0.4220
  870MOL0     C14753   7.809   4.312   9.692 -0.4938 -0.3414 -1.0863
  870MOL0     C14754   7.943   4.269   9.664 -0.7014 -1.0964 -0.3991
  870MOL0     O14755   8.190   4.121   9.678  0.5738 -0.4632 -0.4389
  870MOL0     C14756   8.425   4.277   9.469 -0.0002 -0.3503  0.1424
  870MOL0     C14757   8.553   4.271   9.423  0.2247 -0.1573  0.1091
  870MOL0     N14758   9.298   3.974   9.125 -0.0577  0.6723 -0.2199
  870MOL0     N14759   9.405   3.906   9.090  0.4029 -0.6636 -0.1465
  870MOL0     C14760  10.628   3.297   9.317 -0.2736 -0.2404 -0.2218
  870MOL0     C14761  10.689   3.195   9.245 -0.7129 -0.1013  1.0037
  870MOL0     C14762  10.871   2.907   8.998  0.2337 -0.6669 -0.4381
  870MOL0     C14763  11.015   2.894   9.001  0.0996  0.4289 -0.1477
  870MOL0     C14764  11.087   2.833   8.900  0.1511  0.3562 -0.0385
  870MOL0     C14765  11.016   2.778   8.785  0.1041  0.5039  0.6512
  870MOL0     O14766  11.070   2.710   8.673 -0.3626  0.4962  0.2473
  870MOL0     C14767  11.215   2.687   8.674  0.8033 -0.0116  0.0210
  870MOL0     C14768  11.249   2.544   8.733 -0.2830 -0.0667  0.2562
  870MOL0     C14769  11.159   2.434   8.659  0.4062 -0.8887 -0.4644
  870MOL0     C14770  11.193   2.297   8.719 -0.0279 -0.0796  0.3428
  870MOL0     C14771  11.102   2.202   8.652 -0.5964  0.1840 -0.0383
  870MOL0     C14772  11.037   2.111   8.601  0.5529  0.0154  0.5174
  870MOL0     C14773  10.876   2.785   8.792 -0.0944 -0.0054 -0.3253
  870MOL0     C14774  10.805   2.843   8.898  0.3100 -0.1994 -0.2066
  870MOL0     H14775  10.446   3.123   9.011  1.4211 -0.2826  0.0946
  870MOL0     H14776  10.340   3.308   9.128  0.9310  0.1705 -3.2039
  870MOL0     H14777  10.253   3.344   9.366  1.3900 -0.8385  2.3336
  870MOL0     H14778  10.262   3.487   9.256  1.9729  2.2350  0.1213
  870MOL0     H14779  10.326   3.639   9.453  2.4997 -1.3260  2.3996
  870MOL0     H14780  10.307   3.518   9.558  0.6399 -1.4718 -1.7633
  870MOL0     H14781  10.114   3.667   9.557 -0.1703 -1.5401  0.5699
  870MOL0     H14782  10.063   3.499   9.515  0.2070 -2.2482 -1.8465
  870MOL0     H14783  10.103   3.751   9.333 -2.0224  0.2372 -0.0936
  870MOL0     H14784  10.080   3.589   9.268  1.5225  0.8429  0.0521
  870MOL0     H14785   9.908   3.743   9.468  1.0872  2.2061 -0.9823
  870MOL0     H14786   9.845   3.601   9.368  0.0301  0.0459 -3.6818
  870MOL0     H14787   9.864   3.737   9.178 -0.6746  0.0361 -0.1636
  870MOL0     H14788   9.926   3.872   9.271 -1.4613  0.7129  0.3337
  870MOL0     H14789   9.653   3.740   9.325  1.2099 -0.7229  2.5652
  870MOL0     H14790   9.706   3.898   9.383 -1.4660 -0.7087  0.0940
  870MOL0     H14791   9.645   3.832   9.081 -1.0793  2.4145 -0.2990
  870MOL0     H14792   9.686   3.987   9.149 -0.2454 -0.4318 -2.8045
  870MOL0     H14793   9.501   4.057   9.369  0.4651 -3.2774  1.1297
  870MOL0     H14794   9.194   4.193   9.257  1.1048 -0.4484 -1.0145
  870MOL0     H14795   9.261   4.146   9.405  2.8853 -1.3482 -0.5861
  870MOL0     H14796   9.094   3.998   9.464  1.2483  3.6141  1.6172
  870MOL0     H14797   9.059   3.947   9.295 -0.5948  0.5628 -0.9420
  870MOL0     H14798   9.003   4.210   9.428 -1.1850  1.8018 -0.9564
  870MOL0     H14799   8.968   4.176   9.259 -1.7025  1.2254  0.7399
  870MOL0     H14800   8.834   3.994   9.466  2.9035 -2.5138 -1.4956
  870MOL0     H14801   8.780   4.034   9.307 -0.3391 -1.0901  0.0740
  870MOL0     H14802   8.634   3.975   9.554  0.3835  0.2116  2.3535
  870MOL0     H14803   8.413   3.991   9.656 -1.8434 -1.2079 -2.1643
  870MOL0     H14804   8.047   4.525   9.462  1.8133 -0.5130  0.0062
  870MOL0     H14805   7.818   4.566   9.459 -2.8089  1.1451  2.1545
  870MOL0     H14806   7.549   4.388   9.822 -2.4348  1.4230  0.3052
  870MOL0     H14807   7.552   4.290   9.680  1.6739  1.0775 -0.6937
  870MOL0     H14808   7.368   4.376   9.597  2.4381 -0.9743 -0.5819
  870MOL0     H14809   7.382   4.541   9.682  3.9669  1.0840  3.5814
  870MOL0     H14810   7.329   4.440   9.891  0.5747  0.6741 -1.3756
  870MOL0     H14811   7.316   4.276   9.799  1.2878 -0.2273  0.7752
  870MOL0     H14812   7.134   4.511   9.803  2.2118 -0.1532  0.3865
  870MOL0     H14813   7.141   4.412   9.656  0.9254  3.9606 -0.5245
  870MOL0     H14814   7.096   4.209   9.835 -0.9070 -0.5953  1.4785
  870MOL0     H14815   6.967   4.303   9.761  0.4583 -0.5544 -0.5305
  870MOL0     H14816   6.920   4.273   9.992  0.8526 -0.6572 -0.0432
  870MOL0     H14817   6.930   4.443   9.940 -3.4433 -1.7932  0.7458
  870MOL0     H14818   7.170   4.301  10.064  2.3231  1.4231  0.9161
  870MOL0     H14819   7.153   4.473  10.044 -1.0082  2.2185  1.0382
  870MOL0     H14820   7.003   4.295  10.244  0.8824  0.4713  2.3922
  870MOL0     H14821   6.946   4.466  10.197 -1.9893 -1.5795  1.4164
  870MOL0     H14822   7.750   4.238   9.745  2.1042 -0.8291  1.3199
  870MOL0     H14823   7.974   4.178   9.716 -0.6417 -0.1234  1.3558
  870MOL0     H14824   8.374   4.371   9.452 -0.6420 -0.3444  1.9606
  870MOL0     H14825   8.568   4.346   9.346 -0.2114 -1.5352 -1.3793
  870MOL0     H14826  10.684   3.343   9.398  0.0138 -2.8627  1.1683
  870MOL0     H14827  10.792   3.165   9.260 -0.4435 -1.3246 -2.4561
  870MOL0     H14828  11.075   2.924   9.087  2.0262 -0.8528 -0.9841
  870MOL0     H14829  11.195   2.831   8.906  0.1801  0.9403 -0.2881
  870MOL0     H14830  11.270   2.767   8.725  0.4832  0.6500 -0.6530
  870MOL0     H14831  11.261   2.702   8.576  2.0034 -1.6762  0.2858
  870MOL0     H14832  11.354   2.523   8.709 -1.0695 -0.2766 -3.8498
  870MOL0     H14833  11.244   2.537   8.842  4.6266  1.7134  0.8424
  870MOL0     H14834  11.197   2.431   8.556  2.4287 -1.6863  0.2424
  870MOL0     H14835  11.052   2.455   8.658 -0.0691 -2.7721  1.6536
  870MOL0     H14836  11.292   2.258   8.695 -1.1880 -0.6597 -4.4859
  870MOL0     H14837  11.173   2.305   8.826  0.6588 -3.5189  0.8491
  870MOL0     H14838  10.976   2.031   8.564  0.9894 -2.0508  3.8412
  870MOL0     H14839  10.823   2.728   8.716 -0.6292 -1.0635  0.8064
  870MOL0     H14840  10.697   2.838   8.890  0.2827  0.0417  0.0246
  871MOL0     O14841   4.027   5.074   4.155  0.0397  0.5223 -0.1546
  871MOL0     C14842   4.035   5.195   4.129  1.0531  0.1768  0.1728
  871MOL0     O14843   3.931   5.276   4.113 -0.4646  0.2206 -0.8536
  871MOL0     C14844   3.806   5.234   4.131 -0.3469  1.4316  0.1621
  871MOL0     C14845   3.765   5.166   4.242  0.4124 -0.6155 -0.3219
  871MOL0     C14846   3.638   5.125   4.264  0.5914 -0.7065  0.1826
  871MOL0     C14847   3.547   5.142   4.163  0.6971 -0.6797  0.0795
  871MOL0     O14848   3.427   5.078   4.164 -0.8285  0.2275 -0.2599
  871MOL0     C14849   3.330   5.139   4.243  0.5932 -0.7698  0.1125
  871MOL0     C14850   3.205   5.065   4.217 -0.2323 -0.7469 -0.0480
  871MOL0     C14851   3.087   5.137   4.293 -0.3148 -0.5494 -0.3688
  871MOL0     C14852   2.954   5.091   4.224 -0.4883  0.0073  1.2571
  871MOL0     C14853   2.854   5.207   4.240  0.2010 -0.4587  0.1965
  871MOL0     C14854   2.711   5.172   4.195  0.1192  0.5089  0.2097
  871MOL0     C14855   2.623   5.297   4.210 -0.0613 -0.2361 -0.0364
  871MOL0     C14856   2.493   5.284   4.125 -0.5320 -0.0652  0.2035
  871MOL0     N14857   2.509   5.309   3.976 -0.4307  0.4481 -0.1889
  871MOL0     C14858   2.430   5.407   3.918  0.6442  0.0949 -0.0003
  871MOL0     C14859   2.480   5.406   3.791 -0.1615  0.2802  0.4130
  871MOL0     C14860   2.454   5.483   3.666  0.6033  0.3139 -0.4707
  871MOL0     C14861   2.340   5.450   3.583 -0.3831 -0.7169 -0.0246
  871MOL0     C14862   2.317   5.564   3.475 -0.1615  1.0939  0.4237
  871MOL0     C14863   2.176   5.550   3.397  0.4131 -0.2619 -0.2867
  871MOL0     O14864   2.060   5.564   3.475 -0.0760 -0.9922  0.1290
  871MOL0     C14865   1.962   5.486   3.434  0.7507  0.3712  0.2178
  871MOL0     C14866   1.840   5.550   3.401 -0.4518 -0.6149  0.2242
  871MOL0     C14867   1.730   5.476   3.369  0.6335  0.1461 -0.0675
  871MOL0     C14868   1.726   5.331   3.369  0.0552  0.0627  0.1725
  871MOL0     C14869   1.599   5.265   3.329 -0.5466 -0.1456 -1.1455
  871MOL0     O14870   1.500   5.346   3.280  0.1389  0.0123 -0.0194
  871MOL0     C14871   1.384   5.292   3.235  0.2620  0.6759 -0.6420
  871MOL0     C14872   1.383   5.250   3.102 -0.5608 -0.0545 -0.0295
  871MOL0     C14873   1.259   5.215   3.048 -0.2060  0.1769 -0.8587
  871MOL0     C14874   1.140   5.211   3.113 -0.2793 -0.3109 -0.4394
  871MOL0     O14875   1.027   5.168   3.046  0.4288  0.0871  0.0540
  871MOL0     C14876   0.925   5.121   3.130  0.0484 -0.2816 -0.2535
  871MOL0     C14877   0.819   5.053   3.057  0.4034 -0.1093  1.0159
  871MOL0     C14878   0.745   5.141   2.959 -0.4391 -0.2403 -0.7688
  871MOL0     C14879   0.667   5.255   3.039 -0.0620  0.9711 -0.6521
  871MOL0     C14880   0.567   5.305   2.938 -0.2353  0.3198  0.1413
  871MOL0     C14881   0.435   5.228   2.914 -0.8889  0.5977 -0.7005
  871MOL0     C14882   0.365   5.295   2.802  0.8865  1.0400  1.0922
  871MOL0     C14883   0.211   5.278   2.807 -1.1198  0.3432 -0.3568
  871MOL0    Cl14884   0.157   5.114   2.769 -0.2941  0.0045  0.0780
  871MOL0     C14885   1.145   5.253   3.248  0.4340  0.2637  0.1808
  871MOL0     C14886   1.264   5.287   3.312 -0.7236  1.0790 -0.2069
  871MOL0     O14887   1.591   5.141   3.338 -0.8241  0.4838  0.2539
  871MOL0     C14888   1.849   5.269   3.410  0.5052  0.3737  0.6322
  871MOL0     C14889   1.966   5.347   3.444  0.1953  0.4173 -0.0612
  871MOL0     N14890   2.563   5.301   3.775  0.3676  0.9722 -0.2115
  871MOL0     N14891   2.583   5.239   3.887 -0.4282  0.0051 -0.5829
  871MOL0     C14892   3.581   5.207   4.047  0.2079 -0.0702  0.3663
  871MOL0     C14893   3.707   5.259   4.032 -1.0771 -0.7045 -0.2918
  871MOL0     C14894   4.168   5.251   4.104  0.7083  0.6404  0.6346
  871MOL0     C14895   4.177   5.386   4.064  0.0048 -1.2821 -0.0237
  871MOL0     C14896   4.308   5.438   4.034 -0.1337  0.4702  0.1854
  871MOL0     C14897   4.426   5.358   4.056  0.3440 -0.4282  0.3796
  871MOL0     O14898   4.560   5.398   4.054 -0.1568 -0.3657  0.0494
  871MOL0     C14899   4.595   5.529   3.993 -1.7241 -0.3565  0.2284
  871MOL0     C14900   4.738   5.580   4.021 -0.2419  0.3186  0.1343
  871MOL0     C14901   4.845   5.467   4.024  0.1133  0.1050 -0.4654
  871MOL0     C14902   4.976   5.501   4.089 -0.1336  1.2541  0.2956
  871MOL0     C14903   5.043   5.614   4.026  0.9236 -0.1894  1.0031
  871MOL0     C14904   5.093   5.703   3.974 -0.3719 -0.0588 -0.9464
  871MOL0     C14905   4.409   5.228   4.092  0.6389 -0.6227  1.0697
  871MOL0     C14906   4.278   5.169   4.125 -1.0649 -0.0928  0.5052
  871MOL0     H14907   3.833   5.129   4.318  0.2580 -0.5088 -0.1319
  871MOL0     H14908   3.609   5.059   4.345  2.0427 -2.1152 -0.4085
  871MOL0     H14909   3.324   5.241   4.202  1.7987 -1.3414 -1.6279
  871MOL0     H14910   3.352   5.138   4.350  0.3672 -1.0603  0.1555
  871MOL0     H14911   3.216   4.964   4.259  0.3804 -2.0628 -3.0522
  871MOL0     H14912   3.179   5.054   4.112 -0.8478 -0.0814  0.0318
  871MOL0     H14913   3.095   5.245   4.276 -1.6953 -0.4524 -0.5378
  871MOL0     H14914   3.099   5.110   4.399  1.7566 -2.5503 -1.0262
  871MOL0     H14915   2.966   5.066   4.118 -1.7320  1.0819  0.8360
  871MOL0     H14916   2.914   5.000   4.270 -2.1497 -0.8008 -1.5269
  871MOL0     H14917   2.891   5.293   4.184 -0.6428 -1.6128 -2.2660
  871MOL0     H14918   2.860   5.250   4.341 -0.1824  2.5404 -0.9679
  871MOL0     H14919   2.672   5.095   4.262 -1.4536  1.5087  0.4949
  871MOL0     H14920   2.711   5.142   4.090 -0.8004  1.8954 -0.2203
  871MOL0     H14921   2.596   5.302   4.316 -0.3987 -2.9400  0.0761
  871MOL0     H14922   2.676   5.393   4.203 -0.2585  0.2714  3.4766
  871MOL0     H14923   2.418   5.349   4.171 -0.7696  0.1054 -0.4260
  871MOL0     H14924   2.440   5.189   4.142 -2.4940  0.7986 -0.7839
  871MOL0     H14925   2.352   5.470   3.959 -0.0334 -0.8479  0.2004
  871MOL0     H14926   2.545   5.483   3.606  0.2377  0.4011 -1.0395
  871MOL0     H14927   2.436   5.587   3.694 -0.5200  0.4376 -1.5540
  871MOL0     H14928   2.244   5.443   3.635 -1.0895  0.5789 -1.0898
  871MOL0     H14929   2.365   5.363   3.522  0.0702  1.8098 -3.8339
  871MOL0     H14930   2.318   5.657   3.531 -1.2748  0.1853  2.0601
  871MOL0     H14931   2.384   5.569   3.389 -1.3442  0.3966 -0.5721
  871MOL0     H14932   2.170   5.452   3.348  0.9890 -1.5695  2.1074
  871MOL0     H14933   2.174   5.636   3.329  2.7979  2.0118  2.2671
  871MOL0     H14934   1.840   5.658   3.391 -0.1803 -0.6416 -0.0770
  871MOL0     H14935   1.638   5.532   3.353  0.9627  0.4884 -0.8008
  871MOL0     H14936   1.472   5.254   3.041 -0.7721 -2.7199 -0.6166
  871MOL0     H14937   1.243   5.187   2.945 -1.5869  1.4192 -1.0281
  871MOL0     H14938   0.888   5.198   3.198  1.3250  0.3307 -0.2223
  871MOL0     H14939   0.970   5.048   3.198  4.2293  2.0875 -0.1213
  871MOL0     H14940   0.754   5.014   3.136  0.8812  0.4585  1.7150
  871MOL0     H14941   0.854   4.966   3.002 -0.8511  1.9874 -3.5564
  871MOL0     H14942   0.675   5.087   2.894  0.7688 -1.0352 -1.4506
  871MOL0     H14943   0.810   5.181   2.881 -1.6152  0.8827 -1.2171
  871MOL0     H14944   0.616   5.217   3.129 -0.1998 -0.2388 -1.2172
  871MOL0     H14945   0.739   5.330   3.074  0.2525  0.2293  0.3594
  871MOL0     H14946   0.618   5.326   2.844 -0.6856  1.0203  0.0442
  871MOL0     H14947   0.541   5.407   2.970  0.4729  1.4850 -2.6955
  871MOL0     H14948   0.378   5.250   3.005 -0.0802  1.4219 -0.3729
  871MOL0     H14949   0.454   5.121   2.907 -2.2536  0.3142 -0.3642
  871MOL0     H14950   0.384   5.401   2.820 -2.6329  1.9667  0.2674
  871MOL0     H14951   0.406   5.265   2.705 -1.7943  0.5278  0.0155
  871MOL0     H14952   0.162   5.347   2.738 -0.7609  2.3324  1.2807
  871MOL0     H14953   0.177   5.309   2.906  2.1445  0.2429  0.9158
  871MOL0     H14954   1.053   5.254   3.306  0.1490  3.5666 -0.1441
  871MOL0     H14955   1.256   5.315   3.416  0.3375 -0.5940  0.3671
  871MOL0     H14956   1.865   5.161   3.414 -0.1482  0.1076 -1.8805
  871MOL0     H14957   2.054   5.297   3.481 -0.6393 -0.5963  0.6052
  871MOL0     H14958   3.509   5.215   3.966  0.0090  2.9972  0.7280
  871MOL0     H14959   3.733   5.320   3.945  0.1338 -1.6865 -0.6470
  871MOL0     H14960   4.088   5.446   4.052  0.1348 -0.8194  1.2533
  871MOL0     H14961   4.308   5.545   4.020  2.4694  0.8972  2.5568
  871MOL0     H14962   4.523   5.597   4.037  0.6571  0.3733  3.2988
  871MOL0     H14963   4.572   5.531   3.886  0.0054 -1.7312 -0.2430
  871MOL0     H14964   4.770   5.646   3.940 -1.6585  0.5228 -0.2767
  871MOL0     H14965   4.734   5.636   4.116 -1.8784  0.2139  0.1483
  871MOL0     H14966   4.883   5.437   3.926 -1.1217 -1.1448 -0.5845
  871MOL0     H14967   4.799   5.378   4.067  1.9316 -1.8042 -2.2092
  871MOL0     H14968   4.966   5.526   4.195 -0.0664  1.5580  0.2296
  871MOL0     H14969   5.051   5.421   4.083  0.0164  1.3804  0.4973
  871MOL0     H14970   5.145   5.787   3.932  3.7862 -1.5219  0.7862
  871MOL0     H14971   4.493   5.160   4.098  0.1909 -1.1753  1.1471
  871MOL0     H14972   4.283   5.069   4.166  2.6595  0.4276  1.6681
  872MOL0     O14973   3.942   2.816   0.036 -1.1762  0.1133  0.5180
  872MOL0     C14974   3.942   2.696   0.058  0.6342 -0.2948  0.5330
  872MOL0     O14975   3.835   2.616   0.058  0.1848 -0.0280  0.3234
  872MOL0     C14976   3.712   2.681   0.026  0.3720  0.2845  0.4004
  872MOL0     C14977   3.658   2.781   0.111 -0.2877 -0.0343 -0.6864
  872MOL0     C14978   3.540   2.848   0.078 -0.2857 -0.2920 -0.6236
  872MOL0     C14979   3.480   2.829  -0.046 -0.6976  0.6592  0.1392
  872MOL0     O14980   3.367   2.889  -0.093  0.0922 -0.3400 -0.1879
  872MOL0     C14981   3.310   3.003  -0.027  1.1117  0.3331  0.2263
  872MOL0     C14982   3.382   3.129  -0.066 -0.8903 -0.2770 -0.2485
  872MOL0     C14983   3.388   3.242   0.040 -0.1119 -0.5236  0.1965
  872MOL0     C14984   3.476   3.364  -0.013  0.2232 -0.6421  0.4006
  872MOL0     C14985   3.617   3.333   0.020 -0.0372 -0.6228  0.3446
  872MOL0     C14986   3.704   3.470  -0.021  0.3378 -0.2868  0.1437
  872MOL0     C14987   3.840   3.467   0.047  1.3887  0.6249 -0.7509
  872MOL0     C14988   3.944   3.395  -0.042 -0.0502 -0.9184  0.2394
  872MOL0     N14989   4.077   3.364   0.028 -0.2561 -0.4337 -0.3968
  872MOL0     C14990   4.140   3.244   0.011  0.0381 -0.4498 -0.8668
  872MOL0     C14991   4.249   3.252   0.086 -0.2928  0.4433 -0.7439
  872MOL0     C14992   4.347   3.146   0.120  0.4655 -0.3137 -0.4189
  872MOL0     C14993   4.447   3.130   0.004  0.5134 -0.4956 -0.1542
  872MOL0     C14994   4.560   3.040   0.042 -1.3701  0.0032 -0.3325
  872MOL0     C14995   4.634   2.965  -0.068 -0.1846 -0.3312 -0.0009
  872MOL0     O14996   4.731   2.870  -0.030  0.7000  0.3058 -0.1311
  872MOL0     C14997   4.857   2.922  -0.023  0.4818 -0.4208  0.7251
  872MOL0     C14998   4.939   2.944  -0.138  0.3424  0.2673  1.1400
  872MOL0     C14999   5.071   2.987  -0.125  0.9524  0.1729  0.2487
  872MOL0     C15000   5.124   3.016   0.005 -0.3025 -0.2075  0.1281
  872MOL0     C15001   5.264   3.067   0.010  0.2975 -0.7155  0.1993
  872MOL0     O15002   5.306   3.161  -0.087  0.6342  0.3896 -0.2472
  872MOL0     C15003   5.413   3.232  -0.066  0.0562  0.1009  0.2115
  872MOL0     C15004   5.409   3.358  -0.006  0.1284 -0.5376  0.7690
  872MOL0     C15005   5.533   3.427   0.025  0.8828  0.2727 -0.1953
  872MOL0     C15006   5.656   3.353   0.016 -0.3184  0.0058 -0.0697
  872MOL0     O15007   5.771   3.418   0.057 -0.4258  0.0857  0.5908
  872MOL0     C15008   5.891   3.351   0.070 -0.8118  0.0572  0.5939
  872MOL0     C15009   6.002   3.444   0.107 -0.0883 -0.2847  0.5352
  872MOL0     C15010   6.148   3.384   0.103 -0.7109 -0.5524  1.1862
  872MOL0     C15011   6.254   3.490   0.138 -0.1066 -0.2365 -0.0539
  872MOL0     C15012   6.404   3.435   0.130  1.3914 -0.1900 -0.3730
  872MOL0     C15013   6.456   3.380  -0.004  0.4692 -0.1821  0.1367
  872MOL0     C15014   6.616   3.354  -0.008  0.0384  0.1479 -0.1681
  872MOL0     C15015   6.661   3.243  -0.092 -0.0594  0.6406 -0.3869
  872MOL0    Cl15016   6.566   3.106  -0.049  0.0838 -0.0162  0.0145
  872MOL0     C15017   5.658   3.231  -0.052  0.1032 -0.1485 -0.1108
  872MOL0     C15018   5.532   3.176  -0.090 -0.3615  0.4173 -0.4812
  872MOL0     O15019   5.332   3.020   0.098 -0.0046  0.1987  0.4019
  872MOL0     C15020   5.036   3.008   0.120 -0.5292  0.7056 -0.3769
  872MOL0     C15021   4.906   2.955   0.111  0.3727 -0.7249  0.2069
  872MOL0     N15022   4.247   3.376   0.148 -0.0803  0.4603 -0.2302
  872MOL0     N15023   4.140   3.445   0.117  0.8219  0.4047  0.9429
  872MOL0     C15024   3.533   2.734  -0.134  0.1736 -0.6807  0.3295
  872MOL0     C15025   3.643   2.664  -0.100  0.3813 -0.1652  0.5068
  872MOL0     C15026   4.070   2.623   0.077  0.2014  0.4637  0.6755
  872MOL0     C15027   4.190   2.698   0.101  0.4330 -0.1193 -0.2213
  872MOL0     C15028   4.310   2.631   0.119  0.2047 -0.3511  0.1738
  872MOL0     C15029   4.318   2.492   0.109  0.6437 -0.4514  0.2165
  872MOL0     O15030   4.450   2.447   0.121 -0.3386  0.1818 -0.1941
  872MOL0     C15031   4.468   2.302   0.130 -0.2721 -0.3797  0.4119
  872MOL0     C15032   4.616   2.257   0.141  0.3180  0.3993  0.3682
  872MOL0     C15033   4.685   2.309   0.275  0.9460 -0.5248 -0.0877
  872MOL0     C15034   4.829   2.280   0.305 -0.5071 -0.0762  0.1947
  872MOL0     C15035   4.924   2.330   0.203 -0.3478  0.4309 -0.3611
  872MOL0     C15036   5.014   2.349   0.125  0.1601  0.4611  0.4466
  872MOL0     C15037   4.201   2.416   0.098 -0.3275 -0.1616  0.4777
  872MOL0     C15038   4.082   2.482   0.083 -0.7614 -0.4987  0.1617
  872MOL0     H15039   3.711   2.812   0.201  2.2746  1.1089 -2.4481
  872MOL0     H15040   3.518   2.921   0.155 -0.4288 -3.1813  2.3044
  872MOL0     H15041   3.323   2.981   0.079 -1.9938  1.6343  0.9812
  872MOL0     H15042   3.201   3.008  -0.032  0.9136 -2.2200  0.7497
  872MOL0     H15043   3.329   3.180  -0.147  0.5889  3.6622  1.0218
  872MOL0     H15044   3.487   3.112  -0.089 -0.0126  1.2480  2.1933
  872MOL0     H15045   3.433   3.202   0.131 -1.2122 -0.7579  0.6611
  872MOL0     H15046   3.284   3.256   0.071  0.5166 -2.0666  3.4647
  872MOL0     H15047   3.436   3.377  -0.114  0.0893  1.9477  0.7273
  872MOL0     H15048   3.440   3.450   0.045 -1.1077 -0.5307 -0.5416
  872MOL0     H15049   3.667   3.256  -0.039  4.1618  1.1771  1.2000
  872MOL0     H15050   3.633   3.313   0.127  2.3435 -2.0933 -0.2375
  872MOL0     H15051   3.658   3.563   0.013  0.4876 -0.5229  1.0258
  872MOL0     H15052   3.719   3.488  -0.128  1.0333 -1.6648 -0.0152
  872MOL0     H15053   3.863   3.574   0.056  0.1066  0.8837 -0.3475
  872MOL0     H15054   3.837   3.419   0.145 -1.3218 -1.1722 -1.5852
  872MOL0     H15055   3.961   3.458  -0.130  2.3982 -0.8915  0.6389
  872MOL0     H15056   3.910   3.300  -0.083 -0.6497  0.1340 -1.8523
  872MOL0     H15057   4.097   3.157  -0.037  0.5029 -1.2857  0.2020
  872MOL0     H15058   4.289   3.055   0.135 -2.3613  1.0745 -2.1649
  872MOL0     H15059   4.392   3.164   0.218 -1.5842  0.4588  0.4226
  872MOL0     H15060   4.487   3.225  -0.032  0.5159 -0.2687  0.4368
  872MOL0     H15061   4.389   3.093  -0.081  0.7399  3.3913 -2.2368
  872MOL0     H15062   4.635   3.101   0.093  1.7443 -3.4968 -0.2897
  872MOL0     H15063   4.523   2.963   0.111 -1.5801  0.5399  0.1695
  872MOL0     H15064   4.679   3.044  -0.129  3.1362  0.2191  2.8209
  872MOL0     H15065   4.552   2.919  -0.124 -1.9343  1.9321  0.5841
  872MOL0     H15066   4.891   2.916  -0.231 -1.7054  0.5442  2.0658
  872MOL0     H15067   5.122   2.988  -0.220 -1.1214  1.3322 -0.9247
  872MOL0     H15068   5.312   3.405   0.001  1.2791  1.8893  1.7063
  872MOL0     H15069   5.547   3.527   0.064 -2.3438  1.5371 -1.9189
  872MOL0     H15070   5.913   3.314  -0.031  0.2102  3.2551 -0.4683
  872MOL0     H15071   5.886   3.268   0.141  0.4545 -0.1388  0.4828
  872MOL0     H15072   5.986   3.474   0.211  1.3793 -0.1797  0.7636
  872MOL0     H15073   6.012   3.535   0.046  2.6685 -1.5699 -1.1458
  872MOL0     H15074   6.160   3.338   0.005 -2.4718  0.6035  0.3792
  872MOL0     H15075   6.159   3.294   0.165  2.1761 -0.8433  0.4259
  872MOL0     H15076   6.247   3.573   0.067 -0.4681 -0.7865 -0.6628
  872MOL0     H15077   6.248   3.521   0.243  2.2072  0.8077 -0.1522
  872MOL0     H15078   6.409   3.360   0.209 -0.5178  1.4796  1.4857
  872MOL0     H15079   6.460   3.522   0.166 -2.3752  1.9444  0.9886
  872MOL0     H15080   6.431   3.450  -0.084 -1.1821  2.9925  3.1621
  872MOL0     H15081   6.397   3.293  -0.036  2.6975 -1.9968  0.6726
  872MOL0     H15082   6.664   3.450  -0.024 -0.6310  0.6932  0.9540
  872MOL0     H15083   6.642   3.328   0.095  0.3200 -4.8738 -1.2196
  872MOL0     H15084   6.769   3.232  -0.079  0.2995 -0.2777 -3.4223
  872MOL0     H15085   6.644   3.268  -0.197  1.9796  0.3622 -0.8252
  872MOL0     H15086   5.739   3.160  -0.066 -1.6284 -1.9905 -1.1468
  872MOL0     H15087   5.521   3.073  -0.123 -1.3977  0.9391 -1.8854
  872MOL0     H15088   5.081   3.037   0.215  0.6114  1.2592 -1.0625
  872MOL0     H15089   4.831   2.935   0.188 -0.1702  1.0662  0.1765
  872MOL0     H15090   3.490   2.717  -0.232  0.9495 -0.7197 -0.0135
  872MOL0     H15091   3.693   2.594  -0.167 -4.0025  0.0641 -3.5550
  872MOL0     H15092   4.180   2.805   0.117  0.4197  0.2260 -2.2238
  872MOL0     H15093   4.396   2.687   0.154 -0.6163  0.9190  0.1837
  872MOL0     H15094   4.414   2.258   0.045 -1.3675 -1.0096  1.3864
  872MOL0     H15095   4.417   2.271   0.222 -0.0561  1.3424  1.1469
  872MOL0     H15096   4.629   2.148   0.137  1.0840  0.5179 -0.7358
  872MOL0     H15097   4.684   2.291   0.063  1.0639 -1.1966  0.2825
  872MOL0     H15098   4.623   2.287   0.363  0.0175 -1.1767 -0.8838
  872MOL0     H15099   4.677   2.415   0.247 -1.6280 -1.5302 -3.9724
  872MOL0     H15100   4.856   2.333   0.397 -0.9476  0.5049  0.0010
  872MOL0     H15101   4.842   2.173   0.322 -0.1400  0.1878  1.7203
  872MOL0     H15102   5.089   2.386   0.058  0.5433  0.7082  1.0035
  872MOL0     H15103   4.216   2.308   0.090  0.3288 -0.1679  1.5400
  872MOL0     H15104   3.988   2.428   0.081 -2.8910  2.3862  5.2448
  873MOL0     O15105  10.330  10.821   6.522  0.7252 -0.0207 -0.5428
  873MOL0     C15106  10.275  10.751   6.446 -0.3398  0.4263  1.5262
  873MOL0     O15107  10.155  10.693   6.461 -0.0811 -0.4519 -0.5864
  873MOL0     C15108  10.086  10.726   6.573  0.1068 -0.5445 -1.0979
  873MOL0     C15109  10.079  10.645   6.690  0.1846 -0.3186 -0.1141
  873MOL0     C15110  10.003  10.676   6.799 -0.5223 -0.1589 -0.2829
  873MOL0     C15111   9.941  10.796   6.809 -0.3300  0.7034 -0.1673
  873MOL0     O15112   9.867  10.818   6.925  0.3357  0.6896 -0.2785
  873MOL0     C15113   9.804  10.951   6.946 -0.7182 -0.0999 -0.4373
  873MOL0     C15114   9.735  10.954   7.080 -0.4665  0.1603  0.0550
  873MOL0     C15115   9.600  10.893   7.077  0.4826 -0.7901 -0.5043
  873MOL0     C15116   9.534  10.902   7.214 -0.3929  0.1554 -0.5030
  873MOL0     C15117   9.490  11.037   7.261 -0.3315 -0.5426  0.0359
  873MOL0     C15118   9.479  11.022   7.421  0.6703 -0.1574  0.2451
  873MOL0     C15119   9.364  10.936   7.463  0.7512  0.4734 -0.0110
  873MOL0     C15120   9.219  10.981   7.421  0.4013  0.4374 -0.1985
  873MOL0     N15121   9.194  11.112   7.485 -0.1526  1.1745 -0.0852
  873MOL0     C15122   9.124  11.130   7.606 -0.1546  0.1301  0.5069
  873MOL0     C15123   9.103  11.262   7.623 -2.0394  0.7260  0.2841
  873MOL0     C15124   9.050  11.321   7.757 -0.3247 -0.7938 -0.5896
  873MOL0     C15125   8.945  11.222   7.813  0.6903 -0.2548 -0.8995
  873MOL0     C15126   8.908  11.283   7.951 -0.2331  0.5827 -0.4557
  873MOL0     C15127   8.775  11.242   8.011 -0.4429 -0.3699 -0.4114
  873MOL0     O15128   8.764  11.298   8.142  0.0922  0.2260  0.5059
  873MOL0     C15129   8.635  11.300   8.196 -0.9664 -0.2955 -0.6671
  873MOL0     C15130   8.603  11.404   8.280 -0.1970  0.2229 -0.5346
  873MOL0     C15131   8.489  11.401   8.359  1.0749 -0.5623 -0.1011
  873MOL0     C15132   8.393  11.300   8.334  0.3028 -0.1287 -0.2803
  873MOL0     C15133   8.263  11.286   8.412 -0.1617 -0.2281  0.8363
  873MOL0     O15134   8.241  11.381   8.503  0.5688  0.9103  0.2654
  873MOL0     C15135   8.124  11.382   8.570  0.0483 -0.0739  0.6097
  873MOL0     C15136   8.001  11.377   8.507 -0.2468  0.1799  0.1713
  873MOL0     C15137   7.877  11.387   8.567  0.5178 -0.2518 -0.1404
  873MOL0     C15138   7.874  11.388   8.710  0.1995 -0.0788  0.1744
  873MOL0     O15139   7.749  11.398   8.770  0.1838  0.1089  0.3693
  873MOL0     C15140   7.739  11.441   8.903  1.2155 -0.0271 -0.4661
  873MOL0     C15141   7.588  11.474   8.933 -0.3678 -0.7381  0.3291
  873MOL0     C15142   7.532  11.570   8.829  0.3235 -0.2682 -0.3974
  873MOL0     C15143   7.384  11.588   8.854  0.3922 -0.3191 -0.3503
  873MOL0     C15144   7.310  11.582   8.720 -0.9672 -1.0860  0.8260
  873MOL0     C15145   7.163  11.619   8.723 -0.0539  0.8553 -0.7493
  873MOL0     C15146   7.133  11.761   8.778  0.6460  0.0984  1.0135
  873MOL0     C15147   6.999  11.824   8.725  0.5754  0.5705  0.4299
  873MOL0    Cl15148   6.865  11.751   8.827 -0.0784  0.3285  0.2007
  873MOL0     C15149   7.999  11.389   8.776 -0.6887  0.2722 -0.2568
  873MOL0     C15150   8.124  11.385   8.710  0.0833 -0.2587 -0.3968
  873MOL0     O15151   8.182  11.193   8.382 -0.0229  0.7694  0.8051
  873MOL0     C15152   8.418  11.197   8.242 -0.5415 -1.1385  0.0053
  873MOL0     C15153   8.544  11.197   8.180  0.1172  0.7160 -1.0388
  873MOL0     N15154   9.143  11.315   7.500  0.2038 -0.0823  0.0610
  873MOL0     N15155   9.201  11.227   7.424 -0.1292 -0.4833  0.3643
  873MOL0     C15156   9.956  10.887   6.701  0.5081  0.2211  0.2565
  873MOL0     C15157  10.021  10.843   6.587  0.5996  0.1542 -0.6439
  873MOL0     C15158  10.341  10.728   6.313 -0.3026 -0.0467 -0.6309
  873MOL0     C15159  10.273  10.680   6.196  0.0379 -0.9600  0.4616
  873MOL0     C15160  10.341  10.665   6.076 -0.2801  0.4772 -0.5911
  873MOL0     C15161  10.476  10.696   6.054 -0.4602 -0.3884  0.3183
  873MOL0     O15162  10.542  10.699   5.930 -0.1947  0.3612 -0.3991
  873MOL0     C15163  10.466  10.644   5.817 -0.8479  0.3269 -0.1454
  873MOL0     C15164  10.534  10.644   5.685  0.2309 -0.2701 -0.0406
  873MOL0     C15165  10.668  10.580   5.684 -0.8931 -0.1491 -0.6058
  873MOL0     C15166  10.665  10.442   5.756 -0.5428 -0.3993 -1.1690
  873MOL0     C15167  10.788  10.366   5.731  0.8281  0.1930 -0.4832
  873MOL0     C15168  10.895  10.307   5.701  0.6812 -0.6423 -0.1109
  873MOL0     C15169  10.542  10.749   6.163  0.6375  0.2487  0.4731
  873MOL0     C15170  10.480  10.764   6.289 -0.8646 -0.1146 -1.3195
  873MOL0     H15171  10.133  10.551   6.683  0.4797 -0.0238 -2.8245
  873MOL0     H15172  10.001  10.611   6.886  0.4335  0.7941  0.4770
  873MOL0     H15173   9.742  10.992   6.865 -0.5867  4.9109  1.5928
  873MOL0     H15174   9.881  11.027   6.965 -1.8924  0.8798  0.6097
  873MOL0     H15175   9.718  11.055   7.116 -2.2195 -0.9387  2.6220
  873MOL0     H15176   9.797  10.903   7.155 -2.1473 -2.2068 -0.0580
  873MOL0     H15177   9.616  10.788   7.050 -1.4697 -1.6099  1.2687
  873MOL0     H15178   9.529  10.946   7.012  0.3288  1.6407  1.5168
  873MOL0     H15179   9.447  10.836   7.207 -0.8010  0.3988  1.7047
  873MOL0     H15180   9.612  10.861   7.279 -0.6987 -3.3909 -2.0983
  873MOL0     H15181   9.398  11.078   7.218 -1.8061 -1.3772  2.2439
  873MOL0     H15182   9.572  11.106   7.238  0.8439 -1.7576  0.4412
  873MOL0     H15183   9.457  11.123   7.457  1.3450  0.5184 -1.1633
  873MOL0     H15184   9.573  10.986   7.464  2.1682  2.5919 -0.5118
  873MOL0     H15185   9.378  10.829   7.441  2.7019  0.6147  0.3313
  873MOL0     H15186   9.366  10.950   7.572  2.4094  2.4832 -0.2381
  873MOL0     H15187   9.145  10.909   7.455  0.3538  0.4383 -0.3006
  873MOL0     H15188   9.216  10.994   7.312 -3.0911  3.5154  0.0700
  873MOL0     H15189   9.121  11.050   7.679  0.8766  0.8862  1.4058
  873MOL0     H15190   9.004  11.418   7.735  0.7091  0.4292  2.2162
  873MOL0     H15191   9.127  11.336   7.833 -1.3473  1.9328  0.0209
  873MOL0     H15192   8.980  11.119   7.826 -0.2049 -0.6725 -1.6806
  873MOL0     H15193   8.854  11.233   7.753  0.8041 -2.1528 -1.4860
  873MOL0     H15194   8.993  11.249   8.012 -0.8363 -2.8791 -1.3528
  873MOL0     H15195   8.903  11.391   7.937  1.4665  0.7948  0.2423
  873MOL0     H15196   8.764  11.133   8.002  1.7761 -0.8230  1.4774
  873MOL0     H15197   8.690  11.287   7.958 -0.8722  2.1347  2.1683
  873MOL0     H15198   8.656  11.498   8.293 -0.9264  0.6528 -0.6611
  873MOL0     H15199   8.456  11.486   8.417 -1.6577 -0.2993 -1.8878
  873MOL0     H15200   8.005  11.368   8.399  1.2194  2.2956 -0.0141
  873MOL0     H15201   7.790  11.400   8.503  1.2712  1.1076 -0.9453
  873MOL0     H15202   7.805  11.525   8.924  0.1134 -0.0890  4.8249
  873MOL0     H15203   7.770  11.360   8.970  2.3606 -0.1092 -1.0785
  873MOL0     H15204   7.588  11.514   9.035  2.3279 -0.9159  0.4849
  873MOL0     H15205   7.543  11.375   8.931  1.6898 -1.7186 -0.2368
  873MOL0     H15206   7.541  11.510   8.738  1.4787  0.2786 -0.6594
  873MOL0     H15207   7.582  11.667   8.823  0.9696 -0.4933  0.8729
  873MOL0     H15208   7.355  11.500   8.913 -1.4203 -0.3589 -1.2381
  873MOL0     H15209   7.352  11.675   8.911 -0.4354  0.6999 -2.2942
  873MOL0     H15210   7.318  11.481   8.677  1.3146 -0.6980  0.2230
  873MOL0     H15211   7.361  11.649   8.651 -1.4716 -0.4746  1.0343
  873MOL0     H15212   7.123  11.554   8.801  0.5814  0.9878 -0.3001
  873MOL0     H15213   7.128  11.603   8.621 -2.2724 -1.5412  0.2636
  873MOL0     H15214   7.129  11.770   8.887  0.1983  0.8573  0.9389
  873MOL0     H15215   7.202  11.836   8.738 -1.3659  0.3154 -2.4330
  873MOL0     H15216   6.996  11.808   8.617 -1.0372  1.4693  0.3133
  873MOL0     H15217   6.981  11.932   8.735 -0.4627  0.6981 -2.1139
  873MOL0     H15218   8.005  11.406   8.882 -0.3081  2.6457 -0.6105
  873MOL0     H15219   8.217  11.390   8.766 -1.5995  1.0482  2.5412
  873MOL0     H15220   8.353  11.114   8.217  1.8599 -1.8754 -5.3327
  873MOL0     H15221   8.566  11.109   8.119 -1.0583 -1.0332  0.9257
  873MOL0     H15222   9.905  10.983   6.707  0.5850  0.1955  1.9556
  873MOL0     H15223  10.026  10.915   6.507 -3.5627  1.4543  0.0149
  873MOL0     H15224  10.165  10.666   6.199  0.2187 -2.2961  2.8104
  873MOL0     H15225  10.271  10.644   5.995 -1.1128 -0.3089  0.2940
  873MOL0     H15226  10.371  10.697   5.804 -0.9436  0.2158  0.0946
  873MOL0     H15227  10.440  10.542   5.846 -0.7513  0.5632  0.7920
  873MOL0     H15228  10.460  10.591   5.623  0.6425 -3.1241  1.7131
  873MOL0     H15229  10.550  10.749   5.658 -1.3570  0.2541  0.9403
  873MOL0     H15230  10.737  10.650   5.732  1.5909 -1.5055 -2.0080
  873MOL0     H15231  10.693  10.570   5.578 -0.3108 -0.5992 -0.4284
  873MOL0     H15232  10.665  10.460   5.864 -0.0257  0.3272 -1.2821
  873MOL0     H15233  10.574  10.389   5.724 -0.1902 -1.5628 -0.3168
  873MOL0     H15234  10.972  10.242   5.664  0.3832  0.2715 -2.5709
  873MOL0     H15235  10.645  10.783   6.155  0.0601  2.4080  1.4077
  873MOL0     H15236  10.534  10.814   6.370  3.2708 -0.5315 -3.5356
  874MOL0     O15237  10.607   1.485   2.953 -0.6231 -0.1168 -0.2766
  874MOL0     C15238  10.693   1.414   2.903 -0.3532  0.2788  1.3111
  874MOL0     O15239  10.669   1.326   2.813  0.2245 -0.3455  0.2682
  874MOL0     C15240  10.552   1.323   2.739  0.0844 -0.6538  0.0830
  874MOL0     C15241  10.443   1.414   2.739  0.2654  0.6392 -0.3047
  874MOL0     C15242  10.331   1.374   2.678 -0.3345 -0.0341  0.5987
  874MOL0     C15243  10.306   1.252   2.616 -0.7864 -0.4760  1.3209
  874MOL0     O15244  10.183   1.215   2.560 -0.3518 -0.1389 -0.6718
  874MOL0     C15245  10.099   1.319   2.511 -0.6177 -0.6435  0.6782
  874MOL0     C15246   9.996   1.264   2.406  0.4285  0.3562 -0.6228
  874MOL0     C15247   9.883   1.194   2.478 -0.0587 -0.1511 -0.9484
  874MOL0     C15248   9.789   1.145   2.364  0.1058  0.7371  0.4299
  874MOL0     C15249   9.663   1.077   2.408  0.0130  1.2949 -0.4244
  874MOL0     C15250   9.536   1.123   2.350 -0.1646 -0.1104 -0.0084
  874MOL0     C15251   9.411   1.039   2.385  0.3505 -0.4706  0.3100
  874MOL0     C15252   9.405   0.900   2.310  0.4124  0.1731 -0.1462
  874MOL0     N15253   9.308   0.892   2.203  0.1083  0.9101 -0.0040
  874MOL0     C15254   9.192   0.813   2.197  0.5299 -0.3995 -0.1284
  874MOL0     C15255   9.124   0.847   2.085  0.9501  0.1506  1.3869
  874MOL0     C15256   8.987   0.786   2.045  0.3237 -0.5887 -0.2571
  874MOL0     C15257   8.984   0.724   1.916  0.6692  0.3251 -0.6756
  874MOL0     C15258   9.004   0.813   1.786  0.4429 -0.2356 -0.0458
  874MOL0     C15259   8.868   0.897   1.770 -0.0772 -0.9250 -0.2890
  874MOL0     O15260   8.773   0.799   1.731 -0.1988  0.3006 -0.2688
  874MOL0     C15261   8.655   0.846   1.695 -0.4031 -1.2498  0.5436
  874MOL0     C15262   8.540   0.789   1.737  2.2116  0.8269 -0.4920
  874MOL0     C15263   8.406   0.830   1.707  0.5790  0.1105  0.4363
  874MOL0     C15264   8.393   0.944   1.621  0.2992 -0.0514 -0.7397
  874MOL0     C15265   8.262   0.982   1.571 -0.0510  0.4183  0.1027
  874MOL0     O15266   8.164   0.888   1.557 -0.3150 -0.2807  0.2842
  874MOL0     C15267   8.030   0.921   1.556  0.3896  0.6292  0.6691
  874MOL0     C15268   7.943   0.827   1.623 -0.2958 -0.2410 -0.0998
  874MOL0     C15269   7.811   0.841   1.615  0.4690 -0.7850 -0.9527
  874MOL0     C15270   7.758   0.961   1.564  0.0207  0.3565  1.2482
  874MOL0     O15271   7.626   0.981   1.550  0.6260 -0.0881  0.1822
  874MOL0     C15272   7.566   0.918   1.433  0.6361 -0.8957  0.7539
  874MOL0     C15273   7.550   1.021   1.313  0.5055  0.0336 -0.5938
  874MOL0     C15274   7.444   0.966   1.218  0.4425 -0.5652  0.1698
  874MOL0     C15275   7.414   1.066   1.098 -0.4149 -0.3351  0.2926
  874MOL0     C15276   7.339   1.008   0.977  0.4612  0.1750 -0.1733
  874MOL0     C15277   7.410   0.916   0.876 -0.2939  0.2326  0.4671
  874MOL0     C15278   7.322   0.865   0.762 -0.1679 -0.3797  0.2944
  874MOL0     C15279   7.361   0.715   0.722 -0.3889 -0.0324 -0.1274
  874MOL0    Cl15280   7.526   0.690   0.659  0.0494  0.1168 -0.3088
  874MOL0     C15281   7.841   1.055   1.510 -0.3844 -0.4428 -0.0205
  874MOL0     C15282   7.979   1.043   1.499  0.3079 -0.3903  0.0814
  874MOL0     O15283   8.247   1.103   1.551 -0.0603 -0.4702  0.3711
  874MOL0     C15284   8.514   1.011   1.582  0.6800  0.1093 -0.3176
  874MOL0     C15285   8.640   0.967   1.613 -1.0488  0.3768  0.4575
  874MOL0     N15286   9.207   0.952   2.022  0.1345  0.4943 -0.1545
  874MOL0     N15287   9.313   0.973   2.090 -1.1297  0.5243 -0.7015
  874MOL0     C15288  10.423   1.180   2.592  0.2907  0.2752 -0.1779
  874MOL0     C15289  10.540   1.210   2.659  0.5213  0.4091 -0.7076
  874MOL0     C15290  10.824   1.409   2.969  0.2170  0.5782 -1.1551
  874MOL0     C15291  10.844   1.451   3.105  0.7435 -0.3813  0.2993
  874MOL0     C15292  10.959   1.428   3.173 -0.6159 -0.3730 -0.3930
  874MOL0     C15293  11.073   1.363   3.110  0.9939 -0.2981  0.5318
  874MOL0     O15294  11.191   1.353   3.175 -0.2780  0.2837  0.1726
  874MOL0     C15295  11.295   1.291   3.105  1.0897  0.0654 -0.1356
  874MOL0     C15296  11.416   1.238   3.197 -0.4567  0.4509  0.1532
  874MOL0     C15297  11.525   1.187   3.106  0.3407 -0.6505 -0.2000
  874MOL0     C15298  11.657   1.193   3.182 -0.4135  0.9231  0.7629
  874MOL0     C15299  11.700   1.328   3.186 -0.3079 -0.7276 -0.5620
  874MOL0     C15300  11.746   1.443   3.191 -0.8554  0.4575 -0.4872
  874MOL0     C15301  11.056   1.332   2.970 -0.5197 -0.1350 -1.1669
  874MOL0     C15302  10.932   1.350   2.908 -0.7466 -0.5274  0.0371
  874MOL0     H15303  10.445   1.516   2.776  1.7400  0.2422  0.7913
  874MOL0     H15304  10.253   1.448   2.664 -0.4242 -0.5843 -2.5676
  874MOL0     H15305  10.170   1.390   2.467 -1.0998 -0.0268  0.8842
  874MOL0     H15306  10.048   1.363   2.597  2.7531  0.5858  2.2538
  874MOL0     H15307  10.037   1.194   2.332 -0.5815 -1.2031  0.2428
  874MOL0     H15308   9.953   1.348   2.351 -0.9251 -0.9614 -1.6655
  874MOL0     H15309   9.830   1.252   2.554 -0.1686 -0.3519 -0.8704
  874MOL0     H15310   9.922   1.111   2.538  0.8277  0.4414 -0.6767
  874MOL0     H15311   9.756   1.238   2.317  3.1182  1.8078  0.2049
  874MOL0     H15312   9.840   1.083   2.290 -0.4835  2.8953 -1.9043
  874MOL0     H15313   9.648   1.089   2.516 -0.3473  2.6485 -0.6151
  874MOL0     H15314   9.673   0.970   2.387  0.2067  1.0903  0.6315
  874MOL0     H15315   9.545   1.152   2.244  0.7598 -0.1895  0.0451
  874MOL0     H15316   9.530   1.220   2.401  0.1517 -0.5952  0.9719
  874MOL0     H15317   9.400   1.031   2.493  2.7103  0.5293  0.6717
  874MOL0     H15318   9.322   1.101   2.369 -0.9923 -2.3787  0.0417
  874MOL0     H15319   9.380   0.819   2.379  0.4673 -1.5222 -2.0217
  874MOL0     H15320   9.506   0.875   2.276 -0.7059 -0.7633 -3.1244
  874MOL0     H15321   9.161   0.734   2.264 -0.9014 -1.0105 -1.4717
  874MOL0     H15322   8.914   0.867   2.047  1.0192  0.0410  0.8067
  874MOL0     H15323   8.967   0.715   2.126  2.3059 -0.3549  0.4751
  874MOL0     H15324   8.890   0.669   1.904  1.1503 -0.2582 -1.9944
  874MOL0     H15325   9.062   0.648   1.917  1.1279  0.7467 -2.2675
  874MOL0     H15326   9.090   0.880   1.791  0.7279 -0.5421 -0.6439
  874MOL0     H15327   9.028   0.745   1.703 -0.5578 -2.3882  1.3294
  874MOL0     H15328   8.891   0.962   1.685  2.2526  0.1640  1.0759
  874MOL0     H15329   8.842   0.959   1.856  1.1294 -1.4256  0.4546
  874MOL0     H15330   8.547   0.702   1.800 -1.8811  0.3913 -0.3697
  874MOL0     H15331   8.318   0.792   1.757  1.0474  1.6436  2.5497
  874MOL0     H15332   7.991   0.748   1.679 -2.8844 -3.5153 -2.1659
  874MOL0     H15333   7.734   0.768   1.638 -2.8384  2.6173 -0.0386
  874MOL0     H15334   7.463   0.890   1.457  0.1975 -0.9093 -0.9867
  874MOL0     H15335   7.620   0.829   1.400 -0.8954 -1.8404  0.6860
  874MOL0     H15336   7.649   1.042   1.272  0.5838  0.0511 -0.3999
  874MOL0     H15337   7.517   1.117   1.355 -0.1824 -0.6791  0.5471
  874MOL0     H15338   7.349   0.951   1.270 -0.6629  1.9557 -0.9583
  874MOL0     H15339   7.492   0.873   1.186 -0.8976 -1.1321 -0.2658
  874MOL0     H15340   7.355   1.147   1.141 -0.2575 -0.0562 -0.0165
  874MOL0     H15341   7.508   1.107   1.061 -1.6141 -0.5039 -3.3735
  874MOL0     H15342   7.296   1.096   0.928 -1.2822  0.1940  1.2761
  874MOL0     H15343   7.257   0.955   1.026 -0.7374  1.1607 -1.0455
  874MOL0     H15344   7.457   0.829   0.923  0.2313  0.7850  0.9701
  874MOL0     H15345   7.491   0.971   0.828  2.0823 -1.1683  2.6539
  874MOL0     H15346   7.213   0.871   0.776  0.1987  0.2207  3.5521
  874MOL0     H15347   7.351   0.928   0.677 -1.4119 -0.5916 -0.3210
  874MOL0     H15348   7.289   0.681   0.647  0.2904  0.3442 -0.9553
  874MOL0     H15349   7.330   0.644   0.800 -1.2454  1.6879  1.1692
  874MOL0     H15350   7.789   1.146   1.482 -0.3776 -0.3559  0.2452
  874MOL0     H15351   8.034   1.112   1.436 -0.4834 -1.6798 -2.1274
  874MOL0     H15352   8.510   1.098   1.517  0.4396  1.6625  1.6846
  874MOL0     H15353   8.722   1.020   1.566 -1.5221  0.9144  0.2365
  874MOL0     H15354  10.423   1.088   2.533  0.3702 -0.0575  0.3411
  874MOL0     H15355  10.618   1.134   2.656 -0.5769 -0.7492 -0.3830
  874MOL0     H15356  10.758   1.502   3.148  1.1441 -0.8859  1.7361
  874MOL0     H15357  10.966   1.462   3.276  2.9869 -2.3613  0.2058
  874MOL0     H15358  11.337   1.368   3.040  3.3591 -1.5747 -0.7782
  874MOL0     H15359  11.267   1.205   3.043  0.1023 -1.1489  1.8849
  874MOL0     H15360  11.450   1.308   3.274  3.5756 -1.5703  0.4493
  874MOL0     H15361  11.372   1.150   3.244 -1.7371  0.9789 -0.0132
  874MOL0     H15362  11.534   1.252   3.018 -2.1194 -3.0933 -2.4643
  874MOL0     H15363  11.496   1.086   3.074 -1.3340 -0.4359  0.5572
  874MOL0     H15364  11.626   1.162   3.282 -0.4137 -2.1836 -0.1112
  874MOL0     H15365  11.726   1.120   3.139 -0.3617 -0.0072  2.3641
  874MOL0     H15366  11.782   1.543   3.204 -0.8888  0.1361  2.7025
  874MOL0     H15367  11.143   1.294   2.917 -0.0530  0.9511 -1.2096
  874MOL0     H15368  10.922   1.312   2.808  0.2050  2.0483 -1.1326
  875MOL0     O15369   7.297   4.086   2.423  0.2326 -0.3028 -0.1199
  875MOL0     C15370   7.352   4.189   2.390 -0.5763 -0.5101 -0.1287
  875MOL0     O15371   7.292   4.305   2.342 -0.7565 -0.1490 -0.4746
  875MOL0     C15372   7.161   4.303   2.328 -0.6703  0.3042  0.4823
  875MOL0     C15373   7.068   4.355   2.425 -0.5746 -0.1178 -0.3264
  875MOL0     C15374   6.935   4.334   2.423  1.0873 -0.1143  0.4455
  875MOL0     C15375   6.887   4.270   2.305  0.8048 -0.4047  0.0191
  875MOL0     O15376   6.751   4.276   2.285  0.9883  0.2689  0.0133
  875MOL0     C15377   6.692   4.185   2.201  0.7134 -0.2908 -0.4047
  875MOL0     C15378   6.536   4.204   2.212 -0.2296  0.8946 -0.2159
  875MOL0     C15379   6.454   4.101   2.139  0.2883 -0.7738 -0.3386
  875MOL0     C15380   6.300   4.123   2.152  0.1758  0.1155  0.4957
  875MOL0     C15381   6.231   4.025   2.068  0.6092 -0.4502  0.3083
  875MOL0     C15382   6.082   4.045   2.081  0.1158 -0.2980  0.6207
  875MOL0     C15383   5.998   3.939   2.022  0.2090  0.5414  1.1078
  875MOL0     C15384   5.848   3.989   2.039 -0.4368  0.4710  1.2132
  875MOL0     N15385   5.753   3.908   1.966  0.5226  0.4033  0.9917
  875MOL0     C15386   5.748   3.898   1.833 -0.3266  0.0728 -0.2029
  875MOL0     C15387   5.662   3.800   1.809  0.4026  1.4705 -0.0836
  875MOL0     C15388   5.607   3.728   1.687  1.2729  0.1592 -0.0185
  875MOL0     C15389   5.506   3.816   1.618 -0.7661  0.6142 -0.0180
  875MOL0     C15390   5.369   3.826   1.683  0.6576  0.1527  0.3067
  875MOL0     C15391   5.251   3.879   1.595 -0.2807  0.4329 -0.3546
  875MOL0     O15392   5.140   3.876   1.681 -0.0134  0.2002 -0.4589
  875MOL0     C15393   5.029   3.951   1.648 -0.5661 -0.8690 -0.2258
  875MOL0     C15394   5.008   3.996   1.514 -0.5390 -0.3098  0.6583
  875MOL0     C15395   4.901   4.085   1.480 -0.8883  0.7562 -0.5634
  875MOL0     C15396   4.804   4.113   1.581  0.4576 -0.0638  0.0421
  875MOL0     C15397   4.678   4.177   1.544  0.6446 -0.0113 -1.2526
  875MOL0     O15398   4.602   4.209   1.656  0.1999  1.1044 -0.4537
  875MOL0     C15399   4.472   4.261   1.647  1.4404  0.8310 -0.4798
  875MOL0     C15400   4.419   4.337   1.754 -0.0417  0.3165  0.1368
  875MOL0     C15401   4.288   4.374   1.756 -0.2329  0.2908 -0.2172
  875MOL0     C15402   4.198   4.327   1.660 -0.1834  0.4068 -1.5834
  875MOL0     O15403   4.061   4.358   1.660  0.2172 -0.2003 -0.2978
  875MOL0     C15404   4.007   4.439   1.761 -1.1175 -0.0541  0.8524
  875MOL0     C15405   3.854   4.444   1.745 -1.1410 -0.5455 -0.5001
  875MOL0     C15406   3.793   4.318   1.816 -0.2417 -0.0287 -0.4793
  875MOL0     C15407   3.643   4.299   1.783 -0.3159  0.2253  0.3826
  875MOL0     C15408   3.555   4.199   1.855 -0.2840 -0.1804 -0.1737
  875MOL0     C15409   3.406   4.217   1.818 -0.0300  0.3045 -0.8509
  875MOL0     C15410   3.287   4.178   1.915  0.0414 -0.0039 -0.6707
  875MOL0     C15411   3.154   4.199   1.848 -0.0287 -0.9887 -0.1848
  875MOL0    Cl15412   3.125   4.372   1.809 -0.1458 -0.1748  0.6268
  875MOL0     C15413   4.246   4.249   1.553  1.1573  0.2019 -0.5389
  875MOL0     C15414   4.381   4.207   1.553 -0.6631 -0.0413 -0.6183
  875MOL0     O15415   4.653   4.203   1.431  0.8558 -0.0481 -0.2566
  875MOL0     C15416   4.820   4.062   1.710  0.0592  0.7035  0.0144
  875MOL0     C15417   4.940   3.989   1.752  0.2207  0.0193  0.5501
  875MOL0     N15418   5.626   3.737   1.932 -0.6191 -0.1173  0.0616
  875MOL0     N15419   5.672   3.818   2.022  0.3213  0.0389 -0.4137
  875MOL0     C15420   6.970   4.216   2.204 -0.1250  0.3464 -0.7601
  875MOL0     C15421   7.106   4.226   2.219 -0.2270 -0.5705  0.4208
  875MOL0     C15422   7.501   4.199   2.416  0.4857  0.0828  0.3530
  875MOL0     C15423   7.567   4.313   2.371  0.2860 -0.4024 -0.1349
  875MOL0     C15424   7.713   4.323   2.394  0.3201 -0.2669  0.0170
  875MOL0     C15425   7.780   4.223   2.467 -0.2939  0.4360  0.1640
  875MOL0     O15426   7.914   4.252   2.478  0.1917 -0.3313  0.0282
  875MOL0     C15427   8.007   4.170   2.554  0.5992  0.7551 -0.0317
  875MOL0     C15428   8.150   4.192   2.504 -0.3043  0.2371 -0.3530
  875MOL0     C15429   8.256   4.114   2.586 -0.9039  0.5280 -0.3786
  875MOL0     C15430   8.401   4.143   2.543 -0.1714 -0.7092 -0.0322
  875MOL0     C15431   8.494   4.057   2.623 -0.5194 -1.0977  1.4419
  875MOL0     C15432   8.571   3.992   2.690 -0.2986 -0.0472 -0.3796
  875MOL0     C15433   7.711   4.112   2.520 -0.2476  0.1895 -1.0629
  875MOL0     C15434   7.570   4.102   2.497  0.0817 -0.8992 -0.5594
  875MOL0     H15435   7.100   4.406   2.515 -0.0235 -2.5282  0.9126
  875MOL0     H15436   6.870   4.378   2.497  0.1919 -0.4365 -0.1240
  875MOL0     H15437   6.726   4.085   2.227 -0.3795 -0.3262  1.0540
  875MOL0     H15438   6.709   4.209   2.096  0.9072 -0.5534 -0.4316
  875MOL0     H15439   6.506   4.307   2.191 -2.9171  0.5267  1.3817
  875MOL0     H15440   6.518   4.178   2.317  2.2785 -0.7250 -0.0980
  875MOL0     H15441   6.483   4.004   2.180  2.5575 -0.4319 -0.9904
  875MOL0     H15442   6.478   4.114   2.033  0.7424  1.4412 -0.0071
  875MOL0     H15443   6.287   4.111   2.260  2.0951 -0.0944  0.7450
  875MOL0     H15444   6.282   4.228   2.127  2.0956  0.2133 -0.7167
  875MOL0     H15445   6.261   3.927   2.107  1.2991 -1.0766 -1.6551
  875MOL0     H15446   6.262   4.029   1.963  0.6343 -0.9679  0.2909
  875MOL0     H15447   6.060   4.144   2.040  3.0385 -0.8362 -2.7157
  875MOL0     H15448   6.051   4.052   2.186 -1.4433 -1.8974  0.3205
  875MOL0     H15449   6.022   3.932   1.916 -0.8149  5.0108  0.3939
  875MOL0     H15450   6.012   3.840   2.066 -1.5382 -0.0164  0.5024
  875MOL0     H15451   5.845   4.086   1.990 -0.2014 -1.3199 -2.7064
  875MOL0     H15452   5.819   4.005   2.143 -1.9007 -3.1904  1.5126
  875MOL0     H15453   5.803   3.946   1.753  0.5461 -1.0988 -0.3390
  875MOL0     H15454   5.569   3.629   1.713 -2.3976  1.7376  1.2859
  875MOL0     H15455   5.693   3.712   1.621  1.6325 -1.9779  0.8767
  875MOL0     H15456   5.486   3.787   1.515  1.1559  3.9425 -1.5013
  875MOL0     H15457   5.543   3.917   1.599  2.0923 -0.6211 -1.5451
  875MOL0     H15458   5.332   3.725   1.702  1.6042 -1.3160 -4.3562
  875MOL0     H15459   5.379   3.885   1.775  3.1099  1.6482 -0.8081
  875MOL0     H15460   5.236   3.832   1.498  0.9509 -1.3926  0.2985
  875MOL0     H15461   5.276   3.983   1.572  0.3958 -0.1850 -2.5926
  875MOL0     H15462   5.073   3.978   1.430  0.5347  2.1464  0.9067
  875MOL0     H15463   4.886   4.105   1.375 -1.4906 -1.2668 -0.8978
  875MOL0     H15464   4.497   4.354   1.827 -0.0988  0.0025  0.2711
  875MOL0     H15465   4.245   4.429   1.840 -2.1073 -0.5947 -0.5426
  875MOL0     H15466   4.049   4.540   1.752 -1.1564 -0.0510  0.7014
  875MOL0     H15467   4.037   4.408   1.861  0.3583  0.9934  0.7710
  875MOL0     H15468   3.825   4.444   1.640  1.6221 -2.7905 -1.3635
  875MOL0     H15469   3.814   4.531   1.799  0.0548 -0.9391  1.1041
  875MOL0     H15470   3.791   4.335   1.924 -4.0018 -1.1183 -0.2399
  875MOL0     H15471   3.850   4.225   1.806  2.5338  1.5250 -0.1378
  875MOL0     H15472   3.611   4.401   1.805  0.6670  0.4645  0.7311
  875MOL0     H15473   3.629   4.291   1.675  1.3524  0.0217  0.1666
  875MOL0     H15474   3.569   4.207   1.964 -0.7954 -1.4541  0.0083
  875MOL0     H15475   3.588   4.096   1.838 -0.7537 -0.8316  2.3473
  875MOL0     H15476   3.388   4.163   1.725 -1.9110 -2.0149  0.7484
  875MOL0     H15477   3.401   4.326   1.811  3.8229  0.6319 -0.3412
  875MOL0     H15478   3.292   4.070   1.927 -2.5088  0.0691  2.2727
  875MOL0     H15479   3.300   4.227   2.012 -0.8237  1.6312 -1.3471
  875MOL0     H15480   3.071   4.153   1.902 -0.5051 -0.6867 -0.6517
  875MOL0     H15481   3.148   4.136   1.758 -0.4149 -1.4865  0.1796
  875MOL0     H15482   4.184   4.211   1.472  0.6942  1.5641 -0.8502
  875MOL0     H15483   4.427   4.136   1.485 -0.1000  0.9644 -1.3193
  875MOL0     H15484   4.750   4.073   1.793 -0.5064 -5.1259  0.7591
  875MOL0     H15485   4.965   3.963   1.854 -1.7015  1.5689  1.4869
  875MOL0     H15486   6.922   4.183   2.112 -2.7548  0.6434  0.3987
  875MOL0     H15487   7.178   4.191   2.145  1.0195  1.3946  0.6401
  875MOL0     H15488   7.526   4.392   2.309  0.5526 -0.9761 -1.0636
  875MOL0     H15489   7.765   4.399   2.337  0.3699 -0.3219 -0.0107
  875MOL0     H15490   7.987   4.063   2.538 -1.2993  1.2608 -1.4508
  875MOL0     H15491   7.995   4.202   2.658  3.7638  0.4340  0.5308
  875MOL0     H15492   8.153   4.159   2.400 -3.0541 -3.1725  0.4788
  875MOL0     H15493   8.178   4.298   2.498 -0.5441  0.4802  1.9368
  875MOL0     H15494   8.247   4.005   2.581  0.4202  0.3911 -0.0737
  875MOL0     H15495   8.253   4.137   2.693 -0.0958  2.7580 -0.7787
  875MOL0     H15496   8.409   4.129   2.435  0.3871  4.0633 -0.8159
  875MOL0     H15497   8.429   4.241   2.581  0.0488 -0.5824 -0.5300
  875MOL0     H15498   8.624   3.921   2.750 -1.9772 -1.3381 -0.3464
  875MOL0     H15499   7.757   4.027   2.570  0.0485  0.1047 -1.4747
  875MOL0     H15500   7.507   4.021   2.533 -0.5780  0.1009  0.5929
  876MOL0     O15501   5.266   6.344   1.982  0.4573 -0.7936  0.2382
  876MOL0     C15502   5.230   6.237   2.034  0.2603  0.3907 -0.0654
  876MOL0     O15503   5.327   6.139   2.078  0.6716 -0.0605  0.3535
  876MOL0     C15504   5.460   6.153   2.039 -0.2006 -1.6197 -0.5952
  876MOL0     C15505   5.504   6.179   1.906 -0.0075  0.6541 -0.4961
  876MOL0     C15506   5.636   6.199   1.876  0.2642 -0.2885 -0.2626
  876MOL0     C15507   5.739   6.186   1.972  0.3864  0.9997 -0.0090
  876MOL0     O15508   5.876   6.185   1.945  0.4610 -0.4113 -0.3523
  876MOL0     C15509   5.927   6.296   1.864 -0.2679 -1.1396 -0.0327
  876MOL0     C15510   6.073   6.304   1.872  0.1482  0.9631  0.7158
  876MOL0     C15511   6.127   6.354   1.740 -0.2355  0.2724 -0.5965
  876MOL0     C15512   6.275   6.303   1.740 -0.2262  0.3583 -0.3079
  876MOL0     C15513   6.338   6.338   1.604 -1.3599 -0.2666 -0.3421
  876MOL0     C15514   6.287   6.252   1.491 -0.3103  0.0578 -0.2193
  876MOL0     C15515   6.394   6.182   1.409  0.0508 -0.4412  0.0619
  876MOL0     C15516   6.333   6.092   1.297  0.1925  0.7206  0.0949
  876MOL0     N15517   6.277   6.152   1.179  0.0512 -0.4761  0.9721
  876MOL0     C15518   6.269   6.289   1.148 -1.2110  0.4777  0.5391
  876MOL0     C15519   6.199   6.299   1.033 -0.4472  0.1805  0.1793
  876MOL0     C15520   6.148   6.432   0.972  0.2452  0.2712  0.1060
  876MOL0     C15521   6.033   6.485   1.059  0.7320  0.7008 -0.5736
  876MOL0     C15522   5.974   6.616   0.997 -0.4660 -0.2706  0.7843
  876MOL0     C15523   5.822   6.647   1.020 -1.0810  0.3168 -0.3466
  876MOL0     O15524   5.745   6.526   1.035 -0.1966  0.1275 -0.4276
  876MOL0     C15525   5.606   6.538   1.033 -0.0126 -0.4128  0.0665
  876MOL0     C15526   5.529   6.420   1.036 -0.9385 -0.6755 -0.9412
  876MOL0     C15527   5.392   6.432   1.051 -0.1138 -0.5114  0.4663
  876MOL0     C15528   5.332   6.560   1.039 -0.5577  0.4263  0.2532
  876MOL0     C15529   5.189   6.581   1.050  1.0795 -0.1363 -0.5106
  876MOL0     O15530   5.141   6.709   1.047  0.2669  0.6634 -0.0782
  876MOL0     C15531   5.009   6.732   1.065  0.5710  0.3320  0.4433
  876MOL0     C15532   4.911   6.687   0.968  0.2772 -0.0436  0.1543
  876MOL0     C15533   4.781   6.714   0.972  0.9023 -0.3281  0.4042
  876MOL0     C15534   4.731   6.784   1.082 -1.0005 -0.5072  0.0874
  876MOL0     O15535   4.594   6.792   1.099 -1.5100 -0.0249 -0.4687
  876MOL0     C15536   4.558   6.899   1.186 -0.3585 -0.1945 -0.0545
  876MOL0     C15537   4.410   6.914   1.174 -0.3198 -0.1535 -0.3568
  876MOL0     C15538   4.369   6.992   1.048  0.3143  0.4438  0.2109
  876MOL0     C15539   4.214   6.975   1.035 -0.8510 -0.5891  0.2184
  876MOL0     C15540   4.170   7.065   0.915  0.1584  0.1032 -0.7014
  876MOL0     C15541   4.176   7.219   0.941  0.9340  0.0565 -0.0468
  876MOL0     C15542   4.055   7.265   1.020  0.8223  0.2574 -0.6112
  876MOL0     C15543   4.046   7.421   1.018  0.4364  0.0634  0.5103
  876MOL0    Cl15544   4.193   7.503   1.083 -0.2400  0.0214  0.6569
  876MOL0     C15545   4.819   6.827   1.184  0.8200 -0.2152 -0.5854
  876MOL0     C15546   4.955   6.799   1.172 -0.1517 -0.2122 -0.2318
  876MOL0     O15547   5.129   6.478   1.086  0.4794  0.4311  0.1517
  876MOL0     C15548   5.405   6.677   1.019 -0.0665 -0.3140 -0.2710
  876MOL0     C15549   5.541   6.670   1.021 -0.9362  0.3329  0.2793
  876MOL0     N15550   6.177   6.175   0.987 -0.0671 -0.8493 -0.1695
  876MOL0     N15551   6.216   6.092   1.072  0.2291  0.2979 -0.3926
  876MOL0     C15552   5.699   6.153   2.105  0.6691  0.2874 -0.1050
  876MOL0     C15553   5.565   6.123   2.126  0.1580  0.0133 -0.0514
  876MOL0     C15554   5.093   6.197   2.025 -0.0449 -0.3419 -0.6162
  876MOL0     C15555   5.055   6.065   2.064 -0.5435 -0.9127  0.0908
  876MOL0     C15556   4.917   6.029   2.058 -0.0490  0.0250  1.6852
  876MOL0     C15557   4.826   6.114   2.010  0.9658  0.7783  1.1749
  876MOL0     O15558   4.697   6.066   2.015  0.8705  0.7013  0.0221
  876MOL0     C15559   4.589   6.144   1.955 -0.4408 -0.7993 -0.1190
  876MOL0     C15560   4.460   6.073   2.003  0.2610  0.3692  0.3421
  876MOL0     C15561   4.458   6.082   2.154 -0.2617  0.1889 -1.2617
  876MOL0     C15562   4.344   6.008   2.215 -0.0802 -0.7893 -0.7605
  876MOL0     C15563   4.210   6.053   2.160 -0.1787  0.3064  0.1876
  876MOL0     C15564   4.122   6.120   2.108  0.5112  0.3026 -0.0443
  876MOL0     C15565   4.866   6.232   1.957 -0.2185  0.0231 -0.3395
  876MOL0     C15566   5.002   6.274   1.969  0.1073  0.1668  0.6612
  876MOL0     H15567   5.430   6.198   1.829  0.6988  1.4565 -0.9992
  876MOL0     H15568   5.653   6.221   1.771  0.8695 -0.9957 -0.3222
  876MOL0     H15569   5.881   6.390   1.897 -0.4243 -1.3270  0.2797
  876MOL0     H15570   5.889   6.278   1.763 -0.0678 -0.9048 -0.1511
  876MOL0     H15571   6.103   6.199   1.884 -1.0358  0.4700 -0.3870
  876MOL0     H15572   6.112   6.351   1.962  1.0843 -0.6824  1.2247
  876MOL0     H15573   6.121   6.463   1.752  2.2762  0.2446  1.9068
  876MOL0     H15574   6.070   6.316   1.654  0.8409  1.5550 -1.9173
  876MOL0     H15575   6.332   6.356   1.816 -1.8003 -0.8709  1.8307
  876MOL0     H15576   6.286   6.197   1.766  1.4324  0.2126 -1.4473
  876MOL0     H15577   6.446   6.325   1.616 -0.4849  2.5424 -3.4145
  876MOL0     H15578   6.326   6.446   1.590 -2.7231 -0.3449  0.0241
  876MOL0     H15579   6.222   6.314   1.428 -0.5364 -0.0308 -0.0769
  876MOL0     H15580   6.219   6.175   1.529 -0.6052  0.5284  0.2209
  876MOL0     H15581   6.471   6.244   1.362  0.9989 -1.1796  0.5869
  876MOL0     H15582   6.442   6.104   1.469 -0.4287 -0.7233  0.0864
  876MOL0     H15583   6.250   6.037   1.342 -1.7877 -0.3378 -4.2345
  876MOL0     H15584   6.413   6.024   1.267 -0.1277  0.3749  0.0197
  876MOL0     H15585   6.312   6.367   1.209 -1.1641 -1.2620  2.8673
  876MOL0     H15586   6.115   6.420   0.868 -0.5428 -1.8938  0.5400
  876MOL0     H15587   6.230   6.504   0.977  1.6263 -1.2863  1.1559
  876MOL0     H15588   6.047   6.495   1.167 -0.6541  0.1561 -0.3277
  876MOL0     H15589   5.958   6.406   1.060 -0.2353  1.5765  1.1987
  876MOL0     H15590   6.034   6.700   1.033 -0.1534  0.6223 -1.6728
  876MOL0     H15591   5.993   6.604   0.890  0.0483 -1.4172  0.9809
  876MOL0     H15592   5.790   6.712   0.939  2.2504  4.2587  1.1169
  876MOL0     H15593   5.819   6.705   1.112 -0.0241 -0.4444  0.1981
  876MOL0     H15594   5.585   6.327   1.046  1.7602  1.0313  1.1510
  876MOL0     H15595   5.331   6.344   1.073 -0.7877 -0.1086  0.2633
  876MOL0     H15596   4.946   6.640   0.877 -4.9969  0.9669 -2.8113
  876MOL0     H15597   4.705   6.693   0.897 -2.6154 -3.1367  4.3138
  876MOL0     H15598   4.613   6.990   1.161  1.9398  0.3039  5.3419
  876MOL0     H15599   4.581   6.877   1.291  0.4780 -0.1211 -0.2164
  876MOL0     H15600   4.370   6.975   1.256  0.1672  1.1101 -1.0269
  876MOL0     H15601   4.368   6.814   1.190  1.6937 -0.9448  0.2504
  876MOL0     H15602   4.414   6.945   0.960 -0.4519 -0.8621  0.4845
  876MOL0     H15603   4.401   7.096   1.056  1.2304  0.5177 -3.0755
  876MOL0     H15604   4.190   6.871   1.010 -0.2961 -0.2020 -2.1619
  876MOL0     H15605   4.165   6.997   1.131 -2.4930  1.2419 -0.9652
  876MOL0     H15606   4.071   7.041   0.877  0.3681  0.6972 -1.6431
  876MOL0     H15607   4.234   7.033   0.832 -1.9534 -1.6276 -1.7711
  876MOL0     H15608   4.165   7.280   0.850 -3.0667 -0.1361  0.1375
  876MOL0     H15609   4.266   7.256   0.990  0.0709  2.7324 -0.2637
  876MOL0     H15610   3.961   7.232   0.975 -0.9175  1.5911  1.7804
  876MOL0     H15611   4.055   7.221   1.120 -0.2279  2.2505  0.3444
  876MOL0     H15612   3.953   7.445   1.070  0.4617  0.9084  0.1697
  876MOL0     H15613   4.033   7.453   0.915  2.0668  0.0033  0.2520
  876MOL0     H15614   4.783   6.880   1.271 -1.2246 -2.2025 -0.1433
  876MOL0     H15615   5.029   6.843   1.239  1.4997 -2.2046 -0.6475
  876MOL0     H15616   5.347   6.767   1.002 -0.2354 -0.4455 -0.4018
  876MOL0     H15617   5.590   6.764   0.997 -1.9978  0.7624 -0.2516
  876MOL0     H15618   5.767   6.138   2.188 -2.4364  0.4889  2.6849
  876MOL0     H15619   5.531   6.092   2.224  2.1340  1.3862  1.1576
  876MOL0     H15620   5.123   5.986   2.092 -2.1593 -2.7981 -1.0878
  876MOL0     H15621   4.888   5.927   2.081 -0.1849 -0.5137 -0.6392
  876MOL0     H15622   4.589   6.150   1.846 -2.3793  1.4752 -0.0767
  876MOL0     H15623   4.589   6.248   1.989  0.8409 -0.8848  0.1887
  876MOL0     H15624   4.381   6.138   1.963  0.9453  2.4638  2.2211
  876MOL0     H15625   4.451   5.971   1.963 -2.2900  0.3320  0.7858
  876MOL0     H15626   4.462   6.190   2.171 -0.0820  0.0077 -0.0752
  876MOL0     H15627   4.549   6.041   2.198 -2.5089  0.1192  4.1046
  876MOL0     H15628   4.364   5.901   2.206 -2.7725 -1.4721  0.3271
  876MOL0     H15629   4.332   6.030   2.321  2.0910 -1.2504 -0.3897
  876MOL0     H15630   4.040   6.166   2.055 -1.3469 -2.4747  0.1709
  876MOL0     H15631   4.799   6.315   1.935  0.0201 -0.0175 -1.2879
  876MOL0     H15632   5.033   6.377   1.954 -1.2654  0.5577  0.3003
  877MOL0     O15633   7.813   3.430   2.925 -0.6327 -0.4966 -0.3894
  877MOL0     C15634   7.773   3.428   3.039 -0.1552  0.2449  0.0386
  877MOL0     O15635   7.641   3.411   3.082  0.7972  0.2834 -0.2757
  877MOL0     C15636   7.541   3.363   3.006  1.4049 -0.2016 -0.1131
  877MOL0     C15637   7.406   3.400   3.043 -0.0009 -0.1998  0.2799
  877MOL0     C15638   7.293   3.346   2.975  0.5813 -0.3659 -1.1749
  877MOL0     C15639   7.314   3.243   2.874 -0.0166 -0.2901 -1.0277
  877MOL0     O15640   7.207   3.205   2.807 -0.4419 -0.1143  0.0406
  877MOL0     C15641   7.221   3.097   2.716  0.4127 -1.1272  0.2445
  877MOL0     C15642   7.096   3.085   2.643 -0.4589 -0.8031  0.4017
  877MOL0     C15643   6.977   3.052   2.730 -0.1101 -0.2669  0.3609
  877MOL0     C15644   6.855   3.038   2.622 -0.5537 -0.1411  0.2242
  877MOL0     C15645   6.741   2.960   2.687  0.1670 -0.7432 -0.4676
  877MOL0     C15646   6.652   3.049   2.787 -0.3270 -0.1409 -0.6774
  877MOL0     C15647   6.517   2.976   2.815  0.4644  0.5166  0.2254
  877MOL0     C15648   6.430   3.063   2.907  0.5129  0.2898  0.1074
  877MOL0     N15649   6.297   2.992   2.906 -0.0154  0.1181  0.1179
  877MOL0     C15650   6.273   2.868   2.967 -0.3225  0.1965 -0.4081
  877MOL0     C15651   6.150   2.839   2.936 -0.2412  0.2516  0.2192
  877MOL0     C15652   6.083   2.708   2.976 -0.3538  0.4821 -0.7178
  877MOL0     C15653   6.107   2.668   3.134  0.1808  0.2562 -0.0169
  877MOL0     C15654   6.018   2.545   3.173  0.4278 -1.1764  0.6804
  877MOL0     C15655   6.027   2.503   3.323 -0.5453 -0.4999 -0.6473
  877MOL0     O15656   5.979   2.362   3.345 -0.0481  0.0761  0.0077
  877MOL0     C15657   5.854   2.324   3.350  0.6570  0.1916 -0.0653
  877MOL0     C15658   5.758   2.426   3.339  1.2205  0.0805  0.6272
  877MOL0     C15659   5.626   2.385   3.328  0.0214  0.4899  1.2252
  877MOL0     C15660   5.590   2.248   3.324  0.8727  0.6875 -0.7034
  877MOL0     C15661   5.452   2.196   3.306  0.0688 -0.4085 -0.0694
  877MOL0     O15662   5.356   2.288   3.339  0.0953 -0.0031  0.6816
  877MOL0     C15663   5.218   2.267   3.333 -0.3261  0.3281 -0.7022
  877MOL0     C15664   5.167   2.145   3.366  0.0230 -0.6736 -0.0103
  877MOL0     C15665   5.029   2.125   3.361  0.2302 -0.7348 -0.0496
  877MOL0     C15666   4.935   2.235   3.351 -0.3400 -0.1758 -0.2382
  877MOL0     O15667   4.797   2.219   3.346  0.6686 -0.4242 -1.0065
  877MOL0     C15668   4.708   2.338   3.343 -0.0654 -0.5338 -0.3087
  877MOL0     C15669   4.564   2.294   3.365  0.0919  0.4112  0.0747
  877MOL0     C15670   4.504   2.200   3.254  0.3773 -0.0062 -0.1003
  877MOL0     C15671   4.352   2.174   3.274  0.3090  0.1816 -0.0016
  877MOL0     C15672   4.254   2.296   3.281  0.0349  0.5921 -0.9911
  877MOL0     C15673   4.101   2.260   3.281  0.2937 -0.5383 -0.4913
  877MOL0     C15674   4.049   2.223   3.149 -0.6198  1.1414 -0.5499
  877MOL0     C15675   3.995   2.341   3.067 -0.1410 -0.2883 -0.2670
  877MOL0    Cl15676   3.850   2.415   3.141 -0.3768 -0.3426  0.3935
  877MOL0     C15677   4.998   2.361   3.325 -0.0797  0.0522 -0.0699
  877MOL0     C15678   5.134   2.377   3.309 -0.9495 -1.0414 -0.5891
  877MOL0     O15679   5.432   2.074   3.297  0.0376 -0.0046  0.0610
  877MOL0     C15680   5.694   2.153   3.347  0.9704 -0.0096  0.5691
  877MOL0     C15681   5.828   2.191   3.352 -0.0924 -0.5431  0.3903
  877MOL0     N15682   6.096   2.939   2.862  0.8355 -0.6134  0.3804
  877MOL0     N15683   6.188   3.036   2.837  0.0549  0.3233  0.8437
  877MOL0     C15684   7.444   3.210   2.843  0.3648 -0.1209 -0.1804
  877MOL0     C15685   7.557   3.270   2.895  0.2686 -0.0621  0.3755
  877MOL0     C15686   7.869   3.465   3.145  0.5667  0.0479 -0.4845
  877MOL0     C15687   7.855   3.401   3.268 -0.7231  0.1853 -0.0216
  877MOL0     C15688   7.933   3.440   3.378  0.3274 -0.4991 -0.2164
  877MOL0     C15689   8.030   3.545   3.357 -0.2631  1.1797  0.0192
  877MOL0     O15690   8.112   3.558   3.468  0.5990 -0.4047  0.8233
  877MOL0     C15691   8.202   3.672   3.463  0.1792 -1.6392 -0.1211
  877MOL0     C15692   8.142   3.810   3.488  0.4045 -0.1637 -0.3081
  877MOL0     C15693   8.242   3.929   3.497  0.4267 -0.3933 -0.5062
  877MOL0     C15694   8.310   3.960   3.362 -0.0032  0.5429  0.3490
  877MOL0     C15695   8.458   3.949   3.373  0.4084 -0.0181 -0.4525
  877MOL0     C15696   8.570   3.957   3.416  0.0632  0.3288 -0.0513
  877MOL0     C15697   8.036   3.608   3.231 -0.5032 -0.3131  0.4941
  877MOL0     C15698   7.956   3.570   3.131  0.5221 -0.4185 -0.6314
  877MOL0     H15699   7.393   3.478   3.118 -2.1455 -3.2467  3.3781
  877MOL0     H15700   7.189   3.374   2.991  0.9782  0.3576  0.3537
  877MOL0     H15701   7.233   3.000   2.765 -0.1023  0.0832  2.9841
  877MOL0     H15702   7.297   3.105   2.638 -1.3214 -1.1557 -1.5122
  877MOL0     H15703   7.097   3.012   2.561 -0.7833 -1.2088  0.7566
  877MOL0     H15704   7.077   3.179   2.590  1.1346  0.0636  1.2807
  877MOL0     H15705   6.945   3.126   2.804  0.1692 -2.5049  2.8636
  877MOL0     H15706   7.000   2.958   2.782  0.6938 -1.0978 -1.3918
  877MOL0     H15707   6.829   3.136   2.581 -1.3848 -1.5494 -2.9643
  877MOL0     H15708   6.885   2.980   2.534  0.1172  1.3115 -0.5364
  877MOL0     H15709   6.778   2.873   2.743 -1.5627  0.5958  3.1345
  877MOL0     H15710   6.679   2.908   2.613  1.3537 -0.4815 -1.6827
  877MOL0     H15711   6.632   3.144   2.738 -0.3416  2.0551  3.1909
  877MOL0     H15712   6.693   3.060   2.887 -1.9633 -0.1682  0.0382
  877MOL0     H15713   6.467   2.962   2.719 -0.2770  2.5747  0.2781
  877MOL0     H15714   6.527   2.878   2.863  2.3568  0.2696 -0.5823
  877MOL0     H15715   6.419   3.164   2.866 -1.8713 -0.0167 -0.1903
  877MOL0     H15716   6.474   3.077   3.006 -2.5613  2.7998  1.2995
  877MOL0     H15717   6.343   2.803   3.020  0.7616 -0.0166 -2.0072
  877MOL0     H15718   6.125   2.632   2.909 -2.0607 -0.9009 -0.2807
  877MOL0     H15719   5.976   2.701   2.955 -0.6932 -1.5398  1.2855
  877MOL0     H15720   6.080   2.744   3.207 -3.1708 -0.5914 -0.2037
  877MOL0     H15721   6.209   2.632   3.151 -0.8839 -2.2335  1.5955
  877MOL0     H15722   5.915   2.551   3.137  0.9854  0.4435 -0.7796
  877MOL0     H15723   6.063   2.462   3.118  1.1266 -0.6304  0.4211
  877MOL0     H15724   5.995   2.580   3.393  4.9556  0.8366  0.9464
  877MOL0     H15725   6.135   2.507   3.342 -0.6077 -2.4157  0.3471
  877MOL0     H15726   5.779   2.532   3.340 -1.5897  0.7111  0.9707
  877MOL0     H15727   5.543   2.455   3.327 -0.3039  0.1551  2.4609
  877MOL0     H15728   5.225   2.056   3.387 -0.0145 -0.3952  1.3422
  877MOL0     H15729   4.979   2.029   3.367  0.2104 -0.7455 -0.3447
  877MOL0     H15730   4.725   2.392   3.249  0.1650  1.1226  0.6355
  877MOL0     H15731   4.726   2.413   3.421 -1.7950 -2.3833  2.0187
  877MOL0     H15732   4.504   2.386   3.370  0.8072  0.8684  0.3942
  877MOL0     H15733   4.571   2.234   3.457 -1.4004 -3.7036 -2.2484
  877MOL0     H15734   4.555   2.104   3.243  0.7322  0.3791 -2.1820
  877MOL0     H15735   4.525   2.255   3.162  0.7429  0.0426  0.0108
  877MOL0     H15736   4.318   2.121   3.184 -2.5342 -1.8320  2.0642
  877MOL0     H15737   4.331   2.114   3.363  4.0218  1.2068  1.7469
  877MOL0     H15738   4.282   2.359   3.196  0.6970  1.6690 -0.0095
  877MOL0     H15739   4.283   2.355   3.369  1.0207  0.5373 -1.2619
  877MOL0     H15740   4.050   2.342   3.332  0.4455 -1.6961  1.6458
  877MOL0     H15741   4.084   2.183   3.357 -2.3416  0.8954  0.4726
  877MOL0     H15742   4.131   2.181   3.089 -1.1437 -0.2092 -0.3533
  877MOL0     H15743   3.983   2.136   3.145  0.3218  0.4365 -1.8218
  877MOL0     H15744   3.978   2.304   2.965  5.5439 -0.9512 -1.3405
  877MOL0     H15745   4.066   2.423   3.052 -1.4038  0.7651 -0.6572
  877MOL0     H15746   4.930   2.441   3.296  0.6902 -0.0673 -2.4423
  877MOL0     H15747   5.189   2.471   3.302  0.6653 -1.8038  1.0846
  877MOL0     H15748   5.674   2.047   3.351 -0.5162  0.2519  0.5309
  877MOL0     H15749   5.910   2.119   3.350  1.7923  1.5096 -1.7784
  877MOL0     H15750   7.466   3.134   2.769 -2.5721  0.1134 -1.4305
  877MOL0     H15751   7.655   3.227   2.880 -0.6576 -1.3938 -2.3360
  877MOL0     H15752   7.781   3.329   3.302  0.5041 -2.0006 -1.6703
  877MOL0     H15753   7.938   3.382   3.469  4.1872 -3.2688 -1.8942
  877MOL0     H15754   8.259   3.679   3.370  0.2126 -3.1147 -0.2298
  877MOL0     H15755   8.277   3.664   3.542  0.4966  2.9674  0.2872
  877MOL0     H15756   8.066   3.832   3.412  0.9126  2.5382 -0.1322
  877MOL0     H15757   8.089   3.811   3.584  0.5578 -2.9008 -0.1112
  877MOL0     H15758   8.321   3.895   3.564 -1.0558 -3.1573 -0.0065
  877MOL0     H15759   8.186   4.012   3.541  2.3262  1.1026 -0.8048
  877MOL0     H15760   8.292   3.881   3.289  0.0999 -2.1695  3.0872
  877MOL0     H15761   8.269   4.051   3.315  0.0420  0.4526  0.1353
  877MOL0     H15762   8.670   3.966   3.454  0.4455 -2.8732 -0.0115
  877MOL0     H15763   8.097   3.696   3.217  0.8775 -0.7305  3.1435
  877MOL0     H15764   7.952   3.640   3.048 -0.6804  1.4048  0.8852
  878MOL0     O15765   8.830   6.399   0.281  0.4951  0.5584  0.0288
  878MOL0     C15766   8.852   6.343   0.389 -0.2035  0.5125  0.7211
  878MOL0     O15767   8.762   6.318   0.479  0.2612 -0.7097 -0.5642
  878MOL0     C15768   8.640   6.366   0.456  0.0040  0.7847 -0.0660
  878MOL0     C15769   8.591   6.483   0.516  0.8101 -0.6231  0.4760
  878MOL0     C15770   8.452   6.514   0.509 -0.0027  0.8798 -0.1247
  878MOL0     C15771   8.365   6.422   0.444 -0.3467  0.8549  0.5239
  878MOL0     O15772   8.222   6.444   0.454 -0.3996  0.0510 -0.5096
  878MOL0     C15773   8.162   6.571   0.420 -0.0124 -0.3809  0.3456
  878MOL0     C15774   8.143   6.659   0.542 -0.1510 -0.2398  0.4845
  878MOL0     C15775   8.129   6.592   0.683  0.1773 -0.6952  0.2543
  878MOL0     C15776   7.991   6.510   0.690  0.2382  0.4156 -0.7047
  878MOL0     C15777   7.865   6.586   0.665 -0.3565  0.0419 -0.2539
  878MOL0     C15778   7.843   6.716   0.746 -0.8515 -0.5410  0.5716
  878MOL0     C15779   7.702   6.731   0.785  0.4386  0.9292 -0.5666
  878MOL0     C15780   7.620   6.766   0.662  0.5183 -0.0835  0.0271
  878MOL0     N15781   7.473   6.771   0.702  0.0646  0.2507  0.0076
  878MOL0     C15782   7.394   6.663   0.700 -0.2897  0.1548 -0.3116
  878MOL0     C15783   7.288   6.703   0.772  0.1020  0.4699 -0.0336
  878MOL0     C15784   7.152   6.642   0.803  0.1560  0.5003  0.9442
  878MOL0     C15785   7.042   6.751   0.831 -0.0212  0.0019 -0.0718
  878MOL0     C15786   6.897   6.690   0.825 -0.0314 -0.1385  0.1363
  878MOL0     C15787   6.787   6.786   0.870 -0.3490 -0.2651  0.4120
  878MOL0     O15788   6.663   6.710   0.835  0.0104 -0.2119 -0.1973
  878MOL0     C15789   6.555   6.788   0.878  0.3389  0.2938 -0.2372
  878MOL0     C15790   6.516   6.909   0.818 -0.2280 -0.1219 -0.5771
  878MOL0     C15791   6.399   6.973   0.865 -0.2180  0.4807  0.5463
  878MOL0     C15792   6.321   6.927   0.970  0.8769 -1.0352 -0.2939
  878MOL0     C15793   6.185   6.978   0.992 -0.2015  0.0784 -0.5097
  878MOL0     O15794   6.138   7.071   0.907 -1.0131 -0.1562 -0.2742
  878MOL0     C15795   6.014   7.123   0.921 -0.0105 -0.0473  0.2722
  878MOL0     C15796   5.893   7.046   0.945 -0.5987 -0.2496 -0.4298
  878MOL0     C15797   5.776   7.113   0.940  0.6572 -0.0403  1.3302
  878MOL0     C15798   5.764   7.250   0.913 -0.4340 -0.8515  0.2727
  878MOL0     O15799   5.654   7.323   0.902 -0.1967 -0.0512 -0.6593
  878MOL0     C15800   5.523   7.273   0.946 -0.0541  0.1484 -0.4497
  878MOL0     C15801   5.412   7.373   0.901 -0.6255  1.5058 -0.3439
  878MOL0     C15802   5.276   7.348   0.967 -0.3118 -0.7194  0.1818
  878MOL0     C15803   5.220   7.214   0.927  0.4063  0.3805 -0.7025
  878MOL0     C15804   5.069   7.200   0.954  0.3640  0.6096  0.0660
  878MOL0     C15805   5.011   7.076   0.878  0.7204 -0.2003 -0.6650
  878MOL0     C15806   4.867   7.055   0.894  0.4194  0.1905 -0.1170
  878MOL0     C15807   4.776   7.162   0.840  0.0552 -0.4999  0.1912
  878MOL0    Cl15808   4.796   7.178   0.656  0.3182 -0.0160 -0.0885
  878MOL0     C15809   5.883   7.323   0.874 -0.3845  0.4031  0.3130
  878MOL0     C15810   6.004   7.252   0.885  0.0973 -0.3739  0.0229
  878MOL0     O15811   6.138   6.941   1.099  0.7446 -0.5098 -0.2181
  878MOL0     C15812   6.364   6.804   1.023 -0.3935  0.1790 -0.3475
  878MOL0     C15813   6.485   6.744   0.988 -0.3308  0.1058 -0.2286
  878MOL0     N15814   7.310   6.832   0.817 -0.3459  0.3086  0.8152
  878MOL0     N15815   7.417   6.872   0.770 -0.5693 -0.6454 -0.2297
  878MOL0     C15816   8.417   6.309   0.378 -0.1009 -0.1429  0.8567
  878MOL0     C15817   8.552   6.282   0.387  0.3117 -0.5400  0.1971
  878MOL0     C15818   8.985   6.282   0.387 -0.1075  0.1475  0.1080
  878MOL0     C15819   9.093   6.363   0.343  0.0881 -0.7853 -0.9526
  878MOL0     C15820   9.214   6.294   0.306  1.1592  0.9486 -0.1918
  878MOL0     C15821   9.226   6.155   0.321  0.5316 -0.0709  0.2740
  878MOL0     O15822   9.347   6.111   0.285  0.1604  0.0206  0.5973
  878MOL0     C15823   9.376   5.970   0.271 -0.6166  0.1462  0.8959
  878MOL0     C15824   9.530   5.956   0.260 -0.5076  0.2143  1.5160
  878MOL0     C15825   9.589   6.027   0.148 -0.0128  0.7652  0.0556
  878MOL0     C15826   9.722   5.971   0.102  1.0582 -0.3255 -0.2114
  878MOL0     C15827   9.835   6.012   0.179  0.4863  0.0163 -0.3739
  878MOL0     C15828   9.925   6.052   0.251  0.8083  0.4256  0.7836
  878MOL0     C15829   9.119   6.075   0.369 -0.3884 -0.4580 -0.1138
  878MOL0     C15830   8.996   6.143   0.412  0.4546 -0.4628  0.0006
  878MOL0     H15831   8.651   6.548   0.580 -0.5687  0.0809  1.0826
  878MOL0     H15832   8.395   6.595   0.555 -0.5694 -0.1068  0.9690
  878MOL0     H15833   8.062   6.557   0.377  0.4259 -1.1059 -0.4570
  878MOL0     H15834   8.221   6.613   0.338  0.2798 -2.7901 -0.7726
  878MOL0     H15835   8.054   6.720   0.521 -0.1440 -0.1836  0.6173
  878MOL0     H15836   8.222   6.734   0.548  0.2298 -0.7478  2.2646
  878MOL0     H15837   8.116   6.677   0.751  0.8127  0.1402 -0.6421
  878MOL0     H15838   8.222   6.546   0.719  0.5509  0.3929  0.7413
  878MOL0     H15839   8.004   6.425   0.622  1.9982  0.4194 -0.4190
  878MOL0     H15840   7.980   6.475   0.793  1.4880 -1.4957 -1.1619
  878MOL0     H15841   7.782   6.519   0.691  1.3800 -2.5960 -1.1155
  878MOL0     H15842   7.861   6.600   0.557  1.6147 -1.2958 -0.5528
  878MOL0     H15843   7.894   6.784   0.676  2.5774 -1.4405  1.9855
  878MOL0     H15844   7.914   6.714   0.829  2.7610 -2.1680 -2.2310
  878MOL0     H15845   7.676   6.633   0.826  3.7314  0.3238  0.3857
  878MOL0     H15846   7.696   6.803   0.866 -1.7837 -0.8323  0.9554
  878MOL0     H15847   7.630   6.694   0.580 -2.8476 -0.3750 -0.2524
  878MOL0     H15848   7.647   6.863   0.619  0.2652 -0.1134 -0.2066
  878MOL0     H15849   7.397   6.578   0.633 -1.0325 -1.4433  1.5772
  878MOL0     H15850   7.164   6.570   0.885 -0.7171  1.1078  1.6149
  878MOL0     H15851   7.127   6.583   0.715  0.5822 -0.8014  1.6646
  878MOL0     H15852   7.041   6.828   0.753  1.0268  1.5436  1.3667
  878MOL0     H15853   7.068   6.803   0.923  2.1756 -0.5070 -0.3514
  878MOL0     H15854   6.882   6.659   0.721 -0.9795  2.6814 -0.6621
  878MOL0     H15855   6.893   6.604   0.893  2.5098 -0.2542  0.2027
  878MOL0     H15856   6.775   6.870   0.801 -3.0993  1.6463  2.9644
  878MOL0     H15857   6.788   6.808   0.978 -2.2143 -2.5694  0.9679
  878MOL0     H15858   6.563   6.950   0.729 -2.3738 -1.0684 -2.2355
  878MOL0     H15859   6.361   7.065   0.820  0.7538 -0.2170 -1.8523
  878MOL0     H15860   5.905   6.938   0.940  0.8473 -0.1389 -0.0301
  878MOL0     H15861   5.687   7.054   0.962 -0.3226 -0.0324 -2.0662
  878MOL0     H15862   5.509   7.258   1.053  1.2496  2.8897  0.2036
  878MOL0     H15863   5.502   7.176   0.901 -2.4573 -0.1280  1.0972
  878MOL0     H15864   5.391   7.359   0.794 -2.6344 -0.2671  0.2320
  878MOL0     H15865   5.452   7.474   0.915 -0.6414  1.8678 -2.4706
  878MOL0     H15866   5.203   7.414   0.919 -1.2275 -1.5314  0.4342
  878MOL0     H15867   5.265   7.367   1.074 -0.7467 -0.9113  0.1708
  878MOL0     H15868   5.240   7.207   0.820 -2.9242  1.2245 -1.4704
  878MOL0     H15869   5.258   7.123   0.975  3.2044 -1.7015 -5.9827
  878MOL0     H15870   5.025   7.294   0.921  0.3380  1.8745  3.3274
  878MOL0     H15871   5.048   7.192   1.061  2.6648  1.0331  0.6122
  878MOL0     H15872   5.064   6.989   0.917  2.4395  1.2695  0.4721
  878MOL0     H15873   5.023   7.077   0.769 -2.0994 -1.4082 -1.0699
  878MOL0     H15874   4.844   6.955   0.855  0.7517  0.5629 -1.2928
  878MOL0     H15875   4.849   7.040   1.001  0.9115 -2.6924 -0.3559
  878MOL0     H15876   4.783   7.254   0.899 -1.7845  0.0216 -0.3187
  878MOL0     H15877   4.678   7.121   0.867  0.5931 -2.2089 -0.3126
  878MOL0     H15878   5.886   7.427   0.846 -1.2968  0.4715  0.4316
  878MOL0     H15879   6.102   7.297   0.873  0.0209 -0.4205 -0.8161
  878MOL0     H15880   6.312   6.755   1.105 -0.5680 -0.5190 -0.8654
  878MOL0     H15881   6.514   6.649   1.032  1.3226 -0.6600 -2.7432
  878MOL0     H15882   8.350   6.248   0.319  0.7814 -1.4163  1.1307
  878MOL0     H15883   8.596   6.188   0.353  1.4256  0.4012 -1.0987
  878MOL0     H15884   9.090   6.471   0.328  1.0070 -0.4174  1.1911
  878MOL0     H15885   9.303   6.341   0.264  0.7891 -0.1105 -2.3012
  878MOL0     H15886   9.330   5.942   0.176 -0.9365  0.2740  1.0112
  878MOL0     H15887   9.343   5.903   0.351  1.3368 -2.3144 -0.2426
  878MOL0     H15888   9.578   5.991   0.352  1.1867  0.5911  0.5239
  878MOL0     H15889   9.559   5.852   0.245 -1.8474  0.3210 -4.5834
  878MOL0     H15890   9.586   6.136   0.156 -0.3589  0.7981 -0.4336
  878MOL0     H15891   9.527   6.000   0.062  0.1599 -2.3695  0.7647
  878MOL0     H15892   9.730   5.862   0.097 -3.3686 -0.7808 -1.0531
  878MOL0     H15893   9.723   5.998  -0.004  0.0987 -2.4158 -0.7988
  878MOL0     H15894  10.014   6.074   0.306  1.1093 -0.4109  0.6547
  878MOL0     H15895   9.130   5.968   0.372  0.5099 -0.5054 -2.6501
  878MOL0     H15896   8.908   6.094   0.452 -0.2470  2.1248  1.9171
  879MOL0     O15897   3.500   9.793  10.517 -0.4650  0.4897 -0.4684
  879MOL0     C15898   3.513   9.804  10.638  0.8509  0.4447 -0.2282
  879MOL0     O15899   3.625   9.848  10.703  0.3943  0.2600  0.3473
  879MOL0     C15900   3.728   9.871  10.620  0.2216 -0.7382 -0.1562
  879MOL0     C15901   3.718   9.968  10.517 -0.0971  0.0774  0.2182
  879MOL0     C15902   3.828   9.982  10.428  0.9734 -0.5473  0.1587
  879MOL0     C15903   3.944   9.907  10.447  0.1545  0.2486  0.5382
  879MOL0     O15904   4.038   9.915  10.348 -0.0692 -0.3534  0.5500
  879MOL0     C15905   4.175   9.891  10.382  0.3490 -0.5436 -0.5887
  879MOL0     C15906   4.240   9.935  10.254  0.2325 -0.5957 -0.1616
  879MOL0     C15907   4.397   9.920  10.255 -0.3444  0.0947  0.0668
  879MOL0     C15908   4.447   9.988  10.127  0.3719 -0.5237 -0.1206
  879MOL0     C15909   4.596   9.967  10.088  0.3555  0.1731 -0.1703
  879MOL0     C15910   4.636   9.824  10.059  0.3370 -0.4544  0.4724
  879MOL0     C15911   4.782   9.817  10.011  0.4615  0.0108 -0.0381
  879MOL0     C15912   4.875   9.696  10.042  0.5558 -0.4129 -0.5228
  879MOL0     N15913   4.812   9.564  10.042  0.4773  0.0073 -0.2966
  879MOL0     C15914   4.713   9.529   9.949  0.3189 -0.0002 -0.5506
  879MOL0     C15915   4.651   9.430  10.022  0.6439  0.3332 -0.0535
  879MOL0     C15916   4.531   9.361   9.969  0.5564 -0.1093 -0.1321
  879MOL0     C15917   4.412   9.410  10.044 -0.6201 -0.2583 -0.0380
  879MOL0     C15918   4.363   9.306  10.153  0.0303 -0.2032  0.3285
  879MOL0     C15919   4.276   9.192  10.103 -0.0617  0.0645  0.2273
  879MOL0     O15920   4.151   9.257  10.072 -0.4291  0.4023 -0.4688
  879MOL0     C15921   4.034   9.177  10.062  0.4156 -0.9148 -0.4858
  879MOL0     C15922   3.913   9.238  10.031 -0.3034  0.6571  0.4015
  879MOL0     C15923   3.797   9.161  10.022 -0.5475  0.5501  0.0295
  879MOL0     C15924   3.790   9.023  10.053 -0.3954 -0.0522  0.6398
  879MOL0     C15925   3.656   8.950  10.037  0.5052  0.1657  0.4439
  879MOL0     O15926   3.561   9.007   9.952  0.1527 -0.3396 -0.7884
  879MOL0     C15927   3.421   8.978   9.949 -0.0689  0.3379  0.5220
  879MOL0     C15928   3.337   9.040   9.848 -1.4350  0.6057  0.3215
  879MOL0     C15929   3.211   9.005   9.830 -0.5497 -0.7876  0.2811
  879MOL0     C15930   3.153   8.910   9.908 -0.1492 -0.0665 -0.2367
  879MOL0     O15931   3.017   8.885   9.909  0.2744  0.7573  0.2166
  879MOL0     C15932   2.922   8.949   9.824  0.6038  0.6410 -0.0479
  879MOL0     C15933   2.913   8.881   9.682  0.2651  0.0617  0.2951
  879MOL0     C15934   2.765   8.842   9.649  0.1668  0.4277  0.0788
  879MOL0     C15935   2.732   8.830   9.504 -0.1885  0.1734  0.1192
  879MOL0     C15936   2.593   8.789   9.463  0.0563  0.4539  0.8008
  879MOL0     C15937   2.550   8.661   9.521 -0.5622  0.3841 -0.9047
  879MOL0     C15938   2.406   8.629   9.486  0.2371  0.5000 -0.0248
  879MOL0     C15939   2.370   8.480   9.511  0.5577 -0.1518  0.1335
  879MOL0    Cl15940   2.226   8.442   9.592 -0.2507 -0.1489 -0.1326
  879MOL0     C15941   3.226   8.850  10.014  0.1586 -0.1093  0.4519
  879MOL0     C15942   3.359   8.891  10.035  0.2771 -0.4613  0.0098
  879MOL0     O15943   3.657   8.828  10.074 -0.1500 -0.7026 -0.1613
  879MOL0     C15944   3.913   8.961  10.071 -0.2531 -1.0658 -0.7007
  879MOL0     C15945   4.031   9.038  10.073  0.0561  0.3992  0.1325
  879MOL0     N15946   4.710   9.400  10.143 -0.0518 -0.4877 -0.3710
  879MOL0     N15947   4.798   9.489  10.153 -0.1704 -0.5981 -0.3578
  879MOL0     C15948   3.945   9.808  10.550 -0.1011 -0.5616  0.0527
  879MOL0     C15949   3.837   9.794  10.633  0.0239 -0.1191 -0.1639
  879MOL0     C15950   3.399   9.781  10.725 -0.0411  0.4597 -1.2226
  879MOL0     C15951   3.292   9.712  10.681 -0.3315  0.0470 -0.5175
  879MOL0     C15952   3.173   9.701  10.764 -0.7271 -0.0788 -0.1333
  879MOL0     C15953   3.164   9.766  10.885  0.4188 -0.6756 -0.8619
  879MOL0     O15954   3.045   9.777  10.954 -0.3143  0.2370  0.5469
  879MOL0     C15955   3.026   9.832  11.076  0.2752 -0.7574 -0.1702
  879MOL0     C15956   2.885   9.821  11.118 -1.0353  0.1841  0.1941
  879MOL0     C15957   2.838   9.676  11.141 -0.0694 -0.0700 -0.1414
  879MOL0     C15958   2.689   9.654  11.106 -0.2919 -0.0477  0.0494
  879MOL0     C15959   2.634   9.546  11.190 -0.2896 -0.4435  0.6236
  879MOL0     C15960   2.603   9.450  11.257 -0.2443 -0.8198  0.2955
  879MOL0     C15961   3.285   9.817  10.938 -0.4998  0.0135 -0.6257
  879MOL0     C15962   3.397   9.831  10.861 -0.1501 -0.2399 -0.1093
  879MOL0     H15963   3.631  10.032  10.507 -1.0507 -0.6588  2.8137
  879MOL0     H15964   3.831  10.071  10.367  1.3400 -0.4651  0.2982
  879MOL0     H15965   4.209   9.791  10.411 -0.3628  0.0352  2.7829
  879MOL0     H15966   4.216   9.952  10.464  1.2566  0.9756 -2.1181
  879MOL0     H15967   4.220  10.042  10.244  1.0158 -0.5242 -1.1921
  879MOL0     H15968   4.203   9.883  10.165  2.9903 -1.3006 -0.9952
  879MOL0     H15969   4.416   9.813  10.242 -4.2475 -0.8429  1.0344
  879MOL0     H15970   4.439   9.972  10.342 -0.3084 -0.1398  0.1901
  879MOL0     H15971   4.386   9.966  10.039 -1.0361  1.3155  0.3312
  879MOL0     H15972   4.430  10.096  10.131  0.3719 -0.4528 -1.5671
  879MOL0     H15973   4.670   9.994  10.165 -0.6752 -0.3624  1.0495
  879MOL0     H15974   4.616  10.025   9.998  0.2510  0.0890 -0.2469
  879MOL0     H15975   4.570   9.771   9.990  1.5964  1.6862 -2.6298
  879MOL0     H15976   4.632   9.757  10.145  1.1786 -0.2637  0.6717
  879MOL0     H15977   4.777   9.825   9.902 -0.1353  1.2216  0.0544
  879MOL0     H15978   4.823   9.916  10.033 -2.9429  1.9583 -1.5634
  879MOL0     H15979   4.933   9.706  10.134  3.2198 -0.9141 -2.0443
  879MOL0     H15980   4.943   9.699   9.956 -3.2154 -1.6225 -3.8787
  879MOL0     H15981   4.691   9.572   9.852 -0.5685 -0.0964 -0.3992
  879MOL0     H15982   4.535   9.259  10.008 -0.7662  0.7285  2.4267
  879MOL0     H15983   4.524   9.362   9.860 -3.9451 -3.5628 -0.1361
  879MOL0     H15984   4.328   9.421   9.975 -0.6879 -0.2209  0.0499
  879MOL0     H15985   4.422   9.511  10.085  1.1985 -1.4114  2.6566
  879MOL0     H15986   4.456   9.270  10.198  2.1661  4.7488  0.5706
  879MOL0     H15987   4.301   9.351  10.231 -2.2152  0.1938 -1.5820
  879MOL0     H15988   4.256   9.114  10.177 -3.6828 -0.9447 -1.5780
  879MOL0     H15989   4.306   9.135  10.015  0.8914 -1.1885  1.3172
  879MOL0     H15990   3.908   9.346  10.022 -1.4789  0.7922  2.3166
  879MOL0     H15991   3.703   9.199   9.981 -0.4867  0.5958 -0.0680
  879MOL0     H15992   3.381   9.109   9.776  1.9558 -0.1630  1.4722
  879MOL0     H15993   3.150   9.057   9.757 -2.3114  0.1275  2.2727
  879MOL0     H15994   2.948   9.055   9.823 -0.3495  0.9069  1.3990
  879MOL0     H15995   2.827   8.937   9.875  0.6479 -0.3969 -0.1707
  879MOL0     H15996   2.981   8.799   9.656  0.0989  0.7052 -2.4666
  879MOL0     H15997   2.946   8.958   9.612  0.4906 -1.6902 -1.6161
  879MOL0     H15998   2.700   8.921   9.686 -1.0887 -0.4205 -0.2458
  879MOL0     H15999   2.743   8.745   9.695 -2.2634  1.7792  1.9348
  879MOL0     H16000   2.749   8.926   9.454  0.1014  0.6120  1.0339
  879MOL0     H16001   2.803   8.760   9.458 -0.5060  0.0217 -0.1462
  879MOL0     H16002   2.595   8.782   9.354 -1.5481  0.0666  0.7808
  879MOL0     H16003   2.521   8.868   9.481 -2.2007 -0.9390 -1.4583
  879MOL0     H16004   2.549   8.669   9.630 -1.5462 -1.1828 -0.7584
  879MOL0     H16005   2.621   8.581   9.497 -0.9754 -0.0821 -0.6041
  879MOL0     H16006   2.339   8.689   9.549 -1.6269 -1.4152 -0.0911
  879MOL0     H16007   2.390   8.643   9.379  2.9700 -2.8054 -1.0149
  879MOL0     H16008   2.446   8.435   9.576 -2.0762 -3.0365  1.4352
  879MOL0     H16009   2.365   8.431   9.414  0.2526 -1.0063  0.5743
  879MOL0     H16010   3.166   8.790  10.081 -2.9549  0.0114 -2.0010
  879MOL0     H16011   3.414   8.849  10.118  1.8996 -0.2970 -0.9318
  879MOL0     H16012   3.904   8.855  10.092 -1.3482 -0.8995 -0.2839
  879MOL0     H16013   4.125   8.986  10.092 -1.7362 -3.3493 -0.3073
  879MOL0     H16014   4.028   9.740  10.565  1.7658  1.0307 -2.2901
  879MOL0     H16015   3.839   9.717  10.710 -3.7189 -0.2384  0.0113
  879MOL0     H16016   3.287   9.673  10.580 -1.3662 -2.6480  0.4622
  879MOL0     H16017   3.092   9.641  10.725 -2.4753  2.2924 -0.3835
  879MOL0     H16018   3.054   9.938  11.073  0.6133 -0.6002  3.8884
  879MOL0     H16019   3.084   9.784  11.154 -2.9394 -0.2061  2.8089
  879MOL0     H16020   2.883   9.878  11.211  1.4090  0.0995  0.3717
  879MOL0     H16021   2.823   9.867  11.041 -0.9712 -4.1536 -2.7922
  879MOL0     H16022   2.861   9.642  11.242  2.0197  0.0508 -0.5425
  879MOL0     H16023   2.898   9.612  11.075  0.6966  2.3807 -1.9571
  879MOL0     H16024   2.638   9.750  11.122  1.7460  1.1256 -0.1676
  879MOL0     H16025   2.685   9.633  10.999 -0.2372  0.9927 -0.1674
  879MOL0     H16026   2.582   9.368  11.323  0.7202 -1.5466 -0.2825
  879MOL0     H16027   3.294   9.846  11.042  3.2844 -1.4427 -0.3676
  879MOL0     H16028   3.485   9.864  10.915 -0.6725 -2.4191  2.2734
  880MOL0     O16029   7.815   1.025   5.434 -0.1762 -0.5850  0.2532
  880MOL0     C16030   7.927   1.079   5.429 -0.7418 -0.2828 -0.5251
  880MOL0     O16031   7.959   1.187   5.507 -0.3498 -0.1591  1.7350
  880MOL0     C16032   7.879   1.278   5.572  0.1965  0.1177 -0.7785
  880MOL0     C16033   7.945   1.346   5.672  0.1194  0.0542 -0.5287
  880MOL0     C16034   7.879   1.453   5.742  0.3216 -0.3517 -0.0647
  880MOL0     C16035   7.748   1.484   5.717  0.1703 -0.0222  0.0580
  880MOL0     O16036   7.698   1.602   5.774  0.1868 -0.1439 -0.4532
  880MOL0     C16037   7.555   1.618   5.781 -0.0804 -0.2552 -0.9429
  880MOL0     C16038   7.531   1.746   5.867 -0.7688  0.9490 -0.1946
  880MOL0     C16039   7.381   1.776   5.885  0.0425  0.2843  0.1065
  880MOL0     C16040   7.356   1.895   5.982 -0.3802 -0.1338  0.1219
  880MOL0     C16041   7.204   1.934   5.976  0.9741  0.3914  0.0112
  880MOL0     C16042   7.174   2.029   6.089  0.1413 -0.4676  0.6298
  880MOL0     C16043   7.035   2.096   6.083  0.1801  1.1650 -0.5959
  880MOL0     C16044   6.918   1.997   6.076  0.5311  0.7025  0.1035
  880MOL0     N16045   6.805   2.086   6.078  0.0563  0.0225 -0.2921
  880MOL0     C16046   6.783   2.169   6.187  0.2643  0.0516 -0.6325
  880MOL0     C16047   6.652   2.217   6.167  0.6622  0.3417  0.1523
  880MOL0     C16048   6.588   2.321   6.260 -0.6924  0.6873  0.9530
  880MOL0     C16049   6.502   2.246   6.360 -0.0077 -0.8253  1.2896
  880MOL0     C16050   6.398   2.324   6.453 -1.0997 -0.1917  1.0298
  880MOL0     C16051   6.290   2.232   6.514  0.2523  0.3607 -0.1048
  880MOL0     O16052   6.204   2.317   6.582  0.7633 -0.1929 -0.6775
  880MOL0     C16053   6.072   2.289   6.568 -0.2807 -0.1954  0.7035
  880MOL0     C16054   6.007   2.184   6.626  0.2648  0.3829  0.0410
  880MOL0     C16055   5.868   2.167   6.607  0.2582 -0.9414 -0.5335
  880MOL0     C16056   5.791   2.260   6.538  0.0281 -0.5403 -0.3245
  880MOL0     C16057   5.648   2.252   6.515  0.2920 -0.6303 -0.6916
  880MOL0     O16058   5.611   2.279   6.377 -0.2868 -0.2477 -0.0561
  880MOL0     C16059   5.477   2.316   6.367  1.0268 -0.2650  0.8690
  880MOL0     C16060   5.378   2.226   6.329 -0.2764 -0.7663  0.1342
  880MOL0     C16061   5.246   2.266   6.323  0.8280  0.6521 -0.0917
  880MOL0     C16062   5.214   2.390   6.370  0.3790  0.0948  0.3142
  880MOL0     O16063   5.085   2.445   6.376 -0.3764  0.9622  0.1775
  880MOL0     C16064   4.997   2.372   6.471 -1.0626 -0.5571  0.4418
  880MOL0     C16065   4.875   2.457   6.499 -0.1820 -0.5630 -0.0485
  880MOL0     C16066   4.759   2.375   6.564  0.4701  0.8114  0.0025
  880MOL0     C16067   4.628   2.453   6.584 -0.3523 -0.0264 -0.1732
  880MOL0     C16068   4.498   2.366   6.598 -0.7664  0.5973  0.1865
  880MOL0     C16069   4.502   2.284   6.719  0.3972 -0.1539  0.5736
  880MOL0     C16070   4.384   2.188   6.739 -0.3494 -0.0011  0.0385
  880MOL0     C16071   4.260   2.253   6.808 -0.9719 -0.5284 -0.4588
  880MOL0    Cl16072   4.163   2.126   6.886 -0.4605  0.2071  0.0438
  880MOL0     C16073   5.303   2.492   6.380 -0.8350  0.2661 -0.0963
  880MOL0     C16074   5.438   2.452   6.387 -0.7298 -0.1317 -0.5423
  880MOL0     O16075   5.571   2.229   6.609 -0.2475 -0.2808  0.0719
  880MOL0     C16076   5.869   2.360   6.468  0.8765 -0.0363 -0.9220
  880MOL0     C16077   6.000   2.377   6.484 -0.7442  0.0080  0.2490
  880MOL0     N16078   6.608   2.155   6.050  0.3677 -0.0132 -0.3636
  880MOL0     N16079   6.698   2.075   5.998 -0.0869  0.2712 -0.5021
  880MOL0     C16080   7.678   1.404   5.621  0.1444  0.2909  0.1843
  880MOL0     C16081   7.743   1.302   5.546  0.3439 -0.4949 -0.1087
  880MOL0     C16082   8.038   1.017   5.349  0.8531  0.0096 -0.5582
  880MOL0     C16083   8.175   1.060   5.363 -0.6692 -0.7193  0.4739
  880MOL0     C16084   8.282   1.003   5.291  0.7251  0.1121  0.2110
  880MOL0     C16085   8.243   0.899   5.209  0.5968 -0.0329 -0.0713
  880MOL0     O16086   8.332   0.842   5.125  0.4904 -0.0880 -0.1336
  880MOL0     C16087   8.403   0.720   5.157  0.0862 -0.3257  0.3295
  880MOL0     C16088   8.541   0.757   5.213 -0.5401  0.2829  0.3235
  880MOL0     C16089   8.612   0.629   5.253  0.0688 -0.4247 -0.1845
  880MOL0     C16090   8.763   0.640   5.288  0.7274  0.1176  0.1582
  880MOL0     C16091   8.785   0.748   5.385  0.4496 -0.8583  0.3229
  880MOL0     C16092   8.787   0.846   5.458 -0.2544  0.6049 -0.0992
  880MOL0     C16093   8.106   0.856   5.194  0.1500  0.2844 -0.0160
  880MOL0     C16094   8.004   0.911   5.276  0.1676  0.1872  0.5729
  880MOL0     H16095   8.051   1.332   5.689  0.3396  0.7103 -1.3109
  880MOL0     H16096   7.929   1.511   5.820  1.5087 -0.4454 -0.7245
  880MOL0     H16097   7.520   1.534   5.841 -0.3142 -2.2315 -3.6700
  880MOL0     H16098   7.498   1.621   5.688  1.1671  0.4523 -1.7191
  880MOL0     H16099   7.594   1.832   5.843 -1.9178  2.7967  2.7830
  880MOL0     H16100   7.567   1.720   5.967  2.0056  0.3780 -1.2440
  880MOL0     H16101   7.339   1.687   5.933  2.7141  0.5229  3.2216
  880MOL0     H16102   7.324   1.792   5.793 -1.4240 -2.7755  0.3778
  880MOL0     H16103   7.376   1.848   6.079 -2.6312 -2.8179 -0.6096
  880MOL0     H16104   7.421   1.981   5.961  0.0496 -0.4747  0.0521
  880MOL0     H16105   7.144   1.843   5.985 -0.6127  1.3011 -0.8539
  880MOL0     H16106   7.193   1.983   5.879  0.9595  0.8194  0.2256
  880MOL0     H16107   7.252   2.104   6.103  0.0785 -0.5121  1.2498
  880MOL0     H16108   7.189   1.977   6.184  0.3394 -3.5385 -0.9346
  880MOL0     H16109   7.026   2.161   6.170  0.4785  0.8365 -0.3174
  880MOL0     H16110   7.041   2.159   5.993 -1.3172  1.7261 -0.3312
  880MOL0     H16111   6.923   1.932   6.164  3.0648 -1.5335 -1.5150
  880MOL0     H16112   6.917   1.932   5.988 -0.9884  1.6442 -0.6048
  880MOL0     H16113   6.858   2.210   6.254 -1.8695  3.1848  0.0677
  880MOL0     H16114   6.531   2.383   6.190  0.0050  0.1046 -0.1624
  880MOL0     H16115   6.667   2.374   6.315 -0.6466 -1.3400  2.9621
  880MOL0     H16116   6.561   2.172   6.414  1.2087 -1.1147 -0.3695
  880MOL0     H16117   6.445   2.187   6.287  1.3798 -2.4794  1.4913
  880MOL0     H16118   6.455   2.371   6.535 -0.8460 -2.0380  1.9671
  880MOL0     H16119   6.348   2.398   6.390  0.8939 -1.1914 -1.9268
  880MOL0     H16120   6.335   2.159   6.582 -1.3314  0.9953  1.7101
  880MOL0     H16121   6.235   2.187   6.430 -1.8655  2.3060  0.1440
  880MOL0     H16122   6.054   2.109   6.688 -1.0321 -0.6044 -0.1333
  880MOL0     H16123   5.808   2.097   6.665 -0.3958  1.7648  2.2846
  880MOL0     H16124   5.405   2.132   6.283 -2.5193 -0.9873 -0.8588
  880MOL0     H16125   5.185   2.180   6.300  0.3051  1.1727 -0.6918
  880MOL0     H16126   5.047   2.356   6.567  0.9492  2.5143  0.0471
  880MOL0     H16127   4.970   2.277   6.426 -2.4720 -0.2401  0.5618
  880MOL0     H16128   4.847   2.481   6.396  1.3759 -2.4079 -0.9573
  880MOL0     H16129   4.903   2.545   6.558  2.0447 -2.1073  1.3159
  880MOL0     H16130   4.796   2.324   6.653  0.2007 -0.4369 -0.5783
  880MOL0     H16131   4.748   2.287   6.500 -2.1774 -0.0986  1.5279
  880MOL0     H16132   4.623   2.514   6.674 -3.1730 -0.1636 -0.1322
  880MOL0     H16133   4.621   2.512   6.493 -0.8771 -0.3283 -0.3382
  880MOL0     H16134   4.502   2.301   6.509  0.3398  1.4751 -0.4256
  880MOL0     H16135   4.414   2.436   6.603  1.2758  3.0767  1.2653
  880MOL0     H16136   4.522   2.336   6.813 -3.6256  0.8562  1.0368
  880MOL0     H16137   4.590   2.219   6.710  0.9113  0.4124  1.3975
  880MOL0     H16138   4.365   2.120   6.655  1.5216  0.6384 -0.9702
  880MOL0     H16139   4.433   2.123   6.812  1.9790  0.2965 -1.1663
  880MOL0     H16140   4.202   2.307   6.732 -3.3209  0.0097  1.6239
  880MOL0     H16141   4.283   2.329   6.883 -4.5164  1.3258 -1.0194
  880MOL0     H16142   5.266   2.592   6.402 -0.6553 -0.1312  2.2666
  880MOL0     H16143   5.504   2.535   6.411  0.6676 -1.8792  2.3130
  880MOL0     H16144   5.812   2.415   6.394  0.3115  0.3254 -0.2265
  880MOL0     H16145   6.061   2.437   6.417 -1.1978  0.5197  0.2889
  880MOL0     H16146   7.582   1.439   5.584  0.8122  0.5841 -1.3680
  880MOL0     H16147   7.678   1.257   5.471 -2.0536  1.1792  0.8235
  880MOL0     H16148   8.200   1.149   5.420  1.6912 -2.6576  2.7211
  880MOL0     H16149   8.384   1.038   5.289  1.2561 -1.3774 -1.5460
  880MOL0     H16150   8.422   0.666   5.064  1.3742 -2.4126  1.7237
  880MOL0     H16151   8.352   0.667   5.237  1.9698  1.6427  3.0206
  880MOL0     H16152   8.611   0.811   5.148  0.2058  2.0845  2.4630
  880MOL0     H16153   8.531   0.822   5.300  2.0922  0.2483  0.7398
  880MOL0     H16154   8.604   0.558   5.170 -1.9804  0.1267 -0.5400
  880MOL0     H16155   8.547   0.577   5.325 -2.2500  0.6724 -1.3560
  880MOL0     H16156   8.790   0.546   5.337  3.5467  1.5143  1.5217
  880MOL0     H16157   8.827   0.673   5.206 -0.7088  2.7524 -0.0335
  880MOL0     H16158   8.789   0.918   5.537 -0.5177  0.1977  0.2810
  880MOL0     H16159   8.085   0.774   5.125  1.6781  0.2203 -0.4483
  880MOL0     H16160   7.901   0.876   5.273  0.0269  0.2367  2.9927
  881MOL0     O16161   2.746   0.366   2.735  0.1490  0.2920  0.2408
  881MOL0     C16162   2.711   0.442   2.648 -0.8792 -0.5307  0.2060
  881MOL0     O16163   2.790   0.514   2.568 -0.0788  0.5142  0.3179
  881MOL0     C16164   2.920   0.540   2.608  0.1177 -0.6852 -0.0677
  881MOL0     C16165   3.022   0.547   2.520  0.1483 -0.8007  0.0826
  881MOL0     C16166   3.154   0.562   2.555 -0.3983  0.1910 -0.3624
  881MOL0     C16167   3.199   0.552   2.683  0.5575  0.1516 -0.8534
  881MOL0     O16168   3.332   0.552   2.733 -0.2084  0.0226  0.3582
  881MOL0     C16169   3.423   0.656   2.686  0.0266  0.0888 -0.4917
  881MOL0     C16170   3.537   0.653   2.781  0.5655 -0.0842  0.2504
  881MOL0     C16171   3.651   0.743   2.723  0.5237 -0.5530  0.4912
  881MOL0     C16172   3.783   0.774   2.811 -0.0352  0.6504  0.4907
  881MOL0     C16173   3.773   0.847   2.957  0.2117 -0.5781  0.4749
  881MOL0     C16174   3.720   0.985   2.959 -0.1630  0.3668  0.3908
  881MOL0     C16175   3.714   1.039   3.098 -0.3059  0.0495 -0.3894
  881MOL0     C16176   3.683   1.192   3.107 -0.0076  0.2760 -0.4018
  881MOL0     N16177   3.549   1.227   3.128  0.8548  0.4974 -0.0113
  881MOL0     C16178   3.478   1.195   3.240 -0.2703 -0.1099 -0.5084
  881MOL0     C16179   3.355   1.227   3.214 -0.1926 -0.1668  0.0681
  881MOL0     C16180   3.232   1.200   3.297  0.2738 -0.5130 -0.4746
  881MOL0     C16181   3.125   1.134   3.210 -0.5324 -0.0474  0.0778
  881MOL0     C16182   2.999   1.121   3.282 -0.6382  0.0455  0.0302
  881MOL0     C16183   2.885   1.078   3.194  0.6708  0.0408 -0.2971
  881MOL0     O16184   2.768   1.042   3.274  0.9677  0.2845 -0.5663
  881MOL0     C16185   2.645   1.016   3.213 -1.5133 -0.6795  0.3989
  881MOL0     C16186   2.595   1.104   3.122  0.1089  0.1237 -0.0029
  881MOL0     C16187   2.473   1.081   3.071  0.2882  0.0833  0.0539
  881MOL0     C16188   2.385   0.978   3.105 -0.2097  1.1569 -0.1247
  881MOL0     C16189   2.249   0.953   3.049  0.1505  0.2472 -0.3303
  881MOL0     O16190   2.163   0.880   3.128 -0.5546 -0.7357 -0.1738
  881MOL0     C16191   2.040   0.843   3.091 -0.4948  0.5289 -0.2638
  881MOL0     C16192   2.015   0.758   2.980  0.5266  0.1887  0.9634
  881MOL0     C16193   1.882   0.712   2.965 -1.0593 -0.2381 -0.2091
  881MOL0     C16194   1.790   0.725   3.068  0.1244 -0.8481 -0.0038
  881MOL0     O16195   1.665   0.663   3.079 -0.3493  0.4363 -0.6000
  881MOL0     C16196   1.606   0.613   2.966  1.0572  0.4971 -0.1055
  881MOL0     C16197   1.532   0.717   2.877  0.4026 -0.0793  0.2139
  881MOL0     C16198   1.423   0.791   2.953  0.6860  1.4347 -0.2116
  881MOL0     C16199   1.350   0.901   2.880 -0.3542 -0.2715 -0.3710
  881MOL0     C16200   1.224   0.973   2.938 -0.0379 -1.0405 -0.4074
  881MOL0     C16201   1.101   0.892   2.944  0.3959 -0.1356  0.0030
  881MOL0     C16202   1.010   0.948   3.046  0.9092 -1.2098 -0.1808
  881MOL0     C16203   0.878   0.883   3.022  0.0812  0.0770 -0.2819
  881MOL0    Cl16204   0.754   0.947   3.141  0.2576 -0.3830  0.1692
  881MOL0     C16205   1.815   0.819   3.167 -0.5718 -0.2468 -0.1609
  881MOL0     C16206   1.937   0.883   3.176 -0.0498 -0.3403  0.0808
  881MOL0     O16207   2.221   0.989   2.934  0.5120 -0.4320 -0.2202
  881MOL0     C16208   2.443   0.885   3.198  0.0885  0.7182 -0.2460
  881MOL0     C16209   2.571   0.903   3.251 -0.2777 -0.2336  0.0042
  881MOL0     N16210   3.356   1.298   3.093  0.6250  0.0745  0.0342
  881MOL0     N16211   3.470   1.293   3.039  0.1738 -0.6202 -0.2573
  881MOL0     C16212   3.096   0.555   2.773 -0.5803  0.5700 -0.0081
  881MOL0     C16213   2.962   0.552   2.741  0.7573  0.2618 -0.8699
  881MOL0     C16214   2.573   0.421   2.595  0.1139 -0.3592  0.1130
  881MOL0     C16215   2.557   0.435   2.452 -0.1982  0.2732 -0.3046
  881MOL0     C16216   2.431   0.440   2.404  0.7708  0.5866  0.6197
  881MOL0     C16217   2.317   0.433   2.473 -0.7281  0.6887 -0.3328
  881MOL0     O16218   2.193   0.433   2.411 -0.0471  0.0529  0.0588
  881MOL0     C16219   2.074   0.376   2.477 -0.3417  0.6409  0.5367
  881MOL0     C16220   1.965   0.376   2.373  0.4576  0.0793 -0.2255
  881MOL0     C16221   1.889   0.506   2.370 -0.6467 -0.5636  0.1264
  881MOL0     C16222   1.755   0.498   2.286 -0.7767  0.1638  0.3465
  881MOL0     C16223   1.643   0.445   2.367  0.8258 -0.0668  0.3813
  881MOL0     C16224   1.559   0.391   2.441  0.3880 -0.2929  0.9343
  881MOL0     C16225   2.323   0.414   2.613  0.0408 -0.8965 -0.1569
  881MOL0     C16226   2.452   0.396   2.674 -0.7289  0.0058  0.8418
  881MOL0     H16227   3.001   0.531   2.415  2.3445  3.0369 -1.1395
  881MOL0     H16228   3.229   0.546   2.478  0.0446 -0.9409  0.2685
  881MOL0     H16229   3.374   0.754   2.691  0.8613  0.4793  0.2379
  881MOL0     H16230   3.462   0.633   2.586  1.6992 -0.9561  0.3617
  881MOL0     H16231   3.583   0.554   2.791  1.8770  0.4096 -0.5932
  881MOL0     H16232   3.521   0.694   2.882  1.7792 -1.5675  1.0877
  881MOL0     H16233   3.614   0.840   2.688  1.6246  0.0144  0.8434
  881MOL0     H16234   3.684   0.684   2.637  2.5670  1.7452 -0.4219
  881MOL0     H16235   3.831   0.676   2.822 -1.1365  0.0450  0.1496
  881MOL0     H16236   3.851   0.833   2.750 -1.3369 -0.8450 -2.6538
  881MOL0     H16237   3.875   0.844   2.996  0.7798  0.9071 -0.7853
  881MOL0     H16238   3.714   0.779   3.018  0.2829 -2.4839 -1.4497
  881MOL0     H16239   3.622   0.980   2.912 -0.7591 -1.3697  1.7244
  881MOL0     H16240   3.793   1.039   2.897 -0.5624  0.8870  0.3655
  881MOL0     H16241   3.655   0.991   3.176  2.1878 -0.1627  1.5123
  881MOL0     H16242   3.814   1.017   3.137 -0.4531 -4.6715 -2.1442
  881MOL0     H16243   3.706   1.236   3.009 -0.3998  1.4000 -0.0005
  881MOL0     H16244   3.743   1.228   3.191  1.8555 -4.2081  0.4796
  881MOL0     H16245   3.519   1.139   3.323  0.9378  1.2333 -0.1632
  881MOL0     H16246   3.192   1.295   3.333 -1.6040 -1.4761  0.1041
  881MOL0     H16247   3.261   1.147   3.389  0.5275  2.0680  1.0176
  881MOL0     H16248   3.160   1.033   3.186 -2.4669 -0.6327 -0.5604
  881MOL0     H16249   3.110   1.195   3.120  0.0599  0.6442  0.4500
  881MOL0     H16250   3.016   1.047   3.361 -0.2460  0.4449  0.3265
  881MOL0     H16251   2.965   1.216   3.325  1.7531  0.3393  1.4057
  881MOL0     H16252   2.915   0.999   3.125 -0.8450 -2.9451  2.1838
  881MOL0     H16253   2.864   1.157   3.122  0.8958 -0.7330 -1.2322
  881MOL0     H16254   2.637   1.195   3.081 -1.5159  0.9236  0.0203
  881MOL0     H16255   2.441   1.142   2.987 -1.4699 -1.1960 -0.2856
  881MOL0     H16256   2.095   0.746   2.908 -0.4827  0.9825 -0.3355
  881MOL0     H16257   1.855   0.651   2.879 -3.0842 -0.9484  0.8528
  881MOL0     H16258   1.538   0.535   3.004  1.8590 -0.6142 -0.8629
  881MOL0     H16259   1.677   0.547   2.916  0.3293 -0.5149  0.1595
  881MOL0     H16260   1.491   0.676   2.785  2.0956  0.9851 -1.0760
  881MOL0     H16261   1.605   0.783   2.829 -1.3858  0.9514 -1.2137
  881MOL0     H16262   1.458   0.843   3.042 -3.5535  0.6481  2.2190
  881MOL0     H16263   1.348   0.718   2.989  2.2275  0.0075  0.2351
  881MOL0     H16264   1.433   0.972   2.874  1.0228 -1.7975  0.0636
  881MOL0     H16265   1.317   0.857   2.786  0.9151 -3.7180  0.6360
  881MOL0     H16266   1.199   1.063   2.881 -0.8457 -1.1876 -0.2961
  881MOL0     H16267   1.248   1.008   3.039 -1.6218  0.9303 -0.6335
  881MOL0     H16268   1.125   0.795   2.989 -2.4862 -0.1893  1.6234
  881MOL0     H16269   1.063   0.870   2.844 -0.8976 -0.0024  0.4447
  881MOL0     H16270   1.037   0.908   3.144 -0.8574  0.6723  1.1673
  881MOL0     H16271   1.004   1.057   3.061  1.5319 -0.9022 -1.9576
  881MOL0     H16272   0.890   0.776   3.038 -0.1924  0.2391  1.1123
  881MOL0     H16273   0.838   0.895   2.921  3.0531 -1.4053 -1.7535
  881MOL0     H16274   1.741   0.845   3.243 -0.6709  1.7870 -0.8845
  881MOL0     H16275   1.955   0.947   3.261  3.3811  0.9125 -1.4077
  881MOL0     H16276   2.389   0.793   3.220 -0.2484  1.0533  0.3534
  881MOL0     H16277   2.614   0.828   3.317 -0.5525  0.7840  1.3796
  881MOL0     H16278   3.132   0.548   2.876  0.0334 -0.1036 -0.2592
  881MOL0     H16279   2.879   0.551   2.811  0.5529  1.5002 -1.0700
  881MOL0     H16280   2.638   0.460   2.385  0.2479 -2.3038 -0.8219
  881MOL0     H16281   2.415   0.465   2.299  0.2696 -1.1813  0.2485
  881MOL0     H16282   2.043   0.434   2.564  1.0092  0.4298  1.1854
  881MOL0     H16283   2.097   0.278   2.518  0.6011  1.9144  3.2733
  881MOL0     H16284   2.003   0.352   2.273 -0.9349 -0.7845 -0.5715
  881MOL0     H16285   1.897   0.293   2.396 -0.7190  0.2877 -2.6174
  881MOL0     H16286   1.956   0.584   2.332  3.3332 -2.0896  3.2005
  881MOL0     H16287   1.869   0.526   2.476  0.4389  0.4990  0.1467
  881MOL0     H16288   1.726   0.596   2.248  2.7886  0.6326 -1.6180
  881MOL0     H16289   1.761   0.433   2.198  2.1042  1.5631 -0.6075
  881MOL0     H16290   1.500   0.326   2.502  0.5626 -1.3391  0.0352
  881MOL0     H16291   2.230   0.400   2.667 -1.1986 -0.5933 -2.1488
  881MOL0     H16292   2.459   0.391   2.782 -0.2894  1.7679  0.9313
  882MOL0     O16293  11.066   9.099   5.936 -0.8214 -0.3358 -0.0772
  882MOL0     C16294  11.134   9.190   5.987  0.0801  0.2458  0.6147
  882MOL0     O16295  11.091   9.282   6.079 -0.0325  0.2677  0.1787
  882MOL0     C16296  10.956   9.288   6.095  0.0683  1.1514  0.9579
  882MOL0     C16297  10.882   9.187   6.152 -0.1625 -0.4455 -0.2131
  882MOL0     C16298  10.742   9.192   6.153 -0.9184 -0.6039 -0.5115
  882MOL0     C16299  10.684   9.304   6.096  0.0120 -0.4917  0.1306
  882MOL0     O16300  10.550   9.329   6.086  0.5476  0.2366 -0.3297
  882MOL0     C16301  10.465   9.251   6.174  0.0781 -0.1281  0.2543
  882MOL0     C16302  10.320   9.310   6.168  0.5845  1.3008 -0.9753
  882MOL0     C16303  10.242   9.243   6.274 -0.1156 -0.2550 -0.2083
  882MOL0     C16304  10.098   9.284   6.260  0.6384 -0.4462 -0.1283
  882MOL0     C16305  10.013   9.255   6.384  0.1406 -0.5535 -0.5640
  882MOL0     C16306  10.056   9.358   6.493  0.2324  0.0183 -0.0669
  882MOL0     C16307   9.987   9.333   6.634 -0.4099  0.1609 -0.4214
  882MOL0     C16308   9.831   9.346   6.627 -0.4691 -0.2613 -0.0990
  882MOL0     N16309   9.800   9.347   6.770  0.2146  0.6719  0.0178
  882MOL0     C16310   9.785   9.457   6.850 -0.8148  0.0046 -0.1817
  882MOL0     C16311   9.789   9.403   6.974  0.9996  0.1987  0.5000
  882MOL0     C16312   9.791   9.469   7.114 -0.5020 -0.0815  0.0354
  882MOL0     C16313   9.665   9.554   7.124 -0.0011 -0.4015  0.0235
  882MOL0     C16314   9.536   9.469   7.132 -0.0670  0.8833 -0.3287
  882MOL0     C16315   9.405   9.545   7.124 -0.8147  0.7159 -0.7456
  882MOL0     O16316   9.409   9.636   7.012 -0.2168  0.0460 -0.6039
  882MOL0     C16317   9.414   9.579   6.890 -0.3501  0.1255 -0.8962
  882MOL0     C16318   9.468   9.657   6.784 -0.1012 -0.1277  0.7824
  882MOL0     C16319   9.471   9.607   6.652 -0.2104  0.3543  0.2975
  882MOL0     C16320   9.446   9.478   6.623  0.1561 -0.4126  1.5903
  882MOL0     C16321   9.448   9.414   6.481 -0.0039  0.4687 -0.2563
  882MOL0     O16322   9.409   9.278   6.471 -0.3185 -0.1340 -0.6113
  882MOL0     C16323   9.380   9.221   6.349 -0.2099 -0.4305 -0.0265
  882MOL0     C16324   9.432   9.094   6.329  1.1982 -0.8636  0.0117
  882MOL0     C16325   9.388   9.021   6.224 -0.1416 -0.1072  0.2645
  882MOL0     C16326   9.318   9.084   6.121 -0.2747  0.5991 -0.2245
  882MOL0     O16327   9.299   9.027   5.997  0.2532  0.7546 -0.1646
  882MOL0     C16328   9.240   8.893   5.989 -0.7044 -0.1926 -0.4596
  882MOL0     C16329   9.090   8.895   6.027  0.0100  0.2891 -0.8917
  882MOL0     C16330   9.005   8.974   5.935 -1.0292  0.3055  0.0821
  882MOL0     C16331   8.858   8.946   5.967 -0.5535 -0.2733  0.8263
  882MOL0     C16332   8.766   9.017   5.870 -0.3451  0.0968 -0.3573
  882MOL0     C16333   8.627   9.020   5.938  0.1556 -0.1789 -0.0564
  882MOL0     C16334   8.568   8.883   5.963 -0.5676  0.9015  0.8539
  882MOL0     C16335   8.417   8.883   5.976  0.2390 -0.1314 -0.3886
  882MOL0    Cl16336   8.345   8.930   5.824  0.1654 -0.3758 -0.2215
  882MOL0     C16337   9.275   9.214   6.136  0.2222  0.2587  0.8445
  882MOL0     C16338   9.306   9.287   6.247 -0.1253 -0.0315 -0.5283
  882MOL0     O16339   9.477   9.487   6.386 -0.0003 -0.6024  0.1645
  882MOL0     C16340   9.410   9.392   6.733 -0.7497  0.5637  0.2922
  882MOL0     C16341   9.386   9.443   6.862  1.0760 -0.0806  0.1063
  882MOL0     N16342   9.791   9.266   6.966 -0.7851  0.2903  0.1128
  882MOL0     N16343   9.783   9.236   6.839 -0.3944 -1.1282 -0.1552
  882MOL0     C16344  10.758   9.409   6.039 -0.4672 -0.6276 -0.6630
  882MOL0     C16345  10.896   9.398   6.037 -0.4521 -0.6516 -0.1389
  882MOL0     C16346  11.269   9.225   5.932  1.1304 -0.5244  0.2010
  882MOL0     C16347  11.343   9.142   5.839  0.6726 -0.9576 -0.4342
  882MOL0     C16348  11.483   9.166   5.813  0.1717 -0.0870  1.3153
  882MOL0     C16349  11.548   9.279   5.867 -0.3489  0.2145  0.1869
  882MOL0     O16350  11.675   9.322   5.845 -0.9640  0.1968  0.3124
  882MOL0     C16351  11.759   9.255   5.744 -0.2073  0.2095 -0.3558
  882MOL0     C16352  11.877   9.351   5.729 -0.1747  0.4019  0.2950
  882MOL0     C16353  11.973   9.321   5.609 -0.2583 -0.2047 -0.1640
  882MOL0     C16354  12.114   9.372   5.642 -0.2292  0.3420  0.0249
  882MOL0     C16355  12.198   9.321   5.538 -0.5681 -0.8244 -0.1541
  882MOL0     C16356  12.282   9.283   5.457  0.6012 -0.1974  0.4742
  882MOL0     C16357  11.478   9.359   5.969 -0.6240  0.4320  0.7136
  882MOL0     C16358  11.345   9.330   5.993 -0.3175  0.3660  0.3825
  882MOL0     H16359  10.925   9.094   6.186 -0.3021 -0.4636 -0.0865
  882MOL0     H16360  10.689   9.100   6.176 -1.1605 -0.4943 -0.6292
  882MOL0     H16361  10.494   9.257   6.280 -0.1530 -2.2233  0.4662
  882MOL0     H16362  10.480   9.148   6.144 -1.1715 -0.1293 -0.4337
  882MOL0     H16363  10.276   9.281   6.072 -5.3558 -0.2039  1.7689
  882MOL0     H16364  10.308   9.418   6.182 -0.4188  1.2047 -0.9951
  882MOL0     H16365  10.276   9.275   6.373  1.4922  3.5905 -1.8233
  882MOL0     H16366  10.243   9.133   6.274  0.6031 -0.2570  0.2502
  882MOL0     H16367  10.087   9.390   6.235  0.4844  0.0446  1.8516
  882MOL0     H16368  10.049   9.223   6.184 -2.2844 -1.0803  2.0624
  882MOL0     H16369  10.014   9.152   6.422 -0.9836 -1.3430 -2.5525
  882MOL0     H16370   9.911   9.269   6.348  0.5185  1.5057 -0.9122
  882MOL0     H16371  10.032   9.462   6.470  1.3063  0.9157  2.5256
  882MOL0     H16372  10.163   9.344   6.513  0.1469 -0.8328 -0.1796
  882MOL0     H16373  10.014   9.233   6.669  0.3482 -0.0791 -1.6032
  882MOL0     H16374  10.022   9.404   6.710 -0.2876 -0.6713  0.3099
  882MOL0     H16375   9.777   9.261   6.585 -1.0346  0.0413 -0.0066
  882MOL0     H16376   9.797   9.442   6.585 -3.9502 -0.5709  1.6739
  882MOL0     H16377   9.785   9.561   6.819 -0.6973  0.1840  0.4207
  882MOL0     H16378   9.878   9.532   7.134  1.6283 -2.1558 -2.1531
  882MOL0     H16379   9.785   9.389   7.189 -1.1065  0.3957  0.5033
  882MOL0     H16380   9.658   9.620   7.037  1.4061  0.0447  0.2314
  882MOL0     H16381   9.662   9.611   7.217 -1.6335  0.6764 -0.6484
  882MOL0     H16382   9.536   9.385   7.061 -0.2987 -0.4601  1.2029
  882MOL0     H16383   9.536   9.419   7.229  2.6290  0.8366 -0.2914
  882MOL0     H16384   9.402   9.605   7.215 -2.2582 -0.0921 -0.2293
  882MOL0     H16385   9.327   9.469   7.113 -0.3536  0.0466  0.4791
  882MOL0     H16386   9.495   9.758   6.814 -0.2102  0.1915 -0.1507
  882MOL0     H16387   9.506   9.674   6.575 -3.0210  1.3408 -0.2298
  882MOL0     H16388   9.494   9.059   6.411  0.9906  0.8558  0.9508
  882MOL0     H16389   9.417   8.917   6.218  1.9838  0.3072  1.9978
  882MOL0     H16390   9.294   8.822   6.054 -1.8973  1.3274  2.3659
  882MOL0     H16391   9.253   8.842   5.893 -0.7289 -1.3484  0.1338
  882MOL0     H16392   9.079   8.946   6.123  0.9177  1.5671 -1.4246
  882MOL0     H16393   9.050   8.796   6.048 -0.3959  0.3901 -1.1943
  882MOL0     H16394   9.031   8.950   5.832  0.0053  2.6692 -0.2640
  882MOL0     H16395   9.036   9.078   5.950 -3.8134  2.3200 -5.4049
  882MOL0     H16396   8.847   8.839   5.948  3.0299 -0.3173 -2.0031
  882MOL0     H16397   8.836   8.976   6.070  2.3617  0.6523  1.2535
  882MOL0     H16398   8.775   8.966   5.774  0.5333  1.7813 -1.2204
  882MOL0     H16399   8.806   9.119   5.859 -1.1743  0.3956 -0.6809
  882MOL0     H16400   8.558   9.080   5.877 -0.3600  1.7964  2.3043
  882MOL0     H16401   8.640   9.054   6.041 -0.8521 -4.1563  1.5578
  882MOL0     H16402   8.588   8.810   5.883 -2.4479  0.7201  0.5131
  882MOL0     H16403   8.597   8.844   6.060  1.8768  2.3069  0.7685
  882MOL0     H16404   8.389   8.945   6.062  1.4048  0.5807 -0.5063
  882MOL0     H16405   8.392   8.778   5.996  2.5151 -1.2188 -2.7252
  882MOL0     H16406   9.214   9.259   6.057 -0.4434  2.3330  2.4421
  882MOL0     H16407   9.267   9.387   6.261 -3.8254 -1.5310  1.1258
  882MOL0     H16408   9.383   9.291   6.703 -2.8146  1.5386 -1.3324
  882MOL0     H16409   9.342   9.375   6.934  2.1896 -1.0983 -0.1478
  882MOL0     H16410  10.698   9.489   5.996  0.5161  2.3239  2.9404
  882MOL0     H16411  10.953   9.471   5.981 -0.6124 -1.1524 -0.9863
  882MOL0     H16412  11.307   9.050   5.795 -0.2033 -1.4723  1.2715
  882MOL0     H16413  11.541   9.097   5.754  2.1982  1.8521  0.9120
  882MOL0     H16414  11.716   9.248   5.644 -0.8778  0.2151 -0.0729
  882MOL0     H16415  11.798   9.157   5.774 -0.2452  0.4897  0.6637
  882MOL0     H16416  11.841   9.452   5.712  2.4258  1.2258 -0.9150
  882MOL0     H16417  11.934   9.352   5.823 -0.9994  0.0687  0.8067
  882MOL0     H16418  11.936   9.370   5.518 -2.6070 -3.2109 -0.9777
  882MOL0     H16419  11.985   9.213   5.595 -0.2074 -0.8165  3.6979
  882MOL0     H16420  12.117   9.482   5.645  0.5555  0.3110  0.6025
  882MOL0     H16421  12.148   9.328   5.737  1.0921 -1.5088 -1.2449
  882MOL0     H16422  12.354   9.241   5.390 -3.0070 -1.7671 -2.8505
  882MOL0     H16423  11.541   9.436   6.013  0.5609 -0.3545  0.4313
  882MOL0     H16424  11.290   9.401   6.053 -0.2642 -0.4686  1.4438
  883MOL0     O16425   9.033   8.183   7.755  0.0671  0.3613 -0.6067
  883MOL0     C16426   9.157   8.164   7.741 -0.4271  0.6399  0.2003
  883MOL0     O16427   9.216   8.050   7.705 -0.1812  0.8327  0.8192
  883MOL0     C16428   9.119   7.951   7.664  0.1723 -0.5298  0.7253
  883MOL0     C16429   9.030   7.976   7.560  0.0267 -0.1161 -0.4271
  883MOL0     C16430   8.947   7.872   7.526 -0.2173  0.6900 -0.2082
  883MOL0     C16431   8.934   7.751   7.594 -0.8178  0.4615  0.4326
  883MOL0     O16432   8.842   7.652   7.571  0.0857 -0.6524 -0.9120
  883MOL0     C16433   8.718   7.667   7.499 -0.1224 -0.6470  1.1172
  883MOL0     C16434   8.596   7.602   7.574 -0.7351  0.2984  0.2619
  883MOL0     C16435   8.460   7.663   7.530 -0.3474 -0.4896  0.1264
  883MOL0     C16436   8.353   7.618   7.632  0.0108  0.8496 -0.9330
  883MOL0     C16437   8.209   7.615   7.585 -0.1290 -0.4799 -0.2760
  883MOL0     C16438   8.185   7.527   7.459  0.6728 -0.4199 -0.4909
  883MOL0     C16439   8.033   7.479   7.447 -0.2214 -0.8179  0.7142
  883MOL0     C16440   7.935   7.598   7.429  0.1462  0.2223 -0.4193
  883MOL0     N16441   7.804   7.553   7.386 -0.4459 -0.0602  0.8196
  883MOL0     C16442   7.775   7.480   7.272 -0.1357  0.6091  0.2618
  883MOL0     C16443   7.649   7.457   7.266  1.0206  0.5218  0.1570
  883MOL0     C16444   7.568   7.392   7.165  0.1716  0.7795  0.6681
  883MOL0     C16445   7.642   7.310   7.053  0.0037 -0.4709 -0.1675
  883MOL0     C16446   7.655   7.161   7.077  0.3965 -0.3076 -0.0419
  883MOL0     C16447   7.764   7.103   7.181  0.7444  0.5860 -0.0153
  883MOL0     O16448   7.716   7.159   7.296 -0.3370  0.1436  0.5814
  883MOL0     C16449   7.773   7.132   7.421 -0.2726 -0.7122  0.3471
  883MOL0     C16450   7.869   7.029   7.435  0.2950  0.7832 -0.2832
  883MOL0     C16451   7.937   7.004   7.561 -0.4877 -0.4835  0.1542
  883MOL0     C16452   7.913   7.095   7.672 -0.4408 -0.8828  0.7781
  883MOL0     C16453   7.990   7.086   7.795  0.5172 -0.5543 -0.4539
  883MOL0     O16454   7.983   7.193   7.874  0.5961 -0.1063  0.1178
  883MOL0     C16455   8.063   7.213   7.979 -0.9408  0.5023  0.5954
  883MOL0     C16456   8.202   7.195   7.996  0.5321  0.1047  0.0948
  883MOL0     C16457   8.264   7.219   8.112  0.2029  0.3732  0.3969
  883MOL0     C16458   8.195   7.263   8.223 -0.0219 -0.5559 -0.0185
  883MOL0     O16459   8.271   7.288   8.335  0.1533 -0.4417 -0.6020
  883MOL0     C16460   8.310   7.423   8.372  0.0758  0.1300  0.2470
  883MOL0     C16461   8.448   7.459   8.306 -0.9488  0.2257  0.2599
  883MOL0     C16462   8.566   7.376   8.345  0.3226 -0.6885 -0.8708
  883MOL0     C16463   8.691   7.473   8.358  0.3941  0.1840  0.3604
  883MOL0     C16464   8.812   7.397   8.394 -0.9330 -0.5056 -0.4817
  883MOL0     C16465   8.934   7.435   8.307  0.5617  1.4982  0.5896
  883MOL0     C16466   9.059   7.344   8.356  0.0883 -0.6080  0.8428
  883MOL0     C16467   9.165   7.392   8.253  0.5113  0.0750  0.2133
  883MOL0    Cl16468   9.235   7.551   8.308  0.3553 -0.0646  0.1121
  883MOL0     C16469   8.060   7.286   8.207  0.3988  0.1223  0.8096
  883MOL0     C16470   7.997   7.265   8.086 -0.2233  0.5007 -0.6427
  883MOL0     O16471   8.069   6.991   7.813 -0.4537 -0.0519 -0.1071
  883MOL0     C16472   7.807   7.184   7.657  0.6502 -0.0738  1.3817
  883MOL0     C16473   7.742   7.208   7.531 -1.0241  0.3879  0.0479
  883MOL0     N16474   7.593   7.510   7.383  0.5325  0.2693  0.6378
  883MOL0     N16475   7.682   7.575   7.441  0.4283 -0.4341 -0.2195
  883MOL0     C16476   9.036   7.722   7.679  0.2445 -0.4063  0.1341
  883MOL0     C16477   9.127   7.822   7.721 -0.3506  0.2175 -0.0408
  883MOL0     C16478   9.250   8.274   7.787 -0.6158 -0.8998 -0.4177
  883MOL0     C16479   9.190   8.395   7.815 -0.1251  0.2460 -1.2210
  883MOL0     C16480   9.274   8.500   7.871 -0.0272 -0.0753  0.0266
  883MOL0     C16481   9.414   8.486   7.882 -0.8901 -0.3601  0.4333
  883MOL0     O16482   9.500   8.586   7.934 -0.4579 -0.1937 -0.0811
  883MOL0     C16483   9.444   8.679   8.028  0.7253  0.4766  0.1966
  883MOL0     C16484   9.556   8.769   8.082  0.6566  0.2942 -0.1577
  883MOL0     C16485   9.502   8.834   8.212 -0.5343  0.1656 -0.0596
  883MOL0     C16486   9.618   8.875   8.300 -0.2354  0.3469 -0.4214
  883MOL0     C16487   9.699   8.763   8.356  1.2182 -0.9556 -0.4165
  883MOL0     C16488   9.767   8.669   8.387  0.2203  0.3899  0.1643
  883MOL0     C16489   9.477   8.368   7.837 -0.1247 -1.2900 -0.0948
  883MOL0     C16490   9.396   8.261   7.802 -0.0100  0.8421  0.3815
  883MOL0     H16491   9.016   8.072   7.512 -0.8343 -1.4748 -3.0651
  883MOL0     H16492   8.885   7.894   7.440  1.0731 -0.9289 -1.6424
  883MOL0     H16493   8.732   7.621   7.401  1.2462 -1.0311  1.4704
  883MOL0     H16494   8.702   7.773   7.475 -3.8173 -1.6671 -1.7622
  883MOL0     H16495   8.605   7.593   7.683 -0.1522 -3.0658  0.0184
  883MOL0     H16496   8.600   7.500   7.535 -0.4869 -0.2192  1.5924
  883MOL0     H16497   8.444   7.658   7.422 -0.7788  3.1800 -0.1101
  883MOL0     H16498   8.460   7.772   7.541  0.4974 -0.5592  0.9222
  883MOL0     H16499   8.371   7.517   7.670 -0.1001  0.9024 -0.7383
  883MOL0     H16500   8.354   7.687   7.717  1.6984  1.3607 -1.3290
  883MOL0     H16501   8.175   7.713   7.549  2.7017  0.4273 -0.7959
  883MOL0     H16502   8.141   7.591   7.667  1.0537  0.5469  1.0685
  883MOL0     H16503   8.245   7.435   7.465 -1.2659 -1.6744  0.6034
  883MOL0     H16504   8.212   7.590   7.374 -1.0540  1.4637  0.2706
  883MOL0     H16505   8.032   7.403   7.368 -2.5733  2.1805 -2.4337
  883MOL0     H16506   8.007   7.419   7.534  1.8233 -0.8293  1.3792
  883MOL0     H16507   7.968   7.679   7.363  2.1914 -0.7341 -0.6380
  883MOL0     H16508   7.927   7.640   7.529  1.8023 -0.0902 -0.1346
  883MOL0     H16509   7.843   7.445   7.196  0.4821 -3.0066  2.2713
  883MOL0     H16510   7.517   7.469   7.107  2.8589  1.1941 -1.3162
  883MOL0     H16511   7.488   7.335   7.214 -0.6506  0.3809 -1.0668
  883MOL0     H16512   7.738   7.357   7.029 -1.1853  0.7944 -2.8483
  883MOL0     H16513   7.580   7.316   6.963 -1.1924  0.6828  0.6969
  883MOL0     H16514   7.559   7.121   7.109 -1.7455  2.3881 -2.5985
  883MOL0     H16515   7.649   7.121   6.975 -1.4515 -0.3746  0.0705
  883MOL0     H16516   7.862   7.147   7.160  0.4085  1.3075 -0.1053
  883MOL0     H16517   7.764   6.993   7.179 -0.4945  0.5775 -1.0603
  883MOL0     H16518   7.881   6.943   7.370  2.2026  2.4480 -2.2787
  883MOL0     H16519   8.008   6.924   7.581 -0.8446 -0.4979  1.4411
  883MOL0     H16520   8.257   7.154   7.912 -0.4233  1.0044 -1.0073
  883MOL0     H16521   8.369   7.205   8.135  0.3303 -1.0080 -0.8229
  883MOL0     H16522   8.331   7.430   8.479  3.3971  1.1016 -0.3437
  883MOL0     H16523   8.226   7.487   8.345  0.6920 -0.3908 -3.3581
  883MOL0     H16524   8.460   7.563   8.339  1.0819  0.3590 -0.7258
  883MOL0     H16525   8.443   7.470   8.197 -2.1326  3.2818  0.5059
  883MOL0     H16526   8.588   7.298   8.271 -1.5849 -1.5082 -0.6347
  883MOL0     H16527   8.553   7.329   8.443  0.9853  0.5559 -0.1691
  883MOL0     H16528   8.705   7.523   8.262 -1.4624 -0.6166 -0.3645
  883MOL0     H16529   8.663   7.550   8.430  0.0268 -1.1717  1.7216
  883MOL0     H16530   8.794   7.289   8.392 -1.9149 -0.5760  3.6590
  883MOL0     H16531   8.851   7.420   8.494  1.5516 -1.3168 -1.1709
  883MOL0     H16532   8.954   7.541   8.324 -1.6879  2.0596  0.0655
  883MOL0     H16533   8.903   7.417   8.204 -0.5950  0.5318  1.0811
  883MOL0     H16534   9.086   7.374   8.458 -2.2877 -0.3303  1.4577
  883MOL0     H16535   9.029   7.239   8.348 -1.0602 -0.2486  0.1689
  883MOL0     H16536   9.138   7.410   8.148 -0.0285  3.6275  0.8400
  883MOL0     H16537   9.250   7.324   8.256  1.9355  1.7477 -0.4942
  883MOL0     H16538   8.001   7.301   8.298  0.8770 -2.7291  1.6946
  883MOL0     H16539   7.890   7.285   8.082 -0.2162  0.7552  0.2364
  883MOL0     H16540   7.787   7.244   7.745  1.1699 -0.3686  1.7101
  883MOL0     H16541   7.669   7.287   7.516 -3.1186 -1.3001  0.8450
  883MOL0     H16542   9.009   7.628   7.726 -1.7581  0.0610  0.0011
  883MOL0     H16543   9.201   7.820   7.800 -0.0204  3.5318 -0.1467
  883MOL0     H16544   9.082   8.402   7.806 -0.4486 -2.0899 -0.0232
  883MOL0     H16545   9.233   8.592   7.913  2.1715  0.7453  0.5216
  883MOL0     H16546   9.392   8.621   8.105  0.1529 -1.3196 -1.4516
  883MOL0     H16547   9.365   8.735   7.977  0.3752 -0.3576 -0.2018
  883MOL0     H16548   9.648   8.714   8.106  0.8559  0.6166 -0.1770
  883MOL0     H16549   9.584   8.847   8.011 -0.2129  1.1033  0.3569
  883MOL0     H16550   9.450   8.752   8.262  0.9032  0.1476  1.5144
  883MOL0     H16551   9.432   8.916   8.194  0.0181  0.5709 -0.3858
  883MOL0     H16552   9.694   8.941   8.258  1.6864 -1.4047  0.1726
  883MOL0     H16553   9.562   8.910   8.387 -2.9585 -2.6380 -0.7936
  883MOL0     H16554   9.819   8.585   8.428 -0.5938  0.2014  0.8428
  883MOL0     H16555   9.584   8.358   7.854  0.0598  1.3536  0.8418
  883MOL0     H16556   9.445   8.165   7.793 -0.6775  0.3080  2.0369
  884MOL0     O16557   8.119   8.921   6.736 -0.1713 -0.2995 -0.7834
  884MOL0     C16558   8.168   8.874   6.845  1.4091 -0.0040 -0.1676
  884MOL0     O16559   8.096   8.852   6.959  0.7712 -0.4618 -0.5046
  884MOL0     C16560   7.955   8.850   6.942  0.3353 -1.3283  0.4021
  884MOL0     C16561   7.889   8.729   6.983 -0.5858 -0.6454 -0.7982
  884MOL0     C16562   7.750   8.725   6.980  0.0132  0.3298  0.1550
  884MOL0     C16563   7.679   8.833   6.929 -0.0567 -0.4826 -0.3716
  884MOL0     O16564   7.545   8.820   6.946  0.9976  0.1446  0.5685
  884MOL0     C16565   7.467   8.945   6.926  0.9406 -0.0468 -0.3764
  884MOL0     C16566   7.329   8.927   6.970  0.9130 -0.6381 -0.3766
  884MOL0     C16567   7.296   8.924   7.115 -0.0416 -0.2868  0.7979
  884MOL0     C16568   7.343   9.050   7.201  0.2634  0.3562 -0.0930
  884MOL0     C16569   7.244   9.071   7.315 -0.1992 -0.2412  0.3003
  884MOL0     C16570   7.289   9.175   7.404  0.2707 -1.1747 -0.0928
  884MOL0     C16571   7.314   9.320   7.342 -0.4287 -0.1804 -0.5576
  884MOL0     C16572   7.370   9.394   7.461  0.2170  0.1202 -0.5269
  884MOL0     N16573   7.398   9.531   7.424 -0.3800 -1.0439  0.0453
  884MOL0     C16574   7.501   9.573   7.343  0.3102  0.4249  0.7231
  884MOL0     C16575   7.480   9.710   7.330  1.0160  0.7372  0.4371
  884MOL0     C16576   7.559   9.805   7.236 -0.1292 -1.5246 -0.7225
  884MOL0     C16577   7.502   9.943   7.231 -0.3295  0.6649  0.1067
  884MOL0     C16578   7.363   9.933   7.160  0.4800 -1.1698  0.0333
  884MOL0     C16579   7.281  10.067   7.156 -0.5809 -0.2730 -0.2495
  884MOL0     O16580   7.159  10.067   7.074 -0.0465  0.6098 -0.8019
  884MOL0     C16581   7.040  10.045   7.135 -0.6826 -0.1133  0.3172
  884MOL0     C16582   6.930  10.094   7.068  0.0187 -0.3581 -0.6549
  884MOL0     C16583   6.797  10.072   7.104  0.4912 -0.5863 -0.2682
  884MOL0     C16584   6.766  10.001   7.224  0.2784  0.7277 -0.5161
  884MOL0     C16585   6.624   9.974   7.268 -0.4436 -0.5126 -0.1819
  884MOL0     O16586   6.529  10.024   7.191 -0.4549  0.3635  0.6630
  884MOL0     C16587   6.405  10.016   7.242 -0.6425 -0.6458  0.3059
  884MOL0     C16588   6.319   9.906   7.238 -0.2708 -0.0182  0.4973
  884MOL0     C16589   6.189   9.910   7.286  0.6088 -0.4278 -0.0925
  884MOL0     C16590   6.136  10.024   7.340 -1.3592  0.6285  1.3494
  884MOL0     O16591   6.016  10.012   7.399  1.0551 -0.1160  0.4371
  884MOL0     C16592   5.930  10.125   7.368 -0.0673 -0.2074 -0.2204
  884MOL0     C16593   5.785  10.074   7.351  0.2235  0.2367 -0.8931
  884MOL0     C16594   5.770   9.948   7.273  0.3652 -1.2319 -0.5488
  884MOL0     C16595   5.619   9.915   7.257  0.4193  0.5643 -0.4098
  884MOL0     C16596   5.591   9.802   7.161  0.4350  0.6409 -0.8945
  884MOL0     C16597   5.677   9.671   7.170 -0.5621 -0.4711  0.2597
  884MOL0     C16598   5.671   9.588   7.300  0.4714 -0.1513  0.6380
  884MOL0     C16599   5.742   9.452   7.295  0.2093  0.3100 -0.6284
  884MOL0    Cl16600   5.913   9.478   7.326  0.4384  0.2251 -0.2477
  884MOL0     C16601   6.218  10.140   7.344  0.3607 -0.3269 -0.1098
  884MOL0     C16602   6.347  10.145   7.287  1.2772  0.0723  0.6853
  884MOL0     O16603   6.609   9.926   7.378  0.6774 -0.1761 -0.3563
  884MOL0     C16604   6.882   9.949   7.299 -0.0402 -0.4052 -1.1460
  884MOL0     C16605   7.011   9.976   7.258 -0.5371 -1.0501  0.3236
  884MOL0     N16606   7.381   9.749   7.415 -0.2039  0.4009  0.2094
  884MOL0     N16607   7.320   9.642   7.452  0.2512  0.0996  0.2062
  884MOL0     C16608   7.745   8.961   6.886 -0.9151  0.3286  0.2446
  884MOL0     C16609   7.885   8.961   6.895 -0.8164  1.3980  0.0834
  884MOL0     C16610   8.310   8.850   6.840 -0.1295 -0.2013  0.1675
  884MOL0     C16611   8.384   8.829   6.715  0.0159  0.6025 -0.2747
  884MOL0     C16612   8.526   8.821   6.712  1.5183 -0.1697 -0.4173
  884MOL0     C16613   8.602   8.840   6.833  0.5836 -0.2689 -0.0915
  884MOL0     O16614   8.737   8.816   6.833  0.0737 -0.1921  0.1793
  884MOL0     C16615   8.813   8.824   6.954 -0.3532  0.2206 -0.3044
  884MOL0     C16616   8.966   8.819   6.939  0.9537 -0.2568 -0.3664
  884MOL0     C16617   9.011   8.676   6.893  0.7414 -0.9008  0.3621
  884MOL0     C16618   9.039   8.602   7.028  0.6182 -0.3535 -0.3958
  884MOL0     C16619   9.086   8.470   6.994 -0.5858  0.4334  0.3159
  884MOL0     C16620   9.098   8.360   6.964 -0.4229 -0.5169 -0.7094
  884MOL0     C16621   8.526   8.859   6.956 -0.0109  0.8812  0.9302
  884MOL0     C16622   8.390   8.860   6.958  0.2485  1.5083  0.1176
  884MOL0     H16623   7.948   8.644   7.016  0.6724 -0.5345 -2.6452
  884MOL0     H16624   7.696   8.638   7.014  1.2961 -0.4483  0.2402
  884MOL0     H16625   7.470   8.969   6.819 -1.4441 -3.2099 -1.3154
  884MOL0     H16626   7.513   9.028   6.981 -2.3019  1.2876  0.5551
  884MOL0     H16627   7.309   8.825   6.934  0.9062 -0.2353 -1.5518
  884MOL0     H16628   7.265   8.998   6.918  0.2990 -1.8477 -1.3168
  884MOL0     H16629   7.319   8.826   7.157 -2.1499 -1.6074 -0.9351
  884MOL0     H16630   7.187   8.921   7.112 -0.0644 -0.5440  1.5740
  884MOL0     H16631   7.446   9.044   7.237  0.4444 -1.0913 -0.7891
  884MOL0     H16632   7.332   9.137   7.136 -0.7871  0.6449  0.4533
  884MOL0     H16633   7.230   8.973   7.361 -0.7290 -0.0401  0.5858
  884MOL0     H16634   7.149   9.100   7.267  0.9388  1.8455 -0.8303
  884MOL0     H16635   7.384   9.140   7.446  1.8297  0.5168 -1.9322
  884MOL0     H16636   7.212   9.180   7.481  3.0342 -3.3663  3.0944
  884MOL0     H16637   7.388   9.321   7.261 -1.3629  1.3757 -1.4516
  884MOL0     H16638   7.221   9.362   7.302 -2.2343 -0.1828  3.2204
  884MOL0     H16639   7.458   9.352   7.511 -0.0986  1.6501  1.3982
  884MOL0     H16640   7.286   9.393   7.531  0.2345  0.1927 -0.5059
  884MOL0     H16641   7.579   9.512   7.300  1.4423  0.8980  2.0295
  884MOL0     H16642   7.560   9.771   7.132 -1.1501 -0.6796 -1.0246
  884MOL0     H16643   7.662   9.820   7.270 -0.1965  2.4354 -1.7872
  884MOL0     H16644   7.561  10.010   7.167 -2.9835  0.9551 -2.2390
  884MOL0     H16645   7.498   9.991   7.329  0.1221  1.7051 -0.3726
  884MOL0     H16646   7.383   9.893   7.060  0.1356 -1.2915  0.0129
  884MOL0     H16647   7.294   9.863   7.207 -0.9343 -0.2383 -0.5788
  884MOL0     H16648   7.354  10.140   7.121 -1.0107  0.4766  0.3860
  884MOL0     H16649   7.259  10.097   7.259  3.1063  2.7640 -0.1256
  884MOL0     H16650   6.956  10.145   6.976  2.1566  0.4178  0.3224
  884MOL0     H16651   6.720  10.116   7.040  1.4281  2.8301  0.7132
  884MOL0     H16652   6.370   9.814   7.211 -0.7234 -0.1337  0.0104
  884MOL0     H16653   6.130   9.821   7.302  0.0236  0.0055  0.2234
  884MOL0     H16654   5.954  10.178   7.276 -2.4973 -3.3105 -2.8593
  884MOL0     H16655   5.946  10.193   7.453 -0.6941 -0.1738 -0.1241
  884MOL0     H16656   5.727  10.149   7.295  0.0280  1.0693  0.3695
  884MOL0     H16657   5.730  10.068   7.445  1.2346 -1.6891 -0.3829
  884MOL0     H16658   5.812   9.861   7.324  0.3014  0.4076  2.5132
  884MOL0     H16659   5.807   9.959   7.170 -1.4276 -0.2546 -1.1305
  884MOL0     H16660   5.572   9.885   7.351 -4.2564 -0.7873 -2.8960
  884MOL0     H16661   5.579  10.013   7.229  0.1319 -0.1455 -2.6697
  884MOL0     H16662   5.587   9.836   7.058  0.4250 -0.3048 -1.2151
  884MOL0     H16663   5.489   9.769   7.184  2.0064 -3.2556  1.5212
  884MOL0     H16664   5.780   9.704   7.157 -1.3328  1.0653 -2.8001
  884MOL0     H16665   5.655   9.609   7.083 -0.4964 -0.0234 -0.0799
  884MOL0     H16666   5.700   9.663   7.374 -1.9684  2.0643 -0.4972
  884MOL0     H16667   5.566   9.558   7.311  1.0190 -3.0646 -1.0140
  884MOL0     H16668   5.721   9.399   7.201 -0.7860  0.4088 -0.4747
  884MOL0     H16669   5.709   9.398   7.384  1.2109  0.8098  0.0603
  884MOL0     H16670   6.196  10.231   7.399 -0.4776 -0.5889  0.0038
  884MOL0     H16671   6.412  10.231   7.295 -0.9330  1.8566  0.3022
  884MOL0     H16672   6.863   9.900   7.394 -0.6730 -0.5990 -1.3610
  884MOL0     H16673   7.091   9.919   7.303  2.3222  1.8013 -0.7705
  884MOL0     H16674   7.689   9.045   6.845 -1.3152  0.0161  0.1355
  884MOL0     H16675   7.937   9.049   6.860  0.0616  0.8025 -0.1544
  884MOL0     H16676   8.331   8.810   6.623  0.4736 -0.0552 -0.4139
  884MOL0     H16677   8.572   8.806   6.615  1.1058  0.0128 -0.6396
  884MOL0     H16678   8.783   8.735   7.010 -1.0561  1.8127  1.9949
  884MOL0     H16679   8.785   8.914   7.008  0.7821  0.8476 -0.7403
  884MOL0     H16680   8.995   8.888   6.859  0.7692 -1.8186 -1.8449
  884MOL0     H16681   9.019   8.849   7.030 -0.8862 -0.4707  0.8306
  884MOL0     H16682   9.101   8.682   6.831  2.1056 -0.3673  2.2887
  884MOL0     H16683   8.930   8.627   6.838  1.9712 -1.5275 -0.9648
  884MOL0     H16684   9.105   8.656   7.097  2.2947 -3.0716  0.2827
  884MOL0     H16685   8.940   8.582   7.069 -2.1909  0.4582 -5.7908
  884MOL0     H16686   9.133   8.261   6.944  3.2061  0.4166  0.3366
  884MOL0     H16687   8.575   8.875   7.052  0.4664 -0.2117  0.8849
  884MOL0     H16688   8.346   8.868   7.057 -0.1727  1.0021 -0.0203
  885MOL0     O16689   3.620  10.777   7.430  0.1752  0.8771 -0.3159
  885MOL0     C16690   3.613  10.895   7.403 -0.1173  0.1377 -0.4303
  885MOL0     O16691   3.495  10.959   7.358 -0.7733  0.0579  0.4870
  885MOL0     C16692   3.371  10.896   7.376  0.0220 -0.4988  0.2279
  885MOL0     C16693   3.273  10.915   7.269 -0.3543  0.6348 -0.4530
  885MOL0     C16694   3.149  10.841   7.275  0.3316 -0.3983  0.6156
  885MOL0     C16695   3.114  10.743   7.373  0.1178  0.5304  0.1518
  885MOL0     O16696   2.992  10.680   7.365 -0.8262  0.0807 -0.0973
  885MOL0     C16697   2.915  10.669   7.484 -0.1366 -0.3602 -0.1069
  885MOL0     C16698   2.860  10.819   7.515  0.7070  1.3368  0.7335
  885MOL0     C16699   2.718  10.805   7.569 -0.1912  0.6657 -0.0370
  885MOL0     C16700   2.651  10.940   7.597  0.2254 -0.1950 -0.6466
  885MOL0     C16701   2.500  10.930   7.628 -0.1371 -0.2755 -0.6115
  885MOL0     C16702   2.413  11.057   7.626  0.5376 -0.0242 -0.2706
  885MOL0     C16703   2.420  11.137   7.752 -0.9697  0.2833 -0.3894
  885MOL0     C16704   2.347  11.270   7.740 -0.1047  0.0691  0.0434
  885MOL0     N16705   2.203  11.264   7.768  0.5181 -0.0702 -1.0036
  885MOL0     C16706   2.146  11.212   7.892 -0.3802  0.1487 -0.7590
  885MOL0     C16707   2.012  11.226   7.870  0.8890  0.7309  1.1693
  885MOL0     C16708   1.914  11.153   7.961  0.4948 -1.1517 -0.0516
  885MOL0     C16709   1.770  11.209   7.959  0.4148  0.0260  0.0099
  885MOL0     C16710   1.751  11.320   8.066 -0.2058 -0.0529 -0.8485
  885MOL0     C16711   1.605  11.337   8.094 -1.2804 -0.1787  1.1040
  885MOL0     O16712   1.531  11.212   8.125 -0.4785 -0.2462  0.8613
  885MOL0     C16713   1.391  11.222   8.125  0.1230 -0.2419 -0.1798
  885MOL0     C16714   1.320  11.128   8.192 -0.2620  0.5857  0.1828
  885MOL0     C16715   1.195  11.129   8.232  0.7038 -0.2726 -0.0722
  885MOL0     C16716   1.117  11.234   8.185  0.2549  0.1896  0.4210
  885MOL0     C16717   0.971  11.259   8.211 -0.2388 -1.4900 -0.7477
  885MOL0     O16718   0.893  11.343   8.137 -0.8820 -0.2118  0.9735
  885MOL0     C16719   0.762  11.357   8.157 -0.6314  0.3950  0.5000
  885MOL0     C16720   0.712  11.427   8.264 -0.7103 -0.6568  0.9144
  885MOL0     C16721   0.568  11.441   8.277 -0.5241 -0.4287  0.0731
  885MOL0     C16722   0.483  11.362   8.193  0.4553  0.9978 -0.1997
  885MOL0     O16723   0.346  11.371   8.220  0.1414  0.2016 -0.3309
  885MOL0     C16724   0.252  11.314   8.127  0.0620  0.7083 -0.1756
  885MOL0     C16725   0.106  11.310   8.190 -0.0397 -0.1374  0.2761
  885MOL0     C16726   0.006  11.350   8.088 -0.3947  0.2196 -0.1663
  885MOL0     C16727   0.009  11.503   8.085  0.4354 -0.6108  0.0510
  885MOL0     C16728  -0.050  11.552   7.951  0.3148  0.0092  0.1841
  885MOL0     C16729  -0.188  11.494   7.910 -0.4159 -0.4814 -0.7216
  885MOL0     C16730  -0.269  11.562   7.800  0.3200 -0.8060  0.9078
  885MOL0     C16731  -0.285  11.711   7.803 -0.1583  0.2728 -0.2017
  885MOL0    Cl16732  -0.402  11.738   7.946 -0.5766  0.1526  0.2056
  885MOL0     C16733   0.544  11.291   8.089 -0.7881  0.1574  0.8244
  885MOL0     C16734   0.685  11.288   8.068  0.4740 -0.7002  0.1052
  885MOL0     O16735   0.933  11.201   8.312 -0.1314 -0.1269 -0.1749
  885MOL0     C16736   1.181  11.336   8.107  0.2305  0.9534  0.1545
  885MOL0     C16737   1.316  11.341   8.092 -0.4899 -0.7358 -0.0608
  885MOL0     N16738   1.995  11.276   7.745 -0.1798  0.6796 -0.1272
  885MOL0     N16739   2.102  11.304   7.689 -0.3276 -0.4833 -0.0166
  885MOL0     C16740   3.213  10.723   7.472 -0.5110  0.6118  0.4352
  885MOL0     C16741   3.340  10.789   7.474  0.8904 -0.6644 -0.2053
  885MOL0     C16742   3.736  10.983   7.407 -0.0042  0.7630  0.2925
  885MOL0     C16743   3.735  11.105   7.352  0.5460 -0.5795 -0.2767
  885MOL0     C16744   3.849  11.189   7.343  0.8217  0.0770  0.5446
  885MOL0     C16745   3.966  11.138   7.399 -0.4558 -1.1609  0.1807
  885MOL0     O16746   4.083  11.211   7.396 -0.6732 -0.8112 -0.4467
  885MOL0     C16747   4.082  11.341   7.445 -0.0336  0.0968  0.5716
  885MOL0     C16748   4.230  11.409   7.422 -0.0795 -0.4520  0.1308
  885MOL0     C16749   4.281  11.378   7.283 -0.4294  0.5093  0.6797
  885MOL0     C16750   4.393  11.486   7.248  0.8918  0.3568  0.2424
  885MOL0     C16751   4.489  11.451   7.145 -0.2709  0.1049 -0.1576
  885MOL0     C16752   4.563  11.406   7.059 -0.1148 -0.0933  0.2023
  885MOL0     C16753   3.978  11.001   7.438 -0.5697  0.5118  0.2279
  885MOL0     C16754   3.865  10.925   7.442 -0.1740 -0.1993  0.0698
  885MOL0     H16755   3.292  10.984   7.188 -0.0603  2.2554  0.9427
  885MOL0     H16756   3.078  10.880   7.204  4.1634  1.4271 -2.6256
  885MOL0     H16757   2.978  10.646   7.570  0.4854  3.6055  0.7069
  885MOL0     H16758   2.835  10.596   7.468 -1.3661  1.0738 -0.7998
  885MOL0     H16759   2.853  10.879   7.424 -0.1471  1.8393  1.1188
  885MOL0     H16760   2.930  10.866   7.585  0.4812  0.2644  1.7136
  885MOL0     H16761   2.722  10.746   7.662 -0.3916  0.6353 -0.0472
  885MOL0     H16762   2.660  10.738   7.504 -1.3352  2.5391 -1.0411
  885MOL0     H16763   2.697  10.995   7.679 -1.9196  0.1719  0.3696
  885MOL0     H16764   2.669  11.005   7.511 -0.7790 -1.9345 -2.2699
  885MOL0     H16765   2.497  10.887   7.728  2.5782 -1.3779 -0.8880
  885MOL0     H16766   2.456  10.855   7.562 -0.6584 -0.0999 -0.4660
  885MOL0     H16767   2.308  11.029   7.615  1.0797 -2.1102 -0.6834
  885MOL0     H16768   2.434  11.122   7.541  1.9608 -1.1263 -0.8026
  885MOL0     H16769   2.373  11.087   7.838 -3.0135  2.3340 -0.2333
  885MOL0     H16770   2.524  11.159   7.776 -0.0586 -2.3704 -1.4874
  885MOL0     H16771   2.357  11.309   7.639 -0.9215 -1.8081 -0.8083
  885MOL0     H16772   2.401  11.344   7.800  2.4609 -0.3869 -1.5664
  885MOL0     H16773   2.193  11.159   7.974  0.6495 -0.6381 -1.8399
  885MOL0     H16774   1.953  11.166   8.063  1.5498  1.6321 -0.7320
  885MOL0     H16775   1.904  11.046   7.940  1.3711 -0.8543 -2.1783
  885MOL0     H16776   1.714  11.119   7.989  2.9989 -1.6702  0.1431
  885MOL0     H16777   1.729  11.243   7.864 -1.2520  0.5483  0.8848
  885MOL0     H16778   1.795  11.307   8.165 -0.5747 -2.3593 -0.9302
  885MOL0     H16779   1.790  11.410   8.017 -2.2172  0.7542 -1.0374
  885MOL0     H16780   1.569  11.372   7.996  2.4939  0.7634 -0.1301
  885MOL0     H16781   1.583  11.419   8.162 -3.3627  0.6879 -0.4830
  885MOL0     H16782   1.374  11.040   8.224 -2.1197 -0.3876  0.8330
  885MOL0     H16783   1.151  11.056   8.298 -0.5581  1.0771  0.6525
  885MOL0     H16784   0.773  11.490   8.329 -1.0409 -0.4624  1.0395
  885MOL0     H16785   0.524  11.501   8.356 -1.2583 -0.0679 -0.5980
  885MOL0     H16786   0.279  11.209   8.109 -0.8911  0.2403  0.9549
  885MOL0     H16787   0.255  11.361   8.028 -1.3807  1.8122  0.2740
  885MOL0     H16788   0.101  11.373   8.279  1.1568 -3.3192  2.7968
  885MOL0     H16789   0.076  11.208   8.217 -3.4740  0.6591 -0.0716
  885MOL0     H16790  -0.096  11.315   8.109 -1.0270  0.7864 -2.0920
  885MOL0     H16791   0.043  11.306   7.995 -1.8355  1.5818 -1.4470
  885MOL0     H16792  -0.047  11.551   8.166 -2.5262 -0.6847 -1.7980
  885MOL0     H16793   0.115  11.530   8.088  0.2117  0.2650  0.0783
  885MOL0     H16794   0.018  11.536   7.867  0.0106  0.4698 -0.1615
  885MOL0     H16795  -0.058  11.661   7.958 -0.8327 -0.1079  0.9370
  885MOL0     H16796  -0.253  11.499   7.998 -0.3955  4.8930 -0.6972
  885MOL0     H16797  -0.167  11.389   7.889 -1.4213 -0.7081 -0.6532
  885MOL0     H16798  -0.219  11.549   7.703  0.7491 -2.9162  1.3506
  885MOL0     H16799  -0.365  11.511   7.791  0.9264 -1.7104 -1.2455
  885MOL0     H16800  -0.334  11.759   7.718 -1.0131  1.2632  0.8008
  885MOL0     H16801  -0.187  11.759   7.813 -0.5045  1.2909 -1.5179
  885MOL0     H16802   0.483  11.236   8.017 -1.4845  1.9852 -0.0529
  885MOL0     H16803   0.736  11.237   7.987  0.9472  0.7912 -0.5782
  885MOL0     H16804   1.127  11.423   8.071 -1.7298 -0.4203 -0.3955
  885MOL0     H16805   1.341  11.432   8.039 -2.8311  1.1012  1.7476
  885MOL0     H16806   3.185  10.653   7.551 -0.0808 -0.9367 -0.7356
  885MOL0     H16807   3.416  10.772   7.550  2.1184  0.2953 -1.1733
  885MOL0     H16808   3.646  11.156   7.318  0.9454  0.4293  0.1651
  885MOL0     H16809   3.839  11.293   7.313  3.1334  0.7112  1.7012
  885MOL0     H16810   4.067  11.352   7.552  0.4657 -0.8429  0.7433
  885MOL0     H16811   4.009  11.404   7.393  1.1546  2.6470  1.8111
  885MOL0     H16812   4.220  11.517   7.442 -1.8831 -0.6959  0.6686
  885MOL0     H16813   4.307  11.366   7.487 -1.7944 -1.1792  1.7465
  885MOL0     H16814   4.201  11.372   7.209  0.0293  0.3164  0.1871
  885MOL0     H16815   4.325  11.278   7.275  0.2356  0.8980 -1.2350
  885MOL0     H16816   4.335  11.571   7.211  0.3042  0.1318  0.6441
  885MOL0     H16817   4.452  11.519   7.334  0.2658  2.4421 -0.0698
  885MOL0     H16818   4.638  11.384   6.985  0.8527 -2.0123  1.6557
  885MOL0     H16819   4.073  10.959   7.469 -1.5781 -1.8202  0.3540
  885MOL0     H16820   3.876  10.819   7.463  2.6757  0.0234  0.1202
  886MOL0     O16821   7.600   9.330  10.913 -0.3471  0.3489 -0.0423
  886MOL0     C16822   7.658   9.279  11.008  0.0822 -0.4440 -0.5363
  886MOL0     O16823   7.596   9.197  11.095 -0.7045  0.7932 -0.6478
  886MOL0     C16824   7.457   9.178  11.080  0.1660 -1.0666  0.1825
  886MOL0     C16825   7.384   9.129  10.965 -0.0697  0.2636 -0.0784
  886MOL0     C16826   7.250   9.095  10.967  1.0224 -0.3502 -0.2762
  886MOL0     C16827   7.179   9.115  11.085  0.0823 -0.5894 -0.5861
  886MOL0     O16828   7.037   9.100  11.086 -0.2874 -0.1519 -0.0879
  886MOL0     C16829   6.969   9.150  11.203 -0.5509  0.8115 -0.0157
  886MOL0     C16830   6.826   9.134  11.179  0.5074 -0.1644 -0.6276
  886MOL0     C16831   6.778   9.238  11.083  0.1375  1.4519 -0.5339
  886MOL0     C16832   6.764   9.371  11.154  0.4571 -1.0018 -0.3571
  886MOL0     C16833   6.617   9.401  11.185  0.5746  0.4741  0.1062
  886MOL0     C16834   6.523   9.420  11.065 -0.7839 -0.2514  0.3130
  886MOL0     C16835   6.383   9.477  11.108  0.2082  0.7103 -0.5310
  886MOL0     C16836   6.293   9.504  10.983 -0.3909  0.2275  1.4432
  886MOL0     N16837   6.180   9.575  11.022 -0.0006 -1.0361 -1.1764
  886MOL0     C16838   6.146   9.703  10.984 -0.8045  0.0770  0.6593
  886MOL0     C16839   6.029   9.725  11.038  0.9710 -0.2541  0.2803
  886MOL0     C16840   5.954   9.855  11.038  1.0185 -0.3670 -0.0662
  886MOL0     C16841   5.814   9.853  10.964 -0.2069 -0.0170 -1.1189
  886MOL0     C16842   5.711   9.925  11.054  0.6262 -0.2160  0.4057
  886MOL0     C16843   5.576   9.959  10.986 -0.1107 -0.3285 -0.2030
  886MOL0     O16844   5.497  10.033  11.082  0.3445 -0.0111 -0.3503
  886MOL0     C16845   5.375  10.076  11.035  0.2927  0.3015 -0.0170
  886MOL0     C16846   5.332  10.199  11.084 -0.5970  0.1266  1.4051
  886MOL0     C16847   5.214  10.253  11.044 -0.5006  0.1475  1.4465
  886MOL0     C16848   5.125  10.181  10.962  0.1687  0.4897 -0.6532
  886MOL0     C16849   5.001  10.246  10.916  0.0228 -1.1448  0.4623
  886MOL0     O16850   4.972  10.375  10.966 -0.0129 -0.4428 -0.0628
  886MOL0     C16851   4.839  10.403  10.973  0.4555 -0.2852 -0.1243
  886MOL0     C16852   4.814  10.534  11.012  0.6995  0.2979 -0.0040
  886MOL0     C16853   4.684  10.581  11.022 -0.0553 -1.4285 -0.0663
  886MOL0     C16854   4.573  10.504  10.991  0.8258  0.1422 -0.3474
  886MOL0     O16855   4.454  10.569  11.005  0.2958 -0.2195 -0.2236
  886MOL0     C16856   4.326  10.497  11.014  0.0662 -0.6693  1.1899
  886MOL0     C16857   4.206  10.600  11.012 -0.4349  0.0700  0.4657
  886MOL0     C16858   4.074  10.544  11.016 -0.2621 -0.1643 -0.1021
  886MOL0     C16859   3.955  10.645  11.043  0.1504 -0.3731 -0.0693
  886MOL0     C16860   3.822  10.578  11.057  0.2745 -0.1339  0.0170
  886MOL0     C16861   3.755  10.537  10.935 -0.1563 -0.3633 -0.3313
  886MOL0     C16862   3.620  10.476  10.977  0.0018 -0.5640  0.4339
  886MOL0     C16863   3.546  10.421  10.861  0.2736 -0.3257 -0.1462
  886MOL0    Cl16864   3.380  10.405  10.923 -0.0066 -0.1624  0.8735
  886MOL0     C16865   4.597  10.367  10.966 -0.0189 -0.6789 -0.3032
  886MOL0     C16866   4.729  10.317  10.969 -0.1079  0.1083 -0.1925
  886MOL0     O16867   4.943  10.187  10.828  0.2853  0.1501  0.1590
  886MOL0     C16868   5.162  10.056  10.910 -0.2497  0.1570  0.0071
  886MOL0     C16869   5.289  10.005  10.945  0.4502 -0.1561 -0.2143
  886MOL0     N16870   5.984   9.611  11.100 -0.3018  0.1385 -0.0540
  886MOL0     N16871   6.078   9.526  11.102 -0.3811  0.0792  0.2224
  886MOL0     C16872   7.243   9.166  11.201  0.3723  1.1838 -0.0113
  886MOL0     C16873   7.389   9.190  11.201  0.2442 -0.8269  0.8221
  886MOL0     C16874   7.791   9.331  11.050  0.5161  0.7085 -0.4099
  886MOL0     C16875   7.866   9.269  11.147  0.2895 -0.3580  0.1410
  886MOL0     C16876   7.990   9.327  11.173  0.6991  0.4762  0.3661
  886MOL0     C16877   8.050   9.441  11.110  0.7349  0.1843  0.2094
  886MOL0     O16878   8.181   9.462  11.121 -0.3051 -0.5594 -0.4655
  886MOL0     C16879   8.239   9.575  11.060  0.4677  0.3365  0.3964
  886MOL0     C16880   8.210   9.700  11.142  0.2136 -0.1840  0.4861
  886MOL0     C16881   8.294   9.689  11.275 -0.1672  0.4630  0.3986
  886MOL0     C16882   8.253   9.814  11.365  0.6424  1.0209  0.2368
  886MOL0     C16883   8.372   9.900  11.382  0.9648 -0.4475  0.4316
  886MOL0     C16884   8.482   9.949  11.385 -0.0274  0.1008 -0.7291
  886MOL0     C16885   7.963   9.510  11.023 -1.0580 -0.1066 -0.1418
  886MOL0     C16886   7.845   9.450  10.985  0.7182  0.2734  0.9243
  886MOL0     H16887   7.440   9.144  10.873 -2.8012  2.4628 -1.5443
  886MOL0     H16888   7.199   9.071  10.874 -3.5107 -0.6525  2.0489
  886MOL0     H16889   6.990   9.256  11.220  2.3307  0.5925 -1.5597
  886MOL0     H16890   6.992   9.092  11.293  0.5852  1.2732  0.0075
  886MOL0     H16891   6.779   9.148  11.276  0.7044  2.4448 -0.8460
  886MOL0     H16892   6.806   9.030  11.150  0.9884  0.4228 -3.3444
  886MOL0     H16893   6.686   9.195  11.042  1.0682  0.0116 -1.2146
  886MOL0     H16894   6.842   9.243  10.994  1.8737 -0.3507  0.5304
  886MOL0     H16895   6.821   9.379  11.247  0.3784 -0.1705 -0.3724
  886MOL0     H16896   6.808   9.447  11.090  1.7605 -1.5864 -0.1845
  886MOL0     H16897   6.606   9.479  11.262 -0.7021 -2.2586  2.9242
  886MOL0     H16898   6.579   9.312  11.236  0.0745  0.1427 -0.8311
  886MOL0     H16899   6.514   9.327  11.007  1.1039 -0.4790  0.3166
  886MOL0     H16900   6.575   9.488  10.997 -0.2992  1.1544  2.0325
  886MOL0     H16901   6.344   9.401  11.177  1.9096  0.9174  0.7245
  886MOL0     H16902   6.386   9.568  11.168 -5.2156  1.0129 -0.1723
  886MOL0     H16903   6.260   9.406  10.947  1.5263  0.1645 -0.3021
  886MOL0     H16904   6.342   9.560  10.903  1.4330  1.8394  3.5538
  886MOL0     H16905   6.208   9.768  10.923 -1.4645  1.6214  1.5815
  886MOL0     H16906   6.010   9.944  11.009 -1.1647  0.5070 -1.8725
  886MOL0     H16907   5.933   9.879  11.143 -1.9530  1.0228 -0.8506
  886MOL0     H16908   5.789   9.747  10.955  1.1261 -0.6505  1.5377
  886MOL0     H16909   5.817   9.906  10.869  0.0062 -0.0842 -1.1506
  886MOL0     H16910   5.689   9.857  11.136  3.9962 -0.6310  1.1026
  886MOL0     H16911   5.748  10.020  11.095 -1.5747  1.0702 -0.3617
  886MOL0     H16912   5.531   9.863  10.959  0.5921 -0.9205  0.6723
  886MOL0     H16913   5.590  10.013  10.892  2.1607  1.9161  1.3187
  886MOL0     H16914   5.405  10.265  11.130  1.2096 -0.4059 -0.5483
  886MOL0     H16915   5.210  10.359  11.067  2.3846  0.5126  0.5699
  886MOL0     H16916   4.900  10.586  11.053  0.5233 -1.4792  2.9576
  886MOL0     H16917   4.676  10.682  11.061  0.4498 -0.6330 -1.8924
  886MOL0     H16918   4.325  10.431  11.101 -0.7146 -1.8530  0.3092
  886MOL0     H16919   4.318  10.437  10.923  1.3704 -0.0545  0.6478
  886MOL0     H16920   4.208  10.665  10.923  2.2309  3.9123  2.9830
  886MOL0     H16921   4.219  10.668  11.096  1.5821  1.7812 -1.1099
  886MOL0     H16922   4.081  10.467  11.094  0.1771 -1.2625 -1.2006
  886MOL0     H16923   4.054  10.485  10.926 -1.8237 -0.1497  0.2010
  886MOL0     H16924   3.969  10.713  11.127  0.6345  1.9399 -1.9016
  886MOL0     H16925   3.942  10.717  10.961 -0.8579  0.1257  0.5142
  886MOL0     H16926   3.754  10.649  11.105  0.0991  0.0336 -0.4746
  886MOL0     H16927   3.839  10.492  11.122 -0.3101 -1.4425 -1.4917
  886MOL0     H16928   3.815  10.458  10.890  2.3105  0.1823  1.7833
  886MOL0     H16929   3.750  10.622  10.867 -1.0501  0.7260  1.0134
  886MOL0     H16930   3.636  10.406  11.059 -1.6819 -0.3025  1.0233
  886MOL0     H16931   3.563  10.562  11.013 -1.6012  0.6444 -4.2367
  886MOL0     H16932   3.574  10.331  10.804 -1.6915  0.1233 -1.9812
  886MOL0     H16933   3.555  10.490  10.776 -2.1783 -0.8039 -0.8707
  886MOL0     H16934   4.513  10.300  10.949 -1.3800  1.1799 -1.3337
  886MOL0     H16935   4.736  10.211  10.948 -1.8919 -0.5780  2.2468
  886MOL0     H16936   5.108   9.993  10.840  0.1007 -0.7593  0.5356
  886MOL0     H16937   5.315   9.908  10.903 -1.2883 -1.0052  0.6030
  886MOL0     H16938   7.196   9.181  11.297  1.1793 -0.1361  0.6087
  886MOL0     H16939   7.429   9.213  11.299 -0.5382  0.4820  0.8596
  886MOL0     H16940   7.837   9.176  11.195  1.2458  0.5772  2.6921
  886MOL0     H16941   8.053   9.277  11.246  0.6321  1.5062  1.1411
  886MOL0     H16942   8.216   9.567  10.954 -0.1659 -1.8320  0.6633
  886MOL0     H16943   8.348   9.568  11.055  0.4710 -0.8051  1.6591
  886MOL0     H16944   8.251   9.785  11.087  3.0578 -1.1251  1.0076
  886MOL0     H16945   8.105   9.709  11.172  0.2291  2.7187 -0.0285
  886MOL0     H16946   8.397   9.672  11.241 -0.6942 -2.9611  0.2242
  886MOL0     H16947   8.278   9.593  11.324 -5.0990 -0.2985 -2.0809
  886MOL0     H16948   8.159   9.858  11.330 -1.0374 -0.5748  2.4638
  886MOL0     H16949   8.232   9.784  11.468  0.1235  1.0054  0.1322
  886MOL0     H16950   8.566  10.009  11.412 -2.7687  2.9441  2.4299
  886MOL0     H16951   7.998   9.597  10.969 -1.1617 -0.5853 -1.0010
  886MOL0     H16952   7.793   9.498  10.903 -0.7672 -2.4233  0.1727
  887MOL0     O16953   9.936   3.578   1.895  0.0218  0.0453  0.0602
  887MOL0     C16954   9.885   3.634   1.800  0.4233 -0.0182  0.0928
  887MOL0     O16955   9.958   3.701   1.699  0.1424 -0.0556 -0.7747
  887MOL0     C16956  10.091   3.695   1.683  0.0231 -1.2577 -0.2033
  887MOL0     C16957  10.132   3.702   1.543  0.1263 -0.1827 -0.1735
  887MOL0     C16958  10.260   3.712   1.510 -0.1554 -0.2854  0.8635
  887MOL0     C16959  10.365   3.702   1.604 -0.2047  1.2460 -0.2323
  887MOL0     O16960  10.497   3.705   1.554  0.6341 -0.6146 -0.8263
  887MOL0     C16961  10.553   3.575   1.524  0.3928  0.0545  0.7354
  887MOL0     C16962  10.673   3.601   1.443 -0.0041 -0.3649  0.6612
  887MOL0     C16963  10.631   3.640   1.295  0.5455  1.5807  0.0385
  887MOL0     C16964  10.737   3.650   1.189 -0.4668  0.1595 -0.2729
  887MOL0     C16965  10.703   3.721   1.056  0.8311 -0.4524  1.0939
  887MOL0     C16966  10.827   3.737   0.973 -0.5284  0.6475 -0.4815
  887MOL0     C16967  10.794   3.807   0.839 -0.6196  1.1416  0.4329
  887MOL0     C16968  10.898   3.778   0.730 -0.6717  0.1770  0.3354
  887MOL0     N16969  11.022   3.852   0.756 -0.8259  0.3364 -0.2251
  887MOL0     C16970  11.148   3.792   0.769 -0.2695  0.4843 -0.0071
  887MOL0     C16971  11.225   3.901   0.799 -0.0219 -0.3395 -0.4142
  887MOL0     C16972  11.372   3.883   0.843 -0.1930 -0.6097  0.2226
  887MOL0     C16973  11.417   3.989   0.937 -0.2079 -0.3846  1.0828
  887MOL0     C16974  11.334   3.986   1.064  0.4428 -0.0309  0.1534
  887MOL0     C16975  11.297   3.858   1.141 -0.1675  0.5993 -0.4790
  887MOL0     O16976  11.199   3.880   1.247  0.1465  0.1541 -0.5445
  887MOL0     C16977  11.168   3.782   1.340 -0.3820  0.1588  0.5095
  887MOL0     C16978  11.070   3.809   1.439 -0.1568 -0.4154 -0.2974
  887MOL0     C16979  11.052   3.716   1.542  0.0481 -0.0080  0.2341
  887MOL0     C16980  11.126   3.603   1.549  0.5105  0.8468 -0.4055
  887MOL0     C16981  11.089   3.504   1.654  0.5004  0.3168  0.6821
  887MOL0     O16982  10.956   3.486   1.675 -0.1024  0.3592  0.4541
  887MOL0     C16983  10.922   3.379   1.757  0.6100  0.6962  0.1348
  887MOL0     C16984  10.862   3.259   1.707 -0.2171  0.2312 -0.5203
  887MOL0     C16985  10.807   3.170   1.805  0.3106 -0.6170  0.4204
  887MOL0     C16986  10.816   3.189   1.942 -0.0708 -0.3322 -0.4189
  887MOL0     O16987  10.750   3.093   2.010 -0.3239 -0.0805 -0.3329
  887MOL0     C16988  10.674   3.131   2.127 -0.2130  0.1130  0.0388
  887MOL0     C16989  10.589   3.006   2.170 -0.6589 -0.3369 -0.1731
  887MOL0     C16990  10.507   3.047   2.295 -0.3385 -0.1557 -0.5714
  887MOL0     C16991  10.422   2.923   2.347 -0.0005 -0.3825  0.6148
  887MOL0     C16992  10.273   2.953   2.387 -0.1763 -0.6320 -0.5027
  887MOL0     C16993  10.265   3.055   2.506  0.0260 -0.5052 -0.3062
  887MOL0     C16994  10.134   3.086   2.553  0.8112 -0.2040  0.3921
  887MOL0     C16995  10.113   3.169   2.679  0.2164 -0.7851  1.6794
  887MOL0    Cl16996  10.079   3.338   2.637 -0.5299 -0.0874 -0.1508
  887MOL0     C16997  10.881   3.307   1.991 -0.9355 -0.0280  0.3267
  887MOL0     C16998  10.921   3.402   1.895 -0.1041  0.9050 -0.0376
  887MOL0     O16999  11.181   3.451   1.717  0.0124  0.2489  0.0704
  887MOL0     C17000  11.228   3.574   1.455 -0.5893 -0.3389 -0.2154
  887MOL0     C17001  11.247   3.670   1.350  0.5960 -0.1268  0.2767
  887MOL0     N17002  11.157   4.019   0.800  0.5230 -0.2645 -0.2575
  887MOL0     N17003  11.035   3.992   0.785 -0.4614 -0.5141  0.3333
  887MOL0     C17004  10.331   3.697   1.740 -0.4085  0.0919 -0.3686
  887MOL0     C17005  10.194   3.694   1.781  0.2908 -0.8455  0.5514
  887MOL0     C17006   9.736   3.640   1.802 -0.0259 -0.9895 -1.2303
  887MOL0     C17007   9.674   3.704   1.697  0.9384 -1.1276  0.4468
  887MOL0     C17008   9.533   3.707   1.694 -1.1830  0.0518  0.5142
  887MOL0     C17009   9.457   3.653   1.801 -0.2497  0.1805 -0.2861
  887MOL0     O17010   9.326   3.642   1.809 -0.3513 -0.2025  0.0563
  887MOL0     C17011   9.231   3.735   1.744 -0.1346 -0.7045  0.6905
  887MOL0     C17012   9.195   3.661   1.611 -0.0249 -0.3966  0.0181
  887MOL0     C17013   9.121   3.522   1.630  0.3853  0.3796  0.5326
  887MOL0     C17014   9.029   3.479   1.512 -0.3028  0.4889  0.4639
  887MOL0     C17015   9.101   3.442   1.386  1.1197  0.2647 -0.0990
  887MOL0     C17016   9.165   3.432   1.282  0.6525  0.0692  0.6712
  887MOL0     C17017   9.519   3.587   1.905  0.0410 -0.4711  0.1374
  887MOL0     C17018   9.658   3.583   1.911  0.0442 -0.5778  0.0079
  887MOL0     H17019  10.056   3.716   1.467 -0.3157 -0.3469  0.2291
  887MOL0     H17020  10.278   3.726   1.404 -3.8379 -0.2444  0.1001
  887MOL0     H17021  10.471   3.529   1.468  0.1504 -1.3174  2.1636
  887MOL0     H17022  10.586   3.526   1.616  2.8072 -1.8877 -1.0416
  887MOL0     H17023  10.729   3.509   1.423  1.4429  0.8196 -1.0874
  887MOL0     H17024  10.749   3.665   1.490  1.0300 -0.1551 -1.1953
  887MOL0     H17025  10.555   3.719   1.294 -0.0578  1.0036 -1.4689
  887MOL0     H17026  10.576   3.557   1.252  0.2266  1.7188  0.1723
  887MOL0     H17027  10.820   3.697   1.243 -1.5766  1.1148  0.6516
  887MOL0     H17028  10.766   3.546   1.168  0.2971 -0.5551  3.6497
  887MOL0     H17029  10.647   3.813   1.073 -0.7224 -1.5431  2.3392
  887MOL0     H17030  10.632   3.658   1.002  0.9192  1.1098 -0.9451
  887MOL0     H17031  10.873   3.642   0.946  1.2167  1.1268  0.6385
  887MOL0     H17032  10.899   3.798   1.028  0.3100 -0.7422  0.0211
  887MOL0     H17033  10.697   3.772   0.803 -0.4122  0.5581  0.4368
  887MOL0     H17034  10.775   3.915   0.848  0.0531  1.2095  1.1969
  887MOL0     H17035  10.860   3.811   0.633 -0.3409  0.7349  0.3912
  887MOL0     H17036  10.912   3.669   0.727 -2.8026 -0.2546  2.6591
  887MOL0     H17037  11.179   3.689   0.761 -0.3900  0.2979  1.6259
  887MOL0     H17038  11.420   3.893   0.745  0.2571  1.6564  0.6266
  887MOL0     H17039  11.384   3.780   0.877 -1.2563 -1.6670 -2.3517
  887MOL0     H17040  11.405   4.089   0.894  0.1777 -1.1605 -0.9279
  887MOL0     H17041  11.520   3.981   0.973 -0.6814 -0.8677  2.3793
  887MOL0     H17042  11.374   4.056   1.137  3.2593 -0.5367 -0.7854
  887MOL0     H17043  11.234   4.021   1.036  1.4166  2.4199 -0.4976
  887MOL0     H17044  11.391   3.827   1.188 -1.2950 -3.5885 -0.5853
  887MOL0     H17045  11.262   3.781   1.072 -1.6514  1.4439 -0.7119
  887MOL0     H17046  11.011   3.900   1.433 -3.1595 -2.2609 -1.0037
  887MOL0     H17047  10.981   3.742   1.620  1.7104 -0.7184  2.0609
  887MOL0     H17048  10.848   3.249   1.600 -2.5219  2.2298 -0.4729
  887MOL0     H17049  10.761   3.076   1.780 -1.0853 -0.3404  1.8023
  887MOL0     H17050  10.610   3.217   2.108  1.1094  0.3822 -4.2337
  887MOL0     H17051  10.753   3.158   2.198  0.3562 -0.3668 -0.4030
  887MOL0     H17052  10.666   2.931   2.192  0.9712  0.4810 -2.6872
  887MOL0     H17053  10.525   2.972   2.088 -0.4448 -0.5487 -0.2554
  887MOL0     H17054  10.441   3.133   2.277  0.4500  1.3033  2.7031
  887MOL0     H17055  10.568   3.080   2.380 -0.6487  0.6114 -0.6334
  887MOL0     H17056  10.408   2.860   2.259 -0.3500  1.6888 -0.8997
  887MOL0     H17057  10.477   2.866   2.422  0.3635 -0.5679  0.2084
  887MOL0     H17058  10.223   2.862   2.422 -1.3808  0.9734  2.3180
  887MOL0     H17059  10.212   2.993   2.305 -0.9516  1.6128  1.0775
  887MOL0     H17060  10.320   3.148   2.491 -0.2820 -0.3187 -0.3029
  887MOL0     H17061  10.321   3.018   2.592  3.5385  2.2592 -1.1441
  887MOL0     H17062  10.083   3.140   2.472  0.3908  0.4719  1.1002
  887MOL0     H17063  10.078   2.993   2.567 -0.1355  0.2324 -0.3534
  887MOL0     H17064  10.204   3.162   2.740  0.1745 -1.3342  1.6906
  887MOL0     H17065  10.034   3.120   2.737 -0.8439 -1.9739 -0.6285
  887MOL0     H17066  10.908   3.326   2.094  0.8272 -1.6884  0.2418
  887MOL0     H17067  10.961   3.493   1.938 -0.2697  2.0722 -2.2618
  887MOL0     H17068  11.282   3.481   1.460 -1.4943 -0.8611  0.1064
  887MOL0     H17069  11.318   3.644   1.272  0.9931  3.0448 -0.5504
  887MOL0     H17070  10.413   3.707   1.812 -0.2999  0.2005 -0.5056
  887MOL0     H17071  10.178   3.703   1.888 -4.3019  0.7610 -0.0279
  887MOL0     H17072   9.738   3.741   1.618 -1.8498  0.0630 -1.3972
  887MOL0     H17073   9.495   3.746   1.600 -0.2843 -0.6379 -0.1449
  887MOL0     H17074   9.257   3.839   1.722 -0.0364 -1.3059 -2.4628
  887MOL0     H17075   9.138   3.734   1.803 -0.1106 -0.4115  0.7349
  887MOL0     H17076   9.133   3.720   1.543 -0.6467 -0.5983  0.4031
  887MOL0     H17077   9.292   3.650   1.562  0.8684  1.7416  1.1530
  887MOL0     H17078   9.048   3.523   1.712 -2.0226  2.2675 -1.4587
  887MOL0     H17079   9.188   3.437   1.649 -0.2548 -0.9241 -2.5087
  887MOL0     H17080   8.984   3.384   1.544  1.6132 -1.1614 -1.4373
  887MOL0     H17081   8.956   3.558   1.489  0.1804  0.9074  0.3519
  887MOL0     H17082   9.236   3.423   1.203  1.4606  0.1714  1.3688
  887MOL0     H17083   9.466   3.523   1.973  0.9567 -1.4365 -0.0278
  887MOL0     H17084   9.709   3.526   1.989  2.2441  1.2997  0.0670
  888MOL0     O17085   0.262   4.356   7.988  0.1658 -0.1709 -0.5175
  888MOL0     C17086   0.263   4.312   7.872  1.5390  0.5365 -0.1353
  888MOL0     O17087   0.164   4.309   7.775  0.2382 -0.2661  1.1361
  888MOL0     C17088   0.039   4.370   7.792 -1.3045 -0.1818 -0.5695
  888MOL0     C17089  -0.061   4.342   7.693 -0.4212  0.2683 -0.6608
  888MOL0     C17090  -0.192   4.392   7.710 -0.1744 -0.2691  0.0492
  888MOL0     C17091  -0.217   4.486   7.800 -0.2551 -0.1345  0.2713
  888MOL0     O17092  -0.341   4.551   7.780 -0.1459 -0.1666 -0.1363
  888MOL0     C17093  -0.385   4.643   7.883  0.7894  0.6531  0.5572
  888MOL0     C17094  -0.505   4.725   7.842  0.2587 -0.0300  0.4739
  888MOL0     C17095  -0.533   4.844   7.924 -0.2656 -0.1712 -0.8525
  888MOL0     C17096  -0.648   4.927   7.873 -0.4455  0.4266  0.1177
  888MOL0     C17097  -0.683   5.019   7.987  0.4180 -0.0865 -0.3214
  888MOL0     C17098  -0.783   5.128   7.938  0.4019 -0.2931 -0.2819
  888MOL0     C17099  -0.841   5.221   8.061 -0.1627  0.2773  0.6358
  888MOL0     C17100  -0.953   5.314   8.012  0.3672 -0.7057  0.2330
  888MOL0     N17101  -1.069   5.230   7.994  0.5509  0.5515  0.2594
  888MOL0     C17102  -1.116   5.196   7.872  0.1473  1.1337 -0.2858
  888MOL0     C17103  -1.243   5.166   7.894 -0.4519  0.7215 -0.5856
  888MOL0     C17104  -1.333   5.117   7.795 -1.0387 -0.2371  0.0230
  888MOL0     C17105  -1.484   5.122   7.819 -0.0471  0.8129  0.6907
  888MOL0     C17106  -1.537   5.271   7.856 -0.7640  0.8548  0.3117
  888MOL0     C17107  -1.675   5.297   7.893  0.4913  1.0182  0.2528
  888MOL0     O17108  -1.765   5.248   7.793 -1.5933  0.3792 -0.4073
  888MOL0     C17109  -1.896   5.228   7.828  0.0947  0.0230  0.0875
  888MOL0     C17110  -1.969   5.154   7.737 -0.0068  0.1743  0.1703
  888MOL0     C17111  -2.103   5.124   7.757  0.0872  0.8147  0.6999
  888MOL0     C17112  -2.162   5.160   7.875  0.2499  1.0123 -0.5119
  888MOL0     C17113  -2.304   5.135   7.906 -0.1429  0.3002 -0.0285
  888MOL0     O17114  -2.399   5.137   7.818 -0.3720  0.5709  0.5980
  888MOL0     C17115  -2.514   5.070   7.856  0.1131  0.3294  0.2719
  888MOL0     C17116  -2.520   4.932   7.869 -0.5949  0.5343  0.4780
  888MOL0     C17117  -2.629   4.856   7.918 -1.1446 -0.1977 -1.0321
  888MOL0     C17118  -2.750   4.922   7.947  0.0543 -0.1886  0.2613
  888MOL0     O17119  -2.861   4.851   7.974 -0.6590 -0.0690  0.3839
  888MOL0     C17120  -2.987   4.912   7.938 -0.8774  0.1458  0.5222
  888MOL0     C17121  -3.099   4.823   7.902  0.6782  0.1246 -0.8936
  888MOL0     C17122  -3.206   4.889   7.819 -0.4991  0.4906 -0.7000
  888MOL0     C17123  -3.277   5.001   7.880 -0.2488 -0.0974  0.5221
  888MOL0     C17124  -3.399   5.035   7.795 -0.3150 -0.5105 -0.1830
  888MOL0     C17125  -3.485   5.154   7.841 -0.5137  1.1298 -0.1064
  888MOL0     C17126  -3.605   5.184   7.751 -0.8023  0.7587  0.4180
  888MOL0     C17127  -3.576   5.196   7.597 -0.7731  0.4670 -0.1132
  888MOL0    Cl17128  -3.462   5.333   7.553  0.3517  0.0588 -0.3217
  888MOL0     C17129  -2.744   5.060   7.948  0.7896  0.3819  0.5392
  888MOL0     C17130  -2.632   5.132   7.906  1.4378 -0.4170 -0.7201
  888MOL0     O17131  -2.326   5.123   8.028 -0.4341  0.6943 -0.5846
  888MOL0     C17132  -2.090   5.228   7.973 -0.3262  0.2573  0.0473
  888MOL0     C17133  -1.962   5.267   7.942 -1.0591 -0.0191  0.2262
  888MOL0     N17134  -1.267   5.171   8.032 -0.0670 -0.1318  0.3956
  888MOL0     N17135  -1.161   5.207   8.095 -0.5267 -0.2298  0.3765
  888MOL0     C17136  -0.130   4.510   7.904 -0.3575  0.3917 -0.9594
  888MOL0     C17137  -0.007   4.433   7.913  0.3167 -0.4154 -0.0406
  888MOL0     C17138   0.383   4.227   7.852 -0.7581 -0.7158 -0.6416
  888MOL0     C17139   0.480   4.222   7.954 -0.3918 -1.2001 -0.3651
  888MOL0     C17140   0.591   4.131   7.940  0.1386 -0.4886  0.4658
  888MOL0     C17141   0.616   4.067   7.812  0.0996  0.1515  0.0691
  888MOL0     O17142   0.725   3.993   7.810 -0.0569  0.2351  1.0560
  888MOL0     C17143   0.764   3.950   7.678 -1.3428  0.0537  0.8457
  888MOL0     C17144   0.917   3.899   7.680  0.7818 -0.3502 -0.1138
  888MOL0     C17145   1.037   3.991   7.648  0.3239  0.1560  0.0016
  888MOL0     C17146   1.033   4.117   7.736  0.5654 -0.5602  0.5743
  888MOL0     C17147   1.154   4.201   7.706  0.4194  0.4446 -0.2361
  888MOL0     C17148   1.254   4.271   7.685 -0.3469 -0.3041  0.0733
  888MOL0     C17149   0.518   4.083   7.715 -0.5921 -0.2423  0.9665
  888MOL0     C17150   0.403   4.161   7.728 -0.3068 -0.4398  0.3767
  888MOL0     H17151  -0.023   4.278   7.614 -0.6165 -0.5624 -0.1007
  888MOL0     H17152  -0.263   4.383   7.628 -0.0931  2.1061 -0.3599
  888MOL0     H17153  -0.304   4.715   7.901  0.6694  0.6272  1.2350
  888MOL0     H17154  -0.404   4.595   7.979 -0.5692 -1.8787 -0.8636
  888MOL0     H17155  -0.592   4.658   7.838 -1.0012  1.4507  1.7722
  888MOL0     H17156  -0.491   4.750   7.736 -0.4628 -0.2938  0.3134
  888MOL0     H17157  -0.443   4.907   7.922  0.0684 -0.6482 -1.1492
  888MOL0     H17158  -0.547   4.808   8.026 -1.7638 -1.3297 -1.4195
  888MOL0     H17159  -0.609   4.987   7.791 -0.1972 -1.1556 -0.9645
  888MOL0     H17160  -0.728   4.855   7.856 -0.7267  0.3139  1.7763
  888MOL0     H17161  -0.596   5.073   8.025 -2.1698  3.8610  0.6136
  888MOL0     H17162  -0.723   4.963   8.072  1.2565  1.1404  0.9284
  888MOL0     H17163  -0.873   5.080   7.900 -0.8506  1.3392  0.4699
  888MOL0     H17164  -0.735   5.187   7.860  1.3905 -1.1969 -0.3802
  888MOL0     H17165  -0.884   5.153   8.136  0.2490 -0.5702  0.1162
  888MOL0     H17166  -0.765   5.281   8.113 -1.9742  0.8243  2.8101
  888MOL0     H17167  -0.927   5.364   7.918 -0.1784 -3.0004 -1.2110
  888MOL0     H17168  -0.962   5.384   8.096 -0.6349 -0.6794  0.1169
  888MOL0     H17169  -1.059   5.189   7.780  3.0255 -1.7422  1.4887
  888MOL0     H17170  -1.303   5.012   7.785  1.4976  0.4462 -0.2248
  888MOL0     H17171  -1.322   5.184   7.709  1.8190  0.8795  1.1538
  888MOL0     H17172  -1.521   5.057   7.898 -3.0943 -0.3950 -1.5241
  888MOL0     H17173  -1.537   5.089   7.729  0.1968  1.1000  0.4359
  888MOL0     H17174  -1.472   5.305   7.938  1.0004 -1.6286  0.0748
  888MOL0     H17175  -1.512   5.319   7.761 -1.8332 -0.2179 -0.5371
  888MOL0     H17176  -1.689   5.404   7.909  0.3019  0.7292  2.3363
  888MOL0     H17177  -1.694   5.248   7.989  2.8738  0.2233  0.3836
  888MOL0     H17178  -1.910   5.117   7.654 -0.0682 -1.7254  0.9152
  888MOL0     H17179  -2.162   5.067   7.686  0.3623  0.5233  0.7053
  888MOL0     H17180  -2.437   4.869   7.838  2.1088  4.0202 -0.0971
  888MOL0     H17181  -2.627   4.748   7.927 -2.4117 -0.2953 -1.6510
  888MOL0     H17182  -2.976   4.982   7.855 -2.8261  1.7223  1.5190
  888MOL0     H17183  -3.011   4.969   8.027 -0.6555  2.1232 -0.6305
  888MOL0     H17184  -3.139   4.774   7.991  2.7881 -0.0032  0.0466
  888MOL0     H17185  -3.046   4.742   7.851  2.2764  0.2955  0.4201
  888MOL0     H17186  -3.282   4.811   7.809  1.6657 -2.0572  1.2782
  888MOL0     H17187  -3.166   4.928   7.725  2.9759 -1.9847 -0.4720
  888MOL0     H17188  -3.316   4.982   7.981 -1.1067  1.2597  0.4729
  888MOL0     H17189  -3.210   5.088   7.879  1.4086 -1.3213  0.0858
  888MOL0     H17190  -3.476   4.959   7.807 -2.6958  1.6150 -1.0903
  888MOL0     H17191  -3.371   5.046   7.690 -3.2772 -0.7110 -1.0825
  888MOL0     H17192  -3.423   5.245   7.847  0.8391  0.2492 -0.3128
  888MOL0     H17193  -3.530   5.143   7.940 -0.1346  1.7282  0.1408
  888MOL0     H17194  -3.673   5.098   7.751  0.9545 -0.7413 -1.8206
  888MOL0     H17195  -3.659   5.275   7.779 -2.1969 -0.4000  1.7360
  888MOL0     H17196  -3.679   5.213   7.563 -0.7950  1.2728  0.3372
  888MOL0     H17197  -3.532   5.108   7.548  1.4614  2.4306 -1.8495
  888MOL0     H17198  -2.824   5.128   7.973  1.6735  1.1940  1.2350
  888MOL0     H17199  -2.640   5.240   7.911 -1.3078 -0.6101  2.0502
  888MOL0     H17200  -2.122   5.258   8.072 -0.2949 -2.2365  0.8564
  888MOL0     H17201  -1.902   5.318   8.017  1.7146 -3.9906  0.9753
  888MOL0     H17202  -0.141   4.558   8.000 -0.4119 -2.0185  0.3101
  888MOL0     H17203   0.045   4.451   8.006  2.9500 -0.0107 -1.4932
  888MOL0     H17204   0.475   4.258   8.056 -0.1151  1.1132 -1.1104
  888MOL0     H17205   0.661   4.106   8.019  1.4931 -1.5929 -1.0034
  888MOL0     H17206   0.765   4.039   7.615  0.8604  0.8041  1.8456
  888MOL0     H17207   0.695   3.873   7.642  0.1103 -1.4144  1.0701
  888MOL0     H17208   0.935   3.856   7.778  0.3039 -1.4986 -0.5168
  888MOL0     H17209   0.923   3.815   7.610 -0.4237  0.2941 -1.0473
  888MOL0     H17210   1.022   4.030   7.547 -0.4946  0.3411  0.1851
  888MOL0     H17211   1.129   3.935   7.665 -0.1415 -0.0747  2.0429
  888MOL0     H17212   0.938   4.169   7.716  0.5412 -0.2539  1.4441
  888MOL0     H17213   1.023   4.095   7.843  0.8423 -0.3420  0.6435
  888MOL0     H17214   1.342   4.328   7.665  1.1808 -2.2190  1.0488
  888MOL0     H17215   0.526   4.044   7.614 -1.5444  0.7002  0.5117
  888MOL0     H17216   0.331   4.168   7.647  2.1830 -0.6921 -2.0166
  889MOL0     O17217  10.621   8.151   0.347  0.0144  0.5931 -0.5747
  889MOL0     C17218  10.674   8.064   0.273 -0.0647 -0.9679 -0.6128
  889MOL0     O17219  10.603   7.971   0.202 -0.0468  0.1473 -0.0980
  889MOL0     C17220  10.462   7.955   0.211 -0.2125  0.1452  0.1290
  889MOL0     C17221  10.388   7.962   0.338  0.9531 -1.1561  0.1454
  889MOL0     C17222  10.241   7.950   0.330  0.6237 -0.9263  0.5284
  889MOL0     C17223  10.187   7.937   0.207  0.4155 -0.7805  0.2473
  889MOL0     O17224  10.049   7.923   0.206 -0.8880  0.0009  0.4281
  889MOL0     C17225   9.970   8.041   0.206 -0.5442 -0.4157 -0.4677
  889MOL0     C17226   9.823   8.015   0.171 -0.3340  0.2292 -0.4302
  889MOL0     C17227   9.751   8.001   0.300 -0.7220 -0.4387  0.7779
  889MOL0     C17228   9.607   7.943   0.274  0.0673 -0.0770 -0.6982
  889MOL0     C17229   9.549   7.900   0.405  1.0771  0.0144 -0.2780
  889MOL0     C17230   9.403   7.844   0.382  0.1926  0.5687  0.7241
  889MOL0     C17231   9.297   7.945   0.345 -0.1098  0.5330 -0.0779
  889MOL0     C17232   9.174   7.892   0.273  0.3837 -0.2289 -0.3133
  889MOL0     N17233   9.094   7.799   0.349  0.1372 -0.0989 -0.3231
  889MOL0     C17234   9.049   7.810   0.481 -0.9061 -0.6800  0.6341
  889MOL0     C17235   9.005   7.693   0.517 -0.1133 -0.0265  0.5969
  889MOL0     C17236   8.939   7.667   0.646 -0.4007  0.2916  0.2314
  889MOL0     C17237   8.804   7.731   0.646  1.3583  0.2938 -0.5103
  889MOL0     C17238   8.717   7.701   0.773  0.1296  0.0096 -0.3254
  889MOL0     C17239   8.786   7.711   0.903 -0.1263  0.3807  0.1250
  889MOL0     O17240   8.835   7.848   0.926  0.1340  1.2764 -0.3184
  889MOL0     C17241   8.921   7.857   1.033  0.4878  0.5470  0.1891
  889MOL0     C17242   9.046   7.905   1.008  0.5568 -0.5389 -0.5080
  889MOL0     C17243   9.142   7.909   1.106  0.1049  0.2611  0.1317
  889MOL0     C17244   9.117   7.861   1.237  0.3699  0.2313  1.0672
  889MOL0     C17245   9.227   7.841   1.322 -0.3048 -0.2752 -0.8212
  889MOL0     O17246   9.351   7.858   1.275 -0.7479 -0.5770  0.2468
  889MOL0     C17247   9.458   7.849   1.361 -0.0801 -0.5312  0.1738
  889MOL0     C17248   9.565   7.945   1.342  0.5613  0.7698 -0.3743
  889MOL0     C17249   9.669   7.951   1.423 -0.4021 -0.0328 -0.0889
  889MOL0     C17250   9.686   7.856   1.522  0.1848 -0.2678 -0.4888
  889MOL0     O17251   9.796   7.846   1.603 -0.5125  0.3427  0.4514
  889MOL0     C17252   9.859   7.949   1.674 -0.0031 -0.1742  0.1965
  889MOL0     C17253   9.981   7.992   1.588 -0.6734 -0.6868 -0.7053
  889MOL0     C17254  10.032   8.122   1.632  0.2627 -0.4421  0.1434
  889MOL0     C17255   9.957   8.245   1.586 -0.3029 -0.0122 -0.8297
  889MOL0     C17256  10.011   8.366   1.669 -0.2561 -0.4009 -0.0138
  889MOL0     C17257  10.153   8.412   1.649  0.0201 -0.3555  0.5702
  889MOL0     C17258  10.191   8.421   1.504 -0.4409  0.1404 -0.9178
  889MOL0     C17259  10.339   8.472   1.482 -0.4713  0.3276  0.0429
  889MOL0    Cl17260  10.334   8.647   1.501 -0.3324  0.3890  0.0174
  889MOL0     C17261   9.595   7.753   1.530  0.1156  0.1816  0.6930
  889MOL0     C17262   9.486   7.747   1.449 -0.3956  1.0175  0.1472
  889MOL0     O17263   9.204   7.813   1.441  0.3601  0.1137 -0.3516
  889MOL0     C17264   8.988   7.829   1.262  0.6452  0.2959 -0.1824
  889MOL0     C17265   8.887   7.819   1.164 -0.4967  0.1791 -0.2733
  889MOL0     N17266   9.005   7.608   0.414  0.3725  0.3510  0.3765
  889MOL0     N17267   9.064   7.671   0.316  0.9957 -0.2703  0.3147
  889MOL0     C17268  10.254   7.924   0.090 -0.0461  0.4114  0.3389
  889MOL0     C17269  10.395   7.926   0.091 -0.5098 -0.1164  1.3001
  889MOL0     C17270  10.820   8.064   0.271 -0.9787 -0.0219  0.1149
  889MOL0     C17271  10.886   7.959   0.200  0.3179 -0.1103 -1.3137
  889MOL0     C17272  11.026   7.960   0.197 -0.1505  1.0024 -0.0164
  889MOL0     C17273  11.095   8.060   0.270  0.1708  0.6572 -0.1979
  889MOL0     O17274  11.233   8.070   0.277 -0.1835 -0.2284  0.3429
  889MOL0     C17275  11.297   8.050   0.154 -0.3533 -0.3182 -0.4537
  889MOL0     C17276  11.448   8.060   0.176  0.1909  0.5149  0.1125
  889MOL0     C17277  11.532   8.060   0.043 -0.0089  0.2970 -0.1744
  889MOL0     C17278  11.674   8.126   0.046  0.1039  0.3626  0.1197
  889MOL0     C17279  11.773   8.067   0.137  0.1930 -0.1400 -0.0052
  889MOL0     C17280  11.842   8.015   0.213 -0.1139 -0.4706  0.2628
  889MOL0     C17281  11.028   8.153   0.340  0.4605 -1.2520  0.7941
  889MOL0     C17282  10.892   8.161   0.348  0.2826 -0.2350 -0.1103
  889MOL0     H17283  10.451   7.995   0.419 -1.3167  1.8070  0.9017
  889MOL0     H17284  10.166   7.947   0.408  0.6298  1.6603  0.7276
  889MOL0     H17285  10.011   8.109   0.132 -0.8282  0.4735  0.1800
  889MOL0     H17286   9.982   8.092   0.302 -0.4446 -1.4312  0.0782
  889MOL0     H17287   9.822   7.927   0.106  2.3960  1.8822 -2.9793
  889MOL0     H17288   9.776   8.097   0.116  1.2625  0.3843 -1.6399
  889MOL0     H17289   9.734   8.101   0.339 -1.0476  0.7302 -2.1351
  889MOL0     H17290   9.811   7.933   0.362 -0.0818  0.5598  1.2763
  889MOL0     H17291   9.552   8.031   0.239  1.7074  0.4440 -2.1725
  889MOL0     H17292   9.615   7.853   0.212 -1.2852  0.3689 -1.5716
  889MOL0     H17293   9.545   7.986   0.472  1.9141  1.2553 -1.7627
  889MOL0     H17294   9.620   7.832   0.455  0.5176  0.8359  1.7359
  889MOL0     H17295   9.374   7.793   0.474 -2.1255 -1.4288 -0.9935
  889MOL0     H17296   9.417   7.768   0.305  2.2430  2.5851 -1.0469
  889MOL0     H17297   9.257   8.001   0.430  0.8375 -0.7624  1.2655
  889MOL0     H17298   9.338   8.023   0.280 -1.1021  2.3719  1.4080
  889MOL0     H17299   9.208   7.852   0.176  2.6760 -0.4081  0.5065
  889MOL0     H17300   9.110   7.977   0.248 -3.8560 -3.1319 -0.2726
  889MOL0     H17301   9.042   7.902   0.538  0.6188  0.8820 -1.5077
  889MOL0     H17302   9.004   7.692   0.731  0.7772 -0.0645 -0.5452
  889MOL0     H17303   8.915   7.560   0.645  0.2538  0.1251 -1.9157
  889MOL0     H17304   8.742   7.703   0.560  0.0061  1.0751  0.1703
  889MOL0     H17305   8.819   7.839   0.636  4.3555 -0.0301 -0.2925
  889MOL0     H17306   8.628   7.764   0.762  0.0187 -0.1235 -0.1836
  889MOL0     H17307   8.688   7.596   0.763 -0.9082  0.3106 -0.6580
  889MOL0     H17308   8.867   7.637   0.895 -2.6573 -2.4835 -1.0173
  889MOL0     H17309   8.721   7.686   0.988 -1.5154  3.8993  0.2480
  889MOL0     H17310   9.070   7.946   0.910 -0.7908 -0.1220 -0.6935
  889MOL0     H17311   9.243   7.928   1.073 -1.0683  5.2617 -1.3104
  889MOL0     H17312   9.551   8.023   1.268 -1.4460  2.8104  1.9554
  889MOL0     H17313   9.755   8.012   1.399  0.6222 -0.9746  1.0539
  889MOL0     H17314   9.895   7.915   1.772  3.2075 -1.9209 -1.4407
  889MOL0     H17315   9.789   8.029   1.700  2.2850  1.8469  0.5101
  889MOL0     H17316   9.960   8.014   1.483 -0.3641  4.7810  0.0955
  889MOL0     H17317  10.064   7.920   1.585  0.8987  0.9995 -0.0450
  889MOL0     H17318  10.132   8.127   1.590  0.1786 -0.2069 -0.0328
  889MOL0     H17319  10.038   8.125   1.741  1.1807 -0.4420  0.0925
  889MOL0     H17320   9.956   8.259   1.478 -2.1005  0.0878 -0.8335
  889MOL0     H17321   9.850   8.236   1.607 -0.2872  0.6814 -0.4090
  889MOL0     H17322  10.008   8.363   1.778  3.9890  3.1260  0.4629
  889MOL0     H17323   9.949   8.453   1.644  2.5754  0.8731 -3.3673
  889MOL0     H17324  10.223   8.342   1.696 -0.3032  1.0529  3.3781
  889MOL0     H17325  10.178   8.507   1.698  1.2343  1.5769 -3.4038
  889MOL0     H17326  10.182   8.322   1.458  2.7151 -0.4861 -0.3910
  889MOL0     H17327  10.121   8.486   1.449  0.0825  0.5482 -1.1142
  889MOL0     H17328  10.369   8.442   1.382  0.8662 -2.5247  1.1779
  889MOL0     H17329  10.400   8.429   1.562  0.1651 -3.4534 -2.2189
  889MOL0     H17330   9.611   7.665   1.590 -1.6541  0.4951  1.6825
  889MOL0     H17331   9.425   7.657   1.444  0.7175  0.0924  2.1886
  889MOL0     H17332   8.950   7.798   1.359 -1.5450  2.5641 -0.2258
  889MOL0     H17333   8.789   7.791   1.201 -0.5204  0.8877  0.2192
  889MOL0     H17334  10.198   7.920  -0.003  0.2174 -1.7748  0.2119
  889MOL0     H17335  10.450   7.923  -0.003 -1.2029  0.2511  0.8747
  889MOL0     H17336  10.827   7.877   0.159 -2.6964  0.7549  0.9043
  889MOL0     H17337  11.085   7.882   0.150  1.6360  1.5578  1.1966
  889MOL0     H17338  11.254   8.125   0.087 -4.8253 -2.5862 -0.4567
  889MOL0     H17339  11.276   7.950   0.115  0.4409 -0.8435  0.4174
  889MOL0     H17340  11.476   8.153   0.227  0.6355  0.0827  0.6733
  889MOL0     H17341  11.475   7.965   0.224 -0.6731 -0.8002 -1.8692
  889MOL0     H17342  11.472   8.123  -0.023  3.1729  2.3606 -1.3069
  889MOL0     H17343  11.530   7.959   0.001 -0.2751  1.2235 -2.5776
  889MOL0     H17344  11.712   8.128  -0.057  1.8930 -1.7353  0.6559
  889MOL0     H17345  11.646   8.226   0.080 -0.2592 -0.1425  1.3509
  889MOL0     H17346  11.902   7.982   0.295 -0.7388  0.3673  1.0797
  889MOL0     H17347  11.079   8.233   0.393 -0.2510 -1.0034  1.1123
  889MOL0     H17348  10.842   8.235   0.409 -0.0469 -0.3216 -0.2713
  890MOL0     O17349   8.777   3.484   5.206  0.1588  0.4074  0.3550
  890MOL0     C17350   8.860   3.394   5.191  0.3017  0.0758  0.2677
  890MOL0     O17351   8.837   3.259   5.191 -0.8853 -0.4007 -0.0518
  890MOL0     C17352   8.711   3.223   5.238 -0.5803  0.4855 -0.0844
  890MOL0     C17353   8.605   3.179   5.154  0.3779  0.4453 -0.1738
  890MOL0     C17354   8.481   3.168   5.206 -0.4651 -0.6196 -0.3889
  890MOL0     C17355   8.449   3.195   5.337  0.4446  0.1328  0.3950
  890MOL0     O17356   8.325   3.195   5.389  0.5643 -0.5579  0.8238
  890MOL0     C17357   8.213   3.132   5.321 -0.2606  0.8287 -0.9259
  890MOL0     C17358   8.097   3.105   5.427  0.5885  0.1620  0.4278
  890MOL0     C17359   8.042   3.234   5.494 -0.0148  0.3074 -0.5731
  890MOL0     C17360   7.952   3.184   5.609 -0.6419 -0.3196  0.3304
  890MOL0     C17361   7.893   3.307   5.693 -0.0203  1.0464  0.3745
  890MOL0     C17362   7.782   3.270   5.789 -0.3738  0.0250  0.5067
  890MOL0     C17363   7.756   3.399   5.879  0.1722  0.2947  0.1826
  890MOL0     C17364   7.631   3.395   5.959 -0.2054  0.8099 -0.1442
  890MOL0     N17365   7.645   3.342   6.097 -0.2906 -0.9568  0.1270
  890MOL0     C17366   7.574   3.385   6.209 -0.6399 -1.0560  0.7454
  890MOL0     C17367   7.586   3.276   6.302 -0.6668 -0.4362  0.9567
  890MOL0     C17368   7.540   3.287   6.443  0.0894  0.1714 -0.4091
  890MOL0     C17369   7.393   3.285   6.472 -0.0767 -0.2659 -0.5824
  890MOL0     C17370   7.371   3.320   6.623  0.0217 -0.4062 -0.2177
  890MOL0     C17371   7.227   3.302   6.656  0.2508 -0.3008  1.2522
  890MOL0     O17372   7.139   3.396   6.583 -0.4312 -0.2897  0.4700
  890MOL0     C17373   7.015   3.415   6.636 -0.5451 -0.4924  0.1600
  890MOL0     C17374   6.903   3.415   6.552  0.0369 -0.7990  0.7059
  890MOL0     C17375   6.776   3.422   6.596 -0.8398  0.0659 -0.3007
  890MOL0     C17376   6.754   3.465   6.730  0.0912  0.2356 -0.3817
  890MOL0     C17377   6.621   3.470   6.778  0.2672 -0.1439 -0.5377
  890MOL0     O17378   6.523   3.469   6.682  0.5471  0.0654 -0.5770
  890MOL0     C17379   6.391   3.504   6.709 -0.4368 -0.3209 -0.1131
  890MOL0     C17380   6.371   3.629   6.758 -0.1929 -1.0037  0.0866
  890MOL0     C17381   6.241   3.683   6.776 -0.5696  0.1192 -0.1849
  890MOL0     C17382   6.133   3.606   6.749 -0.0688 -0.0174  0.4378
  890MOL0     O17383   6.003   3.647   6.776 -0.1528 -0.4426 -0.1630
  890MOL0     C17384   5.958   3.775   6.716  0.6220  0.2056 -0.2400
  890MOL0     C17385   5.814   3.769   6.681  0.5301 -0.2982  0.4230
  890MOL0     C17386   5.786   3.700   6.546  0.1626  0.6386  0.2832
  890MOL0     C17387   5.634   3.678   6.543 -0.2366 -0.7132 -1.0098
  890MOL0     C17388   5.577   3.648   6.408  1.0626  0.8300 -0.4624
  890MOL0     C17389   5.428   3.638   6.389  1.1021 -0.3384 -0.0326
  890MOL0     C17390   5.364   3.593   6.520 -0.0297 -0.9993 -0.5641
  890MOL0     C17391   5.213   3.558   6.517 -1.1639  0.4293 -0.0275
  890MOL0    Cl17392   5.135   3.646   6.387 -0.1917 -0.2392 -0.2500
  890MOL0     C17393   6.155   3.476   6.701  0.2728  0.0126  0.2898
  890MOL0     C17394   6.284   3.420   6.681 -0.2495  0.4410 -0.1648
  890MOL0     O17395   6.599   3.474   6.899  0.4340  0.3067 -0.5956
  890MOL0     C17396   6.872   3.471   6.816  0.4639 -0.0025 -0.0867
  890MOL0     C17397   7.003   3.456   6.766  0.7452  0.1635 -0.1398
  890MOL0     N17398   7.669   3.179   6.237 -0.1019 -0.7019 -0.6850
  890MOL0     N17399   7.698   3.221   6.123  0.5525  0.3735  0.8158
  890MOL0     C17400   8.548   3.253   5.417 -0.1854  0.0299 -0.5688
  890MOL0     C17401   8.683   3.251   5.375 -0.5134 -0.4595  0.8399
  890MOL0     C17402   8.999   3.433   5.183 -0.2589 -0.7552  0.8676
  890MOL0     C17403   9.101   3.331   5.185  0.1177 -0.0230  0.7350
  890MOL0     C17404   9.238   3.363   5.223 -0.4850  0.2492  0.8163
  890MOL0     C17405   9.272   3.499   5.223 -0.1801 -1.2090 -0.7921
  890MOL0     O17406   9.404   3.523   5.236  0.1638 -0.8495  0.7653
  890MOL0     C17407   9.473   3.565   5.114 -0.4260  0.4985  0.5630
  890MOL0     C17408   9.622   3.573   5.154 -0.8450  0.4456  0.3854
  890MOL0     C17409   9.690   3.438   5.153  0.6296 -0.2837 -0.0468
  890MOL0     C17410   9.839   3.454   5.165 -0.3950  0.5254 -0.3784
  890MOL0     C17411   9.903   3.321   5.170 -0.2134 -0.4278  0.1076
  890MOL0     C17412   9.967   3.216   5.174  0.0473 -0.1657 -0.3079
  890MOL0     C17413   9.181   3.600   5.211 -0.8093 -0.4332 -0.3942
  890MOL0     C17414   9.041   3.564   5.190  0.1031 -0.2630  0.2927
  890MOL0     H17415   8.616   3.170   5.046  0.9310  2.1762 -0.2981
  890MOL0     H17416   8.401   3.128   5.144 -2.1273  2.4129 -0.3580
  890MOL0     H17417   8.238   3.035   5.278  0.7267  1.8610 -2.8488
  890MOL0     H17418   8.171   3.200   5.246 -2.9591  0.4497  0.1302
  890MOL0     H17419   8.127   3.040   5.509 -0.6076  1.0903  1.6564
  890MOL0     H17420   8.016   3.053   5.374  1.7137 -1.2890  0.0733
  890MOL0     H17421   7.980   3.290   5.423  1.9846  1.6394 -1.3686
  890MOL0     H17422   8.126   3.300   5.521  2.6625 -2.8343 -0.5500
  890MOL0     H17423   7.866   3.127   5.573 -2.2064  2.2288 -0.2192
  890MOL0     H17424   8.012   3.120   5.674  0.9803 -1.0385 -1.7750
  890MOL0     H17425   7.857   3.380   5.620 -1.4717 -0.4463 -0.4852
  890MOL0     H17426   7.978   3.347   5.748 -0.1171  0.4821  0.9429
  890MOL0     H17427   7.818   3.196   5.861  1.3683  0.3277  0.0032
  890MOL0     H17428   7.688   3.236   5.746  1.0236 -1.5820 -1.4722
  890MOL0     H17429   7.840   3.425   5.944  0.4566  1.3919 -0.5897
  890MOL0     H17430   7.748   3.480   5.806  0.8185 -0.0553 -0.2879
  890MOL0     H17431   7.562   3.330   5.904 -0.8654  0.1699  1.3760
  890MOL0     H17432   7.583   3.493   5.970  0.6621  1.3035 -0.7075
  890MOL0     H17433   7.528   3.481   6.227  0.2274 -0.5491  0.3028
  890MOL0     H17434   7.563   3.383   6.489 -1.4498 -1.4511  4.3794
  890MOL0     H17435   7.579   3.204   6.503 -0.7872  0.1307  0.1128
  890MOL0     H17436   7.349   3.186   6.459  1.1957 -1.4769  3.0817
  890MOL0     H17437   7.357   3.364   6.406  1.2203 -0.7811 -1.9611
  890MOL0     H17438   7.432   3.254   6.684  2.4620  1.6382 -0.2866
  890MOL0     H17439   7.396   3.425   6.645 -0.1004 -0.6855  1.3711
  890MOL0     H17440   7.215   3.309   6.765  2.4873 -1.2733  1.6141
  890MOL0     H17441   7.197   3.201   6.626  2.7907 -0.7205 -0.0642
  890MOL0     H17442   6.911   3.393   6.446 -1.1244  2.9109 -0.3040
  890MOL0     H17443   6.693   3.410   6.527  2.1148 -0.3954 -4.1241
  890MOL0     H17444   6.451   3.701   6.777 -1.1516  0.6089 -1.6736
  890MOL0     H17445   6.224   3.782   6.816 -3.9741 -1.3332  2.5258
  890MOL0     H17446   6.011   3.799   6.623 -0.8879  0.3903 -1.0878
  890MOL0     H17447   5.970   3.857   6.788 -1.3097 -0.2963  0.7276
  890MOL0     H17448   5.763   3.866   6.676  2.4900  0.7264 -1.4352
  890MOL0     H17449   5.758   3.714   6.757 -3.2565 -0.0776 -1.9249
  890MOL0     H17450   5.845   3.609   6.527  2.8119  2.3687 -0.3656
  890MOL0     H17451   5.823   3.766   6.467  1.0867 -1.2196 -0.9076
  890MOL0     H17452   5.612   3.601   6.619  2.4348 -1.1446 -0.5736
  890MOL0     H17453   5.579   3.765   6.579  1.3181 -0.3343  0.5502
  890MOL0     H17454   5.622   3.554   6.372 -1.9508 -0.6005 -0.7779
  890MOL0     H17455   5.608   3.729   6.341 -2.5865  3.0635  0.3035
  890MOL0     H17456   5.409   3.557   6.318 -1.0810 -1.6867  1.9403
  890MOL0     H17457   5.378   3.733   6.370  0.7870 -0.4326  0.3088
  890MOL0     H17458   5.417   3.517   6.578  0.7169  0.8732  1.3492
  890MOL0     H17459   5.365   3.681   6.586 -0.7223 -1.2832 -0.1600
  890MOL0     H17460   5.167   3.557   6.617 -1.3213 -3.4131 -0.0082
  890MOL0     H17461   5.204   3.456   6.480  4.0673 -0.7280  1.1711
  890MOL0     H17462   6.068   3.415   6.679  2.1308 -2.3526 -0.9013
  890MOL0     H17463   6.296   3.317   6.650 -0.5489 -0.5647  2.7525
  890MOL0     H17464   6.870   3.483   6.924  0.9776 -0.9563  0.0372
  890MOL0     H17465   7.088   3.479   6.830  1.0178  3.1906 -1.4318
  890MOL0     H17466   8.507   3.286   5.512  0.0318  0.5998 -0.6629
  890MOL0     H17467   8.756   3.285   5.447  0.4529 -2.6080  0.9347
  890MOL0     H17468   9.077   3.225   5.184  0.6863 -0.2067 -1.6926
  890MOL0     H17469   9.318   3.291   5.235  1.2462  1.3281 -2.7446
  890MOL0     H17470   9.437   3.656   5.065 -2.1699 -0.4289  0.0371
  890MOL0     H17471   9.465   3.485   5.040 -3.5779  2.4601 -1.4728
  890MOL0     H17472   9.664   3.646   5.084 -2.1409  1.4010  0.5604
  890MOL0     H17473   9.623   3.614   5.255  1.6133 -0.1480  0.6661
  890MOL0     H17474   9.666   3.366   5.075 -3.7386  1.8635 -0.9575
  890MOL0     H17475   9.669   3.396   5.252 -1.1937 -2.5671 -1.3110
  890MOL0     H17476   9.878   3.513   5.082 -1.0809 -1.6569 -2.3672
  890MOL0     H17477   9.848   3.505   5.261 -0.8179  2.0487 -1.1285
  890MOL0     H17478  10.028   3.129   5.164  1.4378  0.3751  2.4079
  890MOL0     H17479   9.208   3.705   5.212  2.1222 -1.1112  0.0242
  890MOL0     H17480   8.968   3.642   5.171  2.8894  2.1337 -1.5640
  891MOL0     O17481   3.044   8.624   1.121 -0.1695 -0.3822 -0.0014
  891MOL0     C17482   3.112   8.669   1.030 -0.9924 -0.9720 -0.0335
  891MOL0     O17483   3.079   8.685   0.904  0.4908 -0.1107  0.1074
  891MOL0     C17484   2.957   8.659   0.843  0.8325 -1.0661  0.6369
  891MOL0     C17485   2.954   8.650   0.700 -0.2875 -0.0628  0.7447
  891MOL0     C17486   2.834   8.623   0.632 -0.6548 -0.2090 -0.2736
  891MOL0     C17487   2.720   8.600   0.706 -1.1814 -0.4632  1.0747
  891MOL0     O17488   2.591   8.584   0.654 -0.2742 -0.5364 -0.0739
  891MOL0     C17489   2.565   8.660   0.541  0.1384 -0.4095  0.8925
  891MOL0     C17490   2.416   8.652   0.497 -0.1075  0.2455  1.0036
  891MOL0     C17491   2.372   8.787   0.432 -0.1284 -0.1463  0.3424
  891MOL0     C17492   2.223   8.790   0.403  0.2096  0.3855 -0.4336
  891MOL0     C17493   2.173   8.917   0.333  0.3776 -0.2398 -0.2815
  891MOL0     C17494   2.021   8.940   0.342 -0.1469 -0.2176  0.1429
  891MOL0     C17495   1.940   8.823   0.280  0.1182  0.3197  1.3346
  891MOL0     C17496   1.950   8.812   0.124 -1.1070 -0.4773 -0.0220
  891MOL0     N17497   1.856   8.719   0.074 -0.4712  1.6869 -0.3426
  891MOL0     C17498   1.836   8.582   0.105 -0.4017  0.1065 -0.3747
  891MOL0     C17499   1.745   8.542   0.021 -0.3921  0.6905  0.5780
  891MOL0     C17500   1.676   8.406   0.012 -0.0578  0.3531 -0.2042
  891MOL0     C17501   1.569   8.383   0.130 -0.8574  0.4765 -0.1369
  891MOL0     C17502   1.514   8.239   0.111 -0.1863  0.6992 -0.3619
  891MOL0     C17503   1.398   8.198   0.204  0.4479  1.2971  0.0550
  891MOL0     O17504   1.443   8.199   0.341 -0.4604 -0.3224 -0.1112
  891MOL0     C17505   1.340   8.191   0.440 -1.2491  0.7509  0.5162
  891MOL0     C17506   1.210   8.153   0.426 -0.7808 -0.1454  0.2217
  891MOL0     C17507   1.121   8.144   0.529  0.7853 -0.7761 -0.0669
  891MOL0     C17508   1.160   8.152   0.661  0.2673 -0.3544 -0.7790
  891MOL0     C17509   1.063   8.118   0.772 -0.4720 -0.4344  0.0163
  891MOL0     O17510   1.107   8.127   0.902  0.1239 -0.1866  0.6185
  891MOL0     C17511   1.026   8.156   1.002 -0.3629  0.4972  0.2810
  891MOL0     C17512   1.091   8.160   1.125 -0.0940  0.0205  0.2950
  891MOL0     C17513   1.023   8.191   1.243  0.6447  0.7354 -0.9221
  891MOL0     C17514   0.883   8.209   1.245 -0.4871 -0.1278  0.2036
  891MOL0     O17515   0.813   8.253   1.356 -0.4946  0.0583  0.0470
  891MOL0     C17516   0.834   8.199   1.488 -0.7182 -0.6753 -0.0028
  891MOL0     C17517   0.822   8.332   1.582  0.3534  0.4249  0.3851
  891MOL0     C17518   0.687   8.356   1.640 -0.3680  0.0349 -0.2492
  891MOL0     C17519   0.588   8.406   1.536  0.6767 -0.0368 -1.7431
  891MOL0     C17520   0.455   8.424   1.620  0.3198  0.0640  0.4008
  891MOL0     C17521   0.330   8.428   1.529  0.5096  0.6365  0.9015
  891MOL0     C17522   0.319   8.561   1.458 -0.2967  0.4201 -0.2286
  891MOL0     C17523   0.170   8.604   1.411 -0.1967  0.6272  0.1710
  891MOL0    Cl17524   0.102   8.461   1.326  0.2993 -0.5029 -0.1390
  891MOL0     C17525   0.807   8.204   1.124  0.4793 -0.3921 -0.5086
  891MOL0     C17526   0.878   8.173   1.005 -0.4786 -0.0018 -0.2308
  891MOL0     O17527   0.951   8.078   0.730 -0.3897  0.3144 -0.9263
  891MOL0     C17528   1.298   8.183   0.678 -0.3393  0.5833 -0.2245
  891MOL0     C17529   1.375   8.218   0.571 -0.0954  1.0643 -0.2702
  891MOL0     N17530   1.717   8.645  -0.065  0.3895 -0.2003 -0.3342
  891MOL0     N17531   1.783   8.745  -0.033  0.3421  0.3808 -0.2554
  891MOL0     C17532   2.723   8.609   0.838 -0.5389 -0.4448  0.7633
  891MOL0     C17533   2.839   8.640   0.906  1.0666 -0.5812 -0.3142
  891MOL0     C17534   3.251   8.715   1.063 -0.0060  0.2897  0.4162
  891MOL0     C17535   3.323   8.794   0.970 -1.0579  1.0049  0.1664
  891MOL0     C17536   3.458   8.826   1.001 -0.3922 -0.1735 -0.1684
  891MOL0     C17537   3.523   8.785   1.117 -0.6831  0.1531  0.9066
  891MOL0     O17538   3.649   8.820   1.146 -0.2035 -0.1959  0.1361
  891MOL0     C17539   3.694   8.803   1.278  0.3382  0.3340  0.0368
  891MOL0     C17540   3.837   8.834   1.289 -0.1350  0.5377  0.2001
  891MOL0     C17541   3.864   8.988   1.308  0.3093  0.4618  0.4575
  891MOL0     C17542   4.002   9.035   1.258 -0.3358  0.5222 -0.2551
  891MOL0     C17543   4.107   9.030   1.365  1.1070 -0.8930 -0.3412
  891MOL0     C17544   4.188   9.034   1.452 -0.1367 -0.2860 -0.4496
  891MOL0     C17545   3.442   8.712   1.207  0.0225 -0.0133  0.0569
  891MOL0     C17546   3.310   8.678   1.180 -0.2098 -0.1276  0.4013
  891MOL0     H17547   3.050   8.667   0.651 -0.3821  0.3726  0.7032
  891MOL0     H17548   2.842   8.634   0.524  1.5106  1.8278  0.0136
  891MOL0     H17549   2.626   8.614   0.462  3.0854  1.4732  1.8670
  891MOL0     H17550   2.595   8.764   0.561 -3.4369  1.0045 -0.4060
  891MOL0     H17551   2.351   8.643   0.585 -4.2791  0.9400 -1.7359
  891MOL0     H17552   2.393   8.570   0.428 -1.2123  1.9944 -0.8174
  891MOL0     H17553   2.430   8.804   0.342 -0.7699 -2.1827 -0.5171
  891MOL0     H17554   2.400   8.868   0.501  0.7610  0.2267 -0.4382
  891MOL0     H17555   2.199   8.696   0.351 -1.0816  0.8480 -0.6963
  891MOL0     H17556   2.176   8.776   0.501  1.0653 -0.4229 -0.1130
  891MOL0     H17557   2.206   8.911   0.228  1.1848  0.8911 -0.1118
  891MOL0     H17558   2.211   9.008   0.379  1.0100 -1.0610  0.8613
  891MOL0     H17559   1.993   9.040   0.309 -1.5861  0.8939  4.1039
  891MOL0     H17560   2.011   8.947   0.451 -2.3749 -0.4176 -0.0108
  891MOL0     H17561   1.970   8.726   0.321  0.5313 -0.2338 -0.2110
  891MOL0     H17562   1.836   8.832   0.313  0.3368  1.1339  1.8330
  891MOL0     H17563   2.055   8.795   0.100  0.3238  3.2075  2.5808
  891MOL0     H17564   1.939   8.909   0.075 -2.4421  0.1362  1.3691
  891MOL0     H17565   1.875   8.535   0.194 -0.9246 -1.5137 -0.9749
  891MOL0     H17566   1.758   8.336   0.025  1.3867  2.1624  0.9722
  891MOL0     H17567   1.643   8.392  -0.092  4.4026  1.0112 -1.9282
  891MOL0     H17568   1.498   8.467   0.140  0.3303  1.2319  3.4043
  891MOL0     H17569   1.627   8.380   0.223  0.2713 -0.6034 -0.8460
  891MOL0     H17570   1.479   8.228   0.008 -1.8226 -0.0501  0.2393
  891MOL0     H17571   1.602   8.175   0.125 -0.2822  0.4908 -0.7273
  891MOL0     H17572   1.356   8.097   0.199  2.2459  0.3866  1.9215
  891MOL0     H17573   1.318   8.272   0.197 -1.0299  0.0264  2.1166
  891MOL0     H17574   1.163   8.131   0.331 -2.5978 -0.3454  1.1180
  891MOL0     H17575   1.018   8.125   0.499 -0.1219  1.9738  0.9285
  891MOL0     H17576   1.198   8.143   1.116 -0.1187  0.4849 -1.1377
  891MOL0     H17577   1.077   8.203   1.336  0.2790  1.6123 -0.8134
  891MOL0     H17578   0.931   8.149   1.501 -0.2465  0.4929  1.2250
  891MOL0     H17579   0.754   8.128   1.511 -1.6924 -0.1317 -1.5104
  891MOL0     H17580   0.867   8.418   1.533  1.4884 -0.5552 -0.3474
  891MOL0     H17581   0.875   8.312   1.676  1.1001  1.8303  0.2855
  891MOL0     H17582   0.691   8.430   1.720 -1.9483  0.5750 -0.6346
  891MOL0     H17583   0.659   8.259   1.683 -0.3554 -0.8810 -2.2108
  891MOL0     H17584   0.627   8.499   1.495  0.3290 -0.0066 -2.0111
  891MOL0     H17585   0.570   8.329   1.460 -0.0154  0.5602 -2.1992
  891MOL0     H17586   0.472   8.496   1.701 -0.5399  0.6207  0.1011
  891MOL0     H17587   0.437   8.328   1.670  0.3743  0.4245  1.1116
  891MOL0     H17588   0.234   8.405   1.577  0.4900 -0.6683  0.2680
  891MOL0     H17589   0.347   8.345   1.460  3.5717 -1.8094  4.1942
  891MOL0     H17590   0.376   8.635   1.513  0.4307 -0.1165 -0.2518
  891MOL0     H17591   0.367   8.572   1.360 -0.4225  3.1121 -0.0521
  891MOL0     H17592   0.189   8.681   1.335  0.8556 -0.0720 -0.3003
  891MOL0     H17593   0.107   8.631   1.496 -1.0650 -1.5433  0.2653
  891MOL0     H17594   0.707   8.243   1.135 -0.8711 -3.6994  0.0587
  891MOL0     H17595   0.826   8.186   0.911  1.2491  0.3086 -1.1912
  891MOL0     H17596   1.336   8.192   0.780 -0.4935  0.5045 -0.1589
  891MOL0     H17597   1.478   8.248   0.589 -0.0929  2.1344 -1.9377
  891MOL0     H17598   2.630   8.590   0.891  0.1210  0.7283  2.4082
  891MOL0     H17599   2.836   8.651   1.014  0.5250  1.3176 -0.4940
  891MOL0     H17600   3.268   8.834   0.886 -2.0148 -1.0288 -0.2285
  891MOL0     H17601   3.516   8.899   0.946  1.6978 -0.6007  1.3275
  891MOL0     H17602   3.701   8.695   1.296  2.4882  0.4062 -0.0924
  891MOL0     H17603   3.639   8.864   1.351 -1.3085 -0.7078 -0.2880
  891MOL0     H17604   3.881   8.801   1.384 -1.6106  1.5330  1.2691
  891MOL0     H17605   3.899   8.798   1.207 -2.6583 -1.0896 -1.1336
  891MOL0     H17606   3.851   9.008   1.415  3.8646 -1.2620  1.3734
  891MOL0     H17607   3.783   9.036   1.252  2.2446  1.1399 -1.9252
  891MOL0     H17608   4.026   8.965   1.178 -4.3661 -2.0187  0.5053
  891MOL0     H17609   3.993   9.140   1.227 -0.9299  0.1769 -1.2932
  891MOL0     H17610   4.254   9.068   1.529  0.4945 -1.9058 -0.2420
  891MOL0     H17611   3.490   8.673   1.297  0.6536  0.2656 -0.1527
  891MOL0     H17612   3.261   8.622   1.259  0.8261 -0.5051  0.7897
  892MOL0     O17613   9.854  11.010   0.529 -1.0708  0.0923  0.7383
  892MOL0     C17614   9.862  10.984   0.412 -0.5329  0.0970 -0.4295
  892MOL0     O17615   9.757  10.949   0.328 -0.4105 -0.2459 -0.2466
  892MOL0     C17616   9.626  10.944   0.369  0.3817 -0.0906 -0.3410
  892MOL0     C17617   9.563  11.004   0.493  0.1159  0.4793  0.8831
  892MOL0     C17618   9.418  11.002   0.504 -0.4327  0.0366 -0.4117
  892MOL0     C17619   9.332  10.947   0.414 -0.1450  0.6533  0.1031
  892MOL0     O17620   9.196  10.963   0.432  0.3375 -0.3286  0.1050
  892MOL0     C17621   9.094  10.896   0.358  0.8170  1.0946  0.3380
  892MOL0     C17622   9.094  10.743   0.374  0.0501 -0.1295 -0.4668
  892MOL0     C17623   9.023  10.705   0.509 -0.9600 -0.7739 -0.4087
  892MOL0     C17624   9.047  10.551   0.533  0.9158  0.3900  0.5622
  892MOL0     C17625   8.960  10.503   0.642  0.2422 -0.6991  0.4586
  892MOL0     C17626   8.814  10.461   0.596 -1.6987 -0.6729 -0.9512
  892MOL0     C17627   8.756  10.365   0.707 -1.0397 -0.4222 -0.4860
  892MOL0     C17628   8.613  10.316   0.657  0.0201 -0.0189 -0.2428
  892MOL0     N17629   8.526  10.231   0.744 -0.4282 -0.2134  0.0640
  892MOL0     C17630   8.419  10.158   0.702  0.3627 -0.3493 -0.3742
  892MOL0     C17631   8.381  10.090   0.811 -0.3741 -0.8777 -0.3657
  892MOL0     C17632   8.259  10.003   0.838 -0.2051  0.6194 -0.4444
  892MOL0     C17633   8.117  10.067   0.874 -0.5023 -0.0112  0.2694
  892MOL0     C17634   8.026   9.953   0.905 -0.2306 -0.6651  0.4678
  892MOL0     C17635   7.874   9.997   0.918  0.3381  0.2170  0.5129
  892MOL0     O17636   7.851  10.051   1.047 -0.2640 -0.4659 -0.3972
  892MOL0     C17637   7.719  10.068   1.062  0.9811  0.3277 -0.5048
  892MOL0     C17638   7.668  10.197   1.106  0.1808 -0.2295 -0.9748
  892MOL0     C17639   7.527  10.230   1.109 -0.1196 -0.1716  0.9509
  892MOL0     C17640   7.429  10.131   1.081 -0.3436 -0.3347  0.3794
  892MOL0     C17641   7.288  10.168   1.085 -0.0003 -0.1032  0.7225
  892MOL0     O17642   7.191  10.077   1.122 -0.2193  0.2297  0.7796
  892MOL0     C17643   7.067  10.124   1.130 -0.1883  0.5205 -1.1738
  892MOL0     C17644   7.006  10.114   1.257 -0.0300  0.4366 -0.8525
  892MOL0     C17645   6.885  10.169   1.290  0.7284 -0.1277  0.2435
  892MOL0     C17646   6.818  10.231   1.186  0.2498 -0.2811 -0.1405
  892MOL0     O17647   6.691  10.283   1.200 -0.7093 -0.2517 -0.0118
  892MOL0     C17648   6.608  10.226   1.299 -0.7283  0.1752 -0.8759
  892MOL0     C17649   6.466  10.276   1.274 -0.3170  0.1858  0.0496
  892MOL0     C17650   6.372  10.206   1.372 -0.0405 -0.7557  0.8038
  892MOL0     C17651   6.220  10.229   1.356 -0.2824  0.3018  0.4700
  892MOL0     C17652   6.135  10.133   1.437 -0.5455 -0.5639 -0.9004
  892MOL0     C17653   6.142  10.167   1.589 -0.0103 -0.2178 -0.3511
  892MOL0     C17654   6.129  10.043   1.671 -0.4189  0.5118 -0.0497
  892MOL0     C17655   6.092  10.055   1.815  0.7189  1.1555 -0.5854
  892MOL0    Cl17656   5.935  10.137   1.838 -0.0532  0.1507  0.0374
  892MOL0     C17657   6.865  10.240   1.052 -0.7441  0.9109 -0.0868
  892MOL0     C17658   6.997  10.203   1.034 -0.5419 -0.5501  0.0874
  892MOL0     O17659   7.265  10.284   1.052 -0.4680  0.2659 -1.5588
  892MOL0     C17660   7.482   9.998   1.044 -0.6773 -0.1832  0.1130
  892MOL0     C17661   7.617   9.967   1.040 -0.7393 -0.3522 -0.3300
  892MOL0     N17662   8.479  10.095   0.908 -0.0287 -0.4239 -0.4000
  892MOL0     N17663   8.566  10.186   0.868  0.0314  0.4738  0.0745
  892MOL0     C17664   9.392  10.897   0.291  0.6681 -0.1700 -0.2206
  892MOL0     C17665   9.535  10.896   0.274  0.5705 -0.5917 -0.4357
  892MOL0     C17666   9.993  10.970   0.348  0.0136  1.0879 -0.9777
  892MOL0     C17667  10.015  10.970   0.207  0.4589  0.3845 -1.0187
  892MOL0     C17668  10.135  10.934   0.144 -0.1738  0.8360  0.2665
  892MOL0     C17669  10.248  10.897   0.219  1.2893 -0.4886  0.1584
  892MOL0     O17670  10.366  10.854   0.153  0.2936 -0.4093  0.0119
  892MOL0     C17671  10.481  10.827   0.230 -0.7226 -0.3382  0.1541
  892MOL0     C17672  10.573  10.769   0.129 -0.1385 -0.5702 -0.1842
  892MOL0     C17673  10.700  10.711   0.196  0.2786  0.1638 -0.3636
  892MOL0     C17674  10.783  10.818   0.263  0.2137 -0.5972 -0.0190
  892MOL0     C17675  10.913  10.758   0.281 -0.9287 -0.2157 -0.3781
  892MOL0     C17676  11.030  10.710   0.293  0.1743  0.2158  0.1229
  892MOL0     C17677  10.226  10.898   0.359  0.1229 -0.6968 -0.4322
  892MOL0     C17678  10.108  10.945   0.428 -0.7112  0.3457  0.9378
  892MOL0     H17679   9.627  11.070   0.551 -0.4677  1.9172 -0.0691
  892MOL0     H17680   9.394  11.052   0.597  0.7693 -0.2599  0.0814
  892MOL0     H17681   9.104  10.929   0.254 -0.3019  0.2505 -0.0536
  892MOL0     H17682   9.001  10.940   0.396  1.8825  3.3826  0.4909
  892MOL0     H17683   9.192  10.696   0.365 -1.6367 -4.3194  0.4782
  892MOL0     H17684   9.027  10.697   0.301 -2.5321 -0.2446  1.7794
  892MOL0     H17685   8.915  10.720   0.510 -1.5134 -3.6099  2.7375
  892MOL0     H17686   9.070  10.764   0.589 -0.1259  2.4064 -3.0430
  892MOL0     H17687   9.037  10.491   0.442  0.6854 -2.2570  2.2137
  892MOL0     H17688   9.149  10.534   0.567  0.4235 -3.6424  0.5178
  892MOL0     H17689   8.956  10.574   0.725  3.5889 -0.2241  0.3318
  892MOL0     H17690   9.004  10.406   0.666 -3.7696 -3.2297 -1.3716
  892MOL0     H17691   8.815  10.405   0.503  1.2856  0.5930 -1.7939
  892MOL0     H17692   8.745  10.545   0.581 -0.3856  0.8952  1.1386
  892MOL0     H17693   8.807  10.269   0.719 -1.2433 -0.3465  1.1999
  892MOL0     H17694   8.753  10.415   0.804 -2.5379  2.4437 -1.8576
  892MOL0     H17695   8.645  10.252   0.574 -2.3390 -0.3912 -0.9248
  892MOL0     H17696   8.557  10.398   0.611  0.7311  0.1463 -0.8520
  892MOL0     H17697   8.356  10.165   0.614 -0.7055 -0.7388  0.3473
  892MOL0     H17698   8.294   9.935   0.916  1.2998  1.9791  0.1187
  892MOL0     H17699   8.224   9.949   0.749 -2.2018  1.1327 -0.0066
  892MOL0     H17700   8.086  10.127   0.788  3.1220 -0.2864 -1.3694
  892MOL0     H17701   8.131  10.138   0.956  0.4183  0.5471 -0.3598
  892MOL0     H17702   8.022   9.871   0.832 -1.7138 -1.0497  0.9457
  892MOL0     H17703   8.052   9.929   1.009  2.2378 -0.5600 -0.0650
  892MOL0     H17704   7.816   9.905   0.906  1.6407 -1.1114  3.5344
  892MOL0     H17705   7.837  10.066   0.841 -0.5097 -1.4804 -0.6856
  892MOL0     H17706   7.745  10.273   1.118  2.4699 -2.1155 -2.7267
  892MOL0     H17707   7.499  10.333   1.094 -0.6961 -0.7282 -2.6133
  892MOL0     H17708   7.059  10.055   1.331  2.2750  1.4395 -1.5928
  892MOL0     H17709   6.842  10.161   1.390 -0.9078  0.4807 -0.3783
  892MOL0     H17710   6.643  10.247   1.401  0.6151 -1.4954 -0.9364
  892MOL0     H17711   6.616  10.117   1.295 -2.5278 -0.1788  1.9968
  892MOL0     H17712   6.445  10.275   1.167  1.6449  1.3069 -0.3913
  892MOL0     H17713   6.454  10.385   1.282 -1.3436  0.2595 -1.9080
  892MOL0     H17714   6.409  10.217   1.474 -3.2485  0.0089  1.9958
  892MOL0     H17715   6.388  10.098   1.362 -1.0654 -0.9909  1.5569
  892MOL0     H17716   6.181  10.328   1.380  0.6716  1.2358 -1.6006
  892MOL0     H17717   6.198  10.193   1.255  1.8593 -1.8183  0.6596
  892MOL0     H17718   6.180  10.036   1.411  2.3689 -0.6653  3.4108
  892MOL0     H17719   6.030  10.145   1.409 -0.6014  2.9860  0.3880
  892MOL0     H17720   6.065  10.240   1.618 -1.2201 -0.6792 -2.1955
  892MOL0     H17721   6.236  10.221   1.605 -0.9291  1.3477  0.1068
  892MOL0     H17722   6.070   9.976   1.607 -2.4968  1.8665  0.3454
  892MOL0     H17723   6.226   9.993   1.671 -0.3115  0.7042 -0.8896
  892MOL0     H17724   6.162  10.099   1.887  0.4668 -1.5927  1.5005
  892MOL0     H17725   6.085   9.954   1.855  1.9652  1.3728  0.2561
  892MOL0     H17726   6.807  10.293   0.977 -1.8621  0.6325  0.5651
  892MOL0     H17727   7.044  10.222   0.938 -1.3384 -1.6605 -0.5425
  892MOL0     H17728   7.411   9.920   1.020  0.1946 -1.9321  2.7854
  892MOL0     H17729   7.654   9.870   1.007 -1.5065 -0.5327 -0.6717
  892MOL0     H17730   9.336  10.847   0.212  0.6217 -3.0592  1.5129
  892MOL0     H17731   9.566  10.856   0.178  0.1904 -0.3036 -0.6820
  892MOL0     H17732   9.930  10.979   0.140  1.0720  0.6772 -1.7706
  892MOL0     H17733  10.128  10.932   0.035  0.4565  1.6140  0.2077
  892MOL0     H17734  10.464  10.764   0.318 -4.3059 -0.2132 -0.3073
  892MOL0     H17735  10.511  10.928   0.263 -0.4121  0.2084 -1.7112
  892MOL0     H17736  10.517  10.689   0.080  1.1079 -2.7481  1.7549
  892MOL0     H17737  10.611  10.835   0.050  1.7025 -0.7126  0.5434
  892MOL0     H17738  10.759  10.650   0.127  2.8201  0.5294  1.3612
  892MOL0     H17739  10.667  10.643   0.276  3.0811 -0.4269  0.4053
  892MOL0     H17740  10.799  10.906   0.199  0.4460  0.1877  1.0852
  892MOL0     H17741  10.748  10.855   0.359 -0.5611 -0.4882 -0.3336
  892MOL0     H17742  11.118  10.651   0.304 -2.6856 -4.4958  0.4535
  892MOL0     H17743  10.315  10.865   0.413 -0.4703 -0.6669  0.5790
  892MOL0     H17744  10.104  10.960   0.536  0.3735  1.8230  0.8106
  893MOL0     O17745   4.399   0.042  10.187 -0.5780 -0.5233  0.8532
  893MOL0     C17746   4.338  -0.040  10.261 -0.4606 -0.1505  0.2776
  893MOL0     O17747   4.394  -0.110  10.368 -0.0351  0.8296  0.0863
  893MOL0     C17748   4.529  -0.126  10.357  0.4339 -0.2657 -0.7336
  893MOL0     C17749   4.587  -0.235  10.286 -0.0900  0.4887  0.3809
  893MOL0     C17750   4.726  -0.250  10.271 -0.1536 -0.3067 -0.4230
  893MOL0     C17751   4.812  -0.155  10.327 -0.8060 -0.0127  0.0776
  893MOL0     O17752   4.950  -0.172  10.312 -0.2590  0.3232 -0.4420
  893MOL0     C17753   5.045  -0.122  10.416 -0.1753 -0.6471  0.3284
  893MOL0     C17754   5.190  -0.170  10.387  0.1805  0.4816  0.3791
  893MOL0     C17755   5.213  -0.311  10.433 -0.4521 -0.9343 -0.6395
  893MOL0     C17756   5.351  -0.364  10.380  1.1931  0.5980  0.1294
  893MOL0     C17757   5.378  -0.362  10.234 -0.2428 -0.0904  0.6173
  893MOL0     C17758   5.283  -0.446  10.150 -0.5823 -0.2960  0.7837
  893MOL0     C17759   5.294  -0.584  10.191 -0.4100  0.8844 -0.2719
  893MOL0     C17760   5.235  -0.679  10.085 -0.4881  0.5735 -0.3180
  893MOL0     N17761   5.087  -0.661  10.084 -0.3026 -0.1949 -0.1512
  893MOL0     C17762   5.005  -0.673   9.971  0.7922  0.0391  0.0011
  893MOL0     C17763   4.873  -0.670  10.020  1.0572  1.0130 -0.6004
  893MOL0     C17764   4.734  -0.678   9.942  0.3592  0.2420 -0.7152
  893MOL0     C17765   4.745  -0.728   9.794  0.0544 -0.1535  0.9966
  893MOL0     C17766   4.605  -0.718   9.725 -0.5921  0.5823 -0.3449
  893MOL0     C17767   4.505  -0.809   9.787  0.2208 -0.1898  0.0266
  893MOL0     O17768   4.398  -0.734   9.848 -0.5303 -0.4886 -0.3258
  893MOL0     C17769   4.301  -0.804   9.908 -0.3197 -0.7690 -0.7520
  893MOL0     C17770   4.189  -0.730   9.933 -0.5902  0.4238 -0.3062
  893MOL0     C17771   4.087  -0.778  10.018  0.1489  0.2964  0.3826
  893MOL0     C17772   4.097  -0.912  10.065  0.3398  0.5580  0.1889
  893MOL0     C17773   3.996  -0.974  10.149  0.8044 -1.1163 -0.4328
  893MOL0     O17774   3.870  -0.909  10.140  0.4125  0.4197  0.2571
  893MOL0     C17775   3.781  -0.938  10.245 -0.4075 -0.2971 -0.9820
  893MOL0     C17776   3.682  -1.029  10.209 -0.1488  0.2575 -0.7857
  893MOL0     C17777   3.585  -1.053  10.305 -0.8790 -0.1719 -0.0630
  893MOL0     C17778   3.597  -0.995  10.435 -0.7179 -0.0428  0.0073
  893MOL0     O17779   3.499  -1.012  10.531 -0.4770 -0.3302 -0.8548
  893MOL0     C17780   3.368  -1.074  10.503  0.1867  0.1131  0.3000
  893MOL0     C17781   3.252  -1.054  10.601 -0.0232  0.2526  0.0765
  893MOL0     C17782   3.252  -1.161  10.714  0.3632 -0.3984  0.3780
  893MOL0     C17783   3.141  -1.121  10.818 -0.6510  0.3601  0.5971
  893MOL0     C17784   3.001  -1.117  10.767 -0.3034  1.0279  0.9332
  893MOL0     C17785   2.894  -1.107  10.878  0.6429 -0.6239 -0.3286
  893MOL0     C17786   2.755  -1.117  10.805 -0.1854  0.0395 -0.1053
  893MOL0     C17787   2.647  -1.097  10.907 -0.7751 -0.0538  0.2523
  893MOL0    Cl17788   2.496  -1.157  10.846  0.0106 -0.5650 -0.0956
  893MOL0     C17789   3.712  -0.918  10.474  0.1275  0.1070  0.0540
  893MOL0     C17790   3.803  -0.883  10.371  0.4135  0.2194 -0.4246
  893MOL0     O17791   4.026  -1.057  10.238  0.1941 -0.4524  0.1088
  893MOL0     C17792   4.217  -0.992  10.043 -0.6552  0.2700 -0.8061
  893MOL0     C17793   4.317  -0.933   9.964 -0.3325 -0.3032  0.0034
  893MOL0     N17794   4.886  -0.674  10.158 -0.3737 -0.3217 -0.2881
  893MOL0     N17795   5.009  -0.656  10.196 -0.0392 -0.2310  1.1037
  893MOL0     C17796   4.752  -0.052  10.400 -0.0035 -0.1914  0.1622
  893MOL0     C17797   4.616  -0.033  10.413  0.8257  0.9824 -0.1493
  893MOL0     C17798   4.196  -0.066  10.243  0.7962  0.2352  0.3706
  893MOL0     C17799   4.136  -0.024  10.121 -0.0714  0.2808  0.1477
  893MOL0     C17800   4.003  -0.041  10.108 -0.1067 -0.5226  0.3923
  893MOL0     C17801   3.927  -0.088  10.213 -0.3999  0.1175 -0.8018
  893MOL0     O17802   3.793  -0.119  10.206 -0.4343 -0.3015  0.5289
  893MOL0     C17803   3.721  -0.088  10.089  0.3686  0.4539  0.5414
  893MOL0     C17804   3.575  -0.137  10.115  0.4123  0.0493  0.3348
  893MOL0     C17805   3.503  -0.172   9.985  0.4191  0.4595  0.1814
  893MOL0     C17806   3.355  -0.199  10.022  0.3402 -0.3091  0.1857
  893MOL0     C17807   3.332  -0.320  10.107  0.3141 -0.7161 -0.9737
  893MOL0     C17808   3.313  -0.421  10.175  0.1900 -0.0651 -0.5300
  893MOL0     C17809   3.988  -0.119  10.327 -0.0227  0.9206  0.6966
  893MOL0     C17810   4.124  -0.117  10.351 -1.0271  0.1160 -0.1144
  893MOL0     H17811   4.520  -0.309  10.244  0.1864 -1.0975  2.5669
  893MOL0     H17812   4.767  -0.338  10.222 -1.1851 -0.1507 -1.6187
  893MOL0     H17813   5.006  -0.151  10.514 -2.9015  0.4011 -0.3464
  893MOL0     H17814   5.038  -0.014  10.401  0.5364 -0.5452  0.7078
  893MOL0     H17815   5.258  -0.096  10.430  1.6060 -0.2049 -0.6201
  893MOL0     H17816   5.206  -0.166  10.279  2.2379 -0.7129  0.5815
  893MOL0     H17817   5.125  -0.369  10.401 -0.6941 -1.2589  0.5668
  893MOL0     H17818   5.228  -0.297  10.540  0.3854  4.2813 -1.1906
  893MOL0     H17819   5.434  -0.313  10.430  0.8709  1.5899 -0.3104
  893MOL0     H17820   5.360  -0.467  10.415  2.8298  0.6428 -0.1231
  893MOL0     H17821   5.471  -0.420  10.240  0.2485  0.4673 -1.0382
  893MOL0     H17822   5.391  -0.264  10.186  1.2066 -0.6253 -0.1358
  893MOL0     H17823   5.306  -0.429  10.045 -1.2454  2.0852  0.9701
  893MOL0     H17824   5.178  -0.416  10.162 -1.7456 -3.1372 -1.2162
  893MOL0     H17825   5.395  -0.624  10.204 -1.4309 -1.4129  1.4234
  893MOL0     H17826   5.241  -0.596  10.286  1.7962 -1.2326  0.8110
  893MOL0     H17827   5.251  -0.784  10.110  0.5063  0.4203 -1.5450
  893MOL0     H17828   5.271  -0.654   9.985  0.7161  2.2778  0.4902
  893MOL0     H17829   5.028  -0.684   9.865 -1.0874 -2.0309 -0.2694
  893MOL0     H17830   4.709  -0.572   9.946 -1.6096 -0.1718 -1.0695
  893MOL0     H17831   4.656  -0.717  10.008  2.3728  0.0744  1.7457
  893MOL0     H17832   4.769  -0.833   9.813 -1.2387 -0.7073 -0.2456
  893MOL0     H17833   4.821  -0.671   9.738 -0.3984 -1.9716 -1.6626
  893MOL0     H17834   4.567  -0.618   9.748 -1.5649  0.7754 -2.5395
  893MOL0     H17835   4.606  -0.730   9.616 -0.7565  2.3963 -0.5717
  893MOL0     H17836   4.555  -0.869   9.862 -1.0996 -0.3094  0.8523
  893MOL0     H17837   4.471  -0.879   9.710  0.6492 -1.3924  0.9172
  893MOL0     H17838   4.181  -0.628   9.895 -0.0360  0.8144  0.6056
  893MOL0     H17839   3.994  -0.727  10.043 -0.1837 -0.5641  0.9503
  893MOL0     H17840   3.679  -1.069  10.109  0.9466 -1.9646  0.0044
  893MOL0     H17841   3.501  -1.119  10.288 -1.1474  0.2166 -0.2457
  893MOL0     H17842   3.383  -1.181  10.489  2.3500  0.4942 -0.7445
  893MOL0     H17843   3.337  -1.037  10.404  1.1400  0.1686  0.0127
  893MOL0     H17844   3.152  -1.055  10.556 -1.7522  1.0051  3.5124
  893MOL0     H17845   3.280  -0.961  10.652 -1.9713  2.0968 -1.9481
  893MOL0     H17846   3.350  -1.167  10.763  0.7482 -0.6755 -0.4058
  893MOL0     H17847   3.233  -1.257  10.666 -0.2358 -0.3552  0.5263
  893MOL0     H17848   3.146  -1.182  10.909 -0.1591  0.5088  0.6738
  893MOL0     H17849   3.183  -1.029  10.859  1.0787 -1.1401  2.3997
  893MOL0     H17850   2.978  -1.201  10.700 -1.5978  2.3987 -0.4304
  893MOL0     H17851   2.980  -1.039  10.694  0.8214  0.4213 -0.0682
  893MOL0     H17852   2.891  -1.006  10.920  0.0832 -0.5858 -0.4493
  893MOL0     H17853   2.895  -1.184  10.956  0.2658  0.8710  1.2134
  893MOL0     H17854   2.737  -1.035  10.735  1.0499  0.6447  0.2667
  893MOL0     H17855   2.741  -1.216  10.759  2.3074 -1.4679  2.0877
  893MOL0     H17856   2.633  -0.989  10.922 -0.7567  0.0147 -0.2021
  893MOL0     H17857   2.667  -1.135  11.007  0.8019  0.8849  0.3331
  893MOL0     H17858   3.739  -0.889  10.575 -0.6278 -0.5204  0.4509
  893MOL0     H17859   3.888  -0.815  10.381  2.7251 -2.7602  2.7944
  893MOL0     H17860   4.229  -1.090  10.087 -0.7983  1.1501  1.3208
  893MOL0     H17861   4.409  -0.990   9.959  1.5651  2.4827  0.5129
  893MOL0     H17862   4.825   0.011  10.450 -0.6861  0.5595  0.2197
  893MOL0     H17863   4.573   0.056  10.457 -0.4988  1.9519 -3.0944
  893MOL0     H17864   4.199   0.004  10.037  0.4884  0.2174  0.5411
  893MOL0     H17865   3.956  -0.015  10.013  0.9310  1.3354  0.3468
  893MOL0     H17866   3.762  -0.143  10.004 -3.3217 -0.9798 -0.5033
  893MOL0     H17867   3.716   0.018  10.065  0.6682  0.5444  0.8637
  893MOL0     H17868   3.578  -0.223  10.183  0.3056 -0.3957 -0.2189
  893MOL0     H17869   3.523  -0.053  10.162  0.3893  0.3024 -0.1431
  893MOL0     H17870   3.546  -0.263   9.942 -0.9756 -0.2482  0.2326
  893MOL0     H17871   3.511  -0.098   9.904 -1.9156  1.8886  1.1529
  893MOL0     H17872   3.310  -0.118  10.079 -1.8070 -2.0415  1.0967
  893MOL0     H17873   3.297  -0.201   9.930  1.0012  1.8624 -0.3261
  893MOL0     H17874   3.287  -0.497  10.246  0.9221 -0.5065 -0.7208
  893MOL0     H17875   3.919  -0.172  10.392 -0.2676 -1.9549 -1.7014
  893MOL0     H17876   4.170  -0.142  10.446 -1.8246 -1.9771 -0.2211
  894MOL0     O17877  10.959   8.771   4.973 -0.7096 -0.5163 -0.0339
  894MOL0     C17878  11.042   8.861   4.975 -0.8664 -0.0510  0.4445
  894MOL0     O17879  11.026   8.989   4.920 -0.4945  0.1472 -0.2545
  894MOL0     C17880  10.900   9.026   4.878  0.3287 -0.9131 -0.6305
  894MOL0     C17881  10.824   9.119   4.941  0.2303 -0.2505 -0.1471
  894MOL0     C17882  10.704   9.168   4.893  0.1568 -0.1447  0.1550
  894MOL0     C17883  10.652   9.123   4.770 -1.1257  0.1076 -0.3626
  894MOL0     O17884  10.537   9.152   4.707  0.2145 -0.6526 -0.1325
  894MOL0     C17885  10.453   9.252   4.761  0.2567  0.0846 -0.1359
  894MOL0     C17886  10.345   9.304   4.656 -0.3246 -0.0466 -0.4662
  894MOL0     C17887  10.232   9.386   4.725  0.1141 -0.0563  0.5374
  894MOL0     C17888  10.142   9.439   4.607 -0.6563 -0.0287 -0.9325
  894MOL0     C17889  10.054   9.546   4.660 -0.0672 -0.2014 -0.1882
  894MOL0     C17890   9.938   9.561   4.568 -0.8970  0.9946 -0.1859
  894MOL0     C17891   9.833   9.644   4.635 -0.5123 -0.0695 -0.3881
  894MOL0     C17892   9.696   9.644   4.571  0.4463  0.6476 -0.5186
  894MOL0     N17893   9.607   9.727   4.645  0.0284 -0.1614 -0.8061
  894MOL0     C17894   9.561   9.720   4.770 -0.3320 -0.0433  0.3587
  894MOL0     C17895   9.453   9.793   4.776  0.0127  0.1687  0.6850
  894MOL0     C17896   9.361   9.801   4.888  0.2141  0.3446 -1.0138
  894MOL0     C17897   9.239   9.722   4.848  0.4493  0.3767  0.2816
  894MOL0     C17898   9.271   9.570   4.820 -0.1435 -0.8884  0.4933
  894MOL0     C17899   9.141   9.489   4.800 -0.8441  0.1416 -0.0469
  894MOL0     O17900   9.068   9.498   4.914 -0.2814  0.4638  0.3815
  894MOL0     C17901   8.949   9.438   4.938 -0.2756  1.0959 -0.3206
  894MOL0     C17902   8.890   9.352   4.846  0.8644 -0.0713  0.4776
  894MOL0     C17903   8.777   9.278   4.859  0.0334 -0.0620  0.1847
  894MOL0     C17904   8.699   9.301   4.976  0.3438  0.5377 -0.2115
  894MOL0     C17905   8.571   9.232   5.007  0.2076 -0.8297 -1.2536
  894MOL0     O17906   8.512   9.243   5.138 -0.7791 -0.0259  0.5778
  894MOL0     C17907   8.386   9.206   5.161  0.1413  0.4042  0.6354
  894MOL0     C17908   8.340   9.174   5.291 -0.1944  0.3983  0.0992
  894MOL0     C17909   8.205   9.164   5.312 -0.0369 -0.4534  0.3837
  894MOL0     C17910   8.114   9.186   5.208 -0.3434 -0.4213 -0.4945
  894MOL0     O17911   7.976   9.185   5.232 -0.3737 -0.0115  1.3858
  894MOL0     C17912   7.937   9.055   5.280  1.3002  0.6139 -0.0319
  894MOL0     C17913   7.789   9.056   5.330 -0.5195 -0.3097  0.1818
  894MOL0     C17914   7.739   8.922   5.392 -0.5589  0.1803  0.9714
  894MOL0     C17915   7.738   8.790   5.309  0.1971  0.9749  1.1790
  894MOL0     C17916   7.612   8.709   5.357  0.5029 -0.4898 -0.5522
  894MOL0     C17917   7.607   8.659   5.503 -1.0199  0.3440 -0.9559
  894MOL0     C17918   7.478   8.587   5.536  0.8450 -0.3116  0.2689
  894MOL0     C17919   7.480   8.436   5.522  0.0189 -1.5061  0.3705
  894MOL0    Cl17920   7.339   8.381   5.596 -0.3126  0.0579  0.0948
  894MOL0     C17921   8.156   9.200   5.085 -0.3476 -0.5403 -0.1022
  894MOL0     C17922   8.296   9.215   5.058  0.9510  1.1572  0.5859
  894MOL0     O17923   8.532   9.166   4.918  0.0910 -0.2470  0.0119
  894MOL0     C17924   8.757   9.387   5.074 -0.1869 -0.5713  0.3176
  894MOL0     C17925   8.871   9.461   5.054 -0.2636  0.5557 -0.4416
  894MOL0     N17926   9.424   9.849   4.655 -1.1260 -0.3229 -0.9158
  894MOL0     N17927   9.515   9.804   4.573  0.1324 -0.7371 -0.1772
  894MOL0     C17928  10.737   9.025   4.703 -0.6667 -0.9178 -0.0911
  894MOL0     C17929  10.856   8.984   4.760 -0.5511  0.1280 -0.1991
  894MOL0     C17930  11.178   8.817   5.010 -0.0995  0.0066 -1.3560
  894MOL0     C17931  11.202   8.685   5.063 -0.4174 -0.2925  1.0137
  894MOL0     C17932  11.334   8.653   5.116 -0.9152  1.0347 -0.3336
  894MOL0     C17933  11.443   8.730   5.110  0.2403 -0.4150 -0.0215
  894MOL0     O17934  11.563   8.707   5.167 -0.1212  0.8183 -0.3456
  894MOL0     C17935  11.594   8.581   5.229  0.1783  0.0278 -0.2426
  894MOL0     C17936  11.753   8.568   5.234 -0.4228  0.7186 -0.2357
  894MOL0     C17937  11.809   8.534   5.093 -0.0561 -0.3246  0.7478
  894MOL0     C17938  11.959   8.530   5.097  0.2701 -1.3265  0.8819
  894MOL0     C17939  12.023   8.527   4.963  0.5547  0.1522  0.8854
  894MOL0     C17940  12.073   8.545   4.850  0.2998  1.0801 -0.0441
  894MOL0     C17941  11.419   8.858   5.041 -0.6977  0.6073 -0.1261
  894MOL0     C17942  11.289   8.896   5.000 -0.1082 -0.2158  0.1831
  894MOL0     H17943  10.859   9.154   5.037 -0.8018  0.9790 -0.1891
  894MOL0     H17944  10.659   9.251   4.946  3.2735  1.3080  0.7475
  894MOL0     H17945  10.498   9.338   4.811 -0.6377  0.0437  0.7638
  894MOL0     H17946  10.389   9.206   4.836 -2.9268  2.2460 -1.2797
  894MOL0     H17947  10.311   9.213   4.605  0.9075 -2.2578  2.3595
  894MOL0     H17948  10.393   9.363   4.577 -0.5769  0.3651 -0.3107
  894MOL0     H17949  10.273   9.476   4.773 -4.0067  3.5416 -1.8828
  894MOL0     H17950  10.178   9.319   4.792  0.6555 -1.2538 -0.2026
  894MOL0     H17951  10.209   9.475   4.528  1.9644  2.9186  2.2931
  894MOL0     H17952  10.089   9.359   4.554 -0.4845 -0.3857 -0.5804
  894MOL0     H17953  10.109   9.641   4.665  0.5894 -0.1220 -4.8136
  894MOL0     H17954  10.023   9.517   4.761  0.4307 -1.6919 -0.4330
  894MOL0     H17955   9.891   9.466   4.540 -2.3493  2.0601 -1.5855
  894MOL0     H17956   9.968   9.608   4.474  0.1162  1.0970  0.1847
  894MOL0     H17957   9.834   9.631   4.744 -0.6386 -1.2756 -0.5150
  894MOL0     H17958   9.876   9.743   4.619  1.3818 -0.7968 -0.0347
  894MOL0     H17959   9.655   9.543   4.565 -0.7273  1.1437 -1.1906
  894MOL0     H17960   9.706   9.685   4.470 -1.1050  1.5819 -0.3277
  894MOL0     H17961   9.600   9.657   4.850 -1.0470 -0.5868  0.2898
  894MOL0     H17962   9.342   9.906   4.910  1.8082  0.4161  0.1812
  894MOL0     H17963   9.397   9.755   4.980 -0.3728 -1.8578 -1.8052
  894MOL0     H17964   9.172   9.764   4.773  0.4883 -1.7910 -1.0741
  894MOL0     H17965   9.175   9.716   4.937 -0.8476 -1.8124 -0.7188
  894MOL0     H17966   9.333   9.554   4.732 -2.1131  1.1388 -1.3886
  894MOL0     H17967   9.318   9.516   4.903 -1.5346 -2.2736  0.4504
  894MOL0     H17968   9.153   9.386   4.768 -1.3118  0.8388 -2.7022
  894MOL0     H17969   9.078   9.537   4.724  2.3709  1.3628 -2.1337
  894MOL0     H17970   8.948   9.342   4.755  2.3057  0.1356  1.3337
  894MOL0     H17971   8.750   9.213   4.777 -0.5730  0.7018 -0.2185
  894MOL0     H17972   8.422   9.161   5.361 -1.3945  0.3982  1.5340
  894MOL0     H17973   8.172   9.136   5.412 -2.3022  0.8237  0.0662
  894MOL0     H17974   8.001   9.026   5.364  1.1562  0.7582  0.1304
  894MOL0     H17975   7.959   8.983   5.202  5.4876  0.7406  0.8073
  894MOL0     H17976   7.727   9.096   5.249  0.9935  0.3790 -0.6791
  894MOL0     H17977   7.783   9.124   5.416  2.0359 -0.4965  0.6058
  894MOL0     H17978   7.637   8.957   5.406  0.1902  2.6540  0.7324
  894MOL0     H17979   7.783   8.901   5.490  1.0053 -1.1932  0.0397
  894MOL0     H17980   7.730   8.799   5.201 -0.1033  1.5449  1.2477
  894MOL0     H17981   7.828   8.730   5.328  1.7268  2.9884  0.5801
  894MOL0     H17982   7.607   8.617   5.299 -2.4396 -0.3699 -0.6301
  894MOL0     H17983   7.521   8.768   5.340  0.7135 -0.0560 -0.2273
  894MOL0     H17984   7.632   8.740   5.572 -1.6187 -0.3954  0.1563
  894MOL0     H17985   7.694   8.596   5.526 -1.2580  0.5317  0.5886
  894MOL0     H17986   7.456   8.609   5.641  1.3255 -0.2746  0.3655
  894MOL0     H17987   7.397   8.632   5.478  1.3282  0.9404  0.5368
  894MOL0     H17988   7.567   8.392   5.572  0.1096 -1.3655  0.3361
  894MOL0     H17989   7.482   8.394   5.421 -1.2907 -2.7590  0.8229
  894MOL0     H17990   8.078   9.208   5.010 -0.9603 -0.8174  0.4897
  894MOL0     H17991   8.322   9.248   4.958  1.1607 -1.0525 -0.1466
  894MOL0     H17992   8.711   9.410   5.169  1.5265  2.2313  0.5797
  894MOL0     H17993   8.914   9.527   5.128 -1.4735  1.0141 -0.1290
  894MOL0     H17994  10.712   8.981   4.607  0.5307 -2.0586  0.0832
  894MOL0     H17995  10.919   8.917   4.702  0.8033  0.6036  0.6779
  894MOL0     H17996  11.118   8.618   5.078 -2.7227  2.6129  2.1086
  894MOL0     H17997  11.344   8.554   5.159 -0.1902  0.4597 -1.7520
  894MOL0     H17998  11.543   8.502   5.173 -1.7637  0.2274  1.1213
  894MOL0     H17999  11.549   8.569   5.328  2.4318 -1.4374  0.6695
  894MOL0     H18000  11.795   8.658   5.278 -0.3307  0.5075  0.1129
  894MOL0     H18001  11.780   8.492   5.309  2.0952  1.0789 -0.6707
  894MOL0     H18002  11.767   8.608   5.023 -1.2881 -1.5452  0.1483
  894MOL0     H18003  11.780   8.435   5.058  2.3224 -1.2676  1.2978
  894MOL0     H18004  11.990   8.627   5.137 -0.2816  0.1681 -2.0135
  894MOL0     H18005  11.994   8.446   5.157  0.4082 -1.3940  0.7075
  894MOL0     H18006  12.123   8.583   4.763 -0.4500  0.8764 -0.5763
  894MOL0     H18007  11.496   8.934   5.030 -0.1584 -0.1591 -2.1093
  894MOL0     H18008  11.294   9.002   4.975  0.8437 -0.3719 -0.3506
  895MOL0     O18009   5.135   8.506  10.281  0.6621  0.1952  1.3733
  895MOL0     C18010   5.106   8.613  10.234  0.1434 -0.4699  0.6588
  895MOL0     O18011   4.976   8.661  10.219  0.4181  0.2776 -0.2648
  895MOL0     C18012   4.871   8.576  10.234  0.3507 -0.1260  0.9339
  895MOL0     C18013   4.881   8.440  10.195 -0.5544  0.1374  0.1479
  895MOL0     C18014   4.764   8.363  10.187 -0.0172  0.8115  0.0662
  895MOL0     C18015   4.637   8.422  10.208 -0.1255 -0.1846  0.4548
  895MOL0     O18016   4.513   8.355  10.198  0.1850  0.4448 -0.4816
  895MOL0     C18017   4.510   8.210  10.169 -0.3822 -0.4210  0.2601
  895MOL0     C18018   4.371   8.171  10.126 -0.8705 -0.6567 -0.7642
  895MOL0     C18019   4.273   8.172  10.235  1.0474  0.7603  0.0847
  895MOL0     C18020   4.141   8.110  10.189  0.7211  0.5965  0.2215
  895MOL0     C18021   4.074   8.176  10.067 -1.5457 -0.0340  0.2906
  895MOL0     C18022   3.928   8.124  10.052  0.3140 -0.0938  0.1499
  895MOL0     C18023   3.867   8.157   9.915 -0.1662  0.6985  0.7459
  895MOL0     C18024   3.717   8.113   9.900 -0.3352  0.1356 -0.0657
  895MOL0     N18025   3.649   8.155   9.776  0.4358 -0.2598 -0.1947
  895MOL0     C18026   3.703   8.241   9.679 -0.0979  0.3331 -0.0775
  895MOL0     C18027   3.602   8.248   9.585 -1.1093  0.0315  0.2300
  895MOL0     C18028   3.607   8.348   9.467 -1.2574  1.2005 -0.3435
  895MOL0     C18029   3.472   8.331   9.398 -0.0544 -0.0004 -0.0631
  895MOL0     C18030   3.471   8.193   9.312 -0.0448  0.7109  0.0776
  895MOL0     C18031   3.327   8.162   9.256 -0.0952 -0.2753 -1.6649
  895MOL0     O18032   3.290   8.259   9.157  0.2341 -0.2357 -0.1001
  895MOL0     C18033   3.156   8.279   9.149 -0.7774  0.0341 -0.2550
  895MOL0     C18034   3.071   8.181   9.111  0.3045  0.3702 -0.1655
  895MOL0     C18035   2.933   8.195   9.108  0.5325  0.5453 -0.1339
  895MOL0     C18036   2.877   8.318   9.140  0.4141 -0.6476  0.1481
  895MOL0     C18037   2.728   8.343   9.156  0.1334  0.2649 -0.0356
  895MOL0     O18038   2.658   8.229   9.173 -0.1280 -0.1491 -0.3238
  895MOL0     C18039   2.526   8.227   9.210 -0.9617  0.3959 -0.3592
  895MOL0     C18040   2.483   8.128   9.296  0.6105  0.2538  0.3105
  895MOL0     C18041   2.343   8.120   9.321 -0.0004  0.1342 -0.0233
  895MOL0     C18042   2.254   8.218   9.274 -0.1914  0.7833  0.0044
  895MOL0     O18043   2.118   8.204   9.322 -0.3867  0.1513 -0.9085
  895MOL0     C18044   2.010   8.226   9.242 -0.7794  0.3576  1.1116
  895MOL0     C18045   1.973   8.096   9.160 -0.2820 -0.9321  0.4812
  895MOL0     C18046   1.914   7.976   9.239 -0.1338 -0.4687 -1.2596
  895MOL0     C18047   1.894   7.848   9.158  0.1944 -0.1677 -0.1825
  895MOL0     C18048   1.823   7.736   9.231 -0.0231  0.6928  0.6497
  895MOL0     C18049   1.791   7.619   9.143 -0.7145 -0.5721  0.3341
  895MOL0     C18050   1.697   7.523   9.216 -0.6156 -0.0920 -0.2244
  895MOL0     C18051   1.551   7.512   9.159  0.3215 -0.3344  0.0368
  895MOL0    Cl18052   1.464   7.664   9.147 -0.0227  0.2700 -0.1723
  895MOL0     C18053   2.305   8.299   9.174 -0.2059 -0.3678 -0.4556
  895MOL0     C18054   2.429   8.302   9.135 -0.2351  0.5042 -1.0587
  895MOL0     O18055   2.685   8.457   9.167  0.4168  1.0143  0.0914
  895MOL0     C18056   2.969   8.430   9.162  0.7215  0.9349 -1.1941
  895MOL0     C18057   3.107   8.406   9.166  0.0438 -0.8045  0.3812
  895MOL0     N18058   3.506   8.155   9.631  0.7076  0.1422  0.7556
  895MOL0     N18059   3.529   8.095   9.738 -0.7991 -0.2008  0.3273
  895MOL0     C18060   4.633   8.550  10.236 -0.5939  0.2772 -0.0602
  895MOL0     C18061   4.747   8.630  10.250 -1.0061  0.3124  0.5803
  895MOL0     C18062   5.214   8.715  10.201  0.6308 -0.6903 -0.1770
  895MOL0     C18063   5.177   8.844  10.143  0.1482 -0.0592 -0.0864
  895MOL0     C18064   5.277   8.939  10.107  0.0317  0.0580 -0.4398
  895MOL0     C18065   5.416   8.913  10.140  0.4302 -0.1886  0.7343
  895MOL0     O18066   5.513   9.007  10.121 -0.1034  0.1434  0.6654
  895MOL0     C18067   5.647   8.964  10.124 -0.5372  0.2789  0.7473
  895MOL0     C18068   5.746   9.081  10.092  0.1063 -0.4190 -0.0752
  895MOL0     C18069   5.719   9.211  10.158  0.0116  0.6719 -0.3926
  895MOL0     C18070   5.824   9.318  10.114 -0.7842 -0.5942 -0.0478
  895MOL0     C18071   5.811   9.356   9.968 -0.5690 -0.0968 -0.1317
  895MOL0     C18072   5.795   9.378   9.852  0.2707 -0.4190  0.1403
  895MOL0     C18073   5.442   8.790  10.206 -0.5063  0.1932  1.0012
  895MOL0     C18074   5.345   8.704  10.239 -0.1999  0.2836  0.7115
  895MOL0     H18075   4.973   8.392  10.165 -0.6849 -0.1856  0.2480
  895MOL0     H18076   4.765   8.256  10.166 -2.7229  0.5683  0.8039
  895MOL0     H18077   4.542   8.154  10.256  2.2810 -0.8653 -0.9291
  895MOL0     H18078   4.572   8.198  10.080 -3.0224  2.6253 -2.2676
  895MOL0     H18079   4.384   8.073  10.079  4.2635  0.2496 -1.8692
  895MOL0     H18080   4.343   8.249  10.055 -0.3222  0.3291  0.0795
  895MOL0     H18081   4.254   8.274  10.271  2.9231  1.2343 -0.1473
  895MOL0     H18082   4.317   8.122  10.322  0.4808  2.1800  1.2405
  895MOL0     H18083   4.163   8.006  10.163  0.1839  0.1097  1.6387
  895MOL0     H18084   4.073   8.102  10.274 -0.3891  1.3492 -0.5667
  895MOL0     H18085   4.130   8.150   9.977  1.2284  1.4471  1.4619
  895MOL0     H18086   4.070   8.285  10.068  0.8750  0.1546 -1.4386
  895MOL0     H18087   3.860   8.158  10.131  0.4378 -0.4735  0.4242
  895MOL0     H18088   3.939   8.015  10.059  2.4901  0.1625  1.7881
  895MOL0     H18089   3.875   8.266   9.908 -0.2921  0.9178  3.2588
  895MOL0     H18090   3.924   8.114   9.832 -1.3797  1.2809 -0.4297
  895MOL0     H18091   3.663   8.149   9.988 -0.7578 -1.1563  0.2237
  895MOL0     H18092   3.707   8.005   9.915 -0.0829  0.1486  0.1823
  895MOL0     H18093   3.793   8.301   9.688 -1.2081  1.7669  4.2548
  895MOL0     H18094   3.692   8.316   9.406 -0.6655 -0.3783  1.2273
  895MOL0     H18095   3.628   8.452   9.494  1.0037  1.0837 -1.4128
  895MOL0     H18096   3.458   8.418   9.332  1.3382  0.1297 -0.2115
  895MOL0     H18097   3.394   8.330   9.475  0.4515  1.1380  0.4995
  895MOL0     H18098   3.540   8.204   9.227 -2.0492  1.9548 -1.4932
  895MOL0     H18099   3.509   8.109   9.371  3.3015  0.7420 -1.7746
  895MOL0     H18100   3.255   8.160   9.338  2.4061 -1.7104  0.6945
  895MOL0     H18101   3.322   8.065   9.205 -1.0079 -1.1295 -0.0149
  895MOL0     H18102   3.111   8.082   9.093 -1.2554 -0.5481  1.0893
  895MOL0     H18103   2.875   8.107   9.085 -0.6940  0.9892  1.1230
  895MOL0     H18104   2.543   8.058   9.354 -2.1655  0.4767  3.8043
  895MOL0     H18105   2.311   8.049   9.397  2.0396  0.5823  1.3554
  895MOL0     H18106   2.033   8.311   9.177  0.4362  1.3216  2.6936
  895MOL0     H18107   1.925   8.259   9.301 -2.4859 -1.1818 -0.3750
  895MOL0     H18108   2.061   8.057   9.107  1.0209 -0.3097  2.0977
  895MOL0     H18109   1.899   8.136   9.090  0.8486  1.8595  0.7598
  895MOL0     H18110   1.819   8.006   9.284  1.0179 -0.2252  1.1842
  895MOL0     H18111   1.982   7.941   9.317  0.2997 -0.0955 -1.4597
  895MOL0     H18112   1.828   7.869   9.073 -1.2427  0.5749  1.0776
  895MOL0     H18113   1.992   7.824   9.116  0.3654  1.0198 -0.5005
  895MOL0     H18114   1.728   7.773   9.269 -1.1163 -2.4407  1.2645
  895MOL0     H18115   1.892   7.698   9.308 -1.2953 -2.4988  0.3440
  895MOL0     H18116   1.885   7.564   9.132 -0.9203 -1.0432  0.8660
  895MOL0     H18117   1.758   7.648   9.043  0.7919  1.9311  0.4762
  895MOL0     H18118   1.741   7.424   9.201  1.5995  0.8739 -0.4290
  895MOL0     H18119   1.690   7.546   9.323 -0.6619 -1.4259  0.0688
  895MOL0     H18120   1.492   7.445   9.222  1.6189 -0.9308  0.6638
  895MOL0     H18121   1.564   7.472   9.058  1.5685 -0.3932  0.2070
  895MOL0     H18122   2.240   8.360   9.113 -0.4155 -0.1056  0.0315
  895MOL0     H18123   2.461   8.366   9.054  0.7295  2.8865  1.0472
  895MOL0     H18124   2.926   8.523   9.197 -0.7392 -0.2979  0.4799
  895MOL0     H18125   3.167   8.495   9.183 -0.5682 -0.1734 -0.6246
  895MOL0     H18126   4.546   8.614  10.251 -2.0037 -1.4846 -0.4101
  895MOL0     H18127   4.743   8.738  10.255  0.6891  0.8671 -4.2394
  895MOL0     H18128   5.073   8.870  10.123  0.3791 -0.4733 -1.9789
  895MOL0     H18129   5.259   9.036  10.061  2.7565  0.9657  0.2595
  895MOL0     H18130   5.674   8.884  10.054 -0.2841  1.1722 -0.2078
  895MOL0     H18131   5.668   8.939  10.228  4.0980  1.7859  0.4111
  895MOL0     H18132   5.847   9.053  10.124  0.6502 -2.5738 -3.2002
  895MOL0     H18133   5.756   9.094   9.984  3.9431  2.1678  0.3876
  895MOL0     H18134   5.737   9.191  10.264 -0.6345  0.1173 -0.3811
  895MOL0     H18135   5.618   9.252  10.148 -0.6133  0.3439  3.0852
  895MOL0     H18136   5.817   9.413  10.168  0.0435 -1.1621  1.1062
  895MOL0     H18137   5.919   9.269  10.136 -1.5726 -2.4527 -0.5924
  895MOL0     H18138   5.789   9.418   9.753  1.4280 -0.1951  0.1485
  895MOL0     H18139   5.540   8.767  10.246 -0.4080 -1.3670 -0.0332
  895MOL0     H18140   5.371   8.612  10.290  1.0097  0.3589  0.2638
  896MOL0     O18141   3.990   4.426   8.683 -0.1952 -0.0678  0.0498
  896MOL0     C18142   4.115   4.432   8.647 -0.4353  1.1135  0.0276
  896MOL0     O18143   4.178   4.333   8.580  0.2768 -1.1481  0.5891
  896MOL0     C18144   4.106   4.224   8.518 -0.4386 -0.7737 -0.3789
  896MOL0     C18145   3.984   4.249   8.453 -0.8473 -0.2021  0.0372
  896MOL0     C18146   3.930   4.154   8.370  0.2179  0.3716  0.1233
  896MOL0     C18147   3.983   4.025   8.356  0.1243 -0.2856 -1.1959
  896MOL0     O18148   3.908   3.938   8.284  0.6222  0.5178 -0.0225
  896MOL0     C18149   3.976   3.810   8.256  0.5442 -0.2384  0.2396
  896MOL0     C18150   3.877   3.725   8.178 -1.2362 -0.0237 -0.2318
  896MOL0     C18151   3.914   3.572   8.166  1.3946 -0.5764  0.0481
  896MOL0     C18152   3.870   3.511   8.035  0.2077 -0.7956 -0.1868
  896MOL0     C18153   3.899   3.365   8.018 -0.5998  0.3416 -0.2152
  896MOL0     C18154   3.818   3.262   8.115  0.1056 -0.1851 -0.5385
  896MOL0     C18155   3.871   3.121   8.112  0.2192 -0.4745 -0.0147
  896MOL0     C18156   3.862   3.070   7.971  0.6578  0.4347 -0.0372
  896MOL0     N18157   3.829   2.921   7.966 -0.5095  0.2027 -0.1381
  896MOL0     C18158   3.905   2.824   8.022  0.2964 -0.1437  0.2645
  896MOL0     C18159   3.826   2.715   8.010  1.0291 -0.5422 -0.3136
  896MOL0     C18160   3.852   2.599   8.111  0.1195  0.0273 -0.5401
  896MOL0     C18161   3.765   2.472   8.094 -0.1917  0.2147 -0.4824
  896MOL0     C18162   3.767   2.381   8.212  0.7552  0.3307 -0.5604
  896MOL0     C18163   3.903   2.328   8.233  0.2006  0.1127  0.4564
  896MOL0     O18164   3.987   2.417   8.314 -0.0252 -0.3900 -0.3614
  896MOL0     C18165   4.124   2.426   8.292 -0.4113 -0.2601  0.8109
  896MOL0     C18166   4.201   2.332   8.207 -0.2556 -0.2634 -0.4457
  896MOL0     C18167   4.335   2.350   8.200 -0.4375  0.6873 -0.3596
  896MOL0     C18168   4.400   2.459   8.259 -0.0499 -1.4294  0.1492
  896MOL0     C18169   4.556   2.475   8.268  0.3061  1.0478  0.5603
  896MOL0     O18170   4.610   2.595   8.309  0.3755 -0.8849  0.5590
  896MOL0     C18171   4.745   2.604   8.325  0.3149 -0.0856  0.3118
  896MOL0     C18172   4.782   2.670   8.443 -0.0672  0.4756 -0.1876
  896MOL0     C18173   4.923   2.687   8.474 -0.4910  0.8330  0.4036
  896MOL0     C18174   5.026   2.623   8.392  0.6128 -0.6980  0.2249
  896MOL0     O18175   5.153   2.642   8.437 -0.0840  0.7347  0.4815
  896MOL0     C18176   5.258   2.536   8.428 -1.1258 -0.1286  0.8227
  896MOL0     C18177   5.376   2.600   8.366  0.5009  0.3912 -0.3036
  896MOL0     C18178   5.441   2.690   8.469 -0.6098 -0.0827  0.7510
  896MOL0     C18179   5.576   2.764   8.425 -0.0360  0.6531 -0.2583
  896MOL0     C18180   5.614   2.881   8.519  0.2134  0.8592  0.2075
  896MOL0     C18181   5.637   2.839   8.664 -0.1132  0.5120 -1.1002
  896MOL0     C18182   5.694   2.955   8.752 -0.2928 -0.8416 -0.3190
  896MOL0     C18183   5.846   2.962   8.752  0.3497 -1.0648  0.1437
  896MOL0    Cl18184   5.914   3.089   8.845 -0.0179  0.3217  0.4096
  896MOL0     C18185   4.978   2.563   8.273 -0.2265 -1.4955  0.4516
  896MOL0     C18186   4.843   2.565   8.237  0.0230 -0.5936 -0.0077
  896MOL0     O18187   4.616   2.368   8.257 -0.2106  0.4453  0.2391
  896MOL0     C18188   4.318   2.554   8.310  0.4334  0.6379  0.1888
  896MOL0     C18189   4.184   2.536   8.339  0.0001 -0.0922 -0.3482
  896MOL0     N18190   3.726   2.747   7.916 -0.5660 -0.1099 -0.1958
  896MOL0     N18191   3.733   2.869   7.899  1.1873  0.4626 -0.6481
  896MOL0     C18192   4.096   3.998   8.429 -0.4346 -0.7896 -0.1545
  896MOL0     C18193   4.162   4.091   8.504  0.1757 -1.2670 -0.0283
  896MOL0     C18194   4.199   4.550   8.666 -0.2111 -0.5045 -0.0984
  896MOL0     C18195   4.341   4.549   8.649 -0.5168 -0.1912  0.0414
  896MOL0     C18196   4.429   4.659   8.679 -0.1552  0.7341  0.9836
  896MOL0     C18197   4.378   4.774   8.739  0.9965 -0.3629 -0.0630
  896MOL0     O18198   4.459   4.880   8.782 -0.5204  0.0817  0.0369
  896MOL0     C18199   4.536   4.938   8.677 -0.0719  0.2602  0.0268
  896MOL0     C18200   4.633   5.051   8.730  1.5366  0.1503  0.4539
  896MOL0     C18201   4.722   5.108   8.613 -0.3309  0.3374 -0.2888
  896MOL0     C18202   4.646   5.203   8.527  0.0674  0.5895 -0.2276
  896MOL0     C18203   4.724   5.219   8.406  0.0886 -0.2588  0.2612
  896MOL0     C18204   4.775   5.245   8.298 -0.2024 -0.3512  0.6011
  896MOL0     C18205   4.242   4.787   8.736 -0.1348  0.6361 -0.8877
  896MOL0     C18206   4.150   4.679   8.708 -0.0341 -0.9827  0.1701
  896MOL0     H18207   3.931   4.344   8.455 -0.4436  0.0269  2.0602
  896MOL0     H18208   3.839   4.177   8.316  0.8522 -1.1899 -1.7329
  896MOL0     H18209   3.994   3.767   8.355 -0.5591 -0.0915  0.5184
  896MOL0     H18210   4.076   3.819   8.213  1.1638 -0.5506  1.5708
  896MOL0     H18211   3.890   3.774   8.081 -1.5780  2.1468  0.7646
  896MOL0     H18212   3.779   3.749   8.219 -0.4860 -1.6101  2.7581
  896MOL0     H18213   3.865   3.510   8.242  0.8573 -2.8599 -2.0377
  896MOL0     H18214   4.022   3.558   8.175  1.7040  1.3128 -0.3334
  896MOL0     H18215   3.765   3.533   8.018  0.3503  0.9318  0.9186
  896MOL0     H18216   3.917   3.566   7.953 -1.1955  1.6409  0.5437
  896MOL0     H18217   4.006   3.370   8.044 -0.4520  2.3198 -1.0195
  896MOL0     H18218   3.893   3.344   7.911 -0.2772 -5.5811  0.5893
  896MOL0     H18219   3.712   3.266   8.089 -0.7872  1.0941  2.8170
  896MOL0     H18220   3.826   3.303   8.216  3.9648 -1.2539 -0.2408
  896MOL0     H18221   3.976   3.123   8.140  1.3318  2.6688 -3.4540
  896MOL0     H18222   3.812   3.065   8.185 -2.4288  5.1827  2.8667
  896MOL0     H18223   3.959   3.095   7.928 -0.1322  0.9431 -1.5651
  896MOL0     H18224   3.788   3.126   7.913 -1.1894 -0.6825  1.0977
  896MOL0     H18225   3.992   2.833   8.085 -1.2435  1.1320  2.3405
  896MOL0     H18226   3.832   2.636   8.212 -2.4237  2.5183 -1.7839
  896MOL0     H18227   3.955   2.564   8.107 -0.3801 -1.7231  0.7463
  896MOL0     H18228   3.797   2.409   8.011  2.6390  0.8765  0.0201
  896MOL0     H18229   3.661   2.505   8.083  0.1861  3.2711  2.9342
  896MOL0     H18230   3.717   2.422   8.300 -0.0303 -1.9331  0.0921
  896MOL0     H18231   3.713   2.291   8.181 -1.4876  1.0373  1.0362
  896MOL0     H18232   3.947   2.308   8.135 -0.5411 -0.3334  0.2059
  896MOL0     H18233   3.904   2.232   8.286 -0.0332 -0.4598 -0.5392
  896MOL0     H18234   4.158   2.241   8.166  0.2738 -0.8891  0.3599
  896MOL0     H18235   4.396   2.279   8.145  1.3415  1.4712  0.5390
  896MOL0     H18236   4.721   2.708   8.524  0.6089  2.5122 -0.5706
  896MOL0     H18237   4.950   2.733   8.568  0.0317 -1.0287  1.2142
  896MOL0     H18238   5.236   2.455   8.357  1.3281  0.9746 -1.4152
  896MOL0     H18239   5.281   2.492   8.525 -1.4609 -0.5868  0.6966
  896MOL0     H18240   5.356   2.652   8.273 -0.3471  1.6670  0.5634
  896MOL0     H18241   5.452   2.523   8.346  1.8351  0.6039  3.1977
  896MOL0     H18242   5.463   2.634   8.561 -4.2132 -0.6157  1.4330
  896MOL0     H18243   5.367   2.767   8.491 -0.9442 -0.9332  2.8527
  896MOL0     H18244   5.666   2.702   8.413 -1.1976 -1.4045  0.9682
  896MOL0     H18245   5.559   2.803   8.324 -0.0307  0.4737 -0.3292
  896MOL0     H18246   5.546   2.966   8.523  2.5176  2.8040  3.8544
  896MOL0     H18247   5.702   2.930   8.475  0.0749  0.5399 -0.4280
  896MOL0     H18248   5.715   2.763   8.659 -0.0169  0.5010  0.2274
  896MOL0     H18249   5.545   2.801   8.709 -0.3945  1.8430 -0.5082
  896MOL0     H18250   5.659   3.049   8.709  0.2948  0.3909  1.7847
  896MOL0     H18251   5.657   2.948   8.855  0.5650  0.3861  0.0869
  896MOL0     H18252   5.869   2.968   8.645 -2.7498  0.1627 -0.5565
  896MOL0     H18253   5.885   2.866   8.788  1.2996 -0.4181  0.8919
  896MOL0     H18254   5.058   2.536   8.204  0.4573  1.1598  0.1116
  896MOL0     H18255   4.813   2.504   8.152 -0.7689 -0.9050  0.4860
  896MOL0     H18256   4.370   2.646   8.338 -1.5870  1.4911  1.3327
  896MOL0     H18257   4.131   2.618   8.387 -1.5764 -0.0336 -2.0617
  896MOL0     H18258   4.144   3.901   8.427  3.3307  0.8843  0.2605
  896MOL0     H18259   4.262   4.092   8.547  0.8600  0.8686 -1.5007
  896MOL0     H18260   4.380   4.457   8.609 -3.2293 -1.1161 -0.7109
  896MOL0     H18261   4.534   4.653   8.652 -0.6351 -0.8578 -0.6812
  896MOL0     H18262   4.468   4.987   8.606  0.3594  1.9308  0.7338
  896MOL0     H18263   4.593   4.860   8.627 -1.2374 -0.2049 -0.6312
  896MOL0     H18264   4.576   5.132   8.775 -1.7130  0.2498 -3.3522
  896MOL0     H18265   4.703   5.010   8.804 -0.1238 -1.1565  1.3643
  896MOL0     H18266   4.758   5.029   8.546 -0.9654 -3.5129  3.4567
  896MOL0     H18267   4.813   5.150   8.656  0.0506 -1.2766  0.5683
  896MOL0     H18268   4.552   5.150   8.508  0.2368 -0.0174  0.5442
  896MOL0     H18269   4.619   5.293   8.583 -0.6293  0.5127 -0.4326
  896MOL0     H18270   4.827   5.262   8.205  0.9936 -0.8284  1.1575
  896MOL0     H18271   4.196   4.879   8.768  0.8602  0.6066  0.7333
  896MOL0     H18272   4.045   4.700   8.729  0.2025  1.0505 -0.4950
  897MOL0     O18273   5.049   5.358   7.985  0.3574 -0.1972  0.9832
  897MOL0     C18274   5.030   5.390   7.867 -0.5583  0.0712 -0.0049
  897MOL0     O18275   4.964   5.318   7.782 -0.2849  0.1156 -1.1651
  897MOL0     C18276   4.886   5.208   7.806 -0.1805  0.1895 -0.2238
  897MOL0     C18277   4.892   5.100   7.720  0.3942  0.4830 -0.7798
  897MOL0     C18278   4.793   5.009   7.717  0.6415  0.7637  0.4975
  897MOL0     C18279   4.689   5.006   7.810  0.1377 -0.7490 -0.7611
  897MOL0     O18280   4.603   4.899   7.812  0.6568  0.0456  0.0343
  897MOL0     C18281   4.503   4.898   7.908  0.3376 -0.2076 -0.2294
  897MOL0     C18282   4.419   4.767   7.899  0.4348  0.8432  1.2991
  897MOL0     C18283   4.281   4.801   7.947  0.0797  0.4615  0.2651
  897MOL0     C18284   4.194   4.678   7.932  0.4790 -0.6713  0.1043
  897MOL0     C18285   4.059   4.706   7.998 -1.1539 -0.3952 -0.5442
  897MOL0     C18286   3.974   4.815   7.934 -1.1421  0.2836 -0.8688
  897MOL0     C18287   3.829   4.807   7.997  0.0126 -0.2114 -0.6707
  897MOL0     C18288   3.744   4.909   7.928  0.5497 -0.6705 -0.4805
  897MOL0     N18289   3.596   4.900   7.961 -0.0029 -0.7318 -0.8291
  897MOL0     C18290   3.500   4.837   7.882 -0.1643  0.0310  0.3443
  897MOL0     C18291   3.391   4.825   7.956  0.3242 -0.1934  0.3572
  897MOL0     C18292   3.270   4.748   7.908  0.2296 -0.1177 -0.4704
  897MOL0     C18293   3.156   4.746   8.005  0.6075 -0.0447  0.5578
  897MOL0     C18294   3.099   4.879   8.060  0.1147  0.4179 -0.0024
  897MOL0     C18295   2.956   4.872   8.103 -0.1083  0.3608  1.2937
  897MOL0     O18296   2.910   4.997   8.160 -0.7527  0.6015 -0.3467
  897MOL0     C18297   2.906   5.016   8.301 -1.1247 -0.1055  0.2234
  897MOL0     C18298   2.786   5.046   8.355  0.6505  0.2814  0.8447
  897MOL0     C18299   2.763   5.080   8.490 -0.4048  0.0827  0.5514
  897MOL0     C18300   2.875   5.093   8.568  0.3958  0.7527  0.2828
  897MOL0     C18301   2.849   5.151   8.702  0.7646  0.0108  0.1679
  897MOL0     O18302   2.723   5.140   8.750  0.3742  0.5870 -0.1146
  897MOL0     C18303   2.677   5.208   8.861  0.7260 -0.0914  0.7273
  897MOL0     C18304   2.700   5.350   8.869  0.4512 -0.3659  0.3627
  897MOL0     C18305   2.659   5.429   8.971  0.9381 -0.1461 -0.3909
  897MOL0     C18306   2.597   5.364   9.078 -0.1279  0.2247 -0.0717
  897MOL0     O18307   2.559   5.429   9.198  0.5996 -0.1961 -0.1275
  897MOL0     C18308   2.672   5.474   9.275  0.1485 -0.1185  0.3958
  897MOL0     C18309   2.648   5.478   9.427 -0.4101 -0.3425  0.0308
  897MOL0     C18310   2.555   5.589   9.465 -0.5525  0.0017  0.0593
  897MOL0     C18311   2.602   5.736   9.443  0.0919 -0.5854  0.7381
  897MOL0     C18312   2.489   5.834   9.489  0.3786 -0.7965  0.1188
  897MOL0     C18313   2.519   5.986   9.462  0.4478  0.3890 -0.4674
  897MOL0     C18314   2.663   6.032   9.494  0.1973  0.4615  0.1015
  897MOL0     C18315   2.680   6.184   9.484  0.2793 -0.1120  0.5097
  897MOL0    Cl18316   2.692   6.225   9.318  0.1986 -0.2890  0.0602
  897MOL0     C18317   2.566   5.225   9.071  0.4287 -0.0665  0.5185
  897MOL0     C18318   2.599   5.147   8.962  0.2932 -0.0703 -0.6350
  897MOL0     O18319   2.941   5.208   8.759 -0.3648 -0.0941  0.2063
  897MOL0     C18320   2.999   5.059   8.522 -0.1884  1.2752  1.0737
  897MOL0     C18321   3.024   5.019   8.385  0.0326  0.4608 -0.2985
  897MOL0     N18322   3.418   4.877   8.080  0.4114 -0.3868  0.1695
  897MOL0     N18323   3.531   4.929   8.081 -0.8174 -0.4441  0.7478
  897MOL0     C18324   4.688   5.115   7.906  0.5851 -0.5260  0.0667
  897MOL0     C18325   4.786   5.219   7.900 -0.0819  1.1720 -0.2947
  897MOL0     C18326   5.099   5.520   7.838  0.4155  0.6242  0.0168
  897MOL0     C18327   5.162   5.594   7.939 -0.4520  0.3203 -0.3329
  897MOL0     C18328   5.191   5.726   7.915 -0.4975  0.7030  0.0178
  897MOL0     C18329   5.172   5.776   7.788  0.5991 -1.0635  0.3101
  897MOL0     O18330   5.207   5.912   7.778 -0.6532 -0.7254 -0.3432
  897MOL0     C18331   5.185   5.977   7.654  0.8841  0.0021 -0.1093
  897MOL0     C18332   5.166   6.127   7.685 -0.3892  0.6413  0.0899
  897MOL0     C18333   5.118   6.192   7.554  0.0312  0.1877  0.5430
  897MOL0     C18334   5.130   6.345   7.568 -0.1050  1.4511  0.4882
  897MOL0     C18335   5.276   6.388   7.567  0.1471 -0.7604  0.6800
  897MOL0     C18336   5.388   6.436   7.587  0.0839 -1.5513  0.2689
  897MOL0     C18337   5.117   5.700   7.688 -0.5513  0.2119  0.6695
  897MOL0     C18338   5.069   5.575   7.710 -0.7219  0.0256 -0.7354
  897MOL0     H18339   4.970   5.100   7.645  0.6273  1.9612 -0.5585
  897MOL0     H18340   4.790   4.936   7.637 -1.6383  0.9114  0.3878
  897MOL0     H18341   4.448   4.989   7.886  0.5550 -0.6945 -3.2184
  897MOL0     H18342   4.549   4.887   8.007 -0.2007 -1.1553 -0.0681
  897MOL0     H18343   4.472   4.691   7.957  0.3715  1.9715  2.8860
  897MOL0     H18344   4.415   4.741   7.793 -1.4163  0.7047  1.3674
  897MOL0     H18345   4.246   4.875   7.875 -1.0726 -1.9681 -1.8109
  897MOL0     H18346   4.272   4.836   8.051 -0.6560 -0.8884  0.6839
  897MOL0     H18347   4.178   4.657   7.826 -2.1547  2.2262 -0.2054
  897MOL0     H18348   4.252   4.595   7.974  1.5845 -0.9671 -1.8734
  897MOL0     H18349   4.059   4.714   8.107 -0.9048 -2.5330 -0.3495
  897MOL0     H18350   3.999   4.620   7.968  0.0908 -1.7297  0.6557
  897MOL0     H18351   3.961   4.781   7.830 -1.7972 -2.0897 -0.0803
  897MOL0     H18352   4.011   4.915   7.956 -1.5549 -0.1315  2.1136
  897MOL0     H18353   3.783   4.708   8.001  3.0227 -1.8218 -2.3197
  897MOL0     H18354   3.834   4.830   8.103 -3.9677  3.4379 -0.9730
  897MOL0     H18355   3.749   4.900   7.819 -0.2462  0.5865 -0.6406
  897MOL0     H18356   3.779   5.010   7.953 -3.1997  0.9688 -1.1538
  897MOL0     H18357   3.514   4.786   7.787  2.5963 -1.2853  1.3645
  897MOL0     H18358   3.303   4.647   7.883 -0.6783 -0.4276 -0.4386
  897MOL0     H18359   3.230   4.800   7.821  1.0505  2.5283  0.6162
  897MOL0     H18360   3.183   4.685   8.091 -1.0721 -0.7601  0.6278
  897MOL0     H18361   3.078   4.691   7.952  1.0154 -0.7285  0.6646
  897MOL0     H18362   3.158   4.911   8.146  1.2669 -2.6233  0.4637
  897MOL0     H18363   3.110   4.965   7.993 -0.6838  0.0651 -0.6046
  897MOL0     H18364   2.967   4.795   8.180  2.3934 -0.6967 -0.0294
  897MOL0     H18365   2.889   4.835   8.025  1.4495 -0.4375  0.2833
  897MOL0     H18366   2.705   5.040   8.284  1.9356  0.9397 -0.7386
  897MOL0     H18367   2.662   5.093   8.525 -1.9746 -0.0882 -3.3344
  897MOL0     H18368   2.763   5.397   8.795  0.6832 -0.6012  0.4090
  897MOL0     H18369   2.667   5.537   8.965 -1.4602  0.0540 -1.2198
  897MOL0     H18370   2.710   5.569   9.237  3.1250 -1.3106  0.1265
  897MOL0     H18371   2.754   5.404   9.258 -3.0658 -4.1532 -0.0242
  897MOL0     H18372   2.752   5.493   9.458 -0.1344  0.4861 -1.2249
  897MOL0     H18373   2.602   5.396   9.483 -0.6486 -0.0663  0.2401
  897MOL0     H18374   2.534   5.574   9.571  1.9135  1.7503  0.8862
  897MOL0     H18375   2.461   5.577   9.410  0.6164 -0.2070 -2.0045
  897MOL0     H18376   2.696   5.749   9.498  0.8163  0.1198 -0.6163
  897MOL0     H18377   2.622   5.745   9.336 -0.4415  0.9009  0.7453
  897MOL0     H18378   2.485   5.828   9.599 -0.6843  2.3522  0.3682
  897MOL0     H18379   2.393   5.804   9.446 -0.3703  2.4530 -0.7135
  897MOL0     H18380   2.442   6.037   9.520  0.8535  1.2698 -0.6746
  897MOL0     H18381   2.488   6.004   9.358 -4.2563 -0.7976  0.5306
  897MOL0     H18382   2.670   6.012   9.601 -0.2342 -0.0076  0.0427
  897MOL0     H18383   2.733   5.986   9.424 -3.0041 -1.7023 -1.9147
  897MOL0     H18384   2.767   6.216   9.542  0.4559 -1.9759  1.3248
  897MOL0     H18385   2.596   6.238   9.529  1.3547  1.5052  0.6856
  897MOL0     H18386   2.525   5.179   9.161  0.0079 -3.0346 -1.0765
  897MOL0     H18387   2.558   5.047   8.949 -1.0411  0.4927 -0.8769
  897MOL0     H18388   3.087   5.068   8.586 -0.1132 -2.5813  1.7706
  897MOL0     H18389   3.127   4.991   8.365  0.6266  0.0324  2.7894
  897MOL0     H18390   4.620   5.122   7.991 -0.2963  2.0240 -0.7606
  897MOL0     H18391   4.784   5.289   7.982  0.5429  0.6109  0.2155
  897MOL0     H18392   5.169   5.551   8.039  0.9917  1.6237  0.1668
  897MOL0     H18393   5.234   5.791   7.991  2.4363  0.0212 -0.9093
  897MOL0     H18394   5.091   5.944   7.608  0.4347 -0.0618  0.8270
  897MOL0     H18395   5.263   5.956   7.581 -1.0186 -0.6542 -2.0633
  897MOL0     H18396   5.096   6.143   7.768  0.6186 -1.0599  1.3415
  897MOL0     H18397   5.258   6.165   7.729 -1.5780  1.7546  1.7693
  897MOL0     H18398   5.017   6.160   7.530  0.0415  0.2638  0.3946
  897MOL0     H18399   5.177   6.150   7.473  2.1360 -1.2026  2.6699
  897MOL0     H18400   5.086   6.393   7.480  1.7568  1.8890 -0.2623
  897MOL0     H18401   5.075   6.374   7.658 -1.6161  0.6475 -0.1472
  897MOL0     H18402   5.482   6.479   7.616 -0.4183 -1.4295  1.7980
  897MOL0     H18403   5.107   5.730   7.584  0.3447 -1.5795  0.0415
  897MOL0     H18404   5.021   5.510   7.638  2.6128 -2.1496 -1.1986
  898MOL0     O18405   0.228  10.140   9.566  0.3041  0.1980  0.1472
  898MOL0     C18406   0.292  10.166   9.668 -0.1427  0.1954 -0.4301
  898MOL0     O18407   0.237  10.180   9.796 -0.0548  0.7524  0.6113
  898MOL0     C18408   0.103  10.181   9.811  0.2050 -0.4011  0.5540
  898MOL0     C18409   0.033  10.297   9.815  1.0088  0.4529 -0.3854
  898MOL0     C18410  -0.105  10.293   9.828 -0.5393  0.1422  1.0399
  898MOL0     C18411  -0.179  10.175   9.838  1.2723  0.5495 -0.0502
  898MOL0     O18412  -0.315  10.177   9.867 -0.3657 -0.9505  0.5941
  898MOL0     C18413  -0.397  10.065   9.906 -0.4360  0.7603 -0.1418
  898MOL0     C18414  -0.533  10.110   9.874  1.1943  0.3342 -0.4167
  898MOL0     C18415  -0.645  10.004   9.884 -0.2901  0.2297 -0.8185
  898MOL0     C18416  -0.655   9.923  10.004 -0.0971 -0.1672  0.6900
  898MOL0     C18417  -0.758   9.806   9.984  0.5588  0.5478  0.1851
  898MOL0     C18418  -0.709   9.703   9.875 -0.5138 -0.2543 -1.1203
  898MOL0     C18419  -0.769   9.572   9.910 -0.1300 -0.3946  0.4837
  898MOL0     C18420  -0.921   9.570   9.915  0.8851 -0.4852 -0.5021
  898MOL0     N18421  -0.988   9.598  10.040  0.0019  0.2929 -0.4887
  898MOL0     C18422  -0.982   9.516  10.150  0.8557  0.0680 -0.2617
  898MOL0     C18423  -1.086   9.545  10.226 -0.2358  0.2054 -0.9018
  898MOL0     C18424  -1.137   9.461  10.345 -0.4553  0.1279  0.2500
  898MOL0     C18425  -1.205   9.329  10.307 -0.6746 -0.3999  0.2999
  898MOL0     C18426  -1.340   9.341  10.230  0.9715 -0.2757  0.1529
  898MOL0     C18427  -1.341   9.412  10.091  0.3878 -0.7010  0.2721
  898MOL0     O18428  -1.439   9.359   9.996 -0.5824  0.1071  0.1346
  898MOL0     C18429  -1.564   9.404   9.987 -0.4958 -0.1679 -0.2644
  898MOL0     C18430  -1.633   9.331   9.896  0.2510 -0.7116 -0.0075
  898MOL0     C18431  -1.768   9.363   9.864 -0.2028 -0.1938  0.5711
  898MOL0     C18432  -1.829   9.465   9.935  0.1540 -0.3670 -0.5644
  898MOL0     C18433  -1.967   9.494   9.919 -0.3891  0.4235  0.5102
  898MOL0     O18434  -2.011   9.615   9.943  0.2748  0.3252 -0.3339
  898MOL0     C18435  -2.135   9.637   9.889  0.1965 -0.0553  0.7007
  898MOL0     C18436  -2.145   9.720   9.779  0.6790  0.4643  0.9293
  898MOL0     C18437  -2.275   9.732   9.727  0.9571 -0.0520 -0.2377
  898MOL0     C18438  -2.388   9.668   9.778  0.2707 -0.8914  0.6943
  898MOL0     O18439  -2.515   9.685   9.721 -1.1897 -0.6515  0.1328
  898MOL0     C18440  -2.520   9.719   9.580  0.4326  0.3200  0.9149
  898MOL0     C18441  -2.665   9.757   9.544 -0.1371  0.2617 -0.9894
  898MOL0     C18442  -2.723   9.859   9.652  0.1382  0.2799 -0.2890
  898MOL0     C18443  -2.874   9.866   9.648 -0.1065 -0.3882 -1.1830
  898MOL0     C18444  -2.938   9.962   9.750 -0.4550  0.4496 -0.1227
  898MOL0     C18445  -2.991  10.096   9.690  0.4054  0.9945 -1.4937
  898MOL0     C18446  -3.086  10.165   9.789  0.2576 -0.6251 -0.5372
  898MOL0     C18447  -3.200  10.218   9.711  0.4332  0.3132  1.0976
  898MOL0    Cl18448  -3.308  10.289   9.825  0.0864 -0.0495  0.1740
  898MOL0     C18449  -2.372   9.590   9.894 -0.9460 -0.7416 -1.6884
  898MOL0     C18450  -2.243   9.577   9.947  0.1589 -0.4163 -0.7016
  898MOL0     O18451  -2.032   9.395   9.885  0.5860 -0.7432 -0.2926
  898MOL0     C18452  -1.753   9.541  10.029  0.7851  1.0129  0.1531
  898MOL0     C18453  -1.615   9.511  10.054 -0.0644 -0.4537 -0.6976
  898MOL0     N18454  -1.142   9.653  10.176  0.3378  0.0875  0.1294
  898MOL0     N18455  -1.079   9.692  10.070 -0.3498 -0.1660  1.0405
  898MOL0     C18456  -0.105  10.054   9.821 -0.1441 -0.8191  0.5390
  898MOL0     C18457   0.037  10.062   9.814  0.6475 -0.2523 -0.1091
  898MOL0     C18458   0.438  10.166   9.654 -0.0102 -0.2485 -0.1889
  898MOL0     C18459   0.519  10.171   9.758 -0.7722 -0.7843  0.5423
  898MOL0     C18460   0.662  10.174   9.746  0.1797 -0.5249  0.1809
  898MOL0     C18461   0.722  10.165   9.620  0.6832  1.1329  0.1240
  898MOL0     O18462   0.855  10.170   9.574 -0.6066  0.5717  0.4178
  898MOL0     C18463   0.957  10.180   9.676  0.5729  0.0550  0.5082
  898MOL0     C18464   1.078  10.206   9.593  0.0172 -0.3045  0.7491
  898MOL0     C18465   1.201  10.233   9.682  0.7849  0.0445 -0.1709
  898MOL0     C18466   1.324  10.267   9.605 -0.2757  0.0738  0.7652
  898MOL0     C18467   1.361  10.172   9.497  0.0024 -0.3305 -0.1107
  898MOL0     C18468   1.390  10.090   9.416 -0.2673  1.1843 -0.5663
  898MOL0     C18469   0.640  10.154   9.509  0.3189 -0.8876 -0.8081
  898MOL0     C18470   0.502  10.153   9.527 -0.0264  0.3575  0.1028
  898MOL0     H18471   0.083  10.392   9.809  1.7769  0.0103 -1.2962
  898MOL0     H18472  -0.141  10.394   9.847  0.5736  0.7760 -0.0174
  898MOL0     H18473  -0.385  10.039  10.012  0.6095 -1.3209 -0.7203
  898MOL0     H18474  -0.376   9.974   9.850  1.9097  0.4579  1.0590
  898MOL0     H18475  -0.553  10.164   9.780 -0.9571 -2.8849 -1.9914
  898MOL0     H18476  -0.554  10.182   9.953 -0.5787  2.5151 -2.7072
  898MOL0     H18477  -0.635   9.931   9.803  1.0129  0.2352 -0.6874
  898MOL0     H18478  -0.740  10.056   9.869 -0.0055  1.2177  0.5996
  898MOL0     H18479  -0.560   9.880  10.039  1.5613  2.6952 -0.0066
  898MOL0     H18480  -0.686   9.989  10.086  2.4138  0.8527  0.9098
  898MOL0     H18481  -0.860   9.836   9.959  0.7971  1.0077 -0.2361
  898MOL0     H18482  -0.766   9.757  10.082  2.6349  0.2807  0.2689
  898MOL0     H18483  -0.603   9.678   9.887 -0.3681  1.0160  0.7411
  898MOL0     H18484  -0.736   9.730   9.772  0.3338  1.7925 -0.8683
  898MOL0     H18485  -0.742   9.506   9.827 -1.7408 -1.6052  0.8738
  898MOL0     H18486  -0.736   9.526  10.003 -2.5587 -0.7957  1.2315
  898MOL0     H18487  -0.957   9.468   9.896 -1.0619 -0.2692  1.5456
  898MOL0     H18488  -0.965   9.636   9.840  2.0149  2.3223  1.1701
  898MOL0     H18489  -0.910   9.443  10.185  0.3865 -0.5661 -0.5891
  898MOL0     H18490  -1.207   9.518  10.407 -2.3765 -0.9055 -0.8564
  898MOL0     H18491  -1.055   9.450  10.416  1.4215 -0.0706 -1.8515
  898MOL0     H18492  -1.236   9.272  10.396 -1.3569 -1.4787 -0.6029
  898MOL0     H18493  -1.135   9.267  10.251 -0.5507 -1.9828  2.0892
  898MOL0     H18494  -1.367   9.237  10.210 -0.5260  0.3476 -1.3543
  898MOL0     H18495  -1.414   9.378  10.302  0.1950 -1.1831 -0.1477
  898MOL0     H18496  -1.239   9.397  10.055  1.5804 -0.7190  3.3407
  898MOL0     H18497  -1.353   9.520  10.096 -5.5939 -1.0023  0.3336
  898MOL0     H18498  -1.579   9.249   9.849  2.0712 -0.1692  1.0029
  898MOL0     H18499  -1.825   9.303   9.794 -0.1270  0.9906 -0.5428
  898MOL0     H18500  -2.067   9.765   9.718 -2.7276  1.2857 -3.4129
  898MOL0     H18501  -2.266   9.808   9.650 -0.7511  1.1543  0.6724
  898MOL0     H18502  -2.498   9.631   9.519  0.5615 -1.9673  4.0552
  898MOL0     H18503  -2.459   9.805   9.548  2.6643 -1.9223 -1.3334
  898MOL0     H18504  -2.729   9.668   9.554  1.2746 -0.7477 -0.4925
  898MOL0     H18505  -2.682   9.791   9.442  0.5053 -4.3487 -2.9175
  898MOL0     H18506  -2.678   9.956   9.629 -0.6495  0.5670 -0.6757
  898MOL0     H18507  -2.697   9.835   9.755  1.8381 -1.6182 -1.1112
  898MOL0     H18508  -2.894   9.912   9.551 -0.2738  1.7318 -0.2099
  898MOL0     H18509  -2.918   9.768   9.671 -0.8489  0.2075  0.0605
  898MOL0     H18510  -2.866   9.978   9.831 -1.6101 -0.5100  1.1455
  898MOL0     H18511  -3.016   9.905   9.801 -0.6650 -0.1623 -1.0947
  898MOL0     H18512  -3.043  10.076   9.596  2.0523 -1.8335 -1.9396
  898MOL0     H18513  -2.907  10.163   9.669  1.7052  2.5324  5.7691
  898MOL0     H18514  -3.125  10.097   9.866 -2.2967  0.4481 -0.7681
  898MOL0     H18515  -3.032  10.252   9.827 -0.6305  0.3579 -1.4564
  898MOL0     H18516  -3.251  10.144   9.649  1.5532 -2.8511  3.6468
  898MOL0     H18517  -3.151  10.284   9.639  1.3069 -1.7040 -0.2534
  898MOL0     H18518  -2.452   9.539   9.946  0.5653 -1.4193  0.0956
  898MOL0     H18519  -2.225   9.504  10.026 -0.0405 -1.4419 -1.5865
  898MOL0     H18520  -1.803   9.614  10.092  0.9477 -0.1100  1.6293
  898MOL0     H18521  -1.561   9.564  10.131  0.3346  0.1568 -1.3766
  898MOL0     H18522  -0.150   9.957   9.807 -2.5655  0.0027  2.0234
  898MOL0     H18523   0.102   9.980   9.788  0.4670 -0.7967  1.0692
  898MOL0     H18524   0.489  10.190   9.861 -2.6875  1.4237 -0.3406
  898MOL0     H18525   0.720  10.193   9.836 -4.1025 -1.2849  3.3779
  898MOL0     H18526   0.949  10.090   9.737 -0.3640 -0.0287  0.2863
  898MOL0     H18527   0.942  10.256   9.753  1.5203  0.3429  0.4140
  898MOL0     H18528   1.086  10.121   9.524  0.0253  1.3659 -1.4282
  898MOL0     H18529   1.059  10.298   9.538  0.0726 -0.6699  0.1074
  898MOL0     H18530   1.218  10.139   9.737 -2.7975 -0.1163  0.9423
  898MOL0     H18531   1.177  10.316   9.750 -0.8616 -1.0178  0.6272
  898MOL0     H18532   1.309  10.366   9.561  0.7523  0.7853  1.9525
  898MOL0     H18533   1.407  10.275   9.675  2.3755  0.9088 -2.2346
  898MOL0     H18534   1.429  10.005   9.363  1.7628  2.4064 -1.1786
  898MOL0     H18535   0.676  10.154   9.406 -1.3733 -0.9016 -1.4196
  898MOL0     H18536   0.435  10.144   9.443 -1.3065 -1.5509  1.2433
  899MOL0     O18537   9.758   2.691   9.043  0.6729 -0.3572 -0.5317
  899MOL0     C18538   9.831   2.719   9.142 -0.1723  0.5062 -0.2620
  899MOL0     O18539   9.822   2.832   9.214  0.0805  0.2093 -0.4772
  899MOL0     C18540   9.718   2.914   9.212  0.3829 -0.0319  0.7759
  899MOL0     C18541   9.707   2.983   9.327  0.6436 -0.3190 -0.2366
  899MOL0     C18542   9.612   3.080   9.336 -1.0050  0.1112 -0.5941
  899MOL0     C18543   9.515   3.098   9.237  0.0606 -0.3098  0.2125
  899MOL0     O18544   9.428   3.207   9.243  0.1270 -0.2103  0.1390
  899MOL0     C18545   9.304   3.206   9.165 -0.2728 -0.1698 -0.1578
  899MOL0     C18546   9.184   3.204   9.267 -0.4877 -0.4715  0.6166
  899MOL0     C18547   9.203   3.081   9.353 -0.0193  0.4576 -0.5546
  899MOL0     C18548   9.073   3.066   9.441  1.2655  0.3669  0.3450
  899MOL0     C18549   9.088   2.952   9.543 -0.1743 -0.5263  0.7100
  899MOL0     C18550   8.975   2.941   9.634  0.3601  0.3222  0.6410
  899MOL0     C18551   8.858   2.852   9.579 -0.5209 -0.1566 -0.5636
  899MOL0     C18552   8.724   2.926   9.630 -0.7525 -0.2382  0.6432
  899MOL0     N18553   8.611   2.839   9.614  0.9931  0.5604  0.7467
  899MOL0     C18554   8.486   2.885   9.641  0.6017  0.5121  0.2971
  899MOL0     C18555   8.411   2.778   9.643  0.6492  0.4277 -0.3282
  899MOL0     C18556   8.263   2.777   9.665  0.1210 -0.1761 -0.0762
  899MOL0     C18557   8.177   2.844   9.561  0.7117  0.4865  1.1330
  899MOL0     C18558   8.181   2.791   9.415 -1.3601  0.6026 -0.7866
  899MOL0     C18559   8.090   2.880   9.332 -0.3731 -0.9581  0.3152
  899MOL0     O18560   7.960   2.814   9.340 -0.5038 -0.2268 -0.2957
  899MOL0     C18561   7.864   2.872   9.265 -0.5987 -0.3224  0.4432
  899MOL0     C18562   7.887   2.956   9.148 -0.6476 -0.8892 -0.9106
  899MOL0     C18563   7.774   3.006   9.086  0.2848 -0.6742  0.1315
  899MOL0     C18564   7.640   2.964   9.117 -0.3740 -0.3441  0.9831
  899MOL0     C18565   7.526   3.024   9.050  0.6766 -0.8172  0.1875
  899MOL0     O18566   7.410   2.949   9.038 -0.2608  0.6773  0.0802
  899MOL0     C18567   7.288   2.990   8.997  0.6471 -0.1276 -0.8192
  899MOL0     C18568   7.191   2.888   8.999 -0.4611 -0.0184  0.1799
  899MOL0     C18569   7.055   2.917   8.966 -0.0549  0.5259  0.5542
  899MOL0     C18570   7.018   3.039   8.922 -0.6069  0.1284 -0.5961
  899MOL0     O18571   6.896   3.079   8.876 -0.3882  0.6832  0.1186
  899MOL0     C18572   6.795   3.003   8.930 -0.1363  0.4214 -0.4646
  899MOL0     C18573   6.676   3.101   8.907 -0.0087 -0.5708 -0.0935
  899MOL0     C18574   6.558   3.057   8.986 -0.0121  0.4247  0.4099
  899MOL0     C18575   6.469   2.948   8.897  0.0831 -0.1959 -0.4632
  899MOL0     C18576   6.393   2.855   8.993  0.5006 -0.2334 -0.0312
  899MOL0     C18577   6.283   2.772   8.925 -0.5856 -0.2812 -0.4125
  899MOL0     C18578   6.224   2.687   9.040  0.5001 -0.0490  0.6043
  899MOL0     C18579   6.115   2.595   8.986  0.0493 -0.4016  0.1066
  899MOL0    Cl18580   5.994   2.576   9.117 -0.1993  0.1742 -0.4681
  899MOL0     C18581   7.112   3.137   8.923 -0.3377 -1.1498 -0.1499
  899MOL0     C18582   7.246   3.118   8.955 -0.4043  0.7562  0.0428
  899MOL0     O18583   7.534   3.150   9.024  0.5321 -0.2757 -0.0611
  899MOL0     C18584   7.625   2.873   9.215  0.0524 -0.2863 -0.3874
  899MOL0     C18585   7.731   2.838   9.297 -0.1245 -1.3544 -0.3612
  899MOL0     N18586   8.494   2.663   9.613  0.0705  0.5503 -0.3250
  899MOL0     N18587   8.614   2.704   9.605 -0.3049 -0.0156  0.9115
  899MOL0     C18588   9.534   3.035   9.113  0.3064 -0.0276  0.2864
  899MOL0     C18589   9.628   2.937   9.104  0.4257  0.4896  0.8218
  899MOL0     C18590   9.917   2.617   9.189 -0.1945  0.3254  0.2593
  899MOL0     C18591   9.957   2.516   9.099 -0.2344 -0.5539 -0.0726
  899MOL0     C18592  10.035   2.405   9.146  0.5613 -0.2925 -0.0293
  899MOL0     C18593  10.104   2.419   9.262 -0.1330 -0.0321  0.7452
  899MOL0     O18594  10.201   2.336   9.290 -0.1167  0.7544 -0.2852
  899MOL0     C18595  10.289   2.289   9.190 -0.6911 -0.7032  0.1811
  899MOL0     C18596  10.402   2.386   9.180  0.0790  0.0721 -0.4904
  899MOL0     C18597  10.495   2.375   9.303 -0.3547  0.4039 -0.5265
  899MOL0     C18598  10.571   2.503   9.317  0.2978 -0.4131 -0.1972
  899MOL0     C18599  10.483   2.605   9.373 -0.2831 -0.7098  0.3788
  899MOL0     C18600  10.425   2.707   9.411 -0.6280  0.0149 -0.7487
  899MOL0     C18601  10.082   2.536   9.344 -0.2155  1.1244  0.0513
  899MOL0     C18602   9.984   2.626   9.310 -0.0954 -0.7141  0.7378
  899MOL0     H18603   9.760   2.963   9.420 -0.2269 -1.7247 -0.0213
  899MOL0     H18604   9.603   3.122   9.436  2.8707  2.6395 -1.0932
  899MOL0     H18605   9.293   3.122   9.095  3.3686  0.1355 -1.2697
  899MOL0     H18606   9.297   3.291   9.097  0.2925  0.6472  0.7835
  899MOL0     H18607   9.094   3.216   9.207 -1.4157 -2.0496  1.6181
  899MOL0     H18608   9.199   3.298   9.320  6.4165  0.9653 -2.6667
  899MOL0     H18609   9.296   3.075   9.411  1.4809 -0.9582 -2.9010
  899MOL0     H18610   9.206   2.989   9.293 -0.9665  0.4517 -0.6046
  899MOL0     H18611   9.066   3.153   9.508 -1.4247  0.1019  0.4999
  899MOL0     H18612   8.986   3.074   9.376  2.7745  0.1699 -1.7874
  899MOL0     H18613   9.178   2.972   9.603 -0.3912 -0.5271  1.0435
  899MOL0     H18614   9.117   2.861   9.489 -0.8181  0.0394 -0.6082
  899MOL0     H18615   8.942   3.044   9.647  1.1456  0.7088 -0.2981
  899MOL0     H18616   8.999   2.898   9.732 -0.4345 -1.7411 -0.0337
  899MOL0     H18617   8.849   2.842   9.470  0.7424  0.5125 -0.7461
  899MOL0     H18618   8.884   2.756   9.624 -1.1690  0.1246  0.4274
  899MOL0     H18619   8.716   3.022   9.577  1.5388 -0.3361  0.0123
  899MOL0     H18620   8.733   2.956   9.735 -1.4938  0.7426  0.4401
  899MOL0     H18621   8.448   2.986   9.658 -0.4464 -0.3461  3.9073
  899MOL0     H18622   8.224   2.816   9.760 -1.0925 -3.3088  0.8581
  899MOL0     H18623   8.233   2.672   9.661 -1.6688  0.3373 -0.8264
  899MOL0     H18624   8.182   2.953   9.564 -0.2832  0.6473 -1.0623
  899MOL0     H18625   8.078   2.820   9.601  1.8527 -3.0891  2.2513
  899MOL0     H18626   8.281   2.813   9.375 -0.0371 -0.6320  1.6274
  899MOL0     H18627   8.146   2.688   9.416 -0.8401  0.3582  2.7949
  899MOL0     H18628   8.134   2.896   9.233  2.1741  0.4427  1.5782
  899MOL0     H18629   8.082   2.979   9.379  0.4375 -1.1653  0.9175
  899MOL0     H18630   7.984   3.001   9.134  0.0978 -2.0647  0.1820
  899MOL0     H18631   7.780   3.094   9.022 -0.6866 -1.2780 -0.8366
  899MOL0     H18632   7.207   2.788   9.037 -0.7278  0.4257  1.4981
  899MOL0     H18633   6.971   2.849   8.964  0.8988 -0.6607 -0.6508
  899MOL0     H18634   6.809   2.991   9.038  1.7337  0.9765 -0.6093
  899MOL0     H18635   6.782   2.904   8.886  3.8909 -0.9019  0.8544
  899MOL0     H18636   6.646   3.112   8.802 -0.7324 -0.3764  0.1283
  899MOL0     H18637   6.698   3.204   8.937 -2.2497  0.3618 -1.3672
  899MOL0     H18638   6.496   3.147   8.991 -2.4267 -1.0873 -0.5200
  899MOL0     H18639   6.581   3.024   9.088  1.0896  0.4206  0.1728
  899MOL0     H18640   6.397   3.012   8.845 -0.9058 -0.2730  0.7409
  899MOL0     H18641   6.522   2.882   8.828  1.8676  0.5445  0.1616
  899MOL0     H18642   6.347   2.918   9.069 -1.5998 -0.7130 -0.8390
  899MOL0     H18643   6.472   2.788   9.029  1.4411  0.2846 -1.0647
  899MOL0     H18644   6.330   2.717   8.843  0.3908 -1.9496  1.1740
  899MOL0     H18645   6.201   2.838   8.897 -0.7355 -0.3792 -0.2039
  899MOL0     H18646   6.302   2.630   9.091  4.2212  2.0674 -2.2203
  899MOL0     H18647   6.178   2.763   9.103  0.1737 -1.1568  1.7361
  899MOL0     H18648   6.152   2.501   8.944 -0.3483 -0.0819 -0.9812
  899MOL0     H18649   6.061   2.633   8.898 -0.2123  2.2678  1.3081
  899MOL0     H18650   7.071   3.229   8.882  1.4612 -1.2133 -2.2966
  899MOL0     H18651   7.312   3.201   8.978  0.5383 -0.1126  0.5701
  899MOL0     H18652   7.523   2.850   9.247 -0.9469  0.9781 -2.4647
  899MOL0     H18653   7.709   2.784   9.388  2.6477 -2.1805 -0.1030
  899MOL0     H18654   9.480   3.058   9.022 -2.5391 -1.3268  1.5159
  899MOL0     H18655   9.640   2.888   9.008 -3.7276 -0.4583  0.5864
  899MOL0     H18656   9.918   2.517   8.998  1.4511  2.1926 -0.7983
  899MOL0     H18657  10.051   2.319   9.082  0.6241  2.0659 -3.4595
  899MOL0     H18658  10.254   2.293   9.087  1.4233 -0.0427 -0.5537
  899MOL0     H18659  10.333   2.193   9.217 -0.7958 -0.5701  0.8489
  899MOL0     H18660  10.456   2.397   9.086  1.8770  1.1886  0.6163
  899MOL0     H18661  10.353   2.482   9.198 -0.5704 -0.6076  1.6234
  899MOL0     H18662  10.560   2.288   9.304  0.8979  1.3165  0.2776
  899MOL0     H18663  10.428   2.367   9.390  0.7097 -1.6814  0.1450
  899MOL0     H18664  10.654   2.483   9.385 -1.2818 -2.2414  1.3401
  899MOL0     H18665  10.608   2.538   9.220 -1.4276 -2.1080 -1.5498
  899MOL0     H18666  10.371   2.784   9.463 -0.6870 -2.2430  2.8998
  899MOL0     H18667  10.139   2.552   9.435 -1.0508  0.3493  0.7295
  899MOL0     H18668   9.964   2.710   9.376  0.4053 -1.3105  1.6758
  900MOL0     O18669  10.287   1.518   6.052 -0.6746 -0.1422 -0.0534
  900MOL0     C18670  10.373   1.610   6.030  0.4570  0.6374  0.1320
  900MOL0     O18671  10.346   1.736   5.968 -0.7224 -0.5526 -0.0682
  900MOL0     C18672  10.214   1.769   5.930  0.6268  0.2899  0.3773
  900MOL0     C18673  10.107   1.765   6.022 -0.0576 -0.8499 -0.2404
  900MOL0     C18674   9.976   1.778   5.980 -0.3814 -0.1108 -0.7524
  900MOL0     C18675   9.955   1.800   5.846 -0.0526 -0.0495  0.4735
  900MOL0     O18676   9.824   1.812   5.796 -0.2332  0.0040 -0.6634
  900MOL0     C18677   9.706   1.778   5.876  0.3181  0.6966  0.0814
  900MOL0     C18678   9.574   1.771   5.800  0.4140  0.3827  0.3372
  900MOL0     C18679   9.484   1.665   5.869  0.5697  0.1256 -0.2575
  900MOL0     C18680   9.332   1.692   5.834 -0.0914 -0.5769  0.5286
  900MOL0     C18681   9.233   1.569   5.864 -0.4003 -0.1070  0.7903
  900MOL0     C18682   9.089   1.612   5.856  1.5554  0.5185  0.3729
  900MOL0     C18683   9.037   1.644   5.717  0.0363  0.8876  0.0000
  900MOL0     C18684   8.892   1.702   5.730  0.2795  0.0195 -0.0473
  900MOL0     N18685   8.793   1.674   5.628  0.0696  0.9484 -0.3256
  900MOL0     C18686   8.774   1.755   5.518 -0.8819  0.6236  0.4349
  900MOL0     C18687   8.701   1.669   5.441  0.1299 -0.1952 -0.0974
  900MOL0     C18688   8.652   1.713   5.297 -0.3657 -0.2290 -0.1704
  900MOL0     C18689   8.749   1.670   5.188 -0.4180 -0.1120  0.8824
  900MOL0     C18690   8.742   1.752   5.051 -0.2624  1.1511 -0.3623
  900MOL0     C18691   8.608   1.724   4.976  0.2805  0.0463  0.7246
  900MOL0     O18692   8.499   1.775   5.060 -0.4508 -0.4963  0.2860
  900MOL0     C18693   8.376   1.788   5.007  0.7511  0.0692 -0.4123
  900MOL0     C18694   8.265   1.786   5.094  0.0524 -0.4345 -0.0126
  900MOL0     C18695   8.137   1.796   5.050 -0.2580  0.6532  0.6745
  900MOL0     C18696   8.112   1.808   4.917  0.7520 -0.0656 -0.4214
  900MOL0     C18697   7.972   1.826   4.878 -0.3737  0.6416 -0.7025
  900MOL0     O18698   7.885   1.829   4.976  0.8763 -0.2904  0.1189
  900MOL0     C18699   7.759   1.878   4.947  0.8049 -1.1728  0.0795
  900MOL0     C18700   7.731   2.004   4.891  0.3576 -0.9545 -0.2853
  900MOL0     C18701   7.593   2.035   4.884 -0.0789 -0.1295 -0.0723
  900MOL0     C18702   7.492   1.959   4.931 -0.5451  0.2865 -0.5122
  900MOL0     O18703   7.368   2.016   4.935  0.4268  0.2314  0.0381
  900MOL0     C18704   7.297   1.992   5.053 -0.1163  0.3613 -0.2243
  900MOL0     C18705   7.170   2.081   5.084  0.2611  0.4632 -0.5977
  900MOL0     C18706   7.079   2.103   4.966  0.0319  0.1643  0.4741
  900MOL0     C18707   6.972   2.207   4.990 -0.2469 -1.0334  0.4775
  900MOL0     C18708   6.876   2.174   5.103  0.0685 -0.9339  0.4335
  900MOL0     C18709   6.767   2.294   5.118  0.1651 -0.7645  0.9463
  900MOL0     C18710   6.683   2.263   5.232  0.8984 -0.0860 -0.2948
  900MOL0     C18711   6.596   2.376   5.263 -0.5236  0.7632 -1.5352
  900MOL0    Cl18712   6.455   2.398   5.141 -0.6614  0.1530  0.1547
  900MOL0     C18713   7.521   1.831   4.988  0.1163 -1.0517  0.4310
  900MOL0     C18714   7.653   1.791   4.990 -0.0631 -0.1615  0.1605
  900MOL0     O18715   7.946   1.836   4.761 -0.0830 -0.5498 -0.3407
  900MOL0     C18716   8.219   1.812   4.821  0.0699 -0.1612  0.2057
  900MOL0     C18717   8.350   1.802   4.867 -0.1539  0.1073 -0.6946
  900MOL0     N18718   8.670   1.553   5.512 -0.4795 -0.7023 -1.1562
  900MOL0     N18719   8.732   1.551   5.619  1.1293  0.0057 -0.1380
  900MOL0     C18720  10.062   1.817   5.754 -0.0508 -0.8322 -0.2496
  900MOL0     C18721  10.192   1.800   5.799  0.4445 -0.1685 -0.8028
  900MOL0     C18722  10.516   1.579   6.070  0.6327  0.5126  0.1162
  900MOL0     C18723  10.630   1.663   6.045  0.8585  0.3390  0.2435
  900MOL0     C18724  10.751   1.624   6.094 -0.5974  0.3126 -1.2452
  900MOL0     C18725  10.778   1.499   6.155  0.3716  0.4552  0.2361
  900MOL0     O18726  10.897   1.437   6.180 -0.7755 -0.0800 -0.1145
  900MOL0     C18727  11.023   1.504   6.138 -0.0888 -0.5977 -0.4314
  900MOL0     C18728  11.159   1.442   6.182 -0.1568  0.3465 -0.1045
  900MOL0     C18729  11.270   1.539   6.152 -0.0180 -0.1519  0.7672
  900MOL0     C18730  11.414   1.498   6.191  0.1151 -0.2176 -0.4355
  900MOL0     C18731  11.516   1.575   6.113 -0.6860 -0.0472 -0.6789
  900MOL0     C18732  11.593   1.644   6.043  0.1898 -0.2409 -0.4784
  900MOL0     C18733  10.659   1.425   6.194 -1.3324  0.3438  0.8304
  900MOL0     C18734  10.534   1.457   6.144  1.1500 -0.0565 -0.0144
  900MOL0     H18735  10.134   1.716   6.115 -1.2579 -0.7481  0.1792
  900MOL0     H18736   9.893   1.754   6.046 -0.5793  0.9716 -0.5873
  900MOL0     H18737   9.698   1.848   5.960  1.3485 -0.5155  1.2301
  900MOL0     H18738   9.726   1.679   5.917  0.0418  1.2286  1.5627
  900MOL0     H18739   9.601   1.723   5.705 -0.1475 -1.4520  1.0657
  900MOL0     H18740   9.534   1.873   5.790  0.2282  0.3219  0.4550
  900MOL0     H18741   9.501   1.658   5.977  2.5725 -1.4679 -0.6012
  900MOL0     H18742   9.514   1.567   5.831 -0.4483 -0.3356  0.0931
  900MOL0     H18743   9.306   1.778   5.896 -0.5802 -0.9750  0.8844
  900MOL0     H18744   9.317   1.726   5.731  0.7483 -1.2579  0.1707
  900MOL0     H18745   9.259   1.560   5.970 -0.4576 -1.1491  0.7172
  900MOL0     H18746   9.261   1.480   5.807  1.5454  0.7348  0.3205
  900MOL0     H18747   9.068   1.695   5.924 -0.2646  2.9616 -2.8769
  900MOL0     H18748   9.017   1.539   5.894 -0.5136  1.9623 -0.5393
  900MOL0     H18749   9.100   1.710   5.657 -1.1515  0.5657 -1.6814
  900MOL0     H18750   9.039   1.548   5.664  0.6195  1.7862 -1.6682
  900MOL0     H18751   8.908   1.810   5.738  0.3262 -0.0830  1.5850
  900MOL0     H18752   8.834   1.676   5.819  0.1210  1.0783  0.1662
  900MOL0     H18753   8.799   1.855   5.484 -1.8236  0.7558  0.1048
  900MOL0     H18754   8.641   1.822   5.290  3.9196  0.4607  0.8202
  900MOL0     H18755   8.554   1.668   5.279 -0.9174  0.5069  0.8684
  900MOL0     H18756   8.733   1.566   5.161  0.9117 -0.0999 -0.0351
  900MOL0     H18757   8.853   1.681   5.222  0.2482  1.0609 -1.3297
  900MOL0     H18758   8.742   1.860   5.068 -2.6515  1.3436 -1.1890
  900MOL0     H18759   8.830   1.722   4.992  3.2228  2.5306  3.6150
  900MOL0     H18760   8.592   1.616   4.969 -0.3196 -0.0162  2.4698
  900MOL0     H18761   8.617   1.771   4.878 -0.8164  0.8064  0.9707
  900MOL0     H18762   8.276   1.775   5.201 -2.5189 -2.3509  0.1544
  900MOL0     H18763   8.056   1.792   5.122 -0.5299  0.5642  0.3654
  900MOL0     H18764   7.811   2.072   4.864 -0.1328 -0.4999 -0.6267
  900MOL0     H18765   7.563   2.126   4.832 -5.3179 -0.7338  1.3583
  900MOL0     H18766   7.369   2.005   5.134 -1.0469 -3.2088  1.3642
  900MOL0     H18767   7.269   1.888   5.073 -1.1717 -0.3315 -4.2813
  900MOL0     H18768   7.224   2.168   5.121  0.3680 -0.1565  0.7640
  900MOL0     H18769   7.118   2.037   5.170  0.8649  1.7900  0.4832
  900MOL0     H18770   7.031   2.010   4.934  0.1113  0.1330  0.4465
  900MOL0     H18771   7.138   2.141   4.882 -0.8611  0.7240  0.0748
  900MOL0     H18772   7.028   2.299   5.010 -1.6199  0.2666 -1.2497
  900MOL0     H18773   6.922   2.226   4.894  1.3102  0.7695 -0.0544
  900MOL0     H18774   6.928   2.178   5.199 -2.6251 -1.7387  2.0405
  900MOL0     H18775   6.828   2.081   5.071 -1.0532  0.2023 -1.3677
  900MOL0     H18776   6.709   2.287   5.025  0.4014  3.9062  0.2353
  900MOL0     H18777   6.826   2.385   5.124  1.3947 -1.3563 -1.1104
  900MOL0     H18778   6.619   2.178   5.207  0.6100 -0.0822  0.4033
  900MOL0     H18779   6.750   2.248   5.318  0.7500  1.2682  0.0814
  900MOL0     H18780   6.654   2.467   5.275  1.8377 -0.7373 -0.9132
  900MOL0     H18781   6.552   2.355   5.361  3.4072 -0.0385  0.2547
  900MOL0     H18782   7.452   1.756   5.026 -0.0773 -1.6306 -1.0044
  900MOL0     H18783   7.689   1.698   5.032  3.4743  0.2015 -1.6317
  900MOL0     H18784   8.213   1.836   4.715  1.0188  1.5656  0.5181
  900MOL0     H18785   8.429   1.805   4.792 -0.3659  0.8200 -0.9023
  900MOL0     H18786  10.034   1.841   5.652 -1.7942  2.1203  0.8044
  900MOL0     H18787  10.274   1.802   5.727  1.1535  2.9945 -0.0721
  900MOL0     H18788  10.624   1.763   6.002 -2.3347 -0.0479 -0.4595
  900MOL0     H18789  10.833   1.690   6.067 -0.3721  0.8691  0.6619
  900MOL0     H18790  11.016   1.606   6.178  3.4861  0.3736 -1.9335
  900MOL0     H18791  11.017   1.523   6.031  2.5356 -2.0634 -0.9399
  900MOL0     H18792  11.160   1.429   6.291 -0.7191 -0.3962 -0.1834
  900MOL0     H18793  11.181   1.346   6.134 -1.8316 -0.5665  0.8893
  900MOL0     H18794  11.258   1.635   6.203  0.8206 -1.2389  3.1515
  900MOL0     H18795  11.281   1.553   6.044  1.2087  0.5063  0.9624
  900MOL0     H18796  11.433   1.505   6.298 -0.0787  1.1249 -0.4642
  900MOL0     H18797  11.429   1.393   6.164 -2.7155 -0.6607 -0.5282
  900MOL0     H18798  11.656   1.701   5.978  0.8379 -1.0407 -0.5611
  900MOL0     H18799  10.676   1.334   6.251  2.3427  0.7308  0.6128
  900MOL0     H18800  10.446   1.401   6.172  0.4334  0.6957 -0.7117
  901MOL0     O18801   1.040   3.374   7.268  0.2721  0.0271 -0.3227
  901MOL0     C18802   1.101   3.272   7.304  0.1881  0.0136 -0.7665
  901MOL0     O18803   1.128   3.234   7.435  0.2217 -0.3091  0.0486
  901MOL0     C18804   1.083   3.320   7.534 -0.4047 -0.5505 -0.0469
  901MOL0     C18805   1.173   3.358   7.635  0.2408 -0.7152 -0.0902
  901MOL0     C18806   1.147   3.454   7.734 -0.4352 -0.1432  0.5932
  901MOL0     C18807   1.013   3.499   7.732  0.6207  0.1874 -0.7231
  901MOL0     O18808   0.965   3.590   7.821 -0.1098 -1.4326 -0.6898
  901MOL0     C18809   1.014   3.565   7.957  0.1735 -0.8107  0.1797
  901MOL0     C18810   0.900   3.567   8.055 -0.1481 -0.6599  0.7293
  901MOL0     C18811   0.823   3.691   8.053 -0.2832 -0.3626 -0.4368
  901MOL0     C18812   0.727   3.710   8.166 -0.1037 -0.4343  0.1186
  901MOL0     C18813   0.619   3.796   8.108  1.0464  0.9272 -0.6969
  901MOL0     C18814   0.515   3.833   8.216 -0.0186  0.2652  0.7011
  901MOL0     C18815   0.372   3.856   8.151  0.3311 -0.4747  0.4739
  901MOL0     C18816   0.266   3.915   8.248  0.2360  1.0599 -0.4892
  901MOL0     N18817   0.297   4.031   8.335 -0.0222  0.0071 -0.7829
  901MOL0     C18818   0.303   4.163   8.297 -0.2470 -0.3736 -1.2776
  901MOL0     C18819   0.340   4.221   8.414  0.1263 -0.3004  0.2451
  901MOL0     C18820   0.359   4.368   8.426  0.0908 -0.1536 -0.3495
  901MOL0     C18821   0.239   4.446   8.496 -0.4411 -0.3493  1.2545
  901MOL0     C18822   0.103   4.400   8.443  0.4110  0.0189  0.0259
  901MOL0     C18823   0.082   4.452   8.302  0.6379  0.8882  0.1264
  901MOL0     O18824  -0.033   4.379   8.256 -0.4625 -0.9058 -0.3740
  901MOL0     C18825  -0.157   4.435   8.273 -0.3094  0.5392 -0.1462
  901MOL0     C18826  -0.264   4.385   8.195  0.8579  0.3463 -0.5743
  901MOL0     C18827  -0.396   4.426   8.207  0.1553 -0.1761 -0.1557
  901MOL0     C18828  -0.419   4.545   8.276 -0.5989 -0.3278  0.0827
  901MOL0     C18829  -0.544   4.616   8.257 -0.0655  0.6480 -0.0521
  901MOL0     O18830  -0.647   4.562   8.183  0.0238  0.8281  0.0982
  901MOL0     C18831  -0.766   4.623   8.206 -1.3880 -1.0059  0.1992
  901MOL0     C18832  -0.833   4.608   8.330 -0.1643 -0.5039 -0.1503
  901MOL0     C18833  -0.962   4.647   8.344  0.0607  0.4083  0.0960
  901MOL0     C18834  -1.019   4.719   8.243  0.0435  0.1515 -0.1572
  901MOL0     O18835  -1.149   4.773   8.272 -0.5010 -0.4366  0.2442
  901MOL0     C18836  -1.203   4.884   8.192 -0.4084  0.0606  0.3819
  901MOL0     C18837  -1.350   4.871   8.196 -0.0845  0.6646 -1.1602
  901MOL0     C18838  -1.393   4.725   8.169  0.6403  0.8591  0.4058
  901MOL0     C18839  -1.538   4.718   8.117 -0.5019 -0.4662 -0.6702
  901MOL0     C18840  -1.640   4.749   8.223  0.2482  0.2927  0.5451
  901MOL0     C18841  -1.768   4.705   8.164 -0.0538 -0.4624  0.9100
  901MOL0     C18842  -1.875   4.702   8.269  0.3916 -0.0711 -0.2314
  901MOL0     C18843  -1.955   4.577   8.247 -0.3381 -0.9742 -0.2869
  901MOL0    Cl18844  -1.845   4.441   8.296  0.0075  0.3962 -0.2639
  901MOL0     C18845  -0.949   4.748   8.121 -0.1840 -0.6461 -0.0189
  901MOL0     C18846  -0.820   4.695   8.104 -0.1413 -0.2244  0.1545
  901MOL0     O18847  -0.548   4.728   8.315  0.4681 -0.1646  0.3685
  901MOL0     C18848  -0.315   4.604   8.344  0.0277  0.8780  0.6035
  901MOL0     C18849  -0.192   4.542   8.354 -0.2565  1.2863  0.4837
  901MOL0     N18850   0.352   4.135   8.520  0.3358 -0.1120 -0.1921
  901MOL0     N18851   0.330   4.018   8.470  1.4825 -0.5430 -0.5845
  901MOL0     C18852   0.918   3.463   7.634 -0.1405  0.1067 -0.4808
  901MOL0     C18853   0.959   3.370   7.535  0.4479 -0.2642 -0.2145
  901MOL0     C18854   1.147   3.176   7.195 -0.0373 -0.0536  0.0763
  901MOL0     C18855   1.137   3.212   7.062 -0.0782  0.2016 -0.0056
  901MOL0     C18856   1.185   3.125   6.965  0.1868 -0.8781  0.8228
  901MOL0     C18857   1.247   3.005   6.998  0.3480  0.0055  1.3901
  901MOL0     O18858   1.304   2.949   6.887 -1.1704  0.4840  0.3111
  901MOL0     C18859   1.399   2.840   6.895 -0.3008  0.0717 -0.2057
  901MOL0     C18860   1.457   2.807   6.761 -0.6406  0.5310  0.3827
  901MOL0     C18861   1.567   2.907   6.706  0.7045 -0.0401  0.8871
  901MOL0     C18862   1.691   2.919   6.786  0.5437 -0.1449 -0.9105
  901MOL0     C18863   1.674   3.007   6.905 -0.5077  0.4198 -1.5971
  901MOL0     C18864   1.659   3.079   6.998  0.1615 -0.4726 -0.0721
  901MOL0     C18865   1.249   2.963   7.130 -0.1343  0.0320  0.4033
  901MOL0     C18866   1.210   3.054   7.225 -0.2710 -0.5606 -0.0628
  901MOL0     H18867   1.275   3.320   7.634 -0.0770 -1.6258  0.5915
  901MOL0     H18868   1.225   3.482   7.803  1.9956 -0.6262 -1.7725
  901MOL0     H18869   1.081   3.641   7.998 -0.6490  0.5313 -0.8917
  901MOL0     H18870   1.051   3.462   7.960 -1.7202 -1.5355  0.1187
  901MOL0     H18871   0.939   3.553   8.156  0.6142  1.3972  0.7798
  901MOL0     H18872   0.833   3.486   8.027 -1.4118  0.4332  0.4946
  901MOL0     H18873   0.760   3.685   7.963  0.2035 -3.4265 -0.6749
  901MOL0     H18874   0.895   3.773   8.047 -0.1934 -0.4005  0.0875
  901MOL0     H18875   0.672   3.617   8.186 -1.4289 -0.3475 -2.7327
  901MOL0     H18876   0.765   3.758   8.257  1.3863 -0.4483 -0.4730
  901MOL0     H18877   0.561   3.739   8.035 -2.8519  1.1434  1.8789
  901MOL0     H18878   0.661   3.881   8.054 -2.2007  3.5830  0.5590
  901MOL0     H18879   0.544   3.925   8.267 -0.2981  0.9315 -0.3154
  901MOL0     H18880   0.497   3.755   8.291  1.6461  1.4161  2.3913
  901MOL0     H18881   0.377   3.939   8.080 -1.0833 -0.1802  0.6883
  901MOL0     H18882   0.337   3.774   8.088 -0.4585  1.4722 -1.7444
  901MOL0     H18883   0.253   3.827   8.313 -1.8251  0.5012 -1.5641
  901MOL0     H18884   0.166   3.939   8.210 -0.4002 -1.1733 -0.3979
  901MOL0     H18885   0.273   4.198   8.199 -1.1043 -1.0540 -1.2716
  901MOL0     H18886   0.363   4.396   8.321  0.6648  0.3943 -0.1852
  901MOL0     H18887   0.456   4.396   8.469 -1.1991  1.6558  1.6095
  901MOL0     H18888   0.248   4.552   8.467 -0.2207 -1.2204 -2.3838
  901MOL0     H18889   0.247   4.438   8.605  0.4673  0.6401  1.2854
  901MOL0     H18890   0.097   4.291   8.445  1.0901 -0.0306 -0.2911
  901MOL0     H18891   0.029   4.444   8.510  1.8186  2.3490  0.1651
  901MOL0     H18892   0.171   4.427   8.243  1.5271  3.9954 -0.0469
  901MOL0     H18893   0.076   4.561   8.293  2.8577  1.0391 -0.2667
  901MOL0     H18894  -0.230   4.320   8.114 -1.6326  1.0086 -2.2793
  901MOL0     H18895  -0.472   4.379   8.146 -0.9279  2.4993 -0.9876
  901MOL0     H18896  -0.789   4.545   8.407  0.5480 -0.6767 -0.6928
  901MOL0     H18897  -1.022   4.638   8.434 -0.4463 -0.2563 -0.3079
  901MOL0     H18898  -1.170   4.880   8.088  0.2645 -1.6816  0.6408
  901MOL0     H18899  -1.178   4.985   8.227 -0.8212  0.3725 -0.2011
  901MOL0     H18900  -1.395   4.943   8.128 -0.3151  2.0177  0.3615
  901MOL0     H18901  -1.400   4.892   8.291  1.6927 -1.9058  0.4701
  901MOL0     H18902  -1.389   4.662   8.259 -2.5909 -2.4346 -1.4935
  901MOL0     H18903  -1.334   4.684   8.087  0.2377  1.5320 -0.2288
  901MOL0     H18904  -1.553   4.784   8.031  1.3896 -2.5059 -2.6969
  901MOL0     H18905  -1.553   4.620   8.071  3.1277 -1.5715  0.1771
  901MOL0     H18906  -1.638   4.854   8.252  0.3711  0.7423 -1.0111
  901MOL0     H18907  -1.624   4.693   8.316  1.2561  2.6929  1.9168
  901MOL0     H18908  -1.752   4.609   8.114 -0.4302 -0.8384  1.4933
  901MOL0     H18909  -1.813   4.767   8.085 -1.4192  1.2165  2.8771
  901MOL0     H18910  -1.834   4.701   8.371  0.6666  0.5685 -0.3310
  901MOL0     H18911  -1.945   4.785   8.254 -1.3086 -1.6338 -1.2617
  901MOL0     H18912  -1.995   4.571   8.145 -1.9364 -1.1449  0.3192
  901MOL0     H18913  -2.035   4.565   8.321  0.6018 -1.1067  0.7203
  901MOL0     H18914  -0.999   4.787   8.033 -0.7659 -3.3122 -0.9533
  901MOL0     H18915  -0.773   4.707   8.006 -0.5617  3.9098  0.2846
  901MOL0     H18916  -0.344   4.685   8.410 -2.5907  0.3038  0.2799
  901MOL0     H18917  -0.111   4.588   8.408 -1.0349  0.7615  2.1697
  901MOL0     H18918   0.811   3.484   7.642 -0.4864 -1.2011 -1.3465
  901MOL0     H18919   0.894   3.328   7.459 -0.0603  1.9218 -1.0671
  901MOL0     H18920   1.099   3.306   7.022  1.6243 -0.2290 -2.9912
  901MOL0     H18921   1.206   3.165   6.866 -0.0224 -0.4201  0.9591
  901MOL0     H18922   1.350   2.754   6.940  2.6929 -0.5697  2.1825
  901MOL0     H18923   1.476   2.861   6.970 -2.2449 -3.2789  3.0269
  901MOL0     H18924   1.514   2.715   6.777 -0.5252  0.8749  2.2956
  901MOL0     H18925   1.380   2.796   6.685  0.3598 -0.5124 -0.5250
  901MOL0     H18926   1.520   3.003   6.686  3.3095  1.7283  2.6856
  901MOL0     H18927   1.595   2.854   6.615 -0.8410 -1.3755  1.1413
  901MOL0     H18928   1.731   2.821   6.815 -2.1178 -1.0830 -0.1187
  901MOL0     H18929   1.772   2.970   6.733  1.0887  1.0630  0.9906
  901MOL0     H18930   1.623   3.145   7.075 -2.7796 -0.1786 -1.5575
  901MOL0     H18931   1.291   2.866   7.154  2.5411  1.1009  0.3596
  901MOL0     H18932   1.210   3.025   7.330  1.7037  0.2189  0.1921
  902MOL0     O18933   1.231   8.609   8.949 -0.0748  0.2680 -0.6770
  902MOL0     C18934   1.237   8.507   8.884  0.0367  0.2083  0.5698
  902MOL0     O18935   1.352   8.460   8.832 -0.4763  0.3161 -0.5196
  902MOL0     C18936   1.471   8.460   8.897  0.1388 -0.6955 -0.4687
  902MOL0     C18937   1.580   8.394   8.830  0.2420 -0.0103 -0.1147
  902MOL0     C18938   1.716   8.405   8.874  0.7923  0.3908 -0.5540
  902MOL0     C18939   1.750   8.494   8.980 -0.1837  0.4625  0.3167
  902MOL0     O18940   1.881   8.506   9.035 -0.6232  0.1028 -0.4085
  902MOL0     C18941   1.936   8.637   9.070  0.1537  0.1508  0.7848
  902MOL0     C18942   1.953   8.720   8.940 -0.2765 -0.3402  0.4217
  902MOL0     C18943   2.072   8.673   8.846 -0.0800  1.1094  0.0266
  902MOL0     C18944   2.212   8.722   8.894  0.3324  0.5096  0.2125
  902MOL0     C18945   2.320   8.649   8.829  0.7559  0.8688 -0.4024
  902MOL0     C18946   2.461   8.716   8.855 -0.1791  0.1666 -1.2946
  902MOL0     C18947   2.544   8.669   8.976  0.1659  0.3399 -0.3545
  902MOL0     C18948   2.685   8.724   8.991  0.0528  1.2252 -0.3397
  902MOL0     N18949   2.684   8.872   9.009  0.2271 -0.6112 -0.2979
  902MOL0     C18950   2.713   8.933   9.127 -0.1993  0.4000  0.4624
  902MOL0     C18951   2.730   9.064   9.086  0.1747 -0.8675  0.3950
  902MOL0     C18952   2.776   9.181   9.168 -0.0450 -0.1253  0.4419
  902MOL0     C18953   2.660   9.277   9.206  1.2629  0.1208  0.0853
  902MOL0     C18954   2.533   9.215   9.250 -0.6207  0.0826 -0.7857
  902MOL0     C18955   2.455   9.322   9.335 -0.7315 -0.6467  0.2207
  902MOL0     O18956   2.328   9.277   9.386  0.0991 -0.2049  0.2112
  902MOL0     C18957   2.246   9.365   9.451  0.2383  0.7809 -0.6766
  902MOL0     C18958   2.123   9.314   9.464 -0.0979  0.1192  0.2063
  902MOL0     C18959   2.018   9.384   9.515 -0.2187  0.3043  0.7818
  902MOL0     C18960   2.037   9.516   9.553 -0.2195 -0.1799  0.4499
  902MOL0     C18961   1.930   9.609   9.613 -0.2311 -0.2490  0.8535
  902MOL0     O18962   1.818   9.544   9.646 -1.0294  0.3880 -0.2576
  902MOL0     C18963   1.691   9.609   9.667 -0.1796  1.0297  0.4546
  902MOL0     C18964   1.654   9.715   9.587 -0.1013 -1.2221 -0.4230
  902MOL0     C18965   1.526   9.776   9.603 -1.0020  0.3882  0.0621
  902MOL0     C18966   1.430   9.717   9.693  0.4579 -0.3516  0.2479
  902MOL0     O18967   1.309   9.781   9.693 -0.3541  0.1120  0.3517
  902MOL0     C18968   1.197   9.731   9.771  0.0895 -0.4570  0.0718
  902MOL0     C18969   1.073   9.820   9.762  1.2905  0.5692 -0.0259
  902MOL0     C18970   0.951   9.744   9.812 -0.5298  0.0404  0.6686
  902MOL0     C18971   0.819   9.842   9.815 -0.3591  0.7993 -0.0889
  902MOL0     C18972   0.711   9.774   9.892  0.3419  0.1713  0.4481
  902MOL0     C18973   0.576   9.842   9.859  0.2804  0.2717 -0.5032
  902MOL0     C18974   0.467   9.763   9.923 -0.1045  0.3583 -0.7720
  902MOL0     C18975   0.343   9.849   9.922  0.0072  0.5222  0.8281
  902MOL0    Cl18976   0.201   9.767  10.002 -0.1510 -0.1618 -0.1191
  902MOL0     C18977   1.462   9.599   9.759 -0.2726 -0.1580  0.6815
  902MOL0     C18978   1.592   9.545   9.753 -1.0075 -0.6507 -0.6615
  902MOL0     O18979   1.958   9.723   9.631 -0.9760 -0.3585 -0.7415
  902MOL0     C18980   2.170   9.569   9.531  0.8865 -0.1203  0.5975
  902MOL0     C18981   2.279   9.495   9.488  0.5513  1.0092 -0.5986
  902MOL0     N18982   2.683   9.079   8.960 -0.1215 -0.1956  0.8123
  902MOL0     N18983   2.658   8.960   8.908  0.3110 -0.2712  0.4454
  902MOL0     C18984   1.640   8.553   9.049  0.0476 -0.1730  0.5255
  902MOL0     C18985   1.508   8.530   9.011 -0.3190 -0.2454  0.4620
  902MOL0     C18986   1.106   8.442   8.841  0.5202  0.2304  0.8472
  902MOL0     C18987   0.988   8.469   8.908 -0.8172  0.8408 -0.0984
  902MOL0     C18988   0.874   8.403   8.866  0.3116 -0.5950  0.8489
  902MOL0     C18989   0.869   8.328   8.751  0.0263 -0.1746 -0.6213
  902MOL0     O18990   0.739   8.288   8.718 -0.2255  0.0762 -0.7644
  902MOL0     C18991   0.724   8.196   8.615 -0.1867 -0.4297  0.1483
  902MOL0     C18992   0.584   8.137   8.589 -0.5862  0.6491 -0.2919
  902MOL0     C18993   0.517   8.081   8.711  0.3479  0.1535 -0.5848
  902MOL0     C18994   0.393   7.988   8.670 -0.1527  0.0909 -0.7486
  902MOL0     C18995   0.295   8.060   8.589 -0.2940 -0.2573 -0.4467
  902MOL0     C18996   0.212   8.123   8.528  0.1308  0.7321  0.5312
  902MOL0     C18997   0.976   8.309   8.679 -1.3187  0.6326  0.9957
  902MOL0     C18998   1.099   8.356   8.725 -0.3741  0.0901  0.1873
  902MOL0     H18999   1.556   8.342   8.737  3.0906  1.4252 -1.7872
  902MOL0     H19000   1.802   8.350   8.837  1.4583 -1.1024  2.8350
  902MOL0     H19001   2.036   8.628   9.115 -0.1830 -2.1013  1.2030
  902MOL0     H19002   1.867   8.682   9.142 -1.9509 -3.0749  1.0040
  902MOL0     H19003   1.980   8.820   8.975 -0.7462 -0.0488 -0.0348
  902MOL0     H19004   1.864   8.721   8.877 -0.8569 -0.8859  1.1988
  902MOL0     H19005   2.049   8.707   8.745 -1.2380 -0.8830 -0.4367
  902MOL0     H19006   2.068   8.565   8.835 -0.8417  1.1297  0.0506
  902MOL0     H19007   2.207   8.831   8.885 -0.1078  0.9532  4.0711
  902MOL0     H19008   2.211   8.705   9.002  1.0142 -0.7875  0.0269
  902MOL0     H19009   2.302   8.650   8.721  0.5417 -0.3906 -0.3947
  902MOL0     H19010   2.323   8.542   8.851 -1.3835  0.1773 -3.0252
  902MOL0     H19011   2.458   8.825   8.849 -1.2647  0.3318  1.0169
  902MOL0     H19012   2.525   8.674   8.777  0.7544 -3.0111  0.9793
  902MOL0     H19013   2.503   8.690   9.075  2.1854  0.4512  0.5115
  902MOL0     H19014   2.545   8.559   8.976  1.8652  0.3207  0.0267
  902MOL0     H19015   2.736   8.708   8.895  0.6648  0.6066  0.0815
  902MOL0     H19016   2.734   8.676   9.076 -1.8631  1.7074  1.1214
  902MOL0     H19017   2.722   8.883   9.223 -2.5556 -0.6623  0.1861
  902MOL0     H19018   2.860   9.227   9.116  3.0526 -5.6887 -0.2346
  902MOL0     H19019   2.821   9.141   9.260  2.2689  0.0641 -0.5459
  902MOL0     H19020   2.631   9.339   9.121  1.5993  2.7908  1.7878
  902MOL0     H19021   2.699   9.343   9.285  3.3598  2.1473 -2.4519
  902MOL0     H19022   2.475   9.186   9.162  2.2896 -1.1104 -2.4672
  902MOL0     H19023   2.542   9.122   9.307  1.1956  0.5021 -0.3195
  902MOL0     H19024   2.430   9.407   9.270 -0.4656  0.7716  1.9051
  902MOL0     H19025   2.520   9.350   9.418 -1.4789 -3.6545  1.9415
  902MOL0     H19026   2.088   9.220   9.423 -1.7160  0.5622  0.4911
  902MOL0     H19027   1.915   9.351   9.518 -0.8611  2.1308  0.3474
  902MOL0     H19028   1.721   9.756   9.512 -2.0864  0.4329 -1.3784
  902MOL0     H19029   1.493   9.860   9.543 -3.6300 -1.1185 -0.7400
  902MOL0     H19030   1.220   9.738   9.878 -2.4359 -2.2011  0.8302
  902MOL0     H19031   1.179   9.624   9.757 -1.9438 -0.3926  1.7049
  902MOL0     H19032   1.067   9.862   9.662  2.3516 -2.0203 -1.2735
  902MOL0     H19033   1.093   9.909   9.822  2.4777 -0.4260  1.1417
  902MOL0     H19034   0.976   9.712   9.913 -0.4423  0.5029  0.7949
  902MOL0     H19035   0.933   9.649   9.761 -2.0621 -0.2698  1.7125
  902MOL0     H19036   0.835   9.933   9.873 -2.7384  2.3975 -1.7447
  902MOL0     H19037   0.796   9.870   9.712 -2.1433 -0.5559 -0.1116
  902MOL0     H19038   0.741   9.768   9.997 -0.3962 -0.2042  0.6420
  902MOL0     H19039   0.704   9.670   9.858 -1.9202  0.5352 -0.3651
  902MOL0     H19040   0.552   9.855   9.754  0.2456 -3.8151 -1.1704
  902MOL0     H19041   0.579   9.940   9.908  0.9382 -1.8356  4.2270
  902MOL0     H19042   0.441   9.678   9.859 -1.4366 -0.3697  0.6576
  902MOL0     H19043   0.495   9.741  10.027  0.7893  2.1684 -0.5966
  902MOL0     H19044   0.318   9.862   9.816  0.4150 -4.8357 -0.1906
  902MOL0     H19045   0.365   9.942   9.974  0.9433  0.2060  1.0052
  902MOL0     H19046   1.392   9.557   9.831  1.6062 -1.1769  1.9695
  902MOL0     H19047   1.614   9.458   9.814  0.4128 -0.2492 -0.5774
  902MOL0     H19048   2.198   9.672   9.553  1.6963 -0.7086  2.4729
  902MOL0     H19049   2.372   9.552   9.485 -0.7276  3.2238 -0.1787
  902MOL0     H19050   1.650   8.631   9.124 -1.1248 -1.0452  1.6376
  902MOL0     H19051   1.442   8.590   9.073  1.4785  0.7154  1.5445
  902MOL0     H19052   0.998   8.527   8.999  1.2946  0.6919 -0.1789
  902MOL0     H19053   0.779   8.410   8.918 -0.2188  1.2938 -0.2871
  902MOL0     H19054   0.777   8.104   8.641 -0.7856 -1.2280 -1.3228
  902MOL0     H19055   0.756   8.235   8.518  0.8298  1.0846  1.0397
  902MOL0     H19056   0.527   8.217   8.540  0.4597  2.4008  1.1902
  902MOL0     H19057   0.601   8.055   8.520  1.4325 -0.9152  1.9144
  902MOL0     H19058   0.477   8.165   8.769  1.3662 -0.7416  1.4854
  902MOL0     H19059   0.583   8.023   8.776  0.5619  1.6326  0.5638
  902MOL0     H19060   0.443   7.902   8.624  1.5312 -0.7511  2.3490
  902MOL0     H19061   0.349   7.953   8.764 -0.0804 -0.2921 -0.8554
  902MOL0     H19062   0.151   8.179   8.461  1.9587  0.1820 -1.7015
  902MOL0     H19063   0.971   8.247   8.590 -6.0903  1.6874  0.2767
  902MOL0     H19064   1.189   8.327   8.671 -1.9622 -0.9715 -2.0564
  903MOL0     O19065   1.748   9.929   0.601  0.1923  0.4112  0.9462
  903MOL0     C19066   1.735   9.822   0.548 -0.2308 -1.1778  0.8643
  903MOL0     O19067   1.620   9.752   0.553  0.2643 -0.0383 -0.7086
  903MOL0     C19068   1.502   9.801   0.584  0.5647 -0.7969 -0.0547
  903MOL0     C19069   1.474   9.897   0.685  0.6170  0.1702  0.2910
  903MOL0     C19070   1.342   9.940   0.713 -0.6513  0.0135 -0.8854
  903MOL0     C19071   1.241   9.905   0.626  0.1559  0.3210  0.5741
  903MOL0     O19072   1.110   9.952   0.636  0.0196 -0.9459 -0.4220
  903MOL0     C19073   1.069  10.044   0.741  0.0048  0.3084  0.2591
  903MOL0     C19074   0.920  10.056   0.766 -0.7692 -1.0289  0.4267
  903MOL0     C19075   0.845  10.151   0.671  0.3172  0.9386 -0.0160
  903MOL0     C19076   0.690  10.143   0.700  0.5219 -0.7054  1.0852
  903MOL0     C19077   0.640  10.256   0.596 -0.0294  0.5917  0.0148
  903MOL0     C19078   0.507  10.308   0.651 -0.0923  0.7303  0.4580
  903MOL0     C19079   0.395  10.217   0.613  1.1115 -0.6646  0.7190
  903MOL0     C19080   0.366  10.214   0.466  0.1519  0.6322  0.5271
  903MOL0     N19081   0.220  10.208   0.424  0.1614  0.8569 -1.0345
  903MOL0     C19082   0.111  10.174   0.498  0.2682 -0.0143 -0.2513
  903MOL0     C19083   0.011  10.185   0.409  0.2587 -0.1864 -0.6097
  903MOL0     C19084  -0.144  10.170   0.433  0.1081 -0.1941 -0.3178
  903MOL0     C19085  -0.245  10.260   0.366 -0.4861 -0.7749  0.1819
  903MOL0     C19086  -0.393  10.204   0.381 -0.2938  0.2427 -0.4871
  903MOL0     C19087  -0.445  10.236   0.514 -0.0485 -0.6520 -0.7590
  903MOL0     O19088  -0.567  10.168   0.518  1.0724 -0.0650  0.0108
  903MOL0     C19089  -0.687  10.227   0.472 -0.3693  0.2770  0.3556
  903MOL0     C19090  -0.698  10.340   0.398 -0.0943 -0.4493  0.0204
  903MOL0     C19091  -0.818  10.400   0.362 -0.7728 -0.7295 -0.2694
  903MOL0     C19092  -0.935  10.330   0.381  0.3876  0.1905  0.6860
  903MOL0     C19093  -1.066  10.394   0.357  0.0033  0.3260  0.0415
  903MOL0     O19094  -1.174  10.318   0.312  0.6022 -0.0295  0.4160
  903MOL0     C19095  -1.286  10.378   0.263  0.0956  0.1913 -0.1694
  903MOL0     C19096  -1.404  10.301   0.278  0.5347  0.0140  1.0342
  903MOL0     C19097  -1.524  10.363   0.248 -0.1524  0.4948 -0.1575
  903MOL0     C19098  -1.527  10.488   0.187 -0.2066  0.5472 -0.6500
  903MOL0     O19099  -1.640  10.551   0.176 -0.1376 -0.3283 -0.6347
  903MOL0     C19100  -1.712  10.515   0.056  0.7636 -0.2575  0.2841
  903MOL0     C19101  -1.841  10.434   0.077 -0.2065  0.3841 -0.1996
  903MOL0     C19102  -1.943  10.507   0.160  0.0463  0.3954 -0.4606
  903MOL0     C19103  -2.078  10.433   0.180  0.2176 -0.1885 -0.8276
  903MOL0     C19104  -2.062  10.315   0.269 -0.5101 -0.4895 -0.1544
  903MOL0     C19105  -2.166  10.210   0.246  0.0987  0.3165 -0.5905
  903MOL0     C19106  -2.291  10.242   0.317  0.7160 -0.6125 -0.4222
  903MOL0     C19107  -2.400  10.142   0.293  0.1812 -0.3658 -0.2196
  903MOL0    Cl19108  -2.438  10.119   0.122  0.1902 -0.5141 -0.0100
  903MOL0     C19109  -1.413  10.556   0.156 -0.0884  0.4367 -0.3612
  903MOL0     C19110  -1.292  10.503   0.195  0.2336 -0.1552  0.2942
  903MOL0     O19111  -1.063  10.518   0.371  0.3277 -0.1369  0.2350
  903MOL0     C19112  -0.933  10.203   0.444  0.1599  0.0225  0.0923
  903MOL0     C19113  -0.810  10.155   0.491 -0.7124  0.6249  1.6495
  903MOL0     N19114   0.066  10.190   0.285 -0.4680  0.4713  0.1842
  903MOL0     N19115   0.194  10.192   0.301  0.2223  0.1963  0.9771
  903MOL0     C19116   1.258   9.799   0.533 -1.1318 -0.3312  0.3347
  903MOL0     C19117   1.388   9.748   0.515  0.5894  0.2836 -0.3810
  903MOL0     C19118   1.853   9.764   0.472  0.5375 -0.4199  0.2730
  903MOL0     C19119   1.962   9.847   0.436 -0.3961 -0.1803 -0.2584
  903MOL0     C19120   2.062   9.787   0.352  0.3457  0.6818 -0.0874
  903MOL0     C19121   2.069   9.652   0.328 -0.6019  0.3592  0.6610
  903MOL0     O19122   2.163   9.598   0.247  0.2804  0.0935  0.2213
  903MOL0     C19123   2.123   9.483   0.159 -0.5231 -0.1733 -0.5992
  903MOL0     C19124   2.216   9.498   0.037  1.2826  0.0993  0.4584
  903MOL0     C19125   2.188   9.623  -0.052 -0.3996 -0.1478  0.5065
  903MOL0     C19126   2.308   9.656  -0.140  0.6822  0.3490  0.0664
  903MOL0     C19127   2.279   9.754  -0.244 -0.0969  0.7824 -0.4997
  903MOL0     C19128   2.259   9.823  -0.341 -0.6280 -0.2191  0.4176
  903MOL0     C19129   1.962   9.567   0.381 -0.0121 -0.1422  1.1744
  903MOL0     C19130   1.854   9.627   0.448  0.5132  0.6222  0.5226
  903MOL0     H19131   1.554   9.935   0.748  1.4479 -1.2180  0.1237
  903MOL0     H19132   1.312  10.005   0.794 -0.1684 -2.1701  1.1665
  903MOL0     H19133   1.115  10.143   0.736  0.0294  0.3524  1.1979
  903MOL0     H19134   1.104   9.994   0.831 -0.2987  0.4133  0.4395
  903MOL0     H19135   0.896  10.095   0.866 -1.4909 -1.0618  0.2656
  903MOL0     H19136   0.881   9.955   0.760 -0.5428 -1.0749 -0.2742
  903MOL0     H19137   0.878  10.125   0.570  1.6245 -0.6973  0.7796
  903MOL0     H19138   0.878  10.251   0.702 -1.0054  0.7491  2.2046
  903MOL0     H19139   0.649  10.043   0.680  0.4542 -0.9215  2.2606
  903MOL0     H19140   0.662  10.158   0.804 -0.3965 -0.5712  0.8248
  903MOL0     H19141   0.628  10.221   0.493  1.7561 -0.5335  0.1414
  903MOL0     H19142   0.708  10.341   0.589  0.1701  0.3920 -0.4684
  903MOL0     H19143   0.478  10.402   0.603  0.9297  0.1853 -1.3317
  903MOL0     H19144   0.514  10.323   0.759  3.6635  1.6466  0.2001
  903MOL0     H19145   0.415  10.116   0.650  3.8147 -0.9450 -1.2126
  903MOL0     H19146   0.302  10.250   0.659  0.8340  2.4054 -1.6700
  903MOL0     H19147   0.420  10.140   0.406 -1.3982  1.3417 -1.8910
  903MOL0     H19148   0.404  10.307   0.422 -2.5887  1.8225  0.5007
  903MOL0     H19149   0.099  10.163   0.606 -0.7748 -0.5540 -0.4047
  903MOL0     H19150  -0.145  10.187   0.541 -0.3557 -1.6252 -0.0759
  903MOL0     H19151  -0.176  10.067   0.414 -1.1054  0.3756 -1.5481
  903MOL0     H19152  -0.217  10.253   0.261  1.8864  3.1399  0.3681
  903MOL0     H19153  -0.238  10.364   0.399  0.4612 -0.2549 -1.5186
  903MOL0     H19154  -0.448  10.251   0.299 -1.5503  1.5279  1.0197
  903MOL0     H19155  -0.397  10.098   0.358 -2.2002  0.8772 -3.7200
  903MOL0     H19156  -0.451  10.344   0.531 -0.8756 -0.9504  1.0769
  903MOL0     H19157  -0.386  10.198   0.598  1.0216 -0.8862 -1.5930
  903MOL0     H19158  -0.598  10.380   0.381  0.5231 -2.1252 -0.5051
  903MOL0     H19159  -0.820  10.499   0.319  0.9609 -0.4440  0.2485
  903MOL0     H19160  -1.409  10.208   0.332 -1.7861 -0.2242  0.4895
  903MOL0     H19161  -1.611  10.301   0.270 -0.7452  0.3306 -2.6981
  903MOL0     H19162  -1.650  10.458  -0.014  1.1459  0.0012  0.4078
  903MOL0     H19163  -1.747  10.604   0.003  2.0879 -1.4177 -2.7943
  903MOL0     H19164  -1.817  10.336   0.120 -1.5667 -0.2934 -0.9132
  903MOL0     H19165  -1.889  10.399  -0.015  1.6270 -1.0894 -0.6897
  903MOL0     H19166  -1.970  10.602   0.115 -2.7095  1.5976  3.2135
  903MOL0     H19167  -1.891  10.525   0.255  2.7382 -3.1583 -1.0180
  903MOL0     H19168  -2.149  10.508   0.217  1.5339  0.8913 -0.3996
  903MOL0     H19169  -2.116  10.404   0.082 -3.2126  0.0922  0.2862
  903MOL0     H19170  -2.060  10.344   0.374  0.1715  0.2663 -0.3603
  903MOL0     H19171  -1.963  10.279   0.240 -1.0117 -3.9977  2.0044
  903MOL0     H19172  -2.117  10.121   0.288 -1.7443 -1.0667 -1.2523
  903MOL0     H19173  -2.180  10.186   0.141 -1.0322  1.7250 -0.7921
  903MOL0     H19174  -2.286  10.263   0.425 -2.5502  1.0942 -0.4879
  903MOL0     H19175  -2.332  10.331   0.268 -1.9087 -1.6351 -0.2548
  903MOL0     H19176  -2.491  10.186   0.333 -1.2721 -0.6465 -2.9844
  903MOL0     H19177  -2.379  10.046   0.342 -1.9382 -0.4877  0.5391
  903MOL0     H19178  -1.418  10.661   0.128  1.6989  1.2987  2.1701
  903MOL0     H19179  -1.204  10.562   0.172  0.1217 -0.3104 -0.5868
  903MOL0     H19180  -1.027  10.148   0.441  0.0625  0.1899 -3.1912
  903MOL0     H19181  -0.810  10.057   0.538 -0.3468 -1.7085 -2.7221
  903MOL0     H19182   1.169   9.763   0.481  1.6902 -1.2585 -4.4332
  903MOL0     H19183   1.410   9.676   0.436 -1.2006  0.1435 -0.7948
  903MOL0     H19184   1.964   9.953   0.461  2.3894  0.8211 -3.8382
  903MOL0     H19185   2.146   9.848   0.318  0.6473  0.7434  0.7370
  903MOL0     H19186   2.019   9.478   0.126 -0.3590  0.6417 -1.3044
  903MOL0     H19187   2.153   9.388   0.205  0.6617 -0.3024 -1.5860
  903MOL0     H19188   2.320   9.501   0.071  1.8508 -0.5947 -1.1184
  903MOL0     H19189   2.198   9.408  -0.023 -1.1849 -0.7672  2.3421
  903MOL0     H19190   2.164   9.714   0.002  0.5611  0.0253  0.6552
  903MOL0     H19191   2.102   9.594  -0.113  0.5515  0.0288 -0.9659
  903MOL0     H19192   2.400   9.688  -0.089  0.8381  3.0214 -1.6849
  903MOL0     H19193   2.328   9.562  -0.192 -0.4851 -0.2775  0.7083
  903MOL0     H19194   2.243   9.872  -0.435 -0.2870  1.4129  1.1798
  903MOL0     H19195   1.964   9.460   0.362  0.4556 -0.5840  3.4193
  903MOL0     H19196   1.767   9.565   0.467  0.5602  0.3411 -0.1695
  904MOL0     O19197   0.722   6.951   4.859  0.5000 -0.1427  0.0326
  904MOL0     C19198   0.745   6.999   4.746  0.5285  0.1086  0.4869
  904MOL0     O19199   0.681   7.103   4.688  0.1868 -0.6920 -0.1665
  904MOL0     C19200   0.571   7.126   4.762  0.4588  0.1215 -0.4132
  904MOL0     C19201   0.569   7.248   4.834 -0.2050 -0.0119  0.0490
  904MOL0     C19202   0.448   7.299   4.879 -0.0235 -0.0047 -0.2883
  904MOL0     C19203   0.334   7.222   4.863  0.1665 -0.9065 -1.3464
  904MOL0     O19204   0.220   7.300   4.891 -0.3828  0.3177  0.4341
  904MOL0     C19205   0.096   7.230   4.897 -0.0493 -0.2280 -0.7027
  904MOL0     C19206   0.005   7.263   5.015 -0.1269  0.1498  0.3166
  904MOL0     C19207  -0.031   7.409   5.026  0.2457 -0.1371  0.5594
  904MOL0     C19208  -0.146   7.441   5.131  0.6971 -0.4054  0.3820
  904MOL0     C19209  -0.279   7.399   5.088  0.0436 -0.3197 -0.0505
  904MOL0     C19210  -0.387   7.449   5.188 -0.2713 -0.3239 -0.0258
  904MOL0     C19211  -0.383   7.373   5.319  0.3576  0.0755 -0.4215
  904MOL0     C19212  -0.486   7.421   5.417  0.4957 -0.6039  0.8272
  904MOL0     N19213  -0.622   7.436   5.352  0.3060 -1.2298 -0.8052
  904MOL0     C19214  -0.698   7.332   5.308  0.0896  0.1656  0.0541
  904MOL0     C19215  -0.808   7.391   5.250  0.6986  0.7199  0.5336
  904MOL0     C19216  -0.919   7.342   5.165 -0.5537 -0.3646 -0.0948
  904MOL0     C19217  -1.063   7.390   5.224 -0.2648  0.1241  0.5623
  904MOL0     C19218  -1.170   7.379   5.119 -0.4759  0.6122  0.5499
  904MOL0     C19219  -1.282   7.481   5.149  0.1861 -0.2215  1.0251
  904MOL0     O19220  -1.365   7.487   5.024 -0.2108 -0.2937  0.6252
  904MOL0     C19221  -1.476   7.414   5.014  0.5687  0.1634  0.5800
  904MOL0     C19222  -1.506   7.316   5.113  0.6103 -0.9941  1.1893
  904MOL0     C19223  -1.604   7.223   5.074  0.8390  0.0931 -0.5872
  904MOL0     C19224  -1.672   7.217   4.955  0.1090  0.1784 -0.6469
  904MOL0     C19225  -1.779   7.116   4.919  0.2856  0.1646 -0.6564
  904MOL0     O19226  -1.860   7.141   4.807 -0.2443  0.3160 -0.2058
  904MOL0     C19227  -1.988   7.102   4.795 -0.5282 -0.2017  0.5117
  904MOL0     C19228  -2.041   7.071   4.667 -0.6119 -0.1735 -0.7799
  904MOL0     C19229  -2.171   7.034   4.662 -0.1770  0.6752  0.2712
  904MOL0     C19230  -2.253   7.015   4.771  0.3505  0.3304  1.2679
  904MOL0     O19231  -2.376   6.956   4.770 -0.0174 -0.2168 -0.1860
  904MOL0     C19232  -2.449   6.925   4.657 -0.4013  0.7603 -0.0192
  904MOL0     C19233  -2.532   7.045   4.615  0.5735  0.9460  0.7489
  904MOL0     C19234  -2.635   7.085   4.719 -0.1659  0.0935 -0.7243
  904MOL0     C19235  -2.718   7.208   4.685 -0.2304  0.3009 -0.5201
  904MOL0     C19236  -2.768   7.285   4.801  0.3902 -0.6181 -0.0606
  904MOL0     C19237  -2.841   7.207   4.905  0.1349  0.7638  0.4463
  904MOL0     C19238  -2.910   7.300   4.998 -0.3629 -0.6214  0.1885
  904MOL0     C19239  -3.040   7.351   4.933  0.7163  0.2171 -0.4602
  904MOL0    Cl19240  -3.163   7.396   5.061 -0.1432 -0.0478  0.1192
  904MOL0     C19241  -2.201   7.048   4.894 -1.2103  0.8248  0.1317
  904MOL0     C19242  -2.070   7.090   4.908 -0.9899  1.0649 -0.3334
  904MOL0     O19243  -1.797   7.028   5.003 -0.5407  0.4079 -0.1079
  904MOL0     C19244  -1.645   7.331   4.870 -0.0472  0.0593 -0.5023
  904MOL0     C19245  -1.560   7.430   4.905 -0.5105 -0.2775  0.5759
  904MOL0     N19246  -0.803   7.522   5.277  0.3715  0.3248  0.0478
  904MOL0     N19247  -0.694   7.549   5.348  0.5034  0.1747  0.4992
  904MOL0     C19248   0.341   7.090   4.806  0.2470  0.2668 -0.0142
  904MOL0     C19249   0.461   7.041   4.750  0.7208 -0.3073 -0.3533
  904MOL0     C19250   0.872   6.949   4.679  1.4734  0.8244 -0.1264
  904MOL0     C19251   0.941   6.845   4.739 -0.3548 -0.1151 -0.4120
  904MOL0     C19252   1.054   6.787   4.686  0.7870  0.8068  0.5270
  904MOL0     C19253   1.109   6.840   4.565  0.5912 -0.5390 -0.4952
  904MOL0     O19254   1.218   6.783   4.500  0.7738  0.0935 -0.1294
  904MOL0     C19255   1.267   6.651   4.545  0.8762 -0.4824  0.4828
  904MOL0     C19256   1.376   6.685   4.640 -0.1961 -0.2981  0.8315
  904MOL0     C19257   1.455   6.564   4.676 -0.5503 -0.1783 -0.2814
  904MOL0     C19258   1.558   6.517   4.572 -0.6827  0.0719  0.0152
  904MOL0     C19259   1.693   6.565   4.591 -0.4590  0.1958  0.2088
  904MOL0     C19260   1.806   6.597   4.611  0.2602 -0.3029 -1.4223
  904MOL0     C19261   1.038   6.948   4.503  0.5779 -0.1619  0.4900
  904MOL0     C19262   0.926   7.004   4.568  0.1306 -0.3445  0.0272
  904MOL0     H19263   0.656   7.306   4.863 -0.8783  0.5772  0.9503
  904MOL0     H19264   0.442   7.390   4.938  0.9622 -1.7576  2.7980
  904MOL0     H19265   0.096   7.123   4.920 -0.8171  0.5293  3.7891
  904MOL0     H19266   0.046   7.252   4.802 -2.3496  0.2616  0.5368
  904MOL0     H19267   0.055   7.233   5.107  1.4354 -0.5883 -0.7236
  904MOL0     H19268  -0.091   7.211   5.001  0.2662 -0.5280  0.0657
  904MOL0     H19269  -0.065   7.447   4.929  6.9720  4.7879 -0.6340
  904MOL0     H19270   0.048   7.481   5.047  0.3917  0.1974 -1.0331
  904MOL0     H19271  -0.126   7.383   5.222  0.5847  2.1890  2.1762
  904MOL0     H19272  -0.149   7.548   5.154 -0.8413 -0.7423  1.9389
  904MOL0     H19273  -0.294   7.290   5.083 -0.3463 -0.2886  0.3386
  904MOL0     H19274  -0.297   7.430   4.984  2.0350  0.3330 -0.2260
  904MOL0     H19275  -0.479   7.442   5.129 -1.2336  2.2715  1.0356
  904MOL0     H19276  -0.382   7.556   5.212  2.0415 -0.3605 -0.0846
  904MOL0     H19277  -0.399   7.267   5.298  1.0106 -0.2426  0.5959
  904MOL0     H19278  -0.288   7.375   5.372 -0.3216  3.0762  0.8976
  904MOL0     H19279  -0.456   7.520   5.454 -0.0996  1.5929 -3.7949
  904MOL0     H19280  -0.495   7.351   5.500 -0.5082  0.0013  1.2491
  904MOL0     H19281  -0.662   7.230   5.314  0.9508  0.5555  2.9639
  904MOL0     H19282  -0.911   7.234   5.153 -0.1939 -0.1104 -2.7296
  904MOL0     H19283  -0.903   7.394   5.070  0.6189 -1.4473 -0.5104
  904MOL0     H19284  -1.051   7.497   5.242  1.4159  0.2617 -1.1130
  904MOL0     H19285  -1.085   7.332   5.314  1.4744 -4.0284 -1.4234
  904MOL0     H19286  -1.134   7.398   5.018 -0.8315  0.5639  0.4147
  904MOL0     H19287  -1.202   7.276   5.136  1.3238 -0.0742 -0.0323
  904MOL0     H19288  -1.225   7.574   5.158  2.5410 -1.7066  2.5549
  904MOL0     H19289  -1.332   7.457   5.243  2.5397 -1.1468  2.1089
  904MOL0     H19290  -1.447   7.294   5.201  0.1236  1.7190  2.3016
  904MOL0     H19291  -1.612   7.148   5.152 -2.1265  1.6533  0.7636
  904MOL0     H19292  -1.991   7.085   4.572  0.0664 -2.3870 -0.8091
  904MOL0     H19293  -2.201   7.012   4.560  2.0308 -0.1432 -0.2740
  904MOL0     H19294  -2.519   6.847   4.689  0.2667  0.6635  1.2957
  904MOL0     H19295  -2.390   6.890   4.573 -0.4923  0.9359 -0.1568
  904MOL0     H19296  -2.577   7.029   4.516 -2.0195 -0.0744  1.9976
  904MOL0     H19297  -2.458   7.124   4.596  0.1847  0.6015 -3.1113
  904MOL0     H19298  -2.574   7.099   4.809  1.1871 -0.4051 -1.5270
  904MOL0     H19299  -2.706   7.007   4.747  1.4989 -1.2922 -0.1612
  904MOL0     H19300  -2.662   7.261   4.608  2.3037 -1.9046 -0.3816
  904MOL0     H19301  -2.804   7.162   4.635 -1.6266 -1.6586  3.2174
  904MOL0     H19302  -2.849   7.354   4.775  0.2817 -0.3455  0.9553
  904MOL0     H19303  -2.695   7.352   4.848 -1.0299 -1.0985  3.0290
  904MOL0     H19304  -2.762   7.150   4.955 -0.3442  0.3832  0.7744
  904MOL0     H19305  -2.911   7.144   4.849 -1.6627  0.7402  2.5666
  904MOL0     H19306  -2.933   7.259   5.097 -4.4448  0.4152 -0.1537
  904MOL0     H19307  -2.842   7.385   5.013 -1.3503  0.2147  0.0146
  904MOL0     H19308  -3.089   7.269   4.880 -0.2091  1.8347 -2.2175
  904MOL0     H19309  -3.039   7.439   4.868  0.7303 -0.2649 -1.1220
  904MOL0     H19310  -2.251   7.021   4.987 -0.5032 -0.6264  0.1176
  904MOL0     H19311  -2.023   7.107   5.004  0.0196 -0.9674 -0.4159
  904MOL0     H19312  -1.710   7.339   4.784 -1.9930 -0.4096  0.8487
  904MOL0     H19313  -1.551   7.519   4.843 -2.0789 -0.0528  0.6304
  904MOL0     H19314   0.247   7.039   4.786  1.0547 -0.2977 -2.7016
  904MOL0     H19315   0.471   6.946   4.699  2.6233 -1.5881  2.1584
  904MOL0     H19316   0.913   6.790   4.828  0.5825  0.3148  0.1520
  904MOL0     H19317   1.097   6.697   4.729  0.3077 -1.2094 -2.8370
  904MOL0     H19318   1.307   6.622   4.448 -2.5158 -2.2098 -0.5701
  904MOL0     H19319   1.184   6.586   4.575  0.4569 -0.0995  0.1693
  904MOL0     H19320   1.441   6.767   4.608 -2.3444  2.2226  2.4595
  904MOL0     H19321   1.334   6.727   4.732  1.4164  1.9810  0.6088
  904MOL0     H19322   1.395   6.477   4.706  2.2293 -2.0546  0.1858
  904MOL0     H19323   1.516   6.589   4.763 -3.1462 -1.2286  2.0050
  904MOL0     H19324   1.563   6.408   4.579  1.6796  0.2134  2.3105
  904MOL0     H19325   1.523   6.553   4.475 -1.1543  0.8353  0.4671
  904MOL0     H19326   1.899   6.645   4.632 -0.5469 -0.7724  6.0550
  904MOL0     H19327   1.080   6.998   4.416  1.9195  0.3658  1.4087
  904MOL0     H19328   0.877   7.087   4.518  4.8382  1.1884 -2.6759
  905MOL0     O19329   8.533   0.353   6.382 -0.1176 -0.3114 -0.5013
  905MOL0     C19330   8.642   0.372   6.424 -1.0902 -0.1492 -0.3659
  905MOL0     O19331   8.682   0.407   6.553 -0.4562  0.2994  0.0627
  905MOL0     C19332   8.577   0.431   6.644 -0.7413 -0.2394  0.0804
  905MOL0     C19333   8.452   0.366   6.643  0.8739 -0.5945  0.6473
  905MOL0     C19334   8.349   0.420   6.726  0.0998  0.0765  0.5115
  905MOL0     C19335   8.374   0.535   6.803 -0.5592 -0.2775  0.4387
  905MOL0     O19336   8.278   0.576   6.889  0.1698  0.7478  0.3370
  905MOL0     C19337   8.188   0.670   6.837  0.6581 -1.2607 -0.8305
  905MOL0     C19338   8.069   0.607   6.759 -0.4708 -0.9319 -0.5583
  905MOL0     C19339   8.001   0.485   6.829 -0.0966  0.4864  0.1836
  905MOL0     C19340   7.908   0.522   6.950  0.4807  0.0379  0.7730
  905MOL0     C19341   7.764   0.520   6.901 -0.2469 -0.1099 -0.3735
  905MOL0     C19342   7.671   0.543   7.023 -0.1468 -0.1483  0.6254
  905MOL0     C19343   7.523   0.514   6.992 -0.2234  0.4014 -0.2804
  905MOL0     C19344   7.469   0.367   6.970  0.6104 -0.4915 -0.3040
  905MOL0     N19345   7.519   0.292   7.088 -0.0772 -1.0932  0.6996
  905MOL0     C19346   7.619   0.197   7.097 -0.3780  0.1751 -0.3167
  905MOL0     C19347   7.603   0.152   7.227 -0.4055  0.4239 -0.2887
  905MOL0     C19348   7.680   0.044   7.308 -0.4323  0.0601 -0.0549
  905MOL0     C19349   7.786   0.118   7.390 -0.3243 -0.1949 -0.4981
  905MOL0     C19350   7.902   0.153   7.302 -0.5190  0.7606 -1.2645
  905MOL0     C19351   8.005   0.226   7.390 -0.7575  0.2140  0.3974
  905MOL0     O19352   8.091   0.302   7.297 -0.4911 -0.5708  0.5110
  905MOL0     C19353   8.198   0.246   7.232  0.3768 -1.0071 -0.7021
  905MOL0     C19354   8.250   0.119   7.264  0.8583 -0.3290  0.0836
  905MOL0     C19355   8.355   0.064   7.194  0.0518  0.2820 -0.1946
  905MOL0     C19356   8.411   0.135   7.081 -0.5752 -0.0465 -0.1060
  905MOL0     C19357   8.503   0.063   6.992  0.4444 -1.2164 -0.2813
  905MOL0     O19358   8.564   0.138   6.893  0.3289  0.7341  0.6061
  905MOL0     C19359   8.669   0.094   6.825  0.9488  0.6580 -0.2482
  905MOL0     C19360   8.671  -0.026   6.755  0.2880  0.8643 -0.1311
  905MOL0     C19361   8.770  -0.063   6.672 -0.0856  0.3860  0.5235
  905MOL0     C19362   8.875   0.029   6.657  0.9830  0.5330  0.6454
  905MOL0     O19363   8.956  -0.007   6.560  0.2938  0.6625  0.5075
  905MOL0     C19364   9.079   0.069   6.541 -0.2705 -0.8448  0.9093
  905MOL0     C19365   9.168   0.003   6.438 -0.3362 -1.1493  0.1201
  905MOL0     C19366   9.288   0.097   6.417  0.1397 -0.8516  0.6992
  905MOL0     C19367   9.383   0.019   6.324 -0.8091  0.4887 -0.4863
  905MOL0     C19368   9.495   0.114   6.286  0.5395  0.3622  0.5241
  905MOL0     C19369   9.592   0.048   6.187  0.5002 -0.3747 -1.1754
  905MOL0     C19370   9.668   0.154   6.121 -0.7877  0.4774  0.4163
  905MOL0     C19371   9.789   0.093   6.056 -0.6542 -0.4306  0.8665
  905MOL0    Cl19372   9.910   0.198   5.969 -0.0390 -0.0168 -0.4843
  905MOL0     C19373   8.872   0.151   6.724  0.6817 -0.1465  0.0321
  905MOL0     C19374   8.770   0.181   6.817 -0.0450 -0.3734  0.7028
  905MOL0     O19375   8.515  -0.057   7.018 -0.2296 -0.3351  0.2850
  905MOL0     C19376   8.363   0.261   7.048 -0.1086  0.4740  0.7266
  905MOL0     C19377   8.255   0.320   7.126  0.8851  1.2736 -0.8538
  905MOL0     N19378   7.491   0.212   7.285  0.2297 -0.4217 -0.5321
  905MOL0     N19379   7.448   0.302   7.202  0.4433  0.4053 -0.2225
  905MOL0     C19380   8.505   0.587   6.818  0.0765  0.6883  0.1757
  905MOL0     C19381   8.606   0.539   6.737 -0.3378 -0.7353  0.0957
  905MOL0     C19382   8.753   0.338   6.334 -0.1728  0.1157  0.4464
  905MOL0     C19383   8.890   0.344   6.373 -1.1833  0.3790 -0.2091
  905MOL0     C19384   8.998   0.325   6.289  0.0019 -0.9512 -0.7729
  905MOL0     C19385   8.969   0.306   6.147  0.5638 -0.1519  0.2653
  905MOL0     O19386   9.065   0.310   6.050 -0.1164  0.4118  0.2351
  905MOL0     C19387   9.208   0.315   6.077  0.6156 -0.2289  0.7312
  905MOL0     C19388   9.282   0.339   5.947  0.4683 -0.4064 -0.4457
  905MOL0     C19389   9.404   0.438   5.964 -0.3538 -0.2677  0.2912
  905MOL0     C19390   9.521   0.420   5.867  0.1120  1.5472  0.3027
  905MOL0     C19391   9.640   0.481   5.932 -0.2532 -0.3321  0.5519
  905MOL0     C19392   9.735   0.541   5.976 -0.4967 -0.6461 -1.2427
  905MOL0     C19393   8.837   0.284   6.107  0.6038  0.1005 -0.6504
  905MOL0     C19394   8.738   0.308   6.201  0.2171 -1.0877 -0.1581
  905MOL0     H19395   8.428   0.269   6.600 -2.8620  0.7442 -0.6853
  905MOL0     H19396   8.260   0.357   6.728  1.4952 -2.0003  1.5249
  905MOL0     H19397   8.249   0.736   6.774 -1.3508  1.5935 -0.0148
  905MOL0     H19398   8.142   0.727   6.918 -1.1753 -0.8623 -2.0862
  905MOL0     H19399   8.103   0.568   6.663 -0.5060 -0.4380 -0.7749
  905MOL0     H19400   7.992   0.677   6.727  0.6531  0.3126 -0.6606
  905MOL0     H19401   8.079   0.430   6.882 -0.5810  0.9186  1.3763
  905MOL0     H19402   7.952   0.410   6.766  0.3568 -0.6842  1.1913
  905MOL0     H19403   7.912   0.444   7.026  1.0862 -1.4528 -0.7101
  905MOL0     H19404   7.935   0.616   6.999  0.9811  0.6423 -0.5860
  905MOL0     H19405   7.752   0.417   6.867 -0.2068 -0.7598  1.4651
  905MOL0     H19406   7.741   0.589   6.819 -2.5874 -0.5989 -0.2199
  905MOL0     H19407   7.680   0.646   7.059 -1.4255 -0.1315  0.9430
  905MOL0     H19408   7.684   0.479   7.112 -0.4883 -1.3462 -0.1618
  905MOL0     H19409   7.459   0.539   7.077 -1.5250 -0.2316 -1.0423
  905MOL0     H19410   7.485   0.581   6.914  0.0063  2.5322  1.3362
  905MOL0     H19411   7.508   0.326   6.877  0.5544  0.7722 -0.9093
  905MOL0     H19412   7.360   0.364   6.972  0.4649  2.0304  1.7117
  905MOL0     H19413   7.706   0.176   7.036  0.7345 -0.7796  1.5084
  905MOL0     H19414   7.727  -0.028   7.241  0.8156  1.5016 -0.8085
  905MOL0     H19415   7.617  -0.016   7.373  0.3318  0.0033  0.6418
  905MOL0     H19416   7.825   0.061   7.474  4.6070 -0.6889 -2.7505
  905MOL0     H19417   7.740   0.205   7.440  0.7452  0.4308 -0.5710
  905MOL0     H19418   7.943   0.066   7.249  0.2116 -1.1619  2.1345
  905MOL0     H19419   7.863   0.217   7.223 -1.9308  0.9856 -0.4211
  905MOL0     H19420   8.059   0.146   7.440  2.2203  1.2216 -1.0044
  905MOL0     H19421   7.953   0.286   7.465 -1.9007  0.7881 -0.8019
  905MOL0     H19422   8.212   0.060   7.347 -1.6184  1.3581  0.2615
  905MOL0     H19423   8.374  -0.040   7.217 -1.9074 -0.4397 -1.5866
  905MOL0     H19424   8.580  -0.085   6.756  0.1721  1.0399 -0.1935
  905MOL0     H19425   8.769  -0.148   6.605  1.5504  0.8561 -0.1515
  905MOL0     H19426   9.137   0.070   6.633  1.5890  1.4246 -0.1807
  905MOL0     H19427   9.047   0.168   6.507 -2.5427 -1.7057  0.3353
  905MOL0     H19428   9.114  -0.016   6.345  1.0219 -0.2313 -0.8958
  905MOL0     H19429   9.203  -0.094   6.472  1.6152 -1.0453 -1.3628
  905MOL0     H19430   9.322   0.124   6.518  0.9364 -1.0927  0.5053
  905MOL0     H19431   9.261   0.190   6.367  1.4943 -1.3333 -1.0000
  905MOL0     H19432   9.426  -0.065   6.381  1.6143 -0.3808 -3.3273
  905MOL0     H19433   9.335  -0.023   6.235  0.2014 -0.5545 -0.5711
  905MOL0     H19434   9.537   0.154   6.380 -2.3563  1.0067  1.6540
  905MOL0     H19435   9.445   0.194   6.231  1.1110 -0.1057 -0.7144
  905MOL0     H19436   9.551  -0.027   6.120  0.8786  0.4908 -2.4084
  905MOL0     H19437   9.659  -0.008   6.253  0.3036 -1.2726 -1.7208
  905MOL0     H19438   9.605   0.203   6.047 -2.1130  1.5189  2.1371
  905MOL0     H19439   9.707   0.238   6.180 -0.9015 -0.0579  1.2812
  905MOL0     H19440   9.769   0.005   5.995  2.6218  0.0816 -1.2055
  905MOL0     H19441   9.857   0.052   6.131  2.9331  0.0523 -1.8473
  905MOL0     H19442   8.960   0.215   6.723  0.0478  1.0893  3.8912
  905MOL0     H19443   8.781   0.271   6.876  4.2336  0.1541 -0.5411
  905MOL0     H19444   8.409   0.304   6.960  1.4800 -2.7457 -0.1715
  905MOL0     H19445   8.222   0.421   7.107 -2.4702  0.8286  1.6797
  905MOL0     H19446   8.520   0.671   6.885  2.9570  1.2268 -0.9983
  905MOL0     H19447   8.702   0.589   6.730 -1.5940  2.1027  1.4441
  905MOL0     H19448   8.911   0.359   6.478  2.8902 -2.3248 -0.4221
  905MOL0     H19449   9.099   0.338   6.327 -0.0528  0.4056 -1.0276
  905MOL0     H19450   9.231   0.215   6.114 -1.7665 -0.4196  1.9234
  905MOL0     H19451   9.225   0.391   6.154 -1.3877  2.9064 -1.6794
  905MOL0     H19452   9.318   0.242   5.909 -1.8762 -0.1145 -3.8501
  905MOL0     H19453   9.209   0.381   5.878  4.2867  4.8862 -1.8888
  905MOL0     H19454   9.435   0.433   6.068  1.7494  0.4109 -0.2638
  905MOL0     H19455   9.366   0.540   5.958  0.7938  0.2502  1.4310
  905MOL0     H19456   9.542   0.313   5.852 -2.2280  0.9961  0.4983
  905MOL0     H19457   9.496   0.464   5.770  1.6388  0.4168 -0.6522
  905MOL0     H19458   9.825   0.595   5.997  1.0877 -2.3109 -3.2711
  905MOL0     H19459   8.828   0.276   6.000 -0.7911 -0.8137 -0.4913
  905MOL0     H19460   8.638   0.277   6.172 -0.3119 -0.0581  0.5186
  906MOL0     O19461   0.027   6.391   2.110  0.8067  0.8511  0.0310
  906MOL0     C19462   0.114   6.435   2.040 -0.3479 -0.6162  0.5445
  906MOL0     O19463   0.104   6.501   1.917 -0.0073  0.2345 -0.4234
  906MOL0     C19464  -0.016   6.486   1.861  0.0499  0.5392  0.1369
  906MOL0     C19465  -0.078   6.361   1.830  0.2190  0.9471  0.4623
  906MOL0     C19466  -0.194   6.366   1.748 -0.5474  0.6583  0.9306
  906MOL0     C19467  -0.254   6.487   1.701 -0.0241 -1.0915  0.2404
  906MOL0     O19468  -0.357   6.500   1.610 -0.0877 -0.0508 -0.1318
  906MOL0     C19469  -0.416   6.375   1.583 -0.1062 -0.3336  0.8085
  906MOL0     C19470  -0.548   6.407   1.521  0.3310 -0.2247 -0.3585
  906MOL0     C19471  -0.535   6.473   1.377 -0.2287  0.8857 -0.0977
  906MOL0     C19472  -0.651   6.553   1.320  1.0846 -0.7516  0.5622
  906MOL0     C19473  -0.748   6.457   1.247  0.2817 -0.2325  0.3954
  906MOL0     C19474  -0.806   6.351   1.341  0.3385  0.5257  0.0267
  906MOL0     C19475  -0.917   6.284   1.282  0.1508 -0.0870 -0.5489
  906MOL0     C19476  -0.973   6.163   1.367 -1.2242 -0.3198  0.5317
  906MOL0     N19477  -1.030   6.192   1.492 -0.2382 -0.0122 -0.4372
  906MOL0     C19478  -1.122   6.285   1.511  0.5274  0.6878  0.2725
  906MOL0     C19479  -1.130   6.279   1.646 -0.0493 -0.5371  0.2742
  906MOL0     C19480  -1.213   6.369   1.724 -0.3154  0.0375 -0.3368
  906MOL0     C19481  -1.347   6.323   1.769 -0.1929 -0.5367 -0.1602
  906MOL0     C19482  -1.340   6.189   1.853  0.7409 -0.0330  0.1281
  906MOL0     C19483  -1.476   6.139   1.902  0.4284  0.7603 -0.1257
  906MOL0     O19484  -1.566   6.122   1.795  0.3313  0.5187 -0.1061
  906MOL0     C19485  -1.699   6.100   1.821  0.8344 -0.5729 -0.0821
  906MOL0     C19486  -1.785   6.062   1.709  0.1654 -0.1879 -0.6729
  906MOL0     C19487  -1.926   6.035   1.729 -0.4342  0.0174 -0.9751
  906MOL0     C19488  -1.985   6.054   1.855  1.2953 -0.0142  0.5776
  906MOL0     C19489  -2.135   6.020   1.873 -0.9978  0.3847  0.5175
  906MOL0     O19490  -2.190   6.031   1.995 -0.2145 -0.5823 -0.4414
  906MOL0     C19491  -2.315   5.985   2.011 -1.4885 -0.6037  0.7727
  906MOL0     C19492  -2.416   6.078   2.028  0.2410 -0.0441  0.4531
  906MOL0     C19493  -2.536   6.047   2.077  0.3338 -0.2976  0.0884
  906MOL0     C19494  -2.566   5.912   2.093 -0.9809 -0.3869 -0.0815
  906MOL0     O19495  -2.688   5.876   2.147  0.4573 -0.6154 -0.1003
  906MOL0     C19496  -2.697   5.761   2.232 -0.0597 -0.7546  0.6257
  906MOL0     C19497  -2.840   5.768   2.303  0.5368 -0.3103 -0.2867
  906MOL0     C19498  -2.891   5.912   2.327 -0.8105 -0.4919  0.6879
  906MOL0     C19499  -2.997   5.924   2.436  0.7957 -0.3702 -0.6624
  906MOL0     C19500  -3.085   6.046   2.424  0.0872  0.3691  0.2411
  906MOL0     C19501  -3.225   6.028   2.489 -0.7623 -0.0105  0.1644
  906MOL0     C19502  -3.226   6.024   2.639 -0.2426  0.0951 -0.4919
  906MOL0     C19503  -3.230   5.884   2.688 -0.2612  0.3814 -0.1876
  906MOL0    Cl19504  -3.307   5.881   2.850 -0.1451  0.1921 -0.2125
  906MOL0     C19505  -2.467   5.808   2.077 -0.0816  0.9155 -0.1303
  906MOL0     C19506  -2.343   5.849   2.032 -0.5111 -0.1027  0.1141
  906MOL0     O19507  -2.200   6.001   1.772  0.0719 -0.2273  0.6414
  906MOL0     C19508  -1.908   6.106   1.958 -0.3219 -0.4452 -0.1519
  906MOL0     C19509  -1.772   6.135   1.938 -0.5814 -0.1408 -0.3610
  906MOL0     N19510  -1.053   6.181   1.702 -0.2920  1.0211  0.2027
  906MOL0     N19511  -0.979   6.128   1.603 -0.9551  0.2880 -0.2105
  906MOL0     C19512  -0.190   6.609   1.734 -0.8612 -0.6577  0.0242
  906MOL0     C19513  -0.074   6.601   1.811  0.2976 -0.4052 -0.7342
  906MOL0     C19514   0.252   6.424   2.092 -0.1031  0.5645 -0.0193
  906MOL0     C19515   0.282   6.380   2.222 -0.6891  0.6384  0.2801
  906MOL0     C19516   0.407   6.387   2.284 -0.4276 -0.2269 -0.4565
  906MOL0     C19517   0.516   6.421   2.207 -0.1574  0.4740  1.1083
  906MOL0     O19518   0.649   6.433   2.238 -0.6871  0.3212  0.4961
  906MOL0     C19519   0.680   6.373   2.362 -0.3825 -0.0035 -0.4543
  906MOL0     C19520   0.839   6.359   2.374  0.9789 -0.1762  0.7056
  906MOL0     C19521   0.877   6.281   2.504  0.1196 -0.5499 -0.3189
  906MOL0     C19522   1.026   6.235   2.498 -0.2855 -0.0226  0.6414
  906MOL0     C19523   1.126   6.346   2.495 -0.1989  0.0723  1.2375
  906MOL0     C19524   1.190   6.448   2.482  0.0911  0.5887 -0.4444
  906MOL0     C19525   0.489   6.458   2.076 -1.0243 -0.4529  0.0748
  906MOL0     C19526   0.363   6.463   2.017  1.0837 -0.7941 -0.5283
  906MOL0     H19527  -0.040   6.272   1.878 -1.4822  0.7417  1.5150
  906MOL0     H19528  -0.238   6.276   1.707  0.4746  1.4577 -2.1882
  906MOL0     H19529  -0.435   6.324   1.678 -0.6221  0.1711  0.9827
  906MOL0     H19530  -0.351   6.320   1.514  3.7762  0.8812  3.1838
  906MOL0     H19531  -0.597   6.475   1.592  0.1978  0.0802 -0.7375
  906MOL0     H19532  -0.610   6.319   1.536 -0.2643  0.6340  3.1997
  906MOL0     H19533  -0.507   6.396   1.305  0.7182  0.9428  0.1870
  906MOL0     H19534  -0.450   6.543   1.385  1.6574 -1.0927 -1.5488
  906MOL0     H19535  -0.719   6.590   1.397 -2.2505 -1.8685 -1.6363
  906MOL0     H19536  -0.631   6.635   1.251 -1.8575  0.1983  0.7205
  906MOL0     H19537  -0.704   6.397   1.167 -2.8879 -0.9062 -1.0149
  906MOL0     H19538  -0.827   6.518   1.201 -0.6292 -0.3530  1.7468
  906MOL0     H19539  -0.836   6.394   1.437  0.9912 -2.0434  1.4691
  906MOL0     H19540  -0.716   6.290   1.353  1.9722  2.3977 -1.7466
  906MOL0     H19541  -1.001   6.351   1.261 -1.4574 -1.1294  2.1010
  906MOL0     H19542  -0.894   6.239   1.185  0.3198  3.7705 -2.5041
  906MOL0     H19543  -0.883   6.102   1.376  0.5683  1.8025 -1.6031
  906MOL0     H19544  -1.044   6.117   1.297  0.9117  0.7577 -2.5748
  906MOL0     H19545  -1.180   6.339   1.437 -0.0650 -1.5544 -1.0028
  906MOL0     H19546  -1.245   6.456   1.665  1.2158 -0.1221 -1.4679
  906MOL0     H19547  -1.153   6.406   1.807 -2.8030 -2.7948  3.0495
  906MOL0     H19548  -1.401   6.301   1.676  4.8447  0.7602 -3.7862
  906MOL0     H19549  -1.382   6.410   1.826  0.5097 -0.6253  0.4206
  906MOL0     H19550  -1.295   6.101   1.806  3.7405 -0.3558  3.2212
  906MOL0     H19551  -1.281   6.208   1.943 -0.1532 -2.7724  1.3899
  906MOL0     H19552  -1.518   6.216   1.968 -0.5473 -1.4862  2.0041
  906MOL0     H19553  -1.467   6.043   1.953 -3.7271  0.2198 -0.0773
  906MOL0     H19554  -1.736   6.035   1.616 -0.6522  1.3613 -1.5864
  906MOL0     H19555  -1.985   6.002   1.645 -0.1135  1.8549 -1.9764
  906MOL0     H19556  -2.386   6.182   2.022  3.3062 -0.7995  0.7492
  906MOL0     H19557  -2.616   6.118   2.096  0.9446 -0.0942  2.2342
  906MOL0     H19558  -2.614   5.765   2.303  0.2243  1.2480  0.2414
  906MOL0     H19559  -2.682   5.674   2.167  3.0189 -0.7542  1.1802
  906MOL0     H19560  -2.846   5.710   2.395 -1.6017 -1.1172 -0.8784
  906MOL0     H19561  -2.913   5.712   2.244 -1.2995 -1.5122  2.8602
  906MOL0     H19562  -2.934   5.952   2.235 -0.2007 -2.0316 -0.2941
  906MOL0     H19563  -2.805   5.975   2.351  2.0208 -4.0612  0.7932
  906MOL0     H19564  -3.061   5.835   2.436  0.4078 -0.1018 -1.5959
  906MOL0     H19565  -2.957   5.914   2.537 -2.2085  0.5373  0.7248
  906MOL0     H19566  -3.099   6.067   2.317 -1.1768  3.4167  0.8927
  906MOL0     H19567  -3.030   6.131   2.466  2.0349  1.0041 -3.2067
  906MOL0     H19568  -3.274   5.937   2.453 -0.5214 -0.5773  1.2314
  906MOL0     H19569  -3.287   6.116   2.468  1.9558  2.0466  0.3085
  906MOL0     H19570  -3.144   6.080   2.686  1.5585 -0.3816 -2.8608
  906MOL0     H19571  -3.322   6.062   2.675  1.3363  2.2846  1.7937
  906MOL0     H19572  -3.131   5.838   2.699 -0.7253 -0.1589  2.4124
  906MOL0     H19573  -3.293   5.828   2.618  1.9714  0.9061 -2.7775
  906MOL0     H19574  -2.495   5.706   2.099  0.3699  0.4198 -1.7565
  906MOL0     H19575  -2.257   5.784   2.015 -0.7422 -0.5886  0.7303
  906MOL0     H19576  -1.949   6.124   2.057  0.8979  0.3845  0.2215
  906MOL0     H19577  -1.720   6.171   2.026 -2.8248  1.8470  0.2458
  906MOL0     H19578  -0.221   6.702   1.688  2.0282  0.3544 -0.0657
  906MOL0     H19579  -0.024   6.693   1.837  1.1322 -1.8968  3.9572
  906MOL0     H19580   0.196   6.352   2.283 -1.0110  1.6638  0.3221
  906MOL0     H19581   0.424   6.365   2.389 -0.5595 -0.8581 -0.5599
  906MOL0     H19582   0.631   6.275   2.367  0.3111 -0.3303 -0.0267
  906MOL0     H19583   0.648   6.435   2.446  0.5271 -1.6041  1.1483
  906MOL0     H19584   0.881   6.303   2.290  2.0111 -1.6356  2.1292
  906MOL0     H19585   0.879   6.460   2.391  1.7259 -0.3087 -0.1895
  906MOL0     H19586   0.825   6.187   2.518 -2.6642  0.7213 -1.4353
  906MOL0     H19587   0.860   6.338   2.596 -2.4587 -1.2974 -0.2598
  906MOL0     H19588   1.047   6.168   2.582 -2.1895 -1.9455 -0.3132
  906MOL0     H19589   1.043   6.176   2.408 -1.1022  1.1360 -0.2989
  906MOL0     H19590   1.246   6.539   2.492 -1.0005  1.2786 -0.4451
  906MOL0     H19591   0.569   6.499   2.016 -0.4351 -0.7103  0.6790
  906MOL0     H19592   0.364   6.491   1.912  2.5242  0.2186 -0.2773
  907MOL0     O19593   4.457   3.600   3.191 -0.5852 -0.7937 -0.7664
  907MOL0     C19594   4.514   3.711   3.174  0.2359  0.5980  0.6590
  907MOL0     O19595   4.452   3.815   3.113 -0.1197  0.4687 -0.1100
  907MOL0     C19596   4.321   3.801   3.059 -0.5288  0.0525 -0.0544
  907MOL0     C19597   4.300   3.709   2.952 -0.4557  0.0753 -0.0059
  907MOL0     C19598   4.171   3.693   2.892  0.6946  0.1012  0.4747
  907MOL0     C19599   4.061   3.753   2.962  0.4299 -0.8623 -0.8741
  907MOL0     O19600   3.930   3.752   2.925 -0.3325  0.6787  1.0636
  907MOL0     C19601   3.892   3.636   2.852  0.8572  0.1119  0.3080
  907MOL0     C19602   3.749   3.652   2.804  0.0497  0.4587  0.1952
  907MOL0     C19603   3.711   3.540   2.710 -0.2710  0.3121 -0.2640
  907MOL0     C19604   3.572   3.560   2.651 -0.1801  0.2842 -0.4558
  907MOL0     C19605   3.453   3.575   2.750 -0.1001  0.4883  0.2180
  907MOL0     C19606   3.420   3.454   2.825 -0.2463  0.1946  0.2416
  907MOL0     C19607   3.312   3.495   2.916 -0.9035 -0.1098 -0.3497
  907MOL0     C19608   3.236   3.378   2.983  0.2031 -0.0912 -0.7782
  907MOL0     N19609   3.119   3.418   3.054  0.1471 -0.4163  0.1675
  907MOL0     C19610   3.011   3.488   2.997 -0.4279  0.6630  0.1936
  907MOL0     C19611   2.931   3.520   3.105 -0.3279 -0.6979 -0.2586
  907MOL0     C19612   2.815   3.607   3.113  0.3249  0.1570 -0.0406
  907MOL0     C19613   2.686   3.533   3.087  0.2955 -0.3737  0.1057
  907MOL0     C19614   2.558   3.611   3.131 -0.2245  0.1712 -0.0402
  907MOL0     C19615   2.508   3.708   3.028 -0.1447 -0.3684 -0.2687
  907MOL0     O19616   2.460   3.643   2.913  0.5914 -0.2418 -0.3445
  907MOL0     C19617   2.323   3.630   2.903  0.0741 -0.8243  1.3217
  907MOL0     C19618   2.256   3.727   2.832  0.7242  0.0199  0.4573
  907MOL0     C19619   2.115   3.727   2.827  0.6668  0.3249 -0.4959
  907MOL0     C19620   2.046   3.616   2.886  0.2951 -0.5578 -0.6291
  907MOL0     C19621   1.900   3.600   2.856  0.0616 -0.5227 -0.2186
  907MOL0     O19622   1.832   3.505   2.930  0.4933 -0.0031 -0.5547
  907MOL0     C19623   1.699   3.510   2.945 -0.1363 -0.0285 -0.3137
  907MOL0     C19624   1.653   3.389   2.993 -0.1446 -0.6200  0.6267
  907MOL0     C19625   1.517   3.379   3.024  0.1538 -0.7472 -0.2297
  907MOL0     C19626   1.427   3.487   3.017  0.2030 -0.4243  0.0335
  907MOL0     O19627   1.292   3.486   3.057  0.5775  0.1940  0.1399
  907MOL0     C19628   1.221   3.362   3.017 -0.5669 -0.2318  0.0024
  907MOL0     C19629   1.071   3.384   3.064  0.0343  0.1142 -0.5511
  907MOL0     C19630   0.995   3.252   3.021 -0.6516 -0.7665 -0.5846
  907MOL0     C19631   0.850   3.257   3.079  0.5486 -0.2959  0.3627
  907MOL0     C19632   0.766   3.136   3.039 -0.3202  0.2131 -1.1913
  907MOL0     C19633   0.641   3.134   3.137  0.5661  0.5257  0.7149
  907MOL0     C19634   0.528   3.240   3.099 -0.8225 -0.3384 -0.2043
  907MOL0     C19635   0.396   3.215   3.175 -0.0212 -0.2912  1.0640
  907MOL0    Cl19636   0.309   3.076   3.108 -0.0359 -0.2856 -0.3414
  907MOL0     C19637   1.479   3.609   2.971  0.4182  1.5154 -0.1520
  907MOL0     C19638   1.608   3.619   2.935 -1.0535  0.6490  0.0201
  907MOL0     O19639   1.854   3.674   2.772  0.5433  0.1415 -0.4217
  907MOL0     C19640   2.118   3.512   2.946 -0.6009 -0.2415  0.4416
  907MOL0     C19641   2.254   3.525   2.965  0.1020 -0.8584  0.8404
  907MOL0     N19642   2.983   3.468   3.219 -0.3332 -0.3869 -0.2699
  907MOL0     N19643   3.095   3.408   3.184  0.0256  0.3118  0.7000
  907MOL0     C19644   4.082   3.837   3.080 -0.7939  0.2031  0.2335
  907MOL0     C19645   4.214   3.859   3.123 -0.6368  0.5449 -0.3532
  907MOL0     C19646   4.645   3.725   3.236 -0.3573  1.0031  0.0072
  907MOL0     C19647   4.731   3.610   3.235 -0.6965 -0.1049  0.0229
  907MOL0     C19648   4.850   3.613   3.314  0.1647 -0.2724  0.1310
  907MOL0     C19649   4.892   3.735   3.376  1.3814 -0.3834 -0.1305
  907MOL0     O19650   4.996   3.747   3.461 -0.5110  0.7429 -0.7323
  907MOL0     C19651   5.045   3.628   3.517  0.2886  0.3271  0.1999
  907MOL0     C19652   5.129   3.648   3.645 -0.6674 -0.4491  0.7026
  907MOL0     C19653   5.256   3.731   3.606  0.3199 -0.1918  0.7754
  907MOL0     C19654   5.359   3.709   3.713 -0.5109  0.0994 -0.7907
  907MOL0     C19655   5.442   3.588   3.689  0.0324 -0.2541  0.4093
  907MOL0     C19656   5.496   3.481   3.679 -0.5289  1.0153 -0.2712
  907MOL0     C19657   4.805   3.838   3.373  1.0864 -0.0326  0.6335
  907MOL0     C19658   4.679   3.838   3.304 -0.2150 -0.3289 -0.0607
  907MOL0     H19659   4.386   3.664   2.904 -2.6739 -2.4187 -1.9382
  907MOL0     H19660   4.147   3.619   2.817 -1.8438 -0.5729  1.8525
  907MOL0     H19661   3.887   3.547   2.916 -0.9128 -0.3332 -0.3853
  907MOL0     H19662   3.954   3.618   2.764  0.2388 -0.9377  0.0630
  907MOL0     H19663   3.737   3.745   2.747  1.3764 -0.4311 -1.6768
  907MOL0     H19664   3.682   3.659   2.890 -0.3520  0.8599 -0.1443
  907MOL0     H19665   3.722   3.449   2.770  3.9202  0.7918  0.0399
  907MOL0     H19666   3.787   3.531   2.632 -0.5305  0.2884 -0.5132
  907MOL0     H19667   3.559   3.649   2.589  0.4521  0.6382 -0.0887
  907MOL0     H19668   3.563   3.468   2.592  0.5865 -1.0948  1.4798
  907MOL0     H19669   3.361   3.593   2.693  0.2435 -0.5176 -0.6911
  907MOL0     H19670   3.471   3.663   2.811  1.1404  1.6786 -1.7599
  907MOL0     H19671   3.502   3.415   2.888 -1.7744  0.5059  2.5572
  907MOL0     H19672   3.389   3.367   2.766 -0.0354  2.0117 -2.7093
  907MOL0     H19673   3.352   3.552   3.000 -1.6736 -1.8363  1.2732
  907MOL0     H19674   3.242   3.555   2.857  2.9013  1.7419 -3.4166
  907MOL0     H19675   3.304   3.314   3.040  0.4094 -0.4982 -1.4598
  907MOL0     H19676   3.198   3.307   2.908  0.0904 -1.4645  0.5356
  907MOL0     H19677   3.013   3.515   2.892 -2.1086 -0.0139 -0.0404
  907MOL0     H19678   2.813   3.681   3.032  0.3657  0.2404  0.0338
  907MOL0     H19679   2.809   3.667   3.204  1.9531  0.6708 -0.2421
  907MOL0     H19680   2.699   3.446   3.152  1.4053  1.5229  2.5662
  907MOL0     H19681   2.685   3.501   2.982  2.7336  2.5646 -0.9659
  907MOL0     H19682   2.480   3.536   3.140 -0.3393 -0.0595 -2.2744
  907MOL0     H19683   2.580   3.666   3.223  1.2945  3.9337 -2.3839
  907MOL0     H19684   2.596   3.762   2.991 -0.2833 -0.0018 -0.0751
  907MOL0     H19685   2.428   3.772   3.067  1.1614  0.9278  0.4085
  907MOL0     H19686   2.316   3.797   2.776 -1.3091  2.0481  0.6454
  907MOL0     H19687   2.062   3.795   2.760  1.2567 -0.0181 -1.3265
  907MOL0     H19688   1.714   3.300   2.981  4.8631  2.0767  2.9868
  907MOL0     H19689   1.490   3.287   3.077  0.8337 -0.1407  1.2205
  907MOL0     H19690   1.254   3.276   3.077  0.3579  0.2157  0.1661
  907MOL0     H19691   1.221   3.336   2.911 -0.0203  1.2627 -0.4043
  907MOL0     H19692   1.032   3.470   3.008 -3.2651 -0.9605 -0.0645
  907MOL0     H19693   1.063   3.423   3.165  2.7144  1.3356 -0.7148
  907MOL0     H19694   1.047   3.168   3.068 -0.9148 -0.2385  0.6871
  907MOL0     H19695   1.002   3.242   2.912  4.0841  1.0588 -0.6663
  907MOL0     H19696   0.860   3.285   3.184  0.7218 -1.8538  0.7983
  907MOL0     H19697   0.806   3.342   3.026  3.1667  0.2318 -1.1429
  907MOL0     H19698   0.824   3.047   3.065 -1.2221 -0.1788 -0.4978
  907MOL0     H19699   0.737   3.138   2.933 -0.7251  1.8024 -1.0787
  907MOL0     H19700   0.663   3.150   3.243  0.7747  5.3001  0.1808
  907MOL0     H19701   0.601   3.034   3.118 -0.2482  0.8790  0.4904
  907MOL0     H19702   0.556   3.337   3.142  0.7420 -0.8037 -0.1099
  907MOL0     H19703   0.512   3.248   2.991 -1.0739 -1.6318 -0.2768
  907MOL0     H19704   0.332   3.303   3.175  3.3536  2.6800 -4.4077
  907MOL0     H19705   0.415   3.192   3.281  2.3102  0.9914  0.9948
  907MOL0     H19706   1.408   3.691   2.965 -1.3643  0.3609  2.8718
  907MOL0     H19707   1.642   3.713   2.893  1.1640 -1.0083 -2.2354
  907MOL0     H19708   2.069   3.427   2.992 -1.2869 -0.9370 -1.4656
  907MOL0     H19709   2.306   3.444   3.014 -0.2489 -1.2509  0.5725
  907MOL0     H19710   4.004   3.885   3.139  1.0280  0.8577  2.2141
  907MOL0     H19711   4.225   3.923   3.210 -1.4345  2.1436 -1.3729
  907MOL0     H19712   4.710   3.521   3.177 -1.5436  0.2323 -0.2156
  907MOL0     H19713   4.910   3.523   3.316 -1.0887 -1.1584  2.0745
  907MOL0     H19714   5.113   3.591   3.439  0.6739 -2.4292  1.7217
  907MOL0     H19715   4.975   3.546   3.533  2.1698 -0.7680  3.7907
  907MOL0     H19716   5.077   3.700   3.726  1.7220  1.5967  1.0756
  907MOL0     H19717   5.149   3.549   3.685 -1.5099 -0.5421  0.9257
  907MOL0     H19718   5.234   3.838   3.610  2.2729  0.2295  1.1229
  907MOL0     H19719   5.296   3.690   3.513 -4.0661 -1.5159 -0.8097
  907MOL0     H19720   5.435   3.786   3.728  0.0326 -0.8467  2.0616
  907MOL0     H19721   5.306   3.689   3.807  0.4929 -1.8789 -0.5782
  907MOL0     H19722   5.553   3.390   3.673 -0.5345  0.8895  1.2602
  907MOL0     H19723   4.832   3.927   3.429  0.3116  1.7718 -1.6693
  907MOL0     H19724   4.614   3.922   3.324  3.1721  2.2735  0.8789
  908MOL0     O19725   8.115   2.554  10.695 -0.6492 -0.0057  0.0537
  908MOL0     C19726   8.082   2.451  10.641 -0.0011  1.6064  0.4069
  908MOL0     O19727   7.954   2.420  10.593 -0.5841 -0.7068  0.4084
  908MOL0     C19728   7.850   2.515  10.584 -0.0238  0.1364  0.2249
  908MOL0     C19729   7.857   2.658  10.585 -0.2352  0.2186 -0.5041
  908MOL0     C19730   7.750   2.748  10.566  0.1398 -0.6404 -0.9174
  908MOL0     C19731   7.626   2.698  10.550  0.4134 -0.2253 -0.2406
  908MOL0     O19732   7.510   2.771  10.542  0.3717 -0.2464 -0.6530
  908MOL0     C19733   7.480   2.857  10.650 -0.1003  0.0381 -0.3079
  908MOL0     C19734   7.331   2.889  10.654 -0.6723 -0.0140 -0.2972
  908MOL0     C19735   7.232   2.785  10.601 -0.1557  0.4169 -0.3197
  908MOL0     C19736   7.081   2.831  10.598  0.1903 -0.7104 -0.0298
  908MOL0     C19737   6.973   2.730  10.567 -0.4244  0.6011  0.0726
  908MOL0     C19738   6.832   2.788  10.616  0.4290 -0.3136  0.3648
  908MOL0     C19739   6.720   2.691  10.591  0.2654  0.5000 -0.0609
  908MOL0     C19740   6.582   2.765  10.625  0.3180  0.4893 -0.6786
  908MOL0     N19741   6.462   2.688  10.596  0.1211  0.5515 -0.4609
  908MOL0     C19742   6.426   2.579  10.671  0.3996  0.2378 -0.5900
  908MOL0     C19743   6.316   2.533  10.606  0.5916 -1.0535 -0.5296
  908MOL0     C19744   6.230   2.409  10.627  0.0841 -0.5948 -0.2635
  908MOL0     C19745   6.078   2.440  10.611 -0.2152 -0.1508 -0.3789
  908MOL0     C19746   6.001   2.312  10.616  0.7603 -0.2866 -0.8939
  908MOL0     C19747   5.846   2.315  10.594 -0.7089 -0.3245  0.2630
  908MOL0     O19748   5.799   2.181  10.587  0.7260 -0.2707 -0.6881
  908MOL0     C19749   5.662   2.177  10.568  0.2973  0.8121 -0.6565
  908MOL0     C19750   5.575   2.281  10.625  0.0493 -0.0909  0.1354
  908MOL0     C19751   5.445   2.278  10.590  0.2316 -0.5920 -0.1165
  908MOL0     C19752   5.383   2.170  10.532 -1.1363 -0.1090 -0.3090
  908MOL0     C19753   5.236   2.176  10.538  0.0528  0.2032 -0.7720
  908MOL0     O19754   5.176   2.295  10.532  0.2031  0.3773 -0.5879
  908MOL0     C19755   5.049   2.307  10.481  0.4622  0.1845  0.2645
  908MOL0     C19756   4.978   2.427  10.513  0.6707 -0.5919 -0.1602
  908MOL0     C19757   4.859   2.461  10.446  0.3392 -0.6741 -0.0410
  908MOL0     C19758   4.810   2.390  10.340 -0.0914 -0.9013 -0.5873
  908MOL0     O19759   4.689   2.434  10.291  0.4398  0.0806 -0.1880
  908MOL0     C19760   4.605   2.342  10.221 -0.1372  0.9630 -0.3189
  908MOL0     C19761   4.466   2.395  10.251  0.1573  1.1035 -0.2884
  908MOL0     C19762   4.366   2.303  10.183  0.6687  0.8327 -0.0618
  908MOL0     C19763   4.217   2.346  10.186  0.6152 -1.1424  0.1418
  908MOL0     C19764   4.203   2.480  10.108  0.2098  0.5044  0.5224
  908MOL0     C19765   4.057   2.532  10.130  0.6907  0.1553 -0.1252
  908MOL0     C19766   4.026   2.589  10.268  0.5080 -0.9213 -0.3142
  908MOL0     C19767   3.892   2.679  10.271 -0.4065  0.8490  0.3258
  908MOL0    Cl19768   3.743   2.567  10.264 -0.5090  0.0093  0.1765
  908MOL0     C19769   4.875   2.265  10.306  0.4970 -0.0638 -0.5704
  908MOL0     C19770   4.991   2.231  10.378 -0.5598  0.1876 -0.5019
  908MOL0     O19771   5.182   2.066  10.528 -0.1203 -0.2276 -0.0649
  908MOL0     C19772   5.468   2.066  10.488  0.0267 -0.2609 -0.4849
  908MOL0     C19773   5.603   2.070  10.504  0.5864  0.0059  0.1810
  908MOL0     N19774   6.284   2.616  10.501 -1.0832  0.0701  0.8561
  908MOL0     N19775   6.373   2.707  10.493  0.3637 -0.1845 -0.0992
  908MOL0     C19776   7.610   2.560  10.554 -0.4355  0.7491 -0.0177
  908MOL0     C19777   7.714   2.467  10.575  0.2405 -0.0219  0.5499
  908MOL0     C19778   8.174   2.336  10.657 -0.0279 -0.1323 -0.1066
  908MOL0     C19779   8.128   2.201  10.640  0.5744 -0.4243 -0.0194
  908MOL0     C19780   8.201   2.089  10.683  0.5778  0.6723 -0.7932
  908MOL0     C19781   8.329   2.108  10.717 -0.9757 -0.2243  0.5685
  908MOL0     O19782   8.390   1.983  10.731  0.5823  0.0917  0.0449
  908MOL0     C19783   8.525   1.971  10.772  0.0342  0.2388  0.2494
  908MOL0     C19784   8.612   1.906  10.668  0.0324  0.6742 -0.9042
  908MOL0     C19785   8.761   1.920  10.706 -0.5663  0.0303  0.3843
  908MOL0     C19786   8.809   1.849  10.830 -0.2096  0.1087 -0.5326
  908MOL0     C19787   8.775   1.701  10.832  0.8140 -0.4009 -0.2618
  908MOL0     C19788   8.746   1.580  10.836  0.9564  0.1165 -0.5417
  908MOL0     C19789   8.393   2.235  10.714 -0.0021  1.0541 -0.2750
  908MOL0     C19790   8.316   2.351  10.686  0.3114 -0.0685 -0.5221
  908MOL0     H19791   7.962   2.685  10.586  0.3965 -1.9976 -0.3847
  908MOL0     H19792   7.753   2.856  10.572  0.6354 -0.7240  1.1051
  908MOL0     H19793   7.539   2.949  10.648  1.5385 -0.9041  1.5431
  908MOL0     H19794   7.501   2.805  10.744 -0.1438 -2.8693 -1.7882
  908MOL0     H19795   7.324   2.979  10.593 -1.4294  0.9290  1.1243
  908MOL0     H19796   7.294   2.925  10.750  2.4189 -1.6992  1.6972
  908MOL0     H19797   7.241   2.696  10.664 -3.0666 -1.4748 -2.3414
  908MOL0     H19798   7.270   2.737  10.510  0.7618 -2.8209  1.5885
  908MOL0     H19799   7.055   2.891  10.687  0.3863  1.3388 -1.2871
  908MOL0     H19800   7.066   2.912  10.526 -1.2867  0.3749  1.4161
  908MOL0     H19801   6.999   2.635  10.614  2.7254 -0.2395 -2.9559
  908MOL0     H19802   6.968   2.699  10.462 -1.1911 -0.6670  0.4533
  908MOL0     H19803   6.808   2.881  10.563 -1.0958  0.3891  2.1494
  908MOL0     H19804   6.839   2.802  10.725 -0.4156 -1.6832  0.6146
  908MOL0     H19805   6.721   2.668  10.484 -0.4935 -2.0552  0.4118
  908MOL0     H19806   6.716   2.596  10.644  0.2132 -0.8903 -2.3819
  908MOL0     H19807   6.577   2.866  10.582 -0.5754  0.6274 -0.2727
  908MOL0     H19808   6.580   2.775  10.734 -0.0309  0.5598 -0.6917
  908MOL0     H19809   6.482   2.532  10.752 -2.1737 -2.0122  0.0129
  908MOL0     H19810   6.256   2.375  10.727 -2.2227  1.6253  1.2152
  908MOL0     H19811   6.259   2.338  10.549  4.6895  1.6624 -0.9610
  908MOL0     H19812   6.072   2.485  10.511  1.9418  0.8850 -0.1193
  908MOL0     H19813   6.048   2.505  10.694  1.4957  0.8673 -0.4955
  908MOL0     H19814   6.048   2.234  10.555 -0.7733 -1.9769  0.0052
  908MOL0     H19815   6.020   2.268  10.714 -0.7609  0.3528 -0.2847
  908MOL0     H19816   5.815   2.370  10.505 -2.8208 -2.2731 -0.3065
  908MOL0     H19817   5.817   2.372  10.683  2.0133 -0.3391  1.2506
  908MOL0     H19818   5.616   2.357  10.691  0.6384  0.6283 -1.0255
  908MOL0     H19819   5.393   2.369  10.617  1.9952 -0.6113  4.1529
  908MOL0     H19820   5.010   2.486  10.598 -2.4314  0.0493  0.6989
  908MOL0     H19821   4.822   2.561  10.468  5.0826  1.2441  0.4109
  908MOL0     H19822   4.610   2.239  10.256 -1.3120  1.0208  0.0884
  908MOL0     H19823   4.619   2.344  10.112  1.9885  2.3989 -0.0830
  908MOL0     H19824   4.451   2.502  10.235  0.4465  1.1533 -0.2366
  908MOL0     H19825   4.452   2.381  10.358  0.8740 -1.4966 -0.4652
  908MOL0     H19826   4.363   2.210  10.239 -1.8201 -0.7168 -2.4621
  908MOL0     H19827   4.385   2.286  10.076  2.3460  2.3146 -0.0484
  908MOL0     H19828   4.153   2.269  10.141 -0.9192 -1.1789  2.2444
  908MOL0     H19829   4.189   2.351  10.291  1.2289 -0.6040  0.2843
  908MOL0     H19830   4.218   2.455  10.003  0.4645 -0.2598  0.7401
  908MOL0     H19831   4.267   2.551  10.161  2.0644 -1.8487  1.6331
  908MOL0     H19832   3.991   2.453  10.093 -0.4349  0.9971  0.0321
  908MOL0     H19833   4.044   2.611  10.056  4.8272  0.3504 -0.8768
  908MOL0     H19834   4.014   2.519  10.352  2.1746 -0.6602  0.1607
  908MOL0     H19835   4.099   2.668  10.288 -2.9012  2.6072 -0.6111
  908MOL0     H19836   3.884   2.749  10.188 -0.4017  1.4227  0.7965
  908MOL0     H19837   3.881   2.750  10.354  1.3153  0.4007  0.9786
  908MOL0     H19838   4.834   2.194  10.235 -0.1697  0.4915 -0.7622
  908MOL0     H19839   5.044   2.141  10.346 -2.9238 -1.2340 -0.6156
  908MOL0     H19840   5.434   1.969  10.454 -0.7511 -0.0302 -0.3952
  908MOL0     H19841   5.653   1.999  10.438  0.1324 -1.0186  0.9071
  908MOL0     H19842   7.510   2.522  10.535  0.7699 -3.3820  0.9162
  908MOL0     H19843   7.693   2.361  10.574  1.4535 -0.2757  1.2374
  908MOL0     H19844   8.027   2.182  10.605 -0.3688  0.8074  1.8590
  908MOL0     H19845   8.159   1.989  10.676  0.2751  0.6433  0.9462
  908MOL0     H19846   8.510   1.908  10.860 -1.9240 -0.4326 -0.5014
  908MOL0     H19847   8.566   2.066  10.808  1.6890 -0.7934  1.1914
  908MOL0     H19848   8.599   1.797  10.668  1.7632  0.4045  1.0762
  908MOL0     H19849   8.595   1.952  10.570 -0.9220 -0.9690 -1.5627
  908MOL0     H19850   8.788   2.026  10.713  1.6153 -0.5750  2.0803
  908MOL0     H19851   8.818   1.888  10.618  0.3244 -0.7583  1.2271
  908MOL0     H19852   8.918   1.853  10.835 -0.1533 -1.9200  1.4473
  908MOL0     H19853   8.786   1.904  10.922 -1.2433  0.2369 -0.8554
  908MOL0     H19854   8.716   1.477  10.831 -1.1919  0.5330  2.0117
  908MOL0     H19855   8.496   2.234  10.749  0.1940  0.1817 -0.8478
  908MOL0     H19856   8.357   2.451  10.692 -1.7006  0.7441  0.2944
  909MOL0     O19857   6.347   9.924  10.798  0.1711 -1.0683  0.0899
  909MOL0     C19858   6.379   9.972  10.689 -0.6047 -0.1611 -0.6894
  909MOL0     O19859   6.305  10.041  10.602  0.1783 -0.8306 -0.2376
  909MOL0     C19860   6.177  10.064  10.638 -0.5404 -0.0653 -0.2604
  909MOL0     C19861   6.087   9.975  10.585  0.5125  0.0071 -0.2113
  909MOL0     C19862   5.948  10.001  10.595  0.3558  0.1582  0.0681
  909MOL0     C19863   5.898  10.116  10.652  0.7284 -0.4458 -0.4966
  909MOL0     O19864   5.765  10.144  10.672  0.2241 -0.7352  0.4821
  909MOL0     C19865   5.681  10.120  10.558  1.2779 -0.0292  0.0433
  909MOL0     C19866   5.554  10.210  10.554  0.6441 -0.4789 -0.9868
  909MOL0     C19867   5.439  10.171  10.656 -0.5154 -0.5901  0.3558
  909MOL0     C19868   5.300  10.215  10.608  0.5252  0.5175  0.1734
  909MOL0     C19869   5.265  10.363  10.647  1.0952  0.1785 -0.6114
  909MOL0     C19870   5.120  10.396  10.617 -0.8426  0.8773 -0.2757
  909MOL0     C19871   5.069  10.515  10.699 -0.8030  0.4478 -0.1199
  909MOL0     C19872   5.104  10.655  10.629  0.6668 -0.1657 -0.5371
  909MOL0     N19873   5.077  10.751  10.741 -0.6438  0.7999  0.5475
  909MOL0     C19874   4.951  10.794  10.772 -0.4082 -0.1294  0.4856
  909MOL0     C19875   4.972  10.910  10.843  0.4168  0.4721  0.3583
  909MOL0     C19876   4.862  10.994  10.903 -0.0629  0.7246 -0.9000
  909MOL0     C19877   4.806  11.099  10.806  0.7725  0.4472  0.6508
  909MOL0     C19878   4.750  11.212  10.886 -1.6307 -0.2510  0.0540
  909MOL0     C19879   4.614  11.193  10.952 -0.2690 -0.1000  0.8232
  909MOL0     O19880   4.572  11.327  10.981 -0.1435  0.4222  0.5932
  909MOL0     C19881   4.458  11.337  11.056  0.8648 -0.0903 -0.6680
  909MOL0     C19882   4.350  11.250  11.056  0.6682  0.2381 -0.0175
  909MOL0     C19883   4.241  11.271  11.141 -0.1615  0.8277 -0.6267
  909MOL0     C19884   4.232  11.390  11.220 -0.2605 -0.7297  0.5061
  909MOL0     C19885   4.119  11.412  11.309 -0.1024  0.5703  0.2634
  909MOL0     O19886   4.007  11.335  11.265  0.4625 -0.1304 -0.9302
  909MOL0     C19887   3.882  11.346  11.327 -0.0098 -0.2418 -0.0474
  909MOL0     C19888   3.768  11.351  11.249  0.5708  0.5675  0.4910
  909MOL0     C19889   3.636  11.356  11.299 -0.6740  0.2032  0.1517
  909MOL0     C19890   3.611  11.348  11.434 -0.1226  0.2329 -0.4394
  909MOL0     O19891   3.484  11.340  11.491  0.0382  0.6703 -0.0584
  909MOL0     C19892   3.399  11.266  11.405  0.3342  0.5757 -0.3094
  909MOL0     C19893   3.265  11.237  11.461 -0.1779 -0.4043  0.2171
  909MOL0     C19894   3.217  11.097  11.474  0.0356  0.3467 -0.0636
  909MOL0     C19895   3.082  11.073  11.537  0.4894 -0.0822  0.3107
  909MOL0     C19896   3.027  10.929  11.508 -0.4124 -0.5156  0.2962
  909MOL0     C19897   2.879  10.927  11.541  0.2119  0.3478 -0.8685
  909MOL0     C19898   2.812  10.802  11.487  0.6258 -0.0519 -0.5218
  909MOL0     C19899   2.681  10.775  11.568  0.4927 -0.9586  0.7628
  909MOL0    Cl19900   2.608  10.654  11.471 -0.0741  0.4073  0.0318
  909MOL0     C19901   3.726  11.351  11.521  0.6699  0.1767 -0.6047
  909MOL0     C19902   3.860  11.345  11.468  0.1265 -0.1726  0.1638
  909MOL0     O19903   4.123  11.498  11.399  0.3413 -0.0628  0.1160
  909MOL0     C19904   4.344  11.479  11.222 -0.3583 -0.3040 -0.2351
  909MOL0     C19905   4.458  11.447  11.143  0.2748 -0.1608 -0.2615
  909MOL0     N19906   5.109  10.933  10.836  0.7518  0.4401  0.3679
  909MOL0     N19907   5.169  10.838  10.775  0.2768 -0.0346  1.0744
  909MOL0     C19908   5.987  10.204  10.714  0.2277  0.3630 -0.4248
  909MOL0     C19909   6.127  10.182  10.705 -0.3711  0.0793 -0.7388
  909MOL0     C19910   6.509   9.935  10.649 -0.0516  0.0662  0.1906
  909MOL0     C19911   6.576   9.824  10.702  0.0539  0.3056  0.1663
  909MOL0     C19912   6.695   9.775  10.641 -0.0817  0.9946 -0.4557
  909MOL0     C19913   6.750   9.840  10.536  0.2236 -0.0664  1.8037
  909MOL0     O19914   6.864   9.798  10.480 -0.2530 -0.0970  0.0607
  909MOL0     C19915   6.919   9.670  10.520  0.4643 -0.5734  0.0991
  909MOL0     C19916   7.052   9.656  10.445 -1.1621 -0.3117  1.1978
  909MOL0     C19917   7.163   9.751  10.512  0.2133  0.1294  0.5119
  909MOL0     C19918   7.310   9.742  10.460  0.0356  0.0703 -0.4040
  909MOL0     C19919   7.382   9.629  10.526 -0.1156  0.3228 -0.3127
  909MOL0     C19920   7.429   9.535  10.586 -0.5030  0.5540  1.0646
  909MOL0     C19921   6.695   9.958  10.487 -0.3951 -1.2097 -0.1248
  909MOL0     C19922   6.569  10.001  10.535  0.5996  0.5387  0.2601
  909MOL0     H19923   6.111   9.880  10.539 -0.4503 -0.5444  0.3893
  909MOL0     H19924   5.872   9.938  10.549  1.1740 -2.3783  2.0284
  909MOL0     H19925   5.646  10.017  10.565 -5.3692  1.7385 -0.5734
  909MOL0     H19926   5.737  10.116  10.464  1.1533  0.9076 -0.0855
  909MOL0     H19927   5.514  10.198  10.452 -0.0218  1.5963 -1.0054
  909MOL0     H19928   5.583  10.311  10.581  0.1006  0.0920 -2.4423
  909MOL0     H19929   5.472  10.203  10.755  3.6684 -2.1632 -0.2838
  909MOL0     H19930   5.437  10.062  10.664 -3.8143 -0.6755 -0.5307
  909MOL0     H19931   5.297  10.209  10.499 -0.2686  4.2398 -0.1443
  909MOL0     H19932   5.234  10.140  10.651 -1.0996  2.2057  0.7382
  909MOL0     H19933   5.339  10.430  10.604  1.4901  1.0789  1.3714
  909MOL0     H19934   5.272  10.359  10.757 -1.9892  4.3698 -0.0093
  909MOL0     H19935   5.066  10.303  10.638 -0.9445  0.8890 -0.4835
  909MOL0     H19936   5.119  10.394  10.508 -1.5880 -2.1695 -0.3168
  909MOL0     H19937   4.961  10.503  10.716 -0.4871 -0.2220  1.5913
  909MOL0     H19938   5.112  10.523  10.799 -0.2822 -0.1469 -0.2921
  909MOL0     H19939   5.034  10.664  10.546  0.0319  1.0233  0.1040
  909MOL0     H19940   5.207  10.666  10.597  0.6015  0.3530 -0.5811
  909MOL0     H19941   4.866  10.729  10.752 -0.4820 -0.1700  0.9137
  909MOL0     H19942   4.907  11.034  10.994 -1.1819 -1.3540  0.6649
  909MOL0     H19943   4.781  10.930  10.938  1.3581 -1.9974 -2.1929
  909MOL0     H19944   4.727  11.046  10.751  0.0026 -1.2601  3.2162
  909MOL0     H19945   4.884  11.120  10.732  2.3630 -2.8080  1.1958
  909MOL0     H19946   4.820  11.252  10.961 -1.7066  0.2404 -0.1322
  909MOL0     H19947   4.749  11.284  10.803  2.6575 -0.3811 -0.3228
  909MOL0     H19948   4.611  11.139  11.047 -1.7747  5.1328  4.1883
  909MOL0     H19949   4.548  11.151  10.875 -0.0040  1.8624 -0.5383
  909MOL0     H19950   4.352  11.163  10.990  4.2237 -2.1781  2.9099
  909MOL0     H19951   4.163  11.196  11.136  1.7177 -1.1031 -3.6377
  909MOL0     H19952   3.779  11.368  11.142  1.4566  0.2548  0.5211
  909MOL0     H19953   3.561  11.354  11.221  0.0106 -2.4026 -0.5263
  909MOL0     H19954   3.445  11.171  11.375  0.4517  1.1256 -2.0074
  909MOL0     H19955   3.380  11.326  11.315  0.3085 -2.7667 -2.7341
  909MOL0     H19956   3.195  11.292  11.397  2.2873  4.5548  1.2808
  909MOL0     H19957   3.256  11.285  11.558 -3.0943  3.5875 -1.7391
  909MOL0     H19958   3.295  11.034  11.519 -1.1616 -0.1124  1.4579
  909MOL0     H19959   3.215  11.064  11.370  1.2655 -2.0588  0.5865
  909MOL0     H19960   3.080  11.079  11.646 -0.5603 -2.5009  0.4914
  909MOL0     H19961   3.009  11.147  11.502 -1.0257 -2.0043 -0.7996
  909MOL0     H19962   3.063  10.851  11.576  2.0525 -1.0231 -1.4543
  909MOL0     H19963   3.053  10.902  11.405 -0.8912  1.2968 -0.3530
  909MOL0     H19964   2.834  11.006  11.481 -0.7064  0.6666  0.2180
  909MOL0     H19965   2.853  10.935  11.647 -0.5125 -4.2779 -0.4942
  909MOL0     H19966   2.789  10.802  11.380  0.9909 -2.7862 -0.6919
  909MOL0     H19967   2.880  10.718  11.502  3.0832  1.5792 -1.8829
  909MOL0     H19968   2.619  10.865  11.565  1.4333 -0.3295 -0.2083
  909MOL0     H19969   2.711  10.740  11.668 -0.0103  0.3484  1.3980
  909MOL0     H19970   3.709  11.335  11.627  1.1892 -2.2742 -0.8325
  909MOL0     H19971   3.943  11.334  11.537  1.7861  2.2022 -1.2911
  909MOL0     H19972   4.341  11.574  11.275 -1.5062 -0.2185 -0.4413
  909MOL0     H19973   4.539  11.518  11.133  0.7396 -0.5213  0.7855
  909MOL0     H19974   5.960  10.289  10.776 -0.2815  0.9464 -1.4217
  909MOL0     H19975   6.195  10.252  10.752  0.7151  1.2318 -3.8233
  909MOL0     H19976   6.535   9.774  10.789 -0.4245 -2.0548 -1.3076
  909MOL0     H19977   6.734   9.685  10.688  1.6840  2.2856  0.7102
  909MOL0     H19978   6.854   9.590  10.483  0.2518 -1.5462  2.4203
  909MOL0     H19979   6.933   9.670  10.628  3.1059  3.2428 -0.0788
  909MOL0     H19980   7.093   9.555  10.451  2.0607  0.8103  0.3533
  909MOL0     H19981   7.047   9.682  10.338  1.3233 -1.7221  0.6455
  909MOL0     H19982   7.167   9.727  10.619  1.6289 -1.0927  0.2176
  909MOL0     H19983   7.129   9.854  10.498 -0.7996 -0.0258  1.6035
  909MOL0     H19984   7.319   9.730  10.352  4.3367 -1.4927 -0.0755
  909MOL0     H19985   7.361   9.838  10.474 -0.5241  0.1153  1.8262
  909MOL0     H19986   7.478   9.447  10.623 -0.8062 -0.3809 -0.6690
  909MOL0     H19987   6.749  10.016  10.413 -0.7380 -0.4867  0.1866
  909MOL0     H19988   6.534  10.093  10.488  2.4378  1.3127  0.3129
  910MOL0     O19989   3.665   4.410   6.805 -0.5259  0.6393 -0.0944
  910MOL0     C19990   3.717   4.524   6.784 -0.3798 -0.3843 -0.2019
  910MOL0     O19991   3.646   4.641   6.783  0.2347 -0.0710 -0.3181
  910MOL0     C19992   3.510   4.630   6.814  0.0074 -0.2303  0.5850
  910MOL0     C19993   3.465   4.705   6.924 -0.4222 -0.0428 -0.2238
  910MOL0     C19994   3.332   4.707   6.957 -0.5592  0.0151  0.4369
  910MOL0     C19995   3.242   4.626   6.895 -0.2178 -0.4877  0.8186
  910MOL0     O19996   3.113   4.635   6.939 -0.4427 -0.0138 -0.1383
  910MOL0     C19997   3.016   4.535   6.885 -0.1555 -0.4770 -0.1150
  910MOL0     C19998   2.869   4.562   6.919 -0.9559  0.1267  0.2684
  910MOL0     C19999   2.851   4.568   7.071 -0.0843  0.3677 -0.4072
  910MOL0     C20000   2.705   4.579   7.092  0.2411  0.2980  0.7225
  910MOL0     C20001   2.675   4.583   7.243  0.5908 -0.6131  0.7236
  910MOL0     C20002   2.527   4.613   7.259  0.9289 -1.0103 -0.3571
  910MOL0     C20003   2.496   4.620   7.409 -1.3059 -0.1480 -0.0012
  910MOL0     C20004   2.354   4.589   7.438  0.6916 -0.4262  0.5365
  910MOL0     N20005   2.302   4.594   7.570 -0.7746 -0.1667  0.9564
  910MOL0     C20006   2.293   4.708   7.645  0.1973  0.1412  0.8458
  910MOL0     C20007   2.224   4.657   7.752 -0.1194 -0.4797  0.1846
  910MOL0     C20008   2.174   4.746   7.864 -0.2943 -0.0301  0.0895
  910MOL0     C20009   2.246   4.881   7.877 -0.4922  0.4210  0.7877
  910MOL0     C20010   2.386   4.850   7.924  0.5908  0.3800  0.9128
  910MOL0     C20011   2.463   4.980   7.961  0.5546 -0.7374 -0.5751
  910MOL0     O20012   2.457   5.081   7.860  0.2139 -0.3508  0.4120
  910MOL0     C20013   2.523   5.056   7.740  0.1215 -0.9290 -0.8865
  910MOL0     C20014   2.502   5.155   7.649 -1.1926 -0.6647  0.3821
  910MOL0     C20015   2.574   5.170   7.528 -0.1045 -0.1237 -0.5571
  910MOL0     C20016   2.673   5.071   7.496 -1.6135 -0.6375 -0.3428
  910MOL0     C20017   2.749   5.072   7.371  1.0375 -0.6148 -0.1270
  910MOL0     O20018   2.837   4.972   7.351 -0.4000 -0.6518  0.5735
  910MOL0     C20019   2.914   4.979   7.237 -0.0638 -0.2850 -0.1502
  910MOL0     C20020   2.857   4.946   7.112  0.4361  1.2091  0.0422
  910MOL0     C20021   2.946   4.953   7.003  0.0011  0.0987  0.1615
  910MOL0     C20022   3.085   4.974   7.020  0.2797 -0.3342 -0.0664
  910MOL0     O20023   3.167   4.977   6.909 -0.3643  0.0578 -0.0749
  910MOL0     C20024   3.259   5.095   6.899 -0.7218 -0.1089  0.6112
  910MOL0     C20025   3.292   5.119   6.749 -0.4136 -0.0082  0.2084
  910MOL0     C20026   3.382   5.000   6.698 -0.0201  0.8508  0.6178
  910MOL0     C20027   3.350   4.997   6.543 -0.4795 -0.3616  0.4017
  910MOL0     C20028   3.431   4.885   6.462  0.5908 -0.1819 -0.1658
  910MOL0     C20029   3.576   4.871   6.489 -0.4260  0.4052 -0.1942
  910MOL0     C20030   3.658   4.985   6.445  0.6543  0.2259 -1.4178
  910MOL0     C20031   3.700   4.979   6.302 -0.6888 -0.3039  0.3084
  910MOL0    Cl20032   3.835   4.860   6.281  0.0303  0.2113  0.3410
  910MOL0     C20033   3.137   4.997   7.143  0.1470  0.1850 -0.2531
  910MOL0     C20034   3.057   5.001   7.252  0.4818 -0.5013  0.0172
  910MOL0     O20035   2.730   5.171   7.296  0.1532  0.8987 -1.0350
  910MOL0     C20036   2.697   4.972   7.597 -1.2527 -0.5491  0.4448
  910MOL0     C20037   2.627   4.971   7.715  0.5469 -0.9443 -1.0446
  910MOL0     N20038   2.195   4.521   7.733  0.7020  0.3366 -0.2806
  910MOL0     N20039   2.246   4.485   7.623 -0.5358  0.6418 -0.4582
  910MOL0     C20040   3.281   4.545   6.788 -0.9711  0.4564 -0.1310
  910MOL0     C20041   3.413   4.553   6.748 -1.3029 -0.2151 -0.2904
  910MOL0     C20042   3.853   4.516   6.738 -1.4755 -0.4312 -0.2163
  910MOL0     C20043   3.926   4.389   6.732 -0.1657 -0.4984 -0.7677
  910MOL0     C20044   4.055   4.390   6.664 -0.5195 -0.7196 -0.6010
  910MOL0     C20045   4.124   4.506   6.619 -0.1160  0.2622  0.0067
  910MOL0     O20046   4.244   4.477   6.556  0.0727  0.3391  0.0887
  910MOL0     C20047   4.313   4.601   6.516  0.2745  0.0819 -0.2377
  910MOL0     C20048   4.438   4.571   6.445  0.4141 -0.3840 -0.2212
  910MOL0     C20049   4.555   4.676   6.454 -0.2143 -0.9334 -0.0443
  910MOL0     C20050   4.685   4.629   6.384  0.5564 -0.2689 -0.3088
  910MOL0     C20051   4.782   4.587   6.476  0.5347  0.1448  0.7459
  910MOL0     C20052   4.860   4.540   6.541 -0.2058 -0.5431  0.5027
  910MOL0     C20053   4.048   4.626   6.623  0.7676 -0.2057 -0.0761
  910MOL0     C20054   3.918   4.630   6.674  0.6824  0.5522  0.4144
  910MOL0     H20055   3.536   4.767   6.979  0.3167  2.1324 -3.3306
  910MOL0     H20056   3.297   4.778   7.031 -0.0454  0.5122  0.2114
  910MOL0     H20057   3.057   4.448   6.937  2.5519  1.1475  0.6780
  910MOL0     H20058   3.013   4.532   6.776  1.7554  0.0062 -0.2217
  910MOL0     H20059   2.822   4.485   6.857  1.2709 -1.4040  0.3858
  910MOL0     H20060   2.842   4.661   6.881  1.9871  0.2498 -1.8848
  910MOL0     H20061   2.906   4.654   7.108 -3.6337  1.8709  1.8536
  910MOL0     H20062   2.882   4.472   7.113  0.5869  0.4800 -0.6439
  910MOL0     H20063   2.664   4.673   7.053  0.6994 -0.3154 -1.3801
  910MOL0     H20064   2.653   4.498   7.039  0.7649  0.0645  0.5544
  910MOL0     H20065   2.743   4.656   7.287  1.2234 -0.9242  0.2884
  910MOL0     H20066   2.686   4.488   7.295 -1.9193 -2.0619 -1.1220
  910MOL0     H20067   2.463   4.539   7.210  0.7151 -1.5594  0.7085
  910MOL0     H20068   2.503   4.716   7.231  1.1832  0.4810  4.0729
  910MOL0     H20069   2.548   4.541   7.464  1.0422 -0.0059 -1.8392
  910MOL0     H20070   2.534   4.715   7.447  2.2927  0.9389 -5.2924
  910MOL0     H20071   2.329   4.494   7.391  1.7227  0.9332 -3.1515
  910MOL0     H20072   2.294   4.659   7.378  1.1310 -1.4513 -1.1589
  910MOL0     H20073   2.319   4.809   7.615  0.6576 -0.4340 -0.8156
  910MOL0     H20074   2.183   4.690   7.957 -1.5278 -2.5160 -1.2048
  910MOL0     H20075   2.073   4.781   7.843  0.0067  1.0057  0.2698
  910MOL0     H20076   2.210   4.953   7.951  0.2576  0.0714  1.5153
  910MOL0     H20077   2.253   4.927   7.778  0.9610 -1.8654 -0.2586
  910MOL0     H20078   2.381   4.788   8.014 -0.3662  0.2498  0.7816
  910MOL0     H20079   2.446   4.792   7.853  0.8733  0.6609  0.9182
  910MOL0     H20080   2.568   4.956   7.979  1.2080  2.1650  0.0221
  910MOL0     H20081   2.421   5.013   8.056 -1.0737 -1.1425 -1.1273
  910MOL0     H20082   2.434   5.235   7.676 -0.9937  0.3359 -1.8407
  910MOL0     H20083   2.556   5.250   7.458  1.6208  0.7890 -0.0228
  910MOL0     H20084   2.754   4.912   7.107  0.4643  0.7551  1.7620
  910MOL0     H20085   2.920   4.919   6.903  2.6544 -0.6583 -0.3501
  910MOL0     H20086   3.343   5.082   6.967 -0.0624 -0.8001 -0.3111
  910MOL0     H20087   3.209   5.185   6.938 -0.1192  0.2605  0.5401
  910MOL0     H20088   3.350   5.210   6.735  0.2322 -0.2597  1.1460
  910MOL0     H20089   3.200   5.131   6.690 -0.5321  3.4595  0.8920
  910MOL0     H20090   3.355   4.903   6.741  1.1225 -0.1552 -0.8168
  910MOL0     H20091   3.485   5.002   6.736 -0.5579  0.0328  2.1751
  910MOL0     H20092   3.247   4.964   6.529  0.1297 -1.5932 -1.5338
  910MOL0     H20093   3.361   5.101   6.510 -0.7077 -0.0728  1.2102
  910MOL0     H20094   3.400   4.911   6.361  0.5586 -0.9818 -0.3721
  910MOL0     H20095   3.397   4.782   6.480  1.5848 -0.5052 -0.0407
  910MOL0     H20096   3.608   4.776   6.445 -2.1958 -0.6775  0.7293
  910MOL0     H20097   3.610   4.864   6.593  2.6978  1.0583 -1.0799
  910MOL0     H20098   3.598   5.075   6.464  0.9578 -0.0776  1.2095
  910MOL0     H20099   3.746   5.001   6.507  0.7902 -2.4701 -0.8124
  910MOL0     H20100   3.741   5.078   6.280  1.2886 -1.0666  0.3639
  910MOL0     H20101   3.617   4.958   6.235  0.6541 -3.4793 -0.5120
  910MOL0     H20102   3.245   5.012   7.137  0.9402 -3.4634  1.8442
  910MOL0     H20103   3.097   5.035   7.346  0.3127  0.0170 -0.0962
  910MOL0     H20104   2.757   4.884   7.579  0.7725  1.0994 -1.5828
  910MOL0     H20105   2.661   4.882   7.768  0.6313 -0.4337 -0.2306
  910MOL0     H20106   3.229   4.472   6.727  0.0575  0.0865 -0.5778
  910MOL0     H20107   3.438   4.497   6.659  0.7866  3.6731 -2.3989
  910MOL0     H20108   3.872   4.305   6.774  0.3862  0.3294  1.7447
  910MOL0     H20109   4.106   4.295   6.648 -1.5655 -1.2511 -0.8435
  910MOL0     H20110   4.331   4.643   6.616 -0.7124 -0.5694  0.2411
  910MOL0     H20111   4.252   4.672   6.460 -0.1969  0.8155  1.1503
  910MOL0     H20112   4.470   4.475   6.487  1.7765  1.0860  2.3666
  910MOL0     H20113   4.413   4.554   6.339  0.5091 -3.3121  0.1360
  910MOL0     H20114   4.578   4.709   6.556  0.1757  1.2803 -0.7910
  910MOL0     H20115   4.526   4.763   6.394  4.9171  0.6835 -0.7096
  910MOL0     H20116   4.656   4.551   6.314 -1.8188 -0.3607  0.6666
  910MOL0     H20117   4.726   4.713   6.327 -1.6398 -0.5173 -2.4151
  910MOL0     H20118   4.918   4.483   6.612 -0.2287 -2.1396 -0.7010
  910MOL0     H20119   4.089   4.718   6.582 -1.9591  1.4548  0.6929
  910MOL0     H20120   3.877   4.730   6.675  1.5108  0.9682 -1.8729
  911MOL0     O20121   3.510   5.736   4.837 -0.2657  0.4686 -0.1681
  911MOL0     C20122   3.592   5.708   4.932  0.4233  0.5095  0.3090
  911MOL0     O20123   3.556   5.632   5.041 -0.4094  0.2553  0.9708
  911MOL0     C20124   3.438   5.568   5.046  0.9380 -0.1128 -0.3838
  911MOL0     C20125   3.374   5.508   4.940 -0.4122  0.4546  0.6436
  911MOL0     C20126   3.260   5.430   4.959  0.5686 -0.3526 -0.1333
  911MOL0     C20127   3.209   5.406   5.089  0.1520 -0.2262 -0.0165
  911MOL0     O20128   3.101   5.325   5.105  0.5048  0.0377  0.0874
  911MOL0     C20129   3.000   5.375   5.196 -0.0488  0.3737 -0.7541
  911MOL0     C20130   2.872   5.297   5.187  0.2054 -0.2126  0.3668
  911MOL0     C20131   2.801   5.279   5.320  0.0561  0.4362  0.0274
  911MOL0     C20132   2.648   5.294   5.316  0.4036  0.9862 -0.0137
  911MOL0     C20133   2.582   5.230   5.448  0.1175 -0.2068 -0.2041
  911MOL0     C20134   2.427   5.222   5.436  0.1866  0.7228 -0.7081
  911MOL0     C20135   2.366   5.180   5.567 -0.5525  0.2648  0.3703
  911MOL0     C20136   2.219   5.191   5.562  0.6476 -0.0456  0.8469
  911MOL0     N20137   2.145   5.076   5.503  0.6188 -0.2982  0.2400
  911MOL0     C20138   2.064   4.986   5.572 -0.4694  0.1376  0.1882
  911MOL0     C20139   1.975   4.930   5.483  1.0469 -0.1117  0.2484
  911MOL0     C20140   1.877   4.830   5.527  0.7255  0.3800  0.3602
  911MOL0     C20141   1.765   4.783   5.437 -1.2571 -0.1321 -0.1334
  911MOL0     C20142   1.680   4.900   5.382  0.3107 -0.5904 -0.1537
  911MOL0     C20143   1.540   4.861   5.326 -0.0870  0.0133  0.2243
  911MOL0     O20144   1.456   4.826   5.432 -0.1846  0.2680  0.0729
  911MOL0     C20145   1.324   4.818   5.422 -0.4198 -0.4085 -0.3941
  911MOL0     C20146   1.255   4.706   5.443 -0.9439 -0.6504 -0.5572
  911MOL0     C20147   1.118   4.701   5.437 -0.2675  0.3977 -0.0213
  911MOL0     C20148   1.052   4.814   5.382  0.5836  0.2545  0.2047
  911MOL0     C20149   0.906   4.803   5.358 -0.2239 -0.4692  0.0418
  911MOL0     O20150   0.834   4.702   5.404 -0.2802 -0.0799 -0.0871
  911MOL0     C20151   0.708   4.726   5.444 -0.7418 -0.0157  0.5385
  911MOL0     C20152   0.652   4.612   5.508  1.1517 -0.0270 -0.9301
  911MOL0     C20153   0.517   4.617   5.557 -0.4521  0.3654 -0.4789
  911MOL0     C20154   0.439   4.730   5.550  0.9317 -0.4691 -0.0637
  911MOL0     O20155   0.319   4.732   5.613  0.3026 -1.3128 -0.8973
  911MOL0     C20156   0.241   4.854   5.603 -0.0451  0.5956 -0.2242
  911MOL0     C20157   0.106   4.816   5.666 -1.1743 -0.5626  0.0128
  911MOL0     C20158   0.011   4.941   5.656 -0.8980 -0.2765 -0.1052
  911MOL0     C20159  -0.112   4.913   5.737 -0.1223 -0.8880 -0.8038
  911MOL0     C20160  -0.201   5.028   5.759 -0.5395 -0.0668  0.7368
  911MOL0     C20161  -0.351   4.987   5.767 -0.0649 -0.0515 -0.3873
  911MOL0     C20162  -0.417   4.953   5.638  0.1548  0.5541  0.4364
  911MOL0     C20163  -0.567   4.958   5.648 -0.0748  0.2160  0.4846
  911MOL0    Cl20164  -0.620   4.839   5.771  0.2570 -0.1822 -0.3434
  911MOL0     C20165   0.500   4.845   5.489  0.0407  0.2975 -0.0790
  911MOL0     C20166   0.628   4.835   5.425  0.7983  0.3076 -0.0150
  911MOL0     O20167   0.868   4.886   5.279  0.6892 -0.1503 -0.2911
  911MOL0     C20168   1.123   4.928   5.347 -0.6856 -0.2232  0.4211
  911MOL0     C20169   1.259   4.926   5.380  1.0419  0.2276 -0.2466
  911MOL0     N20170   2.006   4.971   5.356 -0.4241  0.7230  0.1983
  911MOL0     N20171   2.104   5.058   5.367  0.0004 -0.8202  0.2093
  911MOL0     C20172   3.274   5.470   5.199 -0.5955 -0.4605  0.5791
  911MOL0     C20173   3.387   5.545   5.180  0.3807 -1.2752  0.0472
  911MOL0     C20174   3.713   5.794   4.933 -0.3798  0.1327 -0.5590
  911MOL0     C20175   3.770   5.847   5.052 -0.1556  0.2323  0.4538
  911MOL0     C20176   3.897   5.906   5.049  0.0501 -0.5542  0.6597
  911MOL0     C20177   3.952   5.943   4.924 -0.1780  0.3949 -0.4023
  911MOL0     O20178   4.071   6.012   4.904 -0.4738 -0.4173  0.3488
  911MOL0     C20179   4.129   6.086   5.019  0.1582  1.8684  0.3824
  911MOL0     C20180   4.238   6.191   4.984  0.1937 -0.2558 -0.6204
  911MOL0     C20181   4.338   6.135   4.880  0.9698  0.3934  0.9552
  911MOL0     C20182   4.287   6.174   4.746  0.1583  0.7908  0.5659
  911MOL0     C20183   4.392   6.159   4.646  0.9113  0.4362  0.6447
  911MOL0     C20184   4.471   6.172   4.562  0.2995 -0.9897  0.1565
  911MOL0     C20185   3.894   5.889   4.809 -0.6660 -0.1821 -0.6735
  911MOL0     C20186   3.779   5.812   4.813  0.1220 -0.3323 -0.4846
  911MOL0     H20187   3.406   5.523   4.837 -3.6050  3.2960 -0.1408
  911MOL0     H20188   3.211   5.375   4.879 -3.0831 -0.6748  2.1090
  911MOL0     H20189   2.980   5.481   5.176  0.3578  0.1531 -2.4663
  911MOL0     H20190   3.030   5.379   5.301 -2.3685 -0.3520  0.0092
  911MOL0     H20191   2.889   5.203   5.134 -2.0729 -0.0833 -0.7156
  911MOL0     H20192   2.808   5.357   5.121  0.5103 -0.3550 -0.0687
  911MOL0     H20193   2.836   5.354   5.392 -1.6134  0.0324  1.3476
  911MOL0     H20194   2.834   5.183   5.360 -1.5191  0.6093  1.8686
  911MOL0     H20195   2.624   5.400   5.305 -0.2075  1.2744  3.0930
  911MOL0     H20196   2.598   5.245   5.231 -2.7010  0.5587  1.8687
  911MOL0     H20197   2.620   5.286   5.534 -0.4223  0.1054 -0.1645
  911MOL0     H20198   2.619   5.128   5.457 -1.4818 -1.0163 -1.9728
  911MOL0     H20199   2.411   5.151   5.354 -1.3972  0.1111  0.0926
  911MOL0     H20200   2.382   5.316   5.402 -0.5340  0.7221  0.2305
  911MOL0     H20201   2.404   5.082   5.596  0.4464  0.3071 -0.7124
  911MOL0     H20202   2.404   5.249   5.642  2.0345  1.8089 -2.1573
  911MOL0     H20203   2.191   5.287   5.519  0.7806  0.2461  1.4012
  911MOL0     H20204   2.177   5.188   5.663 -1.0956 -0.7758  0.1271
  911MOL0     H20205   2.079   4.952   5.674 -2.2957 -0.6364  0.2398
  911MOL0     H20206   1.833   4.878   5.614  1.6737  1.9557  0.0084
  911MOL0     H20207   1.925   4.737   5.560 -2.4382 -1.4193  0.3452
  911MOL0     H20208   1.709   4.708   5.493 -4.0992  3.3146  2.1101
  911MOL0     H20209   1.798   4.728   5.348 -2.2299  1.3431 -1.4690
  911MOL0     H20210   1.678   4.989   5.444 -0.5300  0.4917 -1.6630
  911MOL0     H20211   1.739   4.944   5.301  0.1920  0.1217  0.1370
  911MOL0     H20212   1.529   4.780   5.253 -3.1145  0.6503 -0.1662
  911MOL0     H20213   1.506   4.945   5.265  0.2073 -0.5478 -0.7262
  911MOL0     H20214   1.323   4.623   5.457  2.2401  1.8365  0.0030
  911MOL0     H20215   1.063   4.609   5.456 -0.8760  1.1164  1.8906
  911MOL0     H20216   0.699   4.521   5.545 -0.2851  0.5745  2.7264
  911MOL0     H20217   0.461   4.533   5.596  0.7097 -0.5695 -0.7871
  911MOL0     H20218   0.235   4.879   5.497  1.5617  0.4704 -0.3674
  911MOL0     H20219   0.290   4.938   5.653  2.0436 -1.4749  1.4421
  911MOL0     H20220   0.110   4.787   5.772  3.2076  1.8082  0.7461
  911MOL0     H20221   0.057   4.735   5.610 -4.1041  0.4912  0.8546
  911MOL0     H20222  -0.018   4.945   5.550  0.9001 -4.3470 -0.9489
  911MOL0     H20223   0.051   5.036   5.694  1.6985 -2.2433  2.5610
  911MOL0     H20224  -0.160   4.825   5.694 -0.1148 -1.1556 -0.2715
  911MOL0     H20225  -0.082   4.878   5.837 -1.3257  1.1416  0.3383
  911MOL0     H20226  -0.190   5.103   5.680 -1.4751 -0.8181 -0.1443
  911MOL0     H20227  -0.170   5.070   5.855 -2.3809 -0.7328  1.6697
  911MOL0     H20228  -0.404   5.065   5.823  0.9137 -1.2216  2.3536
  911MOL0     H20229  -0.350   4.898   5.831 -0.9728  0.1377 -0.0879
  911MOL0     H20230  -0.396   5.038   5.571 -0.7273  0.8284  0.5004
  911MOL0     H20231  -0.383   4.855   5.602 -2.2217  0.2749 -1.3160
  911MOL0     H20232  -0.614   4.928   5.554 -1.6497  3.2689  0.1672
  911MOL0     H20233  -0.596   5.059   5.679 -0.5245  0.2617 -0.0749
  911MOL0     H20234   0.447   4.939   5.472  2.1169  1.0664 -3.3633
  911MOL0     H20235   0.666   4.925   5.377  3.3550 -1.2058 -0.9906
  911MOL0     H20236   1.074   5.020   5.316  0.9388  0.6577  0.3202
  911MOL0     H20237   1.306   5.023   5.367  1.6076  0.3798  2.3875
  911MOL0     H20238   3.234   5.464   5.300 -2.1228  2.3340  0.2656
  911MOL0     H20239   3.428   5.590   5.269 -3.3532  5.3791 -0.9604
  911MOL0     H20240   3.724   5.827   5.148  4.9923  0.1897  3.2704
  911MOL0     H20241   3.953   5.938   5.137  1.0687  0.1165 -0.2140
  911MOL0     H20242   4.176   6.019   5.092 -0.7686 -0.0244 -0.6711
  911MOL0     H20243   4.052   6.143   5.072 -0.8647  2.2703 -1.4575
  911MOL0     H20244   4.197   6.282   4.939  3.6513  0.1873 -3.2672
  911MOL0     H20245   4.295   6.235   5.067  2.5558  1.2744 -2.9300
  911MOL0     H20246   4.335   6.026   4.889 -0.9832  0.1719 -1.2235
  911MOL0     H20247   4.433   6.181   4.908  1.0048  0.7582  0.2671
  911MOL0     H20248   4.205   6.113   4.707  0.8082 -1.5779  2.6268
  911MOL0     H20249   4.264   6.280   4.760  0.8041  1.0316 -0.1082
  911MOL0     H20250   4.556   6.194   4.499  0.1707  1.3549  0.6854
  911MOL0     H20251   3.950   5.898   4.716 -3.2920  0.0347 -2.3287
  911MOL0     H20252   3.746   5.770   4.718 -1.1658  0.4929 -0.4244
  912MOL0     O20253   6.564   1.644   5.089 -0.6687 -0.5304  0.2299
  912MOL0     C20254   6.650   1.727   5.116  0.4249  1.1488  0.8920
  912MOL0     O20255   6.627   1.863   5.135 -0.1987 -0.2299  0.1979
  912MOL0     C20256   6.507   1.912   5.084 -0.2525  0.3581  0.5302
  912MOL0     C20257   6.378   1.870   5.116  0.1426 -0.3815 -0.3319
  912MOL0     C20258   6.267   1.933   5.053  0.7803  0.0012  0.3059
  912MOL0     C20259   6.283   2.050   4.979  0.3505  0.1230  0.0523
  912MOL0     O20260   6.185   2.116   4.910  0.3953 -0.6783 -0.1703
  912MOL0     C20261   6.045   2.079   4.937 -0.8071 -0.0889  1.2391
  912MOL0     C20262   5.955   2.181   4.874 -0.2480  0.1065  0.8853
  912MOL0     C20263   5.811   2.178   4.906  0.2150 -0.6757 -0.1775
  912MOL0     C20264   5.738   2.051   4.869 -0.3376  0.4466 -0.0901
  912MOL0     C20265   5.583   2.068   4.870 -0.5267 -0.0507  0.6092
  912MOL0     C20266   5.525   2.151   4.757 -0.6140 -0.3090 -0.0977
  912MOL0     C20267   5.371   2.161   4.748 -0.5695 -0.2081  1.2365
  912MOL0     C20268   5.315   2.053   4.658 -0.5352  0.2142  0.3130
  912MOL0     N20269   5.178   2.029   4.657 -0.0955 -0.4517  0.3326
  912MOL0     C20270   5.103   2.113   4.593  1.2374 -0.3311  0.0491
  912MOL0     C20271   4.995   2.039   4.554  0.5107  0.0912 -0.7275
  912MOL0     C20272   4.884   2.102   4.477 -0.3364 -0.2700  0.6279
  912MOL0     C20273   4.815   2.227   4.545  0.1541  1.2246  0.5071
  912MOL0     C20274   4.734   2.184   4.671  0.5615  0.1733 -0.4019
  912MOL0     C20275   4.639   2.306   4.704 -0.3267 -0.5399  0.5047
  912MOL0     O20276   4.544   2.326   4.592 -0.5131  0.3055  0.1635
  912MOL0     C20277   4.422   2.258   4.580  0.5441  0.9624  0.3795
  912MOL0     C20278   4.388   2.144   4.664  0.5935  0.2723  0.2284
  912MOL0     C20279   4.271   2.072   4.645 -0.0203  0.0439 -0.4338
  912MOL0     C20280   4.178   2.124   4.552  0.2224 -0.2581  0.1829
  912MOL0     C20281   4.043   2.057   4.535  0.5242  0.5854 -0.4037
  912MOL0     O20282   4.008   2.004   4.654 -0.0002 -0.0511 -0.8403
  912MOL0     C20283   3.914   1.908   4.657  0.5158 -0.7147  0.2091
  912MOL0     C20284   3.803   1.926   4.743 -0.0468  0.1958  0.6660
  912MOL0     C20285   3.711   1.822   4.761  0.8567  0.6912  0.3418
  912MOL0     C20286   3.712   1.705   4.678  0.0272  0.6209  0.3646
  912MOL0     O20287   3.625   1.599   4.682  0.6290 -0.1577 -0.2344
  912MOL0     C20288   3.543   1.598   4.802 -0.2923 -0.2956  0.0180
  912MOL0     C20289   3.449   1.475   4.798 -0.3149 -0.5088 -1.0723
  912MOL0     C20290   3.363   1.481   4.922  0.2891 -0.2389  0.6150
  912MOL0     C20291   3.216   1.422   4.906  0.5948  0.1713  0.2078
  912MOL0     C20292   3.166   1.381   5.043  0.5279  0.2944  0.6869
  912MOL0     C20293   3.055   1.281   5.024 -0.2833 -1.0040 -0.7835
  912MOL0     C20294   2.932   1.335   4.974 -0.1747 -0.1444  0.0284
  912MOL0     C20295   2.802   1.254   5.004  0.3589 -0.0755  0.4493
  912MOL0    Cl20296   2.802   1.105   4.895  0.0959  0.0076 -0.0967
  912MOL0     C20297   3.821   1.688   4.593  0.1526 -0.0373  0.8429
  912MOL0     C20298   3.923   1.786   4.587  0.0296  0.0658 -0.8989
  912MOL0     O20299   3.976   2.053   4.433  0.1042  0.0375 -0.4801
  912MOL0     C20300   4.209   2.229   4.477 -0.0965  0.7696 -0.2213
  912MOL0     C20301   4.323   2.303   4.492  0.8186  0.5136  0.6311
  912MOL0     N20302   5.009   1.910   4.608 -0.0219  0.3969 -0.6334
  912MOL0     N20303   5.121   1.909   4.671  0.6243  0.2079 -0.0156
  912MOL0     C20304   6.413   2.090   4.953  0.8736  1.0883  0.3515
  912MOL0     C20305   6.525   2.022   5.004  0.3723 -0.5081 -0.6238
  912MOL0     C20306   6.788   1.691   5.119  0.3600 -0.4627  1.0101
  912MOL0     C20307   6.827   1.572   5.062  0.6625  0.4836 -0.0199
  912MOL0     C20308   6.958   1.530   5.065  0.2685  0.0036 -0.6849
  912MOL0     C20309   7.056   1.607   5.123  0.3695 -0.8838 -0.7448
  912MOL0     O20310   7.186   1.574   5.122  0.3568  0.1480 -0.5959
  912MOL0     C20311   7.231   1.472   5.032 -0.4650  0.0102 -0.0913
  912MOL0     C20312   7.384   1.455   5.041  0.2230 -0.4892  0.2928
  912MOL0     C20313   7.418   1.373   5.165  0.1079 -1.4425  0.6657
  912MOL0     C20314   7.566   1.342   5.169  0.1701 -0.9853 -0.3771
  912MOL0     C20315   7.629   1.252   5.069  0.7734 -0.8620 -0.5688
  912MOL0     C20316   7.686   1.191   4.990 -0.7970 -0.1603 -0.3259
  912MOL0     C20317   7.025   1.725   5.185  1.0173  0.6183 -0.6641
  912MOL0     C20318   6.891   1.766   5.184 -0.1100 -1.0933  0.9961
  912MOL0     H20319   6.366   1.775   5.168  1.9967  0.1312  1.1296
  912MOL0     H20320   6.171   1.890   5.075  1.1063 -0.7789  0.2166
  912MOL0     H20321   6.034   2.079   5.046  1.1600 -2.3108  1.5263
  912MOL0     H20322   6.026   1.982   4.891 -2.4259  0.4692  0.6622
  912MOL0     H20323   5.958   2.188   4.765 -5.3069  1.1057  0.5552
  912MOL0     H20324   5.999   2.274   4.913  2.9683 -1.4542  1.2695
  912MOL0     H20325   5.765   2.268   4.863 -0.3449 -1.1813 -0.6607
  912MOL0     H20326   5.789   2.184   5.013  1.5468  3.0688  0.0022
  912MOL0     H20327   5.758   2.010   4.770 -3.8442 -0.6365 -0.4793
  912MOL0     H20328   5.768   1.977   4.944 -2.1166  0.0711  0.2992
  912MOL0     H20329   5.554   2.114   4.965 -1.8530  3.3024 -1.2276
  912MOL0     H20330   5.534   1.971   4.859  0.9144 -0.9267  1.6374
  912MOL0     H20331   5.554   2.114   4.658  3.0538 -1.3782  1.2484
  912MOL0     H20332   5.575   2.248   4.758  1.3491 -1.2836  0.5669
  912MOL0     H20333   5.321   2.152   4.845  0.5567 -1.1017  1.7552
  912MOL0     H20334   5.348   2.259   4.707 -0.2531  0.2640  2.1589
  912MOL0     H20335   5.368   1.961   4.684  0.7719 -0.1869 -3.2203
  912MOL0     H20336   5.347   2.068   4.554 -0.1141  2.1756  0.6814
  912MOL0     H20337   5.120   2.217   4.567  0.8390 -0.1086  0.6509
  912MOL0     H20338   4.806   2.033   4.443 -1.6744  2.1749 -1.6471
  912MOL0     H20339   4.927   2.130   4.380 -1.5245  3.4180  1.0281
  912MOL0     H20340   4.736   2.266   4.479 -1.1497 -0.5792  0.9297
  912MOL0     H20341   4.881   2.309   4.571 -1.1012  1.9062  1.6676
  912MOL0     H20342   4.669   2.100   4.649 -0.9818  0.4188  2.7128
  912MOL0     H20343   4.805   2.161   4.750  1.3804 -2.3012 -1.7512
  912MOL0     H20344   4.699   2.396   4.717  1.1712 -1.3912 -0.2717
  912MOL0     H20345   4.593   2.293   4.803  1.3496  0.4272  1.4409
  912MOL0     H20346   4.460   2.116   4.740  0.3342  0.4207  0.5325
  912MOL0     H20347   4.256   1.988   4.711 -0.9725  1.3028  1.0387
  912MOL0     H20348   3.801   2.024   4.789 -0.6660  0.3314  0.3598
  912MOL0     H20349   3.639   1.862   4.833  0.9671  3.1982 -0.8140
  912MOL0     H20350   3.485   1.690   4.808  2.6481  1.7305 -0.0852
  912MOL0     H20351   3.613   1.603   4.887  1.1274  0.0053 -1.1203
  912MOL0     H20352   3.497   1.378   4.785  1.4861  0.2819 -0.6528
  912MOL0     H20353   3.381   1.488   4.714 -0.4657 -3.5197 -1.5179
  912MOL0     H20354   3.343   1.585   4.952 -2.6515  0.7541 -3.8473
  912MOL0     H20355   3.419   1.436   5.004 -2.4795 -2.4367  1.4659
  912MOL0     H20356   3.155   1.506   4.872  2.1592  1.3146  0.1199
  912MOL0     H20357   3.212   1.343   4.830  2.4618  0.6830 -0.4717
  912MOL0     H20358   3.128   1.468   5.098 -0.5759 -1.2040  2.4171
  912MOL0     H20359   3.254   1.348   5.100  1.4174  0.7589 -0.3830
  912MOL0     H20360   3.038   1.246   5.126 -3.6882  0.0501 -0.8759
  912MOL0     H20361   3.097   1.194   4.972 -0.5174 -3.2080  2.4069
  912MOL0     H20362   2.912   1.431   5.022  2.3808 -1.4741  4.3786
  912MOL0     H20363   2.940   1.354   4.867  3.8724 -0.3101  0.1160
  912MOL0     H20364   2.715   1.315   4.978  2.1169  1.1627 -3.1655
  912MOL0     H20365   2.800   1.227   5.110 -0.9835 -1.1585  0.1860
  912MOL0     H20366   3.824   1.597   4.534 -0.2269 -0.6848  1.8104
  912MOL0     H20367   4.011   1.785   4.523 -1.4584  0.1594 -3.0161
  912MOL0     H20368   4.131   2.264   4.409  0.7480  0.7208 -1.2476
  912MOL0     H20369   4.348   2.393   4.436  2.8430  0.3620  1.2098
  912MOL0     H20370   6.423   2.175   4.886  1.7587 -0.0450 -1.0341
  912MOL0     H20371   6.624   2.058   4.977  0.6980 -1.1741 -0.3310
  912MOL0     H20372   6.770   1.491   5.018  0.9258  0.6799 -0.7514
  912MOL0     H20373   6.983   1.430   5.031  0.5300 -0.1779  0.0283
  912MOL0     H20374   7.218   1.514   4.932 -0.8115 -1.0764 -0.5208
  912MOL0     H20375   7.169   1.382   5.035 -0.8214  0.2630  1.1053
  912MOL0     H20376   7.436   1.396   4.966  0.4285 -1.4953  1.2066
  912MOL0     H20377   7.426   1.556   5.040  0.9120 -0.7719 -0.9376
  912MOL0     H20378   7.366   1.277   5.167 -0.0021 -1.3888  0.4302
  912MOL0     H20379   7.385   1.432   5.251 -2.8936 -0.2135 -1.1765
  912MOL0     H20380   7.626   1.434   5.167  0.9185 -1.4559  0.1130
  912MOL0     H20381   7.586   1.296   5.266 -3.7356 -0.2521  0.9696
  912MOL0     H20382   7.746   1.136   4.920 -3.1667 -0.9293 -1.8892
  912MOL0     H20383   7.103   1.795   5.214  1.3722  0.0087 -0.1121
  912MOL0     H20384   6.863   1.859   5.232  0.2385 -1.1053  1.2317
  913MOL0     O20385   6.639  10.369   3.160 -0.3684 -0.9232  0.1203
  913MOL0     C20386   6.631  10.298   3.251  0.2929  0.2447 -0.7003
  913MOL0     O20387   6.526  10.210   3.281 -0.4193 -0.1815  0.6366
  913MOL0     C20388   6.418  10.183   3.196 -0.4222  0.6293  0.9171
  913MOL0     C20389   6.286  10.164   3.241  0.2624 -0.0117  0.1301
  913MOL0     C20390   6.191  10.112   3.149  0.7271 -0.1157  0.1766
  913MOL0     C20391   6.221  10.089   3.014  0.3719 -0.3666 -0.0770
  913MOL0     O20392   6.139  10.036   2.926 -0.0827  0.1665  0.3220
  913MOL0     C20393   6.034  10.125   2.874  0.2301 -0.1756  0.1083
  913MOL0     C20394   5.933  10.036   2.802  0.1294 -0.4722  0.0186
  913MOL0     C20395   5.845   9.969   2.901  0.3028  0.1188 -0.3947
  913MOL0     C20396   5.731   9.898   2.824 -0.5370  0.1261  0.5294
  913MOL0     C20397   5.666   9.789   2.910 -1.4923 -0.0991  0.2846
  913MOL0     C20398   5.556   9.714   2.839 -0.4599  0.5639 -0.0219
  913MOL0     C20399   5.523   9.573   2.904 -0.0890 -0.1721 -0.4789
  913MOL0     C20400   5.434   9.492   2.816  0.6232 -0.1374 -0.2508
  913MOL0     N20401   5.411   9.355   2.869 -0.4177  0.8063  0.0270
  913MOL0     C20402   5.289   9.317   2.912 -0.1142 -0.2480  0.9108
  913MOL0     C20403   5.299   9.203   2.968  0.5065 -0.4755 -0.3006
  913MOL0     C20404   5.201   9.128   3.039  0.4553 -0.4882  0.0478
  913MOL0     C20405   5.055   9.170   3.001 -0.4520 -0.2662  0.2190
  913MOL0     C20406   4.951   9.072   3.065 -0.8556 -0.7307 -0.0601
  913MOL0     C20407   4.808   9.095   3.031 -0.9420 -0.6369  0.6710
  913MOL0     O20408   4.804   9.093   2.890 -0.3139  0.2679  0.1392
  913MOL0     C20409   4.688   9.078   2.820 -0.5245  0.4512 -0.5567
  913MOL0     C20410   4.561   9.033   2.873  0.4847  0.4554  0.5093
  913MOL0     C20411   4.444   9.045   2.795 -0.4152 -0.0379  0.9343
  913MOL0     C20412   4.459   9.084   2.655 -0.1093  0.6523 -1.2267
  913MOL0     C20413   4.341   9.098   2.569 -0.0520  0.1433 -0.7707
  913MOL0     O20414   4.223   9.040   2.616  0.3259 -0.0417  0.5898
  913MOL0     C20415   4.102   9.034   2.555  0.6720  0.7687 -0.1857
  913MOL0     C20416   3.994   8.992   2.639 -0.8475 -0.6135  0.0854
  913MOL0     C20417   3.858   8.977   2.605  0.8417 -0.8527  1.0469
  913MOL0     C20418   3.833   9.017   2.470 -0.0428 -1.1893 -0.4909
  913MOL0     O20419   3.703   8.998   2.419 -0.4673 -1.2054 -0.0296
  913MOL0     C20420   3.596   9.041   2.508 -0.3814  0.0767 -0.0680
  913MOL0     C20421   3.471   9.080   2.436  0.0472  0.2291  0.5805
  913MOL0     C20422   3.379   9.138   2.543 -0.7959  0.1458  0.2027
  913MOL0     C20423   3.266   9.216   2.485  0.4619  0.0827 -0.2072
  913MOL0     C20424   3.151   9.219   2.590 -0.0876 -0.0861 -0.8862
  913MOL0     C20425   3.160   9.301   2.711 -0.3294  0.0779  0.3164
  913MOL0     C20426   3.027   9.298   2.790 -1.1393 -0.1420  0.3660
  913MOL0     C20427   2.990   9.433   2.850 -0.5332 -0.1391 -0.9836
  913MOL0    Cl20428   3.134   9.489   2.950  0.1732 -0.5242 -0.1732
  913MOL0     C20429   3.925   9.075   2.388 -0.2938 -0.0059  0.2988
  913MOL0     C20430   4.059   9.084   2.428 -0.6644  0.5410  0.3259
  913MOL0     O20431   4.366   9.163   2.466  0.6043 -0.2674  0.9529
  913MOL0     C20432   4.592   9.111   2.605 -1.2487 -0.3463  1.0635
  913MOL0     C20433   4.705   9.118   2.694  0.4622  0.0390  0.5896
  913MOL0     N20434   5.433   9.159   2.957  0.1857 -0.1733 -0.2970
  913MOL0     N20435   5.503   9.252   2.901 -0.0062  0.3246 -0.7326
  913MOL0     C20436   6.344  10.113   2.973 -0.9664 -0.4413  0.3849
  913MOL0     C20437   6.441  10.166   3.054  0.2433  0.7203  0.4746
  913MOL0     C20438   6.730  10.323   3.363  0.3369 -0.0320  0.6362
  913MOL0     C20439   6.803  10.444   3.363  0.2039 -0.7047  0.4186
  913MOL0     C20440   6.904  10.463   3.457  0.9760 -0.3293  0.0864
  913MOL0     C20441   6.932  10.381   3.571  0.9841 -0.1146  0.5310
  913MOL0     O20442   7.045  10.405   3.647  0.3660  0.4663 -0.1016
  913MOL0     C20443   7.107  10.288   3.703 -0.1908 -0.0218 -0.2008
  913MOL0     C20444   7.175  10.211   3.590 -0.1185  0.5131  0.3155
  913MOL0     C20445   7.307  10.162   3.615 -1.0925  0.4537 -0.0233
  913MOL0     C20446   7.420  10.248   3.574  0.6358  0.9148 -0.2033
  913MOL0     C20447   7.444  10.374   3.643 -1.0854  0.2815 -0.0623
  913MOL0     C20448   7.488  10.470   3.701 -0.1362  0.2533  0.8141
  913MOL0     C20449   6.840  10.272   3.580 -0.0310 -0.5319  0.4233
  913MOL0     C20450   6.753  10.240   3.473 -1.1318  1.0628 -1.0307
  913MOL0     H20451   6.262  10.169   3.347  3.1043 -0.8961  0.9089
  913MOL0     H20452   6.090  10.094   3.184  0.6435  1.4975  0.8715
  913MOL0     H20453   6.075  10.193   2.799 -2.5580  0.0378 -1.3273
  913MOL0     H20454   5.979  10.190   2.943 -2.9535  0.2646 -2.6271
  913MOL0     H20455   5.991   9.972   2.734 -1.7981  1.0763 -3.2917
  913MOL0     H20456   5.877  10.095   2.730  0.2344  1.6052  1.5548
  913MOL0     H20457   5.804  10.035   2.978 -2.5903  0.8189 -2.3997
  913MOL0     H20458   5.907   9.895   2.953  1.8234  1.6262  0.0539
  913MOL0     H20459   5.660   9.971   2.785  0.1091 -1.4081 -4.1520
  913MOL0     H20460   5.780   9.860   2.734  3.0012  0.5217  2.1224
  913MOL0     H20461   5.652   9.815   3.016 -0.4755  1.6668  0.0321
  913MOL0     H20462   5.745   9.713   2.916 -0.5317  0.5667 -2.4490
  913MOL0     H20463   5.577   9.692   2.734 -2.0319 -2.3045  0.1694
  913MOL0     H20464   5.471   9.783   2.846 -0.8289  0.2572 -1.1999
  913MOL0     H20465   5.619   9.521   2.900  0.5412  0.9118  0.1736
  913MOL0     H20466   5.493   9.587   3.008 -0.3145 -2.4611 -0.1706
  913MOL0     H20467   5.480   9.477   2.718  2.3134 -1.5061  0.7003
  913MOL0     H20468   5.339   9.544   2.799 -0.8967 -2.5512  0.3820
  913MOL0     H20469   5.201   9.380   2.905  0.3888  0.2527 -3.0057
  913MOL0     H20470   5.212   9.159   3.143 -0.7823  3.3875 -0.7861
  913MOL0     H20471   5.225   9.022   3.026  2.8804 -0.0022  0.1779
  913MOL0     H20472   5.051   9.152   2.893  0.7546 -2.9317  0.5263
  913MOL0     H20473   5.024   9.270   3.032  0.4538  0.5941 -1.4949
  913MOL0     H20474   4.982   8.974   3.028  2.4983 -0.1902  1.0263
  913MOL0     H20475   4.965   9.074   3.173  0.4278 -3.7260 -0.0703
  913MOL0     H20476   4.768   9.191   3.065  1.2570  0.4426  0.3722
  913MOL0     H20477   4.745   9.022   3.083 -3.3411 -0.4492 -1.7777
  913MOL0     H20478   4.558   8.990   2.973 -0.0659 -0.9465 -0.0836
  913MOL0     H20479   4.345   9.030   2.838 -0.6950 -1.3744 -0.0933
  913MOL0     H20480   4.017   8.960   2.741  3.1832  0.4726 -0.3335
  913MOL0     H20481   3.780   8.934   2.667 -0.2289 -0.5480 -0.0453
  913MOL0     H20482   3.630   9.113   2.583 -0.7084 -0.6530  0.8037
  913MOL0     H20483   3.580   8.948   2.563 -1.4888 -1.3097 -2.5849
  913MOL0     H20484   3.429   8.997   2.379  1.3601  0.5601 -0.9224
  913MOL0     H20485   3.484   9.152   2.355 -1.9259 -0.5496 -0.4932
  913MOL0     H20486   3.437   9.202   2.610  1.7010  1.1767 -2.7140
  913MOL0     H20487   3.350   9.053   2.606 -0.5200 -0.3888 -0.3832
  913MOL0     H20488   3.288   9.319   2.454 -2.0492  0.1543 -2.1525
  913MOL0     H20489   3.221   9.165   2.399  0.4276 -2.2822  1.1439
  913MOL0     H20490   3.126   9.117   2.622  0.6655  0.4099  1.4556
  913MOL0     H20491   3.060   9.250   2.537  0.0856  2.8795  0.3779
  913MOL0     H20492   3.195   9.402   2.689 -2.0522  0.8763  1.0528
  913MOL0     H20493   3.238   9.262   2.777  0.2124 -0.3697 -0.5684
  913MOL0     H20494   2.947   9.263   2.723  1.4264 -2.6406 -1.6089
  913MOL0     H20495   3.033   9.217   2.863  1.3071 -0.2132  0.1458
  913MOL0     H20496   2.898   9.420   2.909 -0.2387 -0.8025 -0.6692
  913MOL0     H20497   2.977   9.502   2.766 -0.7351 -3.6580 -4.1071
  913MOL0     H20498   3.912   9.103   2.284  2.3275  1.6006  0.3249
  913MOL0     H20499   4.126   9.150   2.373 -0.0494 -0.0594  0.3361
  913MOL0     H20500   4.612   9.140   2.503 -1.4325 -0.6435  0.9407
  913MOL0     H20501   4.807   9.127   2.657  0.8320 -2.0814  0.9599
  913MOL0     H20502   6.361  10.102   2.867 -1.6380 -0.3934  0.2689
  913MOL0     H20503   6.533  10.208   3.014 -0.9205  3.4000  0.3614
  913MOL0     H20504   6.789  10.521   3.288  1.8227 -0.7058  0.0837
  913MOL0     H20505   6.975  10.545   3.449 -0.4139  0.7141 -3.1126
  913MOL0     H20506   7.033  10.232   3.760  0.2546 -0.3577  0.0580
  913MOL0     H20507   7.186  10.305   3.777  1.6299 -3.5062 -1.1062
  913MOL0     H20508   7.114  10.122   3.568  2.0418 -1.2990  1.3220
  913MOL0     H20509   7.169  10.269   3.497  1.7173  1.1986  0.5810
  913MOL0     H20510   7.319  10.063   3.571  0.0005  0.4103  0.3305
  913MOL0     H20511   7.319  10.135   3.720  2.5281 -2.4513 -0.9804
  913MOL0     H20512   7.511  10.188   3.582  0.1291  0.1752  0.1715
  913MOL0     H20513   7.394  10.272   3.470  0.0321  3.0988  0.3995
  913MOL0     H20514   7.533  10.553   3.753 -0.9755  0.8835  0.5518
  913MOL0     H20515   6.850  10.191   3.652 -2.2272 -0.9932  0.2796
  913MOL0     H20516   6.703  10.143   3.471  1.6361 -0.4744 -1.5905
  914MOL0     O20517   9.323   6.743   8.456  0.0909 -0.4837 -0.1311
  914MOL0     C20518   9.330   6.662   8.363 -0.0206 -0.0326  0.8276
  914MOL0     O20519   9.216   6.608   8.290 -0.2859  0.5654 -0.1507
  914MOL0     C20520   9.090   6.607   8.341 -0.9242  0.1309 -0.2480
  914MOL0     C20521   9.066   6.598   8.474  0.7158  0.2649 -0.9098
  914MOL0     C20522   8.933   6.578   8.522  0.1641 -0.5575  0.5256
  914MOL0     C20523   8.828   6.570   8.439  0.0757  0.0976 -0.7091
  914MOL0     O20524   8.699   6.569   8.499 -0.6392  0.1081 -0.8461
  914MOL0     C20525   8.597   6.535   8.407 -0.1751  0.4605 -0.3150
  914MOL0     C20526   8.471   6.504   8.488 -0.1569  0.0597  0.0260
  914MOL0     C20527   8.348   6.492   8.401 -0.3287 -0.2152 -0.5334
  914MOL0     C20528   8.230   6.470   8.493  0.6658  0.0374  0.3485
  914MOL0     C20529   8.102   6.407   8.424  0.5639 -0.2004 -0.4530
  914MOL0     C20530   8.038   6.492   8.319  0.0191 -0.0739  0.8681
  914MOL0     C20531   7.916   6.433   8.252 -0.1165 -0.8258 -0.2668
  914MOL0     C20532   7.794   6.427   8.342  0.0634 -0.4157  1.0409
  914MOL0     N20533   7.668   6.405   8.265 -0.7116 -0.4058 -0.4679
  914MOL0     C20534   7.610   6.498   8.177 -0.3878  0.8219 -0.6387
  914MOL0     C20535   7.497   6.434   8.135  0.0016 -0.0035  0.4239
  914MOL0     C20536   7.403   6.481   8.033 -0.1872 -0.2187  1.3649
  914MOL0     C20537   7.257   6.485   8.086 -1.1418 -0.4893  0.1035
  914MOL0     C20538   7.159   6.556   7.989  0.4503 -0.6963 -0.4603
  914MOL0     C20539   7.182   6.703   7.963  0.1692 -0.5920 -0.4077
  914MOL0     O20540   7.133   6.764   7.847 -0.3876 -0.0911 -0.1306
  914MOL0     C20541   6.997   6.769   7.815 -1.0853  0.9949 -0.5481
  914MOL0     C20542   6.970   6.793   7.679 -0.4169  0.2527 -0.5857
  914MOL0     C20543   6.841   6.817   7.643 -0.0840  0.6484 -0.6768
  914MOL0     C20544   6.732   6.807   7.727  0.4397 -0.0381  0.2537
  914MOL0     C20545   6.586   6.819   7.678 -0.7659  0.9511  0.5780
  914MOL0     O20546   6.492   6.776   7.770 -0.7398  0.4423  0.4296
  914MOL0     C20547   6.364   6.766   7.734 -0.0563  0.4971 -0.7411
  914MOL0     C20548   6.303   6.686   7.632 -0.5283 -0.0534  0.2880
  914MOL0     C20549   6.162   6.678   7.620  0.1898 -0.1018  0.0517
  914MOL0     C20550   6.080   6.743   7.707 -0.1745  0.2288 -0.5395
  914MOL0     O20551   5.944   6.716   7.685  0.7569  0.4423 -0.5970
  914MOL0     C20552   5.840   6.796   7.739 -1.6424 -0.4623 -0.2450
  914MOL0     C20553   5.712   6.748   7.687  0.0478  0.9426  0.1114
  914MOL0     C20554   5.592   6.814   7.758  0.1987  0.6116  0.2359
  914MOL0     C20555   5.459   6.738   7.748  0.1772  0.7390  0.8990
  914MOL0     C20556   5.353   6.812   7.824 -0.6488  0.1525 -1.1261
  914MOL0     C20557   5.241   6.715   7.871 -0.7862  0.1979  0.6567
  914MOL0     C20558   5.125   6.783   7.933  0.2289 -0.5940  0.3030
  914MOL0     C20559   5.009   6.683   7.964 -0.2294  0.8094 -0.9338
  914MOL0    Cl20560   4.871   6.783   8.038 -0.5201 -0.1645  0.3643
  914MOL0     C20561   6.140   6.810   7.826  0.9523 -0.0286 -0.4195
  914MOL0     C20562   6.279   6.816   7.835  0.0002  0.2419  0.4354
  914MOL0     O20563   6.556   6.873   7.574 -0.4605 -0.2316 -0.0710
  914MOL0     C20564   6.761   6.783   7.855 -0.9682 -0.3739  0.4179
  914MOL0     C20565   6.891   6.759   7.902  0.7375 -0.7887  0.4013
  914MOL0     N20566   7.498   6.306   8.187 -0.5478  0.1059 -0.7560
  914MOL0     N20567   7.594   6.294   8.267 -0.0915 -0.6188  0.3174
  914MOL0     C20568   8.847   6.563   8.296 -0.2707 -0.0178 -0.2917
  914MOL0     C20569   8.980   6.588   8.258 -0.2100  0.7138  0.7426
  914MOL0     C20570   9.466   6.640   8.313 -0.3526 -0.3465 -0.0131
  914MOL0     C20571   9.585   6.698   8.376  0.6626 -0.4513  0.6970
  914MOL0     C20572   9.710   6.658   8.342 -0.1331 -0.2124  0.1222
  914MOL0     C20573   9.732   6.570   8.230  1.2419 -0.1349  0.3321
  914MOL0     O20574   9.856   6.537   8.179 -0.5236  0.2053 -0.1950
  914MOL0     C20575   9.964   6.540   8.263 -0.8614  0.1236  0.9844
  914MOL0     C20576  10.097   6.483   8.192  0.2320 -0.3331 -0.0176
  914MOL0     C20577  10.194   6.584   8.138  0.7676 -0.3524 -0.2645
  914MOL0     C20578  10.290   6.522   8.044 -0.9776  0.0267  0.3745
  914MOL0     C20579  10.371   6.408   8.091 -1.0470  0.0279 -0.2553
  914MOL0     C20580  10.433   6.320   8.150  0.8455  0.4425  0.2633
  914MOL0     C20581   9.618   6.507   8.179 -0.5803  0.5705 -0.4280
  914MOL0     C20582   9.491   6.547   8.214  0.7058  0.1046 -0.3039
  914MOL0     H20583   9.138   6.605   8.555 -0.2465 -1.0355  0.1042
  914MOL0     H20584   8.913   6.589   8.628  1.4068 -1.1404  0.8369
  914MOL0     H20585   8.628   6.446   8.352  0.4390  0.3739  0.1550
  914MOL0     H20586   8.572   6.611   8.333 -3.3642 -2.1091 -2.1195
  914MOL0     H20587   8.447   6.587   8.556  4.3718  3.2393 -1.7260
  914MOL0     H20588   8.492   6.407   8.534 -2.1064 -1.1575 -1.5228
  914MOL0     H20589   8.364   6.409   8.331 -2.2408 -1.9375  0.9420
  914MOL0     H20590   8.328   6.581   8.340  0.9981 -0.6472 -1.6641
  914MOL0     H20591   8.249   6.403   8.577 -1.7765  1.4022  2.1233
  914MOL0     H20592   8.197   6.569   8.526  0.0161 -0.0615  0.0200
  914MOL0     H20593   8.025   6.394   8.500 -0.1516  0.8228 -0.9829
  914MOL0     H20594   8.132   6.307   8.390 -0.0969 -0.6661  0.2776
  914MOL0     H20595   8.114   6.509   8.242 -1.0582  1.1090  0.0154
  914MOL0     H20596   8.010   6.587   8.365  1.8367  0.2929  1.2949
  914MOL0     H20597   7.893   6.499   8.168 -1.3355  2.7138  2.6008
  914MOL0     H20598   7.936   6.330   8.219  2.3068 -0.3847 -0.3899
  914MOL0     H20599   7.790   6.523   8.394  2.4534  1.7503 -2.3529
  914MOL0     H20600   7.821   6.349   8.414  0.7845 -2.3724 -1.2419
  914MOL0     H20601   7.644   6.592   8.135  4.0466 -0.7624 -1.0983
  914MOL0     H20602   7.394   6.416   7.946 -2.3493  2.7865 -0.8766
  914MOL0     H20603   7.423   6.583   8.000 -1.7854 -0.6975 -1.4412
  914MOL0     H20604   7.260   6.531   8.185  1.8955  2.5231 -1.1654
  914MOL0     H20605   7.228   6.380   8.094 -2.2954 -0.2756 -1.0036
  914MOL0     H20606   7.156   6.503   7.893 -0.4245  2.4204 -2.3209
  914MOL0     H20607   7.061   6.546   8.037  0.1890 -1.7216 -1.1645
  914MOL0     H20608   7.288   6.713   7.940 -0.2247  2.7171 -1.3382
  914MOL0     H20609   7.160   6.759   8.055  0.9332  2.8480 -2.1556
  914MOL0     H20610   7.050   6.809   7.608  0.3702 -3.1970 -0.6462
  914MOL0     H20611   6.834   6.847   7.539  1.2517  1.2183 -0.6258
  914MOL0     H20612   6.352   6.624   7.559 -3.1395  1.7237 -3.2932
  914MOL0     H20613   6.118   6.602   7.558 -2.7651  0.8109  0.8430
  914MOL0     H20614   5.854   6.902   7.717  0.9692  0.3986  4.1621
  914MOL0     H20615   5.862   6.772   7.844  3.6541  0.3409 -0.8721
  914MOL0     H20616   5.704   6.639   7.698  0.9416  0.6108 -1.9623
  914MOL0     H20617   5.705   6.768   7.579 -2.0179  1.5935  0.3147
  914MOL0     H20618   5.589   6.917   7.721  1.2791  0.7028  0.3852
  914MOL0     H20619   5.619   6.818   7.864  3.1642 -0.4246 -0.4004
  914MOL0     H20620   5.431   6.715   7.645 -1.4980 -0.1688  1.5085
  914MOL0     H20621   5.468   6.641   7.798  0.4598  0.4440  0.2770
  914MOL0     H20622   5.317   6.889   7.755 -1.1561  0.8019 -0.1575
  914MOL0     H20623   5.396   6.854   7.915 -1.5090 -0.6494 -0.3324
  914MOL0     H20624   5.278   6.637   7.939  3.3249 -0.4733 -1.9847
  914MOL0     H20625   5.215   6.656   7.783  0.2573 -0.5334  0.8281
  914MOL0     H20626   5.155   6.830   8.027 -0.7983 -0.9660  0.8239
  914MOL0     H20627   5.074   6.856   7.869 -0.0640 -0.1482  1.0318
  914MOL0     H20628   5.038   6.611   8.041 -0.6087  0.8431 -0.7566
  914MOL0     H20629   4.968   6.627   7.880 -2.1219  2.3490 -1.1115
  914MOL0     H20630   6.074   6.857   7.898 -0.1571  0.6428 -1.8289
  914MOL0     H20631   6.321   6.863   7.923  3.5714  0.0827 -1.0261
  914MOL0     H20632   6.680   6.782   7.927 -1.2610 -3.3128  0.1926
  914MOL0     H20633   6.912   6.742   8.007 -1.0403  0.1335  0.9293
  914MOL0     H20634   8.765   6.558   8.226 -0.7057  0.4736  0.1730
  914MOL0     H20635   8.996   6.592   8.151  0.6679 -1.1194  0.7652
  914MOL0     H20636   9.580   6.772   8.455 -2.2102  2.7694 -2.1757
  914MOL0     H20637   9.791   6.699   8.401  0.0167  0.8218 -0.7769
  914MOL0     H20638   9.943   6.478   8.352  2.0597  0.0046  1.6707
  914MOL0     H20639   9.983   6.641   8.301  0.2340  1.2058 -2.1656
  914MOL0     H20640  10.157   6.419   8.257 -1.1369 -2.1943 -0.4890
  914MOL0     H20641  10.075   6.422   8.104  2.6438 -0.9347 -0.2547
  914MOL0     H20642  10.244   6.617   8.229 -2.0790 -3.1102  2.5767
  914MOL0     H20643  10.141   6.666   8.088  1.5193  2.2619  2.9465
  914MOL0     H20644  10.238   6.487   7.954  3.2939 -1.8236 -1.6422
  914MOL0     H20645  10.364   6.594   8.008 -0.3016 -1.0673 -0.4811
  914MOL0     H20646  10.481   6.237   8.199  2.6546  2.2732  1.7327
  914MOL0     H20647   9.636   6.430   8.104 -1.7475 -2.4956  2.2504
  914MOL0     H20648   9.399   6.513   8.169  0.2867 -2.1293  2.0318
  915MOL0     O20649   2.955   9.300   5.332 -0.4670  0.4623 -0.0521
  915MOL0     C20650   2.924   9.332   5.445 -0.6704 -0.5021 -0.0765
  915MOL0     O20651   2.807   9.364   5.487 -0.2399  0.1218  0.5672
  915MOL0     C20652   2.695   9.376   5.416 -0.3204  0.7169  0.1656
  915MOL0     C20653   2.664   9.310   5.297  0.4562 -0.5602  0.4705
  915MOL0     C20654   2.536   9.325   5.235 -0.8087 -0.2734  0.0516
  915MOL0     C20655   2.438   9.398   5.295  0.7235  0.3829 -0.4505
  915MOL0     O20656   2.315   9.404   5.249 -0.0135  0.5948 -0.1060
  915MOL0     C20657   2.283   9.370   5.108  0.8356  0.3918 -0.4036
  915MOL0     C20658   2.125   9.359   5.089  0.0142  0.4049  0.1933
  915MOL0     C20659   2.046   9.284   5.202  0.4176 -0.9647 -0.4955
  915MOL0     C20660   1.910   9.248   5.142  1.2941  0.2711  0.3439
  915MOL0     C20661   1.815   9.210   5.252 -0.2646  0.1010  0.5369
  915MOL0     C20662   1.694   9.150   5.176 -1.1136 -0.0745  0.0757
  915MOL0     C20663   1.603   9.090   5.282  0.0977 -0.6412 -0.1145
  915MOL0     C20664   1.514   8.986   5.220  0.2138 -0.6799  0.3268
  915MOL0     N20665   1.412   8.948   5.319  0.6920 -0.1834 -0.4571
  915MOL0     C20666   1.435   8.882   5.441 -0.2256  1.1532  0.3432
  915MOL0     C20667   1.317   8.863   5.506  0.9367  0.9780  0.0384
  915MOL0     C20668   1.300   8.809   5.647  0.3226  0.0251 -0.3184
  915MOL0     C20669   1.196   8.701   5.648  0.2476  1.1777  0.6415
  915MOL0     C20670   1.153   8.640   5.781  0.1562  0.3658  0.2124
  915MOL0     C20671   1.066   8.748   5.845  0.3723  0.3080  0.9901
  915MOL0     O20672   0.943   8.791   5.780 -0.2366  0.4654  0.7134
  915MOL0     C20673   0.830   8.815   5.857  0.8124 -0.2198 -0.3891
  915MOL0     C20674   0.805   8.817   5.993  0.5953  0.6497 -0.0762
  915MOL0     C20675   0.672   8.853   6.046 -0.4772  0.2221  0.0040
  915MOL0     C20676   0.565   8.885   5.963 -0.1199  1.1232 -0.4018
  915MOL0     C20677   0.430   8.912   6.019  0.7602  0.0040 -0.2806
  915MOL0     O20678   0.409   8.858   6.152 -0.2542 -0.8385 -0.2537
  915MOL0     C20679   0.294   8.877   6.225  0.0797  0.3269  0.3349
  915MOL0     C20680   0.181   8.965   6.187  0.0369  1.4720  0.2005
  915MOL0     C20681   0.059   8.950   6.253  0.9083  0.1920  0.6837
  915MOL0     C20682   0.046   8.869   6.368 -1.1009  0.1472 -0.1802
  915MOL0     O20683  -0.076   8.838   6.420  0.2335  0.1160 -0.1058
  915MOL0     C20684  -0.171   8.944   6.446  0.4409  0.5280 -0.3027
  915MOL0     C20685  -0.303   8.884   6.479 -0.2528  0.5759  0.0976
  915MOL0     C20686  -0.350   8.790   6.365  0.7063  0.4769  0.1444
  915MOL0     C20687  -0.504   8.771   6.368 -0.1184 -0.8942 -0.1962
  915MOL0     C20688  -0.563   8.735   6.503 -0.1643  0.5004 -0.4813
  915MOL0     C20689  -0.694   8.656   6.499 -0.4923  0.5089 -0.6067
  915MOL0     C20690  -0.815   8.742   6.481 -0.1614 -0.3515  0.1727
  915MOL0     C20691  -0.955   8.679   6.485 -0.1551  0.4732 -0.1054
  915MOL0    Cl20692  -0.991   8.595   6.334 -0.1085 -0.0028  0.1847
  915MOL0     C20693   0.155   8.794   6.413 -0.9249 -0.1034 -0.2943
  915MOL0     C20694   0.274   8.794   6.337 -0.0617  0.4458 -0.2945
  915MOL0     O20695   0.346   8.959   5.944 -0.6298  0.0542 -0.5186
  915MOL0     C20696   0.590   8.885   5.828 -0.3170  0.2162  0.0372
  915MOL0     C20697   0.718   8.857   5.778  0.4448  0.1422 -0.2717
  915MOL0     N20698   1.222   8.915   5.425 -0.0554 -0.2176 -0.4585
  915MOL0     N20699   1.278   8.964   5.315  0.1836  0.5007  0.1069
  915MOL0     C20700   2.467   9.455   5.420 -0.3624 -0.3753 -0.6309
  915MOL0     C20701   2.589   9.443   5.487  0.3317 -0.3300  0.5369
  915MOL0     C20702   3.029   9.325   5.546  0.1725 -0.5885  1.1177
  915MOL0     C20703   3.000   9.319   5.680 -0.5803 -0.4728  0.0749
  915MOL0     C20704   3.103   9.317   5.776  0.0163  0.2146  0.2155
  915MOL0     C20705   3.239   9.332   5.741  1.0097 -0.4555  0.1308
  915MOL0     O20706   3.343   9.328   5.830 -0.5991 -1.3649 -0.1460
  915MOL0     C20707   3.324   9.351   5.979 -0.2985  0.0342  0.5413
  915MOL0     C20708   3.275   9.220   6.048  0.6820  0.1350  0.9491
  915MOL0     C20709   3.244   9.240   6.196 -0.2851  0.2892  0.5173
  915MOL0     C20710   3.214   9.120   6.282  0.1654  0.2632 -0.6687
  915MOL0     C20711   3.188   9.164   6.422  0.7238  0.2825  0.8624
  915MOL0     C20712   3.173   9.180   6.538 -0.7599 -0.4770 -0.2007
  915MOL0     C20713   3.262   9.338   5.600 -0.1074 -0.3341  0.4004
  915MOL0     C20714   3.161   9.318   5.502  0.2963 -0.5492 -0.2238
  915MOL0     H20715   2.730   9.242   5.246  1.7968 -0.3149  1.8244
  915MOL0     H20716   2.530   9.275   5.139  2.0331  0.9960 -0.8902
  915MOL0     H20717   2.331   9.277   5.075  2.7940  1.1031  0.3361
  915MOL0     H20718   2.322   9.452   5.047 -0.7272 -0.0097 -2.0536
  915MOL0     H20719   2.106   9.311   4.992 -0.7850  0.3940  0.3510
  915MOL0     H20720   2.085   9.456   5.059  0.6766 -0.1737 -2.9269
  915MOL0     H20721   2.043   9.341   5.296 -1.4884  2.7883 -2.6010
  915MOL0     H20722   2.101   9.190   5.215  1.8900 -0.2097 -1.0461
  915MOL0     H20723   1.871   9.333   5.086  0.5967 -1.3226 -1.7245
  915MOL0     H20724   1.930   9.164   5.075  0.7347 -0.1116  0.6520
  915MOL0     H20725   1.794   9.301   5.309  2.2933  1.4107 -0.4428
  915MOL0     H20726   1.866   9.145   5.324  2.2780  1.7947  0.3613
  915MOL0     H20727   1.731   9.072   5.108  1.0366  1.3440 -0.5072
  915MOL0     H20728   1.637   9.218   5.113  1.0123  1.8350  0.0617
  915MOL0     H20729   1.650   9.037   5.366  0.7126 -2.9202 -1.7796
  915MOL0     H20730   1.536   9.167   5.320 -2.7843 -4.0260  2.3068
  915MOL0     H20731   1.588   8.907   5.204  1.2092  0.7076 -2.6253
  915MOL0     H20732   1.469   9.025   5.129 -0.5146 -0.5481  0.7325
  915MOL0     H20733   1.534   8.853   5.475  0.2798 -2.3119 -3.4323
  915MOL0     H20734   1.266   8.902   5.695  0.6720  0.2429 -0.4909
  915MOL0     H20735   1.399   8.779   5.681 -0.4781 -0.8862  1.2871
  915MOL0     H20736   1.235   8.617   5.588 -0.1987  1.7575 -0.4952
  915MOL0     H20737   1.110   8.742   5.595 -0.1758 -1.7758 -1.2034
  915MOL0     H20738   1.090   8.554   5.760 -1.4089  1.7101 -0.7623
  915MOL0     H20739   1.242   8.617   5.841  0.7444 -1.5257 -1.2763
  915MOL0     H20740   1.133   8.833   5.861  2.3088 -0.8640 -0.3219
  915MOL0     H20741   1.042   8.701   5.941 -0.0044  0.6141  1.0450
  915MOL0     H20742   0.888   8.790   6.057 -0.4390 -2.1158  0.2355
  915MOL0     H20743   0.658   8.854   6.154 -0.7421  0.5567 -0.0336
  915MOL0     H20744   0.196   9.023   6.097 -1.6529  1.3021 -0.2186
  915MOL0     H20745  -0.033   8.995   6.216  0.5788 -1.1457 -0.1835
  915MOL0     H20746  -0.182   8.995   6.350  0.3762  0.7724 -0.1659
  915MOL0     H20747  -0.135   9.009   6.526  1.0829 -1.0237  0.7266
  915MOL0     H20748  -0.375   8.965   6.493 -2.0797 -1.1710  1.4365
  915MOL0     H20749  -0.298   8.824   6.571  1.3960  0.3861 -0.0842
  915MOL0     H20750  -0.292   8.698   6.370 -0.2880 -0.1606  0.2444
  915MOL0     H20751  -0.322   8.823   6.265 -2.3947  0.0271 -0.9831
  915MOL0     H20752  -0.548   8.861   6.324 -0.5521 -1.7743 -1.6268
  915MOL0     H20753  -0.523   8.692   6.294 -1.6789 -1.8022  1.1075
  915MOL0     H20754  -0.553   8.811   6.581  0.1547  0.3026 -0.3245
  915MOL0     H20755  -0.491   8.657   6.531 -0.5658  0.3056  0.0218
  915MOL0     H20756  -0.704   8.606   6.596 -1.8564 -0.6897 -1.3178
  915MOL0     H20757  -0.699   8.584   6.417  0.0584  0.2664 -0.4343
  915MOL0     H20758  -0.810   8.830   6.545 -0.2094  0.3707 -0.7902
  915MOL0     H20759  -0.803   8.780   6.379  0.4059 -1.4329 -0.1773
  915MOL0     H20760  -1.026   8.761   6.502 -0.0625  0.4782  0.2601
  915MOL0     H20761  -0.974   8.615   6.572 -4.9238  1.7218  0.0656
  915MOL0     H20762   0.144   8.742   6.507 -0.0000  3.3065  1.8805
  915MOL0     H20763   0.358   8.729   6.359 -1.9807 -2.8740 -1.9736
  915MOL0     H20764   0.522   8.925   5.753 -1.2285  0.2530  0.8553
  915MOL0     H20765   0.715   8.861   5.670  1.2524 -1.2051 -0.3690
  915MOL0     H20766   2.398   9.523   5.469  1.3358  1.2982 -0.4491
  915MOL0     H20767   2.607   9.487   5.585  1.9975  4.0509 -1.4412
  915MOL0     H20768   2.901   9.332   5.723  0.2997 -1.6192  2.6839
  915MOL0     H20769   3.059   9.316   5.875  0.8290 -1.8464  0.5976
  915MOL0     H20770   3.251   9.432   5.987 -0.2042  0.1278  0.4668
  915MOL0     H20771   3.426   9.376   6.011 -0.3360  0.5055  0.3075
  915MOL0     H20772   3.189   9.178   5.995  2.4332 -1.7150 -0.5587
  915MOL0     H20773   3.361   9.154   6.035  0.3569 -0.7497  2.8872
  915MOL0     H20774   3.156   9.305   6.196 -0.5338 -0.0194 -0.9246
  915MOL0     H20775   3.329   9.295   6.238 -1.2593  1.1486  1.4010
  915MOL0     H20776   3.119   9.073   6.252  0.2669 -1.1218  1.0602
  915MOL0     H20777   3.295   9.046   6.286 -0.9472 -0.9206  1.1098
  915MOL0     H20778   3.155   9.180   6.644 -2.4028  1.3357 -0.4412
  915MOL0     H20779   3.366   9.336   5.570 -0.4016 -1.5846 -0.6126
  915MOL0     H20780   3.193   9.302   5.399  2.8747  2.5068 -0.0799
  916MOL0     O20781   5.086   9.282   4.744 -0.3568  0.6438  0.1284
  916MOL0     C20782   5.150   9.356   4.664 -0.1991  0.6757  0.3379
  916MOL0     O20783   5.107   9.385   4.541 -0.7220 -0.0151 -0.9399
  916MOL0     C20784   5.012   9.309   4.496 -0.1183  0.2881 -1.3021
  916MOL0     C20785   5.045   9.198   4.408  0.0776 -0.2106 -0.4209
  916MOL0     C20786   4.956   9.103   4.370  0.3307  0.3471 -0.3653
  916MOL0     C20787   4.822   9.107   4.415  0.5795  0.3550  0.1181
  916MOL0     O20788   4.716   9.018   4.376  0.4256 -1.0357  0.1137
  916MOL0     C20789   4.760   8.890   4.334 -0.5072 -0.2544 -0.3684
  916MOL0     C20790   4.640   8.795   4.324  0.6448 -0.5353 -0.2945
  916MOL0     C20791   4.656   8.690   4.215 -0.4369  0.3869  1.3196
  916MOL0     C20792   4.580   8.556   4.213 -0.8790 -0.2998  0.1180
  916MOL0     C20793   4.583   8.480   4.081 -0.5730 -0.0596 -0.1011
  916MOL0     C20794   4.504   8.352   4.069  0.3716 -0.4145  0.1146
  916MOL0     C20795   4.515   8.291   3.929  0.1177  0.0977  0.5252
  916MOL0     C20796   4.418   8.184   3.906  0.7071  0.6104 -0.0523
  916MOL0     N20797   4.274   8.206   3.918 -0.1457 -0.4659  0.4456
  916MOL0     C20798   4.196   8.267   3.818  0.3530 -0.5139 -0.6793
  916MOL0     C20799   4.070   8.240   3.852  0.0568 -0.1150 -0.0627
  916MOL0     C20800   3.944   8.297   3.794 -0.2599 -0.9869  0.2683
  916MOL0     C20801   3.815   8.257   3.851  0.6066  0.4933  0.4932
  916MOL0     C20802   3.790   8.289   3.996 -0.6409  0.2123 -0.0038
  916MOL0     C20803   3.648   8.241   4.040 -0.3987 -0.7720 -0.4329
  916MOL0     O20804   3.560   8.326   3.983 -0.5216 -0.0571 -0.5475
  916MOL0     C20805   3.429   8.332   4.021 -0.0722  0.0409 -0.4580
  916MOL0     C20806   3.346   8.406   3.937 -0.6315  0.2697  0.4169
  916MOL0     C20807   3.207   8.389   3.937 -0.9650  0.2059 -0.2527
  916MOL0     C20808   3.150   8.305   4.037 -0.3361 -0.3103  0.4853
  916MOL0     C20809   3.002   8.273   4.021 -0.4015  0.3322  0.1070
  916MOL0     O20810   2.934   8.307   3.905 -0.1441  0.1163  0.0779
  916MOL0     C20811   2.806   8.258   3.898  0.6387 -0.5806 -0.1151
  916MOL0     C20812   2.685   8.334   3.924 -0.3605  0.1963 -0.9691
  916MOL0     C20813   2.564   8.263   3.947 -0.4974 -0.6829  0.5039
  916MOL0     C20814   2.562   8.125   3.924  0.0707  0.4018  1.0480
  916MOL0     O20815   2.451   8.047   3.951  0.2107 -0.2877 -0.1937
  916MOL0     C20816   2.361   8.038   3.840 -0.0900  0.7177  0.7897
  916MOL0     C20817   2.284   7.904   3.856 -0.1616 -0.5494  0.9141
  916MOL0     C20818   2.187   7.883   3.741 -0.1228 -0.0722  0.1820
  916MOL0     C20819   2.107   7.754   3.755 -0.0691  0.0140  0.1892
  916MOL0     C20820   2.008   7.732   3.637  0.5567 -0.6396  1.2282
  916MOL0     C20821   1.934   7.601   3.635  0.2028 -0.9270 -0.4919
  916MOL0     C20822   1.856   7.580   3.761  0.5081 -0.3324 -0.3879
  916MOL0     C20823   1.755   7.458   3.748 -0.6609 -0.1971 -0.7665
  916MOL0    Cl20824   1.848   7.307   3.736  0.2030  0.1865  0.3481
  916MOL0     C20825   2.679   8.059   3.875  0.2372  0.3809 -0.5497
  916MOL0     C20826   2.795   8.131   3.863  0.2963  0.1107 -0.5066
  916MOL0     O20827   2.953   8.211   4.110 -0.6390 -0.6858  0.0009
  916MOL0     C20828   3.229   8.241   4.138 -0.9336 -0.2938 -0.1319
  916MOL0     C20829   3.367   8.249   4.119  0.2489 -0.8785 -0.0518
  916MOL0     N20830   4.080   8.153   3.954 -0.5676  0.2794  0.3265
  916MOL0     N20831   4.200   8.122   3.993  0.0442  0.3345 -0.0573
  916MOL0     C20832   4.778   9.226   4.485 -0.0693 -0.7809  0.5740
  916MOL0     C20833   4.871   9.326   4.528 -0.7210  0.7767 -0.0742
  916MOL0     C20834   5.265   9.429   4.719 -0.0001 -0.0552 -0.2323
  916MOL0     C20835   5.354   9.498   4.641 -0.5775  0.9810  0.3539
  916MOL0     C20836   5.465   9.559   4.689 -0.3754 -0.2652 -0.4468
  916MOL0     C20837   5.490   9.562   4.824 -0.1981  0.2378 -1.1543
  916MOL0     O20838   5.603   9.604   4.886 -0.1973 -0.5328  0.0282
  916MOL0     C20839   5.711   9.642   4.804  0.5743  0.1868 -0.7200
  916MOL0     C20840   5.835   9.656   4.890 -0.1233  0.7999  1.2326
  916MOL0     C20841   5.872   9.526   4.954 -0.3092  0.4152 -0.6479
  916MOL0     C20842   6.004   9.534   5.030  0.1409  0.1450  0.2469
  916MOL0     C20843   6.017   9.593   5.159  0.0668  0.4901  0.3411
  916MOL0     C20844   6.033   9.628   5.271 -0.6498 -0.8129  0.0797
  916MOL0     C20845   5.407   9.503   4.909 -0.4007 -0.1474 -0.1282
  916MOL0     C20846   5.290   9.439   4.861 -0.1473  0.5586  0.4394
  916MOL0     H20847   5.147   9.201   4.372 -0.0305  0.1563 -0.6979
  916MOL0     H20848   4.987   9.032   4.293 -0.8307 -0.1993 -0.3503
  916MOL0     H20849   4.833   8.849   4.405  1.5207  1.5905 -1.2487
  916MOL0     H20850   4.808   8.893   4.236  1.6144 -3.7909  0.3871
  916MOL0     H20851   4.557   8.858   4.292  3.1479  1.9405 -2.4555
  916MOL0     H20852   4.606   8.744   4.415 -4.1960  2.0986 -0.2617
  916MOL0     H20853   4.762   8.663   4.207 -0.5726  0.3708 -2.0318
  916MOL0     H20854   4.636   8.746   4.123 -0.1032  0.4632  1.2907
  916MOL0     H20855   4.607   8.499   4.302 -1.4576  1.5098  1.5300
  916MOL0     H20856   4.475   8.585   4.221 -1.0497 -0.4107 -1.3071
  916MOL0     H20857   4.689   8.466   4.058  0.0227 -0.0706  2.4009
  916MOL0     H20858   4.538   8.540   4.001 -1.3385 -0.5949 -0.0813
  916MOL0     H20859   4.401   8.365   4.101  0.1604 -1.8353  0.0654
  916MOL0     H20860   4.555   8.281   4.134 -2.0611  0.5589  3.3053
  916MOL0     H20861   4.507   8.357   3.842  1.0124 -0.0595  0.3065
  916MOL0     H20862   4.613   8.246   3.909  0.1103  0.1020  0.4775
  916MOL0     H20863   4.428   8.102   3.977  0.6372  0.0686 -0.6529
  916MOL0     H20864   4.434   8.140   3.807  0.4180  2.5272 -1.0027
  916MOL0     H20865   4.236   8.327   3.738 -0.9187 -0.0483 -0.9862
  916MOL0     H20866   3.943   8.277   3.686 -1.7234 -2.1569  0.4729
  916MOL0     H20867   3.962   8.402   3.815  1.6130 -0.2698 -3.8383
  916MOL0     H20868   3.790   8.151   3.841  0.4526  0.6167 -0.5217
  916MOL0     H20869   3.747   8.314   3.787  1.8150  1.0554 -0.3257
  916MOL0     H20870   3.867   8.243   4.058 -1.3696 -2.2550 -0.8280
  916MOL0     H20871   3.789   8.398   4.003 -0.6046  0.4629 -2.8646
  916MOL0     H20872   3.658   8.251   4.148  3.2148 -0.8139 -0.6339
  916MOL0     H20873   3.641   8.138   4.005  0.2002 -0.1729 -2.4857
  916MOL0     H20874   3.398   8.463   3.861 -0.4368 -0.4658 -0.0114
  916MOL0     H20875   3.160   8.432   3.849 -2.0975 -2.1675 -0.8707
  916MOL0     H20876   2.690   8.435   3.962 -0.8093 -0.0657 -0.1914
  916MOL0     H20877   2.485   8.323   3.991  1.9377  4.2065 -1.0824
  916MOL0     H20878   2.414   8.035   3.744 -1.6236 -1.9059 -0.0827
  916MOL0     H20879   2.288   8.120   3.845 -2.9279 -1.4428 -1.3876
  916MOL0     H20880   2.233   7.891   3.951  0.4729  0.9067  1.4957
  916MOL0     H20881   2.353   7.820   3.843 -1.7556 -2.1403  2.2617
  916MOL0     H20882   2.239   7.870   3.646 -1.5569 -1.3502 -0.4658
  916MOL0     H20883   2.123   7.972   3.740 -0.9271 -0.6448 -0.6660
  916MOL0     H20884   2.176   7.669   3.750  1.5077  1.2851 -0.5043
  916MOL0     H20885   2.051   7.753   3.850 -0.8959 -1.2650 -0.2845
  916MOL0     H20886   2.055   7.760   3.542 -1.4813  2.2140  0.9262
  916MOL0     H20887   1.946   7.822   3.649  2.8363  1.2165 -0.0925
  916MOL0     H20888   2.002   7.517   3.617  2.1745 -0.0149  2.1852
  916MOL0     H20889   1.853   7.593   3.562 -0.6708 -2.0002  0.5597
  916MOL0     H20890   1.929   7.577   3.843 -1.6040 -0.6749  1.5786
  916MOL0     H20891   1.790   7.665   3.782  1.0136  0.3017 -1.2803
  916MOL0     H20892   1.686   7.461   3.664 -2.6126 -0.0847  0.7582
  916MOL0     H20893   1.695   7.464   3.840  1.7745 -1.4375  1.0416
  916MOL0     H20894   2.675   7.952   3.857  2.2308  0.0985  0.4443
  916MOL0     H20895   2.873   8.058   3.841 -1.6536 -1.1092 -4.0943
  916MOL0     H20896   3.190   8.184   4.221  0.3073 -1.4371 -0.3182
  916MOL0     H20897   3.427   8.187   4.185  0.5212 -0.9122 -0.3275
  916MOL0     H20898   4.677   9.242   4.521 -0.4332 -0.0783 -0.7107
  916MOL0     H20899   4.843   9.409   4.593 -0.3583  2.0822 -1.5477
  916MOL0     H20900   5.346   9.497   4.533  4.1172 -0.2927 -0.2171
  916MOL0     H20901   5.538   9.608   4.625  0.3043  0.8110  1.0806
  916MOL0     H20902   5.685   9.741   4.766 -1.3877 -1.0162 -2.7704
  916MOL0     H20903   5.729   9.574   4.719  1.9763 -1.3586  0.7355
  916MOL0     H20904   5.922   9.682   4.829 -0.0364 -1.0947  0.4954
  916MOL0     H20905   5.806   9.729   4.966  0.6323  2.8977 -0.3875
  916MOL0     H20906   5.890   9.456   4.872  0.8393 -0.3159  0.1913
  916MOL0     H20907   5.798   9.479   5.019  0.1159 -1.2894 -1.3501
  916MOL0     H20908   6.030   9.429   5.043 -0.1658 -0.4674 -3.2480
  916MOL0     H20909   6.067   9.598   4.968 -0.1561  1.6219  1.3968
  916MOL0     H20910   6.063   9.657   5.369 -4.0882  4.4742 -0.0368
  916MOL0     H20911   5.423   9.517   5.015 -2.0088  0.2634  0.0831
  916MOL0     H20912   5.227   9.391   4.935  1.7274  1.4830  2.7404
  917MOL0     O20913   2.558   8.785   0.092 -0.2318 -0.1225  0.9534
  917MOL0     C20914   2.566   8.670   0.135 -0.7458 -0.2231 -0.5083
  917MOL0     O20915   2.662   8.606   0.186 -0.6365 -0.5457  0.2521
  917MOL0     C20916   2.783   8.675   0.210  0.8644  0.3849  0.0299
  917MOL0     C20917   2.788   8.805   0.271  0.2469  0.2676 -0.3487
  917MOL0     C20918   2.915   8.866   0.295  1.5124  1.4312 -0.0225
  917MOL0     C20919   3.037   8.802   0.251  0.3361 -0.7270 -0.2199
  917MOL0     O20920   3.165   8.853   0.265 -0.0583  0.3187  0.8145
  917MOL0     C20921   3.174   8.963   0.363  0.8781 -0.2433 -0.2720
  917MOL0     C20922   3.305   9.029   0.347 -0.3934  0.3022  1.1151
  917MOL0     C20923   3.322   9.091   0.204 -1.1596  0.1883  0.0639
  917MOL0     C20924   3.468   9.140   0.187  0.0152  0.1896 -0.7850
  917MOL0     C20925   3.481   9.204   0.046  0.1485 -0.0367  0.2445
  917MOL0     C20926   3.629   9.194  -0.017  0.7073 -0.2304 -0.5091
  917MOL0     C20927   3.656   9.291  -0.138 -0.3747 -0.3398  0.3157
  917MOL0     C20928   3.654   9.438  -0.093  1.1110 -0.0540 -0.4938
  917MOL0     N20929   3.724   9.518  -0.183 -0.3255 -0.3118  0.3426
  917MOL0     C20930   3.864   9.513  -0.204 -0.1034  0.2147 -0.3175
  917MOL0     C20931   3.885   9.598  -0.309  0.1477  1.0210 -0.7455
  917MOL0     C20932   4.024   9.626  -0.354 -0.0225 -0.3378 -0.1347
  917MOL0     C20933   4.059   9.772  -0.347  0.1996  0.6102  0.2199
  917MOL0     C20934   4.100   9.823  -0.205  0.5481  0.2353 -0.1602
  917MOL0     C20935   3.983   9.840  -0.096  0.0881  0.3172  0.2423
  917MOL0     O20936   3.997   9.730  -0.005  0.1550  0.5197 -0.1494
  917MOL0     C20937   3.894   9.726   0.089 -0.0192  0.2872 -0.5743
  917MOL0     C20938   3.813   9.837   0.127  0.4973  0.0967  0.5953
  917MOL0     C20939   3.696   9.811   0.202  0.0009 -0.9982  1.1605
  917MOL0     C20940   3.675   9.681   0.257 -0.2318  0.6397 -0.7644
  917MOL0     C20941   3.552   9.654   0.339  0.1382 -0.3805  0.7344
  917MOL0     O20942   3.546   9.531   0.392  0.7917  0.1728  0.3085
  917MOL0     C20943   3.421   9.499   0.449 -0.0092 -0.2225 -0.1717
  917MOL0     C20944   3.410   9.500   0.587 -0.1496  0.3975  0.6580
  917MOL0     C20945   3.287   9.462   0.642  0.2953  0.6284  0.1112
  917MOL0     C20946   3.189   9.408   0.565 -0.0222 -0.7069 -0.3594
  917MOL0     O20947   3.081   9.373   0.644  0.0227 -0.2139  0.2553
  917MOL0     C20948   2.970   9.462   0.613  0.0971 -0.5916  0.1129
  917MOL0     C20949   2.904   9.523   0.740  0.6868 -0.3170 -0.6774
  917MOL0     C20950   2.766   9.587   0.705 -0.2904  0.2866 -0.2763
  917MOL0     C20951   2.703   9.651   0.829 -0.2007  0.1323  0.1513
  917MOL0     C20952   2.693   9.563   0.949  0.8574 -0.1248  0.6512
  917MOL0     C20953   2.645   9.654   1.065  0.8555 -0.6237 -0.4799
  917MOL0     C20954   2.765   9.718   1.132  0.2373 -0.2336 -1.2762
  917MOL0     C20955   2.719   9.817   1.241  0.4808  0.9161  0.2103
  917MOL0    Cl20956   2.843   9.870   1.360  0.4956  0.0119 -0.2178
  917MOL0     C20957   3.199   9.402   0.424  0.5592 -0.2323 -0.2356
  917MOL0     C20958   3.317   9.451   0.369 -0.1796 -0.1333  0.8644
  917MOL0     O20959   3.466   9.733   0.348  0.1395 -0.1649 -0.0034
  917MOL0     C20960   3.775   9.581   0.237  0.4065 -0.2591 -0.4880
  917MOL0     C20961   3.879   9.601   0.157  0.7942 -0.3132  0.0829
  917MOL0     N20962   3.760   9.653  -0.341  0.5257  0.3267 -0.1395
  917MOL0     N20963   3.666   9.610  -0.267 -0.4811 -0.3230 -0.4862
  917MOL0     C20964   3.026   8.678   0.183 -0.3197  0.5947 -0.4504
  917MOL0     C20965   2.898   8.619   0.165 -0.0191  0.1474 -0.2059
  917MOL0     C20966   2.443   8.583   0.112 -0.8726  0.8061  0.6947
  917MOL0     C20967   2.463   8.441   0.118  0.6522 -0.0037 -0.4756
  917MOL0     C20968   2.354   8.356   0.082  1.0257  0.6488  1.1765
  917MOL0     C20969   2.232   8.411   0.021 -0.5266 -0.5454  0.4942
  917MOL0     O20970   2.145   8.323  -0.032  0.4452  0.1565  0.0356
  917MOL0     C20971   2.049   8.372  -0.129  0.4359 -0.3469  0.1107
  917MOL0     C20972   1.976   8.248  -0.180  0.2637 -0.1896 -0.3382
  917MOL0     C20973   2.069   8.155  -0.263 -0.5981  0.7264 -0.0805
  917MOL0     C20974   2.079   8.187  -0.413 -0.2528  0.3254  0.1289
  917MOL0     C20975   1.947   8.169  -0.483 -1.6437  0.2347 -0.5179
  917MOL0     C20976   1.842   8.139  -0.537  0.0039  0.8054 -0.1059
  917MOL0     C20977   2.220   8.546   0.018  0.1567 -0.2963 -0.4764
  917MOL0     C20978   2.320   8.634   0.055 -0.5031  0.0945 -0.2101
  917MOL0     H20979   2.699   8.849   0.316  2.1434  0.9283  3.0912
  917MOL0     H20980   2.898   8.960   0.348 -0.5851 -0.1725  2.3720
  917MOL0     H20981   3.163   8.919   0.463 -2.1007  0.0813 -0.3555
  917MOL0     H20982   3.094   9.037   0.355  0.7273 -0.5306 -1.6925
  917MOL0     H20983   3.384   8.954   0.355 -0.2963  0.0917 -1.0348
  917MOL0     H20984   3.308   9.107   0.424 -0.8935  2.9119 -1.3190
  917MOL0     H20985   3.255   9.175   0.187  0.6371  1.1192 -3.0992
  917MOL0     H20986   3.298   9.020   0.124 -0.7993  0.2981 -0.1454
  917MOL0     H20987   3.509   9.203   0.267  0.5765 -1.7116  0.4899
  917MOL0     H20988   3.525   9.047   0.178  1.0787  0.5914  1.2440
  917MOL0     H20989   3.447   9.307   0.064 -2.0222 -1.0591  2.5039
  917MOL0     H20990   3.407   9.150  -0.015 -2.8082  1.9652  1.7903
  917MOL0     H20991   3.650   9.092  -0.051  0.5545  0.0150 -1.3676
  917MOL0     H20992   3.692   9.230   0.064 -2.8403  2.6573  1.2207
  917MOL0     H20993   3.750   9.261  -0.185 -0.3028  0.4555 -0.0749
  917MOL0     H20994   3.579   9.278  -0.216  0.0268 -1.7037  0.1075
  917MOL0     H20995   3.697   9.438   0.008 -2.7389 -1.2768  1.3547
  917MOL0     H20996   3.553   9.481  -0.093  1.8462  1.7397 -0.5298
  917MOL0     H20997   3.944   9.460  -0.153  0.7332 -0.1920 -1.9712
  917MOL0     H20998   4.031   9.584  -0.455  1.6128 -3.1507  1.0167
  917MOL0     H20999   4.098   9.565  -0.303  0.9927  0.7916 -0.2162
  917MOL0     H21000   3.981   9.826  -0.402 -0.4277 -0.2898  0.1935
  917MOL0     H21001   4.150   9.766  -0.406 -0.0349 -1.1589 -0.0193
  917MOL0     H21002   4.162   9.743  -0.164  0.8812 -0.1981 -1.4476
  917MOL0     H21003   4.160   9.914  -0.210 -2.0885  2.2970  2.1400
  917MOL0     H21004   3.881   9.837  -0.136  0.5994 -0.5948 -1.0807
  917MOL0     H21005   4.001   9.936  -0.048  4.8128 -0.1964 -0.0494
  917MOL0     H21006   3.838   9.933   0.084 -2.4742 -0.7894 -3.7094
  917MOL0     H21007   3.628   9.890   0.231 -0.7038 -0.4347 -1.7115
  917MOL0     H21008   3.493   9.531   0.649 -1.8335  2.3426  2.0970
  917MOL0     H21009   3.258   9.461   0.747  1.2782 -1.6615  0.4362
  917MOL0     H21010   2.899   9.400   0.558  1.1092 -0.9357 -0.8431
  917MOL0     H21011   3.001   9.548   0.553  0.7677 -2.3450 -2.1800
  917MOL0     H21012   2.970   9.603   0.775 -1.1232  1.5973 -1.4030
  917MOL0     H21013   2.893   9.438   0.808  1.5710 -0.9310 -1.2738
  917MOL0     H21014   2.697   9.510   0.669 -1.4956  1.3541 -0.3206
  917MOL0     H21015   2.772   9.664   0.628 -1.2467  1.0186  0.3659
  917MOL0     H21016   2.773   9.729   0.858  0.6778 -0.6837  0.2947
  917MOL0     H21017   2.613   9.702   0.796 -1.0218 -0.8798  0.7519
  917MOL0     H21018   2.787   9.513   0.974  1.8791  1.5511  0.3776
  917MOL0     H21019   2.613   9.494   0.921  0.5408  1.3951 -2.6499
  917MOL0     H21020   2.591   9.596   1.140 -2.8401  1.0298 -1.5887
  917MOL0     H21021   2.578   9.736   1.035  0.7246 -0.5524  0.0116
  917MOL0     H21022   2.822   9.633   1.171 -0.4587  1.6055  4.8194
  917MOL0     H21023   2.824   9.789   1.073 -2.0382  2.4425 -0.5361
  917MOL0     H21024   2.639   9.775   1.302  0.5422  0.0675 -0.2796
  917MOL0     H21025   2.671   9.902   1.193 -1.6084 -0.2367  0.1355
  917MOL0     H21026   3.125   9.375   0.349 -0.4639  0.1866  0.6114
  917MOL0     H21027   3.316   9.444   0.261 -0.6718  0.4403  0.8237
  917MOL0     H21028   3.763   9.482   0.281  1.7716 -0.2230 -0.0017
  917MOL0     H21029   3.949   9.522   0.131  1.1177 -0.5254  1.5200
  917MOL0     H21030   3.115   8.627   0.146 -1.7158 -1.4755 -1.1146
  917MOL0     H21031   2.891   8.524   0.114 -1.0182  0.6236 -0.9845
  917MOL0     H21032   2.557   8.396   0.148  1.5776  2.4552  0.6487
  917MOL0     H21033   2.344   8.248   0.088 -1.8956  0.0597 -5.6101
  917MOL0     H21034   2.087   8.429  -0.215 -0.6562 -1.2052 -0.9724
  917MOL0     H21035   1.976   8.433  -0.075  1.2804  1.1844 -0.4101
  917MOL0     H21036   1.940   8.191  -0.094  2.1755 -2.5115 -0.9466
  917MOL0     H21037   1.883   8.270  -0.234  1.5972 -1.6631 -3.5563
  917MOL0     H21038   2.030   8.053  -0.252 -1.9610  1.4280  2.2132
  917MOL0     H21039   2.168   8.173  -0.220 -0.6530  2.3866 -0.5672
  917MOL0     H21040   2.123   8.285  -0.434  1.6370 -0.4887  0.0909
  917MOL0     H21041   2.155   8.119  -0.453  3.4064  4.4133 -0.6018
  917MOL0     H21042   1.750   8.119  -0.586 -1.1216  2.8550  1.0235
  917MOL0     H21043   2.135   8.591  -0.032 -2.0129 -0.3122  2.8823
  917MOL0     H21044   2.304   8.741   0.048 -1.0573  0.2244  2.0866
  918MOL0     O21045   8.645   8.865  11.068  0.2179 -0.1965 -0.2470
  918MOL0     C21046   8.715   8.959  11.114  0.3161  0.7658  0.3892
  918MOL0     O21047   8.717   8.995  11.253 -0.1214 -0.4054 -0.4765
  918MOL0     C21048   8.618   8.943  11.337 -0.7435 -0.3288 -0.0255
  918MOL0     C21049   8.492   9.007  11.346 -0.0882 -0.6383 -0.2744
  918MOL0     C21050   8.392   8.960  11.430 -0.7129  0.1127 -0.1665
  918MOL0     C21051   8.415   8.843  11.504  0.3708  0.1690 -0.0048
  918MOL0     O21052   8.316   8.812  11.597 -0.2896  0.8151  0.5142
  918MOL0     C21053   8.298   8.672  11.629 -0.0566  0.1462  0.1379
  918MOL0     C21054   8.197   8.652  11.746 -0.0384  0.3433  0.1947
  918MOL0     C21055   8.060   8.717  11.725  0.1887  0.2138  0.3550
  918MOL0     C21056   7.974   8.716  11.853  0.1455 -0.2800  0.4745
  918MOL0     C21057   7.871   8.838  11.856 -0.5240 -0.1555  1.4738
  918MOL0     C21058   7.786   8.834  11.973  0.4934  0.1271  0.0350
  918MOL0     C21059   7.658   8.902  11.952  0.6061 -0.4707  0.3360
  918MOL0     C21060   7.558   8.862  12.056 -0.1798 -0.4663 -0.6919
  918MOL0     N21061   7.434   8.939  12.039  0.2527 -0.9903 -0.6383
  918MOL0     C21062   7.398   9.046  12.120  0.1317 -0.2358 -0.3672
  918MOL0     C21063   7.286   9.093  12.067  1.0015  0.0152  0.0101
  918MOL0     C21064   7.200   9.205  12.138 -1.0675 -0.0352  0.3599
  918MOL0     C21065   7.053   9.217  12.103 -0.2680 -0.1640 -0.1902
  918MOL0     C21066   7.024   9.244  11.953  0.2152 -0.3458  0.0124
  918MOL0     C21067   6.881   9.266  11.924 -0.0909  0.0391  0.1698
  918MOL0     O21068   6.819   9.379  11.990  0.1164  0.4284  0.2933
  918MOL0     C21069   6.682   9.392  11.989  0.1914 -0.3307 -0.9507
  918MOL0     C21070   6.636   9.496  12.073 -0.6620  0.5871 -0.2224
  918MOL0     C21071   6.499   9.509  12.096  1.1367 -0.5508 -0.1226
  918MOL0     C21072   6.398   9.430  12.024 -0.0840 -0.2984  0.5124
  918MOL0     C21073   6.259   9.437  12.059  0.6923 -0.1166 -0.1848
  918MOL0     O21074   6.164   9.401  11.960 -0.2237  0.6683 -0.4678
  918MOL0     C21075   6.032   9.439  11.964  0.5624  0.5685 -0.3576
  918MOL0     C21076   5.963   9.539  12.022  0.5091  0.0761  0.3389
  918MOL0     C21077   5.822   9.554  12.013  0.9274 -0.3671  0.5982
  918MOL0     C21078   5.751   9.458  11.950 -0.7288 -0.7372 -0.2175
  918MOL0     O21079   5.613   9.464  11.957  0.1611 -0.0096 -0.4613
  918MOL0     C21080   5.568   9.406  12.083 -0.4156 -0.1717 -0.5231
  918MOL0     C21081   5.426   9.436  12.121  0.2825  0.2546  0.6823
  918MOL0     C21082   5.400   9.581  12.101  0.8268 -0.1607 -0.0456
  918MOL0     C21083   5.277   9.630  12.182  0.6075  0.6445  0.2204
  918MOL0     C21084   5.248   9.779  12.151  0.0869 -0.3749 -0.2521
  918MOL0     C21085   5.356   9.869  12.094 -0.3354  0.8173  0.2124
  918MOL0     C21086   5.469   9.914  12.191 -0.3967  0.4235  0.5547
  918MOL0     C21087   5.594   9.956  12.115  0.1846 -0.2128  0.5676
  918MOL0    Cl21088   5.706  10.025  12.240  0.5599  0.2577 -0.1732
  918MOL0     C21089   5.816   9.356  11.894  0.1029  0.7827  0.3582
  918MOL0     C21090   5.950   9.341  11.904  0.7538 -0.2363  0.2943
  918MOL0     O21091   6.235   9.475  12.171  0.1521  0.5084  0.1218
  918MOL0     C21092   6.449   9.334  11.927  0.2495 -0.9239  0.5557
  918MOL0     C21093   6.587   9.320  11.921 -0.6627  0.5282  0.2089
  918MOL0     N21094   7.255   9.018  11.952  0.2888 -0.3007  0.6083
  918MOL0     N21095   7.344   8.932  11.937  1.1179  0.5836 -0.1003
  918MOL0     C21096   8.540   8.782  11.488 -0.5155 -0.2812  0.5237
  918MOL0     C21097   8.642   8.830  11.411  0.4823  0.3027 -0.0051
  918MOL0     C21098   8.827   9.021  11.031  0.2476 -0.6132 -0.2662
  918MOL0     C21099   8.821   9.009  10.888  0.3931 -0.1243 -0.9973
  918MOL0     C21100   8.925   9.068  10.811 -0.1417 -0.0511 -1.4577
  918MOL0     C21101   9.033   9.131  10.871  0.0850  0.1372  0.6781
  918MOL0     O21102   9.123   9.184  10.784  0.4058  0.1346  0.2860
  918MOL0     C21103   9.242   9.251  10.825  0.0133  0.4006  0.0973
  918MOL0     C21104   9.289   9.342  10.714  0.7185  0.5199 -0.0634
  918MOL0     C21105   9.317   9.275  10.576 -0.1168 -0.7338 -0.3487
  918MOL0     C21106   9.356   9.384  10.468  0.5152 -0.2310  0.2535
  918MOL0     C21107   9.443   9.353  10.352  0.2219  1.1733  1.3109
  918MOL0     C21108   9.519   9.312  10.264  1.3018  0.7860 -0.4188
  918MOL0     C21109   9.039   9.131  11.008 -0.9911 -0.0728 -0.0682
  918MOL0     C21110   8.941   9.086  11.093  1.1839  0.6451 -0.8499
  918MOL0     H21111   8.483   9.102  11.294  1.4829  0.5509  1.4861
  918MOL0     H21112   8.301   9.016  11.445 -1.0479 -0.8758  1.7559
  918MOL0     H21113   8.388   8.628  11.673 -0.4081  1.1320  1.9947
  918MOL0     H21114   8.256   8.613  11.548  0.8962  0.0730 -0.3164
  918MOL0     H21115   8.239   8.697  11.837  1.9927  1.3527 -1.1770
  918MOL0     H21116   8.176   8.545  11.746 -1.8163  0.6560  0.4714
  918MOL0     H21117   8.001   8.670  11.645 -2.3057  3.1246  0.2709
  918MOL0     H21118   8.088   8.816  11.688  1.5610  0.6810  2.5160
  918MOL0     H21119   7.926   8.619  11.866  2.8076 -2.0366 -1.6876
  918MOL0     H21120   8.037   8.720  11.943  0.6694 -0.4933  0.1241
  918MOL0     H21121   7.812   8.837  11.763  0.6105 -0.5782  0.7308
  918MOL0     H21122   7.932   8.928  11.861  0.1897 -0.4860 -0.4013
  918MOL0     H21123   7.842   8.879  12.055 -1.4854  1.9077  0.4898
  918MOL0     H21124   7.765   8.729  11.995  1.7140 -0.6529 -2.0949
  918MOL0     H21125   7.667   9.011  11.949  0.6166 -0.4346  1.3001
  918MOL0     H21126   7.621   8.877  11.852  2.4788 -0.4896 -0.3872
  918MOL0     H21127   7.596   8.854  12.158  1.0841 -0.8205 -1.1680
  918MOL0     H21128   7.527   8.760  12.035  0.7187 -1.4622  2.2858
  918MOL0     H21129   7.435   9.081  12.216 -3.6814  1.4005  0.7030
  918MOL0     H21130   7.243   9.299  12.104 -1.6336  1.6293  3.7963
  918MOL0     H21131   7.206   9.198  12.247 -2.4580  1.5484  0.5674
  918MOL0     H21132   7.009   9.290  12.171 -2.1314  0.2946 -1.7831
  918MOL0     H21133   6.996   9.127  12.127 -0.2095  0.5424  3.0858
  918MOL0     H21134   7.080   9.332  11.920  1.7548 -0.8894  1.0487
  918MOL0     H21135   7.054   9.157  11.893  3.4406 -1.4114  2.8497
  918MOL0     H21136   6.823   9.180  11.958 -3.3554  1.6332 -0.8531
  918MOL0     H21137   6.871   9.274  11.815  3.9125  0.7457 -0.2833
  918MOL0     H21138   6.708   9.558  12.127  0.3052 -1.6235  1.1522
  918MOL0     H21139   6.458   9.585  12.162 -3.0712 -2.2231 -0.5321
  918MOL0     H21140   6.018   9.613  12.079  2.4369 -2.1802  1.6193
  918MOL0     H21141   5.778   9.641  12.060  1.7408  1.0777 -1.2195
  918MOL0     H21142   5.630   9.444  12.165  0.8093  0.3640 -1.6797
  918MOL0     H21143   5.589   9.299  12.078 -0.3223 -0.1532 -0.5134
  918MOL0     H21144   5.407   9.405  12.224 -1.1479 -0.5633  0.1946
  918MOL0     H21145   5.354   9.378  12.062 -1.4690  0.6421  2.3307
  918MOL0     H21146   5.376   9.604  11.997 -2.7848  3.1402  1.2649
  918MOL0     H21147   5.493   9.634  12.126  2.0283 -1.9052 -0.6417
  918MOL0     H21148   5.190   9.574  12.146  0.5879 -0.7919  2.3327
  918MOL0     H21149   5.301   9.608  12.286  2.6327 -3.1106 -0.8816
  918MOL0     H21150   5.220   9.831  12.243  1.1020 -0.0839 -0.0916
  918MOL0     H21151   5.167   9.776  12.078  0.6918 -1.5595 -0.8991
  918MOL0     H21152   5.309   9.961  12.058 -0.5282  1.4319  1.9330
  918MOL0     H21153   5.398   9.814  12.009 -0.1787 -0.2271  0.9455
  918MOL0     H21154   5.435  10.003  12.245 -1.2539 -0.3233  1.2957
  918MOL0     H21155   5.498   9.826  12.249 -1.5279  0.6397  1.4829
  918MOL0     H21156   5.566  10.030  12.040 -1.6096 -1.4868 -0.0936
  918MOL0     H21157   5.644   9.872  12.065 -0.1839  1.0336 -2.0480
  918MOL0     H21158   5.761   9.277  11.844  0.3755 -1.6832  3.6298
  918MOL0     H21159   5.977   9.248  11.853 -3.5762 -1.0294 -0.9528
  918MOL0     H21160   6.386   9.259  11.881  1.5132 -1.5914 -0.1600
  918MOL0     H21161   6.619   9.243  11.851 -2.8673  0.5201 -0.8733
  918MOL0     H21162   8.559   8.687  11.537 -0.4304 -0.0153  1.0201
  918MOL0     H21163   8.744   8.793  11.406  1.9193  3.7766  0.1993
  918MOL0     H21164   8.741   8.959  10.833  1.7963 -1.7438 -1.6473
  918MOL0     H21165   8.922   9.069  10.703 -0.0997 -0.9886 -1.4746
  918MOL0     H21166   9.319   9.177  10.849  1.1929  1.0423 -1.4996
  918MOL0     H21167   9.228   9.300  10.922 -1.4896 -1.4454  0.8695
  918MOL0     H21168   9.204   9.409  10.695  1.6773  1.7214 -0.2714
  918MOL0     H21169   9.380   9.401  10.734  1.2742  0.0072 -0.9747
  918MOL0     H21170   9.239   9.212  10.534  0.4164 -0.4143 -1.9234
  918MOL0     H21171   9.398   9.201  10.577 -0.2737 -0.9007  0.4306
  918MOL0     H21172   9.259   9.419  10.433 -0.8041 -4.6233 -1.0622
  918MOL0     H21173   9.400   9.474  10.512  0.7305 -1.0273  1.7224
  918MOL0     H21174   9.575   9.252  10.195 -0.9299 -0.8931 -0.8571
  918MOL0     H21175   9.137   9.157  11.047 -0.8060  0.0935 -0.6440
  918MOL0     H21176   8.942   9.099  11.200  2.1173 -2.3502 -0.4193
  919MOL0     O21177   8.282  10.612   8.762 -0.6973 -0.1521  0.4313
  919MOL0     C21178   8.317  10.501   8.782  0.0889  0.9878  0.4529
  919MOL0     O21179   8.235  10.393   8.818 -0.3208  0.2527 -0.0479
  919MOL0     C21180   8.104  10.409   8.856  0.2007 -0.2179 -0.1054
  919MOL0     C21181   8.031  10.525   8.884 -0.4554  0.5796  0.1721
  919MOL0     C21182   7.896  10.518   8.908  0.4030 -0.9050  0.4104
  919MOL0     C21183   7.821  10.402   8.912 -0.1050  0.1216 -0.0991
  919MOL0     O21184   7.682  10.410   8.937 -0.3313  0.3461  0.6060
  919MOL0     C21185   7.623  10.311   9.017  0.1519 -0.6622  0.0088
  919MOL0     C21186   7.510  10.268   8.931 -1.0021 -0.0943 -0.5835
  919MOL0     C21187   7.386  10.362   8.946  0.1957 -0.3996  0.1542
  919MOL0     C21188   7.276  10.323   8.846  0.8666  0.6727 -0.1880
  919MOL0     C21189   7.148  10.410   8.863  0.3187  0.2682 -0.6397
  919MOL0     C21190   7.051  10.342   8.959 -0.0105 -1.0151  0.2405
  919MOL0     C21191   6.934  10.430   8.995  0.0842 -0.0706 -0.1958
  919MOL0     C21192   6.846  10.355   9.090 -0.3248 -0.1655  0.4001
  919MOL0     N21193   6.791  10.224   9.040  0.5165 -0.8111 -0.3606
  919MOL0     C21194   6.672  10.197   8.970 -0.8013  0.4579 -0.4913
  919MOL0     C21195   6.665  10.060   8.974 -0.9033 -0.3432 -0.4772
  919MOL0     C21196   6.544   9.985   8.918  0.1625 -0.9744  0.6101
  919MOL0     C21197   6.409  10.047   8.946 -0.2860 -0.1080 -0.1033
  919MOL0     C21198   6.299   9.962   8.889 -0.5189 -0.4644  0.3144
  919MOL0     C21199   6.148  10.002   8.912 -0.3715 -0.5727 -0.1404
  919MOL0     O21200   6.121  10.119   8.829  0.4482 -0.3564 -0.0193
  919MOL0     C21201   6.015  10.105   8.745 -0.5257  0.5889  0.8235
  919MOL0     C21202   6.032  10.022   8.632 -0.0585  0.2371 -0.6803
  919MOL0     C21203   5.926   9.997   8.545  0.5656 -0.1645 -0.5497
  919MOL0     C21204   5.801  10.058   8.565  0.2747 -0.6388 -0.1042
  919MOL0     C21205   5.690  10.046   8.478 -0.4095  0.1487  1.0603
  919MOL0     O21206   5.578  10.114   8.513  0.0402 -0.6451 -0.4971
  919MOL0     C21207   5.467  10.112   8.438  0.8063 -0.3094 -0.2373
  919MOL0     C21208   5.404   9.988   8.421 -0.4284  0.5645 -0.9935
  919MOL0     C21209   5.297   9.978   8.334 -0.5978  0.3181 -0.1762
  919MOL0     C21210   5.242  10.094   8.271  0.0222  0.2651 -0.2675
  919MOL0     O21211   5.134  10.106   8.192 -0.1275  0.4685 -0.0444
  919MOL0     C21212   5.094   9.992   8.114 -0.6278  0.8701 -0.4241
  919MOL0     C21213   5.012  10.028   7.990  0.7873  0.0305  0.6858
  919MOL0     C21214   4.884  10.099   8.024  0.0541  0.1026 -0.3495
  919MOL0     C21215   4.799  10.105   7.897 -0.0628  0.0478 -0.5920
  919MOL0     C21216   4.686  10.204   7.901 -0.2068 -0.1868  0.2128
  919MOL0     C21217   4.614  10.204   8.036  0.5547  0.9548 -0.5318
  919MOL0     C21218   4.482  10.295   8.027 -0.8104  0.8179  0.7707
  919MOL0     C21219   4.408  10.290   8.163 -0.0022 -0.0734  0.1532
  919MOL0    Cl21220   4.482  10.392   8.283  0.0726  0.3610  0.1075
  919MOL0     C21221   5.302  10.221   8.305  0.0578  0.7416 -0.1008
  919MOL0     C21222   5.422  10.223   8.378 -0.3192  0.2586  0.2239
  919MOL0     O21223   5.710   9.979   8.375 -0.7265  0.3239  0.2200
  919MOL0     C21224   5.785  10.148   8.674 -0.6020 -0.6536  0.0217
  919MOL0     C21225   5.896  10.167   8.760  0.0426 -0.0289  0.4363
  919MOL0     N21226   6.756  10.005   9.043  0.1976 -0.2962  0.5023
  919MOL0     N21227   6.834  10.097   9.081 -0.1400  0.1077  0.4244
  919MOL0     C21228   7.892  10.292   8.881 -0.7052  1.0805 -0.8426
  919MOL0     C21229   8.035  10.290   8.875  0.6015  0.4780  0.3344
  919MOL0     C21230   8.459  10.465   8.764  0.1806 -0.2415  0.1897
  919MOL0     C21231   8.549  10.556   8.712  0.4626  0.1269  0.3226
  919MOL0     C21232   8.680  10.513   8.687  0.0844 -0.4121 -0.7651
  919MOL0     C21233   8.722  10.383   8.706 -0.2724 -0.2709  0.1763
  919MOL0     O21234   8.862  10.360   8.684 -0.2822 -0.3707  0.6551
  919MOL0     C21235   8.923  10.229   8.693 -0.7215  0.0574  1.1536
  919MOL0     C21236   8.945  10.188   8.840 -1.5525  0.4540  0.9988
  919MOL0     C21237   8.968  10.037   8.843 -0.0560  0.2808  0.2583
  919MOL0     C21238   9.089   9.968   8.777 -0.0257 -0.2192  0.1517
  919MOL0     C21239   9.220  10.013   8.825 -0.6743  0.7399 -0.9000
  919MOL0     C21240   9.336  10.042   8.828  0.0535 -0.2890  0.1471
  919MOL0     C21241   8.636  10.291   8.753  1.2273 -0.1845 -0.1384
  919MOL0     C21242   8.504  10.329   8.782  0.8454 -0.1225  0.0224
  919MOL0     H21243   8.081  10.621   8.885 -0.1508  0.4220  0.5217
  919MOL0     H21244   7.835  10.606   8.925 -1.8423 -1.0822 -4.8496
  919MOL0     H21245   7.597  10.353   9.115 -0.1724 -1.4033  0.2479
  919MOL0     H21246   7.689  10.227   9.040 -0.8961 -0.6367  3.8690
  919MOL0     H21247   7.473  10.170   8.962  0.5143 -0.5984 -0.3089
  919MOL0     H21248   7.551  10.256   8.830  2.0089  2.3589  0.1778
  919MOL0     H21249   7.426  10.463   8.930  0.7473 -1.0342 -3.2208
  919MOL0     H21250   7.338  10.359   9.044  0.2352  0.1434  0.1945
  919MOL0     H21251   7.305  10.352   8.744 -1.8991 -0.6319 -1.4400
  919MOL0     H21252   7.257  10.216   8.858  0.1021  0.6648 -1.3162
  919MOL0     H21253   7.099  10.411   8.766  2.9314  1.5408 -2.0680
  919MOL0     H21254   7.175  10.512   8.893 -0.8394  1.5055 -3.5121
  919MOL0     H21255   7.102  10.322   9.054  0.8940 -1.7647 -0.3796
  919MOL0     H21256   7.022  10.245   8.917 -0.3602 -0.5330 -0.6361
  919MOL0     H21257   6.968  10.528   9.030  0.3294 -0.6019  1.1085
  919MOL0     H21258   6.875  10.436   8.903  1.1172 -0.0657 -0.8769
  919MOL0     H21259   6.770  10.421   9.134  0.1890  0.2498  0.6802
  919MOL0     H21260   6.909  10.332   9.176  2.7057  0.1741 -1.5765
  919MOL0     H21261   6.602  10.263   8.920 -0.5199  1.2764  0.1730
  919MOL0     H21262   6.541   9.883   8.959  0.1932 -0.5513  1.6956
  919MOL0     H21263   6.553   9.984   8.809 -2.7716  0.4080  0.2736
  919MOL0     H21264   6.401  10.142   8.893  0.0242  0.0334  0.1026
  919MOL0     H21265   6.406  10.066   9.053  0.2977 -0.0091 -0.1050
  919MOL0     H21266   6.321   9.963   8.782  3.6155  1.1232  0.9932
  919MOL0     H21267   6.305   9.858   8.922  0.0922 -0.3416  0.6024
  919MOL0     H21268   6.115  10.029   9.012 -2.4315 -0.0997 -0.8976
  919MOL0     H21269   6.094   9.914   8.877  0.0303 -1.0008  0.3067
  919MOL0     H21270   6.128   9.973   8.623 -0.5467 -0.4688 -2.3076
  919MOL0     H21271   5.941   9.942   8.453  1.8873  2.0424 -1.7329
  919MOL0     H21272   5.447   9.900   8.469 -1.9414  0.3081 -0.0325
  919MOL0     H21273   5.248   9.881   8.328  0.4367 -0.3755  1.6640
  919MOL0     H21274   5.044   9.924   8.183  1.3414 -0.3900 -0.1513
  919MOL0     H21275   5.184   9.946   8.071  0.4524  2.7197 -0.2429
  919MOL0     H21276   4.979   9.937   7.939 -0.0307  2.0326 -2.6315
  919MOL0     H21277   5.082  10.074   7.920 -0.2012  0.9071  0.2494
  919MOL0     H21278   4.913  10.193   8.072  2.6608 -0.4750 -0.6553
  919MOL0     H21279   4.830  10.044   8.102  1.3703  0.1632  0.6366
  919MOL0     H21280   4.854  10.129   7.806  0.0878 -0.2669 -0.5848
  919MOL0     H21281   4.759  10.005   7.883  0.8990 -0.4407  0.0563
  919MOL0     H21282   4.607  10.186   7.828  0.1278 -0.0174 -0.1956
  919MOL0     H21283   4.735  10.300   7.879 -0.4605 -0.5569 -2.2380
  919MOL0     H21284   4.671  10.231   8.125  0.3526 -0.2852 -0.0078
  919MOL0     H21285   4.578  10.104   8.060  0.4176  0.8581 -1.1213
  919MOL0     H21286   4.499  10.398   7.994 -0.4592 -0.2285 -2.7261
  919MOL0     H21287   4.424  10.252   7.944 -0.3748  2.1130 -0.2461
  919MOL0     H21288   4.406  10.183   8.187 -2.3008  0.0432  0.7351
  919MOL0     H21289   4.306  10.325   8.145  0.1998  1.0855  1.1516
  919MOL0     H21290   5.253  10.316   8.284  0.9418  0.8997 -1.5369
  919MOL0     H21291   5.485  10.311   8.380  1.6872 -1.1313  1.5188
  919MOL0     H21292   5.691  10.198   8.694 -0.9577 -1.6900  1.0567
  919MOL0     H21293   5.887  10.230   8.848  0.9432 -1.6193  1.7249
  919MOL0     H21294   7.837  10.200   8.866 -1.0303  1.5248 -2.5907
  919MOL0     H21295   8.082  10.193   8.861  0.6669  0.5346  0.1514
  919MOL0     H21296   8.511  10.657   8.695 -3.1395 -0.0874  5.0686
  919MOL0     H21297   8.751  10.578   8.638  2.4860 -2.2094  0.1518
  919MOL0     H21298   9.021  10.244   8.647 -0.3233 -0.0299  1.9621
  919MOL0     H21299   8.872  10.148   8.639 -1.0066  1.5471 -0.9556
  919MOL0     H21300   9.030  10.238   8.888  1.4930 -3.3172  0.0403
  919MOL0     H21301   8.848  10.209   8.887 -2.6846 -1.7597 -0.1787
  919MOL0     H21302   8.878   9.986   8.805  0.2833 -0.5864  0.5948
  919MOL0     H21303   8.979  10.026   8.951 -1.9770  2.3524  0.7293
  919MOL0     H21304   9.086   9.860   8.794 -0.6985 -0.2448 -0.1002
  919MOL0     H21305   9.067   9.991   8.673 -1.6518  1.6817  0.8553
  919MOL0     H21306   9.441  10.066   8.830 -0.2667  1.1932  0.4127
  919MOL0     H21307   8.666  10.189   8.777 -1.0623 -0.5752  1.4446
  919MOL0     H21308   8.433  10.259   8.826  0.1166 -1.4800 -2.9999
  920MOL0     O21309   6.087   6.209   6.688  0.3516  0.3981 -0.0422
  920MOL0     C21310   6.168   6.239   6.771 -0.1649 -0.1783 -0.4540
  920MOL0     O21311   6.153   6.319   6.886  0.8924  0.6505  0.2171
  920MOL0     C21312   6.017   6.355   6.893 -0.0474 -0.9568  0.6838
  920MOL0     C21313   5.959   6.464   6.825 -0.4097 -0.2830  0.5198
  920MOL0     C21314   5.831   6.507   6.832 -0.9957  0.6727 -0.1432
  920MOL0     C21315   5.746   6.438   6.923  0.3821  1.1107  0.7036
  920MOL0     O21316   5.617   6.473   6.939 -0.0525 -0.0085  0.2817
  920MOL0     C21317   5.557   6.567   6.857  0.7422 -0.3941  0.7631
  920MOL0     C21318   5.405   6.576   6.884 -0.7822  0.1123  1.0125
  920MOL0     C21319   5.348   6.702   6.823 -0.0709 -0.5343  0.8989
  920MOL0     C21320   5.191   6.712   6.817 -1.2233 -0.2117 -0.0418
  920MOL0     C21321   5.140   6.786   6.701 -0.7250 -0.1283 -0.4756
  920MOL0     C21322   4.991   6.784   6.679 -0.0980 -0.2675 -1.0809
  920MOL0     C21323   4.951   6.829   6.534 -0.8536 -0.5494 -0.0643
  920MOL0     C21324   4.951   6.984   6.525 -0.2570  0.6468 -0.9348
  920MOL0     N21325   4.882   7.024   6.400 -0.7119  0.0784  0.2780
  920MOL0     C21326   4.938   7.086   6.290 -0.4622 -0.4110 -0.0221
  920MOL0     C21327   4.832   7.133   6.215  0.5045 -0.1533 -0.0095
  920MOL0     C21328   4.843   7.218   6.087 -0.5196  0.0359  0.8613
  920MOL0     C21329   4.717   7.304   6.047 -0.2519  0.4365  0.5033
  920MOL0     C21330   4.696   7.422   6.141 -0.2802  0.2887  0.2794
  920MOL0     C21331   4.568   7.491   6.112 -0.7811  0.5455  0.6255
  920MOL0     O21332   4.470   7.409   6.162  0.4642  0.2897 -0.0929
  920MOL0     C21333   4.341   7.436   6.129  0.4832  0.4167 -0.7072
  920MOL0     C21334   4.240   7.363   6.192  0.1197 -0.4213  0.0420
  920MOL0     C21335   4.103   7.392   6.166  0.9513  0.2063 -0.7077
  920MOL0     C21336   4.058   7.494   6.076  0.1908 -0.8514 -0.1862
  920MOL0     C21337   3.906   7.517   6.038 -0.5848  0.4554  0.1491
  920MOL0     O21338   3.819   7.440   6.115 -0.0946 -0.0249 -0.3052
  920MOL0     C21339   3.687   7.433   6.079  0.2520  0.4241  0.5891
  920MOL0     C21340   3.595   7.452   6.179 -0.5166 -0.1798  0.6991
  920MOL0     C21341   3.459   7.445   6.147  0.4774 -0.7798  0.4693
  920MOL0     C21342   3.421   7.411   6.009 -0.3083 -0.0339  0.7098
  920MOL0     O21343   3.291   7.387   5.971  0.1561  0.1824  0.7733
  920MOL0     C21344   3.185   7.411   6.066 -0.1225 -0.1529  0.2241
  920MOL0     C21345   3.047   7.392   5.996 -0.4585 -0.1846  0.2446
  920MOL0     C21346   2.937   7.404   6.091  0.3926  0.2161  0.0652
  920MOL0     C21347   2.806   7.366   6.032  0.3526  0.5626  0.3190
  920MOL0     C21348   2.684   7.408   6.120  1.0736  0.0647 -0.1717
  920MOL0     C21349   2.569   7.490   6.055 -1.2461  0.3512  0.2977
  920MOL0     C21350   2.463   7.522   6.160  0.0751  0.3739  1.3367
  920MOL0     C21351   2.338   7.574   6.095  1.1725 -0.4136 -0.9640
  920MOL0    Cl21352   2.220   7.627   6.226 -0.0602  0.4544 -0.2776
  920MOL0     C21353   3.514   7.378   5.912  0.2776 -0.2617 -0.8489
  920MOL0     C21354   3.645   7.393   5.945 -0.8441 -0.1124 -0.1352
  920MOL0     O21355   3.872   7.604   5.956 -0.6666 -0.1555 -0.7798
  920MOL0     C21356   4.162   7.563   6.011  0.0716 -0.2507  0.9478
  920MOL0     C21357   4.299   7.540   6.048 -0.0287 -0.9067 -0.0309
  920MOL0     N21358   4.719   7.093   6.281 -0.6915 -0.3084 -0.2565
  920MOL0     N21359   4.750   7.028   6.385  0.2235 -0.5862  0.2761
  920MOL0     C21360   5.798   6.323   6.982 -0.1037 -0.8035 -0.1745
  920MOL0     C21361   5.935   6.280   6.968  1.1077  0.4423 -0.8176
  920MOL0     C21362   6.307   6.186   6.744 -0.6826  0.1780  0.5808
  920MOL0     C21363   6.335   6.128   6.621  0.2311  1.0224  0.2604
  920MOL0     C21364   6.464   6.068   6.594 -0.2020  0.7907  0.2157
  920MOL0     C21365   6.559   6.063   6.691 -0.2603 -0.2065  0.5613
  920MOL0     O21366   6.672   5.985   6.669 -0.4748  0.7034 -0.2310
  920MOL0     C21367   6.805   6.047   6.700  0.5272 -0.1154 -0.6913
  920MOL0     C21368   6.878   6.093   6.560  0.6039  0.8510 -0.7796
  920MOL0     C21369   6.783   6.184   6.482  0.5154 -0.2350  0.3549
  920MOL0     C21370   6.848   6.273   6.371 -0.2872  0.9591 -0.1330
  920MOL0     C21371   6.736   6.346   6.309 -0.0234  1.1445  0.0183
  920MOL0     C21372   6.655   6.404   6.244  1.2762 -0.5095  0.2173
  920MOL0     C21373   6.539   6.123   6.815  0.1207 -1.0328 -0.0752
  920MOL0     C21374   6.414   6.186   6.837  0.4032  0.3037  0.6856
  920MOL0     H21375   6.036   6.513   6.766 -1.5211  0.3943 -0.4239
  920MOL0     H21376   5.797   6.594   6.776 -4.2247 -0.6947 -0.5374
  920MOL0     H21377   5.573   6.536   6.753  0.8590  0.1913  0.6042
  920MOL0     H21378   5.606   6.664   6.869  2.3080 -1.0288 -0.2283
  920MOL0     H21379   5.385   6.567   6.991  0.0720 -2.2640  1.0311
  920MOL0     H21380   5.366   6.482   6.843 -0.2320 -0.6466  2.1934
  920MOL0     H21381   5.389   6.722   6.724 -0.6754 -1.4638  0.4528
  920MOL0     H21382   5.389   6.792   6.871  0.8590 -0.7427  0.5153
  920MOL0     H21383   5.140   6.616   6.823 -0.2941 -0.6623  1.1486
  920MOL0     H21384   5.163   6.759   6.912 -1.0721  0.9974 -0.5836
  920MOL0     H21385   5.199   6.740   6.621  2.0068 -0.2987  1.4884
  920MOL0     H21386   5.179   6.888   6.707 -1.3583  0.0556  0.9162
  920MOL0     H21387   4.933   6.840   6.753 -1.5544  0.6074 -2.7873
  920MOL0     H21388   4.957   6.681   6.691 -2.3929  0.5130 -0.4150
  920MOL0     H21389   5.029   6.793   6.466  0.3696 -1.4167  1.7317
  920MOL0     H21390   4.850   6.803   6.498 -1.6035  1.1648  0.7095
  920MOL0     H21391   5.052   7.025   6.533 -0.8976  1.9965  0.8086
  920MOL0     H21392   4.901   7.024   6.613  1.0445  2.3550 -0.9302
  920MOL0     H21393   5.039   7.125   6.281 -0.9183  0.3810 -3.0629
  920MOL0     H21394   4.865   7.145   6.008 -2.5533 -1.8923  1.9738
  920MOL0     H21395   4.925   7.290   6.102 -1.5592  1.0382  1.9954
  920MOL0     H21396   4.626   7.244   6.033 -1.3823  2.4305 -1.3158
  920MOL0     H21397   4.730   7.358   5.952 -0.3012  2.0302  1.3746
  920MOL0     H21398   4.695   7.376   6.240 -0.5500 -0.6308 -0.1383
  920MOL0     H21399   4.780   7.491   6.127  2.8153 -3.6201 -3.0186
  920MOL0     H21400   4.566   7.524   6.007 -2.8785  1.2289  0.8230
  920MOL0     H21401   4.562   7.591   6.156 -3.0035  1.7055 -1.9563
  920MOL0     H21402   4.261   7.285   6.265 -1.4996  0.5962  1.6789
  920MOL0     H21403   4.026   7.348   6.229 -0.6066  1.4494 -1.6663
  920MOL0     H21404   3.637   7.472   6.277  1.0042  0.3905 -0.0325
  920MOL0     H21405   3.382   7.472   6.219  2.3140  3.0000  1.2462
  920MOL0     H21406   3.185   7.506   6.120 -1.5798 -0.5176  0.9112
  920MOL0     H21407   3.195   7.335   6.144 -0.3759 -0.7034 -0.2697
  920MOL0     H21408   3.056   7.293   5.951  3.5776 -0.0282  0.3476
  920MOL0     H21409   3.035   7.457   5.908 -0.9639 -1.9688 -1.0652
  920MOL0     H21410   2.923   7.508   6.119 -1.7129  0.4852 -1.6922
  920MOL0     H21411   2.955   7.341   6.179  3.5464 -0.3616 -0.8942
  920MOL0     H21412   2.792   7.415   5.935  1.9425 -2.5872 -1.6775
  920MOL0     H21413   2.796   7.263   5.997 -1.0180  0.7323  0.1462
  920MOL0     H21414   2.726   7.480   6.190 -1.7326  0.3336  1.4105
  920MOL0     H21415   2.636   7.321   6.167  0.4257  0.7194  0.4036
  920MOL0     H21416   2.517   7.434   5.977  1.6264  2.7998 -3.8171
  920MOL0     H21417   2.603   7.583   6.009  0.8679 -1.4156 -2.0343
  920MOL0     H21418   2.429   7.441   6.225 -1.0667 -0.5292 -0.2812
  920MOL0     H21419   2.504   7.600   6.224  2.8452  1.4436 -1.4647
  920MOL0     H21420   2.292   7.502   6.026 -1.0623  1.0834 -1.1375
  920MOL0     H21421   2.353   7.667   6.040 -0.5799 -0.2815 -1.2783
  920MOL0     H21422   3.492   7.345   5.811 -0.4602 -4.1613  0.3879
  920MOL0     H21423   3.723   7.379   5.871  0.0836  1.5978  0.4619
  920MOL0     H21424   4.137   7.641   5.939 -0.0800  0.0673  1.3413
  920MOL0     H21425   4.366   7.601   5.989  0.2488 -2.6625 -1.6126
  920MOL0     H21426   5.738   6.259   7.044 -0.4119 -1.6363 -1.2989
  920MOL0     H21427   5.988   6.205   7.025  3.2746  2.7098  0.3306
  920MOL0     H21428   6.269   6.117   6.536 -0.2084  1.6711  0.5031
  920MOL0     H21429   6.471   6.019   6.498 -1.6485  1.5868 -0.3371
  920MOL0     H21430   6.872   5.972   6.743  0.4644  0.3211  0.1892
  920MOL0     H21431   6.798   6.134   6.766 -0.1332  0.9658 -2.1273
  920MOL0     H21432   6.973   6.146   6.573  0.9764  0.1041 -0.4171
  920MOL0     H21433   6.894   6.001   6.503  1.2668 -0.2245  1.0629
  920MOL0     H21434   6.741   6.262   6.547  0.4256 -0.1420  0.1872
  920MOL0     H21435   6.700   6.122   6.448  2.1639 -2.9449  1.0100
  920MOL0     H21436   6.917   6.346   6.416 -2.2634  2.2866  0.8621
  920MOL0     H21437   6.906   6.220   6.295 -1.1198 -0.1947  0.0132
  920MOL0     H21438   6.573   6.459   6.203  1.5308  0.6790  1.2340
  920MOL0     H21439   6.610   6.130   6.897 -2.1949 -0.0065  1.9809
  920MOL0     H21440   6.395   6.218   6.939 -1.5073 -2.8528  1.4687
  921MOL0     O21441   0.565   7.291   0.606 -0.4141  1.4010 -0.3721
  921MOL0     C21442   0.555   7.411   0.583 -0.4536  0.2124  0.4248
  921MOL0     O21443   0.442   7.484   0.610  0.2776 -0.0672 -0.1803
  921MOL0     C21444   0.339   7.403   0.649  0.6516  0.6509  0.7578
  921MOL0     C21445   0.257   7.352   0.548 -0.1894 -0.4058  0.5475
  921MOL0     C21446   0.147   7.273   0.580  0.1453  0.4824 -0.5953
  921MOL0     C21447   0.117   7.238   0.712 -0.9840 -0.2885 -1.5399
  921MOL0     O21448   0.001   7.161   0.743  0.1783  0.1197 -0.1478
  921MOL0     C21449  -0.039   7.133   0.886 -0.5108  0.1984  0.4528
  921MOL0     C21450  -0.134   7.010   0.897 -0.7002 -0.0996 -0.4319
  921MOL0     C21451  -0.072   6.878   0.857  0.1759 -0.5249 -0.1650
  921MOL0     C21452   0.050   6.845   0.948 -0.6440 -0.1564 -0.8839
  921MOL0     C21453   0.112   6.706   0.934 -0.1985 -0.0613  0.4685
  921MOL0     C21454   0.117   6.663   0.791  0.0112  0.2606 -0.1595
  921MOL0     C21455   0.207   6.544   0.758 -0.6792  0.1726 -0.0034
  921MOL0     C21456   0.140   6.410   0.748  0.3842  0.7923  0.3792
  921MOL0     N21457   0.076   6.372   0.875  0.5380 -0.4140  0.4092
  921MOL0     C21458   0.153   6.349   0.991 -0.2939 -0.4675 -0.8480
  921MOL0     C21459   0.057   6.319   1.081 -0.1816 -0.3731 -0.3746
  921MOL0     C21460   0.098   6.294   1.229  0.3277 -0.6099 -0.1253
  921MOL0     C21461   0.169   6.163   1.249  0.0076  0.5187  0.5648
  921MOL0     C21462   0.208   6.125   1.392 -0.4100 -0.7232  0.6249
  921MOL0     C21463   0.340   6.204   1.431  0.2748  0.0560 -0.3527
  921MOL0     O21464   0.442   6.149   1.343 -0.0718 -0.3109 -0.0263
  921MOL0     C21465   0.575   6.182   1.361  0.5997 -1.0142  0.2469
  921MOL0     C21466   0.630   6.218   1.479  0.6366  0.8774 -0.2091
  921MOL0     C21467   0.762   6.260   1.485 -0.2408  0.2585  0.1113
  921MOL0     C21468   0.846   6.259   1.375 -0.0187 -0.0919  0.7286
  921MOL0     C21469   0.986   6.297   1.406  0.2977 -0.1936 -0.0770
  921MOL0     O21470   1.010   6.379   1.504  0.0745  0.0950 -0.4842
  921MOL0     C21471   1.136   6.421   1.537 -0.2930  0.4029  0.4364
  921MOL0     C21472   1.188   6.416   1.674  0.4561  0.6421  0.6040
  921MOL0     C21473   1.322   6.436   1.705 -0.1515 -0.7606  0.2856
  921MOL0     C21474   1.401   6.481   1.599 -0.1939 -0.6424 -0.5839
  921MOL0     O21475   1.539   6.510   1.617  0.1917 -0.3161 -0.4500
  921MOL0     C21476   1.613   6.478   1.737 -0.2303  0.7047  0.0778
  921MOL0     C21477   1.747   6.546   1.735 -0.0948  0.3817 -0.0856
  921MOL0     C21478   1.837   6.487   1.840  0.6721  0.5603  1.2301
  921MOL0     C21479   1.986   6.535   1.828  0.1120  0.5295 -0.5491
  921MOL0     C21480   2.078   6.478   1.940  0.2877 -0.0091  0.6927
  921MOL0     C21481   2.227   6.520   1.906  0.1160 -0.7145 -0.2541
  921MOL0     C21482   2.322   6.490   2.018 -0.3285  0.2629  0.1900
  921MOL0     C21483   2.369   6.343   2.032  0.3166 -0.1061 -0.3064
  921MOL0    Cl21484   2.235   6.238   2.082  0.0169  0.2546  0.3080
  921MOL0     C21485   1.361   6.486   1.467 -0.2695 -0.0292 -0.2750
  921MOL0     C21486   1.223   6.463   1.441 -0.7431 -0.3677 -0.0108
  921MOL0     O21487   1.070   6.250   1.332  0.0092  0.0262 -0.8586
  921MOL0     C21488   0.796   6.214   1.258 -0.4628  0.3330 -0.1809
  921MOL0     C21489   0.661   6.180   1.251  0.0464 -0.9976  0.2306
  921MOL0     N21490  -0.069   6.330   1.029 -1.0785 -0.5724 -0.3324
  921MOL0     N21491  -0.059   6.368   0.903 -0.8260 -0.1044 -0.6754
  921MOL0     C21492   0.197   7.288   0.818  0.0100 -0.2956  0.5360
  921MOL0     C21493   0.315   7.367   0.784 -1.4137  0.2134 -0.0873
  921MOL0     C21494   0.674   7.486   0.537 -0.7415 -0.0384 -0.1340
  921MOL0     C21495   0.788   7.419   0.498  0.3367  0.8151 -0.1695
  921MOL0     C21496   0.903   7.491   0.455 -0.0729  0.0344 -0.2554
  921MOL0     C21497   0.909   7.623   0.458  0.4260 -0.2763  0.5418
  921MOL0     O21498   1.023   7.679   0.402  0.3399 -0.3625  0.4551
  921MOL0     C21499   1.069   7.804   0.455 -0.1575  0.9161  0.1341
  921MOL0     C21500   1.218   7.807   0.468 -0.0077 -1.1409 -0.1177
  921MOL0     C21501   1.279   7.792   0.330  0.9604  0.3424 -0.6302
  921MOL0     C21502   1.436   7.787   0.335  0.4647  0.5512 -0.1410
  921MOL0     C21503   1.477   7.748   0.200 -0.8125 -0.1458  0.3955
  921MOL0     C21504   1.509   7.706   0.089  0.1253 -0.2903 -0.6436
  921MOL0     C21505   0.790   7.696   0.501 -0.5922 -0.2495  0.6792
  921MOL0     C21506   0.679   7.626   0.549  0.3860  1.0130  0.5699
  921MOL0     H21507   0.284   7.359   0.443  0.5295  1.1786  0.8211
  921MOL0     H21508   0.087   7.228   0.501  1.4346 -1.3137 -0.5866
  921MOL0     H21509  -0.086   7.221   0.931 -0.2670 -0.0330  1.1700
  921MOL0     H21510   0.056   7.114   0.937 -0.2633  0.6547  0.1700
  921MOL0     H21511  -0.226   7.035   0.843 -0.4683  1.5242 -0.1137
  921MOL0     H21512  -0.162   7.008   1.003 -1.9125  1.2908 -0.7066
  921MOL0     H21513  -0.050   6.883   0.750  1.0617 -0.3441  0.0193
  921MOL0     H21514  -0.136   6.790   0.868 -0.3984 -0.6097 -3.3292
  921MOL0     H21515   0.130   6.915   0.924 -1.6039  1.2262 -0.1830
  921MOL0     H21516   0.025   6.846   1.055  0.8445 -0.4522 -0.5046
  921MOL0     H21517   0.061   6.631   0.996  1.0050  0.8488  2.6691
  921MOL0     H21518   0.214   6.711   0.974 -0.9186  0.7829  2.3039
  921MOL0     H21519   0.158   6.756   0.751  1.4912  0.2153  1.1907
  921MOL0     H21520   0.018   6.658   0.744  0.3103 -0.8850 -0.6874
  921MOL0     H21521   0.240   6.566   0.657 -3.3675 -0.2064 -1.0551
  921MOL0     H21522   0.295   6.538   0.823  0.8015 -0.8244 -1.9997
  921MOL0     H21523   0.204   6.327   0.717 -1.7008 -0.6809 -0.2421
  921MOL0     H21524   0.071   6.420   0.663  1.2713  2.8212 -0.1679
  921MOL0     H21525   0.261   6.340   0.992 -0.3103 -0.6427 -0.3839
  921MOL0     H21526   0.011   6.300   1.295 -0.3555 -2.6392 -0.7931
  921MOL0     H21527   0.167   6.375   1.255 -1.1894  1.0914 -1.1623
  921MOL0     H21528   0.261   6.150   1.192 -2.3476 -2.2510 -3.0188
  921MOL0     H21529   0.101   6.090   1.205  1.5964  0.1170 -1.3656
  921MOL0     H21530   0.131   6.133   1.469 -0.6531 -1.3690  0.4500
  921MOL0     H21531   0.248   6.024   1.390  2.7069  0.3868  0.5396
  921MOL0     H21532   0.361   6.192   1.537  0.1279  1.1844 -0.1823
  921MOL0     H21533   0.324   6.310   1.410 -3.7242 -0.1321  0.8211
  921MOL0     H21534   0.571   6.220   1.570 -0.6773 -2.1000 -0.8642
  921MOL0     H21535   0.806   6.283   1.582 -2.1459  0.5700  0.9516
  921MOL0     H21536   1.126   6.385   1.757  1.1415  2.0083  1.6704
  921MOL0     H21537   1.373   6.427   1.800 -0.9183 -3.9966  0.4909
  921MOL0     H21538   1.626   6.369   1.730  1.0670  0.8523  0.0636
  921MOL0     H21539   1.560   6.507   1.828 -0.0039  0.9638  0.1276
  921MOL0     H21540   1.737   6.653   1.757 -0.2911  0.4600 -0.5588
  921MOL0     H21541   1.788   6.540   1.634  1.6334 -0.4563  0.6134
  921MOL0     H21542   1.843   6.379   1.825  2.0829  0.8625 -0.7023
  921MOL0     H21543   1.790   6.516   1.934 -2.1746  1.6175 -0.3813
  921MOL0     H21544   2.017   6.517   1.724 -0.5231  1.4802 -0.9117
  921MOL0     H21545   1.987   6.644   1.837 -1.0914  0.5310 -0.3285
  921MOL0     H21546   2.071   6.369   1.936 -0.2082  0.0514 -1.8723
  921MOL0     H21547   2.040   6.520   2.034  1.7389  0.0970  1.2651
  921MOL0     H21548   2.221   6.629   1.897 -0.9644 -0.6702  0.7981
  921MOL0     H21549   2.260   6.471   1.814 -1.2408 -0.6293 -0.8008
  921MOL0     H21550   2.417   6.542   2.002 -1.5329  2.2116 -0.9830
  921MOL0     H21551   2.297   6.540   2.112  1.8483  1.3130  0.2849
  921MOL0     H21552   2.447   6.332   2.109 -0.6825  2.4437  1.2126
  921MOL0     H21553   2.424   6.320   1.941  3.2038  1.7958  0.7855
  921MOL0     H21554   1.422   6.507   1.379 -1.2633  0.0916 -0.9475
  921MOL0     H21555   1.201   6.479   1.336  0.1848 -1.3261 -0.3776
  921MOL0     H21556   0.852   6.198   1.166 -2.3303  0.2206 -1.3597
  921MOL0     H21557   0.624   6.150   1.153 -0.2052 -0.5421  0.1785
  921MOL0     H21558   0.182   7.279   0.925 -0.7895  0.6195  0.5159
  921MOL0     H21559   0.394   7.392   0.854  1.2580 -0.9460 -2.4842
  921MOL0     H21560   0.775   7.312   0.483 -5.1038  1.3006 -0.7286
  921MOL0     H21561   0.990   7.443   0.412  0.5925  1.5045 -0.6076
  921MOL0     H21562   1.029   7.815   0.557  1.0357  1.4448  0.5606
  921MOL0     H21563   1.029   7.882   0.389  0.4387 -1.6987 -3.6282
  921MOL0     H21564   1.242   7.906   0.509  0.4326  0.3322 -3.6017
  921MOL0     H21565   1.242   7.733   0.545 -0.3422 -0.2382  0.8775
  921MOL0     H21566   1.242   7.874   0.268 -0.8165  1.7004  2.0704
  921MOL0     H21567   1.253   7.695   0.284  3.1301 -1.5139  1.7421
  921MOL0     H21568   1.488   7.873   0.378  0.9865 -0.2151  0.8027
  921MOL0     H21569   1.462   7.711   0.409 -0.8134  0.3280  0.0961
  921MOL0     H21570   1.544   7.665  -0.004  2.1862  2.0546 -0.9972
  921MOL0     H21571   0.780   7.804   0.509  0.6728 -0.0960  0.3148
  921MOL0     H21572   0.599   7.683   0.594 -0.7932 -0.4543  0.3954
  922MOL0     O21573   4.334   6.943   1.526  0.1254 -0.0287  0.1774
  922MOL0     C21574   4.424   6.873   1.562  0.2144  0.2570 -0.0104
  922MOL0     O21575   4.417   6.736   1.570 -0.3528 -0.9254 -0.8666
  922MOL0     C21576   4.309   6.662   1.534 -0.0483  0.4701  0.5485
  922MOL0     C21577   4.294   6.533   1.595 -0.2015 -0.9490 -0.6153
  922MOL0     C21578   4.181   6.460   1.561 -0.2373  0.1851 -0.3976
  922MOL0     C21579   4.087   6.510   1.470  0.5194 -0.6234 -0.1073
  922MOL0     O21580   3.958   6.455   1.458  0.0838 -0.5585  0.1080
  922MOL0     C21581   3.943   6.317   1.441  0.4977  0.6510  0.1820
  922MOL0     C21582   3.819   6.310   1.352  0.1038  1.0084 -0.0230
  922MOL0     C21583   3.716   6.215   1.397  0.9285  0.8829  0.8900
  922MOL0     C21584   3.578   6.257   1.347  0.0847  0.1061  0.4380
  922MOL0     C21585   3.485   6.142   1.318  0.2464 -0.4401  0.9712
  922MOL0     C21586   3.524   6.051   1.201 -0.4786 -1.1233 -0.6058
  922MOL0     C21587   3.407   5.978   1.140  0.3126  0.7296 -0.8066
  922MOL0     C21588   3.302   5.902   1.213 -0.2425  0.7839 -0.9307
  922MOL0     N21589   3.353   5.833   1.334 -1.1088  0.4947 -0.2244
  922MOL0     C21590   3.439   5.718   1.323  0.2312  0.5410  0.0898
  922MOL0     C21591   3.475   5.698   1.447 -0.5139  0.0614  0.0079
  922MOL0     C21592   3.572   5.592   1.482 -0.7072 -0.5840  0.4511
  922MOL0     C21593   3.722   5.627   1.458 -0.5463  0.8429 -0.2321
  922MOL0     C21594   3.781   5.734   1.556 -0.0237 -0.4022  0.8228
  922MOL0     C21595   3.910   5.791   1.502 -0.9399 -0.0771  0.3712
  922MOL0     O21596   3.919   5.921   1.570  0.0441 -0.0465 -0.0461
  922MOL0     C21597   4.045   5.974   1.555 -0.4750  0.1983 -0.7312
  922MOL0     C21598   4.131   5.960   1.442  0.0358 -0.2559 -0.2898
  922MOL0     C21599   4.255   6.025   1.441  0.1387 -0.4841 -0.0899
  922MOL0     C21600   4.300   6.108   1.550 -0.2698 -0.0569  0.4318
  922MOL0     C21601   4.434   6.169   1.557 -0.3402 -0.3513  0.4355
  922MOL0     O21602   4.519   6.128   1.457  0.3151 -0.2709  0.2658
  922MOL0     C21603   4.653   6.120   1.472 -1.0671 -0.2609 -0.2237
  922MOL0     C21604   4.734   6.040   1.396 -0.0797 -0.1248 -0.2927
  922MOL0     C21605   4.875   6.039   1.404  0.6089  0.5180  0.1535
  922MOL0     C21606   4.942   6.111   1.497  0.2195 -0.2788  0.0207
  922MOL0     O21607   5.081   6.111   1.496  0.4455  0.6395 -0.6143
  922MOL0     C21608   5.142   6.233   1.463  0.0556 -0.4631  0.1436
  922MOL0     C21609   5.268   6.233   1.550 -0.0767  0.5706 -1.0398
  922MOL0     C21610   5.359   6.356   1.553 -0.2886  0.3338  0.1113
  922MOL0     C21611   5.416   6.375   1.410 -0.6133 -0.3373  0.9794
  922MOL0     C21612   5.507   6.502   1.395 -0.3334 -0.1804 -0.1031
  922MOL0     C21613   5.651   6.484   1.458 -0.7465  0.4585  0.4040
  922MOL0     C21614   5.727   6.610   1.448  0.5665 -0.3561  0.0656
  922MOL0     C21615   5.824   6.639   1.560  0.7586 -0.2625 -0.0694
  922MOL0    Cl21616   5.968   6.540   1.545 -0.2230 -0.0083 -0.0358
  922MOL0     C21617   4.871   6.194   1.580 -0.0772  0.3582 -0.3224
  922MOL0     C21618   4.727   6.202   1.572  0.1994 -0.3943  0.0536
  922MOL0     O21619   4.458   6.251   1.643 -0.6410  0.8051 -0.0504
  922MOL0     C21620   4.211   6.110   1.662 -0.5429  0.9566  0.0646
  922MOL0     C21621   4.090   6.039   1.667 -0.4238  0.1422 -0.8949
  922MOL0     N21622   3.408   5.782   1.533  0.1217  0.0990 -0.5447
  922MOL0     N21623   3.345   5.868   1.462 -0.3200 -0.8641  0.2859
  922MOL0     C21624   4.116   6.632   1.396 -0.1396  0.4078  0.0816
  922MOL0     C21625   4.231   6.703   1.429  0.3979 -0.0915 -0.0622
  922MOL0     C21626   4.533   6.934   1.629 -0.7014  0.0770  0.1445
  922MOL0     C21627   4.530   7.051   1.699  0.1880  0.6876 -0.1277
  922MOL0     C21628   4.646   7.108   1.752  0.1336  0.3040  0.5416
  922MOL0     C21629   4.771   7.039   1.750 -0.2523  1.0614 -0.8577
  922MOL0     O21630   4.870   7.096   1.824 -0.3353  0.1495 -0.4661
  922MOL0     C21631   5.001   7.046   1.838  0.1199 -0.8202  0.1714
  922MOL0     C21632   5.090   7.171   1.844 -0.0641  0.8904  0.3515
  922MOL0     C21633   5.237   7.121   1.880  0.9231 -0.6171  0.2281
  922MOL0     C21634   5.343   7.228   1.882 -0.7343  0.0582  0.1725
  922MOL0     C21635   5.479   7.175   1.911  0.1127 -0.3778 -0.2915
  922MOL0     C21636   5.589   7.130   1.948  0.0210 -0.4608 -0.0285
  922MOL0     C21637   4.779   6.919   1.670  0.3803 -0.8261 -0.1319
  922MOL0     C21638   4.660   6.870   1.617 -0.0017 -0.2218  0.3614
  922MOL0     H21639   4.352   6.486   1.674 -0.7312 -0.3593  0.1486
  922MOL0     H21640   4.157   6.367   1.613 -2.1476 -0.4653 -2.2824
  922MOL0     H21641   3.935   6.263   1.536  1.9914  1.9839  1.1391
  922MOL0     H21642   4.032   6.272   1.396  0.2446 -1.4352  1.6113
  922MOL0     H21643   3.853   6.286   1.250  0.1711 -2.4231  0.7023
  922MOL0     H21644   3.766   6.406   1.352 -3.5126 -0.8223  0.8397
  922MOL0     H21645   3.698   6.210   1.504 -0.2322  1.1846  0.7232
  922MOL0     H21646   3.735   6.115   1.356 -0.3031  1.3668 -1.0357
  922MOL0     H21647   3.536   6.320   1.426  1.0107 -0.0652  1.0828
  922MOL0     H21648   3.577   6.331   1.266 -2.4127  1.4840  1.6280
  922MOL0     H21649   3.387   6.186   1.296  0.3006 -1.5695 -1.9234
  922MOL0     H21650   3.460   6.079   1.404 -2.6395 -0.4084  0.2554
  922MOL0     H21651   3.598   5.980   1.240 -0.6288 -1.0205 -0.1288
  922MOL0     H21652   3.575   6.120   1.133  2.8060 -1.2574  1.4729
  922MOL0     H21653   3.347   6.056   1.092  1.2535  2.7085  1.0560
  922MOL0     H21654   3.453   5.910   1.068 -0.6553 -1.1076  0.2299
  922MOL0     H21655   3.272   5.829   1.136 -2.8699  1.3287 -0.5128
  922MOL0     H21656   3.213   5.963   1.232 -0.3982  0.8267 -1.7488
  922MOL0     H21657   3.462   5.664   1.232  0.9122  3.9053 -1.9285
  922MOL0     H21658   3.541   5.496   1.439 -1.3362 -0.4669  0.6293
  922MOL0     H21659   3.561   5.588   1.591 -3.3285 -2.4685  0.2304
  922MOL0     H21660   3.734   5.660   1.354 -0.0952  2.7079  0.3729
  922MOL0     H21661   3.779   5.536   1.478  1.1794  1.6708 -1.1588
  922MOL0     H21662   3.708   5.815   1.571  0.3825  1.2325 -4.3180
  922MOL0     H21663   3.795   5.687   1.654 -2.6699 -2.7889  0.2151
  922MOL0     H21664   3.904   5.805   1.393  1.9251  1.0681  0.2541
  922MOL0     H21665   3.992   5.719   1.515  1.3723  2.1495 -0.9333
  922MOL0     H21666   4.102   5.911   1.350 -0.2358  2.1323 -1.5716
  922MOL0     H21667   4.316   6.010   1.352 -1.1567 -0.9119 -0.9426
  922MOL0     H21668   4.688   5.976   1.321  0.2511 -3.0113  1.7668
  922MOL0     H21669   4.920   5.977   1.328 -1.7238  0.0184 -0.9138
  922MOL0     H21670   5.088   6.326   1.484 -0.2129  0.0707 -2.4978
  922MOL0     H21671   5.173   6.259   1.361 -0.5652  2.1372  0.5415
  922MOL0     H21672   5.323   6.139   1.540 -1.9957 -0.8651  1.0554
  922MOL0     H21673   5.235   6.225   1.654 -0.1682  1.4034 -0.9941
  922MOL0     H21674   5.434   6.336   1.630 -0.0924 -0.0940 -0.1825
  922MOL0     H21675   5.292   6.432   1.592  0.9946  1.1434  0.7809
  922MOL0     H21676   5.472   6.291   1.369 -1.5967 -1.4275  1.8364
  922MOL0     H21677   5.337   6.395   1.337 -0.7273  0.5151  1.3143
  922MOL0     H21678   5.465   6.588   1.449  1.4112  0.9137 -0.3855
  922MOL0     H21679   5.517   6.527   1.289  1.9124 -1.5428 -0.2817
  922MOL0     H21680   5.698   6.398   1.409  1.7556  1.5270  0.8062
  922MOL0     H21681   5.634   6.448   1.560 -2.2387 -0.2826 -0.0675
  922MOL0     H21682   5.791   6.605   1.359 -0.0958  2.1268 -0.6358
  922MOL0     H21683   5.666   6.700   1.434 -2.0355 -1.3010  3.8525
  922MOL0     H21684   5.774   6.629   1.657 -2.6982 -0.2556 -1.7140
  922MOL0     H21685   5.864   6.740   1.562 -2.6123  1.1922 -0.0391
  922MOL0     H21686   4.930   6.260   1.642 -0.5087  3.2848 -2.8190
  922MOL0     H21687   4.676   6.272   1.637 -0.7824 -1.7402  0.7729
  922MOL0     H21688   4.254   6.158   1.749 -0.6986  0.0865  0.6430
  922MOL0     H21689   4.036   6.036   1.761  0.5730 -0.4961 -0.3244
  922MOL0     H21690   4.047   6.668   1.320  0.3508 -1.5630 -1.3788
  922MOL0     H21691   4.253   6.796   1.377  0.9657  1.2307  2.3914
  922MOL0     H21692   4.431   7.096   1.693 -0.0486  0.0736 -0.8744
  922MOL0     H21693   4.633   7.205   1.797 -1.5725  0.9602 -1.2410
  922MOL0     H21694   5.017   6.973   1.758 -2.1590 -0.5829 -0.5741
  922MOL0     H21695   5.016   6.995   1.934 -2.8800  0.7954  1.6415
  922MOL0     H21696   5.096   7.236   1.756  0.3467  0.0186 -0.2791
  922MOL0     H21697   5.043   7.233   1.921  0.4319 -0.8581  2.1459
  922MOL0     H21698   5.259   7.059   1.792 -2.7723  1.8197 -2.7136
  922MOL0     H21699   5.238   7.053   1.966  2.3071 -2.7578 -1.3631
  922MOL0     H21700   5.353   7.272   1.783  0.2714  0.3065  0.3761
  922MOL0     H21701   5.327   7.303   1.960 -0.9716 -0.4004  0.5717
  922MOL0     H21702   5.688   7.098   1.974  1.5592  0.7751 -3.7325
  922MOL0     H21703   4.876   6.872   1.658  1.7470  2.0773 -1.6243
  922MOL0     H21704   4.673   6.779   1.559 -1.8996  0.7155 -1.6612
  923MOL0     O21705   5.100   9.643   2.979  0.3016 -0.4832 -0.0259
  923MOL0     C21706   5.139   9.672   3.096  0.5069 -0.6160  0.7530
  923MOL0     O21707   5.090   9.620   3.211  0.8864  0.6269  0.6744
  923MOL0     C21708   4.972   9.551   3.217 -1.0911 -0.3963 -0.4080
  923MOL0     C21709   4.961   9.449   3.314 -0.0276  0.8220  0.7958
  923MOL0     C21710   4.835   9.370   3.324  0.0399 -0.7994  0.0152
  923MOL0     C21711   4.730   9.410   3.245  0.1008 -0.8637 -0.1291
  923MOL0     O21712   4.605   9.347   3.244  0.3402  0.0199 -0.0054
  923MOL0     C21713   4.486   9.414   3.295 -0.5198 -0.5557 -0.5361
  923MOL0     C21714   4.376   9.459   3.203  0.3967 -0.3746  0.6651
  923MOL0     C21715   4.311   9.336   3.142 -0.1459 -0.9961 -0.4477
  923MOL0     C21716   4.174   9.362   3.078  0.3060 -0.5901  0.4800
  923MOL0     C21717   4.125   9.234   3.002 -0.3724  0.2388 -0.8695
  923MOL0     C21718   3.998   9.252   2.920 -1.2656 -1.3042 -0.2971
  923MOL0     C21719   3.888   9.266   3.023 -0.2547  0.0315  0.0472
  923MOL0     C21720   3.752   9.291   2.963 -0.0704  0.4288 -0.1980
  923MOL0     N21721   3.675   9.174   2.923 -0.2361  0.0345  0.4644
  923MOL0     C21722   3.540   9.170   2.926  1.0602  0.0256  1.2238
  923MOL0     C21723   3.504   9.045   2.900  0.3408  0.7892  0.2646
  923MOL0     C21724   3.364   9.000   2.895  0.6204 -0.1805  0.6666
  923MOL0     C21725   3.349   8.850   2.840 -0.3834 -0.3179 -0.2409
  923MOL0     C21726   3.198   8.818   2.838  0.9816  0.6316  0.2305
  923MOL0     C21727   3.164   8.682   2.785  0.3512  0.0346  0.1096
  923MOL0     O21728   3.019   8.675   2.797 -1.0798  0.3958 -0.7988
  923MOL0     C21729   2.956   8.563   2.760  0.3711 -0.8939 -0.5220
  923MOL0     C21730   3.015   8.440   2.724  0.5936 -1.2159 -0.0738
  923MOL0     C21731   2.931   8.330   2.685  0.4151 -0.4138  0.3113
  923MOL0     C21732   2.793   8.351   2.677 -0.3508  0.6751 -0.1263
  923MOL0     C21733   2.700   8.248   2.645 -0.1906  0.4366  0.2067
  923MOL0     O21734   2.578   8.287   2.609  0.1238  0.3562 -0.1872
  923MOL0     C21735   2.483   8.191   2.573 -0.1651  0.3588 -0.0699
  923MOL0     C21736   2.367   8.178   2.650 -0.1067 -0.3347 -0.2082
  923MOL0     C21737   2.274   8.080   2.613 -1.1846 -0.0926 -1.3048
  923MOL0     C21738   2.298   7.985   2.514  0.1217  0.5639 -0.3872
  923MOL0     O21739   2.201   7.889   2.503 -1.0463 -0.1568  0.1994
  923MOL0     C21740   2.191   7.819   2.384  0.0414 -0.1261 -0.1143
  923MOL0     C21741   2.247   7.685   2.407 -0.3294 -0.9459  0.4943
  923MOL0     C21742   2.177   7.600   2.507 -0.1806 -0.0585 -0.5048
  923MOL0     C21743   2.251   7.471   2.517  0.0527 -0.3782 -0.2783
  923MOL0     C21744   2.203   7.390   2.632  0.3287  0.9491  1.4412
  923MOL0     C21745   2.054   7.348   2.649  0.1302  0.4417  0.4988
  923MOL0     C21746   1.969   7.306   2.525  0.2298  0.1844  0.2520
  923MOL0     C21747   1.821   7.259   2.560  0.1093 -0.7360 -0.0380
  923MOL0    Cl21748   1.729   7.208   2.424  0.2263 -0.0023 -0.2922
  923MOL0     C21749   2.412   7.999   2.439  0.3445  0.4965 -0.3656
  923MOL0     C21750   2.505   8.098   2.465 -0.2761 -0.1576  0.0578
  923MOL0     O21751   2.745   8.130   2.644  0.3388  0.1904  0.2016
  923MOL0     C21752   2.741   8.473   2.709  0.5140 -0.2894  0.1668
  923MOL0     C21753   2.826   8.578   2.746 -0.1240  0.0243  0.3413
  923MOL0     N21754   3.614   8.969   2.881  0.7504 -0.9895  0.3465
  923MOL0     N21755   3.718   9.048   2.881  0.6781  0.2902  0.3988
  923MOL0     C21756   4.742   9.525   3.164  0.4426 -0.4647  1.1010
  923MOL0     C21757   4.854   9.601   3.153  0.0159 -0.0581  0.4723
  923MOL0     C21758   5.259   9.761   3.116 -0.0922 -0.7771  0.2760
  923MOL0     C21759   5.274   9.883   3.044  0.3480  0.4869  0.0252
  923MOL0     C21760   5.379   9.974   3.076 -0.0493 -0.1289  1.1474
  923MOL0     C21761   5.469   9.946   3.177  0.4235  0.3753  0.1860
  923MOL0     O21762   5.561  10.043   3.196 -0.2997  0.2231  0.6295
  923MOL0     C21763   5.671  10.036   3.286  1.0917  0.1903 -0.3691
  923MOL0     C21764   5.772  10.149   3.283 -1.0572  0.2392 -0.5173
  923MOL0     C21765   5.712  10.292   3.271  0.5818  0.7127 -0.5286
  923MOL0     C21766   5.816  10.401   3.312  0.2521 -0.2562  0.3942
  923MOL0     C21767   5.909  10.412   3.197  0.4288  0.3756  0.3208
  923MOL0     C21768   5.984  10.441   3.113 -0.5470  0.3454  0.3372
  923MOL0     C21769   5.456   9.830   3.251 -0.3852  1.1796 -0.1986
  923MOL0     C21770   5.356   9.740   3.216  0.6706  1.0793  0.6767
  923MOL0     H21771   5.041   9.417   3.380  0.3930 -0.3481 -0.2354
  923MOL0     H21772   4.837   9.284   3.389  1.6230  0.4338  1.7199
  923MOL0     H21773   4.527   9.499   3.351  3.4974 -2.3624 -0.3569
  923MOL0     H21774   4.449   9.354   3.379  0.1113  4.0561  3.5136
  923MOL0     H21775   4.410   9.517   3.116 -2.5561 -0.8795 -0.9649
  923MOL0     H21776   4.302   9.514   3.262  0.0519 -0.6094  0.4578
  923MOL0     H21777   4.287   9.263   3.219 -2.9364  1.3372  1.1226
  923MOL0     H21778   4.373   9.297   3.061 -1.3422 -0.0707 -1.8671
  923MOL0     H21779   4.113   9.382   3.167  3.0632 -1.0952  2.6045
  923MOL0     H21780   4.179   9.454   3.018 -2.9475  0.6244  1.7988
  923MOL0     H21781   4.114   9.155   3.077 -3.4784  2.6370  1.4873
  923MOL0     H21782   4.205   9.206   2.933  1.7051  1.2493  0.9976
  923MOL0     H21783   3.985   9.158   2.866  1.4383 -2.1960  0.4253
  923MOL0     H21784   3.990   9.345   2.864 -0.2689  1.2225  3.4111
  923MOL0     H21785   3.886   9.186   3.098  0.8854 -1.2205 -1.1990
  923MOL0     H21786   3.912   9.360   3.075  1.9929  0.1633 -1.1341
  923MOL0     H21787   3.757   9.369   2.887 -0.1134  0.3814 -0.2502
  923MOL0     H21788   3.682   9.342   3.029 -1.0470 -1.2252  0.0874
  923MOL0     H21789   3.472   9.252   2.947  0.9799  0.1730  0.4208
  923MOL0     H21790   3.307   9.055   2.819  0.9265 -2.0988 -1.0336
  923MOL0     H21791   3.323   9.010   2.996  0.1776 -0.3644  0.5075
  923MOL0     H21792   3.398   8.786   2.914 -1.8569  0.4221  1.4650
  923MOL0     H21793   3.390   8.827   2.742  5.9070 -2.3667  2.3285
  923MOL0     H21794   3.154   8.842   2.935 -0.4944  0.4305 -0.3510
  923MOL0     H21795   3.149   8.889   2.770 -0.5561 -0.7651 -0.2075
  923MOL0     H21796   3.213   8.602   2.842  2.1470  2.2169  1.8249
  923MOL0     H21797   3.187   8.686   2.678 -2.1705 -0.2939 -0.4871
  923MOL0     H21798   3.122   8.423   2.726  0.6389 -1.0292 -0.8353
  923MOL0     H21799   2.966   8.232   2.652 -0.6066 -0.8789  0.5621
  923MOL0     H21800   2.345   8.243   2.733  0.0638 -1.9357  1.1413
  923MOL0     H21801   2.187   8.059   2.675 -1.2811 -1.6280 -1.9110
  923MOL0     H21802   2.246   7.871   2.304  1.5940  3.9837  3.2363
  923MOL0     H21803   2.083   7.808   2.367  0.3271 -0.8010 -1.6182
  923MOL0     H21804   2.349   7.705   2.441 -1.2828  2.1775  1.8651
  923MOL0     H21805   2.238   7.633   2.311  0.0671  0.5513 -0.3856
  923MOL0     H21806   2.075   7.573   2.478  0.0383 -0.7791 -0.6194
  923MOL0     H21807   2.165   7.648   2.605 -4.5589 -2.1034  0.2044
  923MOL0     H21808   2.248   7.408   2.428  0.3684  1.7774 -1.9048
  923MOL0     H21809   2.358   7.479   2.539  0.0059 -4.9914  2.8793
  923MOL0     H21810   2.236   7.440   2.723 -1.1566  1.6820  1.6218
  923MOL0     H21811   2.261   7.298   2.640  0.3005  0.4024 -2.5810
  923MOL0     H21812   1.997   7.427   2.699 -1.9940 -0.0082 -1.0599
  923MOL0     H21813   2.053   7.255   2.707  1.5119  0.4563  0.5786
  923MOL0     H21814   1.973   7.387   2.452  0.3947  0.0121  0.0661
  923MOL0     H21815   2.030   7.223   2.487  1.2752  0.6412  0.8637
  923MOL0     H21816   1.775   7.351   2.599 -1.6590 -0.8899 -1.6557
  923MOL0     H21817   1.824   7.176   2.631 -0.2454 -1.4938 -0.8872
  923MOL0     H21818   2.435   7.933   2.355  3.1041  2.1682 -1.0219
  923MOL0     H21819   2.596   8.104   2.406  0.1527 -0.6547  0.6558
  923MOL0     H21820   2.634   8.491   2.704  0.2695 -0.3689  3.2644
  923MOL0     H21821   2.778   8.672   2.774 -2.9921 -1.5356  1.1536
  923MOL0     H21822   4.646   9.552   3.121  0.6244 -4.2069 -2.2228
  923MOL0     H21823   4.863   9.694   3.098  0.4800 -0.1559  0.3760
  923MOL0     H21824   5.202   9.910   2.967 -1.3655 -0.5212  1.1948
  923MOL0     H21825   5.392  10.062   3.014  1.1727 -0.4482  0.9296
  923MOL0     H21826   5.726   9.942   3.279  2.4732  0.8093  1.5242
  923MOL0     H21827   5.624  10.027   3.384  0.6815 -1.7051 -0.7072
  923MOL0     H21828   5.841  10.140   3.368 -0.0183  1.4110 -1.1873
  923MOL0     H21829   5.831  10.140   3.191 -2.1392 -2.3890 -1.0193
  923MOL0     H21830   5.635  10.308   3.347  0.4990  1.6802 -0.8023
  923MOL0     H21831   5.674  10.310   3.170 -0.0024  3.1233  0.0417
  923MOL0     H21832   5.763  10.496   3.317  0.0960 -0.3345  5.5784
  923MOL0     H21833   5.863  10.396   3.411 -0.8846 -1.4407  0.8910
  923MOL0     H21834   6.051  10.487   3.043 -0.7827  0.7565  0.3763
  923MOL0     H21835   5.524   9.810   3.334  0.8182  2.0413 -0.9352
  923MOL0     H21836   5.351   9.649   3.275 -1.8135 -1.2047 -2.6268
  924MOL0     O21837   3.809   0.293  10.618  0.1258  0.6196 -0.2636
  924MOL0     C21838   3.884   0.198  10.632 -0.2860  0.2946  0.7234
  924MOL0     O21839   3.850   0.067  10.642  0.4216  0.3057  0.1546
  924MOL0     C21840   3.710   0.040  10.634  0.1492  0.3999 -0.5997
  924MOL0     C21841   3.634  -0.008  10.740 -0.1656 -0.4576 -0.0999
  924MOL0     C21842   3.503  -0.032  10.717  0.8042  0.0297  0.1058
  924MOL0     C21843   3.441  -0.004  10.594  0.6801 -1.0454  0.6232
  924MOL0     O21844   3.310  -0.039  10.581  0.7727  1.2780  0.8643
  924MOL0     C21845   3.271  -0.083  10.449 -0.2572  0.4925  0.4619
  924MOL0     C21846   3.119  -0.098  10.452 -0.0439 -0.3243  0.6520
  924MOL0     C21847   3.055  -0.153  10.581  0.6505  0.4021 -0.0834
  924MOL0     C21848   2.911  -0.203  10.554 -0.5353 -0.1765  0.2229
  924MOL0     C21849   2.819  -0.077  10.538  0.3634 -0.8744  0.8187
  924MOL0     C21850   2.675  -0.120  10.498  0.7620  0.3002  0.5936
  924MOL0     C21851   2.589  -0.195  10.610  0.1662 -0.5306  1.0259
  924MOL0     C21852   2.586  -0.130  10.749  0.6302 -0.5263 -0.6679
  924MOL0     N21853   2.527   0.003  10.749 -0.6107  0.8477  0.6093
  924MOL0     C21854   2.398   0.037  10.763 -0.2114  0.8643  0.7799
  924MOL0     C21855   2.394   0.177  10.769 -0.8286  0.1040 -0.3825
  924MOL0     C21856   2.277   0.271  10.774 -0.1223  0.0322 -0.0616
  924MOL0     C21857   2.148   0.205  10.709 -0.0177  0.1764 -0.5524
  924MOL0     C21858   2.181   0.178  10.561 -0.4098 -0.4738  0.1776
  924MOL0     C21859   2.070   0.098  10.491  0.1880  1.3482 -0.7794
  924MOL0     O21860   2.060  -0.031  10.558 -0.0687 -0.3650  0.3359
  924MOL0     C21861   1.943  -0.101  10.521  0.0836 -0.7537  0.4611
  924MOL0     C21862   1.818  -0.065  10.575 -0.3569  0.8248 -1.0466
  924MOL0     C21863   1.708  -0.128  10.522  0.3153 -0.0087  0.3061
  924MOL0     C21864   1.708  -0.223  10.414 -0.1786 -0.7008  0.3443
  924MOL0     C21865   1.591  -0.295  10.373 -0.2936 -0.4652 -0.1840
  924MOL0     O21866   1.474  -0.264  10.426  0.0685 -0.0617  0.1646
  924MOL0     C21867   1.371  -0.353  10.401 -0.1456 -0.7031 -0.1752
  924MOL0     C21868   1.353  -0.479  10.449  0.2823  0.2092  0.6787
  924MOL0     C21869   1.235  -0.544  10.411 -0.7390 -1.0000 -0.5511
  924MOL0     C21870   1.144  -0.485  10.329 -0.0172 -0.1757 -0.0095
  924MOL0     O21871   1.038  -0.543  10.272 -0.4130  0.7096 -0.0522
  924MOL0     C21872   1.036  -0.684  10.271  0.0582 -1.2696 -0.7664
  924MOL0     C21873   0.931  -0.713  10.170  0.4613  0.6013  0.0067
  924MOL0     C21874   0.996  -0.712  10.026  0.5709  0.9892 -0.2444
  924MOL0     C21875   0.892  -0.758   9.918  0.2813  0.0559  0.2028
  924MOL0     C21876   0.953  -0.730   9.777  0.2811  0.4726 -0.2294
  924MOL0     C21877   0.927  -0.586   9.728 -1.0262  0.5278 -0.7337
  924MOL0     C21878   0.970  -0.575   9.582 -0.2921  0.6396  0.3300
  924MOL0     C21879   0.903  -0.673   9.475  0.1049 -0.0693 -0.1340
  924MOL0    Cl21880   0.723  -0.682   9.510 -0.4804 -0.0770  0.0538
  924MOL0     C21881   1.168  -0.358  10.284 -0.5361 -0.7133  0.1069
  924MOL0     C21882   1.271  -0.288  10.328 -0.4156 -0.5077 -0.8572
  924MOL0     O21883   1.607  -0.387  10.295  0.0668 -0.1614  0.3151
  924MOL0     C21884   1.835  -0.249  10.356  0.2949  0.6526 -0.4836
  924MOL0     C21885   1.954  -0.187  10.405  0.4714  0.1797 -0.0619
  924MOL0     N21886   2.526   0.221  10.773  0.8321 -0.1209 -0.7374
  924MOL0     N21887   2.601   0.116  10.740  0.1656  0.0834 -0.2539
  924MOL0     C21888   3.525   0.043  10.483  0.3722  0.0753  0.7290
  924MOL0     C21889   3.658   0.060  10.505  0.1200 -0.5612 -0.6621
  924MOL0     C21890   4.033   0.229  10.631 -0.4536  0.5824 -0.2254
  924MOL0     C21891   4.118   0.121  10.656 -0.5881 -0.2913 -0.0280
  924MOL0     C21892   4.260   0.155  10.658 -0.4024  0.2651 -0.5930
  924MOL0     C21893   4.311   0.287  10.626  0.0191 -0.9314  0.1849
  924MOL0     O21894   4.440   0.312  10.611 -0.4463  0.2451  1.0084
  924MOL0     C21895   4.538   0.246  10.685  0.6494  0.1044  0.3617
  924MOL0     C21896   4.685   0.299  10.677  0.3213 -0.2801 -0.1460
  924MOL0     C21897   4.692   0.449  10.662  0.5561 -0.9067 -0.5926
  924MOL0     C21898   4.836   0.496  10.632  0.5217  0.4547  0.5562
  924MOL0     C21899   4.920   0.485  10.762 -0.9271  0.4635 -0.3300
  924MOL0     C21900   5.011   0.474  10.844  0.1281 -0.6568 -0.6936
  924MOL0     C21901   4.222   0.386  10.610  0.4613  0.7400 -0.0541
  924MOL0     C21902   4.087   0.359  10.602  0.2553 -1.1032  0.3702
  924MOL0     H21903   3.685  -0.022  10.835  0.5881  0.5810 -0.3319
  924MOL0     H21904   3.437  -0.080  10.789 -0.0139  1.0759  0.0768
  924MOL0     H21905   3.323  -0.175  10.420 -0.3766  0.2076  1.1397
  924MOL0     H21906   3.292  -0.006  10.374  0.2467  0.1206  0.2140
  924MOL0     H21907   3.092  -0.164  10.369  0.5544  0.3333 -0.0745
  924MOL0     H21908   3.069  -0.003  10.428  2.0057  0.9740  1.2141
  924MOL0     H21909   3.046  -0.090  10.670 -2.7961  2.8608 -1.9446
  924MOL0     H21910   3.110  -0.243  10.611  0.0189  0.6645  2.0444
  924MOL0     H21911   2.921  -0.261  10.462 -1.3647 -0.6725  0.4288
  924MOL0     H21912   2.886  -0.274  10.634  5.1970 -1.7258  1.0357
  924MOL0     H21913   2.846  -0.004  10.462 -3.4510 -0.8613 -0.7627
  924MOL0     H21914   2.810  -0.022  10.632 -0.2368  0.6979 -0.1330
  924MOL0     H21915   2.679  -0.188  10.412  2.4732 -3.6605  3.5154
  924MOL0     H21916   2.623  -0.027  10.473  2.9670  0.7534 -3.0584
  924MOL0     H21917   2.489  -0.205  10.568  0.1545 -0.3873  1.0212
  924MOL0     H21918   2.630  -0.296  10.622  1.8716 -0.3406 -2.2077
  924MOL0     H21919   2.686  -0.142  10.793 -0.3464  1.2430  2.3001
  924MOL0     H21920   2.526  -0.190  10.817  2.3316 -1.2450  0.2644
  924MOL0     H21921   2.307  -0.022  10.772 -2.0025  3.2233 -0.5905
  924MOL0     H21922   2.302   0.358  10.714 -1.6450 -0.2313 -1.1452
  924MOL0     H21923   2.260   0.308  10.876  0.2903  3.5801 -1.1589
  924MOL0     H21924   2.069   0.281  10.714 -1.1126 -0.8286 -1.6763
  924MOL0     H21925   2.105   0.117  10.758  0.3631 -0.6575 -1.6853
  924MOL0     H21926   2.190   0.278  10.519 -0.4045 -0.7618 -0.5109
  924MOL0     H21927   2.274   0.123  10.543  0.3127  0.8898 -0.3373
  924MOL0     H21928   2.085   0.074  10.385 -1.7035 -3.1416 -0.2382
  924MOL0     H21929   1.973   0.146  10.504  0.1350  1.0074  0.1832
  924MOL0     H21930   1.807   0.000  10.661 -0.2165 -0.9225  0.3453
  924MOL0     H21931   1.613  -0.098  10.565  1.1938  0.4817  1.9936
  924MOL0     H21932   1.428  -0.517  10.517  0.9947  1.8905  0.8771
  924MOL0     H21933   1.223  -0.641  10.458 -2.8216 -0.0781  0.9904
  924MOL0     H21934   1.015  -0.707  10.376 -1.1956 -0.9035 -0.9261
  924MOL0     H21935   1.134  -0.731  10.263  1.8832  1.0729  3.7664
  924MOL0     H21936   0.845  -0.646  10.178  0.8413  1.2909 -1.4192
  924MOL0     H21937   0.897  -0.813  10.197  0.7891  0.2530 -0.8460
  924MOL0     H21938   1.084  -0.777  10.021  0.0206  0.0734  1.1340
  924MOL0     H21939   1.030  -0.611  10.004  0.6879  1.9993  3.8906
  924MOL0     H21940   0.881  -0.867   9.922 -1.0569  0.0612 -2.0645
  924MOL0     H21941   0.793  -0.714   9.932  0.7030  1.6464 -1.5475
  924MOL0     H21942   0.906  -0.797   9.705 -0.6581 -2.2328  2.6866
  924MOL0     H21943   1.061  -0.747   9.773  0.5159  1.1053  2.1433
  924MOL0     H21944   0.999  -0.523   9.781  2.4961 -2.7337 -1.1824
  924MOL0     H21945   0.822  -0.562   9.745 -0.9301  0.7937 -0.5102
  924MOL0     H21946   0.945  -0.469   9.568 -0.8716  0.3604 -0.8972
  924MOL0     H21947   1.077  -0.596   9.592 -0.0372  1.6678 -0.0922
  924MOL0     H21948   0.956  -0.768   9.485  4.6000  2.3587  2.9751
  924MOL0     H21949   0.917  -0.637   9.373  1.4069  1.6791  0.6092
  924MOL0     H21950   1.089  -0.320  10.220  1.5242  3.4566 -0.3337
  924MOL0     H21951   1.293  -0.188  10.289  2.4990 -0.9423 -0.5602
  924MOL0     H21952   1.841  -0.303  10.262 -0.0770 -0.8664  0.3282
  924MOL0     H21953   2.054  -0.203  10.366  0.7341  0.8853  0.3161
  924MOL0     H21954   3.501   0.056  10.378 -4.4602  2.0228  1.7669
  924MOL0     H21955   3.721   0.092  10.423 -1.0925 -0.8220 -1.7335
  924MOL0     H21956   4.081   0.024  10.690 -0.9264 -0.2926 -0.3971
  924MOL0     H21957   4.338   0.082  10.675  1.8949  2.5124 -0.8091
  924MOL0     H21958   4.539   0.139  10.662 -0.7051  0.5162 -1.8250
  924MOL0     H21959   4.511   0.256  10.791  2.8064 -2.5996  1.3010
  924MOL0     H21960   4.745   0.267  10.762  0.8639 -1.4560 -0.9611
  924MOL0     H21961   4.736   0.251  10.594  0.9164 -0.5947  0.4005
  924MOL0     H21962   4.651   0.493  10.753  2.1881 -0.4211 -0.0532
  924MOL0     H21963   4.630   0.477  10.576 -1.9724 -4.3031 -0.0628
  924MOL0     H21964   4.886   0.448  10.548  0.8277  1.5822  0.0787
  924MOL0     H21965   4.829   0.599  10.596 -1.6404 -0.6572 -2.6394
  924MOL0     H21966   5.100   0.463  10.902  0.3388 -0.0771 -0.9023
  924MOL0     H21967   4.268   0.484  10.596 -0.9859  1.3208 -0.9998
  924MOL0     H21968   4.029   0.450  10.588  1.8934  0.3392  2.2702
  925MOL0     O21969   5.479   5.196   2.688  0.8438 -0.4674 -0.3689
  925MOL0     C21970   5.457   5.174   2.804  0.3433  0.6183 -0.2957
  925MOL0     O21971   5.343   5.119   2.853  0.0550  0.6668 -0.2603
  925MOL0     C21972   5.239   5.094   2.764  0.8225 -0.3192 -0.0718
  925MOL0     C21973   5.253   5.037   2.633 -0.3295  0.6318  0.0449
  925MOL0     C21974   5.143   5.012   2.554  0.3476  0.4220  0.6677
  925MOL0     C21975   5.012   5.047   2.597 -0.1189 -0.1733 -0.3762
  925MOL0     O21976   4.909   5.017   2.522  1.0168 -0.6232  0.0605
  925MOL0     C21977   4.819   4.915   2.579  0.7299 -0.0703  0.5901
  925MOL0     C21978   4.718   4.872   2.469 -0.4823 -0.3012 -0.3354
  925MOL0     C21979   4.599   4.788   2.518 -0.4501 -0.0231 -0.9554
  925MOL0     C21980   4.494   4.793   2.417  0.6337  0.1489  0.1303
  925MOL0     C21981   4.347   4.757   2.464 -0.0638 -0.0787 -0.8499
  925MOL0     C21982   4.257   4.733   2.341  0.5048 -0.4664 -1.0137
  925MOL0     C21983   4.117   4.702   2.384 -0.2447  0.0052  0.4687
  925MOL0     C21984   4.053   4.811   2.482  0.5052  0.1579 -0.7727
  925MOL0     N21985   3.924   4.753   2.515  0.5201 -0.1019 -0.2407
  925MOL0     C21986   3.904   4.650   2.603 -0.0272  0.1393  0.1958
  925MOL0     C21987   3.769   4.641   2.631  0.2712 -0.7081  0.7333
  925MOL0     C21988   3.699   4.549   2.711  0.2554 -0.6999 -0.7964
  925MOL0     C21989   3.578   4.604   2.789  0.0595 -0.0337  1.0437
  925MOL0     C21990   3.502   4.489   2.846  1.3669 -0.6490 -0.4916
  925MOL0     C21991   3.358   4.528   2.888  0.2453  0.8499  0.5754
  925MOL0     O21992   3.274   4.410   2.895  0.0151 -0.8951  1.1849
  925MOL0     C21993   3.136   4.418   2.880 -0.7449  0.0031 -0.4603
  925MOL0     C21994   3.063   4.533   2.851 -0.3222 -0.3654  0.6540
  925MOL0     C21995   2.927   4.530   2.822  0.1320  0.3938  0.1466
  925MOL0     C21996   2.855   4.400   2.812 -0.5173 -0.8716 -0.6041
  925MOL0     C21997   2.713   4.391   2.763 -0.1051 -0.2935 -0.3488
  925MOL0     O21998   2.648   4.506   2.748  0.8918  0.3165 -0.7898
  925MOL0     C21999   2.532   4.493   2.674  0.5309 -0.7216 -0.0153
  925MOL0     C22000   2.527   4.550   2.547 -0.3418 -0.6042 -0.0280
  925MOL0     C22001   2.405   4.556   2.475  0.0622  0.6712 -0.3106
  925MOL0     C22002   2.285   4.510   2.535 -0.4917 -0.0106  0.4866
  925MOL0     O22003   2.164   4.529   2.468  0.2615 -0.7625  0.6886
  925MOL0     C22004   2.048   4.473   2.517 -0.5340 -0.4574  0.6894
  925MOL0     C22005   1.936   4.502   2.418 -0.1010  0.0613  0.1402
  925MOL0     C22006   1.803   4.431   2.456  0.3473  0.4358  0.3471
  925MOL0     C22007   1.749   4.454   2.595 -0.8625 -0.2642 -0.3675
  925MOL0     C22008   1.619   4.379   2.625  0.1105 -0.7481 -0.1706
  925MOL0     C22009   1.499   4.438   2.556  0.7379 -0.2523  0.3266
  925MOL0     C22010   1.368   4.371   2.602  0.7566 -0.1099 -0.7575
  925MOL0     C22011   1.353   4.229   2.540 -0.3531  0.4602  0.3256
  925MOL0    Cl22012   1.321   4.247   2.356  0.1601 -0.0050  0.2169
  925MOL0     C22013   2.292   4.446   2.658 -0.6184  0.0613 -0.7504
  925MOL0     C22014   2.412   4.444   2.730  0.2772  0.1861  0.4452
  925MOL0     O22015   2.670   4.283   2.740 -0.3521 -0.7228 -0.2680
  925MOL0     C22016   2.935   4.283   2.838 -0.4072  0.1488 -0.3777
  925MOL0     C22017   3.068   4.293   2.878 -0.0113  0.2246  0.8907
  925MOL0     N22018   3.716   4.750   2.556 -0.1100 -0.5441 -0.1031
  925MOL0     N22019   3.805   4.806   2.488 -0.4287 -0.4826  0.7094
  925MOL0     C22020   4.994   5.101   2.735 -0.6736 -0.7612 -0.9090
  925MOL0     C22021   5.112   5.118   2.812 -0.2687  0.8203  0.5712
  925MOL0     C22022   5.559   5.203   2.902 -0.8095 -0.5402  0.2192
  925MOL0     C22023   5.688   5.215   2.866 -0.3532  0.1728  0.7629
  925MOL0     C22024   5.798   5.247   2.947  0.0262 -0.8959  0.5766
  925MOL0     C22025   5.775   5.271   3.087 -0.4032  0.1733 -0.3492
  925MOL0     O22026   5.889   5.297   3.165  0.1006 -0.3594  0.6806
  925MOL0     C22027   5.886   5.259   3.296  1.1325  0.6752 -0.7578
  925MOL0     C22028   6.013   5.196   3.341  0.4085 -1.1495  0.6169
  925MOL0     C22029   6.137   5.296   3.358  0.2388 -0.8922 -0.2619
  925MOL0     C22030   6.270   5.222   3.399 -0.5433  0.2686 -0.0243
  925MOL0     C22031   6.324   5.131   3.299 -0.1194 -0.5964  0.6792
  925MOL0     C22032   6.359   5.069   3.205  0.9808  1.1462 -0.4616
  925MOL0     C22033   5.642   5.250   3.135  0.2865  0.4593  0.7096
  925MOL0     C22034   5.541   5.217   3.042  0.2382  0.5987  0.5734
  925MOL0     H22035   5.350   5.014   2.590  0.6788  2.2515  1.3213
  925MOL0     H22036   5.143   4.981   2.450  0.4514  0.3301  0.6953
  925MOL0     H22037   4.758   4.973   2.648 -4.4882 -0.7811 -2.8433
  925MOL0     H22038   4.878   4.829   2.613 -0.0802 -1.5326 -1.4898
  925MOL0     H22039   4.767   4.811   2.393 -2.5985 -3.2971  0.5502
  925MOL0     H22040   4.701   4.966   2.416  0.3982 -0.6895 -1.3401
  925MOL0     H22041   4.568   4.825   2.616  2.3279  1.3180 -0.4928
  925MOL0     H22042   4.623   4.682   2.531  1.9391  0.8202  3.3032
  925MOL0     H22043   4.497   4.897   2.383 -2.2610 -0.2176 -1.5228
  925MOL0     H22044   4.510   4.732   2.327 -0.3358  1.5141 -1.0078
  925MOL0     H22045   4.302   4.831   2.531 -1.6958 -3.1093  1.6710
  925MOL0     H22046   4.360   4.663   2.519 -4.0370 -0.2689  0.1015
  925MOL0     H22047   4.293   4.645   2.286  4.7163 -2.1288  3.7106
  925MOL0     H22048   4.264   4.830   2.291 -2.2500  0.5692  0.3747
  925MOL0     H22049   4.046   4.691   2.301 -1.4868  1.0880  1.3615
  925MOL0     H22050   4.115   4.601   2.426  2.9592 -0.7540 -0.8428
  925MOL0     H22051   4.047   4.894   2.412 -0.1100 -1.3127 -2.5511
  925MOL0     H22052   4.104   4.845   2.572 -1.6821  1.6277 -0.0069
  925MOL0     H22053   3.988   4.588   2.632  0.3552  0.1830 -0.7582
  925MOL0     H22054   3.776   4.515   2.780 -1.5787  3.0451  3.5939
  925MOL0     H22055   3.682   4.466   2.642  3.1486 -1.7994 -0.2927
  925MOL0     H22056   3.512   4.651   2.715  0.8932 -0.7379 -0.1786
  925MOL0     H22057   3.606   4.685   2.857  1.1603  0.4233  0.0631
  925MOL0     H22058   3.498   4.408   2.773  0.7292 -0.5157 -0.6079
  925MOL0     H22059   3.552   4.444   2.933 -2.0023 -2.1494  0.8293
  925MOL0     H22060   3.323   4.608   2.822 -3.0466  0.4067  1.6193
  925MOL0     H22061   3.360   4.571   2.988  0.5471 -0.3152  1.0897
  925MOL0     H22062   3.115   4.627   2.865 -0.2311 -0.2957 -0.1427
  925MOL0     H22063   2.866   4.617   2.800 -2.4527 -1.2454  0.4033
  925MOL0     H22064   2.618   4.582   2.497 -0.4875 -2.1662 -1.3589
  925MOL0     H22065   2.392   4.593   2.374 -0.5630 -1.5406 -1.1033
  925MOL0     H22066   2.020   4.524   2.610  0.2573  3.9993 -1.2237
  925MOL0     H22067   2.056   4.365   2.530 -2.9345 -0.5450  2.1227
  925MOL0     H22068   1.973   4.463   2.323  0.5197  3.7274 -1.2734
  925MOL0     H22069   1.916   4.609   2.414 -0.8650  0.0701  2.4755
  925MOL0     H22070   1.819   4.324   2.438  3.0758  0.8670 -0.2622
  925MOL0     H22071   1.733   4.466   2.380 -0.1366  0.9266  1.0076
  925MOL0     H22072   1.822   4.403   2.658 -0.1870  1.6174  0.4129
  925MOL0     H22073   1.752   4.559   2.625  1.6902 -1.1923  3.3965
  925MOL0     H22074   1.590   4.372   2.730 -0.1875 -2.1145 -0.3199
  925MOL0     H22075   1.634   4.273   2.600 -0.5792 -0.1687 -3.5347
  925MOL0     H22076   1.504   4.442   2.447  0.3013 -0.5065  0.2934
  925MOL0     H22077   1.495   4.542   2.590 -1.7289  1.0149 -3.2010
  925MOL0     H22078   1.358   4.365   2.711 -0.0270 -1.4652 -0.8822
  925MOL0     H22079   1.283   4.426   2.561 -0.0450 -0.6637  0.1221
  925MOL0     H22080   1.264   4.185   2.585 -1.1574 -0.0868 -1.6735
  925MOL0     H22081   1.443   4.168   2.551  1.5673  1.7759 -4.9485
  925MOL0     H22082   2.204   4.399   2.703 -0.5885 -0.4594 -1.2259
  925MOL0     H22083   2.414   4.395   2.827 -1.5734 -0.0209  0.4214
  925MOL0     H22084   2.882   4.191   2.816 -0.8898  0.7596 -1.8956
  925MOL0     H22085   3.131   4.206   2.890  1.6325  0.7887 -2.5494
  925MOL0     H22086   4.895   5.110   2.777 -0.7015 -1.4203 -0.8207
  925MOL0     H22087   5.100   5.152   2.915  1.3994  2.2898  0.3303
  925MOL0     H22088   5.711   5.226   2.760  0.6218  1.0054  1.0331
  925MOL0     H22089   5.899   5.252   2.907 -0.3367 -1.5636 -0.4653
  925MOL0     H22090   5.807   5.184   3.308 -0.7254  2.7966  1.2798
  925MOL0     H22091   5.853   5.344   3.357  2.6406  0.7569 -0.0078
  925MOL0     H22092   5.980   5.168   3.442 -0.7778  2.8607  1.5324
  925MOL0     H22093   6.056   5.106   3.296  0.3151 -0.0597 -1.7681
  925MOL0     H22094   6.109   5.370   3.433 -3.8827 -1.9094 -0.5275
  925MOL0     H22095   6.159   5.351   3.267 -3.3932  2.0005  0.3574
  925MOL0     H22096   6.350   5.293   3.422 -0.7222 -0.0447  1.7123
  925MOL0     H22097   6.250   5.167   3.492  0.2378 -0.6505 -0.3803
  925MOL0     H22098   6.380   5.002   3.124 -1.7097 -0.8344  0.3396
  925MOL0     H22099   5.605   5.263   3.236 -0.1726 -3.6231  1.2333
  925MOL0     H22100   5.439   5.200   3.073  1.0807 -0.0844  3.2054
  926MOL0     O22101   0.583   1.276   5.044  1.4587  0.1368 -0.3271
  926MOL0     C22102   0.599   1.185   4.957  0.4484  0.4423  0.5395
  926MOL0     O22103   0.503   1.110   4.911  0.2067  0.4381 -0.0532
  926MOL0     C22104   0.398   1.087   4.990 -0.0953 -1.0152  0.9574
  926MOL0     C22105   0.403   1.015   5.107 -0.9138  0.2379  0.8506
  926MOL0     C22106   0.273   0.986   5.168 -0.5373  0.4107  0.1425
  926MOL0     C22107   0.146   1.019   5.111  0.3874 -0.7168  0.0844
  926MOL0     O22108   0.026   0.977   5.168  0.3465  0.0632 -0.3566
  926MOL0     C22109  -0.082   0.952   5.079  0.7634  1.0112  0.4387
  926MOL0     C22110  -0.190   0.866   5.156 -0.8830 -0.2938  0.0825
  926MOL0     C22111  -0.328   0.880   5.087  1.0024  0.0990  0.0871
  926MOL0     C22112  -0.423   0.780   5.155  0.6326  0.2427 -0.2015
  926MOL0     C22113  -0.573   0.786   5.108 -0.0957 -0.1403  0.1307
  926MOL0     C22114  -0.642   0.921   5.134 -0.7925 -0.3972  0.7590
  926MOL0     C22115  -0.620   0.985   5.268 -0.1701 -0.1123  0.3751
  926MOL0     C22116  -0.723   1.088   5.298  0.6303 -0.1617 -0.6370
  926MOL0     N22117  -0.715   1.212   5.221 -0.0214 -0.3793  0.2504
  926MOL0     C22118  -0.789   1.258   5.115 -0.8758  0.2150  0.6463
  926MOL0     C22119  -0.721   1.355   5.051  0.3834 -0.5677  0.1496
  926MOL0     C22120  -0.759   1.428   4.933  0.0974 -0.0856 -0.1117
  926MOL0     C22121  -0.760   1.326   4.810  0.8002  0.0439  0.3849
  926MOL0     C22122  -0.783   1.393   4.673 -0.1482  0.4645  0.4898
  926MOL0     C22123  -0.922   1.459   4.647  0.0941  0.4477 -0.6371
  926MOL0     O22124  -0.929   1.524   4.519  0.6161  0.1184 -0.2226
  926MOL0     C22125  -1.046   1.587   4.495  0.2805 -0.3005  0.4917
  926MOL0     C22126  -1.049   1.711   4.430 -0.5230  0.1064 -0.4724
  926MOL0     C22127  -1.170   1.777   4.400  0.2689  0.2298 -0.4937
  926MOL0     C22128  -1.293   1.725   4.445  0.2483  0.8428 -0.6697
  926MOL0     C22129  -1.431   1.771   4.402 -0.4751 -0.2367  0.1025
  926MOL0     O22130  -1.540   1.691   4.422  0.0561  0.0406  0.4259
  926MOL0     C22131  -1.667   1.732   4.392 -0.4226 -0.0097  0.1449
  926MOL0     C22132  -1.748   1.775   4.496 -0.0300  0.0609  0.3261
  926MOL0     C22133  -1.879   1.828   4.485  0.6533  0.6920 -0.1179
  926MOL0     C22134  -1.939   1.841   4.357 -0.7750 -0.0964 -0.7253
  926MOL0     O22135  -2.044   1.920   4.341  1.3028  0.0581  0.9160
  926MOL0     C22136  -2.077   1.963   4.209  0.1999  0.0161 -0.2123
  926MOL0     C22137  -2.209   2.031   4.217  0.1999 -0.1241  0.1843
  926MOL0     C22138  -2.262   2.083   4.083 -0.5428  0.3505 -0.1420
  926MOL0     C22139  -2.407   2.136   4.086  0.3243 -0.1394 -0.2488
  926MOL0     C22140  -2.459   2.180   3.950 -0.0365 -0.5307  0.0125
  926MOL0     C22141  -2.601   2.248   3.964  0.6803 -0.5172  1.4013
  926MOL0     C22142  -2.680   2.221   3.832 -0.7001 -0.3644 -0.1992
  926MOL0     C22143  -2.827   2.249   3.851  1.1412  0.6192 -0.4694
  926MOL0    Cl22144  -2.925   2.130   3.949 -0.2761  0.1693 -0.4757
  926MOL0     C22145  -1.864   1.783   4.255 -0.8000 -0.9459  0.1697
  926MOL0     C22146  -1.733   1.731   4.266  0.2819  0.5445  0.2816
  926MOL0     O22147  -1.429   1.881   4.348  0.4898 -0.9824  0.3569
  926MOL0     C22148  -1.291   1.594   4.497 -1.0117  0.0570 -0.3493
  926MOL0     C22149  -1.170   1.522   4.517 -0.9238 -0.0263 -0.4303
  926MOL0     N22150  -0.613   1.381   5.136 -0.3671 -0.2956 -0.5952
  926MOL0     N22151  -0.609   1.297   5.234  0.6200 -0.1057 -0.5194
  926MOL0     C22152   0.158   1.089   4.993  0.0377 -0.4182 -0.2613
  926MOL0     C22153   0.280   1.127   4.934  0.3471  0.6654 -1.1424
  926MOL0     C22154   0.739   1.148   4.905 -0.1465  0.1490  0.3204
  926MOL0     C22155   0.769   1.022   4.850  0.6937  0.7152  0.4130
  926MOL0     C22156   0.900   0.988   4.815  0.0900 -0.2176  0.3062
  926MOL0     C22157   1.009   1.067   4.850  0.6407  0.2463  0.0661
  926MOL0     O22158   1.129   1.009   4.839 -0.0390  0.1708  0.1290
  926MOL0     C22159   1.237   1.090   4.876 -0.0910  0.3749  0.0016
  926MOL0     C22160   1.360   1.028   4.807  0.3328 -0.2791 -1.3346
  926MOL0     C22161   1.391   0.889   4.867 -0.0127 -0.4309 -0.4250
  926MOL0     C22162   1.540   0.853   4.850 -0.3257  0.8381 -0.2491
  926MOL0     C22163   1.586   0.731   4.924 -0.4483 -0.2715 -0.3030
  926MOL0     C22164   1.637   0.659   4.993 -0.4640  0.0197  0.4636
  926MOL0     C22165   0.978   1.186   4.916 -0.7570  0.3369 -0.4381
  926MOL0     C22166   0.850   1.226   4.942 -0.4201 -0.4939  0.5187
  926MOL0     H22167   0.499   0.988   5.150  0.5680  3.6293  0.0022
  926MOL0     H22168   0.277   0.946   5.269 -1.4778  0.8124  0.3537
  926MOL0     H22169  -0.050   0.894   4.992  0.4782  1.5967 -0.0675
  926MOL0     H22170  -0.123   1.042   5.032 -1.6256  0.8012  1.9027
  926MOL0     H22171  -0.201   0.886   5.263 -2.1642 -2.0190  0.3193
  926MOL0     H22172  -0.154   0.763   5.159  0.7000  0.1118  4.7692
  926MOL0     H22173  -0.316   0.854   4.982 -0.8731  0.5765 -0.2794
  926MOL0     H22174  -0.368   0.980   5.106 -1.6068 -1.0976  1.4000
  926MOL0     H22175  -0.391   0.676   5.138  1.4373  0.6665 -1.4043
  926MOL0     H22176  -0.412   0.797   5.263  0.3585  1.5172 -0.3640
  926MOL0     H22177  -0.631   0.706   5.156 -0.1719 -0.2425 -0.1323
  926MOL0     H22178  -0.587   0.777   5.000  0.9619  0.9334 -0.1159
  926MOL0     H22179  -0.749   0.920   5.110 -0.3501  1.5905 -1.5804
  926MOL0     H22180  -0.590   0.988   5.066  0.0569 -2.0494 -0.3049
  926MOL0     H22181  -0.633   0.912   5.347 -0.8610  0.3934  0.7414
  926MOL0     H22182  -0.524   1.038   5.273 -0.9611  1.3128  1.2125
  926MOL0     H22183  -0.712   1.121   5.402 -1.4756 -2.6288  0.4922
  926MOL0     H22184  -0.827   1.056   5.293 -0.5591  3.3448 -1.0224
  926MOL0     H22185  -0.880   1.213   5.078 -1.4189  1.4374  0.4178
  926MOL0     H22186  -0.686   1.506   4.910 -1.1346  0.9350 -0.6498
  926MOL0     H22187  -0.860   1.465   4.953 -1.3755 -3.1543 -1.1857
  926MOL0     H22188  -0.841   1.255   4.830  1.6006 -1.1425 -0.4976
  926MOL0     H22189  -0.670   1.265   4.813 -1.4726 -3.6009  2.5262
  926MOL0     H22190  -0.701   1.462   4.652  0.5921 -0.3162  0.7384
  926MOL0     H22191  -0.766   1.315   4.598  2.8351 -0.0079  1.5009
  926MOL0     H22192  -0.931   1.531   4.729  2.2065  0.7335 -0.6176
  926MOL0     H22193  -0.989   1.372   4.658  0.1299  0.5391  0.4321
  926MOL0     H22194  -0.957   1.756   4.394 -0.2550 -0.5461 -0.6065
  926MOL0     H22195  -1.164   1.866   4.338 -0.5168  0.8731  0.3166
  926MOL0     H22196  -1.703   1.779   4.595 -0.1181 -1.5839  0.4507
  926MOL0     H22197  -1.912   1.887   4.570 -0.1282  1.6797 -1.0922
  926MOL0     H22198  -2.093   1.871   4.151 -1.2614 -0.3398  0.6864
  926MOL0     H22199  -2.002   2.034   4.173  0.9070 -0.5304  0.1660
  926MOL0     H22200  -2.203   2.120   4.280  3.6244 -0.8191  1.0504
  926MOL0     H22201  -2.282   1.964   4.264 -0.4635  0.7490  0.4266
  926MOL0     H22202  -2.252   2.008   4.004 -0.9921  2.9378 -2.8149
  926MOL0     H22203  -2.194   2.163   4.053 -0.1009  0.0543  0.0500
  926MOL0     H22204  -2.481   2.074   4.139 -0.2625 -0.0923 -1.0015
  926MOL0     H22205  -2.397   2.228   4.145 -1.5654  0.1529 -0.3238
  926MOL0     H22206  -2.474   2.088   3.893  0.6160 -0.2382 -0.6455
  926MOL0     H22207  -2.395   2.246   3.891  2.8034 -2.9464  0.1481
  926MOL0     H22208  -2.580   2.355   3.976  1.7757 -0.4278 -0.7980
  926MOL0     H22209  -2.657   2.201   4.045 -2.7743 -0.1198 -0.5531
  926MOL0     H22210  -2.632   2.284   3.757 -1.6210 -2.1855 -2.4489
  926MOL0     H22211  -2.679   2.118   3.795  0.2197 -0.3529 -0.2245
  926MOL0     H22212  -2.871   2.251   3.751  0.0304  2.7821  0.0020
  926MOL0     H22213  -2.847   2.343   3.903  0.4559 -0.9413  2.2894
  926MOL0     H22214  -1.899   1.796   4.153 -0.4213  2.6485  0.3564
  926MOL0     H22215  -1.673   1.706   4.179  1.9177  2.6021  0.7446
  926MOL0     H22216  -1.388   1.556   4.530 -0.3030  0.6632  2.7166
  926MOL0     H22217  -1.170   1.417   4.546 -0.3172  0.8815  3.4169
  926MOL0     H22218   0.075   1.122   4.931  0.0646 -0.4271 -0.3018
  926MOL0     H22219   0.290   1.160   4.831  0.8114 -0.7626 -1.5792
  926MOL0     H22220   0.687   0.953   4.834  0.2751  0.7029  2.3337
  926MOL0     H22221   0.930   0.893   4.773  2.9141  0.8269 -0.2312
  926MOL0     H22222   1.255   1.088   4.984  0.8548 -0.6589 -0.1634
  926MOL0     H22223   1.227   1.195   4.846  0.5159  0.1530 -1.0217
  926MOL0     H22224   1.338   1.037   4.700  0.8382  1.9514 -1.2998
  926MOL0     H22225   1.448   1.089   4.830 -0.3379 -0.2412  1.4160
  926MOL0     H22226   1.328   0.812   4.823  2.2014 -2.0177 -1.0109
  926MOL0     H22227   1.378   0.888   4.976 -3.2328 -1.5024 -0.7266
  926MOL0     H22228   1.569   0.838   4.746  0.7490  1.2524 -0.0226
  926MOL0     H22229   1.600   0.933   4.895  0.9807 -0.9219  1.2734
  926MOL0     H22230   1.685   0.608   5.074 -1.8514  2.1579  2.7765
  926MOL0     H22231   1.054   1.251   4.957 -0.1618  0.3998 -1.5951
  926MOL0     H22232   0.834   1.319   4.995  2.3803 -0.0563  0.7576
  927MOL0     O22233   7.424   2.668   9.428 -0.0633 -0.2782  0.1660
  927MOL0     C22234   7.333   2.750   9.454 -0.2120  0.3606 -0.0332
  927MOL0     O22235   7.361   2.868   9.510  0.7954  0.7248  0.0795
  927MOL0     C22236   7.480   2.876   9.580  0.0547  0.1845 -0.0589
  927MOL0     C22237   7.533   2.786   9.672  0.2100  0.5872  0.5997
  927MOL0     C22238   7.653   2.822   9.739  0.3881 -0.5649 -0.6556
  927MOL0     C22239   7.713   2.952   9.725  0.0255  1.1619 -0.1938
  927MOL0     O22240   7.822   2.978   9.808 -0.0594  0.0172  0.1390
  927MOL0     C22241   7.917   3.080   9.760 -0.5120  0.2965  0.0823
  927MOL0     C22242   8.037   3.072   9.865 -0.0695  0.0626  0.6097
  927MOL0     C22243   8.154   3.175   9.828  0.4545  1.2127  0.8637
  927MOL0     C22244   8.242   3.206   9.945  0.6880  0.1556  0.6607
  927MOL0     C22245   8.340   3.097   9.976 -0.3633 -0.6450 -0.4666
  927MOL0     C22246   8.432   3.133  10.099  0.1503 -0.1359 -0.4312
  927MOL0     C22247   8.547   3.044  10.123  0.0494  0.2679  0.0004
  927MOL0     C22248   8.644   3.068  10.000 -0.2648  0.6811 -0.0102
  927MOL0     N22249   8.790   3.023  10.006  0.8543 -0.2676 -0.9251
  927MOL0     C22250   8.901   3.100  10.031 -0.7355 -0.3457  0.2647
  927MOL0     C22251   9.001   3.008  10.027 -0.1630 -0.3558 -0.3715
  927MOL0     C22252   9.134   3.039  10.095  0.4752  0.5281  0.4582
  927MOL0     C22253   9.163   2.961  10.234 -0.2147  0.2328  1.0165
  927MOL0     C22254   9.058   2.987  10.344 -0.0793  0.8391  0.1712
  927MOL0     C22255   9.039   3.151  10.367 -0.3534  0.8326  0.8290
  927MOL0     O22256   9.012   3.184  10.502  0.0834 -0.3702 -0.1597
  927MOL0     C22257   8.894   3.146  10.558  0.2802  0.8063  0.4378
  927MOL0     C22258   8.870   3.181  10.692 -0.0595  0.3244 -0.0383
  927MOL0     C22259   8.740   3.173  10.755 -0.1817 -0.4557  0.3776
  927MOL0     C22260   8.635   3.134  10.679 -1.1605 -0.4057  1.0524
  927MOL0     C22261   8.498   3.134  10.727 -0.3471  0.4715  0.5288
  927MOL0     O22262   8.481   3.219  10.840 -0.0665 -0.1125  0.2326
  927MOL0     C22263   8.354   3.251  10.869 -0.6207 -0.1134  0.3486
  927MOL0     C22264   8.292   3.371  10.826 -0.0184 -0.1625 -0.1782
  927MOL0     C22265   8.172   3.407  10.885 -0.2497 -0.0827  0.8122
  927MOL0     C22266   8.107   3.330  10.972  0.3144  0.8868 -0.1700
  927MOL0     O22267   7.979   3.359  11.009  0.3418 -0.2474  0.0847
  927MOL0     C22268   7.922   3.485  10.974  0.7347 -0.7254  0.1309
  927MOL0     C22269   7.768   3.477  11.003  0.3246 -0.8412 -0.5043
  927MOL0     C22270   7.695   3.597  11.045 -0.0965 -0.3076 -0.1094
  927MOL0     C22271   7.694   3.695  10.938 -0.2702 -0.1411  0.0684
  927MOL0     C22272   7.603   3.807  10.987 -0.2874  0.2975 -0.3820
  927MOL0     C22273   7.571   3.908  10.877  0.4985  0.4776  0.3794
  927MOL0     C22274   7.475   4.022  10.919 -0.6623  0.0881  0.1183
  927MOL0     C22275   7.536   4.114  11.027 -0.0825 -0.5074 -0.1418
  927MOL0    Cl22276   7.682   4.204  10.983  0.3563 -0.1943  0.0467
  927MOL0     C22277   8.156   3.206  11.010  0.0562  0.1487 -0.4916
  927MOL0     C22278   8.284   3.167  10.964  1.4543 -0.1564 -0.5001
  927MOL0     O22279   8.407   3.090  10.648 -0.2930 -0.5612 -0.2988
  927MOL0     C22280   8.663   3.081  10.550  0.3752  0.2360  0.9754
  927MOL0     C22281   8.784   3.094  10.490 -0.1217  0.3777  0.2638
  927MOL0     N22282   8.954   2.885   9.987  0.1258 -0.0658 -0.2096
  927MOL0     N22283   8.826   2.896   9.972  1.1662 -0.5609 -0.5581
  927MOL0     C22284   7.655   3.040   9.642  0.2449 -0.4427 -0.0331
  927MOL0     C22285   7.546   2.999   9.560 -0.0245  1.2938 -0.5598
  927MOL0     C22286   7.195   2.719   9.406 -0.0242  0.4399  0.3779
  927MOL0     C22287   7.177   2.629   9.297 -0.3401 -0.6793 -0.2095
  927MOL0     C22288   7.047   2.606   9.251  0.5217  0.2668 -0.0141
  927MOL0     C22289   6.942   2.693   9.285  0.1709  0.1663 -0.0841
  927MOL0     O22290   6.831   2.688   9.203  0.1121 -0.4260 -0.8214
  927MOL0     C22291   6.719   2.779   9.220 -0.1241 -0.4322  0.5805
  927MOL0     C22292   6.616   2.726   9.318  0.3835  0.1569 -0.5730
  927MOL0     C22293   6.573   2.578   9.267 -0.2535 -0.5985  0.2364
  927MOL0     C22294   6.431   2.528   9.310  0.4018 -0.4734 -0.0212
  927MOL0     C22295   6.335   2.628   9.355  0.2167 -0.1934 -0.4058
  927MOL0     C22296   6.242   2.703   9.381  0.2608  0.7711 -1.0767
  927MOL0     C22297   6.963   2.785   9.389 -0.3045  0.3118 -0.3878
  927MOL0     C22298   7.089   2.786   9.457  0.2214 -0.7787  1.0411
  927MOL0     H22299   7.484   2.692   9.692 -0.2100  0.5905 -0.3593
  927MOL0     H22300   7.692   2.744   9.804  0.0484 -2.0083 -2.1121
  927MOL0     H22301   7.880   3.183   9.759  3.4605  1.9342  0.6961
  927MOL0     H22302   7.964   3.051   9.666  0.7823 -2.3396  1.4203
  927MOL0     H22303   8.075   2.970   9.874 -0.1989  0.1892  3.8384
  927MOL0     H22304   7.995   3.093   9.965 -3.1779 -3.1645  0.1717
  927MOL0     H22305   8.112   3.269   9.792  1.2372  0.5632 -2.0099
  927MOL0     H22306   8.220   3.141   9.748 -0.0956  3.2155 -0.5152
  927MOL0     H22307   8.292   3.301   9.923  1.1889 -0.4698 -1.1067
  927MOL0     H22308   8.182   3.227  10.034  0.7958  1.5038  0.4391
  927MOL0     H22309   8.401   3.072   9.888 -0.4356 -2.6778  0.0117
  927MOL0     H22310   8.278   3.008   9.991  2.5417 -2.2442  3.9587
  927MOL0     H22311   8.368   3.114  10.186  0.8668  1.5835  0.5201
  927MOL0     H22312   8.458   3.238  10.090 -1.2512  0.0729 -2.7775
  927MOL0     H22313   8.600   3.069  10.216  0.3690 -1.3080  0.2633
  927MOL0     H22314   8.504   2.944  10.117 -2.7331  1.4628 -2.0585
  927MOL0     H22315   8.644   3.170   9.960  0.6951  0.4396 -0.6409
  927MOL0     H22316   8.604   3.013   9.915  0.0101  3.1281 -1.8314
  927MOL0     H22317   8.890   3.197  10.078  0.3611 -0.1580  0.1538
  927MOL0     H22318   9.146   3.144  10.122  0.7756 -0.1160  3.0341
  927MOL0     H22319   9.213   3.017  10.023 -0.2177  1.0780 -0.5060
  927MOL0     H22320   9.261   2.997  10.266  0.3704 -0.7786  0.4083
  927MOL0     H22321   9.164   2.853  10.216  2.1307 -0.0417  2.3511
  927MOL0     H22322   8.961   2.937  10.335  0.8663 -1.1514  0.4737
  927MOL0     H22323   9.090   2.954  10.443 -1.1793  0.2817  0.3586
  927MOL0     H22324   8.963   3.186  10.297  0.8007  0.5185 -0.6543
  927MOL0     H22325   9.132   3.198  10.332  2.0391 -3.7362  0.3329
  927MOL0     H22326   8.956   3.216  10.749  1.4418 -1.7285 -0.9348
  927MOL0     H22327   8.731   3.209  10.857  0.0458  3.3517 -0.8004
  927MOL0     H22328   8.354   3.426  10.756 -0.1743  2.1400  1.3688
  927MOL0     H22329   8.141   3.504  10.848  2.2869  1.4937  2.5962
  927MOL0     H22330   7.935   3.512  10.869  0.5665 -0.5704  0.1501
  927MOL0     H22331   7.956   3.568  11.037 -1.2853  0.2161  0.0484
  927MOL0     H22332   7.764   3.406  11.086 -1.3995  0.9742  1.0788
  927MOL0     H22333   7.716   3.429  10.920 -1.8884  0.9222 -0.2302
  927MOL0     H22334   7.741   3.645  11.132  0.6215  0.0127 -0.6613
  927MOL0     H22335   7.589   3.579  11.067  0.0830 -1.3303 -0.0430
  927MOL0     H22336   7.794   3.735  10.919  0.0387 -0.8546  0.1692
  927MOL0     H22337   7.658   3.649  10.846  2.7945 -1.0873 -0.7683
  927MOL0     H22338   7.635   3.851  11.081  1.6413  0.2637 -0.9916
  927MOL0     H22339   7.507   3.762  11.014  1.1772 -2.5945  0.3755
  927MOL0     H22340   7.520   3.857  10.796  0.9709  1.5847 -0.6474
  927MOL0     H22341   7.667   3.953  10.848  1.9952 -3.9215 -2.4006
  927MOL0     H22342   7.436   4.077  10.833 -2.8149 -0.5419  0.6420
  927MOL0     H22343   7.382   3.971  10.944 -0.7457 -0.5123 -1.3090
  927MOL0     H22344   7.550   4.048  11.113  1.2103 -0.5328 -0.3613
  927MOL0     H22345   7.466   4.184  11.073  0.1605 -0.3215 -0.0560
  927MOL0     H22346   8.093   3.131  11.056 -1.8189  1.9605  0.0081
  927MOL0     H22347   8.326   3.071  10.994 -0.2008 -1.0475 -0.9037
  927MOL0     H22348   8.584   3.036  10.491  0.1982  0.9985  0.6207
  927MOL0     H22349   8.788   3.055  10.389  3.1724  1.1419 -0.0109
  927MOL0     H22350   7.686   3.143   9.627 -0.2961 -0.4385 -1.2572
  927MOL0     H22351   7.526   3.068   9.479 -2.9453 -2.0547 -3.0275
  927MOL0     H22352   7.252   2.557   9.265  1.5634  0.2040  1.9659
  927MOL0     H22353   7.039   2.539   9.166  0.1599 -1.5145  1.3691
  927MOL0     H22354   6.673   2.797   9.123  2.4103  1.0555 -0.4522
  927MOL0     H22355   6.743   2.877   9.263 -5.0603  0.7201  1.2754
  927MOL0     H22356   6.644   2.731   9.423  0.2994  1.0301 -0.5865
  927MOL0     H22357   6.535   2.798   9.305 -1.7312 -2.2582 -1.6033
  927MOL0     H22358   6.656   2.522   9.311 -1.3571 -1.4731  1.2595
  927MOL0     H22359   6.577   2.580   9.158 -0.1443 -2.2286  0.1894
  927MOL0     H22360   6.383   2.485   9.222  1.3740 -1.9276  0.1133
  927MOL0     H22361   6.438   2.453   9.390 -0.8364 -0.8648 -0.2529
  927MOL0     H22362   6.148   2.746   9.409  0.4559  0.7323 -0.3326
  927MOL0     H22363   6.889   2.858   9.421 -1.0611  1.7291 -4.7748
  927MOL0     H22364   7.112   2.871   9.521  1.3604 -1.4595  1.5742
  928MOL0     O22365   5.546  11.099   8.979  0.3249 -0.6430 -0.4683
  928MOL0     C22366   5.576  10.996   8.921 -0.4830 -0.0049  0.7350
  928MOL0     O22367   5.499  10.916   8.842 -0.3636  0.0600  0.2171
  928MOL0     C22368   5.377  10.958   8.811  0.1053 -1.1251  0.2427
  928MOL0     C22369   5.355  11.073   8.726  0.1928  0.6615  1.0099
  928MOL0     C22370   5.228  11.118   8.708  0.6725  0.4614  0.2820
  928MOL0     C22371   5.112  11.055   8.753 -0.8342 -0.0973 -0.2235
  928MOL0     O22372   4.994  11.108   8.715 -0.4964  0.1946 -0.2502
  928MOL0     C22373   4.865  11.071   8.763  0.2954  0.8960 -0.4839
  928MOL0     C22374   4.768  11.194   8.745  0.7972  0.0204 -0.7176
  928MOL0     C22375   4.758  11.218   8.588 -0.4514  0.2116 -0.0016
  928MOL0     C22376   4.619  11.279   8.569 -0.3705 -0.7928 -0.0573
  928MOL0     C22377   4.583  11.413   8.641 -0.1547  0.4976 -0.5712
  928MOL0     C22378   4.431  11.427   8.625  0.1237  0.6797 -0.3089
  928MOL0     C22379   4.381  11.560   8.680  0.0285 -0.3083  0.1837
  928MOL0     C22380   4.446  11.678   8.605 -0.5068  0.3256  0.3489
  928MOL0     N22381   4.353  11.799   8.608  0.2816  0.1967  0.2288
  928MOL0     C22382   4.248  11.816   8.513  0.0771 -0.3093 -0.4154
  928MOL0     C22383   4.171  11.909   8.577  0.0065  0.7340  0.6508
  928MOL0     C22384   4.034  11.948   8.525  0.5799  1.2466 -0.1136
  928MOL0     C22385   3.947  11.914   8.646  0.7125  0.4135 -0.0542
  928MOL0     C22386   3.802  11.932   8.609 -0.4666  0.0360  0.0888
  928MOL0     C22387   3.712  11.858   8.713  0.3431  0.2920 -0.7192
  928MOL0     O22388   3.719  11.926   8.836  0.5165  0.5570  0.1089
  928MOL0     C22389   3.643  11.861   8.937 -0.0009 -1.2340 -0.0691
  928MOL0     C22390   3.566  11.746   8.920 -0.6832  0.3233 -0.6318
  928MOL0     C22391   3.493  11.690   9.026  0.3699  0.4751  0.6287
  928MOL0     C22392   3.495  11.743   9.153 -0.0239 -0.8053  0.3759
  928MOL0     C22393   3.399  11.690   9.257 -1.0664 -0.9525  0.0908
  928MOL0     O22394   3.358  11.557   9.244  0.0825 -0.1175  0.1998
  928MOL0     C22395   3.286  11.504   9.340 -0.8476  0.1451 -0.1457
  928MOL0     C22396   3.352  11.402   9.420 -0.6095  0.0765 -1.0970
  928MOL0     C22397   3.286  11.334   9.520  0.0668  1.1855  0.4632
  928MOL0     C22398   3.153  11.364   9.555 -0.8476 -0.2988 -0.0030
  928MOL0     O22399   3.092  11.291   9.652 -0.1855 -0.8912 -0.8198
  928MOL0     C22400   2.954  11.318   9.685 -0.7917 -0.4950  1.6662
  928MOL0     C22401   2.857  11.262   9.576  0.9071  0.4035 -0.7515
  928MOL0     C22402   2.709  11.284   9.609 -0.7602 -0.6922  0.1354
  928MOL0     C22403   2.668  11.221   9.739 -0.6615  0.0142 -0.5153
  928MOL0     C22404   2.509  11.210   9.758  0.1838 -0.0585 -0.1832
  928MOL0     C22405   2.460  11.118   9.875 -0.5233  0.8204 -0.0348
  928MOL0     C22406   2.318  11.136   9.888 -0.4089 -1.0150  0.5586
  928MOL0     C22407   2.280  11.061  10.016  0.6176 -0.0952  0.5438
  928MOL0    Cl22408   2.108  11.061  10.046  0.3987 -0.0862  0.1073
  928MOL0     C22409   3.093  11.475   9.488 -0.6797 -0.0292 -0.7395
  928MOL0     C22410   3.159  11.547   9.384 -0.6167 -0.1122 -0.2939
  928MOL0     O22411   3.395  11.752   9.362  0.0830  0.5237  0.1008
  928MOL0     C22412   3.571  11.862   9.175  0.3894 -0.5589 -1.1469
  928MOL0     C22413   3.635  11.916   9.062  0.4115 -1.0495 -0.2200
  928MOL0     N22414   4.234  11.954   8.694 -0.6461  0.1876 -0.0721
  928MOL0     N22415   4.349  11.892   8.712  0.5107  0.1988 -0.3201
  928MOL0     C22416   5.134  10.933   8.822 -0.7932 -0.3843 -1.2420
  928MOL0     C22417   5.265  10.881   8.847  0.5572 -0.2397  0.4186
  928MOL0     C22418   5.719  10.963   8.923 -0.4940  0.4137  0.4566
  928MOL0     C22419   5.781  10.857   8.847  1.0404  0.0587 -0.3882
  928MOL0     C22420   5.922  10.834   8.858  0.4283 -0.1510 -0.2633
  928MOL0     C22421   5.998  10.920   8.926 -0.4152 -0.1413 -0.3976
  928MOL0     O22422   6.135  10.925   8.945 -0.6249 -0.0458  0.1768
  928MOL0     C22423   6.210  10.811   8.890  0.4263 -0.0697 -0.5161
  928MOL0     C22424   6.365  10.842   8.892 -0.0722 -0.5068 -0.1275
  928MOL0     C22425   6.398  10.988   8.847 -0.3818 -0.2274 -0.1993
  928MOL0     C22426   6.539  11.036   8.887  0.2061 -0.4816 -0.0748
  928MOL0     C22427   6.647  10.959   8.834 -0.3739 -0.1205  0.7766
  928MOL0     C22428   6.734  10.890   8.777 -0.5038 -1.1424 -0.1520
  928MOL0     C22429   5.937  11.006   9.011  1.1681 -0.8347 -1.1304
  928MOL0     C22430   5.802  11.033   9.010 -0.8011 -0.1171 -1.3549
  928MOL0     H22431   5.434  11.129   8.677 -2.4869  3.0680 -0.9167
  928MOL0     H22432   5.203  11.209   8.655 -0.5165  0.0791  0.1549
  928MOL0     H22433   4.864  11.051   8.870  0.4087 -2.4055 -0.9993
  928MOL0     H22434   4.829  10.978   8.719 -0.1089 -0.7039  2.9556
  928MOL0     H22435   4.805  11.280   8.801 -1.4529 -0.2630  1.3424
  928MOL0     H22436   4.670  11.173   8.788  0.4639 -1.1416 -1.9553
  928MOL0     H22437   4.772  11.120   8.542  0.3112  0.7885 -1.0273
  928MOL0     H22438   4.840  11.277   8.546 -0.1343 -0.4302 -0.3006
  928MOL0     H22439   4.607  11.283   8.460  0.8163  0.8152 -0.1577
  928MOL0     H22440   4.545  11.201   8.591 -0.5388 -1.2470 -1.9769
  928MOL0     H22441   4.635  11.503   8.606 -0.6811  1.0335 -0.0044
  928MOL0     H22442   4.609  11.406   8.747  0.8460 -2.2397 -0.9128
  928MOL0     H22443   4.386  11.347   8.684  1.1095  0.6285  0.3773
  928MOL0     H22444   4.401  11.420   8.519  0.0194  1.6478 -0.3570
  928MOL0     H22445   4.272  11.563   8.670  0.1415  0.3404 -1.1108
  928MOL0     H22446   4.383  11.572   8.789 -1.9406  0.0016  0.2199
  928MOL0     H22447   4.459  11.656   8.498  0.2773  1.1787  0.2477
  928MOL0     H22448   4.543  11.705   8.648 -1.2528  2.4303  0.8317
  928MOL0     H22449   4.227  11.762   8.421  0.7115  1.1952 -1.4833
  928MOL0     H22450   3.997  11.880   8.448  2.5125 -2.5746  2.0381
  928MOL0     H22451   4.027  12.054   8.500  0.0103  1.8353  2.2244
  928MOL0     H22452   3.980  11.970   8.734  1.1921  1.7974 -1.0773
  928MOL0     H22453   3.960  11.807   8.667 -1.6584 -0.4465 -2.3454
  928MOL0     H22454   3.777  12.039   8.606  1.0135  0.4179  0.6358
  928MOL0     H22455   3.782  11.877   8.517  1.2680 -3.0651  1.4290
  928MOL0     H22456   3.739  11.752   8.712  2.3713  0.7705 -2.1162
  928MOL0     H22457   3.607  11.868   8.683  0.5909  0.2245 -1.6438
  928MOL0     H22458   3.574  11.689   8.827  1.8017  1.1087 -0.9885
  928MOL0     H22459   3.425  11.607   9.011  0.7260  0.4862 -1.3084
  928MOL0     H22460   3.458  11.382   9.409  0.0217  2.7851 -0.6621
  928MOL0     H22461   3.345  11.253   9.564 -1.8316 -0.8612 -0.5642
  928MOL0     H22462   2.930  11.422   9.705  2.6076  0.8620 -0.3985
  928MOL0     H22463   2.948  11.263   9.779 -1.1217  2.2014  3.3204
  928MOL0     H22464   2.858  11.153   9.568  0.0989 -0.5662  5.9209
  928MOL0     H22465   2.883  11.310   9.481 -1.4583  2.7095 -0.3385
  928MOL0     H22466   2.650  11.252   9.523  0.0764 -2.0968  0.0590
  928MOL0     H22467   2.689  11.391   9.623 -0.2595 -0.6055  0.2176
  928MOL0     H22468   2.706  11.118   9.737  0.7095  0.5126 -0.8450
  928MOL0     H22469   2.715  11.266   9.827 -0.7300 -0.0519 -0.4446
  928MOL0     H22470   2.459  11.168   9.671 -0.9269 -1.3923  1.0427
  928MOL0     H22471   2.474  11.311   9.780 -3.0760 -1.5000  2.1902
  928MOL0     H22472   2.503  11.161   9.965  0.3323  1.4289 -0.7111
  928MOL0     H22473   2.491  11.013   9.869 -1.2626  0.3615  2.8122
  928MOL0     H22474   2.289  11.241   9.882 -1.2200 -1.3168 -2.0876
  928MOL0     H22475   2.268  11.090   9.802  1.0876 -1.6357 -0.0022
  928MOL0     H22476   2.327  11.109  10.103  0.7369 -1.5356  1.3072
  928MOL0     H22477   2.310  10.958   9.997 -1.4512 -0.2375 -2.6195
  928MOL0     H22478   3.000  11.515   9.526  0.1671  1.2865  0.0454
  928MOL0     H22479   3.112  11.634   9.338  0.7661  1.5846  1.3833
  928MOL0     H22480   3.573  11.897   9.278  0.1452 -1.0269 -0.9787
  928MOL0     H22481   3.687  12.009   9.083 -1.2546 -0.1669  0.2391
  928MOL0     H22482   5.046  10.875   8.847 -0.5331  0.5717  2.6387
  928MOL0     H22483   5.279  10.785   8.897 -0.3564 -0.1251  0.9107
  928MOL0     H22484   5.722  10.792   8.782 -0.5491 -1.1398  2.0931
  928MOL0     H22485   5.978  10.749   8.823  2.6740  1.2012 -0.1441
  928MOL0     H22486   6.175  10.793   8.788  0.6943 -0.0114 -0.6173
  928MOL0     H22487   6.193  10.720   8.949 -0.3679 -1.2833 -2.5130
  928MOL0     H22488   6.381  10.835   9.000  4.0292  0.5606 -0.4806
  928MOL0     H22489   6.420  10.767   8.835 -1.4952 -1.5905 -0.1173
  928MOL0     H22490   6.329  11.063   8.886 -1.5621 -1.2593 -0.2396
  928MOL0     H22491   6.390  11.006   8.739 -0.9149  2.2499  0.1905
  928MOL0     H22492   6.543  11.143   8.866 -2.3462 -0.5805 -1.4651
  928MOL0     H22493   6.544  11.042   8.996 -1.6969  1.2580 -0.0383
  928MOL0     H22494   6.813  10.831   8.737  2.6086  0.6138  2.8443
  928MOL0     H22495   5.996  11.069   9.078 -0.6842  1.6128 -1.6549
  928MOL0     H22496   5.759  11.120   9.059 -0.9047 -0.9369  0.0627
  929MOL0     O22497   1.188  10.683  10.853 -0.0691  0.3306  0.5310
  929MOL0     C22498   1.254  10.599  10.803  0.4670 -0.6639 -0.0991
  929MOL0     O22499   1.206  10.493  10.726  0.3691  0.2621 -0.3559
  929MOL0     C22500   1.071  10.452  10.758  0.5091  0.0626 -0.6505
  929MOL0     C22501   0.958  10.499  10.695 -0.4890 -0.1213 -1.0593
  929MOL0     C22502   0.829  10.461  10.743  0.2184 -0.4690  0.5766
  929MOL0     C22503   0.816  10.387  10.868  0.1465  0.1955 -0.3380
  929MOL0     O22504   0.695  10.355  10.932 -0.1858 -0.4142  0.0374
  929MOL0     C22505   0.573  10.421  10.897 -0.6492  0.0011 -0.7362
  929MOL0     C22506   0.520  10.357  10.770 -0.3177  0.2440 -0.2528
  929MOL0     C22507   0.361  10.372  10.759  0.3136 -0.0589 -0.1882
  929MOL0     C22508   0.321  10.517  10.771 -0.9800  0.4304  0.2640
  929MOL0     C22509   0.168  10.533  10.740 -0.7435 -1.1793 -0.1547
  929MOL0     C22510   0.128  10.536  10.596 -0.1056  0.7666  0.9184
  929MOL0     C22511  -0.018  10.578  10.582  0.6629  0.1997 -0.6516
  929MOL0     C22512  -0.051  10.533  10.443 -0.5547 -0.0962  1.1113
  929MOL0     N22513  -0.198  10.566  10.412 -0.8719 -0.8357 -0.1998
  929MOL0     C22514  -0.312  10.503  10.454 -0.3172 -0.5553  0.1882
  929MOL0     C22515  -0.411  10.591  10.416 -0.3493 -0.5443 -0.3384
  929MOL0     C22516  -0.555  10.589  10.448 -0.4342  0.4415  0.7801
  929MOL0     C22517  -0.601  10.671  10.568 -0.1912 -0.1507  0.8491
  929MOL0     C22518  -0.747  10.650  10.588 -0.3924  0.3231  0.4134
  929MOL0     C22519  -0.827  10.702  10.472  1.0597  0.0147 -0.2511
  929MOL0     O22520  -0.956  10.764  10.514  0.2853  0.0588 -0.2710
  929MOL0     C22521  -1.070  10.690  10.548 -1.1080  0.2501  0.2652
  929MOL0     C22522  -1.171  10.738  10.630 -1.0570  0.6608  0.2516
  929MOL0     C22523  -1.262  10.658  10.689  0.5099  0.1929  1.0164
  929MOL0     C22524  -1.271  10.528  10.665  0.2416  0.4336 -0.0151
  929MOL0     C22525  -1.374  10.444  10.719 -0.1555  0.5915 -0.1797
  929MOL0     O22526  -1.443  10.500  10.819  0.3659  0.2444 -0.1254
  929MOL0     C22527  -1.552  10.439  10.876  0.4900 -0.2564  0.4051
  929MOL0     C22528  -1.667  10.517  10.881 -0.3173 -0.5411 -0.5092
  929MOL0     C22529  -1.788  10.463  10.932  0.4702 -1.1400 -0.2251
  929MOL0     C22530  -1.787  10.322  10.966 -0.2897 -0.1378  0.2772
  929MOL0     O22531  -1.903  10.280  11.030  0.0740  0.2063 -0.1232
  929MOL0     C22532  -1.920  10.137  11.034 -0.8013 -0.0989  0.2847
  929MOL0     C22533  -2.072  10.096  11.038  0.1852  0.3340  1.0508
  929MOL0     C22534  -2.129  10.134  10.904 -0.0636  0.0387  0.4592
  929MOL0     C22535  -2.279  10.131  10.898  0.1554 -0.2169 -0.6972
  929MOL0     C22536  -2.347   9.995  10.925  0.5638  0.3443  0.1913
  929MOL0     C22537  -2.496  10.006  10.937  0.3430 -1.3933 -0.6012
  929MOL0     C22538  -2.553   9.859  10.928 -0.5386 -0.2350  0.1111
  929MOL0     C22539  -2.690   9.837  10.997  1.2487  0.4485  0.0913
  929MOL0    Cl22540  -2.811   9.967  10.950  0.1342 -0.3587  0.4002
  929MOL0     C22541  -1.663  10.252  10.966 -0.1908  0.5000  0.2739
  929MOL0     C22542  -1.546  10.309  10.919  0.0412 -0.7739 -0.7275
  929MOL0     O22543  -1.390  10.329  10.679  0.0711 -0.0223  0.1192
  929MOL0     C22544  -1.175  10.471  10.572  0.3053  0.1300  0.0351
  929MOL0     C22545  -1.079  10.554  10.508  0.3005  0.5629 -0.8709
  929MOL0     N22546  -0.345  10.695  10.345  0.2477  0.1479 -0.0586
  929MOL0     N22547  -0.224  10.682  10.343 -0.2363  1.0961 -0.6011
  929MOL0     C22548   0.933  10.334  10.923  1.7035  0.7480 -0.2460
  929MOL0     C22549   1.056  10.362  10.872 -0.2347  0.9827 -0.7387
  929MOL0     C22550   1.394  10.636  10.792 -0.3829 -0.1601 -1.0479
  929MOL0     C22551   1.491  10.552  10.733  0.8366 -0.7379 -0.4911
  929MOL0     C22552   1.623  10.572  10.713 -0.4124 -0.6457 -0.2951
  929MOL0     C22553   1.682  10.700  10.748 -0.1544 -0.4469  1.3429
  929MOL0     O22554   1.817  10.725  10.722 -0.4654 -0.1503 -0.3062
  929MOL0     C22555   1.869  10.853  10.769 -0.1855  0.7144 -0.0980
  929MOL0     C22556   2.026  10.858  10.768 -0.1770  0.3096  0.2134
  929MOL0     C22557   2.064  11.001  10.819 -0.7990  0.7812  0.1445
  929MOL0     C22558   2.038  11.019  10.971  0.5658 -0.1637  0.2927
  929MOL0     C22559   2.076  11.149  11.014  0.0920  0.6262 -0.3723
  929MOL0     C22560   2.110  11.245  11.083 -0.4126  0.4166  1.5580
  929MOL0     C22561   1.589  10.792  10.814  0.4752  0.0663  0.0324
  929MOL0     C22562   1.451  10.764  10.840  0.1502  1.2386  0.1424
  929MOL0     H22563   0.957  10.557  10.603 -1.9686 -1.8416 -2.1946
  929MOL0     H22564   0.744  10.516  10.703  0.7252  0.5809  0.9052
  929MOL0     H22565   0.585  10.529  10.880 -1.1100 -0.1904 -2.4508
  929MOL0     H22566   0.511  10.408  10.987  0.1644  1.5846  0.0979
  929MOL0     H22567   0.549  10.252  10.760  1.0068  0.8327 -3.6609
  929MOL0     H22568   0.573  10.410  10.691 -1.7866 -0.9246 -2.1124
  929MOL0     H22569   0.309  10.304  10.828 -2.4166 -0.6099 -2.5999
  929MOL0     H22570   0.331  10.348  10.656 -1.7084 -2.3576  0.8286
  929MOL0     H22571   0.345  10.552  10.872 -1.4822  1.3066  0.0924
  929MOL0     H22572   0.377  10.586  10.708  0.5500 -1.7779 -0.9285
  929MOL0     H22573   0.130  10.614  10.803 -0.4032 -2.8345  2.3358
  929MOL0     H22574   0.121  10.444  10.782 -1.4408 -0.2542  1.1100
  929MOL0     H22575   0.146  10.433  10.565  0.9150  1.3880 -0.6974
  929MOL0     H22576   0.190  10.606  10.539 -1.6294  0.1679 -1.6170
  929MOL0     H22577  -0.083  10.529  10.655 -1.8731  0.6015 -2.5208
  929MOL0     H22578  -0.031  10.686  10.587 -3.6022 -0.1078 -1.5114
  929MOL0     H22579  -0.038  10.425  10.441 -2.6963 -0.5379 -3.5257
  929MOL0     H22580   0.019  10.571  10.367 -2.3218 -1.2766 -1.2551
  929MOL0     H22581  -0.308  10.417  10.519 -2.0782 -0.5540  0.3456
  929MOL0     H22582  -0.567  10.482  10.468  1.1183  0.0363 -0.2793
  929MOL0     H22583  -0.613  10.613  10.358  3.3372 -1.2083 -2.3701
  929MOL0     H22584  -0.598  10.778  10.546 -0.1515 -0.2221  0.5062
  929MOL0     H22585  -0.535  10.634  10.646  3.2518  0.3042 -1.5914
  929MOL0     H22586  -0.760  10.542  10.595 -1.6065  0.4007 -0.3217
  929MOL0     H22587  -0.777  10.699  10.681  1.2390 -0.4710  1.4071
  929MOL0     H22588  -0.845  10.629  10.393  0.3246  0.0756 -0.1442
  929MOL0     H22589  -0.772  10.774  10.411  0.1642  1.7592  0.8984
  929MOL0     H22590  -1.164  10.844  10.650  6.6652  1.1159 -1.6563
  929MOL0     H22591  -1.341  10.711  10.742  0.3973  1.0451  0.0184
  929MOL0     H22592  -1.673  10.618  10.843  2.7837  1.4879  3.5597
  929MOL0     H22593  -1.885  10.512  10.941  0.8727 -0.3873  0.1263
  929MOL0     H22594  -1.887  10.106  11.133 -0.7462 -0.0346  0.2858
  929MOL0     H22595  -1.874  10.072  10.958 -1.4530 -0.0887 -0.1281
  929MOL0     H22596  -2.116  10.165  11.111  1.6431  2.1874  0.2440
  929MOL0     H22597  -2.091   9.991  11.060 -1.7244  0.0761 -1.4526
  929MOL0     H22598  -2.088  10.060  10.834  1.5567  0.5281  0.8420
  929MOL0     H22599  -2.098  10.233  10.871 -1.4458 -0.1469 -1.5468
  929MOL0     H22600  -2.303  10.205  10.975  1.4621 -2.7869  2.4438
  929MOL0     H22601  -2.313  10.166  10.801 -0.5303 -2.1317 -1.2027
  929MOL0     H22602  -2.308   9.948  11.016  0.3991  0.5371  0.3616
  929MOL0     H22603  -2.311   9.933  10.842  1.4767  1.0502  0.0326
  929MOL0     H22604  -2.538  10.060  10.851  1.8591 -0.3140 -0.6896
  929MOL0     H22605  -2.522  10.044  11.036  0.3690 -4.0336  0.4972
  929MOL0     H22606  -2.564   9.839  10.821  0.2199 -2.1602  0.3531
  929MOL0     H22607  -2.483   9.783  10.964  0.1161  0.1608 -0.2908
  929MOL0     H22608  -2.675   9.835  11.105 -0.2686 -1.2944  0.3367
  929MOL0     H22609  -2.735   9.739  10.976 -0.6593  1.1202  0.8382
  929MOL0     H22610  -1.661  10.154  11.012  3.2726  0.0435 -0.5836
  929MOL0     H22611  -1.459  10.246  10.929 -0.1756 -0.9900 -0.1193
  929MOL0     H22612  -1.165  10.366  10.550 -0.7258  0.1960 -0.8617
  929MOL0     H22613  -1.029  10.508  10.424 -1.7917 -1.1238 -1.2808
  929MOL0     H22614   0.922  10.274  11.013  1.5074  1.8085  0.4550
  929MOL0     H22615   1.141  10.307  10.911 -0.9328  0.1080 -0.4194
  929MOL0     H22616   1.446  10.458  10.700 -3.4981  0.4163  1.3735
  929MOL0     H22617   1.674  10.493  10.659 -1.0285  0.9841 -3.5155
  929MOL0     H22618   1.834  10.874  10.871  2.3352 -0.8611  1.1842
  929MOL0     H22619   1.832  10.934  10.705  1.3001  1.8123  0.3790
  929MOL0     H22620   2.065  10.769  10.819 -0.9128  0.0723  0.3687
  929MOL0     H22621   2.060  10.851  10.664 -0.1468  0.8940  0.1789
  929MOL0     H22622   2.006  11.076  10.764 -2.7260 -1.1359 -0.5587
  929MOL0     H22623   2.170  11.021  10.800 -0.5910  1.3433  1.7149
  929MOL0     H22624   1.934  10.995  10.996  1.1569 -1.6374  1.4449
  929MOL0     H22625   2.103  10.952  11.028  0.7825  0.7990  1.2055
  929MOL0     H22626   2.128  11.326  11.151 -1.1585  0.7358  1.3950
  929MOL0     H22627   1.621  10.893  10.834 -0.7311  0.2653  1.0793
  929MOL0     H22628   1.393  10.840  10.892 -5.0924 -1.1253 -1.6023
  930MOL0     O22629   5.524   5.129   5.646 -0.5220 -0.2434  1.1160
  930MOL0     C22630   5.587   5.167   5.747  0.6809 -0.0918  0.3573
  930MOL0     O22631   5.535   5.186   5.866 -0.1849 -0.0525 -0.2559
  930MOL0     C22632   5.396   5.175   5.890  0.5428  0.6068 -0.2580
  930MOL0     C22633   5.359   5.068   5.970 -0.1272 -0.1964  0.2325
  930MOL0     C22634   5.225   5.034   5.986  1.1741 -0.3345 -0.0739
  930MOL0     C22635   5.125   5.114   5.928  0.3723  0.1588 -0.7187
  930MOL0     O22636   4.993   5.077   5.946  0.0882  0.7244 -0.2923
  930MOL0     C22637   4.933   5.121   6.067 -0.0968  0.0344 -0.0030
  930MOL0     C22638   4.881   4.995   6.123  0.3733  1.3304 -1.1692
  930MOL0     C22639   4.966   4.907   6.217  0.1601 -0.5000  0.4239
  930MOL0     C22640   4.971   4.956   6.358 -0.2900 -0.8315  0.9033
  930MOL0     C22641   5.077   4.876   6.440  0.7143 -0.6411 -0.4015
  930MOL0     C22642   5.222   4.874   6.395  0.6498 -0.0045  0.2195
  930MOL0     C22643   5.313   4.817   6.500 -0.6624  0.1485 -0.1551
  930MOL0     C22644   5.329   4.664   6.498 -0.2319  0.4080  0.6376
  930MOL0     N22645   5.398   4.606   6.614  0.2592 -0.1118 -0.1703
  930MOL0     C22646   5.530   4.598   6.627 -1.0044 -0.0352 -0.1616
  930MOL0     C22647   5.549   4.567   6.764  0.2712 -0.1394  0.3531
  930MOL0     C22648   5.681   4.534   6.833  0.8663  0.5830  1.0854
  930MOL0     C22649   5.804   4.537   6.731  0.6490 -0.3853  0.1632
  930MOL0     C22650   5.935   4.497   6.802  0.2391  0.2227  0.2490
  930MOL0     C22651   5.987   4.596   6.900 -0.0385  0.9555  0.0666
  930MOL0     O22652   6.087   4.527   6.976  0.3312  0.7538  0.6861
  930MOL0     C22653   6.154   4.588   7.083  0.6299  0.2161 -0.1721
  930MOL0     C22654   6.161   4.727   7.098  0.3365  0.7974  0.6556
  930MOL0     C22655   6.221   4.779   7.211  0.1623 -0.0994 -0.2580
  930MOL0     C22656   6.283   4.703   7.317 -0.1205 -1.1713  0.8242
  930MOL0     C22657   6.367   4.781   7.416  0.0163 -0.4569  0.0257
  930MOL0     O22658   6.380   4.921   7.404 -0.1752  0.1581  0.3610
  930MOL0     C22659   6.458   4.999   7.488  0.2756 -0.6942 -0.0534
  930MOL0     C22660   6.405   5.034   7.615  0.1382 -0.1748  0.8364
  930MOL0     C22661   6.486   5.110   7.703 -0.1841  0.1618  0.2238
  930MOL0     C22662   6.607   5.165   7.670 -0.3332 -0.5414 -0.8853
  930MOL0     O22663   6.675   5.237   7.763  0.4883  0.4898 -0.2131
  930MOL0     C22664   6.805   5.192   7.795  0.2211  0.2224  0.0287
  930MOL0     C22665   6.892   5.304   7.846  0.3718 -0.1716 -0.0665
  930MOL0     C22666   7.033   5.265   7.907  0.0811  0.1533  0.5742
  930MOL0     C22667   7.024   5.197   8.047  0.2572  0.3264  0.3432
  930MOL0     C22668   7.158   5.133   8.097 -0.0366  0.3193 -0.3868
  930MOL0     C22669   7.257   5.240   8.137  0.1586  0.5004  0.6956
  930MOL0     C22670   7.395   5.185   8.171 -0.9708  0.1203 -0.1454
  930MOL0     C22671   7.470   5.290   8.239 -0.2692 -0.2496 -0.2678
  930MOL0    Cl22672   7.524   5.421   8.122 -0.0992  0.0222 -0.0773
  930MOL0     C22673   6.648   5.134   7.536  0.6250 -0.1535  0.2069
  930MOL0     C22674   6.579   5.057   7.446  0.0546  0.3799 -0.1434
  930MOL0     O22675   6.434   4.716   7.495 -0.2695  1.1455 -1.0762
  930MOL0     C22676   6.287   4.562   7.292  0.5269  0.8356  0.1888
  930MOL0     C22677   6.211   4.507   7.184 -0.0319  0.8743  0.3656
  930MOL0     N22678   5.420   4.562   6.817 -0.5927  0.0107 -0.5877
  930MOL0     N22679   5.331   4.580   6.725  0.0859 -1.1420  0.0561
  930MOL0     C22680   5.164   5.230   5.848  0.6169 -0.1043  0.1938
  930MOL0     C22681   5.302   5.250   5.829  0.1009 -0.1762  0.2973
  930MOL0     C22682   5.730   5.199   5.726  0.0346  0.5546 -0.0251
  930MOL0     C22683   5.823   5.185   5.833  0.1066  0.5794 -0.0177
  930MOL0     C22684   5.962   5.218   5.816 -0.3661  0.3648  0.3149
  930MOL0     C22685   6.003   5.264   5.691  0.1759 -1.3305 -0.1708
  930MOL0     O22686   6.132   5.313   5.674  0.1221 -0.4713  0.0416
  930MOL0     C22687   6.230   5.329   5.782  0.9814  0.0574 -0.0349
  930MOL0     C22688   6.300   5.464   5.739 -0.0081  0.1352  1.0897
  930MOL0     C22689   6.430   5.497   5.821 -0.1588 -0.0116  0.8477
  930MOL0     C22690   6.472   5.642   5.777 -0.5645 -0.6415  0.0832
  930MOL0     C22691   6.402   5.748   5.857  0.2136 -0.2122 -0.3866
  930MOL0     C22692   6.342   5.845   5.899  0.0194  0.2275  0.1437
  930MOL0     C22693   5.906   5.265   5.585  0.2052 -0.5165 -0.6330
  930MOL0     C22694   5.774   5.229   5.598 -0.4005  0.1404 -0.6070
  930MOL0     H22695   5.442   5.011   6.012  0.4726  1.4094  1.3154
  930MOL0     H22696   5.207   4.941   6.038  2.4847  0.0004  1.0562
  930MOL0     H22697   4.844   5.183   6.052  1.0620  2.1240  1.2363
  930MOL0     H22698   4.993   5.169   6.145 -1.0881  1.0415  0.1705
  930MOL0     H22699   4.852   4.933   6.037  0.6783  0.9553 -1.0048
  930MOL0     H22700   4.788   5.024   6.172  2.0656  3.5078  0.9892
  930MOL0     H22701   5.070   4.902   6.183 -0.5031 -2.0858 -1.5600
  930MOL0     H22702   4.931   4.804   6.213  1.1235 -0.8420  0.3797
  930MOL0     H22703   4.991   5.063   6.349 -3.3835 -0.3217 -2.6724
  930MOL0     H22704   4.874   4.962   6.408 -0.2518 -1.2773  1.0342
  930MOL0     H22705   5.048   4.771   6.437  2.8193 -1.2468 -2.8815
  930MOL0     H22706   5.070   4.903   6.546 -1.1860 -3.7806  0.4010
  930MOL0     H22707   5.245   4.980   6.386  0.8354 -0.1892 -1.8110
  930MOL0     H22708   5.227   4.827   6.297 -1.2089 -1.0710  0.5816
  930MOL0     H22709   5.412   4.861   6.508 -0.2346 -1.1303  3.0000
  930MOL0     H22710   5.270   4.847   6.596 -2.9473  4.5343 -2.2239
  930MOL0     H22711   5.381   4.633   6.406 -1.3619  3.3066 -1.0972
  930MOL0     H22712   5.236   4.610   6.478  0.7531 -0.9197 -0.6626
  930MOL0     H22713   5.608   4.617   6.555 -0.8397  1.7971  0.4568
  930MOL0     H22714   5.667   4.432   6.870  2.1567 -0.3966 -0.9485
  930MOL0     H22715   5.695   4.606   6.914 -1.1416  0.5879  1.4754
  930MOL0     H22716   5.819   4.642   6.704  1.5212 -0.5583 -0.0661
  930MOL0     H22717   5.790   4.477   6.641  0.9388  0.5033 -0.4877
  930MOL0     H22718   5.906   4.411   6.864 -0.2255 -1.5213 -2.2444
  930MOL0     H22719   6.015   4.460   6.739  1.0299  0.9688  0.7976
  930MOL0     H22720   5.906   4.631   6.965 -1.8491  3.2332 -3.1255
  930MOL0     H22721   6.025   4.681   6.842 -1.0025  1.8808  0.7295
  930MOL0     H22722   6.120   4.792   7.022  1.4415  0.3302 -0.3591
  930MOL0     H22723   6.217   4.887   7.223 -1.6622 -0.1940  0.3696
  930MOL0     H22724   6.307   4.991   7.630 -0.2563 -0.0121 -1.0778
  930MOL0     H22725   6.449   5.127   7.804  1.0489 -0.5088  0.8227
  930MOL0     H22726   6.846   5.160   7.699  0.7379 -0.2460  0.3998
  930MOL0     H22727   6.801   5.108   7.865  0.0880 -0.5521 -0.8982
  930MOL0     H22728   6.831   5.357   7.919  1.8454 -0.3511  1.3654
  930MOL0     H22729   6.914   5.368   7.760  0.6873 -2.5702 -1.8976
  930MOL0     H22730   7.082   5.361   7.925  0.1428 -0.0864  1.7739
  930MOL0     H22731   7.090   5.197   7.842 -0.8926 -1.1781  1.0602
  930MOL0     H22732   6.983   5.271   8.116  1.7233 -0.7268  2.4378
  930MOL0     H22733   6.945   5.121   8.042  0.6264  0.0254 -1.7655
  930MOL0     H22734   7.203   5.060   8.029  1.0661  2.7424 -2.4037
  930MOL0     H22735   7.132   5.075   8.186 -1.2594  0.8942 -0.3439
  930MOL0     H22736   7.217   5.297   8.222 -0.9908  1.2218 -0.2977
  930MOL0     H22737   7.260   5.302   8.048 -1.2824  0.7026  0.7709
  930MOL0     H22738   7.382   5.106   8.245  2.3253  0.1071  0.5694
  930MOL0     H22739   7.443   5.132   8.088 -2.4712 -2.9836  0.8289
  930MOL0     H22740   7.547   5.254   8.308 -3.1646  0.7731  3.8725
  930MOL0     H22741   7.406   5.347   8.307 -1.0840  2.0216 -2.7813
  930MOL0     H22742   6.738   5.185   7.504  0.1025 -0.2327 -1.4601
  930MOL0     H22743   6.607   5.045   7.342  0.3694  1.7072 -0.2371
  930MOL0     H22744   6.338   4.497   7.362 -0.7440 -1.1362 -0.6225
  930MOL0     H22745   6.219   4.401   7.163  3.9980  0.6924  1.9123
  930MOL0     H22746   5.106   5.306   5.797  0.3763 -1.6097 -1.8761
  930MOL0     H22747   5.352   5.328   5.772 -1.0515  1.0972  0.9820
  930MOL0     H22748   5.779   5.166   5.930  0.2990  0.6928  0.0910
  930MOL0     H22749   6.030   5.216   5.900 -3.1217  0.1134  2.7215
  930MOL0     H22750   6.287   5.236   5.771  2.1258  0.6623  0.5567
  930MOL0     H22751   6.192   5.357   5.881 -2.4293  4.9944 -2.3135
  930MOL0     H22752   6.325   5.454   5.633 -0.3409 -1.8889  1.1618
  930MOL0     H22753   6.232   5.549   5.745 -2.4866 -1.6677  0.4242
  930MOL0     H22754   6.509   5.427   5.791  1.3418  0.6766  2.9630
  930MOL0     H22755   6.403   5.496   5.927  2.0097  1.2619  1.4856
  930MOL0     H22756   6.578   5.667   5.785 -0.2404 -1.9763  0.1886
  930MOL0     H22757   6.446   5.649   5.671  0.6793  3.8562 -0.1198
  930MOL0     H22758   6.298   5.929   5.947  0.8878 -0.8773  3.1048
  930MOL0     H22759   5.943   5.297   5.488  0.1019  3.8548  0.5536
  930MOL0     H22760   5.711   5.242   5.510 -1.1562 -0.8729 -0.2363
  931MOL0     O22761   1.708   8.100   6.667  0.1329 -1.1514 -0.0713
  931MOL0     C22762   1.718   8.171   6.565  0.2752 -0.0345 -1.0222
  931MOL0     O22763   1.625   8.185   6.467 -0.0704 -1.2244  0.5538
  931MOL0     C22764   1.505   8.119   6.458 -1.1234 -0.7981 -0.8535
  931MOL0     C22765   1.448   8.112   6.331 -0.5656  0.4807  0.3542
  931MOL0     C22766   1.329   8.031   6.312 -0.3666  0.1809 -0.5221
  931MOL0     C22767   1.269   7.968   6.422  0.0869  1.5326 -0.1651
  931MOL0     O22768   1.154   7.890   6.396  0.4451  0.0368  0.3174
  931MOL0     C22769   1.119   7.781   6.481  0.8323  0.6320  0.5675
  931MOL0     C22770   1.022   7.688   6.415 -0.2832  0.2555  0.5270
  931MOL0     C22771   0.957   7.601   6.527  0.1774 -0.5889  0.1626
  931MOL0     C22772   0.821   7.539   6.484 -0.1757  0.1196 -0.2929
  931MOL0     C22773   0.769   7.460   6.601 -0.2796  0.4265 -0.9011
  931MOL0     C22774   0.635   7.399   6.562 -0.1542 -0.7815 -0.1935
  931MOL0     C22775   0.588   7.293   6.662  0.5742  0.2718 -0.0850
  931MOL0     C22776   0.579   7.350   6.808 -0.2748 -0.1814  0.8035
  931MOL0     N22777   0.509   7.473   6.824  0.1284  0.1851 -0.5763
  931MOL0     C22778   0.393   7.481   6.897  0.4986 -0.2573 -0.4130
  931MOL0     C22779   0.376   7.611   6.920 -0.4221  0.0981 -1.0744
  931MOL0     C22780   0.262   7.670   6.997  0.1282 -0.1916  0.9835
  931MOL0     C22781   0.188   7.781   6.916  0.5080  0.4835  0.3913
  931MOL0     C22782   0.115   7.755   6.790  0.4110  0.7702 -0.1474
  931MOL0     C22783   0.029   7.872   6.728 -0.3982  0.2017  0.4128
  931MOL0     O22784  -0.062   7.920   6.826  0.1886  1.3791 -0.4620
  931MOL0     C22785  -0.177   7.984   6.785 -0.4325 -0.6729  0.7872
  931MOL0     C22786  -0.199   8.044   6.659 -0.4810 -0.1094  0.5134
  931MOL0     C22787  -0.324   8.109   6.628 -0.6269  0.4045 -0.3710
  931MOL0     C22788  -0.428   8.111   6.721  0.0250 -0.8083  0.3395
  931MOL0     C22789  -0.560   8.157   6.670 -0.3801 -0.5406 -0.5073
  931MOL0     O22790  -0.672   8.081   6.695 -0.3274  0.1559  0.3875
  931MOL0     C22791  -0.789   8.118   6.642 -0.2736 -0.2149 -0.3982
  931MOL0     C22792  -0.859   8.023   6.575 -0.2578 -0.2683  0.4007
  931MOL0     C22793  -0.985   8.046   6.517  0.5080 -1.7727  0.0261
  931MOL0     C22794  -1.050   8.172   6.527 -0.1778  0.0970 -0.1630
  931MOL0     O22795  -1.170   8.197   6.473  0.1094 -0.1094 -0.0418
  931MOL0     C22796  -1.229   8.106   6.377  0.1348 -0.4193  0.2163
  931MOL0     C22797  -1.340   8.158   6.285  0.1691 -0.0880 -0.0656
  931MOL0     C22798  -1.460   8.209   6.371  0.1149 -0.2336  0.4886
  931MOL0     C22799  -1.581   8.258   6.297  0.2780  0.6671  0.3055
  931MOL0     C22800  -1.715   8.254   6.383 -0.2109  0.1667  0.5546
  931MOL0     C22801  -1.828   8.342   6.330  0.7909  0.4999 -0.2503
  931MOL0     C22802  -1.821   8.489   6.343 -0.9655 -0.4335 -0.4597
  931MOL0     C22803  -1.952   8.567   6.312  0.2841 -0.6596  0.2783
  931MOL0    Cl22804  -1.966   8.569   6.139 -0.0956 -0.0255  0.3769
  931MOL0     C22805  -0.988   8.260   6.611 -0.3900 -0.3907  0.4414
  931MOL0     C22806  -0.861   8.240   6.662 -0.2248 -0.3931 -0.3042
  931MOL0     O22807  -0.557   8.254   6.599 -0.4162 -0.2666  0.5527
  931MOL0     C22808  -0.399   8.059   6.847  0.2557  0.1045 -0.2968
  931MOL0     C22809  -0.272   8.003   6.883  0.2608  0.3359 -0.4165
  931MOL0     N22810   0.468   7.684   6.854 -0.5491 -0.4594 -0.2312
  931MOL0     N22811   0.545   7.604   6.800 -0.0510 -0.5065  0.8115
  931MOL0     C22812   1.326   7.983   6.549  0.1495  0.4887  0.0243
  931MOL0     C22813   1.446   8.065   6.573  0.4257  0.1434  1.0026
  931MOL0     C22814   1.849   8.233   6.542 -0.0095  0.7372  0.8056
  931MOL0     C22815   1.945   8.246   6.645  1.0567  0.5031  0.1270
  931MOL0     C22816   2.073   8.306   6.621  0.6353  0.7066 -0.2556
  931MOL0     C22817   2.116   8.325   6.487 -0.6781  0.2704  0.3032
  931MOL0     O22818   2.242   8.372   6.456 -0.1866  0.0850 -0.0269
  931MOL0     C22819   2.349   8.331   6.551  0.7233  0.0656 -0.2540
  931MOL0     C22820   2.476   8.388   6.488  0.4275 -0.1376 -0.0478
  931MOL0     C22821   2.503   8.346   6.345 -0.3324 -1.0721 -0.0316
  931MOL0     C22822   2.621   8.428   6.287 -0.2438 -0.1647 -0.4767
  931MOL0     C22823   2.747   8.425   6.366  0.4743  1.0103 -0.2873
  931MOL0     C22824   2.862   8.434   6.407 -0.2820  0.4319 -0.2606
  931MOL0     C22825   2.028   8.298   6.377  0.5668 -0.4825  0.0327
  931MOL0     C22826   1.895   8.257   6.411 -0.1923  0.0777 -0.7969
  931MOL0     H22827   1.503   8.148   6.244  0.7713 -1.9848  0.0848
  931MOL0     H22828   1.291   8.012   6.212  2.2469  1.6972 -1.9237
  931MOL0     H22829   1.081   7.815   6.577  0.4923  2.1871 -0.0971
  931MOL0     H22830   1.209   7.721   6.500 -1.5262 -2.5478  2.8307
  931MOL0     H22831   1.082   7.631   6.343  0.1541  2.2936 -0.7927
  931MOL0     H22832   0.941   7.749   6.374 -1.3528 -0.9289  0.8013
  931MOL0     H22833   0.929   7.664   6.612 -1.8232  0.7847 -1.4161
  931MOL0     H22834   1.024   7.519   6.554  0.5215 -0.6624 -0.8611
  931MOL0     H22835   0.750   7.622   6.474  2.4498  3.0963  3.1789
  931MOL0     H22836   0.841   7.486   6.390 -0.1958  1.2558 -0.9512
  931MOL0     H22837   0.767   7.517   6.694  1.5810 -3.9981  2.1788
  931MOL0     H22838   0.836   7.377   6.624 -1.1928 -0.0765  0.0507
  931MOL0     H22839   0.649   7.350   6.465  0.1048  1.7488 -1.5250
  931MOL0     H22840   0.559   7.478   6.558  0.6392  0.2549  2.6402
  931MOL0     H22841   0.483   7.276   6.638 -0.2580  3.1706  0.9817
  931MOL0     H22842   0.643   7.199   6.649  0.9461 -0.1016  3.2811
  931MOL0     H22843   0.679   7.372   6.847 -0.4271  0.0299  1.0826
  931MOL0     H22844   0.533   7.266   6.862  1.2616 -1.3574  0.3475
  931MOL0     H22845   0.339   7.395   6.936  1.7350 -0.4249  0.9999
  931MOL0     H22846   0.292   7.722   7.088  1.4583  1.1335 -0.1586
  931MOL0     H22847   0.195   7.596   7.042 -1.0786  0.1612 -0.1483
  931MOL0     H22848   0.272   7.847   6.891  1.1402  0.2325  1.7628
  931MOL0     H22849   0.126   7.840   6.984 -1.9122 -1.1655 -0.2330
  931MOL0     H22850   0.185   7.717   6.715  0.3770 -1.4641  0.8663
  931MOL0     H22851   0.060   7.661   6.802  2.7964 -0.5127  1.7051
  931MOL0     H22852  -0.015   7.851   6.631  1.0316  3.5320 -1.1186
  931MOL0     H22853   0.101   7.953   6.714 -0.1397  0.0105  0.6213
  931MOL0     H22854  -0.137   8.043   6.570  0.9782  0.1579  1.5039
  931MOL0     H22855  -0.329   8.150   6.528  2.4765  1.1891 -0.2912
  931MOL0     H22856  -0.816   7.924   6.562 -0.4953 -0.1552 -1.6419
  931MOL0     H22857  -1.042   7.971   6.463 -2.2335 -2.6410  3.7211
  931MOL0     H22858  -1.273   8.024   6.434 -2.0966  1.9938  2.2771
  931MOL0     H22859  -1.155   8.067   6.307  1.1839  0.3912  0.8477
  931MOL0     H22860  -1.380   8.072   6.230 -1.4584  0.6061 -0.0257
  931MOL0     H22861  -1.313   8.240   6.217 -4.8572  2.3123  0.4012
  931MOL0     H22862  -1.427   8.299   6.424  3.6448  0.3088 -2.2014
  931MOL0     H22863  -1.486   8.141   6.452  1.5003 -0.0470  1.1256
  931MOL0     H22864  -1.564   8.363   6.269 -1.3067  0.8629 -0.0329
  931MOL0     H22865  -1.579   8.180   6.219  1.0932 -0.4262  1.3897
  931MOL0     H22866  -1.684   8.279   6.485  1.0872  0.9260  0.0062
  931MOL0     H22867  -1.749   8.151   6.376 -3.8103  1.3339 -3.3623
  931MOL0     H22868  -1.926   8.316   6.370  0.7805  1.1102  0.1311
  931MOL0     H22869  -1.835   8.310   6.225 -0.2783 -1.2358  0.3172
  931MOL0     H22870  -1.803   8.516   6.448 -2.7148 -0.6828 -0.0634
  931MOL0     H22871  -1.730   8.512   6.286 -0.0518  0.5121  1.2463
  931MOL0     H22872  -1.949   8.670   6.350  1.0847 -0.2643 -0.8084
  931MOL0     H22873  -2.044   8.520   6.347  0.4372 -1.0805  0.1154
  931MOL0     H22874  -1.047   8.350   6.629 -1.1198 -0.9316  0.7688
  931MOL0     H22875  -0.818   8.309   6.735 -1.5706 -2.0975  2.2464
  931MOL0     H22876  -0.482   8.052   6.916 -0.4761  3.3136 -0.7099
  931MOL0     H22877  -0.259   7.966   6.984  0.1621  0.5658 -0.3186
  931MOL0     H22878   1.264   7.947   6.631 -2.8617 -1.6182 -2.8929
  931MOL0     H22879   1.485   8.084   6.672  1.7340  0.6190  0.4209
  931MOL0     H22880   1.919   8.212   6.745  3.1391 -1.4312  0.0789
  931MOL0     H22881   2.136   8.318   6.708 -1.3301 -1.0373  1.5161
  931MOL0     H22882   2.337   8.222   6.543 -1.0068  0.2885 -1.0567
  931MOL0     H22883   2.330   8.361   6.655 -1.4436  3.3253 -1.4427
  931MOL0     H22884   2.466   8.497   6.498  0.9865 -0.0093 -0.7869
  931MOL0     H22885   2.549   8.358   6.564 -1.4550 -1.0972  1.4809
  931MOL0     H22886   2.413   8.359   6.285  0.0176  0.8036 -0.2169
  931MOL0     H22887   2.522   8.238   6.354  2.5532 -0.5742  0.7289
  931MOL0     H22888   2.642   8.378   6.192  1.4565  0.4880 -0.4769
  931MOL0     H22889   2.595   8.534   6.276  3.8649  0.8761 -2.4208
  931MOL0     H22890   2.960   8.425   6.449 -0.6338  1.7920  0.9407
  931MOL0     H22891   2.053   8.309   6.272 -1.6999  1.1392 -0.4204
  931MOL0     H22892   1.830   8.240   6.326 -1.8676  2.3574 -0.0677
  932MOL0     O22893   5.003  10.241   2.335  0.2290  0.5536 -0.0015
  932MOL0     C22894   5.033  10.320   2.253 -0.2338 -0.1327  0.0999
  932MOL0     O22895   4.946  10.382   2.175  0.9342  0.1802 -0.4407
  932MOL0     C22896   4.805  10.370   2.188  0.0384  0.7144 -0.2798
  932MOL0     C22897   4.734  10.364   2.063  0.5442 -0.3763  0.0109
  932MOL0     C22898   4.594  10.375   2.056  0.9148 -0.1234  0.5771
  932MOL0     C22899   4.510  10.387   2.164 -0.1135  0.2211  0.2171
  932MOL0     O22900   4.376  10.398   2.172  0.7116 -0.3942 -0.2080
  932MOL0     C22901   4.301  10.415   2.048  0.8546 -0.5459  0.4713
  932MOL0     C22902   4.152  10.450   2.068 -0.2552 -0.4189  0.3986
  932MOL0     C22903   4.085  10.378   2.183 -0.0266  0.2860  0.0929
  932MOL0     C22904   3.941  10.436   2.200 -0.9104  0.4380 -0.2874
  932MOL0     C22905   3.878  10.397   2.330 -0.0238  0.1088 -0.2438
  932MOL0     C22906   3.738  10.436   2.339  0.7843 -0.3297 -0.2561
  932MOL0     C22907   3.694  10.416   2.482 -0.1147 -0.4100 -0.3738
  932MOL0     C22908   3.559  10.488   2.499  0.2371  0.3970 -0.5964
  932MOL0     N22909   3.458  10.442   2.405 -0.1721 -0.1883 -0.1055
  932MOL0     C22910   3.428  10.315   2.379 -0.5423  0.0778 -0.0963
  932MOL0     C22911   3.318  10.309   2.301  0.3426 -0.1453  0.2886
  932MOL0     C22912   3.259  10.181   2.244  0.7577  0.1458  0.7092
  932MOL0     C22913   3.178  10.112   2.360  0.6756  0.0410  0.8133
  932MOL0     C22914   3.125   9.970   2.330 -0.5556 -0.5369  0.3358
  932MOL0     C22915   3.053   9.952   2.194 -0.4179 -0.1435  0.1109
  932MOL0     O22916   2.932  10.031   2.190 -0.0159 -0.1253 -0.4825
  932MOL0     C22917   2.812   9.971   2.230  0.4793  0.1545  0.7389
  932MOL0     C22918   2.802   9.835   2.259  0.6263  0.1310  0.5032
  932MOL0     C22919   2.682   9.769   2.276 -0.0480  0.2629 -0.4747
  932MOL0     C22920   2.556   9.840   2.280 -1.0793 -0.9721  1.1230
  932MOL0     C22921   2.428   9.767   2.306 -0.5182 -0.5065  0.1663
  932MOL0     O22922   2.320   9.808   2.233 -0.3625 -0.0213  0.3889
  932MOL0     C22923   2.191   9.756   2.240  0.1398 -0.1662  0.5296
  932MOL0     C22924   2.088   9.835   2.200  0.2130 -0.7823 -0.5969
  932MOL0     C22925   1.955   9.781   2.194  0.5427  0.2406  0.1911
  932MOL0     C22926   1.933   9.652   2.232  0.1801  0.4692  0.0593
  932MOL0     O22927   1.803   9.607   2.207  0.9635 -0.4991 -1.1110
  932MOL0     C22928   1.764   9.490   2.278  0.0233  0.0832  0.8134
  932MOL0     C22929   1.614   9.477   2.288 -0.3247 -0.8997  0.1288
  932MOL0     C22930   1.578   9.329   2.325  0.1291 -0.1574  0.1555
  932MOL0     C22931   1.429   9.322   2.319 -1.2459 -0.2934  0.5152
  932MOL0     C22932   1.376   9.182   2.366 -0.3499  0.7063 -0.2961
  932MOL0     C22933   1.229   9.178   2.379  0.3912 -0.2835  0.6120
  932MOL0     C22934   1.173   9.064   2.464  0.0611 -0.1827 -0.3476
  932MOL0     C22935   1.027   9.052   2.468  0.1055 -0.4617 -0.0061
  932MOL0    Cl22936   0.963   9.006   2.318  0.1094  0.1350 -0.3665
  932MOL0     C22937   2.033   9.564   2.270 -0.0010 -0.0385  1.2934
  932MOL0     C22938   2.163   9.620   2.270  0.1807  0.4880  1.0343
  932MOL0     O22939   2.432   9.682   2.400  0.0775 -0.1950 -0.5684
  932MOL0     C22940   2.566   9.979   2.264  0.5989 -0.8079  0.4286
  932MOL0     C22941   2.691  10.035   2.234 -0.6950  0.0416  0.2262
  932MOL0     N22942   3.280  10.439   2.278 -0.2445 -0.7329  0.3807
  932MOL0     N22943   3.370  10.518   2.337  0.2595 -0.0694  0.3856
  932MOL0     C22944   4.577  10.381   2.290 -0.4955 -0.2177 -1.2737
  932MOL0     C22945   4.721  10.378   2.306 -0.8520  0.5113 -0.9952
  932MOL0     C22946   5.172  10.348   2.222  0.3849  0.1694 -0.5372
  932MOL0     C22947   5.269  10.332   2.312 -0.8846  0.8580 -0.8596
  932MOL0     C22948   5.406  10.345   2.280  0.5183  0.4291 -0.2056
  932MOL0     C22949   5.442  10.381   2.146  0.3219  0.0626  0.6351
  932MOL0     O22950   5.574  10.399   2.103  0.0658 -0.6474 -0.2953
  932MOL0     C22951   5.675  10.337   2.177  0.6264  0.7115  0.3046
  932MOL0     C22952   5.815  10.365   2.125  0.0165  0.5827 -0.1158
  932MOL0     C22953   5.843  10.513   2.113 -0.4394 -0.4999  0.2572
  932MOL0     C22954   5.994  10.546   2.086 -0.1522  0.0464  0.1419
  932MOL0     C22955   6.037  10.512   1.949  0.0648  0.5615 -0.8043
  932MOL0     C22956   6.074  10.458   1.844  0.2695 -0.8546 -0.4584
  932MOL0     C22957   5.333  10.413   2.058 -0.1513 -0.2805 -0.4421
  932MOL0     C22958   5.203  10.395   2.098  0.2563  0.7491  0.6174
  932MOL0     H22959   4.799  10.348   1.978  2.0187  2.8897  0.3786
  932MOL0     H22960   4.548  10.372   1.958 -1.4119 -1.8788  1.6241
  932MOL0     H22961   4.309  10.330   1.979  0.2421  1.0478 -1.6424
  932MOL0     H22962   4.337  10.509   2.007  1.8566 -0.4901  1.4237
  932MOL0     H22963   4.095  10.424   1.979  0.7663 -3.1333  0.4655
  932MOL0     H22964   4.156  10.558   2.087  0.2315 -0.3184 -0.2683
  932MOL0     H22965   4.145  10.400   2.272  2.1875  0.9054 -1.4544
  932MOL0     H22966   4.091  10.271   2.162 -1.2680 -0.2583  2.2048
  932MOL0     H22967   3.935  10.544   2.184 -0.9905  0.2498 -1.6990
  932MOL0     H22968   3.886  10.384   2.121  1.3033  1.1855 -2.4244
  932MOL0     H22969   3.926  10.454   2.410  0.4866 -0.6951  0.0467
  932MOL0     H22970   3.889  10.290   2.354  1.3890 -0.3509 -2.5604
  932MOL0     H22971   3.673  10.387   2.266 -3.3573  1.1460  2.1087
  932MOL0     H22972   3.721  10.542   2.318  3.1328 -0.1915 -1.8547
  932MOL0     H22973   3.665  10.312   2.504 -2.3190  0.2635  0.1322
  932MOL0     H22974   3.765  10.451   2.557  1.7306 -4.5969  0.1513
  932MOL0     H22975   3.574  10.595   2.484 -0.7197  0.1744 -4.0798
  932MOL0     H22976   3.530  10.469   2.603  1.6718 -1.9136 -0.5431
  932MOL0     H22977   3.484  10.238   2.431  0.0246  0.9327  0.6060
  932MOL0     H22978   3.330  10.101   2.218 -0.8786 -1.2022  0.2480
  932MOL0     H22979   3.200  10.210   2.157  1.4246  1.3148  0.6230
  932MOL0     H22980   3.094  10.180   2.379  2.3788  2.4537  0.0798
  932MOL0     H22981   3.237  10.103   2.452 -1.2390 -0.9468  2.0163
  932MOL0     H22982   3.219   9.914   2.334  1.2919  2.0814 -1.9557
  932MOL0     H22983   3.050   9.937   2.402 -1.8163  3.5946  1.1972
  932MOL0     H22984   3.042   9.844   2.182  0.7696 -0.3817  0.9518
  932MOL0     H22985   3.123   9.981   2.116 -0.4816 -2.0846 -0.6947
  932MOL0     H22986   2.884   9.764   2.266 -1.4312 -2.2798  1.8283
  932MOL0     H22987   2.693   9.665   2.304 -1.5756  0.6141  1.7234
  932MOL0     H22988   2.112   9.938   2.174  3.2449 -0.9301  1.1685
  932MOL0     H22989   1.872   9.842   2.161 -1.7637 -2.8407 -0.2069
  932MOL0     H22990   1.806   9.477   2.378  1.3723 -0.8933  0.1416
  932MOL0     H22991   1.799   9.409   2.214  1.2299  0.5429  0.8631
  932MOL0     H22992   1.573   9.499   2.189  2.3090 -0.0317 -0.8432
  932MOL0     H22993   1.571   9.549   2.359  0.7118  3.0913 -2.9173
  932MOL0     H22994   1.612   9.316   2.428 -2.8218  0.9597  1.3940
  932MOL0     H22995   1.610   9.258   2.248 -1.1582  0.9781 -1.5170
  932MOL0     H22996   1.388   9.401   2.383 -1.4506  0.2702 -0.2865
  932MOL0     H22997   1.412   9.347   2.214 -1.4799 -0.3995  0.5286
  932MOL0     H22998   1.418   9.162   2.466 -3.5119 -1.4747  0.7583
  932MOL0     H22999   1.411   9.103   2.298 -2.3868 -0.9992  0.5148
  932MOL0     H23000   1.202   9.162   2.274  4.1021 -0.4076 -0.4545
  932MOL0     H23001   1.187   9.275   2.409  0.7596 -0.2251  0.9486
  932MOL0     H23002   1.206   8.967   2.424 -0.7012 -0.3184 -0.6595
  932MOL0     H23003   1.211   9.073   2.566 -0.9697 -0.8505  0.1120
  932MOL0     H23004   0.989   9.149   2.502  1.2902 -0.3023  0.9498
  932MOL0     H23005   0.995   8.984   2.547 -1.5125  1.6593  1.2642
  932MOL0     H23006   2.030   9.458   2.291  0.5554 -0.4007 -0.3395
  932MOL0     H23007   2.240   9.548   2.298 -0.0842 -0.1269  0.2290
  932MOL0     H23008   2.478  10.041   2.269  1.1388  0.1094 -0.9455
  932MOL0     H23009   2.690  10.141   2.208 -1.1941 -0.5464 -2.4624
  932MOL0     H23010   4.514  10.397   2.377 -0.3502  2.5754 -1.5685
  932MOL0     H23011   4.765  10.388   2.404 -1.4500 -1.1572 -0.5278
  932MOL0     H23012   5.253  10.297   2.414  1.7675  1.2668 -0.2418
  932MOL0     H23013   5.472  10.333   2.365 -2.1806 -2.4157  1.7296
  932MOL0     H23014   5.662  10.228   2.178  0.4441  0.7249 -0.2821
  932MOL0     H23015   5.677  10.365   2.282  1.4131 -0.2482  0.5563
  932MOL0     H23016   5.885  10.315   2.192  0.1540 -0.0061 -0.6992
  932MOL0     H23017   5.832  10.321   2.027  2.0618 -2.0938  1.3136
  932MOL0     H23018   5.806  10.571   2.198 -0.3762  1.2740 -0.8817
  932MOL0     H23019   5.786  10.547   2.027 -2.1620  1.9225  2.2099
  932MOL0     H23020   6.024  10.644   2.123 -0.7139 -0.2711  1.4745
  932MOL0     H23021   6.056  10.476   2.143 -0.1574  0.1334  0.2559
  932MOL0     H23022   6.105  10.397   1.761 -3.8435 -2.4388 -1.0372
  932MOL0     H23023   5.350  10.469   1.966  2.0083  1.4115  0.8912
  932MOL0     H23024   5.124  10.422   2.029 -0.7450  0.4546  1.6281
  933MOL0     O23025   1.002  10.925   6.767 -0.0808  0.6646  0.0162
  933MOL0     C23026   1.058  10.827   6.707 -0.2647 -0.2688 -0.3048
  933MOL0     O23027   0.996  10.708   6.670 -0.2615  0.4302  0.3094
  933MOL0     C23028   0.872  10.663   6.702 -0.2476  0.2018  0.6774
  933MOL0     C23029   0.819  10.565   6.620  0.2217  0.6076 -0.0285
  933MOL0     C23030   0.696  10.516   6.639 -0.1385  0.2174 -1.2497
  933MOL0     C23031   0.615  10.561   6.735  0.2944  0.4547 -0.9122
  933MOL0     O23032   0.492  10.501   6.735 -0.4296  0.7780 -0.4853
  933MOL0     C23033   0.398  10.531   6.840 -0.0767 -0.2183 -0.0343
  933MOL0     C23034   0.261  10.490   6.800  0.7552  0.3411 -0.0208
  933MOL0     C23035   0.151  10.565   6.886 -0.0354 -0.2500  0.3034
  933MOL0     C23036   0.016  10.528   6.824  1.2632 -0.1906 -0.2276
  933MOL0     C23037  -0.094  10.596   6.918 -0.2238 -0.8133 -1.0243
  933MOL0     C23038  -0.234  10.592   6.865 -1.0406 -0.2582 -0.2582
  933MOL0     C23039  -0.245  10.664   6.722 -0.3000  0.4858 -0.6468
  933MOL0     C23040  -0.389  10.702   6.692 -0.1733 -0.0754  0.3984
  933MOL0     N23041  -0.394  10.738   6.548  0.4556  0.1568 -0.3763
  933MOL0     C23042  -0.365  10.649   6.450  0.2027 -0.1649  0.7436
  933MOL0     C23043  -0.374  10.716   6.334 -0.0185  0.3095  0.1961
  933MOL0     C23044  -0.336  10.654   6.207 -1.3061  1.1323 -0.1693
  933MOL0     C23045  -0.189  10.661   6.178 -0.2744 -1.5303  0.2907
  933MOL0     C23046  -0.153  10.579   6.055 -0.4341  0.2780 -0.1858
  933MOL0     C23047  -0.005  10.543   6.051 -0.3906 -0.0789 -0.7132
  933MOL0     O23048   0.063  10.677   6.040 -0.1405  0.1685  0.0029
  933MOL0     C23049   0.197  10.671   6.014 -0.0565 -0.0572  0.0792
  933MOL0     C23050   0.230  10.758   5.913 -0.1583 -0.1302  1.6438
  933MOL0     C23051   0.363  10.739   5.867  0.3071 -0.5894  0.2800
  933MOL0     C23052   0.457  10.639   5.907 -0.0612 -0.4479  0.2912
  933MOL0     C23053   0.602  10.655   5.887 -0.1006  0.5817 -0.5727
  933MOL0     O23054   0.640  10.764   5.827 -0.4753 -0.4829  0.8239
  933MOL0     C23055   0.769  10.768   5.794  0.7151 -0.1012  0.8597
  933MOL0     C23056   0.796  10.754   5.659 -0.1020 -0.4432 -0.0811
  933MOL0     C23057   0.930  10.759   5.617  0.5155 -0.4326 -0.2026
  933MOL0     C23058   1.031  10.786   5.707 -0.7105 -0.4445 -0.4279
  933MOL0     O23059   1.165  10.782   5.661 -1.0223 -0.3951  0.1533
  933MOL0     C23060   1.195  10.871   5.556 -0.1256 -0.1011  0.2097
  933MOL0     C23061   1.342  10.912   5.556  0.0032 -0.5724 -0.4217
  933MOL0     C23062   1.368  11.040   5.476  0.5470  0.0138 -0.1264
  933MOL0     C23063   1.521  11.047   5.460  0.2772  0.4747  0.0488
  933MOL0     C23064   1.575  11.190   5.439 -0.4674  0.2127  0.0613
  933MOL0     C23065   1.725  11.214   5.444 -0.5416 -0.2490  0.0548
  933MOL0     C23066   1.785  11.159   5.316 -0.0412 -0.2738 -0.2364
  933MOL0     C23067   1.930  11.159   5.313 -0.3962 -0.0468  1.8198
  933MOL0    Cl23068   2.013  11.313   5.325 -0.3858 -0.5834 -0.2773
  933MOL0     C23069   0.997  10.805   5.847 -0.3852 -1.2079  0.5134
  933MOL0     C23070   0.862  10.802   5.886  0.3038  0.8499  0.5821
  933MOL0     O23071   0.679  10.556   5.895  0.0304  0.1846 -0.2474
  933MOL0     C23072   0.413  10.550   6.004  0.8090 -0.2372 -0.2560
  933MOL0     C23073   0.284  10.571   6.058 -0.4642  0.9686 -0.1340
  933MOL0     N23074  -0.423  10.844   6.360 -0.6984 -0.1628  0.0089
  933MOL0     N23075  -0.439  10.850   6.491  0.2506 -0.4217 -0.4362
  933MOL0     C23076   0.662  10.649   6.824 -0.9524  0.0393 -0.5482
  933MOL0     C23077   0.794  10.708   6.807  0.8270 -0.3896  0.8056
  933MOL0     C23078   1.201  10.846   6.684 -0.2384 -0.1100  0.2364
  933MOL0     C23079   1.271  10.742   6.621  0.7267 -0.1386  0.6830
  933MOL0     C23080   1.402  10.757   6.579  0.2601 -0.1650 -0.3805
  933MOL0     C23081   1.484  10.872   6.612  0.4375  0.3415  0.9022
  933MOL0     O23082   1.617  10.899   6.575 -0.3513  0.2028  0.1280
  933MOL0     C23083   1.675  10.803   6.480 -0.1007 -0.3000 -0.6220
  933MOL0     C23084   1.817  10.826   6.445 -0.7964  0.0606  0.4725
  933MOL0     C23085   1.840  10.957   6.365 -0.1603  0.0136  0.9954
  933MOL0     C23086   1.991  10.983   6.335  0.3200 -0.5738  0.5000
  933MOL0     C23087   2.060  11.046   6.445  0.8370 -0.3844 -0.4983
  933MOL0     C23088   2.116  11.105   6.542  0.5639 -0.5460  0.2408
  933MOL0     C23089   1.419  10.975   6.675  0.5317  0.1644  0.1843
  933MOL0     C23090   1.282  10.962   6.705  0.0210 -0.0073 -0.2902
  933MOL0     H23091   0.887  10.528   6.544 -1.2660 -1.4947 -0.4179
  933MOL0     H23092   0.664  10.440   6.568  1.2549  0.4758 -2.2079
  933MOL0     H23093   0.396  10.639   6.851 -1.1057 -0.2601  0.2562
  933MOL0     H23094   0.425  10.479   6.933 -1.6198 -1.9432 -0.4967
  933MOL0     H23095   0.254  10.386   6.834  1.2564  1.8022  5.5190
  933MOL0     H23096   0.241  10.498   6.693  1.0107  0.1346 -0.0849
  933MOL0     H23097   0.181  10.671   6.891  1.1446 -0.5302 -0.4711
  933MOL0     H23098   0.149  10.539   6.992 -3.8083 -0.1141  0.4298
  933MOL0     H23099   0.006  10.558   6.720 -2.4118 -1.6609 -0.4559
  933MOL0     H23100   0.004  10.419   6.832 -3.4590  0.0730 -1.0898
  933MOL0     H23101  -0.064  10.696   6.949 -0.9821 -0.9178  0.0964
  933MOL0     H23102  -0.096  10.535   7.009  2.1677 -0.1399 -0.4581
  933MOL0     H23103  -0.305  10.632   6.938 -2.5795 -0.6025 -1.5204
  933MOL0     H23104  -0.246  10.485   6.849  0.4338 -0.5088  0.0889
  933MOL0     H23105  -0.181  10.753   6.730  0.8280 -0.4429  2.0747
  933MOL0     H23106  -0.206  10.600   6.642  1.1959  2.4392 -1.5657
  933MOL0     H23107  -0.424  10.791   6.745  1.8508  0.2798  1.2374
  933MOL0     H23108  -0.451  10.613   6.707  0.7036 -0.5753  1.2291
  933MOL0     H23109  -0.340  10.545   6.466 -1.6499 -0.4523  2.1018
  933MOL0     H23110  -0.392  10.702   6.126  2.6331  2.6837 -2.2178
  933MOL0     H23111  -0.369  10.549   6.206 -0.3214  0.5858  4.2011
  933MOL0     H23112  -0.122  10.614   6.251  1.3610 -1.7658 -1.3119
  933MOL0     H23113  -0.156  10.764   6.161  0.1072 -1.4966  1.1405
  933MOL0     H23114  -0.207  10.485   6.064  0.7473 -0.2510  2.2820
  933MOL0     H23115  -0.187  10.632   5.966 -4.8475 -4.7219 -2.0072
  933MOL0     H23116   0.018  10.486   5.961 -0.7512 -0.0400 -0.8320
  933MOL0     H23117   0.034  10.496   6.142 -2.8787 -0.1431  0.4144
  933MOL0     H23118   0.174  10.844   5.877 -1.0029 -0.6214  1.7590
  933MOL0     H23119   0.405  10.804   5.791  1.9464 -1.2526  0.5679
  933MOL0     H23120   0.724  10.723   5.584  0.2269  1.5844 -1.3460
  933MOL0     H23121   0.960  10.754   5.513  2.3185  1.8349  0.1359
  933MOL0     H23122   1.134  10.960   5.566  1.7418  1.3628 -0.7864
  933MOL0     H23123   1.168  10.818   5.464  0.8101  2.4620 -1.6413
  933MOL0     H23124   1.400  10.831   5.514  0.5050  0.2479 -1.3453
  933MOL0     H23125   1.376  10.941   5.656 -1.2754  0.8349 -0.3499
  933MOL0     H23126   1.321  11.128   5.523 -1.1562  0.0452 -1.7844
  933MOL0     H23127   1.326  11.041   5.375  0.7469  1.9306 -0.2211
  933MOL0     H23128   1.560  11.018   5.558 -0.5864  2.3373  0.9966
  933MOL0     H23129   1.552  10.978   5.381 -0.8394  1.6434 -1.4884
  933MOL0     H23130   1.526  11.257   5.509 -2.4091 -2.0857  1.0167
  933MOL0     H23131   1.547  11.224   5.338 -0.6987  0.9055  0.3540
  933MOL0     H23132   1.753  11.165   5.537 -3.4712 -0.0341  1.1821
  933MOL0     H23133   1.745  11.322   5.452 -2.2479  0.0802  0.4619
  933MOL0     H23134   1.753  11.054   5.310  0.5743 -0.3976 -1.5795
  933MOL0     H23135   1.744  11.203   5.225 -3.9432 -1.8477  0.5559
  933MOL0     H23136   1.960  11.107   5.221  0.5653 -0.4881  2.3614
  933MOL0     H23137   1.969  11.093   5.391 -1.0202 -2.6957  0.0427
  933MOL0     H23138   1.071  10.833   5.922 -0.1421  2.5065 -0.9162
  933MOL0     H23139   0.825  10.805   5.988 -3.0991  0.8794 -0.5298
  933MOL0     H23140   0.469  10.462   6.035  0.4309 -0.8236 -1.2115
  933MOL0     H23141   0.248  10.498   6.129  1.1532  2.0736  1.9529
  933MOL0     H23142   0.607  10.675   6.913  0.4192 -0.4203  0.4674
  933MOL0     H23143   0.842  10.786   6.866  0.4177  0.3283  0.2176
  933MOL0     H23144   1.226  10.643   6.611 -0.6168  0.3273  1.7446
  933MOL0     H23145   1.447  10.677   6.521 -2.6180 -1.0682 -1.5465
  933MOL0     H23146   1.610  10.820   6.394 -0.2081  0.2466 -0.4363
  933MOL0     H23147   1.666  10.706   6.529 -0.0902  1.1326  2.4293
  933MOL0     H23148   1.879  10.828   6.536 -0.0031  3.2177 -0.0207
  933MOL0     H23149   1.858  10.747   6.382 -0.7257  1.4905 -1.3504
  933MOL0     H23150   1.796  11.043   6.416 -1.9971 -0.9589  1.1267
  933MOL0     H23151   1.788  10.949   6.269  2.3732  1.8447 -0.6607
  933MOL0     H23152   2.036  10.893   6.292  1.9808  0.5128 -0.1386
  933MOL0     H23153   1.980  11.062   6.261 -0.3052  0.0986  1.2856
  933MOL0     H23154   2.158  11.152   6.629  0.0558 -1.6088  1.0771
  933MOL0     H23155   1.455  11.074   6.703  0.7005  0.5387 -1.2686
  933MOL0     H23156   1.238  11.052   6.747 -1.1573  0.0166 -1.5094
  934MOL0     O23157   7.710   3.902   8.486  0.6526  0.6574 -0.0814
  934MOL0     C23158   7.713   3.777   8.499 -0.5634  0.2937  0.1722
  934MOL0     O23159   7.607   3.703   8.538 -0.5061 -0.0946  0.6095
  934MOL0     C23160   7.478   3.747   8.552  0.2161  0.8093  0.3388
  934MOL0     C23161   7.447   3.881   8.572 -1.0379 -0.2885 -0.2287
  934MOL0     C23162   7.314   3.924   8.575 -0.5581 -0.4890 -0.0759
  934MOL0     C23163   7.211   3.829   8.563 -0.0604 -0.7196 -0.8117
  934MOL0     O23164   7.079   3.857   8.575  0.6989 -0.1111 -1.0272
  934MOL0     C23165   7.030   3.968   8.500  0.0033  0.7007  0.1768
  934MOL0     C23166   6.874   3.974   8.513 -0.0876 -0.7447  0.1046
  934MOL0     C23167   6.836   4.129   8.488  0.6461  0.2937  0.4085
  934MOL0     C23168   6.697   4.153   8.526  0.2699 -0.4635  0.4536
  934MOL0     C23169   6.660   4.311   8.526 -0.1256  0.8359 -0.3253
  934MOL0     C23170   6.634   4.361   8.384 -0.1363  0.1749 -0.0105
  934MOL0     C23171   6.661   4.509   8.349 -0.3858  0.5629 -0.3284
  934MOL0     C23172   6.565   4.574   8.255  0.1133  0.3350  1.4083
  934MOL0     N23173   6.569   4.505   8.124 -0.7070  0.1974 -0.2520
  934MOL0     C23174   6.652   4.522   8.018 -0.7263 -0.5219  0.7635
  934MOL0     C23175   6.633   4.416   7.946 -0.3735  0.5193  0.5585
  934MOL0     C23176   6.695   4.385   7.807 -0.7185 -0.1415  0.2206
  934MOL0     C23177   6.575   4.331   7.717 -0.6224  0.8494  0.3701
  934MOL0     C23178   6.491   4.449   7.676 -1.1395  0.1543 -0.5716
  934MOL0     C23179   6.352   4.395   7.637 -0.1344  0.7228 -1.2464
  934MOL0     O23180   6.348   4.296   7.535 -0.1219 -0.0660 -0.2026
  934MOL0     C23181   6.230   4.247   7.489 -0.0471  0.0641  0.7838
  934MOL0     C23182   6.239   4.140   7.397  0.1797  0.1083  0.8448
  934MOL0     C23183   6.119   4.109   7.322  0.4915 -0.0620 -0.0733
  934MOL0     C23184   6.000   4.185   7.346 -0.1385  0.1623 -1.0679
  934MOL0     C23185   5.870   4.163   7.277 -0.5576  0.1226  0.4774
  934MOL0     O23186   5.760   4.220   7.340 -0.7193 -0.2706  0.2545
  934MOL0     C23187   5.647   4.217   7.268 -1.0715  0.2504 -0.1649
  934MOL0     C23188   5.555   4.133   7.314 -0.1799 -0.4756 -0.1682
  934MOL0     C23189   5.428   4.132   7.261  0.2094 -0.4405  0.6571
  934MOL0     C23190   5.395   4.214   7.144  0.0778 -0.2001 -0.5449
  934MOL0     O23191   5.283   4.204   7.068 -0.3098  0.3768 -0.8692
  934MOL0     C23192   5.270   4.271   6.943 -0.1779  0.6996 -0.2094
  934MOL0     C23193   5.142   4.220   6.878  0.3110  0.5891 -0.0157
  934MOL0     C23194   5.002   4.262   6.932 -0.3372 -0.0800  0.0630
  934MOL0     C23195   4.985   4.411   6.946 -0.7070 -0.2797 -0.2577
  934MOL0     C23196   4.840   4.438   7.000  0.2523  0.3863  0.8818
  934MOL0     C23197   4.724   4.414   6.909  0.6556  0.1705 -0.2156
  934MOL0     C23198   4.599   4.461   6.978  0.5130 -1.2144 -0.0591
  934MOL0     C23199   4.465   4.453   6.899  0.5554  0.5425  0.3357
  934MOL0    Cl23200   4.310   4.453   7.003 -0.2459  0.3500 -0.3757
  934MOL0     C23201   5.505   4.283   7.093 -0.0515  0.0617 -0.5630
  934MOL0     C23202   5.622   4.297   7.161  0.7351 -0.2142  1.2021
  934MOL0     O23203   5.875   4.106   7.166 -0.2807  0.5045 -0.3061
  934MOL0     C23204   5.997   4.275   7.454 -0.4550 -0.9317 -0.0531
  934MOL0     C23205   6.107   4.304   7.527 -0.4158 -0.0192 -0.0436
  934MOL0     N23206   6.543   4.330   8.002 -0.5686 -1.0924  0.7066
  934MOL0     N23207   6.509   4.385   8.105 -0.1662  0.3562  0.5709
  934MOL0     C23208   7.249   3.696   8.550 -0.4317  1.4363  0.3454
  934MOL0     C23209   7.376   3.653   8.535 -0.2161  0.3088 -0.3040
  934MOL0     C23210   7.833   3.709   8.453  0.0960  0.6303 -0.0964
  934MOL0     C23211   7.837   3.577   8.479 -0.8152 -0.0756  0.0590
  934MOL0     C23212   7.947   3.497   8.448  0.1623  0.7740  0.0226
  934MOL0     C23213   8.051   3.549   8.363 -0.9632 -0.6921 -0.4646
  934MOL0     O23214   8.163   3.480   8.337 -0.7759  0.2815  0.4010
  934MOL0     C23215   8.174   3.339   8.347  0.2035  0.4386  0.1527
  934MOL0     C23216   8.318   3.298   8.356 -0.1525  0.2685  0.2760
  934MOL0     C23217   8.396   3.358   8.470  0.1760  0.0488 -0.6521
  934MOL0     C23218   8.463   3.259   8.561  0.2508  0.5244  0.1302
  934MOL0     C23219   8.591   3.210   8.523 -0.1872 -0.4916 -0.6202
  934MOL0     C23220   8.704   3.174   8.508  0.7557 -0.0766 -0.0381
  934MOL0     C23221   8.043   3.686   8.323 -0.4392  0.1908 -0.4930
  934MOL0     C23222   7.938   3.762   8.372  0.1175 -0.3378 -0.9336
  934MOL0     H23223   7.525   3.957   8.570  2.4075 -3.5084 -0.5183
  934MOL0     H23224   7.288   4.029   8.575 -1.7920 -0.7681  0.5061
  934MOL0     H23225   7.058   3.957   8.395  2.6302  0.5131  0.8301
  934MOL0     H23226   7.074   4.054   8.553  1.3874 -0.6830  1.3655
  934MOL0     H23227   6.834   3.940   8.609  0.3616  0.4777  0.7470
  934MOL0     H23228   6.826   3.923   8.429  1.6599  0.1724 -1.5387
  934MOL0     H23229   6.848   4.153   8.382 -0.3398  0.6846  0.3727
  934MOL0     H23230   6.889   4.197   8.555 -0.1013 -0.1357  1.4607
  934MOL0     H23231   6.622   4.101   8.466 -1.2471  3.5838 -1.4769
  934MOL0     H23232   6.688   4.127   8.632 -3.1881  0.9785  0.6382
  934MOL0     H23233   6.744   4.366   8.570  0.9644 -0.9746 -0.0697
  934MOL0     H23234   6.579   4.338   8.594 -0.4075  0.8036 -0.6449
  934MOL0     H23235   6.535   4.329   8.352  0.1297 -0.7235  0.0419
  934MOL0     H23236   6.706   4.301   8.327 -1.1809 -1.5518  0.4083
  934MOL0     H23237   6.663   4.559   8.446 -0.4878  1.5276 -0.8098
  934MOL0     H23238   6.764   4.523   8.316  0.1429  4.5155  2.3546
  934MOL0     H23239   6.580   4.682   8.247 -0.1694  0.2438 -1.9058
  934MOL0     H23240   6.463   4.558   8.291  0.8362 -5.5808  1.8344
  934MOL0     H23241   6.715   4.606   7.990 -0.1246 -0.9149  0.9334
  934MOL0     H23242   6.772   4.308   7.811  0.5075  1.0808  2.0452
  934MOL0     H23243   6.744   4.474   7.766 -2.3247  1.9800  2.5818
  934MOL0     H23244   6.519   4.257   7.774  0.2612 -0.5753 -0.5376
  934MOL0     H23245   6.621   4.277   7.633  0.5565 -2.4897  2.9691
  934MOL0     H23246   6.489   4.519   7.760 -0.0779 -1.4079  0.8453
  934MOL0     H23247   6.529   4.496   7.585 -2.0241  0.8821 -0.5739
  934MOL0     H23248   6.289   4.483   7.622  1.4316  2.1211 -0.0607
  934MOL0     H23249   6.318   4.363   7.736 -0.0506  3.4965 -0.2330
  934MOL0     H23250   6.327   4.082   7.373  0.0959 -0.8547  2.6644
  934MOL0     H23251   6.118   4.037   7.241 -0.9821  0.2633 -0.3627
  934MOL0     H23252   5.581   4.089   7.410  0.8739  3.0202  1.3339
  934MOL0     H23253   5.351   4.070   7.306  0.9021 -2.4877 -0.8206
  934MOL0     H23254   5.354   4.242   6.878 -0.0634 -1.2834  0.7487
  934MOL0     H23255   5.270   4.380   6.950  0.0324  0.6291  0.9759
  934MOL0     H23256   5.150   4.111   6.878 -1.1566  0.4426 -0.7411
  934MOL0     H23257   5.143   4.253   6.773  1.2249 -1.2200 -0.6060
  934MOL0     H23258   4.998   4.221   7.034  2.1085 -0.7836 -0.0609
  934MOL0     H23259   4.928   4.217   6.866  1.3121  2.1173 -3.6030
  934MOL0     H23260   5.054   4.473   7.004 -0.5766  0.8243 -1.5415
  934MOL0     H23261   4.981   4.451   6.844  0.4150 -2.4494 -1.2316
  934MOL0     H23262   4.828   4.544   7.027  1.4736  1.4578 -2.2768
  934MOL0     H23263   4.823   4.380   7.091 -4.0573  2.3272  1.5836
  934MOL0     H23264   4.724   4.310   6.878  1.3819 -0.3941  1.5712
  934MOL0     H23265   4.746   4.473   6.820 -1.6330  1.1132 -0.2261
  934MOL0     H23266   4.576   4.419   7.076  0.0859  0.9145  0.8044
  934MOL0     H23267   4.619   4.567   6.998 -0.0905 -0.6980 -2.0120
  934MOL0     H23268   4.466   4.357   6.848  0.6832  1.9143 -2.3981
  934MOL0     H23269   4.469   4.536   6.828 -1.2732  1.0497  0.7636
  934MOL0     H23270   5.494   4.349   7.008  3.4151  1.8470  0.1941
  934MOL0     H23271   5.693   4.370   7.123 -1.1506  0.9420 -0.3333
  934MOL0     H23272   5.900   4.318   7.478 -1.4240 -1.7138 -2.2542
  934MOL0     H23273   6.103   4.380   7.605  1.5351  0.2889 -0.1819
  934MOL0     H23274   7.169   3.623   8.549  0.8681 -0.0846 -2.4150
  934MOL0     H23275   7.399   3.547   8.522 -0.1298  0.1890  0.7751
  934MOL0     H23276   7.764   3.521   8.536 -2.1513  1.9822  0.5079
  934MOL0     H23277   7.948   3.394   8.483 -4.2416 -0.5860 -2.9779
  934MOL0     H23278   8.140   3.304   8.249  1.1535  4.0988 -1.6728
  934MOL0     H23279   8.116   3.295   8.428  0.9882  1.9375  1.6005
  934MOL0     H23280   8.318   3.188   8.352  1.9540  0.2550 -0.1277
  934MOL0     H23281   8.370   3.326   8.264  0.8509 -3.2397 -0.3769
  934MOL0     H23282   8.337   3.424   8.534  1.7403 -0.7998  1.8354
  934MOL0     H23283   8.477   3.419   8.428  1.5889 -0.1874  1.5368
  934MOL0     H23284   8.479   3.311   8.656  1.0539  1.5165 -0.5302
  934MOL0     H23285   8.401   3.169   8.566  0.5217  0.1270 -2.3176
  934MOL0     H23286   8.801   3.131   8.489  0.1566 -1.2050 -0.6009
  934MOL0     H23287   8.127   3.726   8.267  2.3211  0.9527  3.7014
  934MOL0     H23288   7.935   3.867   8.347  3.0863 -0.2025 -1.0192
  935MOL0     O23289   2.434   1.942  10.466 -0.6669 -0.4766 -0.1365
  935MOL0     C23290   2.533   2.014  10.433 -0.2898 -0.0597  0.4711
  935MOL0     O23291   2.546   2.146  10.453  1.0012 -0.5526  0.2691
  935MOL0     C23292   2.435   2.224  10.481 -0.7292  0.2455  0.5331
  935MOL0     C23293   2.344   2.195  10.586  0.3352  0.1008 -0.4603
  935MOL0     C23294   2.249   2.295  10.614 -0.9347 -0.5105  0.2739
  935MOL0     C23295   2.253   2.418  10.553  0.1170  0.6865 -0.0929
  935MOL0     O23296   2.161   2.513  10.603  0.2663  0.0639  0.5595
  935MOL0     C23297   2.165   2.646  10.548  0.0132 -0.1361  0.0690
  935MOL0     C23298   2.071   2.748  10.602  0.3500 -0.2664 -0.1992
  935MOL0     C23299   1.929   2.698  10.628 -0.2443  0.1710 -0.1241
  935MOL0     C23300   1.869   2.639  10.505 -0.2365  0.2349 -0.6962
  935MOL0     C23301   1.716   2.618  10.507 -0.6001  0.1767  0.3864
  935MOL0     C23302   1.629   2.748  10.515  0.1619 -0.8028  0.0134
  935MOL0     C23303   1.482   2.728  10.485 -0.3914  0.1740 -0.0276
  935MOL0     C23304   1.430   2.626  10.590 -0.0005 -1.5587  0.2857
  935MOL0     N23305   1.285   2.590  10.569  0.3905 -0.9529 -0.4102
  935MOL0     C23306   1.197   2.690  10.547  0.3295 -0.1416  0.2873
  935MOL0     C23307   1.079   2.625  10.531  0.2406 -0.6311  0.7560
  935MOL0     C23308   0.944   2.684  10.526 -0.2408  0.1959 -0.0128
  935MOL0     C23309   0.853   2.626  10.634  0.2293  0.1167  0.1818
  935MOL0     C23310   0.807   2.475  10.605 -0.7900 -1.0577  0.2450
  935MOL0     C23311   0.678   2.432  10.685  0.0209 -0.1919 -0.3212
  935MOL0     O23312   0.705   2.416  10.827 -0.5614 -0.6469  0.7645
  935MOL0     C23313   0.594   2.424  10.910 -1.5240  0.0817 -0.3985
  935MOL0     C23314   0.614   2.486  11.035  0.2495  0.5188 -0.5208
  935MOL0     C23315   0.501   2.507  11.115  0.2693 -0.5131  0.6448
  935MOL0     C23316   0.374   2.463  11.076 -0.9775  0.2305  0.4274
  935MOL0     C23317   0.268   2.485  11.172  0.5516  0.1737  0.7777
  935MOL0     O23318   0.301   2.551  11.295 -0.0669  0.5471 -0.0612
  935MOL0     C23319   0.195   2.613  11.352 -0.2484  0.3249  0.5997
  935MOL0     C23320   0.086   2.554  11.406 -0.1082 -0.0607  0.9465
  935MOL0     C23321  -0.018   2.637  11.441  0.6698 -0.8764 -0.5591
  935MOL0     C23322  -0.006   2.775  11.446 -0.4860 -0.3384 -0.4629
  935MOL0     O23323  -0.115   2.838  11.487 -0.1602  0.3333 -0.3223
  935MOL0     C23324  -0.167   2.926  11.389  0.0905  0.2210 -0.9855
  935MOL0     C23325  -0.311   2.955  11.426  0.2350  0.0702  0.2748
  935MOL0     C23326  -0.411   2.870  11.347 -0.4333 -0.4456 -1.1939
  935MOL0     C23327  -0.556   2.912  11.389 -0.3979 -0.0255 -0.3598
  935MOL0     C23328  -0.661   2.848  11.290  0.9304  0.1323  0.5411
  935MOL0     C23329  -0.792   2.799  11.364  0.5528 -0.6634 -0.1160
  935MOL0     C23330  -0.875   2.917  11.426  0.0544 -0.5715  0.1832
  935MOL0     C23331  -0.996   2.874  11.504  0.2661 -0.1516  0.1491
  935MOL0    Cl23332  -1.082   3.018  11.577 -0.0354  0.2819  0.1185
  935MOL0     C23333   0.110   2.842  11.401  0.3762  0.7289 -1.3329
  935MOL0     C23334   0.204   2.754  11.339 -0.2796  0.6805  0.1403
  935MOL0     O23335   0.154   2.462  11.127  0.8595  0.2312  0.1673
  935MOL0     C23336   0.356   2.400  10.949  0.9869 -0.0931 -0.5896
  935MOL0     C23337   0.466   2.395  10.873 -0.1077  0.6523  0.4686
  935MOL0     N23338   1.100   2.486  10.535 -0.2901 -0.5923  0.0668
  935MOL0     N23339   1.224   2.468  10.563 -0.8642 -0.3615 -0.1881
  935MOL0     C23340   2.333   2.442  10.444  0.4567  0.1707 -0.5752
  935MOL0     C23341   2.427   2.345  10.417 -0.5396 -0.3585 -0.2806
  935MOL0     C23342   2.657   1.949  10.414  0.7294 -0.1490  0.4802
  935MOL0     C23343   2.766   2.020  10.376 -0.6060 -0.2910 -0.0615
  935MOL0     C23344   2.897   1.963  10.365  0.5575 -0.6005 -0.4776
  935MOL0     C23345   2.920   1.823  10.387  0.2604 -0.8053  0.3633
  935MOL0     O23346   3.035   1.752  10.353  0.2358  0.0652 -0.3381
  935MOL0     C23347   3.165   1.817  10.346  0.3485 -0.2323 -0.3061
  935MOL0     C23348   3.209   1.869  10.482  0.7034  0.8761  0.3931
  935MOL0     C23349   3.318   1.972  10.460  0.4918 -0.6414  0.1089
  935MOL0     C23350   3.254   2.112  10.423 -0.2087  0.0788 -0.2609
  935MOL0     C23351   3.354   2.216  10.420 -0.4747  0.3859 -1.2854
  935MOL0     C23352   3.424   2.323  10.426 -0.2934  0.3400  0.4111
  935MOL0     C23353   2.802   1.740  10.417 -0.1239 -1.0420  0.1390
  935MOL0     C23354   2.677   1.810  10.430 -0.7577  0.1963  0.5330
  935MOL0     H23355   2.343   2.101  10.639 -3.1485 -0.4972 -1.3325
  935MOL0     H23356   2.172   2.274  10.688 -3.7950 -0.5931 -2.5455
  935MOL0     H23357   2.147   2.639  10.441 -0.8876  0.9848  0.1332
  935MOL0     H23358   2.268   2.683  10.548  0.5966 -1.6027 -2.2205
  935MOL0     H23359   2.057   2.819  10.520 -2.0236 -1.1213 -0.6036
  935MOL0     H23360   2.116   2.798  10.689  0.9893 -0.5204 -0.3735
  935MOL0     H23361   1.879   2.789  10.662  2.4202  1.4664  0.6564
  935MOL0     H23362   1.921   2.621  10.705  3.0749 -0.3592 -0.1250
  935MOL0     H23363   1.896   2.709  10.425  0.7591  2.0155  1.1036
  935MOL0     H23364   1.925   2.548  10.483  1.3921  1.2292 -0.8456
  935MOL0     H23365   1.696   2.552  10.591 -0.1923 -0.3325  0.0918
  935MOL0     H23366   1.690   2.567  10.414 -0.2162 -1.7414  1.2927
  935MOL0     H23367   1.671   2.808  10.433 -0.2262 -1.9619 -1.0633
  935MOL0     H23368   1.642   2.799  10.611  0.9476  0.6932 -0.8435
  935MOL0     H23369   1.423   2.819  10.491 -2.2856 -1.0353  0.5064
  935MOL0     H23370   1.480   2.695  10.381  0.0912  1.7581 -0.5664
  935MOL0     H23371   1.437   2.658  10.694 -1.2031  3.4739 -0.9469
  935MOL0     H23372   1.490   2.534  10.587 -0.1073 -1.6057 -0.6882
  935MOL0     H23373   1.212   2.798  10.543 -0.8866 -0.0162 -2.2307
  935MOL0     H23374   0.899   2.655  10.431 -2.5063 -1.4118  1.4522
  935MOL0     H23375   0.939   2.793  10.521 -1.0839  0.1080 -2.3420
  935MOL0     H23376   0.760   2.684  10.640 -0.2062 -0.6534  0.9853
  935MOL0     H23377   0.908   2.629  10.728 -0.1188 -0.5485  0.4154
  935MOL0     H23378   0.786   2.460  10.499 -1.4533 -0.2469  0.2516
  935MOL0     H23379   0.893   2.409  10.621  0.1256 -0.3672 -1.5312
  935MOL0     H23380   0.637   2.343  10.635 -1.3765 -0.1903  0.7571
  935MOL0     H23381   0.616   2.519  10.663 -1.1946 -1.6454 -3.2930
  935MOL0     H23382   0.714   2.511  11.070  0.2576  0.3876 -0.4462
  935MOL0     H23383   0.524   2.551  11.212 -0.3752  0.8350  0.1919
  935MOL0     H23384   0.068   2.449  11.423 -0.4113  0.0908  1.5793
  935MOL0     H23385  -0.115   2.599  11.469  0.9264  0.6526  2.7962
  935MOL0     H23386  -0.160   2.874  11.294 -0.7312 -3.2241  0.6944
  935MOL0     H23387  -0.108   3.019  11.387  2.4211 -0.7419  4.3104
  935MOL0     H23388  -0.332   3.061  11.407 -0.4452 -0.4186 -1.9550
  935MOL0     H23389  -0.323   2.948  11.535 -0.3863  1.7503  0.3472
  935MOL0     H23390  -0.398   2.764  11.369 -1.7747  0.0359  2.7341
  935MOL0     H23391  -0.390   2.886  11.241 -0.6815 -3.4772 -1.7890
  935MOL0     H23392  -0.575   2.870  11.489 -0.8663 -0.4998 -0.6404
  935MOL0     H23393  -0.563   3.021  11.383  1.6979  0.1007 -1.4664
  935MOL0     H23394  -0.618   2.757  11.248  2.0916  0.0190  1.9223
  935MOL0     H23395  -0.675   2.918  11.207 -1.3487  0.8305  1.4355
  935MOL0     H23396  -0.769   2.730  11.446  2.7312  2.5428  2.2147
  935MOL0     H23397  -0.853   2.739  11.296 -2.6574  0.1077  1.8801
  935MOL0     H23398  -0.818   2.973  11.502 -2.8671  1.0168  1.3696
  935MOL0     H23399  -0.900   2.992  11.350  1.9464 -1.8974 -1.8820
  935MOL0     H23400  -0.968   2.809  11.587  0.1777  0.7074  0.8623
  935MOL0     H23401  -1.067   2.833  11.431 -0.0623  4.1950 -2.3672
  935MOL0     H23402   0.125   2.950  11.402  0.6140  0.7676 -3.5359
  935MOL0     H23403   0.288   2.797  11.285 -1.2848 -0.5752 -2.6279
  935MOL0     H23404   0.265   2.360  10.907  0.6242  0.5708 -0.4499
  935MOL0     H23405   0.454   2.346  10.776  2.9917 -1.4518  1.0102
  935MOL0     H23406   2.309   2.519  10.370 -1.6457  0.5616  0.4444
  935MOL0     H23407   2.503   2.360  10.341  5.0074 -1.4477  4.3288
  935MOL0     H23408   2.753   2.124  10.347  0.5319  0.6124  2.3682
  935MOL0     H23409   2.965   2.045  10.347 -4.1901  3.8079 -0.7776
  935MOL0     H23410   3.166   1.907  10.285 -0.4851 -0.7366 -1.0833
  935MOL0     H23411   3.235   1.737  10.321  1.0016 -0.1733  1.2181
  935MOL0     H23412   3.129   1.906  10.547  0.4404 -0.3155  0.7723
  935MOL0     H23413   3.248   1.783  10.536 -4.6694 -1.9760  0.4030
  935MOL0     H23414   3.402   1.953  10.393  0.9706  1.0452  0.1929
  935MOL0     H23415   3.364   1.988  10.558  2.0484 -0.6194 -0.6053
  935MOL0     H23416   3.200   2.107  10.328  0.1617 -0.5463 -0.4448
  935MOL0     H23417   3.179   2.129  10.500 -0.1641 -1.6127  0.1876
  935MOL0     H23418   3.479   2.415  10.422 -0.4639  0.4077 -2.6828
  935MOL0     H23419   2.794   1.632  10.413 -3.4822 -0.8774 -2.8849
  935MOL0     H23420   2.585   1.756  10.449 -0.2621 -0.1565  2.0579
  936MOL0     O23421   7.238  10.820   1.611  0.8986 -0.5299  0.1756
  936MOL0     C23422   7.273  10.885   1.712  0.1706  0.4612  0.9628
  936MOL0     O23423   7.200  10.978   1.779  0.4790  0.4321  0.2236
  936MOL0     C23424   7.074  11.017   1.737  0.3143  1.1655 -0.9260
  936MOL0     C23425   7.034  11.147   1.752 -0.8817 -0.6379  0.4012
  936MOL0     C23426   6.911  11.197   1.725 -0.4087 -0.0850  0.3038
  936MOL0     C23427   6.816  11.118   1.669  0.3044  0.9748  0.2005
  936MOL0     O23428   6.686  11.157   1.632 -0.1983 -0.4544  0.7594
  936MOL0     C23429   6.685  11.291   1.574  0.0604  0.0260  0.3056
  936MOL0     C23430   6.543  11.330   1.514  0.0730 -0.2592 -0.2579
  936MOL0     C23431   6.447  11.383   1.628 -0.1571  0.4671  0.4511
  936MOL0     C23432   6.319  11.447   1.560 -0.1452  0.8219 -0.5473
  936MOL0     C23433   6.223  11.357   1.491 -0.2275 -0.3765 -0.5153
  936MOL0     C23434   6.172  11.251   1.581  0.2470 -0.3837  0.0701
  936MOL0     C23435   6.057  11.169   1.529  0.4804  0.4339  0.0801
  936MOL0     C23436   5.931  11.252   1.540  1.0877  0.5942  0.2443
  936MOL0     N23437   5.802  11.181   1.523 -0.3552 -0.5535 -0.3900
  936MOL0     C23438   5.729  11.220   1.418 -0.2827  0.7551 -0.0669
  936MOL0     C23439   5.618  11.134   1.429 -0.0568 -0.6229 -0.6259
  936MOL0     C23440   5.489  11.145   1.344 -0.2313 -1.0405  0.2743
  936MOL0     C23441   5.405  11.271   1.379  0.1025 -0.0409  0.0207
  936MOL0     C23442   5.348  11.271   1.527  0.3706 -0.0668  0.5876
  936MOL0     C23443   5.238  11.158   1.546 -0.0354 -1.2394  0.0852
  936MOL0     O23444   5.144  11.148   1.439  0.1794 -0.8511  0.2150
  936MOL0     C23445   5.024  11.083   1.455  0.3876 -0.0089  1.0074
  936MOL0     C23446   5.015  10.981   1.548  0.4932 -0.1729 -0.2098
  936MOL0     C23447   4.886  10.926   1.568  1.0497 -0.2560 -1.2902
  936MOL0     C23448   4.775  10.964   1.495 -0.1087  0.2836 -1.7231
  936MOL0     C23449   4.642  10.907   1.529 -0.5051 -0.3419  0.5928
  936MOL0     O23450   4.542  10.936   1.441  0.2273  0.6859  0.4401
  936MOL0     C23451   4.414  10.906   1.474 -0.9681 -0.2120 -0.4022
  936MOL0     C23452   4.359  10.972   1.580  0.2072 -0.0386  0.2118
  936MOL0     C23453   4.221  10.951   1.615 -0.4622  0.4756 -0.0339
  936MOL0     C23454   4.141  10.865   1.547  0.1032 -0.7889  0.2126
  936MOL0     O23455   4.013  10.883   1.594  0.3765 -0.6826  0.4211
  936MOL0     C23456   3.919  10.778   1.556  0.1358 -0.2521 -0.5777
  936MOL0     C23457   3.813  10.791   1.667 -0.1545  0.3830 -0.6176
  936MOL0     C23458   3.845  10.705   1.789  0.5240 -0.4185 -0.4296
  936MOL0     C23459   3.733  10.684   1.889  0.8719  0.0553  0.5329
  936MOL0     C23460   3.692  10.814   1.964 -0.0508  0.0221 -0.0022
  936MOL0     C23461   3.592  10.774   2.073  0.5511  0.3023 -0.0736
  936MOL0     C23462   3.541  10.892   2.155  0.8865 -0.2294 -0.5400
  936MOL0     C23463   3.435  10.865   2.260  0.6565  0.5058 -0.2965
  936MOL0    Cl23464   3.403  11.002   2.359 -0.1728 -0.2816 -0.0158
  936MOL0     C23465   4.196  10.790   1.443 -0.1244  0.9881 -0.9092
  936MOL0     C23466   4.334  10.807   1.406  0.1047 -0.8012 -0.3494
  936MOL0     O23467   4.626  10.836   1.626 -0.7157  0.4011  0.0815
  936MOL0     C23468   4.798  11.055   1.383 -0.8239  0.9617  0.5698
  936MOL0     C23469   4.919  11.112   1.368  0.2033  0.2328  1.1058
  936MOL0     N23470   5.634  11.051   1.533  0.1244  0.6012 -0.2040
  936MOL0     N23471   5.748  11.075   1.589  0.5279 -0.5013 -0.6762
  936MOL0     C23472   6.852  10.983   1.640  0.8340 -0.4619 -0.1530
  936MOL0     C23473   6.972  10.933   1.678 -0.0771  0.0695  0.1351
  936MOL0     C23474   7.409  10.852   1.762 -0.8599  0.0746 -0.3404
  936MOL0     C23475   7.471  10.738   1.730  0.2717  0.3106 -0.8206
  936MOL0     C23476   7.603  10.706   1.777 -0.7815  0.3547  0.1555
  936MOL0     C23477   7.668  10.806   1.848 -1.2681  0.8732 -0.5088
  936MOL0     O23478   7.800  10.797   1.898  0.5363 -0.0384 -0.0290
  936MOL0     C23479   7.896  10.698   1.849 -0.4349 -0.3738  0.2419
  936MOL0     C23480   8.036  10.736   1.891  0.0734  0.7373 -0.1201
  936MOL0     C23481   8.132  10.620   1.855  0.3594 -0.0330  1.2562
  936MOL0     C23482   8.185  10.545   1.976 -0.7135 -0.3349  0.4390
  936MOL0     C23483   8.295  10.459   1.932  0.4282 -0.6005  0.4029
  936MOL0     C23484   8.380  10.380   1.893 -0.4821  0.1060  0.2212
  936MOL0     C23485   7.605  10.915   1.898 -0.9680 -0.4557  0.4740
  936MOL0     C23486   7.481  10.950   1.844  0.9843  1.0002 -0.3877
  936MOL0     H23487   7.106  11.208   1.805  1.3162 -3.1659  0.5269
  936MOL0     H23488   6.892  11.301   1.753 -1.1717 -0.3751  0.8911
  936MOL0     H23489   6.749  11.281   1.485  0.3629 -1.8811  0.6966
  936MOL0     H23490   6.715  11.370   1.644 -0.0500 -0.5489  1.0142
  936MOL0     H23491   6.509  11.248   1.451  0.6951  1.0200 -2.3764
  936MOL0     H23492   6.558  11.407   1.437 -3.2066 -0.8905 -1.6917
  936MOL0     H23493   6.505  11.458   1.683  0.5005 -1.9373  3.2792
  936MOL0     H23494   6.411  11.303   1.694 -1.3465  0.7263  0.1544
  936MOL0     H23495   6.262  11.495   1.640 -2.2567 -0.1433 -1.3797
  936MOL0     H23496   6.345  11.526   1.489  0.6633 -1.0924 -2.5130
  936MOL0     H23497   6.259  11.312   1.397  2.9498 -0.4557  0.6054
  936MOL0     H23498   6.145  11.423   1.451 -0.7012 -1.3482 -1.2411
  936MOL0     H23499   6.151  11.293   1.680  1.3950  1.0140 -0.2429
  936MOL0     H23500   6.251  11.175   1.592 -0.1293 -0.8977 -0.6748
  936MOL0     H23501   6.071  11.135   1.426  1.8803 -0.5826  0.5747
  936MOL0     H23502   6.046  11.084   1.597  3.8678 -0.0697  0.1580
  936MOL0     H23503   5.936  11.339   1.474  1.2356  1.3079  1.1663
  936MOL0     H23504   5.937  11.282   1.646  0.3538  0.7470  0.2536
  936MOL0     H23505   5.760  11.298   1.350  0.8076  1.3988  1.1153
  936MOL0     H23506   5.433  11.052   1.347 -0.4628 -0.9178 -0.1342
  936MOL0     H23507   5.517  11.164   1.240  2.0638 -0.9221  0.8538
  936MOL0     H23508   5.320  11.292   1.313  1.1581  2.8956 -0.5314
  936MOL0     H23509   5.474  11.355   1.368 -0.2513  0.0081 -2.3400
  936MOL0     H23510   5.428  11.256   1.599 -0.1369  1.4007  1.4971
  936MOL0     H23511   5.295  11.361   1.560 -1.0102 -0.7339  0.2511
  936MOL0     H23512   5.190  11.177   1.642  2.3989  0.5323  1.0565
  936MOL0     H23513   5.286  11.060   1.555 -0.8550 -1.5021  1.9269
  936MOL0     H23514   5.092  10.946   1.615 -0.9795 -4.2799 -0.3561
  936MOL0     H23515   4.865  10.845   1.638 -0.2293 -0.0454 -1.3908
  936MOL0     H23516   4.421  11.052   1.619 -0.7057  2.2600 -2.7344
  936MOL0     H23517   4.179  11.019   1.688  1.4505  3.0843 -1.1533
  936MOL0     H23518   3.973  10.683   1.556  0.4570 -0.0736 -0.5461
  936MOL0     H23519   3.879  10.800   1.457 -2.4427  1.0940  0.6654
  936MOL0     H23520   3.728  10.745   1.617 -0.1979  0.5198 -0.6689
  936MOL0     H23521   3.786  10.892   1.697  1.1424  1.0850 -1.6708
  936MOL0     H23522   3.925  10.754   1.846  0.3711 -0.9574  0.2684
  936MOL0     H23523   3.884  10.609   1.754  2.1190 -0.1189  0.4304
  936MOL0     H23524   3.648  10.642   1.834 -0.7534  0.3877  2.6879
  936MOL0     H23525   3.763  10.606   1.960 -1.7040 -1.0807  0.4824
  936MOL0     H23526   3.643  10.890   1.903  0.2451 -0.1760 -0.4886
  936MOL0     H23527   3.783  10.857   2.008  0.0487 -1.1080  0.9592
  936MOL0     H23528   3.647  10.713   2.146 -0.4432  1.9774  2.2177
  936MOL0     H23529   3.514  10.713   2.027 -2.6694  1.9862  2.7334
  936MOL0     H23530   3.626  10.942   2.203  0.9202 -0.0869 -0.7478
  936MOL0     H23531   3.506  10.972   2.090  2.4435  1.3715  0.4978
  936MOL0     H23532   3.476  10.780   2.317 -0.8180 -0.7711 -1.0461
  936MOL0     H23533   3.342  10.832   2.212  0.7267  0.9343 -0.7310
  936MOL0     H23534   4.144  10.721   1.378  1.5902 -2.2779  0.9405
  936MOL0     H23535   4.379  10.758   1.321  1.3341  2.3708 -1.6878
  936MOL0     H23536   4.719  11.075   1.312  0.9785 -1.5391 -2.3723
  936MOL0     H23537   4.929  11.186   1.289  2.5767  0.7540  1.8210
  936MOL0     H23538   6.775  10.923   1.591  0.3892 -0.2095  0.2367
  936MOL0     H23539   6.996  10.830   1.651 -0.3529  0.3105 -1.0909
  936MOL0     H23540   7.420  10.667   1.666 -0.9607  0.7607 -0.3568
  936MOL0     H23541   7.669  10.625   1.747 -2.0762 -0.6217 -0.1590
  936MOL0     H23542   7.899  10.690   1.740  3.8064 -0.9099  0.2172
  936MOL0     H23543   7.859  10.603   1.887  0.5234 -0.2718  1.5083
  936MOL0     H23544   8.071  10.822   1.833  1.4105  0.6928  0.5854
  936MOL0     H23545   8.037  10.740   2.000 -0.4250  4.5301 -0.1231
  936MOL0     H23546   8.212  10.661   1.793  0.5763 -3.8839 -1.3994
  936MOL0     H23547   8.082  10.547   1.790  1.0353  0.4913  0.1199
  936MOL0     H23548   8.230  10.613   2.048 -0.9573  2.7716 -2.1236
  936MOL0     H23549   8.111  10.483   2.026  0.4094 -4.4230 -2.3857
  936MOL0     H23550   8.458  10.316   1.858  0.1823  1.5790 -1.0961
  936MOL0     H23551   7.641  10.983   1.974  0.2272 -0.7725  0.2147
  936MOL0     H23552   7.439  11.047   1.868 -0.9528 -0.2915  1.8642
  937MOL0     O23553   4.304   2.797   4.753 -0.6277 -0.1662  0.5753
  937MOL0     C23554   4.384   2.702   4.746  0.5039  0.1381  0.7912
  937MOL0     O23555   4.347   2.571   4.739  0.3589  0.6341 -0.5273
  937MOL0     C23556   4.212   2.546   4.709 -0.0471 -0.1333 -0.1265
  937MOL0     C23557   4.147   2.455   4.795 -0.6401 -0.7069  0.1289
  937MOL0     C23558   4.016   2.427   4.770  0.4501 -0.8267  0.2093
  937MOL0     C23559   3.942   2.485   4.663 -0.0048  0.0761 -0.8430
  937MOL0     O23560   3.815   2.444   4.638  0.1593  0.2885 -0.3896
  937MOL0     C23561   3.796   2.388   4.514 -0.6605  0.9060  0.3651
  937MOL0     C23562   3.667   2.303   4.521 -0.5687  0.0454 -0.4863
  937MOL0     C23563   3.561   2.408   4.498  0.1230 -0.9243 -0.0093
  937MOL0     C23564   3.426   2.334   4.501 -0.7156  0.7829 -0.2022
  937MOL0     C23565   3.308   2.421   4.526 -0.8793  0.6600  0.2673
  937MOL0     C23566   3.194   2.327   4.580 -0.2462  0.3004 -0.8175
  937MOL0     C23567   3.057   2.392   4.598 -0.6104 -1.4857 -0.5112
  937MOL0     C23568   2.958   2.294   4.670  0.5368  0.2562 -0.3971
  937MOL0     N23569   2.813   2.312   4.639 -0.3526  0.2312  0.0030
  937MOL0     C23570   2.726   2.404   4.669  0.5968  0.6863 -0.2150
  937MOL0     C23571   2.612   2.356   4.615 -0.9483  1.2957  0.4884
  937MOL0     C23572   2.482   2.416   4.627  0.2315  0.5355 -0.9167
  937MOL0     C23573   2.469   2.553   4.554  0.1739  0.5896 -0.6757
  937MOL0     C23574   2.465   2.536   4.399  0.5473  0.0437  0.2342
  937MOL0     C23575   2.350   2.441   4.344 -0.5866  0.1776  0.2405
  937MOL0     O23576   2.238   2.461   4.430  0.1317  0.5334  0.4665
  937MOL0     C23577   2.119   2.402   4.397 -0.6077  0.0137  0.1798
  937MOL0     C23578   2.004   2.450   4.464 -0.9524  0.2996 -0.0961
  937MOL0     C23579   1.876   2.393   4.449  0.1831  0.4283 -0.0763
  937MOL0     C23580   1.854   2.286   4.366 -0.0769  0.1998 -0.9629
  937MOL0     C23581   1.737   2.201   4.377  1.1897  0.6700 -0.1704
  937MOL0     O23582   1.720   2.090   4.292  0.5070 -0.8246 -0.0442
  937MOL0     C23583   1.590   2.053   4.250 -0.4120 -0.2002  0.1981
  937MOL0     C23584   1.498   2.155   4.217  0.4909 -0.0002  0.4153
  937MOL0     C23585   1.376   2.114   4.179  0.0602  1.0746 -0.7307
  937MOL0     C23586   1.335   1.978   4.175 -0.1095  0.1175 -0.3833
  937MOL0     O23587   1.197   1.957   4.178  0.6911  0.6020 -0.2367
  937MOL0     C23588   1.148   1.828   4.222  0.7138  0.3075  0.1442
  937MOL0     C23589   1.000   1.835   4.259 -0.7951 -0.3726 -0.2127
  937MOL0     C23590   0.963   1.693   4.320 -0.4069  0.1284  0.2378
  937MOL0     C23591   0.811   1.669   4.338 -0.1961 -0.4808 -0.5278
  937MOL0     C23592   0.761   1.709   4.478  0.4431  0.1528 -0.9777
  937MOL0     C23593   0.625   1.770   4.477  0.2994 -1.1087 -0.2121
  937MOL0     C23594   0.509   1.684   4.422 -0.0432  0.1259 -0.2403
  937MOL0     C23595   0.429   1.600   4.528 -0.6664 -0.0607 -0.0786
  937MOL0    Cl23596   0.517   1.446   4.568 -0.1250  0.3261 -0.3321
  937MOL0     C23597   1.429   1.877   4.202 -0.0654  0.0599 -0.4681
  937MOL0     C23598   1.563   1.914   4.236  0.0579 -0.3271 -0.0769
  937MOL0     O23599   1.648   2.240   4.445 -0.1011 -0.2287  0.1497
  937MOL0     C23600   1.966   2.240   4.289  0.6528  0.3454 -0.9450
  937MOL0     C23601   2.101   2.301   4.305  1.0835  0.5109 -0.1967
  937MOL0     N23602   2.641   2.252   4.528  0.2032 -0.0260 -0.5084
  937MOL0     N23603   2.764   2.232   4.542 -0.8547 -1.0134  0.7081
  937MOL0     C23604   4.013   2.571   4.583 -0.1852  0.2770 -0.1504
  937MOL0     C23605   4.151   2.599   4.597 -0.0155 -0.5175  0.1682
  937MOL0     C23606   4.519   2.744   4.731 -0.3861  0.5221 -0.0349
  937MOL0     C23607   4.599   2.693   4.634  0.2424  0.1913 -0.1588
  937MOL0     C23608   4.730   2.737   4.625 -0.2985  1.0167 -0.4271
  937MOL0     C23609   4.789   2.829   4.707 -0.2976 -0.7150  0.1341
  937MOL0     O23610   4.920   2.867   4.720 -0.5785  0.4732  0.5119
  937MOL0     C23611   5.013   2.788   4.645  0.4492 -0.1739 -0.4987
  937MOL0     C23612   5.150   2.864   4.672  0.4252  0.5736 -0.0672
  937MOL0     C23613   5.270   2.787   4.613 -0.6269 -0.0632  0.8159
  937MOL0     C23614   5.274   2.639   4.628  0.2547  0.3296 -0.5884
  937MOL0     C23615   5.411   2.587   4.633  0.4024 -0.2137 -1.0962
  937MOL0     C23616   5.531   2.562   4.627 -0.2433 -0.4961  0.5222
  937MOL0     C23617   4.698   2.900   4.793  0.3961  0.1188 -0.7253
  937MOL0     C23618   4.562   2.857   4.810  0.0767 -0.0531  1.2984
  937MOL0     H23619   4.205   2.409   4.874 -0.4099 -0.3834  0.1518
  937MOL0     H23620   3.965   2.361   4.840  0.8123  0.3975  1.6744
  937MOL0     H23621   3.875   2.315   4.494 -2.3660 -0.8960 -0.1858
  937MOL0     H23622   3.792   2.456   4.428 -0.2745 -0.6777 -0.9798
  937MOL0     H23623   3.671   2.259   4.621  0.5562 -0.6219 -0.8058
  937MOL0     H23624   3.656   2.226   4.444 -0.8617  1.3643 -1.7950
  937MOL0     H23625   3.567   2.445   4.395 -0.7576 -1.4856 -0.2777
  937MOL0     H23626   3.565   2.497   4.561 -0.3038  0.3585 -1.7047
  937MOL0     H23627   3.411   2.269   4.415  1.4011  0.3577 -0.2938
  937MOL0     H23628   3.432   2.269   4.590  1.0921  0.4687 -0.5122
  937MOL0     H23629   3.287   2.455   4.424  1.0700 -0.0799 -0.4313
  937MOL0     H23630   3.339   2.499   4.596 -0.1727 -0.4651  1.2623
  937MOL0     H23631   3.227   2.311   4.683  1.0821  0.5871 -1.1882
  937MOL0     H23632   3.184   2.230   4.531 -1.0352  0.4539 -0.9727
  937MOL0     H23633   3.077   2.480   4.660  0.4894 -2.3767  0.4476
  937MOL0     H23634   3.020   2.433   4.504 -2.2874 -0.8913  0.3577
  937MOL0     H23635   2.961   2.297   4.779 -1.1005 -3.1358 -0.1159
  937MOL0     H23636   2.992   2.195   4.638 -0.8458 -0.3989  0.1143
  937MOL0     H23637   2.737   2.494   4.729  1.7379  0.0741  0.5357
  937MOL0     H23638   2.451   2.437   4.730 -0.1778  2.0495 -1.3220
  937MOL0     H23639   2.411   2.346   4.583 -0.8387 -0.7404  2.4604
  937MOL0     H23640   2.558   2.615   4.569  0.0494  0.6957 -0.3586
  937MOL0     H23641   2.382   2.617   4.577 -1.2054 -1.1414 -0.8881
  937MOL0     H23642   2.428   2.628   4.352  0.8208  0.6653  1.2017
  937MOL0     H23643   2.565   2.511   4.362  0.9149 -2.5787  2.6324
  937MOL0     H23644   2.387   2.338   4.343  1.6593  0.9036 -1.4601
  937MOL0     H23645   2.320   2.458   4.240  0.7232 -1.3998 -0.4491
  937MOL0     H23646   2.009   2.536   4.530  1.1093  1.9009 -2.1744
  937MOL0     H23647   1.803   2.433   4.519  1.1643  0.6656  0.8402
  937MOL0     H23648   1.513   2.261   4.234 -1.6817  0.4999 -0.4749
  937MOL0     H23649   1.294   2.185   4.175  0.0067  1.7457  4.6161
  937MOL0     H23650   1.197   1.792   4.313  0.2399 -1.6773 -0.3214
  937MOL0     H23651   1.177   1.754   4.146 -0.4884 -1.2303  1.1179
  937MOL0     H23652   0.939   1.873   4.177  0.2553  0.3955 -0.6571
  937MOL0     H23653   0.980   1.897   4.348 -4.0831  1.2654 -1.8915
  937MOL0     H23654   1.019   1.678   4.413 -0.5595  1.8312  0.6326
  937MOL0     H23655   0.989   1.619   4.244  0.2101 -0.9372  1.4417
  937MOL0     H23656   0.749   1.702   4.254  0.3200 -2.0024 -1.5687
  937MOL0     H23657   0.790   1.561   4.334 -0.3874 -0.4684  0.1082
  937MOL0     H23658   0.830   1.777   4.529  2.2917 -2.1774 -0.1744
  937MOL0     H23659   0.753   1.617   4.536 -2.6412  0.8111 -0.1946
  937MOL0     H23660   0.621   1.863   4.420 -2.9554 -0.9901  0.0101
  937MOL0     H23661   0.591   1.791   4.579  2.6202  1.5391  0.1366
  937MOL0     H23662   0.439   1.750   4.372  1.3450 -0.7056 -3.5431
  937MOL0     H23663   0.537   1.614   4.342 -0.9524 -0.4399 -0.0751
  937MOL0     H23664   0.332   1.578   4.483  0.5447 -0.0220 -2.9488
  937MOL0     H23665   0.404   1.662   4.615 -0.0496 -0.5135  0.4311
  937MOL0     H23666   1.410   1.770   4.194  2.8612 -0.5518 -0.5126
  937MOL0     H23667   1.633   1.834   4.252  0.2668 -0.3686 -1.1475
  937MOL0     H23668   1.952   2.152   4.227 -0.2539  0.0326 -0.3166
  937MOL0     H23669   2.187   2.261   4.251 -0.7607 -1.2134 -2.0304
  937MOL0     H23670   3.962   2.613   4.496  0.6567 -1.8619 -1.7710
  937MOL0     H23671   4.212   2.650   4.524 -0.7534 -0.1242 -0.1847
  937MOL0     H23672   4.570   2.603   4.580  0.0085  1.5972 -2.4689
  937MOL0     H23673   4.788   2.683   4.551  0.1720  0.5390  0.2815
  937MOL0     H23674   4.992   2.810   4.540 -0.2864  2.7038  0.1722
  937MOL0     H23675   5.010   2.683   4.676  2.8178  0.1502  1.1483
  937MOL0     H23676   5.153   2.962   4.623 -1.9031 -0.4025 -2.4157
  937MOL0     H23677   5.170   2.873   4.780 -0.1785  0.9617  0.0161
  937MOL0     H23678   5.363   2.836   4.645 -1.5413  2.6044 -0.3325
  937MOL0     H23679   5.258   2.807   4.506 -1.5661 -1.7168  0.5767
  937MOL0     H23680   5.230   2.602   4.721 -0.1478 -0.2430 -1.0038
  937MOL0     H23681   5.206   2.600   4.552  0.8702  0.2214 -1.0905
  937MOL0     H23682   5.636   2.544   4.637 -0.0114 -0.1961 -1.1447
  937MOL0     H23683   4.738   2.982   4.851  0.9513 -0.4309 -0.3155
  937MOL0     H23684   4.506   2.899   4.893  0.9260  0.8334  1.4460
  938MOL0     O23685  10.360   8.171   5.520  0.4117  0.1099 -0.7034
  938MOL0     C23686  10.295   8.079   5.477 -0.5318  0.1641 -0.1009
  938MOL0     O23687  10.331   7.947   5.494 -0.0094  0.5380  0.4494
  938MOL0     C23688  10.439   7.928   5.573  0.0936  0.6242 -1.0037
  938MOL0     C23689  10.532   7.823   5.530 -0.4235 -0.0042  0.1687
  938MOL0     C23690  10.636   7.774   5.607 -0.0944  0.1392  0.5856
  938MOL0     C23691  10.656   7.821   5.738  0.5449  0.1039 -1.0568
  938MOL0     O23692  10.755   7.767   5.820  0.2698  0.2702  0.8581
  938MOL0     C23693  10.733   7.761   5.960  0.3796 -0.0341  0.0052
  938MOL0     C23694  10.798   7.877   6.030  0.3056  0.6103 -0.5078
  938MOL0     C23695  10.781   7.868   6.175 -0.3752  1.2507 -0.0325
  938MOL0     C23696  10.851   7.751   6.239 -0.0180 -1.4605  0.2387
  938MOL0     C23697  10.889   7.779   6.383  0.3497 -0.7573 -0.0131
  938MOL0     C23698  10.773   7.781   6.479  0.2875 -0.1828 -0.6827
  938MOL0     C23699  10.811   7.756   6.630  0.0083  0.6625  1.2705
  938MOL0     C23700  10.870   7.615   6.660 -0.2492  0.4932 -0.2948
  938MOL0     N23701  10.896   7.628   6.804  0.6283  0.7951  0.2977
  938MOL0     C23702  11.018   7.658   6.863 -0.0261 -0.1840 -0.9052
  938MOL0     C23703  10.993   7.668   6.991  0.0926 -0.6232  0.1384
  938MOL0     C23704  11.101   7.703   7.088  0.1550  0.4059 -0.1709
  938MOL0     C23705  11.066   7.659   7.233 -0.6643 -0.4430  0.3132
  938MOL0     C23706  11.123   7.735   7.359 -0.4908 -0.0908  0.8713
  938MOL0     C23707  11.276   7.744   7.354  0.6097 -0.7037  0.0111
  938MOL0     O23708  11.348   7.631   7.397  0.4922 -0.1325 -0.6402
  938MOL0     C23709  11.481   7.636   7.414  0.0172  0.3472 -1.2625
  938MOL0     C23710  11.565   7.743   7.381 -0.4690 -0.4869  0.4617
  938MOL0     C23711  11.705   7.729   7.404 -0.5510  0.8097  0.8696
  938MOL0     C23712  11.762   7.617   7.457 -0.7945 -0.5538  0.4662
  938MOL0     C23713  11.914   7.599   7.455  0.3496 -0.9011  1.7348
  938MOL0     O23714  11.995   7.662   7.357 -0.1903 -0.0662 -0.5245
  938MOL0     C23715  12.124   7.625   7.353 -0.4023  0.2192 -0.3785
  938MOL0     C23716  12.206   7.672   7.457 -0.1482  0.3210 -0.0962
  938MOL0     C23717  12.343   7.655   7.463 -0.3205  0.4494  0.3235
  938MOL0     C23718  12.403   7.592   7.343 -0.0899 -0.3883  0.0685
  938MOL0     O23719  12.537   7.585   7.330 -0.2227  0.5474  0.3978
  938MOL0     C23720  12.628   7.679   7.386  0.9702 -0.2188  0.6766
  938MOL0     C23721  12.765   7.642   7.332 -0.0918  0.5738 -0.6946
  938MOL0     C23722  12.865   7.742   7.395  0.0101 -0.5537 -0.7185
  938MOL0     C23723  13.001   7.725   7.328  0.2629 -0.5602 -0.3396
  938MOL0     C23724  13.128   7.791   7.386 -0.5218 -0.7449 -0.0447
  938MOL0     C23725  13.254   7.755   7.299 -0.0408 -0.5059 -0.1464
  938MOL0     C23726  13.398   7.768   7.373 -0.6635 -0.4678 -0.2715
  938MOL0     C23727  13.510   7.712   7.278  0.2652 -0.4834 -0.1809
  938MOL0    Cl23728  13.637   7.821   7.232  0.3956 -0.1542 -0.0357
  938MOL0     C23729  12.310   7.538   7.248  0.3533  0.0912  0.5744
  938MOL0     C23730  12.175   7.561   7.246  0.7642  0.0188  0.0205
  938MOL0     O23731  11.954   7.539   7.553 -0.6519 -0.1772  0.1768
  938MOL0     C23732  11.682   7.511   7.500  0.0322  0.3830 -0.0857
  938MOL0     C23733  11.540   7.522   7.476 -0.3495  0.8120  0.2270
  938MOL0     N23734  10.861   7.642   7.018  0.1313  0.2631  0.0746
  938MOL0     N23735  10.806   7.616   6.903  0.4431 -1.0771  0.4460
  938MOL0     C23736  10.573   7.929   5.784  0.0246  0.6271 -0.4493
  938MOL0     C23737  10.464   7.971   5.707 -0.0345 -0.0194  0.2604
  938MOL0     C23738  10.177   8.109   5.397 -0.0124 -0.0907 -1.1571
  938MOL0     C23739  10.102   7.997   5.352  0.2510 -0.1686 -0.7350
  938MOL0     C23740   9.995   8.025   5.273  0.7576  0.6077 -0.0587
  938MOL0     C23741   9.934   8.150   5.245  0.1968  0.4356 -0.6953
  938MOL0     O23742   9.827   8.174   5.168  0.3605  0.1970  1.1859
  938MOL0     C23743   9.716   8.074   5.175 -0.0110  1.3038  0.8516
  938MOL0     C23744   9.636   8.079   5.303  0.4209 -0.0498  0.2103
  938MOL0     C23745   9.550   8.204   5.314 -0.3556  0.4426 -0.1236
  938MOL0     C23746   9.438   8.195   5.216 -0.1090 -0.4503  0.4388
  938MOL0     C23747   9.361   8.074   5.228 -0.6505  0.8327 -0.9241
  938MOL0     C23748   9.297   7.971   5.223 -1.0562  0.4767 -0.2312
  938MOL0     C23749  10.004   8.257   5.300  0.0757 -0.2406 -0.1273
  938MOL0     C23750  10.127   8.237   5.366 -1.0007  0.2228  0.1708
  938MOL0     H23751  10.515   7.785   5.429  1.1012 -1.4295  0.4045
  938MOL0     H23752  10.709   7.703   5.568 -0.8577  0.2077 -1.0740
  938MOL0     H23753  10.780   7.666   5.987  0.5968 -0.3410 -1.3557
  938MOL0     H23754  10.626   7.760   5.983 -0.5809 -0.9531 -3.8082
  938MOL0     H23755  10.764   7.973   5.989  1.0759  2.1797  2.2772
  938MOL0     H23756  10.905   7.879   6.009  0.3275  0.5209 -0.4069
  938MOL0     H23757  10.675   7.854   6.200  0.0203 -1.4839  0.3950
  938MOL0     H23758  10.817   7.968   6.201  0.0123  0.7586  1.3890
  938MOL0     H23759  10.773   7.674   6.235 -0.5375 -0.8785 -2.2416
  938MOL0     H23760  10.939   7.739   6.175  0.5200  1.0720  0.4078
  938MOL0     H23761  10.954   7.867   6.374  2.8669 -2.7162 -3.9983
  938MOL0     H23762  10.952   7.703   6.429 -2.0830 -0.7477  3.6656
  938MOL0     H23763  10.710   7.699   6.443  0.2898 -0.2993 -0.4247
  938MOL0     H23764  10.718   7.875   6.477 -0.7242 -0.6532  1.7227
  938MOL0     H23765  10.893   7.821   6.663  2.0782 -0.4048 -1.4081
  938MOL0     H23766  10.721   7.757   6.692 -0.6181 -0.0099  0.3975
  938MOL0     H23767  10.958   7.584   6.604  1.5963 -2.2446  3.6441
  938MOL0     H23768  10.794   7.541   6.631 -0.3068  1.5480 -3.1141
  938MOL0     H23769  11.121   7.668   6.830 -0.7134  1.5599 -2.6850
  938MOL0     H23770  11.123   7.810   7.081  1.6213  0.1294 -0.0070
  938MOL0     H23771  11.190   7.646   7.061 -0.2208  0.2398 -1.0965
  938MOL0     H23772  11.094   7.554   7.249 -0.3643 -0.1781  1.6509
  938MOL0     H23773  10.958   7.674   7.236 -0.7478 -1.0756  0.5538
  938MOL0     H23774  11.082   7.837   7.359  2.0752  1.1084 -1.9568
  938MOL0     H23775  11.096   7.686   7.453  0.5489  1.2710  1.9233
  938MOL0     H23776  11.304   7.822   7.426 -4.3565 -0.2789  1.8263
  938MOL0     H23777  11.308   7.782   7.257 -2.8639  0.6698 -0.7240
  938MOL0     H23778  11.526   7.836   7.343  0.6516  0.3444  1.2829
  938MOL0     H23779  11.766   7.815   7.382  0.8972 -0.4337 -0.2083
  938MOL0     H23780  12.169   7.727   7.543  0.6547 -0.0897  0.5231
  938MOL0     H23781  12.399   7.701   7.543  2.6030  0.5178 -1.5997
  938MOL0     H23782  12.608   7.693   7.493 -1.9168 -1.6033  0.4091
  938MOL0     H23783  12.604   7.772   7.334 -2.8236 -2.4788 -2.1928
  938MOL0     H23784  12.760   7.645   7.223  1.1220 -2.8649 -0.9583
  938MOL0     H23785  12.781   7.543   7.375 -1.9221  0.9498  0.9809
  938MOL0     H23786  12.881   7.719   7.501  0.0142  1.8290 -0.1487
  938MOL0     H23787  12.831   7.845   7.385 -4.0080 -1.8299 -2.2496
  938MOL0     H23788  13.019   7.618   7.339 -1.8667 -0.8491  0.9455
  938MOL0     H23789  12.996   7.751   7.222  0.7365 -0.8786 -0.4437
  938MOL0     H23790  13.137   7.753   7.488 -2.2622 -3.1534 -0.6903
  938MOL0     H23791  13.129   7.899   7.406  0.1052 -0.6848 -0.3871
  938MOL0     H23792  13.255   7.792   7.196  1.1266 -0.2044 -0.0349
  938MOL0     H23793  13.244   7.646   7.292 -1.2250 -0.6706  2.7200
  938MOL0     H23794  13.429   7.871   7.393  0.8807  0.1520 -4.6670
  938MOL0     H23795  13.402   7.717   7.469  0.0838 -0.7000 -0.4231
  938MOL0     H23796  13.453   7.680   7.190 -0.5877  1.4143 -0.3746
  938MOL0     H23797  13.543   7.615   7.317 -2.8752 -0.9869  1.4823
  938MOL0     H23798  12.348   7.479   7.165  1.5504  0.3151  0.9430
  938MOL0     H23799  12.112   7.521   7.167  0.3221 -1.0399  0.8924
  938MOL0     H23800  11.723   7.426   7.555 -0.2900  0.8452  0.8859
  938MOL0     H23801  11.480   7.435   7.501  1.7121 -1.0037 -0.7361
  938MOL0     H23802  10.588   7.974   5.881  1.2628 -0.1592 -0.2540
  938MOL0     H23803  10.407   8.057   5.741 -0.3593 -0.4921  0.9150
  938MOL0     H23804  10.137   7.899   5.383 -1.6341  0.2908  3.5912
  938MOL0     H23805   9.958   7.941   5.215  0.0458 -0.7360  2.1757
  938MOL0     H23806   9.756   7.974   5.158  1.5060  2.2409 -1.5487
  938MOL0     H23807   9.644   8.086   5.094  0.4678  1.9980  0.5180
  938MOL0     H23808   9.580   7.985   5.311  4.1093 -2.6334 -1.1581
  938MOL0     H23809   9.703   8.060   5.387 -0.1300 -0.4333  0.5650
  938MOL0     H23810   9.609   8.291   5.284 -2.4892  0.9096 -3.5309
  938MOL0     H23811   9.511   8.195   5.416  3.8217 -2.4887  1.4777
  938MOL0     H23812   9.367   8.278   5.225 -0.7465 -0.6824 -1.8800
  938MOL0     H23813   9.482   8.196   5.116 -0.5968  1.2115  0.2128
  938MOL0     H23814   9.221   7.896   5.225 -0.8655  0.2922  0.5205
  938MOL0     H23815   9.964   8.357   5.283 -0.6963 -0.8779 -2.4422
  938MOL0     H23816  10.175   8.325   5.408  0.6105 -0.3476 -0.4045
  939MOL0     O23817   5.112   4.648   7.622 -0.0252  0.1632  0.2856
  939MOL0     C23818   5.171   4.583   7.712 -0.6848  0.0374  0.1710
  939MOL0     O23819   5.121   4.496   7.806 -0.4028 -0.2729  0.1764
  939MOL0     C23820   4.986   4.483   7.839 -0.3729  0.0268 -0.3484
  939MOL0     C23821   4.943   4.358   7.880  0.5216  0.1798 -0.1533
  939MOL0     C23822   4.807   4.337   7.908 -0.0260 -0.2845 -0.7084
  939MOL0     C23823   4.712   4.441   7.899  0.5449 -0.7190 -0.0652
  939MOL0     O23824   4.582   4.429   7.925  0.3878 -0.0693  0.2727
  939MOL0     C23825   4.518   4.301   7.943 -0.2430 -0.2095 -0.2950
  939MOL0     C23826   4.366   4.331   7.960 -0.5500 -0.5803 -0.4220
  939MOL0     C23827   4.279   4.207   7.953 -0.0255 -0.0433 -0.0528
  939MOL0     C23828   4.133   4.233   8.004  0.2790 -0.3180  0.3071
  939MOL0     C23829   4.022   4.123   7.968  0.4382 -0.2269 -0.0769
  939MOL0     C23830   3.884   4.179   7.980  0.2812 -0.3641 -0.3841
  939MOL0     C23831   3.775   4.062   7.968 -0.3640 -0.4290 -0.1126
  939MOL0     C23832   3.752   4.006   7.827 -0.1966  0.2100 -0.5456
  939MOL0     N23833   3.638   3.914   7.833  0.5775  0.0175  0.4579
  939MOL0     C23834   3.633   3.787   7.892 -0.2692 -0.0543  0.4955
  939MOL0     C23835   3.503   3.755   7.878 -0.6482 -0.4286  0.1430
  939MOL0     C23836   3.450   3.625   7.932  0.8265  0.3906  0.0700
  939MOL0     C23837   3.402   3.660   8.072 -0.3434 -0.3124  0.5866
  939MOL0     C23838   3.367   3.541   8.161  0.3263 -0.6365  0.5322
  939MOL0     C23839   3.269   3.430   8.090  0.1099 -0.1475  0.5568
  939MOL0     O23840   3.143   3.487   8.045 -0.7205  0.5839 -0.2083
  939MOL0     C23841   3.024   3.468   8.118 -0.0266 -0.5911 -0.1059
  939MOL0     C23842   2.907   3.431   8.051  0.1108 -0.1448  0.8181
  939MOL0     C23843   2.791   3.392   8.108  0.2008  0.4250 -0.4459
  939MOL0     C23844   2.782   3.395   8.250  1.0626 -0.1522 -0.2133
  939MOL0     C23845   2.657   3.361   8.322 -0.0756 -0.9102 -1.0606
  939MOL0     O23846   2.556   3.301   8.254  0.2340 -0.6943  0.6786
  939MOL0     C23847   2.459   3.241   8.337 -0.8479 -0.4703 -0.6004
  939MOL0     C23848   2.485   3.120   8.404 -0.1283 -0.3979  0.5510
  939MOL0     C23849   2.384   3.057   8.475  0.1008  0.4563  0.1581
  939MOL0     C23850   2.261   3.116   8.494  0.6931  0.0882  0.2312
  939MOL0     O23851   2.168   3.041   8.573 -0.4287  0.0488  0.5225
  939MOL0     C23852   2.031   3.062   8.540  0.4101  0.1041 -0.9093
  939MOL0     C23853   1.949   2.982   8.642 -0.2109 -0.8903 -0.2914
  939MOL0     C23854   1.799   3.020   8.625  0.1208 -0.3591 -0.6106
  939MOL0     C23855   1.728   2.968   8.750 -0.5502  0.4577 -0.6869
  939MOL0     C23856   1.586   3.027   8.764  0.5112  0.7468 -0.8924
  939MOL0     C23857   1.517   2.937   8.869  0.2223  0.1525 -0.0151
  939MOL0     C23858   1.375   2.978   8.893 -0.5909  0.0965 -0.1759
  939MOL0     C23859   1.303   2.874   8.979  0.7918 -0.7245 -0.1132
  939MOL0    Cl23860   1.278   2.717   8.885 -0.3786  0.7559  0.3361
  939MOL0     C23861   2.234   3.232   8.424 -0.3401 -0.1954  0.5116
  939MOL0     C23862   2.327   3.297   8.342 -0.7396 -0.5727  0.5958
  939MOL0     O23863   2.658   3.383   8.444  0.8743  0.0157  0.5590
  939MOL0     C23864   2.890   3.441   8.322 -0.9261  0.1247  0.3927
  939MOL0     C23865   3.010   3.475   8.254  0.2592 -0.1413 -0.3278
  939MOL0     N23866   3.428   3.845   7.820 -0.1070  0.2256  0.4618
  939MOL0     N23867   3.506   3.948   7.796 -0.9858  0.0280 -1.3613
  939MOL0     C23868   4.760   4.563   7.848 -0.4708 -0.5656  0.7049
  939MOL0     C23869   4.900   4.588   7.825  0.0899  0.2395  0.1826
  939MOL0     C23870   5.312   4.593   7.714  0.6180 -0.0893  0.1404
  939MOL0     C23871   5.378   4.600   7.588 -0.2250  0.6194  0.0545
  939MOL0     C23872   5.514   4.624   7.589  0.4006  0.5313 -0.5735
  939MOL0     C23873   5.581   4.645   7.707 -0.2410 -0.7597  0.6431
  939MOL0     O23874   5.711   4.672   7.716  0.3202 -0.4551  0.4610
  939MOL0     C23875   5.779   4.707   7.596 -0.4803 -0.4343 -0.7507
  939MOL0     C23876   5.911   4.775   7.636  0.9717 -0.0667  0.2006
  939MOL0     C23877   6.000   4.668   7.689 -0.4688  0.0620 -0.2691
  939MOL0     C23878   6.122   4.728   7.748  0.4422  0.3153 -0.1877
  939MOL0     C23879   6.187   4.634   7.839 -0.7467  0.0249  0.2748
  939MOL0     C23880   6.234   4.553   7.916 -0.0193  0.7081 -0.0490
  939MOL0     C23881   5.528   4.644   7.831 -0.2702 -0.1488  0.5776
  939MOL0     C23882   5.388   4.625   7.830  0.1569 -0.2616  0.2515
  939MOL0     H23883   5.019   4.281   7.880  1.3484  0.9826  0.0535
  939MOL0     H23884   4.769   4.239   7.936  0.2926  0.0718  1.0822
  939MOL0     H23885   4.547   4.244   8.031 -2.6909 -1.9272 -0.4753
  939MOL0     H23886   4.537   4.235   7.857 -2.8454 -2.1239  0.4564
  939MOL0     H23887   4.347   4.409   7.886 -0.8512  0.4985  0.7572
  939MOL0     H23888   4.340   4.378   8.055  1.0021  2.3468 -1.3247
  939MOL0     H23889   4.317   4.120   8.008 -0.9000  0.1532  0.8950
  939MOL0     H23890   4.277   4.174   7.849 -0.2470 -0.7609  0.1775
  939MOL0     H23891   4.151   4.244   8.112  0.3532 -0.7134  0.3392
  939MOL0     H23892   4.101   4.327   7.957  1.6449  0.5056  0.9647
  939MOL0     H23893   4.042   4.031   8.024 -1.5713 -1.1333 -0.7470
  939MOL0     H23894   4.026   4.101   7.860 -1.7987  2.0437 -0.7129
  939MOL0     H23895   3.859   4.270   7.925  3.2473  0.6282 -0.2360
  939MOL0     H23896   3.890   4.201   8.087  2.3299 -2.9896  0.1305
  939MOL0     H23897   3.805   3.982   8.037 -1.1866  0.9368  1.9552
  939MOL0     H23898   3.682   4.104   8.006 -1.7743 -0.7655 -2.9895
  939MOL0     H23899   3.844   3.970   7.780  0.9538  2.7386 -0.4179
  939MOL0     H23900   3.719   4.086   7.760  0.3538 -0.0725 -1.1647
  939MOL0     H23901   3.718   3.744   7.944  0.3897 -1.0244 -1.3059
  939MOL0     H23902   3.529   3.548   7.937 -0.1796 -0.5933  1.5275
  939MOL0     H23903   3.372   3.587   7.865 -0.5287 -0.2349  1.9431
  939MOL0     H23904   3.314   3.723   8.058 -2.0518 -2.9428 -1.6852
  939MOL0     H23905   3.472   3.719   8.131 -0.2559  0.6864 -0.4757
  939MOL0     H23906   3.458   3.481   8.166 -1.6242 -3.9848 -0.5558
  939MOL0     H23907   3.327   3.575   8.257 -1.4019 -2.0251  0.3491
  939MOL0     H23908   3.255   3.345   8.157  0.9846  0.6717  1.8269
  939MOL0     H23909   3.326   3.408   7.999  0.6101  2.5206  0.1438
  939MOL0     H23910   2.911   3.434   7.943 -3.4339  0.1364  0.5870
  939MOL0     H23911   2.713   3.348   8.047  0.7885 -2.7834  0.9297
  939MOL0     H23912   2.584   3.080   8.385 -1.2739 -2.8228 -0.8753
  939MOL0     H23913   2.388   2.965   8.533 -2.6148 -0.4862 -0.9798
  939MOL0     H23914   1.994   3.033   8.442 -1.9729  0.3823 -0.1431
  939MOL0     H23915   2.009   3.168   8.554 -1.3503  0.3059 -4.2646
  939MOL0     H23916   1.990   3.006   8.740 -0.4947  0.4243 -0.4696
  939MOL0     H23917   1.947   2.876   8.616  1.0329 -0.8957 -0.4337
  939MOL0     H23918   1.759   2.975   8.534 -0.9812  0.2014 -0.4192
  939MOL0     H23919   1.789   3.128   8.618 -0.8638 -0.4747 -1.0780
  939MOL0     H23920   1.720   2.860   8.737  1.2784  0.2033 -0.1199
  939MOL0     H23921   1.786   2.993   8.840 -0.4743 -4.8700  1.1096
  939MOL0     H23922   1.543   3.011   8.665 -0.8887 -2.1238  0.0517
  939MOL0     H23923   1.602   3.129   8.798 -0.8149  0.6570  0.0962
  939MOL0     H23924   1.584   2.923   8.954  2.9679 -1.2689 -2.2392
  939MOL0     H23925   1.510   2.837   8.825  2.6887 -0.4398  0.7966
  939MOL0     H23926   1.370   3.075   8.944  1.2773 -1.5968  3.6006
  939MOL0     H23927   1.332   2.992   8.793 -0.0278  1.3148 -0.2691
  939MOL0     H23928   1.205   2.916   9.002  0.8924 -0.4604 -0.1560
  939MOL0     H23929   1.366   2.867   9.069 -0.0983  0.4350  0.6320
  939MOL0     H23930   2.139   3.282   8.441  0.1059 -0.1568  3.4987
  939MOL0     H23931   2.294   3.387   8.291 -0.6455  1.4361  3.7610
  939MOL0     H23932   2.893   3.436   8.431 -1.9760  3.3124  0.6887
  939MOL0     H23933   3.099   3.488   8.315  0.2105 -1.1423 -0.0275
  939MOL0     H23934   4.699   4.650   7.827 -0.1193 -0.2674  0.9013
  939MOL0     H23935   4.938   4.683   7.788 -1.0541 -0.8426 -4.3683
  939MOL0     H23936   5.336   4.565   7.494 -1.1814  0.5853  0.4756
  939MOL0     H23937   5.561   4.616   7.492  0.3084  2.9067 -0.8576
  939MOL0     H23938   5.718   4.777   7.538 -1.5506  0.1037  0.9620
  939MOL0     H23939   5.794   4.617   7.535  1.0600 -1.4794  1.0724
  939MOL0     H23940   5.953   4.831   7.553 -1.2008 -3.1559 -3.2864
  939MOL0     H23941   5.891   4.836   7.725  2.6651 -0.6263  1.0131
  939MOL0     H23942   6.033   4.599   7.611  0.9373 -1.4506  1.5740
  939MOL0     H23943   5.954   4.613   7.771  3.5180  0.3010  2.4504
  939MOL0     H23944   6.191   4.754   7.668 -1.0600  4.1912 -0.4643
  939MOL0     H23945   6.104   4.819   7.807  1.6188  0.0741  0.5632
  939MOL0     H23946   6.272   4.486   7.990 -0.9474  0.9229  0.6483
  939MOL0     H23947   5.572   4.675   7.926  0.1287 -2.8952  1.3781
  939MOL0     H23948   5.339   4.626   7.927  0.7323 -0.0983  0.5454
  940MOL0     O23949   7.520   5.846   9.198  0.6096  0.5903  0.8567
  940MOL0     C23950   7.409   5.891   9.168  0.4026 -0.6933  0.2118
  940MOL0     O23951   7.369   6.013   9.217 -0.0159 -0.2058  0.7914
  940MOL0     C23952   7.461   6.100   9.279  0.6229  0.1343  0.0972
  940MOL0     C23953   7.556   6.180   9.212  0.3343  0.0620 -0.1332
  940MOL0     C23954   7.634   6.279   9.273  0.6053 -0.5595 -0.0235
  940MOL0     C23955   7.617   6.291   9.412 -0.4975 -0.8913  0.3604
  940MOL0     O23956   7.680   6.385   9.481 -0.1877 -0.5731  0.3491
  940MOL0     C23957   7.822   6.368   9.479 -1.1750  0.0087  0.0862
  940MOL0     C23958   7.894   6.451   9.588  0.2412 -0.5844  0.3242
  940MOL0     C23959   8.040   6.413   9.621  0.5436 -0.2008  0.2397
  940MOL0     C23960   8.136   6.436   9.500  1.3489 -0.4236 -0.2525
  940MOL0     C23961   8.280   6.397   9.520 -0.2619  0.2214  0.0586
  940MOL0     C23962   8.345   6.388   9.377 -0.4167 -0.1796  0.5184
  940MOL0     C23963   8.497   6.334   9.402  0.7863 -0.0971  0.3542
  940MOL0     C23964   8.594   6.344   9.282  0.5453 -0.7811  0.2299
  940MOL0     N23965   8.736   6.333   9.310 -0.0060  0.2149 -0.4351
  940MOL0     C23966   8.824   6.427   9.367  0.5922  0.6111 -0.1365
  940MOL0     C23967   8.944   6.363   9.358 -0.5471 -0.3900  0.0899
  940MOL0     C23968   9.077   6.426   9.384  0.1339  0.0843  0.1995
  940MOL0     C23969   9.205   6.343   9.348 -0.6475  0.4008  0.1306
  940MOL0     C23970   9.235   6.239   9.457  0.2360 -0.3793 -0.6517
  940MOL0     C23971   9.352   6.150   9.421 -0.7391 -1.0865  0.6171
  940MOL0     O23972   9.469   6.231   9.417 -0.0816 -1.1157 -0.1407
  940MOL0     C23973   9.591   6.188   9.382  0.2469  0.2254 -0.4807
  940MOL0     C23974   9.613   6.157   9.244  0.5331  0.4863  0.4753
  940MOL0     C23975   9.741   6.117   9.207 -0.7064  1.0022  0.1470
  940MOL0     C23976   9.843   6.091   9.300  0.3303 -0.4942  0.5008
  940MOL0     C23977   9.984   6.046   9.265 -1.0498 -0.5227  0.3719
  940MOL0     O23978  10.074   6.022   9.362 -0.1463  0.6570  0.6757
  940MOL0     C23979  10.203   5.969   9.327 -0.4482  0.4013 -0.4258
  940MOL0     C23980  10.219   5.839   9.291  0.3577  0.5954  0.0208
  940MOL0     C23981  10.341   5.771   9.270 -0.8389 -0.4584 -0.0958
  940MOL0     C23982  10.455   5.852   9.293  0.0189 -0.4360  0.1633
  940MOL0     O23983  10.576   5.787   9.282  0.5636 -0.4529  0.5057
  940MOL0     C23984  10.706   5.859   9.281 -0.1411  0.1879 -0.5014
  940MOL0     C23985  10.819   5.757   9.291  0.2195  0.2706 -0.3174
  940MOL0     C23986  10.962   5.824   9.316  0.9818 -0.2808  1.0396
  940MOL0     C23987  11.078   5.725   9.301  0.7381  0.0769 -0.0018
  940MOL0     C23988  11.203   5.786   9.371 -0.1835  0.4702 -0.2897
  940MOL0     C23989  11.328   5.692   9.368 -0.5851 -0.2412 -0.1358
  940MOL0     C23990  11.441   5.771   9.433  0.4425 -0.8367  0.1396
  940MOL0     C23991  11.545   5.684   9.499 -0.2221  0.1351 -1.0874
  940MOL0    Cl23992  11.673   5.775   9.589  0.1496 -0.1758 -0.2036
  940MOL0     C23993  10.445   5.989   9.329  0.0492 -0.1606  0.2249
  940MOL0     C23994  10.316   6.046   9.350 -0.3442  0.1744 -0.4358
  940MOL0     O23995   9.999   6.015   9.147  0.1805  0.1190  0.0683
  940MOL0     C23996   9.820   6.132   9.435  1.0506 -0.1688  1.5413
  940MOL0     C23997   9.694   6.172   9.472 -0.6035  0.4122  0.3184
  940MOL0     N23998   8.925   6.229   9.326  0.5285  0.3207 -0.4973
  940MOL0     N23999   8.797   6.212   9.287 -0.7644  0.0148 -1.1099
  940MOL0     C24000   7.534   6.205   9.480  0.0887 -0.3101 -0.1074
  940MOL0     C24001   7.451   6.115   9.416 -0.3755  0.0003 -0.1366
  940MOL0     C24002   7.310   5.824   9.082 -0.2449 -0.5402 -0.8985
  940MOL0     C24003   7.339   5.692   9.041 -0.4599  0.1808 -0.4153
  940MOL0     C24004   7.249   5.609   8.983  0.1696  0.3249  0.1489
  940MOL0     C24005   7.119   5.659   8.955  0.0016  0.3457  0.0327
  940MOL0     O24006   7.032   5.575   8.888 -0.2071 -0.1164  0.3381
  940MOL0     C24007   6.905   5.626   8.845 -0.0435  0.0055  0.2077
  940MOL0     C24008   6.853   5.530   8.745 -0.1758  0.2908 -0.6203
  940MOL0     C24009   6.884   5.594   8.612  0.3760  0.4513 -0.5110
  940MOL0     C24010   7.032   5.593   8.584 -0.1048  0.0236 -0.9810
  940MOL0     C24011   7.057   5.660   8.456 -0.1670  0.2343  0.0139
  940MOL0     C24012   7.099   5.711   8.357  0.0798  0.5137 -0.0457
  940MOL0     C24013   7.091   5.793   8.991 -0.1588 -0.5911 -0.9085
  940MOL0     C24014   7.182   5.876   9.055 -0.4391  1.0476 -0.6643
  940MOL0     H24015   7.572   6.157   9.107  0.9353 -1.7457  0.3135
  940MOL0     H24016   7.708   6.350   9.236  0.4423 -0.2281  0.2825
  940MOL0     H24017   7.855   6.392   9.378 -1.2160 -0.0907  0.0481
  940MOL0     H24018   7.845   6.263   9.500  0.0747 -0.5856 -3.5392
  940MOL0     H24019   7.838   6.433   9.680  0.7429  1.5203  1.0852
  940MOL0     H24020   7.888   6.559   9.574  2.3816 -0.2219  1.6835
  940MOL0     H24021   8.043   6.306   9.645 -1.2405 -0.6985 -1.5013
  940MOL0     H24022   8.085   6.468   9.704  1.6198  1.5257 -1.4098
  940MOL0     H24023   8.088   6.381   9.418 -2.5617  0.9187  0.8836
  940MOL0     H24024   8.135   6.543   9.478  3.5205 -0.2404  0.3636
  940MOL0     H24025   8.290   6.302   9.572 -1.4393  0.9519  1.7027
  940MOL0     H24026   8.342   6.468   9.577  1.8407 -0.3093 -1.4234
  940MOL0     H24027   8.346   6.491   9.339  0.4154  0.6098  2.5619
  940MOL0     H24028   8.296   6.322   9.305  2.9084 -1.4665 -0.7800
  940MOL0     H24029   8.545   6.393   9.481  2.6712  1.9516 -2.0993
  940MOL0     H24030   8.496   6.232   9.440  1.3350 -0.0102  0.6090
  940MOL0     H24031   8.571   6.439   9.231  0.0029 -1.7372 -1.3868
  940MOL0     H24032   8.589   6.256   9.218  1.2654 -2.2426  2.0923
  940MOL0     H24033   8.798   6.528   9.397 -2.9253  0.4684 -2.1399
  940MOL0     H24034   9.086   6.433   9.493  2.8567  0.0161  0.0534
  940MOL0     H24035   9.086   6.520   9.330 -1.8595 -0.0026 -0.3393
  940MOL0     H24036   9.294   6.406   9.337 -0.6580  0.4816  0.4986
  940MOL0     H24037   9.182   6.286   9.258  1.3359 -1.5249  0.7722
  940MOL0     H24038   9.250   6.283   9.556  0.8020 -1.0125 -0.4537
  940MOL0     H24039   9.151   6.170   9.466  2.1617 -2.5493  2.2764
  940MOL0     H24040   9.336   6.108   9.321 -0.3121  0.0054  0.0719
  940MOL0     H24041   9.353   6.063   9.488  1.5686 -3.0652 -1.7856
  940MOL0     H24042   9.540   6.169   9.165  2.1105 -0.3480 -1.1876
  940MOL0     H24043   9.759   6.105   9.101  1.1939 -4.7219  0.7691
  940MOL0     H24044  10.130   5.778   9.281 -0.5704  1.3804  2.5388
  940MOL0     H24045  10.345   5.670   9.232 -4.2321 -0.2510 -1.3720
  940MOL0     H24046  10.701   5.924   9.368 -0.8096  1.4845 -1.4759
  940MOL0     H24047  10.708   5.919   9.189 -2.3329  0.1577 -0.6112
  940MOL0     H24048  10.829   5.707   9.194 -0.8357  1.4773 -1.0921
  940MOL0     H24049  10.800   5.684   9.370  0.6001  1.4308  0.8784
  940MOL0     H24050  10.966   5.867   9.416  2.6054  2.6567 -0.1613
  940MOL0     H24051  10.968   5.913   9.253 -4.1461  0.6557  1.4732
  940MOL0     H24052  11.055   5.637   9.362 -0.1017  2.6755  3.8144
  940MOL0     H24053  11.092   5.707   9.194 -0.9298  3.1413 -0.8288
  940MOL0     H24054  11.187   5.803   9.478  0.4501  1.6417 -0.3656
  940MOL0     H24055  11.231   5.884   9.334 -0.2047  1.0315  1.0988
  940MOL0     H24056  11.354   5.657   9.268 -0.6532 -0.7123  0.0071
  940MOL0     H24057  11.304   5.607   9.432  1.9169  0.9458  2.6338
  940MOL0     H24058  11.491   5.835   9.360  0.9424  0.3056  1.4276
  940MOL0     H24059  11.401   5.836   9.512 -0.5815 -0.0812 -0.9725
  940MOL0     H24060  11.596   5.625   9.422  0.4242 -0.6052 -0.1119
  940MOL0     H24061  11.497   5.611   9.564 -1.6766 -2.5175 -4.8103
  940MOL0     H24062  10.542   6.037   9.338  0.6819 -1.5226  1.1151
  940MOL0     H24063  10.312   6.149   9.386  0.1979  0.3606 -0.9082
  940MOL0     H24064   9.913   6.138   9.490  4.0396 -0.6720 -2.9222
  940MOL0     H24065   9.675   6.206   9.574 -1.9870 -1.4805  0.7491
  940MOL0     H24066   7.529   6.228   9.586 -0.0342 -0.1247 -0.1526
  940MOL0     H24067   7.371   6.066   9.470 -2.2951  1.8062 -1.1547
  940MOL0     H24068   7.439   5.654   9.057 -0.6050  0.0677  0.2723
  940MOL0     H24069   7.271   5.509   8.947  0.0345  1.2903 -2.9026
  940MOL0     H24070   6.902   5.731   8.812  0.6696 -0.1005 -0.2081
  940MOL0     H24071   6.846   5.618   8.937  0.5203 -0.3465  0.5427
  940MOL0     H24072   6.903   5.434   8.761  2.6086  1.8629  0.9022
  940MOL0     H24073   6.748   5.519   8.772  0.2987 -0.5701  1.0287
  940MOL0     H24074   6.845   5.696   8.602 -0.0099  0.2649 -0.9469
  940MOL0     H24075   6.824   5.538   8.539 -2.0494 -0.3069  1.9102
  940MOL0     H24076   7.088   5.645   8.662 -1.1490  1.6924 -1.3055
  940MOL0     H24077   7.060   5.488   8.572 -0.3626  0.0654 -2.0556
  940MOL0     H24078   7.118   5.770   8.270 -2.0709  1.1224 -0.1501
  940MOL0     H24079   6.991   5.833   8.985 -0.0384 -0.2911 -0.9427
  940MOL0     H24080   7.154   5.978   9.082  2.0022  1.4076  0.8258
  941MOL0     O24081   0.576   4.209   2.813  0.0585  0.1420  0.3674
  941MOL0     C24082   0.580   4.144   2.708  0.5223  0.1469  0.5752
  941MOL0     O24083   0.469   4.088   2.641 -0.4309  0.9434 -0.1740
  941MOL0     C24084   0.345   4.128   2.673 -0.0302  0.3984 -0.0609
  941MOL0     C24085   0.312   4.265   2.699  0.2719 -0.0382  0.3669
  941MOL0     C24086   0.174   4.303   2.726  0.4025  0.4109  0.1621
  941MOL0     C24087   0.074   4.211   2.742 -0.3918  0.5205 -0.5350
  941MOL0     O24088  -0.058   4.236   2.784 -0.3339 -0.3419  0.1935
  941MOL0     C24089  -0.101   4.369   2.831  0.0174 -0.3326  0.1412
  941MOL0     C24090  -0.041   4.416   2.955 -1.2138 -0.5365 -0.4877
  941MOL0     C24091  -0.079   4.336   3.087 -0.2615  0.3666 -0.8566
  941MOL0     C24092  -0.081   4.439   3.206  0.4870 -0.6269  0.5950
  941MOL0     C24093  -0.177   4.380   3.313  0.7527 -0.8036 -0.0702
  941MOL0     C24094  -0.167   4.455   3.447 -0.6081 -0.8382 -0.3519
  941MOL0     C24095  -0.285   4.417   3.539 -0.0333  1.1974 -0.0513
  941MOL0     C24096  -0.282   4.467   3.687  0.2298 -0.8654  0.4521
  941MOL0     N24097  -0.417   4.458   3.743  0.2115 -0.7344  0.2799
  941MOL0     C24098  -0.525   4.539   3.717  1.1755  0.0820  0.5130
  941MOL0     C24099  -0.616   4.508   3.812  0.1687  0.0274 -0.7066
  941MOL0     C24100  -0.746   4.586   3.835  0.0808 -0.0880 -0.8513
  941MOL0     C24101  -0.820   4.561   3.971 -0.4459  0.1745 -0.2148
  941MOL0     C24102  -0.955   4.626   3.961  0.8870 -0.2485 -0.1560
  941MOL0     C24103  -1.041   4.623   4.086 -1.1405  0.5398  0.6287
  941MOL0     O24104  -1.153   4.715   4.059 -0.5741 -0.1989 -0.0794
  941MOL0     C24105  -1.269   4.683   4.122 -0.3500  0.1851 -0.1389
  941MOL0     C24106  -1.287   4.603   4.225  0.2957  1.0222 -0.7628
  941MOL0     C24107  -1.412   4.584   4.284  0.4722  0.2719  0.1295
  941MOL0     C24108  -1.526   4.646   4.234  1.2566 -0.0479  0.1385
  941MOL0     C24109  -1.665   4.621   4.283 -1.0609 -0.4937  0.3792
  941MOL0     O24110  -1.762   4.716   4.240  0.6265  0.4191  0.2893
  941MOL0     C24111  -1.888   4.714   4.303 -0.2998 -0.8129 -0.7675
  941MOL0     C24112  -1.943   4.837   4.346 -0.2054  1.2568 -0.2180
  941MOL0     C24113  -2.071   4.839   4.417  0.5021 -0.5967 -0.1854
  941MOL0     C24114  -2.137   4.718   4.432  0.3716  1.0014  0.2748
  941MOL0     O24115  -2.254   4.691   4.491  0.0442  0.2674 -0.7523
  941MOL0     C24116  -2.339   4.797   4.533  0.3314  0.0476  0.1824
  941MOL0     C24117  -2.313   4.813   4.688  0.0061  1.1923  0.0620
  941MOL0     C24118  -2.377   4.949   4.727  0.1108 -0.6276 -0.2533
  941MOL0     C24119  -2.336   5.006   4.865 -0.8002  1.0186 -0.4871
  941MOL0     C24120  -2.402   4.944   4.983  0.0247 -0.8027 -0.5132
  941MOL0     C24121  -2.547   4.979   5.002 -0.2483  0.1893  0.0323
  941MOL0     C24122  -2.607   4.918   5.125  0.0809  0.3888  0.1796
  941MOL0     C24123  -2.647   4.775   5.105 -0.5888  0.7356  0.2422
  941MOL0    Cl24124  -2.665   4.678   5.257 -0.0851  0.2262 -0.5188
  941MOL0     C24125  -2.085   4.603   4.385 -0.1808  0.6196  1.4623
  941MOL0     C24126  -1.969   4.600   4.302 -0.0123  0.3392  0.1184
  941MOL0     O24127  -1.683   4.534   4.365 -0.4272 -0.1898 -0.6092
  941MOL0     C24128  -1.506   4.735   4.126 -0.2455 -0.4488 -0.5639
  941MOL0     C24129  -1.378   4.752   4.066 -0.3503 -0.4560 -0.2670
  941MOL0     N24130  -0.572   4.403   3.891 -0.1916  0.0608  0.6692
  941MOL0     N24131  -0.459   4.364   3.840  0.0043 -0.7123 -0.8917
  941MOL0     C24132   0.118   4.077   2.713  0.2833 -0.3186 -0.1354
  941MOL0     C24133   0.243   4.036   2.681 -0.6796 -0.2373  0.0443
  941MOL0     C24134   0.712   4.110   2.648 -0.9251 -0.5075  1.4093
  941MOL0     C24135   0.832   4.175   2.688 -0.2479 -0.9725  0.8030
  941MOL0     C24136   0.957   4.157   2.625  0.6856  0.1119  0.7366
  941MOL0     C24137   0.963   4.067   2.516 -0.0188 -0.2910 -0.4599
  941MOL0     O24138   1.084   4.058   2.445  0.3109 -0.8622  0.1189
  941MOL0     C24139   1.136   3.925   2.452  0.7501 -0.3929  0.6950
  941MOL0     C24140   1.192   3.890   2.312  0.1156  1.0167 -0.3297
  941MOL0     C24141   1.076   3.847   2.221  0.4227  0.4320 -0.6430
  941MOL0     C24142   1.114   3.749   2.111 -0.0879  0.5269  0.3281
  941MOL0     C24143   1.210   3.810   2.013  0.2632 -0.4225  0.6906
  941MOL0     C24144   1.281   3.857   1.922  0.4857 -0.3474  0.2204
  941MOL0     C24145   0.848   4.004   2.467 -0.2581 -0.2024 -0.6042
  941MOL0     C24146   0.722   4.022   2.535  0.2772  0.3252  0.6854
  941MOL0     H24147   0.380   4.348   2.684  2.7196 -1.9759  0.1532
  941MOL0     H24148   0.146   4.407   2.739  0.4330  0.2331  1.8786
  941MOL0     H24149  -0.210   4.375   2.834 -0.0321 -1.3905  2.5300
  941MOL0     H24150  -0.061   4.436   2.755  2.2939 -1.0048  0.6640
  941MOL0     H24151  -0.070   4.522   2.961 -1.3161 -0.6397  1.7007
  941MOL0     H24152   0.068   4.424   2.948 -1.3253  0.0455 -1.8794
  941MOL0     H24153   0.004   4.265   3.098  2.2003  3.1605 -0.0598
  941MOL0     H24154  -0.171   4.276   3.088 -2.1845  3.1328 -0.0826
  941MOL0     H24155   0.020   4.450   3.245  0.3939 -1.5647  1.1339
  941MOL0     H24156  -0.123   4.537   3.178 -1.6250 -2.1118 -1.9956
  941MOL0     H24157  -0.173   4.274   3.336 -0.1807 -1.1831 -1.5115
  941MOL0     H24158  -0.280   4.393   3.277  0.5616 -0.6642  0.5126
  941MOL0     H24159  -0.175   4.563   3.430  0.3806 -0.7348 -0.2434
  941MOL0     H24160  -0.075   4.443   3.504 -0.2721  0.8878 -0.4717
  941MOL0     H24161  -0.380   4.455   3.500  0.1655  2.3404  0.5331
  941MOL0     H24162  -0.284   4.307   3.539 -0.8206  1.1583 -2.0105
  941MOL0     H24163  -0.246   4.569   3.698 -0.0020 -0.5581 -1.4304
  941MOL0     H24164  -0.215   4.417   3.758  1.0230  1.7219  1.6318
  941MOL0     H24165  -0.546   4.620   3.648  0.0982  0.1810  0.9275
  941MOL0     H24166  -0.815   4.553   3.757 -1.2495  0.3686  0.0972
  941MOL0     H24167  -0.728   4.692   3.818  3.7308 -0.6331 -1.3046
  941MOL0     H24168  -0.763   4.603   4.054 -0.3035 -0.6404  0.1133
  941MOL0     H24169  -0.832   4.454   3.993 -1.4955  0.2952 -0.1556
  941MOL0     H24170  -0.953   4.731   3.932 -1.4685 -0.7235 -2.3964
  941MOL0     H24171  -1.005   4.567   3.884  0.6619 -1.6529  1.0131
  941MOL0     H24172  -0.986   4.655   4.174  1.9228  1.7451 -1.5491
  941MOL0     H24173  -1.076   4.520   4.096  1.5318 -0.8885 -2.7263
  941MOL0     H24174  -1.211   4.540   4.270 -0.8118  0.8614  0.9454
  941MOL0     H24175  -1.413   4.525   4.375 -1.0451 -3.5054 -2.1209
  941MOL0     H24176  -1.895   4.934   4.345  0.9546  0.7685  1.8627
  941MOL0     H24177  -2.101   4.931   4.465  2.0625 -0.2497  0.1814
  941MOL0     H24178  -2.443   4.773   4.508  0.2819  0.4782 -0.0401
  941MOL0     H24179  -2.322   4.886   4.471 -1.4692  1.2934  1.3747
  941MOL0     H24180  -2.207   4.810   4.716  0.1893  1.3979 -0.5872
  941MOL0     H24181  -2.358   4.727   4.738 -0.3938  1.6008  0.4249
  941MOL0     H24182  -2.485   4.937   4.714  0.1147  1.2484 -2.7871
  941MOL0     H24183  -2.350   5.029   4.657  3.0323  0.1146  1.5544
  941MOL0     H24184  -2.231   4.978   4.879 -1.4242 -0.9504  0.7258
  941MOL0     H24185  -2.340   5.115   4.870  1.1612  1.2962 -2.9876
  941MOL0     H24186  -2.342   4.965   5.073  2.2353 -1.9771 -1.6248
  941MOL0     H24187  -2.395   4.835   4.979 -0.4345 -0.8073 -1.2556
  941MOL0     H24188  -2.610   4.957   4.915  1.5711  0.0242 -1.3225
  941MOL0     H24189  -2.550   5.088   5.005 -0.3156  0.2633 -1.6938
  941MOL0     H24190  -2.538   4.910   5.210  2.6542  1.4091 -1.6597
  941MOL0     H24191  -2.698   4.972   5.150  0.3347  0.2776  1.4479
  941MOL0     H24192  -2.565   4.724   5.053  1.1395  0.4578  3.0083
  941MOL0     H24193  -2.738   4.765   5.046 -0.8564 -1.6469  0.9533
  941MOL0     H24194  -2.131   4.507   4.404  0.4028  0.4336  1.9984
  941MOL0     H24195  -1.931   4.508   4.258  0.9651  2.4369 -3.8165
  941MOL0     H24196  -1.595   4.782   4.084  0.2869  0.1878 -1.0100
  941MOL0     H24197  -1.357   4.829   3.993  2.2066 -1.5778 -0.8408
  941MOL0     H24198   0.041   4.002   2.732  1.2109 -1.4721 -0.7831
  941MOL0     H24199   0.260   3.931   2.658 -1.1362  0.2788 -3.1030
  941MOL0     H24200   0.829   4.251   2.765  1.6258  0.3700 -0.3593
  941MOL0     H24201   1.046   4.213   2.653  2.7787 -1.8232 -1.5611
  941MOL0     H24202   1.057   3.858   2.488 -1.3574  0.7479 -1.5134
  941MOL0     H24203   1.218   3.924   2.524  2.9679 -2.8596 -1.6377
  941MOL0     H24204   1.251   3.979   2.289  2.1448 -0.0593  0.4363
  941MOL0     H24205   1.259   3.803   2.321 -1.0435  0.1256 -0.0106
  941MOL0     H24206   1.031   3.935   2.173  0.4043  0.7193 -0.1051
  941MOL0     H24207   0.995   3.800   2.278  1.9796  0.1416  1.4414
  941MOL0     H24208   1.171   3.672   2.164  0.6644  0.0621 -1.1004
  941MOL0     H24209   1.029   3.708   2.055 -1.0377  1.1071  1.3020
  941MOL0     H24210   1.335   3.911   1.847 -0.4181  2.1196  1.2352
  941MOL0     H24211   0.851   3.922   2.396  0.0014 -0.1688 -0.6350
  941MOL0     H24212   0.633   3.966   2.510  0.8646 -0.3989  0.1779
  942MOL0     O24213  10.187   8.320   0.250 -0.1609 -0.2992 -0.2038
  942MOL0     C24214  10.196   8.408   0.164 -0.2168  0.3850 -0.0730
  942MOL0     O24215  10.116   8.514   0.146 -0.5699  0.4083 -0.1657
  942MOL0     C24216   9.988   8.495   0.172 -0.2011 -0.5934 -0.3654
  942MOL0     C24217   9.928   8.544   0.287 -1.7107 -0.8142  0.1275
  942MOL0     C24218   9.794   8.516   0.301  0.0378  0.2536 -0.7494
  942MOL0     C24219   9.714   8.478   0.199 -0.0295  0.3658  0.7525
  942MOL0     O24220   9.581   8.475   0.193  0.3843 -0.0491 -0.2349
  942MOL0     C24221   9.512   8.426   0.311 -0.7635 -0.1932  0.9156
  942MOL0     C24222   9.359   8.452   0.297  0.2400  0.4432  0.2397
  942MOL0     C24223   9.276   8.355   0.379  1.2682  0.2356  0.4669
  942MOL0     C24224   9.125   8.373   0.343  0.5913  0.8213  0.0287
  942MOL0     C24225   9.040   8.252   0.383 -0.4846  0.1066  1.0235
  942MOL0     C24226   8.890   8.282   0.382  0.3755  0.9247 -0.1509
  942MOL0     C24227   8.818   8.162   0.435  0.2545 -0.3324  0.4879
  942MOL0     C24228   8.670   8.165   0.401  0.1000  0.0325  0.2741
  942MOL0     N24229   8.586   8.247   0.484  0.0779  0.2869  0.0695
  942MOL0     C24230   8.600   8.257   0.620  0.0365  0.2677 -0.8468
  942MOL0     C24231   8.545   8.374   0.659  0.0320  0.8911 -0.7689
  942MOL0     C24232   8.532   8.417   0.800  0.7237  0.7496 -0.5873
  942MOL0     C24233   8.380   8.449   0.833 -0.9270  0.1083  0.2323
  942MOL0     C24234   8.348   8.424   0.978  0.1904  0.8801  0.2253
  942MOL0     C24235   8.194   8.440   1.010  0.5545  0.4686  0.7918
  942MOL0     O24236   8.157   8.576   1.041 -1.0078 -0.3399  0.3021
  942MOL0     C24237   8.019   8.599   1.060 -0.2089 -0.3753 -0.1428
  942MOL0     C24238   7.968   8.597   1.186  0.4360  0.1685 -0.3581
  942MOL0     C24239   7.829   8.578   1.205 -0.3176 -0.4479 -0.3158
  942MOL0     C24240   7.741   8.554   1.097 -0.1719  1.1211 -0.7213
  942MOL0     C24241   7.590   8.539   1.114 -0.3631  0.6056  0.6939
  942MOL0     O24242   7.527   8.450   1.031  1.0589  0.0917  0.0049
  942MOL0     C24243   7.396   8.433   1.054 -0.7304 -0.0212 -0.0361
  942MOL0     C24244   7.353   8.298   1.059 -0.0764 -0.0552  0.2020
  942MOL0     C24245   7.222   8.275   1.083 -0.7205  0.0179 -0.2292
  942MOL0     C24246   7.123   8.379   1.072 -0.3521  0.3427  0.0893
  942MOL0     O24247   6.996   8.336   1.083 -0.4064 -0.1037 -0.2168
  942MOL0     C24248   6.914   8.377   0.973 -0.4532  0.1988  0.6713
  942MOL0     C24249   6.821   8.498   1.004  0.6879 -0.2901  0.3624
  942MOL0     C24250   6.736   8.462   1.127  0.1751  0.2696  0.5811
  942MOL0     C24251   6.640   8.575   1.170 -0.5907 -0.0572 -1.3329
  942MOL0     C24252   6.520   8.579   1.079 -0.8440  0.7498  0.7718
  942MOL0     C24253   6.410   8.667   1.141 -0.0746 -0.6036  0.2933
  942MOL0     C24254   6.286   8.668   1.059 -0.1653  0.4824  0.4198
  942MOL0     C24255   6.184   8.738   1.147 -0.6793 -0.2180  0.5077
  942MOL0    Cl24256   6.033   8.755   1.048 -0.1267 -0.0210  0.0445
  942MOL0     C24257   7.166   8.516   1.052 -0.7760  0.4387 -0.1119
  942MOL0     C24258   7.300   8.540   1.037  0.1116 -0.7875  0.5537
  942MOL0     O24259   7.536   8.601   1.204  0.3243  0.1403 -0.3510
  942MOL0     C24260   7.800   8.551   0.969  0.4564 -0.8548  0.1245
  942MOL0     C24261   7.935   8.571   0.951  0.2656  1.1961 -0.5460
  942MOL0     N24262   8.501   8.440   0.541  0.1210  0.0740  0.4963
  942MOL0     N24263   8.520   8.358   0.440 -0.0971  0.1999  0.2419
  942MOL0     C24264   9.772   8.443   0.075 -0.8964  0.1946 -0.0042
  942MOL0     C24265   9.913   8.436   0.074 -0.2406 -0.5355  0.2421
  942MOL0     C24266  10.332   8.414   0.087 -0.5066 -0.2693  0.1672
  942MOL0     C24267  10.415   8.309   0.113 -0.0493  0.5775 -0.6820
  942MOL0     C24268  10.537   8.299   0.054  0.4211 -0.7320  0.3534
  942MOL0     C24269  10.584   8.398  -0.031 -0.2429  0.2378  0.3658
  942MOL0     O24270  10.714   8.409  -0.087 -0.5713  0.2891  0.6371
  942MOL0     C24271  10.819   8.323  -0.039  0.5809  0.3426 -1.5612
  942MOL0     C24272  10.957   8.365  -0.096  0.3575  0.0181 -0.6000
  942MOL0     C24273  11.069   8.345   0.013 -0.2097 -0.5791  0.0621
  942MOL0     C24274  11.083   8.475   0.094 -0.5088  0.6791 -0.2208
  942MOL0     C24275  11.194   8.464   0.185 -0.5692 -0.2631  0.7673
  942MOL0     C24276  11.293   8.459   0.260  0.1985  0.0794  0.5060
  942MOL0     C24277  10.499   8.503  -0.067 -0.7959  0.2760 -0.0085
  942MOL0     C24278  10.375   8.509  -0.009 -0.2677 -0.1406 -0.2902
  942MOL0     H24279   9.982   8.587   0.370 -3.0115 -0.4864  0.8183
  942MOL0     H24280   9.746   8.541   0.395 -2.4814 -3.5174 -0.8156
  942MOL0     H24281   9.552   8.482   0.396  2.2862  0.4592 -0.7759
  942MOL0     H24282   9.528   8.322   0.339 -4.4471 -1.2928 -0.4537
  942MOL0     H24283   9.326   8.436   0.194  0.9129 -0.8317  0.1907
  942MOL0     H24284   9.341   8.556   0.324 -1.9848 -0.1999  1.5429
  942MOL0     H24285   9.287   8.384   0.484  0.7455  1.9793  0.0781
  942MOL0     H24286   9.313   8.253   0.366  2.5587  0.5489  1.5281
  942MOL0     H24287   9.091   8.458   0.403 -3.1235 -0.6433  0.2770
  942MOL0     H24288   9.113   8.381   0.234  0.6228 -5.7045 -0.8151
  942MOL0     H24289   9.069   8.215   0.482 -1.0894 -0.8843  0.8469
  942MOL0     H24290   9.072   8.174   0.314 -1.0155  0.6000  0.2113
  942MOL0     H24291   8.855   8.307   0.282 -2.4714  1.9230  0.9717
  942MOL0     H24292   8.873   8.366   0.450 -1.2541 -0.9855  2.0029
  942MOL0     H24293   8.859   8.074   0.384 -0.6621 -1.1798  1.1648
  942MOL0     H24294   8.834   8.147   0.543 -1.0962 -1.1719  0.5890
  942MOL0     H24295   8.634   8.063   0.418  0.1367 -0.5243 -2.5336
  942MOL0     H24296   8.668   8.210   0.301  0.9143 -0.3086  0.0952
  942MOL0     H24297   8.641   8.179   0.684  1.4595  1.2406 -0.5271
  942MOL0     H24298   8.607   8.494   0.815  2.3775 -0.7393 -0.8941
  942MOL0     H24299   8.571   8.340   0.867  2.7283 -0.6252 -3.1598
  942MOL0     H24300   8.318   8.386   0.768  1.5519 -1.3854 -0.8058
  942MOL0     H24301   8.357   8.555   0.816  0.6530  0.7255  1.7549
  942MOL0     H24302   8.370   8.320   1.000 -1.5003  0.5486  0.5216
  942MOL0     H24303   8.401   8.503   1.031 -1.8453  2.5578 -0.0878
  942MOL0     H24304   8.151   8.372   1.084 -2.8510  1.0863 -0.4144
  942MOL0     H24305   8.152   8.400   0.917  1.9380 -0.7112  0.6388
  942MOL0     H24306   8.027   8.607   1.277 -2.1218 -2.9716  1.9204
  942MOL0     H24307   7.801   8.593   1.309  3.9310  1.9489  0.7269
  942MOL0     H24308   7.420   8.213   1.059 -0.1238 -0.1282  1.9078
  942MOL0     H24309   7.197   8.173   1.112  0.4001  0.0859  1.0791
  942MOL0     H24310   6.846   8.295   0.948 -1.5867  1.0714  0.7460
  942MOL0     H24311   6.977   8.404   0.888  0.2828  1.5120  1.6050
  942MOL0     H24312   6.754   8.520   0.921  0.4426  0.5029  0.7634
  942MOL0     H24313   6.877   8.591   1.016  1.0143  0.1533 -3.5389
  942MOL0     H24314   6.807   8.433   1.205 -0.3273 -2.8650  0.0153
  942MOL0     H24315   6.676   8.376   1.096 -2.8269  2.8536 -1.4566
  942MOL0     H24316   6.610   8.556   1.274 -0.1410  2.5322 -0.6632
  942MOL0     H24317   6.699   8.667   1.180 -0.7816 -0.1661  1.9862
  942MOL0     H24318   6.487   8.475   1.074  2.6861 -0.4535 -0.9673
  942MOL0     H24319   6.553   8.596   0.976  0.1099 -1.2335  0.6852
  942MOL0     H24320   6.456   8.764   1.123  0.0543 -0.8827 -0.9769
  942MOL0     H24321   6.397   8.643   1.247  1.2826 -2.4286  0.1045
  942MOL0     H24322   6.302   8.718   0.963 -0.3024 -0.4057 -0.0797
  942MOL0     H24323   6.248   8.567   1.042  1.1652  0.2844 -1.6618
  942MOL0     H24324   6.206   8.836   1.191 -4.8146  0.2404  1.9783
  942MOL0     H24325   6.174   8.685   1.242 -2.3841 -0.6708  0.1109
  942MOL0     H24326   7.094   8.595   1.034  1.0366  1.9730 -1.0008
  942MOL0     H24327   7.321   8.644   1.015 -0.5998 -0.5150  1.1165
  942MOL0     H24328   7.740   8.535   0.880  1.7416 -2.7365 -0.4509
  942MOL0     H24329   7.973   8.559   0.850 -2.1321 -1.2035 -1.2589
  942MOL0     H24330   9.713   8.423  -0.013  1.4399  1.3168 -1.9503
  942MOL0     H24331   9.963   8.413  -0.020 -1.7146  3.0689 -1.6347
  942MOL0     H24332  10.387   8.229   0.181 -2.6778  0.8878 -1.2749
  942MOL0     H24333  10.592   8.214   0.095  0.9527 -0.2743  0.5994
  942MOL0     H24334  10.786   8.219  -0.051  0.9241 -0.5756  3.1898
  942MOL0     H24335  10.812   8.343   0.068 -0.5597 -3.0917 -0.8669
  942MOL0     H24336  10.963   8.299  -0.183  2.5103 -2.2702  1.1531
  942MOL0     H24337  10.959   8.465  -0.138 -0.0239  0.9122  1.3684
  942MOL0     H24338  11.169   8.309  -0.014 -1.1563 -3.9182  0.6409
  942MOL0     H24339  11.037   8.264   0.079 -2.5143  0.1052 -0.1219
  942MOL0     H24340  11.108   8.555   0.024 -1.8195  2.6045  1.4143
  942MOL0     H24341  10.985   8.494   0.138 -1.5354  0.1836 -2.1872
  942MOL0     H24342  11.387   8.452   0.311 -0.2007  2.4469  1.7115
  942MOL0     H24343  10.536   8.583  -0.130 -0.1065  0.9586  1.2097
  942MOL0     H24344  10.314   8.596  -0.031  2.6899  1.8678 -1.0598
  943MOL0     O24345   4.271   2.652   3.507  0.3219  0.1910 -1.1693
  943MOL0     C24346   4.320   2.716   3.413 -0.3595 -0.2074  0.7776
  943MOL0     O24347   4.265   2.796   3.319  0.2071  0.0633 -0.1190
  943MOL0     C24348   4.132   2.827   3.322  0.3867  0.7606  0.0463
  943MOL0     C24349   4.030   2.740   3.361 -0.3768  0.3663 -0.3115
  943MOL0     C24350   3.894   2.783   3.360  0.4260  0.2072  0.3433
  943MOL0     C24351   3.858   2.918   3.333 -0.2146  1.1834 -0.0177
  943MOL0     O24352   3.735   2.965   3.332  0.0652 -0.3079  0.4222
  943MOL0     C24353   3.639   2.912   3.422  0.4000 -0.3479 -0.3554
  943MOL0     C24354   3.676   2.936   3.564 -0.0529 -0.7184 -0.3860
  943MOL0     C24355   3.691   3.081   3.595  0.3932  0.6052 -0.7699
  943MOL0     C24356   3.716   3.096   3.742 -0.1200 -0.3820  0.1663
  943MOL0     C24357   3.728   3.246   3.771 -0.4051  0.8737 -0.3779
  943MOL0     C24358   3.801   3.285   3.894  0.0687 -0.2134 -0.0966
  943MOL0     C24359   3.764   3.420   3.952  0.0261  0.3143 -1.0222
  943MOL0     C24360   3.643   3.419   4.036  0.1233 -0.2194 -0.3868
  943MOL0     N24361   3.665   3.325   4.141 -0.5883 -0.3630 -0.0611
  943MOL0     C24362   3.741   3.355   4.253  0.1670  0.5925  0.3359
  943MOL0     C24363   3.703   3.260   4.343 -0.8182 -0.3954  0.3074
  943MOL0     C24364   3.762   3.255   4.481  0.1495 -0.2411 -0.0242
  943MOL0     C24365   3.867   3.141   4.493  0.5003  0.9235  0.4425
  943MOL0     C24366   3.974   3.153   4.378 -0.1169 -0.2178 -0.2279
  943MOL0     C24367   4.092   3.062   4.421 -0.4672  0.2082  0.9065
  943MOL0     O24368   4.169   3.041   4.299  0.1909  0.4991 -0.8189
  943MOL0     C24369   4.309   3.022   4.303  0.1468  0.5178  0.2457
  943MOL0     C24370   4.373   2.983   4.419 -0.9135  0.5277  0.3581
  943MOL0     C24371   4.514   2.982   4.413  0.1112 -0.1270 -0.2238
  943MOL0     C24372   4.590   3.018   4.301  0.0024 -0.0912 -0.5951
  943MOL0     C24373   4.740   3.008   4.314  0.8418 -0.7312 -0.3333
  943MOL0     O24374   4.810   3.003   4.194 -0.4642  0.3493 -0.1472
  943MOL0     C24375   4.944   2.980   4.207 -0.9275  0.2898  0.1107
  943MOL0     C24376   5.036   3.081   4.163  0.3533 -0.1694 -0.9148
  943MOL0     C24377   5.180   3.069   4.183 -0.7114  0.2143  1.0510
  943MOL0     C24378   5.220   2.946   4.241  0.5016  0.1079 -0.0992
  943MOL0     O24379   5.347   2.925   4.283 -0.5633  0.5964  0.0562
  943MOL0     C24380   5.440   2.927   4.171  0.2576 -0.0756  0.1486
  943MOL0     C24381   5.580   2.954   4.217  0.3841 -0.0886  0.1335
  943MOL0     C24382   5.638   2.818   4.283 -0.5745 -0.2844  0.3268
  943MOL0     C24383   5.783   2.833   4.337  0.0056 -0.0164 -0.0045
  943MOL0     C24384   5.813   2.713   4.433 -0.3991  0.1610 -1.1612
  943MOL0     C24385   5.816   2.569   4.361 -0.2978 -1.0823  0.1214
  943MOL0     C24386   5.888   2.459   4.441  0.4268  0.1265  0.0900
  943MOL0     C24387   5.984   2.371   4.351 -0.9761 -0.0758 -0.7283
  943MOL0    Cl24388   6.116   2.485   4.294  0.2221 -0.1417 -0.0662
  943MOL0     C24389   5.126   2.844   4.273 -0.1767  0.0810  0.3362
  943MOL0     C24390   4.991   2.861   4.254  0.1759 -0.1206  0.2345
  943MOL0     O24391   4.793   2.997   4.425  0.1153  0.2918 -0.1101
  943MOL0     C24392   4.518   3.052   4.186  0.3201  0.1652 -0.2413
  943MOL0     C24393   4.383   3.055   4.185  0.9250  0.4827 -0.5652
  943MOL0     N24394   3.618   3.176   4.281 -0.5466  0.2237  0.3308
  943MOL0     N24395   3.595   3.211   4.160 -1.0501 -0.2636 -0.0629
  943MOL0     C24396   3.968   3.004   3.302 -0.5872  0.5297  0.4740
  943MOL0     C24397   4.100   2.960   3.285  1.0940 -0.2337  0.5616
  943MOL0     C24398   4.469   2.719   3.411 -0.7893 -0.2946 -0.4034
  943MOL0     C24399   4.532   2.803   3.318  0.3653  0.1678 -0.7138
  943MOL0     C24400   4.673   2.824   3.313 -0.2460  0.4929 -1.0630
  943MOL0     C24401   4.756   2.752   3.402  0.2012  0.4250  0.6526
  943MOL0     O24402   4.889   2.763   3.379 -0.0873  0.2629  0.5626
  943MOL0     C24403   4.981   2.712   3.467  0.3605  1.0706 -0.4240
  943MOL0     C24404   5.122   2.760   3.444  0.0602  0.4068  0.8356
  943MOL0     C24405   5.212   2.699   3.544  0.1215  0.5459  0.4628
  943MOL0     C24406   5.350   2.743   3.518 -0.0908  0.6062 -0.0855
  943MOL0     C24407   5.395   2.707   3.382  0.1048 -0.1933 -0.2545
  943MOL0     C24408   5.415   2.681   3.263  0.4831  0.5420  0.2317
  943MOL0     C24409   4.689   2.670   3.497 -0.5901 -0.0405 -0.2807
  943MOL0     C24410   4.549   2.652   3.500 -0.1888  0.1869  0.3666
  943MOL0     H24411   4.049   2.637   3.390  0.6433  0.5146 -0.3881
  943MOL0     H24412   3.818   2.709   3.381 -0.4284  1.2655  1.0807
  943MOL0     H24413   3.619   2.811   3.388  1.5343 -0.1368 -1.7060
  943MOL0     H24414   3.546   2.966   3.403  0.5092  0.1952  0.5913
  943MOL0     H24415   3.768   2.883   3.592  2.0387  2.5753 -0.4955
  943MOL0     H24416   3.600   2.897   3.632 -1.6463  1.5830 -0.7409
  943MOL0     H24417   3.603   3.143   3.574 -0.4728  0.8163  2.8380
  943MOL0     H24418   3.776   3.124   3.540  1.8217  1.3735  1.8625
  943MOL0     H24419   3.636   3.051   3.800 -0.9811 -1.1413 -1.5449
  943MOL0     H24420   3.815   3.053   3.763  0.7190  2.4096  2.5419
  943MOL0     H24421   3.626   3.284   3.773  0.1560  2.4425 -0.4902
  943MOL0     H24422   3.780   3.286   3.684 -0.5779 -2.6694 -2.3288
  943MOL0     H24423   3.906   3.299   3.867 -0.4835  1.7091 -1.4723
  943MOL0     H24424   3.801   3.203   3.967  1.1719  0.4031  0.6269
  943MOL0     H24425   3.846   3.449   4.018 -1.8835  2.2234  0.6295
  943MOL0     H24426   3.756   3.489   3.868 -2.9189  0.8058 -0.4358
  943MOL0     H24427   3.548   3.389   3.991 -0.3500 -0.1948  0.5775
  943MOL0     H24428   3.627   3.516   4.084  2.8551 -0.0921  0.4484
  943MOL0     H24429   3.807   3.440   4.268 -1.1008  1.9092 -1.1924
  943MOL0     H24430   3.684   3.254   4.558  1.4665 -0.3657  1.3611
  943MOL0     H24431   3.812   3.350   4.502  2.3174 -1.2505 -0.3605
  943MOL0     H24432   3.805   3.051   4.480 -0.4260  1.9115 -3.5311
  943MOL0     H24433   3.910   3.132   4.593  2.3144 -0.0676 -0.3687
  943MOL0     H24434   3.933   3.120   4.283 -0.8288 -0.6555  0.2205
  943MOL0     H24435   4.000   3.259   4.388 -0.1749 -0.2994  1.0481
  943MOL0     H24436   4.051   2.963   4.445 -2.6021  0.8394  0.0777
  943MOL0     H24437   4.154   3.101   4.502 -0.8846 -2.1042  2.4202
  943MOL0     H24438   4.315   2.965   4.508 -0.1952  0.1732  0.7603
  943MOL0     H24439   4.559   2.955   4.508  0.3190 -1.4059 -0.6776
  943MOL0     H24440   5.000   3.181   4.139 -0.4997  0.5367  2.6832
  943MOL0     H24441   5.256   3.141   4.154  0.1193 -1.6449 -1.8670
  943MOL0     H24442   5.408   2.991   4.089 -1.1845  1.0622  1.5508
  943MOL0     H24443   5.452   2.828   4.125  2.7781  0.6383 -0.9046
  943MOL0     H24444   5.577   3.036   4.290 -0.7539 -1.3338  1.5722
  943MOL0     H24445   5.650   2.971   4.135  0.0686  0.7493  0.0255
  943MOL0     H24446   5.646   2.748   4.199  1.7305  0.7210 -0.3735
  943MOL0     H24447   5.566   2.784   4.358  0.5804 -1.6585  0.8576
  943MOL0     H24448   5.855   2.850   4.256 -0.7775  0.0373 -0.6993
  943MOL0     H24449   5.781   2.922   4.401  0.3331 -0.6406  0.8874
  943MOL0     H24450   5.745   2.696   4.517  1.2677  0.2040  0.2580
  943MOL0     H24451   5.911   2.737   4.474 -1.5256 -1.1551  2.7112
  943MOL0     H24452   5.871   2.584   4.267 -0.9078 -1.7071 -0.3396
  943MOL0     H24453   5.714   2.533   4.341 -0.4693 -1.0344  0.8849
  943MOL0     H24454   5.945   2.514   4.516  0.0082 -0.6452  0.9994
  943MOL0     H24455   5.831   2.384   4.497  2.5451  0.1115  2.4006
  943MOL0     H24456   5.917   2.333   4.274 -2.6895 -2.5539  1.7906
  943MOL0     H24457   6.027   2.288   4.408  0.9044  0.4353 -1.3213
  943MOL0     H24458   5.172   2.749   4.298  0.8230  0.5390  0.2809
  943MOL0     H24459   4.922   2.783   4.284 -0.8796  2.0358  4.1171
  943MOL0     H24460   4.573   3.090   4.101 -0.6610 -0.6314 -1.2664
  943MOL0     H24461   4.341   3.089   4.090 -3.1503  0.6011  1.0678
  943MOL0     H24462   3.947   3.108   3.281 -0.2940  0.2617 -1.3404
  943MOL0     H24463   4.173   3.036   3.258 -2.1552  2.8217 -0.2966
  943MOL0     H24464   4.481   2.868   3.247  0.9127 -0.7259 -1.9748
  943MOL0     H24465   4.717   2.890   3.238 -0.9447 -0.0092 -1.9453
  943MOL0     H24466   4.973   2.603   3.465 -1.3191  1.1200  1.0779
  943MOL0     H24467   4.939   2.732   3.566 -1.6318  3.7803 -1.6806
  943MOL0     H24468   5.153   2.720   3.346  0.8808 -3.3453  2.4480
  943MOL0     H24469   5.132   2.869   3.447 -1.0590  0.5486  4.9285
  943MOL0     H24470   5.198   2.590   3.541  1.6765  0.3642 -1.2462
  943MOL0     H24471   5.180   2.732   3.643  1.0632 -1.1239  1.3760
  943MOL0     H24472   5.355   2.852   3.529 -1.4138  0.7530 -0.7195
  943MOL0     H24473   5.414   2.682   3.582  0.1602 -0.3282 -1.1913
  943MOL0     H24474   5.434   2.669   3.159  3.8531 -0.8452  0.8731
  943MOL0     H24475   4.746   2.610   3.567 -1.0273  2.1177  2.0601
  943MOL0     H24476   4.505   2.591   3.578 -3.4399  3.3497  1.2897
  944MOL0     O24477   4.145   6.040   7.456  0.7803  0.1305  0.0247
  944MOL0     C24478   4.047   5.977   7.449  0.9169 -0.0330  0.4238
  944MOL0     O24479   4.007   5.888   7.349 -0.0894  0.7309  0.2471
  944MOL0     C24480   4.099   5.856   7.255 -0.0474  1.0460 -1.1833
  944MOL0     C24481   4.190   5.745   7.277  0.1922 -0.2618 -0.4263
  944MOL0     C24482   4.275   5.705   7.174 -0.6573 -0.3869  0.5425
  944MOL0     C24483   4.282   5.771   7.053  0.4028 -0.6209  0.7746
  944MOL0     O24484   4.381   5.761   6.961  0.0137 -0.0452 -0.1778
  944MOL0     C24485   4.516   5.730   7.004  0.0780 -0.5255  0.4428
  944MOL0     C24486   4.614   5.781   6.896  0.3044 -0.0087  0.8657
  944MOL0     C24487   4.619   5.678   6.788 -0.1095  0.1361  0.2395
  944MOL0     C24488   4.703   5.733   6.672  0.0238  0.0488 -0.4637
  944MOL0     C24489   4.708   5.652   6.545  0.5923  0.3536 -0.1606
  944MOL0     C24490   4.733   5.497   6.564  0.0901 -0.4931  0.0043
  944MOL0     C24491   4.761   5.439   6.431  0.4346 -0.0847  0.0630
  944MOL0     C24492   4.758   5.278   6.427  0.1450  0.3784  0.0179
  944MOL0     N24493   4.621   5.232   6.425  0.5118  0.7680  0.1263
  944MOL0     C24494   4.545   5.242   6.535 -0.6577 -0.0578  0.1811
  944MOL0     C24495   4.435   5.173   6.498 -0.1263 -0.0400  0.1581
  944MOL0     C24496   4.327   5.125   6.595  0.3439 -0.2537  0.1063
  944MOL0     C24497   4.211   5.234   6.587  0.5682 -0.5104  0.7132
  944MOL0     C24498   4.093   5.202   6.664  0.7954  0.3325  0.0234
  944MOL0     C24499   4.015   5.077   6.617 -0.2097 -0.3048  0.3523
  944MOL0     O24500   3.947   5.019   6.726  0.1218  0.6838  0.1926
  944MOL0     C24501   3.853   5.089   6.794  0.3069 -0.7007  0.2282
  944MOL0     C24502   3.807   5.050   6.927 -0.9408 -0.5769  0.8536
  944MOL0     C24503   3.713   5.121   7.002 -0.1162  1.5456 -0.3194
  944MOL0     C24504   3.662   5.239   6.944 -0.1726  0.5019 -0.3274
  944MOL0     C24505   3.557   5.320   7.001  0.5904  0.4923 -0.4477
  944MOL0     O24506   3.573   5.341   7.138 -0.3914  0.3305  0.2172
  944MOL0     C24507   3.462   5.392   7.191  0.0013  0.4154 -0.2001
  944MOL0     C24508   3.366   5.301   7.238 -0.3820  0.1802  0.1234
  944MOL0     C24509   3.240   5.343   7.288 -0.1490  0.7841  0.2697
  944MOL0     C24510   3.204   5.475   7.279 -0.0744 -0.2304 -0.1102
  944MOL0     O24511   3.076   5.521   7.304 -0.1451  0.5329  0.4088
  944MOL0     C24512   2.969   5.434   7.314  0.8884  0.6622 -0.0598
  944MOL0     C24513   2.832   5.504   7.361  0.5756  0.3234  0.3654
  944MOL0     C24514   2.847   5.544   7.505 -0.0862 -0.5090  0.1242
  944MOL0     C24515   2.727   5.620   7.564 -0.9361  0.3323 -0.1165
  944MOL0     C24516   2.741   5.633   7.724 -0.4379 -0.7134 -0.1826
  944MOL0     C24517   2.624   5.716   7.773 -0.5370  0.4897 -0.3635
  944MOL0     C24518   2.653   5.764   7.914  1.2022 -0.0622 -0.4622
  944MOL0     C24519   2.533   5.815   7.978  0.0948  0.4863  0.3975
  944MOL0    Cl24520   2.514   5.988   7.927  0.3011  0.2732 -0.0310
  944MOL0     C24521   3.301   5.564   7.235 -0.4090  0.3919 -0.1689
  944MOL0     C24522   3.430   5.529   7.192 -0.5173  0.6919  0.2765
  944MOL0     O24523   3.464   5.370   6.937 -0.2274 -0.3612  0.1247
  944MOL0     C24524   3.699   5.277   6.811  0.4789  0.2955  0.3205
  944MOL0     C24525   3.788   5.201   6.736 -0.1636 -1.0320  0.0174
  944MOL0     N24526   4.443   5.133   6.368 -0.4109  1.1096 -1.0267
  944MOL0     N24527   4.560   5.163   6.324 -0.0028 -0.1635 -0.1695
  944MOL0     C24528   4.186   5.873   7.031  0.2268  0.3546  0.1433
  944MOL0     C24529   4.088   5.911   7.129 -0.4352 -0.3819  0.4255
  944MOL0     C24530   3.938   6.032   7.541 -0.3395  0.4412 -0.3588
  944MOL0     C24531   3.971   6.072   7.677  0.5480  0.4551  1.5714
  944MOL0     C24532   3.878   6.108   7.765  0.0353  0.2046 -0.6388
  944MOL0     C24533   3.739   6.097   7.736 -0.5159  0.0109 -0.1342
  944MOL0     O24534   3.651   6.129   7.838 -0.3380  0.5774 -0.1208
  944MOL0     C24535   3.536   6.193   7.789  0.0231  0.2942  0.7429
  944MOL0     C24536   3.444   6.205   7.914  0.0252 -0.8902 -0.9212
  944MOL0     C24537   3.299   6.216   7.874 -0.3851  0.9647 -1.0313
  944MOL0     C24538   3.252   6.340   7.806 -0.0814  0.3120 -0.0123
  944MOL0     C24539   3.224   6.456   7.888 -0.2766 -0.4181  0.6882
  944MOL0     C24540   3.184   6.535   7.971  0.1904  0.1333 -0.0897
  944MOL0     C24541   3.702   6.071   7.600 -0.5535  0.8641 -0.5517
  944MOL0     C24542   3.803   6.047   7.503 -0.4781  0.7018  0.0013
  944MOL0     H24543   4.196   5.706   7.378  0.8361 -0.0584 -0.3816
  944MOL0     H24544   4.355   5.632   7.182  1.7449  1.8198 -1.6412
  944MOL0     H24545   4.514   5.621   7.008 -3.4415 -0.5463  0.8229
  944MOL0     H24546   4.543   5.776   7.100 -1.9653  0.7632  0.4622
  944MOL0     H24547   4.714   5.791   6.937 -0.0810 -1.0748  2.1391
  944MOL0     H24548   4.578   5.880   6.866  0.0642  0.2191  1.8579
  944MOL0     H24549   4.518   5.657   6.751 -0.8568  1.5451  1.3238
  944MOL0     H24550   4.650   5.581   6.827 -1.7440 -0.4492  0.1541
  944MOL0     H24551   4.652   5.827   6.649 -1.8785 -0.6494  0.6383
  944MOL0     H24552   4.807   5.762   6.689  0.3669 -0.8312 -0.9800
  944MOL0     H24553   4.784   5.691   6.476 -0.1833 -0.7547 -1.7255
  944MOL0     H24554   4.614   5.655   6.489 -0.9416 -1.3387  2.1519
  944MOL0     H24555   4.647   5.456   6.619  0.7014  0.3524  1.6673
  944MOL0     H24556   4.824   5.488   6.624  1.0724  2.4886 -0.8828
  944MOL0     H24557   4.700   5.466   6.344 -0.4860  0.2333  0.7992
  944MOL0     H24558   4.861   5.478   6.406  0.9043 -0.2717  1.5678
  944MOL0     H24559   4.809   5.233   6.512  0.3292 -1.9012 -1.2215
  944MOL0     H24560   4.807   5.246   6.335  0.1112  0.8351 -0.1621
  944MOL0     H24561   4.578   5.281   6.631 -1.1276 -0.6383  0.5841
  944MOL0     H24562   4.368   5.119   6.696 -1.9173  1.4883  1.2170
  944MOL0     H24563   4.292   5.026   6.564 -0.0043 -1.5473  4.1232
  944MOL0     H24564   4.173   5.247   6.485  1.9351 -2.9918 -0.2047
  944MOL0     H24565   4.248   5.332   6.618 -0.6416 -0.8344  3.5057
  944MOL0     H24566   4.129   5.194   6.767  1.0278 -0.0304 -0.0831
  944MOL0     H24567   4.025   5.288   6.661 -1.3478 -1.2979  0.1193
  944MOL0     H24568   4.081   5.006   6.567  0.4301  0.5145 -0.0006
  944MOL0     H24569   3.953   5.117   6.535  1.9021  0.3288 -1.0233
  944MOL0     H24570   3.862   4.969   6.972 -0.8685 -0.5761  0.7669
  944MOL0     H24571   3.677   5.086   7.098 -0.9079  1.5259 -0.6088
  944MOL0     H24572   3.391   5.196   7.237  0.4804  0.3787 -0.9814
  944MOL0     H24573   3.165   5.268   7.309 -2.3649  2.7747 -0.0551
  944MOL0     H24574   2.987   5.348   7.379 -0.2034 -0.6674 -1.4564
  944MOL0     H24575   2.953   5.388   7.216 -1.1570  0.4124  0.3505
  944MOL0     H24576   2.747   5.435   7.360 -0.9256  2.1100  0.5451
  944MOL0     H24577   2.801   5.593   7.306  0.0767  0.7826  1.3853
  944MOL0     H24578   2.934   5.608   7.524 -0.2300 -0.2688 -0.0107
  944MOL0     H24579   2.866   5.456   7.567  0.3783 -1.0026 -0.7069
  944MOL0     H24580   2.714   5.718   7.517  0.6413  0.5557 -0.1320
  944MOL0     H24581   2.636   5.565   7.539 -1.9015  1.2860  1.1181
  944MOL0     H24582   2.839   5.681   7.737  0.0402 -1.0240 -2.1909
  944MOL0     H24583   2.739   5.535   7.772 -0.7388 -0.2236  0.8273
  944MOL0     H24584   2.537   5.650   7.766 -0.3008  0.0750  0.4698
  944MOL0     H24585   2.621   5.810   7.716  1.6777  2.1321  2.0069
  944MOL0     H24586   2.698   5.694   7.985 -0.2210  0.5485  1.1239
  944MOL0     H24587   2.731   5.841   7.917  1.1657 -0.0445  0.5502
  944MOL0     H24588   2.551   5.825   8.085  0.7630 -2.3496  0.6286
  944MOL0     H24589   2.441   5.759   7.959 -2.1581  4.6317 -2.6411
  944MOL0     H24590   3.284   5.671   7.232  3.3301  1.1198 -2.9544
  944MOL0     H24591   3.480   5.618   7.157 -0.8417  0.7952  0.0718
  944MOL0     H24592   3.686   5.378   6.775 -2.4254  0.6809  2.1162
  944MOL0     H24593   3.805   5.247   6.639  0.9395 -0.2313  0.5561
  944MOL0     H24594   4.187   5.928   6.938  0.1374  1.0258  0.5263
  944MOL0     H24595   4.007   5.980   7.109  0.1360 -0.0944 -0.9879
  944MOL0     H24596   4.072   6.055   7.713  0.7898 -0.8193  0.3441
  944MOL0     H24597   3.916   6.120   7.865 -2.4735 -0.0335  0.4220
  944MOL0     H24598   3.487   6.129   7.715  3.1353 -1.5780  0.1002
  944MOL0     H24599   3.561   6.289   7.743 -1.4484  0.9452  1.2720
  944MOL0     H24600   3.453   6.128   7.992  0.1477 -0.0553 -0.0885
  944MOL0     H24601   3.456   6.302   7.963 -4.4493 -0.1165 -0.9339
  944MOL0     H24602   3.238   6.199   7.963 -0.4836 -0.4887 -1.3620
  944MOL0     H24603   3.269   6.136   7.805 -0.1372  1.2936 -1.5280
  944MOL0     H24604   3.322   6.365   7.725  0.8167 -3.5997 -0.6379
  944MOL0     H24605   3.152   6.310   7.776 -1.8085  1.9463  3.4761
  944MOL0     H24606   3.146   6.610   8.037  1.5204 -0.3137  1.2214
  944MOL0     H24607   3.601   6.069   7.561 -0.3690  1.5013 -1.0760
  944MOL0     H24608   3.781   6.029   7.398  1.0425 -1.1027 -0.0560
  945MOL0     O24609   2.272  10.106   4.935 -0.0277 -0.4898  0.1172
  945MOL0     C24610   2.220  10.059   4.836 -0.8666 -0.0024  0.2882
  945MOL0     O24611   2.288  10.049   4.722 -0.2999 -0.1917  0.3038
  945MOL0     C24612   2.423  10.081   4.710  1.1168 -0.5261  0.5130
  945MOL0     C24613   2.450  10.118   4.573 -0.5501  0.9955  0.8940
  945MOL0     C24614   2.583  10.149   4.530  0.6221  0.1986 -0.4046
  945MOL0     C24615   2.689  10.140   4.626 -0.1432  0.1127 -0.3330
  945MOL0     O24616   2.822  10.160   4.604  0.1891 -0.0545 -0.5841
  945MOL0     C24617   2.880  10.201   4.477 -0.2839  0.6301  0.2061
  945MOL0     C24618   3.000  10.295   4.514  0.6427 -0.5394 -0.1870
  945MOL0     C24619   2.955  10.420   4.584 -0.0105  0.4167 -0.8384
  945MOL0     C24620   3.082  10.501   4.615  0.3506 -0.1428 -0.5035
  945MOL0     C24621   3.075  10.599   4.728  0.1893  0.2158 -0.3752
  945MOL0     C24622   3.198  10.693   4.723 -0.8263 -0.1254 -0.2759
  945MOL0     C24623   3.211  10.769   4.858 -0.7165 -0.0426  0.7233
  945MOL0     C24624   3.297  10.896   4.850  0.6907 -0.0613  0.6112
  945MOL0     N24625   3.432  10.872   4.802 -0.1773  0.1149 -0.0579
  945MOL0     C24626   3.470  10.871   4.672 -0.6187  0.2876 -0.2840
  945MOL0     C24627   3.604  10.841   4.675  0.6839 -0.4700 -0.5206
  945MOL0     C24628   3.704  10.848   4.567  0.2532 -0.2478  1.6479
  945MOL0     C24629   3.830  10.940   4.593 -0.0364  0.2186 -0.3865
  945MOL0     C24630   3.948  10.869   4.660 -0.2015  0.1008  0.5254
  945MOL0     C24631   4.081  10.940   4.635  0.4004  0.1608  0.5941
  945MOL0     O24632   4.074  11.054   4.728 -0.0339  0.8632  0.5383
  945MOL0     C24633   4.196  11.097   4.774  0.2834  0.1623 -0.8596
  945MOL0     C24634   4.224  11.143   4.908 -0.4685  1.1558  0.2790
  945MOL0     C24635   4.358  11.181   4.936  0.0361  0.5715 -0.4943
  945MOL0     C24636   4.462  11.160   4.849 -0.4379  0.3369  0.0183
  945MOL0     C24637   4.607  11.194   4.886 -0.7291 -0.2044  0.1735
  945MOL0     O24638   4.639  11.223   5.023 -0.1646  0.0989  0.0123
  945MOL0     C24639   4.758  11.262   5.067  0.3042 -0.0308  0.0491
  945MOL0     C24640   4.835  11.350   4.997  0.4145 -0.2262  0.1867
  945MOL0     C24641   4.967  11.372   5.033  0.4208 -1.0710  0.2603
  945MOL0     C24642   5.019  11.313   5.152  1.0615  0.6215 -0.2088
  945MOL0     O24643   5.138  11.354   5.189 -0.3896  0.9196  0.0162
  945MOL0     C24644   5.165  11.334   5.326 -0.3111 -1.0961 -0.3073
  945MOL0     C24645   5.293  11.408   5.348 -0.8371  0.3594 -0.1008
  945MOL0     C24646   5.274  11.551   5.385 -0.1448 -0.0827  0.3639
  945MOL0     C24647   5.394  11.634   5.411 -0.8044 -0.6049 -0.0840
  945MOL0     C24648   5.395  11.794   5.380 -0.6996  0.2014 -0.4699
  945MOL0     C24649   5.278  11.872   5.455 -0.2877  0.1483 -0.0449
  945MOL0     C24650   5.296  12.017   5.433 -0.6673 -0.0499  0.1281
  945MOL0     C24651   5.193  12.111   5.499  1.0468 -0.3426  0.6043
  945MOL0    Cl24652   5.164  12.095   5.677 -0.0793  0.1362  0.3249
  945MOL0     C24653   4.937  11.217   5.230  0.8488  0.1349  0.7373
  945MOL0     C24654   4.810  11.194   5.183  0.4663 -0.5877  0.6294
  945MOL0     O24655   4.692  11.208   4.793 -0.4596  0.2421  0.1650
  945MOL0     C24656   4.435  11.129   4.715  0.0064  1.3006 -0.4405
  945MOL0     C24657   4.301  11.098   4.679 -0.4190 -0.2252  0.4389
  945MOL0     N24658   3.638  10.814   4.806 -0.0985 -0.7788 -0.0549
  945MOL0     N24659   3.533  10.827   4.877 -0.5044 -0.5468 -0.0792
  945MOL0     C24660   2.664  10.085   4.755  0.7049 -0.1576 -0.0332
  945MOL0     C24661   2.528  10.054   4.795  0.2018 -0.0521 -0.2972
  945MOL0     C24662   2.076  10.033   4.832  0.2821  0.2336  0.7884
  945MOL0     C24663   2.015  10.012   4.701 -0.5586 -0.9467  0.1870
  945MOL0     C24664   1.890   9.975   4.692  1.1246 -0.3515 -0.3690
  945MOL0     C24665   1.802   9.967   4.806 -0.5159  0.0711 -0.1843
  945MOL0     O24666   1.671   9.932   4.804  0.7012  0.3253  0.4649
  945MOL0     C24667   1.618   9.897   4.675  0.6481  0.0525 -0.3962
  945MOL0     C24668   1.482   9.840   4.700  0.2474  1.0249  1.4514
  945MOL0     C24669   1.393   9.811   4.570  0.6105 -0.4471 -0.1559
  945MOL0     C24670   1.253   9.756   4.606  0.1407 -0.3513 -0.0186
  945MOL0     C24671   1.198   9.798   4.732 -0.4672 -0.1127 -0.7989
  945MOL0     C24672   1.155   9.813   4.846  0.6588 -0.2117  0.0542
  945MOL0     C24673   1.862   9.997   4.931  0.1001  0.0822  0.6039
  945MOL0     C24674   1.997  10.024   4.947  0.3878 -0.2302  0.3222
  945MOL0     H24675   2.375  10.126   4.495 -0.6284 -2.0257  0.5332
  945MOL0     H24676   2.610  10.176   4.428 -0.7707 -0.3045 -0.9381
  945MOL0     H24677   2.813  10.263   4.418 -1.0193 -1.7516 -1.6232
  945MOL0     H24678   2.908  10.110   4.422 -1.8139 -0.0354  0.4662
  945MOL0     H24679   3.040  10.313   4.414 -2.0868  0.6381 -1.1842
  945MOL0     H24680   3.075  10.245   4.576  0.4569 -1.3255 -0.5848
  945MOL0     H24681   2.922  10.386   4.683  1.7990 -2.9517 -1.2250
  945MOL0     H24682   2.866  10.464   4.538 -1.2624 -1.1650 -0.0634
  945MOL0     H24683   3.157  10.428   4.648  1.6438  0.2357 -2.4723
  945MOL0     H24684   3.102  10.551   4.520 -0.6033 -0.3797 -0.8357
  945MOL0     H24685   3.078  10.547   4.825  1.9123 -0.9706 -1.0091
  945MOL0     H24686   2.984  10.658   4.714 -0.3153 -0.8610 -1.8407
  945MOL0     H24687   3.189  10.770   4.646 -0.6708  0.6872  0.4985
  945MOL0     H24688   3.289  10.633   4.720 -2.4999 -3.0480  2.2354
  945MOL0     H24689   3.111  10.795   4.894 -1.3766 -0.7107 -0.5419
  945MOL0     H24690   3.254  10.697   4.928  0.7397 -2.3173 -2.2480
  945MOL0     H24691   3.314  10.935   4.950 -0.3990  2.8430 -0.2495
  945MOL0     H24692   3.247  10.972   4.790  0.0334 -1.1771 -0.3053
  945MOL0     H24693   3.416  10.895   4.582 -1.2509  0.8170  0.2242
  945MOL0     H24694   3.652  10.873   4.475  2.4363  2.6660  1.0490
  945MOL0     H24695   3.739  10.745   4.554  0.4576  0.0239 -0.0874
  945MOL0     H24696   3.789  11.012   4.664  0.9417 -0.8437  1.3023
  945MOL0     H24697   3.864  10.996   4.505  2.1585 -1.0454 -0.4015
  945MOL0     H24698   3.926  10.863   4.767  2.6327  0.4919  1.2020
  945MOL0     H24699   3.958  10.769   4.616  0.9447  0.8497 -1.0308
  945MOL0     H24700   4.104  10.976   4.534 -0.0720 -1.6677 -0.2075
  945MOL0     H24701   4.160  10.869   4.662  0.7218  0.3409  0.1475
  945MOL0     H24702   4.140  11.151   4.977 -2.3678 -1.6846 -1.4828
  945MOL0     H24703   4.391  11.215   5.033  0.3061 -2.1362  0.4536
  945MOL0     H24704   4.808  11.399   4.904 -0.3434 -0.6764  0.1585
  945MOL0     H24705   5.036  11.433   4.976  0.5317  0.9528  2.4425
  945MOL0     H24706   5.175  11.226   5.339  3.2849 -0.8583 -0.2774
  945MOL0     H24707   5.090  11.377   5.393 -0.9716  1.0137 -2.3000
  945MOL0     H24708   5.355  11.403   5.258 -2.3982 -3.9996 -1.1510
  945MOL0     H24709   5.356  11.350   5.416  0.1563 -1.0713 -2.1481
  945MOL0     H24710   5.217  11.555   5.478  2.3908 -1.3729  2.0918
  945MOL0     H24711   5.214  11.592   5.303  0.1903 -3.6442 -1.8446
  945MOL0     H24712   5.407  11.622   5.519  0.6450  3.3485  0.3590
  945MOL0     H24713   5.477  11.591   5.355 -1.2141  0.3972 -1.5239
  945MOL0     H24714   5.404  11.818   5.274  1.3509  0.5223 -0.2607
  945MOL0     H24715   5.483  11.834   5.432 -1.2979  1.2882 -0.2477
  945MOL0     H24716   5.283  11.856   5.564 -0.8858  2.9804  0.4743
  945MOL0     H24717   5.180  11.844   5.417 -0.2055 -1.3649  0.7591
  945MOL0     H24718   5.391  12.047   5.480  0.0746 -1.1446 -0.6238
  945MOL0     H24719   5.306  12.041   5.327  0.0033 -1.8850 -0.2612
  945MOL0     H24720   5.090  12.096   5.464  0.8182  1.9480  0.1450
  945MOL0     H24721   5.208  12.218   5.485  1.2372 -0.0141  2.9739
  945MOL0     H24722   4.970  11.163   5.318 -0.8064 -0.1988  1.2056
  945MOL0     H24723   4.755  11.125   5.246 -1.0636  0.7135  0.7693
  945MOL0     H24724   4.512  11.115   4.639 -0.0866  1.8049 -0.6357
  945MOL0     H24725   4.294  11.045   4.585 -0.0151  0.8809 -0.2360
  945MOL0     H24726   2.750  10.085   4.820  1.2838  0.3611 -0.7750
  945MOL0     H24727   2.509   9.997   4.885  1.6695 -2.2631 -1.3072
  945MOL0     H24728   2.079  10.019   4.614  1.7000  0.9932  1.8623
  945MOL0     H24729   1.873   9.946   4.588  1.6352 -2.8640  0.1959
  945MOL0     H24730   1.676   9.813   4.635 -1.1088 -1.8174  0.7945
  945MOL0     H24731   1.600   9.985   4.613 -1.8738  0.8847  1.3648
  945MOL0     H24732   1.497   9.740   4.741 -0.3521  0.1461 -0.3694
  945MOL0     H24733   1.427   9.900   4.774  0.1276 -0.3797  2.5413
  945MOL0     H24734   1.438   9.742   4.497  1.4741  1.1514 -1.1870
  945MOL0     H24735   1.385   9.908   4.520 -0.4221  0.0479  0.9338
  945MOL0     H24736   1.178   9.766   4.527  0.2310  0.9058  0.0313
  945MOL0     H24737   1.272   9.653   4.637 -0.2490 -0.1151  1.0551
  945MOL0     H24738   1.102   9.819   4.938  2.6406  1.1235  1.1837
  945MOL0     H24739   1.791   9.987   5.012  0.1594 -2.8612  0.3896
  945MOL0     H24740   2.033  10.054   5.045  0.7603  2.6765 -0.5922
  946MOL0     O24741  11.231   3.864  10.096 -0.1714  0.1934  0.4376
  946MOL0     C24742  11.300   3.772  10.143  0.4671  0.0850  0.4502
  946MOL0     O24743  11.301   3.735  10.272  0.6772  0.2158  0.2092
  946MOL0     C24744  11.221   3.809  10.364 -0.2157  0.3498  0.2979
  946MOL0     C24745  11.158   3.731  10.467 -1.0240  0.4392  0.1039
  946MOL0     C24746  11.061   3.786  10.555 -0.7879 -0.3428 -0.0875
  946MOL0     C24747  11.035   3.918  10.553  0.1019  0.6494  0.4105
  946MOL0     O24748  10.966   3.978  10.653 -0.4108 -0.6004 -0.2357
  946MOL0     C24749  10.865   4.058  10.594 -0.4836  0.2332 -0.2014
  946MOL0     C24750  10.732   4.005  10.657  0.2809 -0.3190 -0.4069
  946MOL0     C24751  10.715   4.047  10.799 -0.1937 -0.1959  0.1279
  946MOL0     C24752  10.714   4.195  10.810  0.8314 -0.4871  0.5588
  946MOL0     C24753  10.660   4.242  10.943  1.0452 -1.0310  0.2215
  946MOL0     C24754  10.631   4.389  10.946  0.2824  0.3004 -0.7355
  946MOL0     C24755  10.541   4.446  10.834  0.3060 -0.0197  0.5595
  946MOL0     C24756  10.491   4.588  10.866 -1.1738 -0.1492  0.5818
  946MOL0     N24757  10.395   4.603  10.975 -0.8541 -0.2706  0.3546
  946MOL0     C24758  10.262   4.574  10.964 -0.7011 -0.3709  1.0517
  946MOL0     C24759  10.217   4.636  11.074 -0.0832  0.5024 -0.1287
  946MOL0     C24760  10.068   4.651  11.120  0.3611 -0.6260 -0.0595
  946MOL0     C24761   9.969   4.644  11.004 -0.1255 -0.7435 -0.4490
  946MOL0     C24762   9.823   4.626  11.045  0.1348  0.0286  0.3009
  946MOL0     C24763   9.730   4.619  10.925 -0.8045 -0.0140 -0.4210
  946MOL0     O24764   9.599   4.664  10.952  0.1192  0.1891  0.4586
  946MOL0     C24765   9.506   4.581  11.021  0.7817 -0.0734 -0.2222
  946MOL0     C24766   9.387   4.642  11.068  0.3305  0.1386 -0.3885
  946MOL0     C24767   9.299   4.566  11.134  0.3098 -0.0198 -0.5081
  946MOL0     C24768   9.320   4.432  11.169 -1.0833 -0.5655 -0.0484
  946MOL0     C24769   9.226   4.363  11.252  0.2670  0.0259 -0.0592
  946MOL0     O24770   9.118   4.441  11.295 -0.7526  0.9777 -0.3640
  946MOL0     C24771   9.029   4.399  11.394 -0.3703  0.6783  0.5249
  946MOL0     C24772   8.963   4.503  11.459 -0.3324 -0.5293 -0.1091
  946MOL0     C24773   8.862   4.476  11.556 -0.0473 -0.8186  0.8484
  946MOL0     C24774   8.831   4.339  11.582  0.1221  0.5466  0.9216
  946MOL0     O24775   8.720   4.293  11.657 -0.7054 -0.1315 -0.4528
  946MOL0     C24776   8.656   4.394  11.743  0.1363  0.1205 -0.2336
  946MOL0     C24777   8.531   4.342  11.831  0.4413 -0.6934 -0.2394
  946MOL0     C24778   8.469   4.455  11.913  0.0710  0.4635 -0.3558
  946MOL0     C24779   8.378   4.561  11.847  0.5355 -0.1341  0.3873
  946MOL0     C24780   8.317   4.646  11.956  0.0063 -0.4860  0.0069
  946MOL0     C24781   8.191   4.575  12.010  0.6194  0.1946  0.9593
  946MOL0     C24782   8.078   4.664  12.062  0.4859  0.7534  0.4648
  946MOL0     C24783   8.110   4.737  12.191  0.5438  0.1163  0.1926
  946MOL0    Cl24784   7.991   4.865  12.224 -0.5862 -0.1870 -0.8444
  946MOL0     C24785   8.907   4.241  11.520 -0.5271  0.0500  0.8533
  946MOL0     C24786   9.008   4.265  11.425  0.1029 -0.0980 -0.2983
  946MOL0     O24787   9.251   4.245  11.284 -0.5342 -0.1660  0.0142
  946MOL0     C24788   9.435   4.366  11.117  1.5052  0.1019  0.2721
  946MOL0     C24789   9.534   4.443  11.055  0.0181  0.1420  0.3913
  946MOL0     N24790  10.317   4.696  11.148 -0.0733  0.7884  0.0829
  946MOL0     N24791  10.420   4.678  11.084 -0.4536 -0.5519 -0.2300
  946MOL0     C24792  11.121   4.004  10.480  0.2430  0.2390  0.4769
  946MOL0     C24793  11.201   3.949  10.382 -0.6842  0.0608  0.0629
  946MOL0     C24794  11.374   3.696  10.052 -0.0531 -0.0582 -0.3503
  946MOL0     C24795  11.412   3.565  10.091  0.2696 -0.0976 -0.6433
  946MOL0     C24796  11.502   3.493  10.009 -0.3588  0.4656 -0.4265
  946MOL0     C24797  11.547   3.543   9.883 -1.4652  0.7162 -0.5871
  946MOL0     O24798  11.618   3.454   9.799 -0.3714 -0.3729 -0.6282
  946MOL0     C24799  11.527   3.397   9.700  0.1342  0.6437 -0.5931
  946MOL0     C24800  11.550   3.463   9.562  0.1550 -0.4132  0.0510
  946MOL0     C24801  11.684   3.432   9.497 -0.3079 -0.4235  0.2968
  946MOL0     C24802  11.680   3.492   9.361 -0.5581 -0.3797 -0.7600
  946MOL0     C24803  11.791   3.586   9.358  0.6024  0.1654  0.2336
  946MOL0     C24804  11.894   3.644   9.357  0.1315 -0.0651  1.2975
  946MOL0     C24805  11.507   3.677   9.845 -0.2636  0.1123 -0.5980
  946MOL0     C24806  11.423   3.752   9.935  0.6401 -0.4601 -0.1413
  946MOL0     H24807  11.182   3.625  10.472 -1.8299  0.1483 -1.5887
  946MOL0     H24808  11.021   3.722  10.633  1.6578 -1.6718  0.1477
  946MOL0     H24809  10.863   4.051  10.485 -1.1829  3.1575 -0.4446
  946MOL0     H24810  10.877   4.165  10.612 -0.0264 -0.0496  1.3665
  946MOL0     H24811  10.731   3.896  10.646 -1.3186 -0.4535  0.7233
  946MOL0     H24812  10.657   4.055  10.593 -1.2663  1.0602  2.3095
  946MOL0     H24813  10.798   4.007  10.858 -0.4368 -0.3585  0.3568
  946MOL0     H24814  10.621   4.003  10.834 -0.7073  1.8324  1.5035
  946MOL0     H24815  10.812   4.243  10.800  0.9988  0.4464  4.7018
  946MOL0     H24816  10.649   4.229  10.729 -1.1265 -1.3515  1.7065
  946MOL0     H24817  10.728   4.223  11.026 -1.8448  1.1774  3.3338
  946MOL0     H24818  10.569   4.182  10.947  1.3595 -1.6601 -1.3349
  946MOL0     H24819  10.720   4.452  10.940  0.2103  0.3479 -1.3387
  946MOL0     H24820  10.577   4.413  11.039 -0.2686 -2.2802 -0.3112
  946MOL0     H24821  10.597   4.455  10.740  1.1669  0.3852  1.0967
  946MOL0     H24822  10.456   4.379  10.822 -0.8874  1.2500  1.5730
  946MOL0     H24823  10.437   4.632  10.781 -0.4823  3.1416  1.7076
  946MOL0     H24824  10.571   4.662  10.876  2.1383 -3.1669 -1.0449
  946MOL0     H24825  10.202   4.526  10.887 -4.4480  1.5377  2.5456
  946MOL0     H24826  10.057   4.747  11.170 -0.3683 -0.7370  0.0068
  946MOL0     H24827  10.033   4.570  11.184 -3.4844  0.1123 -0.9645
  946MOL0     H24828   9.985   4.556  10.940  2.9179 -0.9007  0.3526
  946MOL0     H24829   9.989   4.733  10.944 -0.7149  0.6240  1.2892
  946MOL0     H24830   9.816   4.538  11.110  0.3369  0.3982  0.8291
  946MOL0     H24831   9.799   4.719  11.096 -2.2247  0.3059 -1.2074
  946MOL0     H24832   9.722   4.514  10.895  1.0060  0.3479 -2.4296
  946MOL0     H24833   9.764   4.680  10.841 -3.3355 -0.1405 -1.6292
  946MOL0     H24834   9.377   4.748  11.047  0.4994  0.1139 -0.5968
  946MOL0     H24835   9.217   4.630  11.164  0.6881  0.9816 -1.5412
  946MOL0     H24836   8.986   4.605  11.432 -0.7157 -0.0699  1.2056
  946MOL0     H24837   8.810   4.555  11.610 -2.7895 -2.2793  0.5479
  946MOL0     H24838   8.610   4.473  11.683 -2.2004 -0.2127  1.0133
  946MOL0     H24839   8.733   4.433  11.811 -0.7165  0.7750  0.3717
  946MOL0     H24840   8.570   4.260  11.892  2.3829 -0.7624 -1.4640
  946MOL0     H24841   8.447   4.305  11.772  1.3301 -0.5088 -1.6943
  946MOL0     H24842   8.547   4.495  11.977  1.0880 -0.1252 -1.1847
  946MOL0     H24843   8.398   4.402  11.977  1.9938 -1.9721 -0.0725
  946MOL0     H24844   8.440   4.627  11.786 -1.1545  2.2818  1.0893
  946MOL0     H24845   8.302   4.527  11.777  0.7428  0.1098  0.0402
  946MOL0     H24846   8.291   4.745  11.918  3.3847  0.4223 -0.3159
  946MOL0     H24847   8.387   4.660  12.039 -0.7199 -0.4872  0.6337
  946MOL0     H24848   8.215   4.492  12.077  1.7678 -1.6316 -1.5513
  946MOL0     H24849   8.153   4.514  11.928  2.9731  3.0346 -2.5418
  946MOL0     H24850   8.036   4.736  11.991 -0.9286  0.1214  0.6278
  946MOL0     H24851   7.999   4.593  12.088  1.2206  0.5079  2.2074
  946MOL0     H24852   8.210   4.781  12.194  2.1219 -3.2082  2.0509
  946MOL0     H24853   8.108   4.662  12.271 -0.0834  2.0189  2.0724
  946MOL0     H24854   8.893   4.135  11.539 -0.4823  0.0982  1.1651
  946MOL0     H24855   9.064   4.181  11.386  0.6123 -0.6404  1.4951
  946MOL0     H24856   9.455   4.261  11.134  1.3400  0.3357  2.2370
  946MOL0     H24857   9.623   4.392  11.019 -1.5591 -1.8215 -0.9042
  946MOL0     H24858  11.120   4.112  10.491 -1.5862  0.4285 -0.9711
  946MOL0     H24859  11.263   4.011  10.318 -0.0271 -1.9218 -1.3059
  946MOL0     H24860  11.375   3.521  10.182  3.1281 -1.0466  0.1324
  946MOL0     H24861  11.534   3.398  10.051 -5.6108 -0.9922  1.0450
  946MOL0     H24862  11.422   3.409   9.727 -0.7171 -0.8810 -2.9276
  946MOL0     H24863  11.526   3.289   9.688 -1.4211  0.5220  0.3425
  946MOL0     H24864  11.473   3.418   9.498 -0.9288  0.3256  0.7970
  946MOL0     H24865  11.543   3.572   9.568  2.4703 -0.2216  0.0943
  946MOL0     H24866  11.693   3.323   9.489 -3.1851 -0.8815  1.7485
  946MOL0     H24867  11.763   3.467   9.564 -0.0426  0.6523 -0.5528
  946MOL0     H24868  11.691   3.419   9.280 -0.8882 -1.2710 -0.0172
  946MOL0     H24869  11.587   3.545   9.337  1.2245  2.7371 -1.3522
  946MOL0     H24870  11.986   3.699   9.349 -1.4755  2.4984 -3.1615
  946MOL0     H24871  11.532   3.706   9.744 -2.2467 -1.7945 -1.7105
  946MOL0     H24872  11.396   3.856   9.916  2.3139  0.5151  2.3677
  947MOL0     O24873   5.919   1.457  10.837  0.0292  0.4178  0.6524
  947MOL0     C24874   6.004   1.415  10.920 -0.3495  0.3257  0.1729
  947MOL0     O24875   5.988   1.419  11.055 -0.4721  0.0172  0.0327
  947MOL0     C24876   5.866   1.438  11.116 -0.6382  0.4195 -0.8103
  947MOL0     C24877   5.743   1.389  11.081  0.4109 -0.5422  0.4924
  947MOL0     C24878   5.627   1.419  11.148  0.7473 -0.9602  0.5879
  947MOL0     C24879   5.635   1.508  11.260 -0.6926 -0.0981  0.3616
  947MOL0     O24880   5.544   1.546  11.352  0.1218 -0.0390  0.7446
  947MOL0     C24881   5.407   1.502  11.326  0.8380 -0.4498  0.2843
  947MOL0     C24882   5.380   1.351  11.359  0.1119 -0.5945  0.5837
  947MOL0     C24883   5.239   1.324  11.320 -0.2326 -0.0542  0.0708
  947MOL0     C24884   5.183   1.211  11.394  0.4404 -0.8361 -0.0305
  947MOL0     C24885   5.061   1.153  11.331 -0.5409  0.3104 -0.4592
  947MOL0     C24886   4.957   1.258  11.298 -0.6978  0.7350 -0.4124
  947MOL0     C24887   4.841   1.174  11.253  0.3024 -0.0356  0.5461
  947MOL0     C24888   4.706   1.261  11.241 -0.0714 -0.4081  1.2060
  947MOL0     N24889   4.588   1.183  11.226  1.1389 -0.0733 -0.1246
  947MOL0     C24890   4.455   1.232  11.204 -0.0670  0.9805  0.1376
  947MOL0     C24891   4.390   1.109  11.198  0.1644  0.1924 -0.3697
  947MOL0     C24892   4.237   1.110  11.173 -0.0513  0.3443  0.2924
  947MOL0     C24893   4.190   0.969  11.206 -0.1956  0.4135 -0.1838
  947MOL0     C24894   4.045   0.936  11.183  0.1795  0.6896 -0.0320
  947MOL0     C24895   3.976   0.992  11.058 -1.0951  0.0990 -0.2319
  947MOL0     O24896   3.860   0.918  11.030 -0.3356 -0.0703  0.4037
  947MOL0     C24897   3.744   0.947  11.091  0.7747 -0.1787  0.4521
  947MOL0     C24898   3.629   0.865  11.056 -0.7167 -0.4093 -0.6397
  947MOL0     C24899   3.503   0.892  11.110  0.0192 -0.2327  0.2840
  947MOL0     C24900   3.487   0.986  11.212  0.3952 -0.0932 -0.5158
  947MOL0     C24901   3.356   1.001  11.282 -1.0031 -0.5726 -0.0829
  947MOL0     O24902   3.236   0.970  11.205 -0.5856 -0.1432 -0.2419
  947MOL0     C24903   3.112   0.954  11.265  0.1199  1.3212 -1.2658
  947MOL0     C24904   2.996   0.936  11.183  0.4635 -0.0233 -0.6875
  947MOL0     C24905   2.866   0.908  11.230  0.1315  0.0381 -0.0282
  947MOL0     C24906   2.857   0.871  11.366 -0.3353 -0.1761  0.1712
  947MOL0     O24907   2.741   0.812  11.411  0.0248  0.3251  0.9744
  947MOL0     C24908   2.615   0.867  11.361 -0.1996  0.3065 -0.8212
  947MOL0     C24909   2.506   0.900  11.474  0.4790 -0.3247  0.1459
  947MOL0     C24910   2.488   0.782  11.572 -0.6691 -0.7518  0.3558
  947MOL0     C24911   2.358   0.783  11.652  0.6194  0.3669 -0.6593
  947MOL0     C24912   2.316   0.639  11.694  0.4804  0.6227  0.3174
  947MOL0     C24913   2.173   0.637  11.754  0.0608 -0.0432 -0.6475
  947MOL0     C24914   2.064   0.698  11.661 -0.3438  0.3882 -0.3812
  947MOL0     C24915   1.931   0.680  11.735  0.2312 -0.6128 -0.2473
  947MOL0    Cl24916   1.893   0.508  11.778  0.0665  0.2796  0.2674
  947MOL0     C24917   2.969   0.893  11.446 -0.2856  0.1081  0.1463
  947MOL0     C24918   3.090   0.940  11.406  0.2894  1.0602  0.9172
  947MOL0     O24919   3.357   1.064  11.381 -0.7607  0.0909  0.2162
  947MOL0     C24920   3.596   1.067  11.250  0.2403 -0.3194  0.5482
  947MOL0     C24921   3.715   1.047  11.187 -0.4151  0.1776  0.2264
  947MOL0     N24922   4.471   1.004  11.227 -0.1914  0.1882  0.1534
  947MOL0     N24923   4.592   1.047  11.227  0.6712 -0.2456  0.5814
  947MOL0     C24924   5.763   1.559  11.295 -0.2450  0.0385 -0.2841
  947MOL0     C24925   5.878   1.517  11.225 -0.7343  0.1000 -0.5107
  947MOL0     C24926   6.144   1.376  10.875 -0.3072  0.0355 -0.0170
  947MOL0     C24927   6.172   1.353  10.730 -0.0740 -0.7130 -0.7151
  947MOL0     C24928   6.294   1.312  10.686  0.6059 -0.2612  0.1633
  947MOL0     C24929   6.400   1.292  10.777 -0.1968 -1.3042 -0.6173
  947MOL0     O24930   6.519   1.266  10.712  0.3246 -0.0049  0.2776
  947MOL0     C24931   6.633   1.246  10.784 -0.0390 -1.0262 -0.4575
  947MOL0     C24932   6.725   1.154  10.706  0.5003 -0.1681 -0.8109
  947MOL0     C24933   6.779   1.213  10.575 -0.0470  0.0394 -0.0422
  947MOL0     C24934   6.828   1.359  10.593  0.5617  0.6473  0.8389
  947MOL0     C24935   6.895   1.401  10.469 -0.6884  0.2986  0.2790
  947MOL0     C24936   6.963   1.425  10.368 -0.4606 -0.2475 -0.0565
  947MOL0     C24937   6.383   1.324  10.912  0.3912  0.8732 -0.5792
  947MOL0     C24938   6.250   1.353  10.961 -0.4997 -0.0076  0.9319
  947MOL0     H24939   5.741   1.333  10.988 -0.7274 -0.5360  0.4907
  947MOL0     H24940   5.533   1.379  11.111  0.5852  0.9533 -1.1943
  947MOL0     H24941   5.390   1.514  11.219 -0.7990 -1.6335  0.3791
  947MOL0     H24942   5.333   1.564  11.378  1.7099 -0.9191  2.1676
  947MOL0     H24943   5.398   1.340  11.466 -0.3501  0.6452  0.8099
  947MOL0     H24944   5.447   1.287  11.302  0.7813  0.6187 -0.0455
  947MOL0     H24945   5.243   1.313  11.211 -1.5677  0.4176 -0.0444
  947MOL0     H24946   5.177   1.413  11.333  4.0001  3.0250  1.3418
  947MOL0     H24947   5.267   1.141  11.394  1.9557  0.8890 -1.3068
  947MOL0     H24948   5.168   1.235  11.500 -0.2710 -0.9328 -0.1066
  947MOL0     H24949   5.027   1.075  11.399  4.5794 -0.2401  1.9302
  947MOL0     H24950   5.081   1.091  11.243 -1.7886  0.0438 -0.5798
  947MOL0     H24951   4.990   1.327  11.220  0.6794 -0.9450 -1.3954
  947MOL0     H24952   4.929   1.310  11.390 -2.1585  2.8586 -1.9779
  947MOL0     H24953   4.856   1.133  11.153 -0.6179  0.5772  0.1450
  947MOL0     H24954   4.813   1.090  11.318 -1.0169  0.5440  0.7600
  947MOL0     H24955   4.721   1.319  11.150  1.9318  0.0752  1.7921
  947MOL0     H24956   4.696   1.327  11.328 -0.3956  0.5369  0.4645
  947MOL0     H24957   4.407   1.326  11.179 -1.8428  0.1360  0.2112
  947MOL0     H24958   4.224   1.123  11.065  1.9079 -1.3226 -0.2225
  947MOL0     H24959   4.178   1.176  11.236 -0.5458 -3.9046  4.8787
  947MOL0     H24960   4.229   0.925  11.299  1.4302 -0.2517 -1.1530
  947MOL0     H24961   4.231   0.900  11.132 -2.5926 -2.3197  0.8086
  947MOL0     H24962   4.044   0.826  11.181  1.2578  0.6696 -0.3413
  947MOL0     H24963   3.990   0.961  11.274  0.7385 -0.0773  0.5259
  947MOL0     H24964   4.045   0.986  10.973  1.0227 -1.8847  1.5210
  947MOL0     H24965   3.955   1.098  11.075 -0.9777  0.1645 -0.4824
  947MOL0     H24966   3.637   0.777  10.993 -1.8668  0.0726 -1.4927
  947MOL0     H24967   3.413   0.837  11.086  0.8733 -0.7760 -1.9397
  947MOL0     H24968   3.002   0.951  11.076  1.6263 -1.6071 -0.8770
  947MOL0     H24969   2.785   0.902  11.159 -1.3199  1.8674  1.3660
  947MOL0     H24970   2.574   0.787  11.299 -0.4847  0.0923 -0.3587
  947MOL0     H24971   2.621   0.960  11.303 -0.6290  0.0474 -1.2889
  947MOL0     H24972   2.409   0.923  11.430 -0.2426 -1.7828  0.8901
  947MOL0     H24973   2.526   0.984  11.542 -0.7840  0.2929 -0.2266
  947MOL0     H24974   2.570   0.790  11.645 -1.1293 -0.5130  0.8498
  947MOL0     H24975   2.491   0.686  11.520 -0.9848  0.5067 -2.1587
  947MOL0     H24976   2.368   0.834  11.748  2.1484 -0.1363 -0.5252
  947MOL0     H24977   2.278   0.834  11.597  0.8606  0.2111 -1.1568
  947MOL0     H24978   2.386   0.603  11.770 -1.1406 -3.2024  0.1982
  947MOL0     H24979   2.313   0.575  11.605  0.9361 -0.4242  1.0426
  947MOL0     H24980   2.174   0.690  11.850  0.7595 -1.6758  0.2828
  947MOL0     H24981   2.149   0.532  11.775 -0.7946  0.3309  0.3869
  947MOL0     H24982   2.086   0.805  11.647  1.6962  0.1775  0.7884
  947MOL0     H24983   2.061   0.649  11.563 -2.5267  0.2391 -0.2946
  947MOL0     H24984   1.856   0.711  11.662 -2.3686 -3.9684  0.7554
  947MOL0     H24985   1.936   0.748  11.821 -3.0425  0.1890 -0.5536
  947MOL0     H24986   2.966   0.862  11.550  0.5853 -0.8245 -0.0979
  947MOL0     H24987   3.168   0.950  11.481  1.0970 -1.8920  0.6006
  947MOL0     H24988   3.586   1.136  11.333 -0.8676 -1.1942  1.1771
  947MOL0     H24989   3.792   1.119  11.212  0.9143 -0.4572 -1.7666
  947MOL0     H24990   5.756   1.633  11.374 -0.1604  0.1138 -0.3466
  947MOL0     H24991   5.982   1.537  11.251 -0.0420 -1.2442 -2.0191
  947MOL0     H24992   6.095   1.380  10.658 -3.4599 -1.4194  2.2977
  947MOL0     H24993   6.321   1.299  10.581  0.8115  1.4779 -0.0223
  947MOL0     H24994   6.606   1.190  10.874  1.5596 -1.2899 -0.1125
  947MOL0     H24995   6.671   1.341  10.822 -0.5275 -1.1062  0.2513
  947MOL0     H24996   6.815   1.135  10.766  1.2692 -0.6992 -2.0942
  947MOL0     H24997   6.671   1.062  10.682  0.0925  0.3053 -1.7544
  947MOL0     H24998   6.701   1.206  10.498 -1.0408  0.9543  0.8474
  947MOL0     H24999   6.864   1.147  10.558  0.7347  0.9181  0.4278
  947MOL0     H25000   6.744   1.425  10.612  0.9608  1.4203 -0.0329
  947MOL0     H25001   6.904   1.370  10.671  2.3054 -0.3539 -0.6381
  947MOL0     H25002   7.023   1.449  10.283  0.8587  1.3946  1.2679
  947MOL0     H25003   6.466   1.300  10.979  0.0577 -1.0772 -0.7979
  947MOL0     H25004   6.246   1.367  11.069  2.7082  0.0307  1.1330
  948MOL0     O25005   9.299   9.160   9.243  0.0651  0.3671 -0.6335
  948MOL0     C25006   9.332   9.232   9.340 -0.0973  0.3608  0.2700
  948MOL0     O25007   9.256   9.304   9.420  0.4115  0.5444  0.1562
  948MOL0     C25008   9.118   9.321   9.405 -1.0006  0.3710 -0.4451
  948MOL0     C25009   9.055   9.354   9.525  0.4263  0.7750 -0.6796
  948MOL0     C25010   8.916   9.382   9.512  0.9621  0.4405  0.0165
  948MOL0     C25011   8.838   9.372   9.398 -0.2312 -1.1575 -0.3048
  948MOL0     O25012   8.711   9.412   9.405  0.7308 -1.2560  0.5653
  948MOL0     C25013   8.611   9.317   9.368 -0.1878 -0.6140  0.3622
  948MOL0     C25014   8.483   9.372   9.420 -0.1004 -0.1101 -0.7608
  948MOL0     C25015   8.369   9.271   9.397 -0.5280  0.0653  0.5409
  948MOL0     C25016   8.255   9.265   9.498 -0.4269  0.0557  0.3751
  948MOL0     C25017   8.143   9.177   9.440  0.0313 -0.1520  1.0933
  948MOL0     C25018   8.054   9.251   9.339 -0.2549 -0.5482 -0.6113
  948MOL0     C25019   7.942   9.324   9.408  0.2456 -0.3667  0.1270
  948MOL0     C25020   7.872   9.405   9.293  0.0876 -0.2933  1.1509
  948MOL0     N25021   7.775   9.325   9.215 -1.2251 -0.0208 -0.4038
  948MOL0     C25022   7.659   9.267   9.273  0.4091 -0.1118 -0.8788
  948MOL0     C25023   7.624   9.172   9.181  0.6987 -0.3539  0.6692
  948MOL0     C25024   7.512   9.066   9.196  0.8472 -0.4228  0.8341
  948MOL0     C25025   7.393   9.112   9.114  0.2216  0.3767  0.2576
  948MOL0     C25026   7.338   9.243   9.159  0.3136 -0.7769 -0.1124
  948MOL0     C25027   7.191   9.257   9.110  0.3425  0.3335 -0.6369
  948MOL0     O25028   7.109   9.151   9.160 -0.2736  0.1903  0.6971
  948MOL0     C25029   6.969   9.138   9.154  0.1702  0.3950  0.4876
  948MOL0     C25030   6.907   9.015   9.199  0.2483  0.1714  0.0824
  948MOL0     C25031   6.770   8.995   9.184 -0.8851  0.2198  0.7253
  948MOL0     C25032   6.695   9.089   9.122  0.5315 -0.3889  0.3952
  948MOL0     C25033   6.549   9.056   9.094 -1.2793  0.1039 -0.3259
  948MOL0     O25034   6.471   9.163   9.048  0.2408  0.6927 -0.0409
  948MOL0     C25035   6.331   9.152   9.064 -0.7088 -0.2336  0.0858
  948MOL0     C25036   6.268   9.064   8.981  0.2830 -0.3156  0.3596
  948MOL0     C25037   6.131   9.044   8.987 -1.0825 -0.2958  0.1042
  948MOL0     C25038   6.057   9.103   9.089  0.8052  0.9239  0.0647
  948MOL0     O25039   5.921   9.081   9.105 -0.0111  0.1656 -0.3260
  948MOL0     C25040   5.831   9.184   9.162  0.1519  0.7347 -0.6214
  948MOL0     C25041   5.683   9.124   9.148 -0.0173 -0.4366 -0.7111
  948MOL0     C25042   5.635   9.129   9.003  0.5433 -0.3832 -0.3105
  948MOL0     C25043   5.542   9.011   8.970  1.0772 -0.2180  0.5401
  948MOL0     C25044   5.481   9.016   8.826 -0.5575 -0.1616 -0.0344
  948MOL0     C25045   5.357   9.106   8.826  0.3471  0.3094  0.2870
  948MOL0     C25046   5.236   9.058   8.750 -0.8538  0.1119 -0.0679
  948MOL0     C25047   5.124   9.163   8.793 -0.0670 -0.3347  0.4929
  948MOL0    Cl25048   5.147   9.328   8.733  0.1011 -0.0702  0.1275
  948MOL0     C25049   6.119   9.189   9.184 -1.4677  0.1426  0.5407
  948MOL0     C25050   6.259   9.207   9.170 -0.1045 -0.2773 -0.2210
  948MOL0     O25051   6.508   8.947   9.130 -0.4016 -0.5913  0.1479
  948MOL0     C25052   6.756   9.208   9.070  0.6094  0.6525 -0.8538
  948MOL0     C25053   6.893   9.232   9.088  0.1889 -0.5979  0.0631
  948MOL0     N25054   7.714   9.187   9.072 -0.4946  0.0890 -0.4995
  948MOL0     N25055   7.792   9.283   9.086  0.3956  0.6599 -0.0701
  948MOL0     C25056   8.910   9.335   9.276  0.3081 -0.0967 -0.3428
  948MOL0     C25057   9.049   9.319   9.280  0.0441 -0.5299 -0.2731
  948MOL0     C25058   9.472   9.231   9.367 -0.8491 -0.2804  0.5117
  948MOL0     C25059   9.572   9.162   9.296  0.2854 -0.3833 -0.1992
  948MOL0     C25060   9.712   9.182   9.320  0.5319  0.7218 -1.3102
  948MOL0     C25061   9.752   9.268   9.424  0.5077  0.3800  0.0713
  948MOL0     O25062   9.884   9.292   9.440 -0.5373  0.0012  0.2475
  948MOL0     C25063   9.981   9.186   9.454 -0.1071 -0.1186 -0.7653
  948MOL0     C25064  10.018   9.153   9.602 -1.1469 -0.5756  0.7343
  948MOL0     C25065  10.033   9.270   9.707 -0.3690  0.1148  0.1223
  948MOL0     C25066  10.073   9.408   9.657 -0.2189 -0.5152 -0.1164
  948MOL0     C25067  10.216   9.412   9.640 -0.6969 -0.2967 -0.1955
  948MOL0     C25068  10.331   9.425   9.610  1.5234  0.5140 -0.3123
  948MOL0     C25069   9.659   9.331   9.497 -0.9154 -0.8196  0.2268
  948MOL0     C25070   9.527   9.304   9.479  0.7339  0.0896  0.4076
  948MOL0     H25071   9.107   9.347   9.620 -2.8125 -1.6990  1.1314
  948MOL0     H25072   8.855   9.397   9.600 -0.1029 -2.9194  0.0205
  948MOL0     H25073   8.637   9.218   9.407  0.3789  0.4532  2.8499
  948MOL0     H25074   8.609   9.297   9.260 -0.9563 -1.8671  0.5881
  948MOL0     H25075   8.459   9.470   9.377  0.5636 -1.0205 -3.3542
  948MOL0     H25076   8.503   9.385   9.527  3.1920 -0.5834 -1.2107
  948MOL0     H25077   8.415   9.172   9.401  2.8116  1.4822  0.4053
  948MOL0     H25078   8.336   9.299   9.297  0.2847  1.2890  0.6011
  948MOL0     H25079   8.291   9.216   9.589 -1.4101 -0.9630  0.2348
  948MOL0     H25080   8.225   9.364   9.534  3.2145  0.6136  2.4177
  948MOL0     H25081   8.084   9.132   9.520  1.4570 -1.1283  1.6521
  948MOL0     H25082   8.181   9.088   9.389 -0.4094  0.9003 -1.2184
  948MOL0     H25083   8.021   9.178   9.265  1.8124 -1.7265 -0.4373
  948MOL0     H25084   8.119   9.321   9.284  0.8738 -1.0888  0.0013
  948MOL0     H25085   7.877   9.259   9.467 -0.1374  0.3269  0.4693
  948MOL0     H25086   7.980   9.393   9.484 -1.8485  2.5426 -1.2953
  948MOL0     H25087   7.941   9.451   9.222  0.5860 -0.7005  1.3663
  948MOL0     H25088   7.812   9.490   9.329 -0.1990  0.9720 -2.0176
  948MOL0     H25089   7.617   9.294   9.370 -0.1724 -0.7861 -0.9307
  948MOL0     H25090   7.483   9.055   9.301 -1.5119 -0.4419  0.2419
  948MOL0     H25091   7.555   8.973   9.158  3.1226  0.3517  1.3791
  948MOL0     H25092   7.321   9.031   9.127  1.8121 -0.7687  2.6596
  948MOL0     H25093   7.420   9.109   9.008  1.9123 -1.8987  0.6731
  948MOL0     H25094   7.350   9.253   9.267 -3.8521 -0.0783  0.4645
  948MOL0     H25095   7.405   9.321   9.123  1.1985 -0.1184  2.6925
  948MOL0     H25096   7.204   9.263   9.002 -0.5421  3.7189 -0.6576
  948MOL0     H25097   7.162   9.355   9.149  0.3837 -0.5057  1.6361
  948MOL0     H25098   6.969   8.940   9.247  0.1170  0.5844  0.9264
  948MOL0     H25099   6.729   8.912   9.242 -2.2468  1.2997  1.3801
  948MOL0     H25100   6.335   9.010   8.914  1.2388  2.7751 -1.3560
  948MOL0     H25101   6.078   8.974   8.922 -0.5152 -0.9445  0.3295
  948MOL0     H25102   5.849   9.278   9.110  2.0879  0.0459 -1.2825
  948MOL0     H25103   5.851   9.206   9.267  2.3672  1.5676 -1.1779
  948MOL0     H25104   5.615   9.167   9.222 -0.1042 -2.8055  0.7015
  948MOL0     H25105   5.685   9.019   9.178 -0.1331 -0.7024 -1.6056
  948MOL0     H25106   5.713   9.137   8.927  0.9345 -1.4385 -0.0346
  948MOL0     H25107   5.566   9.214   8.997  0.7669  0.1609  2.9700
  948MOL0     H25108   5.601   8.918   8.972  0.3191 -0.7642 -1.0747
  948MOL0     H25109   5.463   8.996   9.044  0.0659 -2.5413 -0.9174
  948MOL0     H25110   5.446   8.914   8.805 -2.4254 -0.5128  3.8188
  948MOL0     H25111   5.559   9.052   8.758 -0.0346 -0.5987  0.3151
  948MOL0     H25112   5.378   9.203   8.782  2.0382  0.0968  0.5488
  948MOL0     H25113   5.335   9.110   8.933 -0.0123 -1.2443  0.2971
  948MOL0     H25114   5.259   9.049   8.644 -1.9933 -1.0661 -0.2420
  948MOL0     H25115   5.204   8.957   8.779  1.3829 -0.2226  1.4632
  948MOL0     H25116   5.118   9.167   8.902  1.2809  2.3618  0.5585
  948MOL0     H25117   5.026   9.126   8.761 -1.2301  3.0557 -0.3510
  948MOL0     H25118   6.060   9.244   9.257 -2.0020  0.2108  0.0667
  948MOL0     H25119   6.310   9.272   9.240 -0.1417  1.7538 -1.9833
  948MOL0     H25120   6.689   9.285   9.032  1.5952  1.8720 -0.2213
  948MOL0     H25121   6.943   9.325   9.062 -2.4055  1.3045  1.4127
  948MOL0     H25122   8.859   9.328   9.181  0.3634 -0.2204 -0.3629
  948MOL0     H25123   9.102   9.290   9.190 -1.9852 -2.0792 -1.0411
  948MOL0     H25124   9.544   9.099   9.212 -1.0949  3.5166 -3.0037
  948MOL0     H25125   9.774   9.120   9.256  0.6721  0.0454 -0.5249
  948MOL0     H25126  10.074   9.218   9.406 -0.0654 -0.5689 -0.9944
  948MOL0     H25127   9.942   9.101   9.398  1.5107 -1.2994 -0.2065
  948MOL0     H25128   9.937   9.090   9.641 -3.3169  1.3948 -0.3472
  948MOL0     H25129  10.112   9.098   9.607 -0.3535  0.6946  0.1474
  948MOL0     H25130  10.099   9.239   9.789  1.9162  5.7742  0.8801
  948MOL0     H25131   9.935   9.277   9.755 -0.3232 -0.1411  0.2585
  948MOL0     H25132  10.017   9.439   9.568 -0.3563  2.0679  0.7897
  948MOL0     H25133  10.037   9.483   9.728 -0.7461 -0.0156 -0.8948
  948MOL0     H25134  10.438   9.421   9.607  1.5764  1.8125 -1.2467
  948MOL0     H25135   9.703   9.396   9.572  0.7807 -0.8644 -0.6884
  948MOL0     H25136   9.449   9.337   9.547 -1.9420  0.2971 -2.5655
  949MOL0     O25137   0.577   7.766   5.037  0.9153  0.6872  0.6835
  949MOL0     C25138   0.543   7.679   4.953 -0.3416 -0.3944 -0.5554
  949MOL0     O25139   0.411   7.650   4.922 -0.0593 -0.4564  0.2840
  949MOL0     C25140   0.324   7.745   4.969  0.1741  0.2865  0.2828
  949MOL0     C25141   0.275   7.840   4.882 -0.4149  1.2663  0.3006
  949MOL0     C25142   0.162   7.915   4.904  0.6979  0.5077  1.0836
  949MOL0     C25143   0.100   7.911   5.032 -0.9686 -0.3472 -0.0610
  949MOL0     O25144  -0.015   7.978   5.068  0.4005  0.2818 -0.8465
  949MOL0     C25145  -0.056   8.090   5.000 -0.6222  0.5539  0.3195
  949MOL0     C25146  -0.170   8.152   5.065  1.0167  0.4828 -0.0663
  949MOL0     C25147  -0.225   8.262   4.985  0.5235  0.1526 -0.8173
  949MOL0     C25148  -0.367   8.304   5.022 -0.6110  0.1024  0.2162
  949MOL0     C25149  -0.414   8.411   4.920 -0.3987  0.0127  0.1720
  949MOL0     C25150  -0.566   8.425   4.918 -0.2892  0.4605 -0.0293
  949MOL0     C25151  -0.610   8.525   4.818  0.6742  0.1999  0.5647
  949MOL0     C25152  -0.753   8.557   4.854  0.2797 -0.4868 -1.0170
  949MOL0     N25153  -0.821   8.638   4.753  0.4622 -0.1677 -0.6673
  949MOL0     C25154  -0.762   8.731   4.671 -0.7291  0.4799  0.4998
  949MOL0     C25155  -0.859   8.773   4.591  1.0618 -0.4918  0.3564
  949MOL0     C25156  -0.855   8.873   4.479 -0.5259  0.2506  1.2117
  949MOL0     C25157  -0.977   8.966   4.467 -0.2321 -0.2506 -0.2642
  949MOL0     C25158  -1.108   8.910   4.416 -0.2903  0.0751 -0.5880
  949MOL0     C25159  -1.217   9.015   4.425 -0.2146  0.3872  0.0448
  949MOL0     O25160  -1.204   9.106   4.318  0.3197 -0.8722  0.6402
  949MOL0     C25161  -1.300   9.197   4.296 -0.3948 -0.1323 -0.0394
  949MOL0     C25162  -1.436   9.162   4.298 -0.6402  0.4172 -1.0299
  949MOL0     C25163  -1.525   9.262   4.260 -0.2154 -0.6965 -0.4243
  949MOL0     C25164  -1.490   9.390   4.214 -0.4029 -0.1596 -0.1216
  949MOL0     C25165  -1.603   9.482   4.171 -0.5593  0.1389  0.3627
  949MOL0     O25166  -1.732   9.448   4.178 -0.0042  0.7957 -0.7787
  949MOL0     C25167  -1.822   9.539   4.147  0.1377 -0.3403  0.3681
  949MOL0     C25168  -1.930   9.501   4.063  0.1794 -0.0656 -0.8404
  949MOL0     C25169  -2.025   9.597   4.021  0.1471  0.2932 -0.0876
  949MOL0     C25170  -2.026   9.733   4.058 -2.0973 -0.5572  0.2299
  949MOL0     O25171  -2.115   9.823   4.011 -0.0574 -1.1797  0.2624
  949MOL0     C25172  -2.108   9.965   4.038  0.2725 -0.4930  0.5564
  949MOL0     C25173  -2.238  10.046   3.992 -0.5188  0.5533 -0.2619
  949MOL0     C25174  -2.367  10.022   4.072  0.5202 -0.5967  0.4159
  949MOL0     C25175  -2.479  10.114   4.008 -0.3791  1.2265 -0.2074
  949MOL0     C25176  -2.594  10.110   4.103 -0.5198  0.0208  0.3372
  949MOL0     C25177  -2.583  10.210   4.218  0.1221  0.7029  0.3570
  949MOL0     C25178  -2.705  10.196   4.308  0.1891 -0.7280  0.6682
  949MOL0     C25179  -2.711  10.338   4.386  0.3368  0.2508 -0.3294
  949MOL0    Cl25180  -2.554  10.408   4.445  0.1045  0.2584 -0.3566
  949MOL0     C25181  -1.926   9.759   4.154  0.4635 -0.6180  0.7667
  949MOL0     C25182  -1.828   9.667   4.200  0.3578 -0.1466  0.0591
  949MOL0     O25183  -1.559   9.589   4.137 -0.0008  0.8141  0.2031
  949MOL0     C25184  -1.353   9.422   4.221  0.3266 -0.5670  0.3893
  949MOL0     C25185  -1.259   9.323   4.255 -0.2243 -0.5509  0.0268
  949MOL0     N25186  -0.975   8.699   4.617 -0.6071 -0.3735 -0.4244
  949MOL0     N25187  -0.948   8.615   4.714  0.5285  0.2681  0.5465
  949MOL0     C25188   0.156   7.817   5.124  0.4108 -0.0568  0.1964
  949MOL0     C25189   0.266   7.727   5.096  0.0311  1.2661  1.7078
  949MOL0     C25190   0.649   7.624   4.875  1.0037  0.2166  0.7706
  949MOL0     C25191   0.780   7.644   4.919  0.2501 -0.3211  0.2772
  949MOL0     C25192   0.897   7.607   4.848  0.4734 -1.1025  0.3993
  949MOL0     C25193   0.884   7.554   4.721 -0.7153  0.8750  0.2053
  949MOL0     O25194   1.000   7.519   4.646  0.2184  0.0878 -0.5584
  949MOL0     C25195   0.985   7.401   4.563 -0.2279 -0.5114  0.7436
  949MOL0     C25196   1.112   7.323   4.549  0.5442 -0.6190  0.3053
  949MOL0     C25197   1.158   7.257   4.680  0.9835 -0.7887 -0.4172
  949MOL0     C25198   1.299   7.217   4.666  0.2059 -0.0783  0.4849
  949MOL0     C25199   1.405   7.310   4.685  0.1228 -0.5062  0.2924
  949MOL0     C25200   1.500   7.379   4.707  0.3683  0.5925  0.2116
  949MOL0     C25201   0.748   7.539   4.677  0.1240  0.1379  0.1971
  949MOL0     C25202   0.629   7.575   4.743  0.2908 -0.5591  0.0874
  949MOL0     H25203   0.315   7.852   4.781  1.6653  1.6190  1.1196
  949MOL0     H25204   0.124   7.986   4.832 -1.5186 -0.1519  1.5217
  949MOL0     H25205  -0.079   8.071   4.895 -0.2987  0.4415  0.2672
  949MOL0     H25206   0.031   8.156   4.999  1.2771 -1.7748 -1.4761
  949MOL0     H25207  -0.148   8.183   5.168 -3.6794 -3.5901  2.6303
  949MOL0     H25208  -0.251   8.079   5.077  0.5075  1.2233  1.1217
  949MOL0     H25209  -0.217   8.235   4.879  0.6963  1.7808 -1.2489
  949MOL0     H25210  -0.157   8.345   5.006  2.9624 -0.9216 -3.5766
  949MOL0     H25211  -0.431   8.216   5.013 -1.4537  0.8876 -2.5838
  949MOL0     H25212  -0.382   8.338   5.124 -0.8728 -1.2026  0.6334
  949MOL0     H25213  -0.388   8.386   4.817  0.8439 -2.3575  0.9923
  949MOL0     H25214  -0.358   8.501   4.946  0.8906 -0.6338 -0.2647
  949MOL0     H25215  -0.597   8.450   5.020  0.9421 -1.0457  0.7659
  949MOL0     H25216  -0.607   8.329   4.888  0.0025  1.0522 -2.4831
  949MOL0     H25217  -0.549   8.616   4.810 -4.6926  4.1500 -0.7592
  949MOL0     H25218  -0.615   8.471   4.723  3.7741 -0.8732  0.8715
  949MOL0     H25219  -0.759   8.620   4.943  0.8046 -3.1973  1.0316
  949MOL0     H25220  -0.807   8.465   4.875  0.0721 -0.2851 -0.6671
  949MOL0     H25221  -0.659   8.765   4.679 -0.2300 -0.7849 -0.1481
  949MOL0     H25222  -0.848   8.812   4.388 -3.7122  1.9883 -0.3578
  949MOL0     H25223  -0.771   8.940   4.499 -2.2414  3.6942 -1.8598
  949MOL0     H25224  -0.950   9.052   4.406 -0.6978  0.0689 -0.0179
  949MOL0     H25225  -0.995   8.997   4.570  2.4894 -1.8889  0.8317
  949MOL0     H25226  -1.090   8.875   4.314  2.6914 -1.2020  0.2548
  949MOL0     H25227  -1.137   8.827   4.481 -0.8147  1.3058  0.8158
  949MOL0     H25228  -1.206   9.050   4.528  0.4315  3.2427 -0.9092
  949MOL0     H25229  -1.314   8.967   4.413  0.3812 -0.9866  0.4954
  949MOL0     H25230  -1.462   9.060   4.324 -2.1819  0.8650 -0.6865
  949MOL0     H25231  -1.630   9.241   4.277 -0.3905 -1.6796 -2.3898
  949MOL0     H25232  -1.937   9.399   4.025  0.0797  0.6494 -2.8764
  949MOL0     H25233  -2.098   9.550   3.956 -2.0415  1.9335  1.0534
  949MOL0     H25234  -2.020  10.002   3.984 -0.7007 -0.0720 -0.8205
  949MOL0     H25235  -2.099   9.987   4.145  0.7835 -1.4341  0.7149
  949MOL0     H25236  -2.256  10.016   3.889 -0.6760  0.4585 -0.2080
  949MOL0     H25237  -2.217  10.153   4.001  1.4299  0.0511  2.4663
  949MOL0     H25238  -2.351  10.055   4.175  0.5587  1.7470 -0.2767
  949MOL0     H25239  -2.404   9.919   4.073  0.6234 -0.6334  0.5722
  949MOL0     H25240  -2.441  10.216   3.997  1.0677  1.0678  2.3735
  949MOL0     H25241  -2.509  10.075   3.911 -2.9441  3.3119 -0.3399
  949MOL0     H25242  -2.586  10.009   4.143  2.2764  0.4629  1.0777
  949MOL0     H25243  -2.676  10.126   4.032 -0.5728 -0.7786  0.2128
  949MOL0     H25244  -2.576  10.313   4.180 -0.6408 -1.2643 -6.4979
  949MOL0     H25245  -2.493  10.174   4.268  0.5504  1.8520  0.4421
  949MOL0     H25246  -2.801  10.189   4.256 -0.0433  1.2185  0.7553
  949MOL0     H25247  -2.686  10.121   4.385 -0.9398  2.0589  3.8656
  949MOL0     H25248  -2.800  10.341   4.450 -0.6037  0.2888 -1.5948
  949MOL0     H25249  -2.731  10.400   4.298  0.1259  0.1013 -0.3906
  949MOL0     H25250  -1.917   9.860   4.194 -1.4685 -0.8303  1.8402
  949MOL0     H25251  -1.759   9.684   4.282  1.2015  0.1107 -0.6861
  949MOL0     H25252  -1.311   9.515   4.185  1.7917 -1.6245 -0.7956
  949MOL0     H25253  -1.152   9.339   4.258 -0.2452 -0.4319  0.1269
  949MOL0     H25254   0.101   7.811   5.218  2.3295  3.4430  1.7567
  949MOL0     H25255   0.289   7.650   5.169 -1.6103 -0.1613  0.7941
  949MOL0     H25256   0.797   7.674   5.022  0.0523 -4.1276  1.5640
  949MOL0     H25257   0.992   7.608   4.899 -0.4055 -0.8858  2.0823
  949MOL0     H25258   0.958   7.429   4.461  0.4703 -2.0175  0.1148
  949MOL0     H25259   0.913   7.337   4.614 -2.0694  1.3114  0.5508
  949MOL0     H25260   1.109   7.251   4.468 -1.4665 -0.7423  0.4417
  949MOL0     H25261   1.186   7.394   4.511 -0.2060  1.1114  1.9174
  949MOL0     H25262   1.108   7.161   4.695 -0.8443  0.2465  0.4107
  949MOL0     H25263   1.156   7.314   4.773 -3.3358 -1.2231 -0.0412
  949MOL0     H25264   1.323   7.131   4.729  0.4786 -0.4858 -0.1557
  949MOL0     H25265   1.299   7.169   4.568 -0.0424  0.2690  0.3152
  949MOL0     H25266   1.591   7.434   4.719  0.9934 -0.3777  0.0895
  949MOL0     H25267   0.729   7.512   4.574  0.2311  2.0694 -0.3743
  949MOL0     H25268   0.529   7.567   4.703 -0.7908  6.6008  0.1863
  950MOL0     O25269   5.617  10.336   7.398  0.7551 -0.6125  0.5735
  950MOL0     C25270   5.663  10.438   7.339 -0.1067  0.4176  0.2948
  950MOL0     O25271   5.606  10.502   7.235  0.2575  0.2027  0.7360
  950MOL0     C25272   5.485  10.469   7.184  0.6098 -0.2478  1.1678
  950MOL0     C25273   5.449  10.339   7.148  1.0300  0.3216 -0.2658
  950MOL0     C25274   5.327  10.302   7.089  0.3102 -0.0782  1.3299
  950MOL0     C25275   5.228  10.403   7.079  0.0352  0.4410 -0.4798
  950MOL0     O25276   5.100  10.377   7.034 -0.1031  0.1826  0.2882
  950MOL0     C25277   5.059  10.240   7.059  0.5194 -1.0272 -0.7445
  950MOL0     C25278   4.904  10.253   7.042  0.3294  0.7407 -0.3395
  950MOL0     C25279   4.842  10.116   7.053  0.5985  0.5063  0.2069
  950MOL0     C25280   4.685  10.116   7.047 -0.0051 -0.2361 -0.5013
  950MOL0     C25281   4.611   9.985   7.057 -0.2888  0.1665 -0.4987
  950MOL0     C25282   4.460  10.012   7.032 -0.2667 -0.6860  1.0669
  950MOL0     C25283   4.394   9.878   7.023 -0.4701 -0.3962 -1.0318
  950MOL0     C25284   4.245   9.882   7.005  0.4835  0.4904 -0.4293
  950MOL0     N25285   4.186   9.936   7.120 -0.6757 -0.1148 -0.3555
  950MOL0     C25286   4.140   9.860   7.225  0.3171 -0.2502  0.3502
  950MOL0     C25287   4.073   9.947   7.297  0.5809  0.2593 -0.1826
  950MOL0     C25288   3.993   9.926   7.424  0.0113  0.9352  0.3423
  950MOL0     C25289   3.840   9.934   7.386 -0.3057  0.4496  0.1473
  950MOL0     C25290   3.762   9.893   7.510 -0.9535 -0.4755 -0.0889
  950MOL0     C25291   3.615   9.912   7.483  0.1818 -0.7955 -0.2099
  950MOL0     O25292   3.582  10.050   7.443  0.3281  0.3030  0.2636
  950MOL0     C25293   3.447  10.081   7.437 -0.0638  0.8752  0.3028
  950MOL0     C25294   3.335   9.997   7.463  0.2534  0.2649  0.0468
  950MOL0     C25295   3.205  10.038   7.484 -0.1814  0.2534 -0.3737
  950MOL0     C25296   3.181  10.176   7.470 -0.3832 -0.8103 -0.3365
  950MOL0     C25297   3.051  10.229   7.503  0.5033 -0.3854 -1.2410
  950MOL0     O25298   2.962  10.152   7.572 -0.7682  0.1268  0.5647
  950MOL0     C25299   2.859  10.204   7.650 -0.3143  0.7424  0.1694
  950MOL0     C25300   2.734  10.140   7.662 -0.5550 -1.4017 -0.2677
  950MOL0     C25301   2.628  10.192   7.740  0.1197 -0.0952 -0.0710
  950MOL0     C25302   2.658  10.313   7.811 -0.2879 -0.7347  0.7751
  950MOL0     O25303   2.559  10.366   7.881 -0.3613 -0.9540  0.3323
  950MOL0     C25304   2.437  10.396   7.812  0.1154  0.3258  0.3303
  950MOL0     C25305   2.384  10.509   7.897  0.5298  0.3266 -0.3773
  950MOL0     C25306   2.240  10.548   7.849  0.8194 -0.0130  0.2536
  950MOL0     C25307   2.187  10.485   7.724  0.1091 -0.2685 -0.0552
  950MOL0     C25308   2.036  10.537   7.711  0.1035  0.5801 -0.9144
  950MOL0     C25309   1.980  10.460   7.596  0.1013 -0.4507  0.9415
  950MOL0     C25310   1.835  10.509   7.589  0.3202  0.7526 -0.5455
  950MOL0     C25311   1.745  10.421   7.496  0.3922 -0.4209  0.0086
  950MOL0    Cl25312   1.805  10.451   7.332  0.3492 -0.1183 -0.6655
  950MOL0     C25313   2.790  10.359   7.817  0.2277 -0.4947 -0.3738
  950MOL0     C25314   2.891  10.310   7.731 -0.2234 -0.1188  0.2671
  950MOL0     O25315   3.035  10.346   7.476  0.5209 -0.1124  0.4893
  950MOL0     C25316   3.291  10.263   7.432  0.5294  0.1216 -0.6649
  950MOL0     C25317   3.420  10.216   7.420 -0.1290  0.0055 -0.7117
  950MOL0     N25318   4.066  10.069   7.235  0.0879 -0.1993 -0.2305
  950MOL0     N25319   4.149  10.066   7.138 -0.3637  0.0792 -0.0065
  950MOL0     C25320   5.267  10.541   7.112  0.7326  0.4240 -0.6159
  950MOL0     C25321   5.394  10.573   7.161 -0.2087 -0.6023 -1.0686
  950MOL0     C25322   5.803  10.475   7.372  0.9273 -0.6367 -0.1184
  950MOL0     C25323   5.858  10.567   7.294 -0.9461 -0.7918 -0.7723
  950MOL0     C25324   5.970  10.635   7.344  0.1512  1.2161  0.3292
  950MOL0     C25325   6.042  10.584   7.449 -0.7200 -0.1005 -0.4285
  950MOL0     O25326   6.159  10.664   7.478 -0.2266 -0.2455  0.0815
  950MOL0     C25327   6.267  10.618   7.549 -0.3725  0.0149  0.0652
  950MOL0     C25328   6.393  10.649   7.483 -0.3411 -0.2419 -0.0683
  950MOL0     C25329   6.509  10.653   7.567 -0.3897 -0.2101 -0.5232
  950MOL0     C25330   6.649  10.641   7.497  0.5228  0.4662 -0.2132
  950MOL0     C25331   6.670  10.501   7.460  0.7683  0.5908  0.3246
  950MOL0     C25332   6.683  10.387   7.433 -0.4282  0.2019 -0.5483
  950MOL0     C25333   5.986  10.484   7.524  0.2019 -0.6671 -0.1866
  950MOL0     C25334   5.863  10.435   7.490  0.8834 -0.3038  0.1022
  950MOL0     H25335   5.529  10.266   7.158  1.7911  0.8245 -2.1854
  950MOL0     H25336   5.303  10.201   7.059 -0.3561  0.1682  1.0134
  950MOL0     H25337   5.085  10.202   7.159  0.1506 -0.8070 -0.5642
  950MOL0     H25338   5.096  10.169   6.985 -1.9386 -3.1553 -0.0852
  950MOL0     H25339   4.873  10.312   6.955  1.5649  3.8619  1.2062
  950MOL0     H25340   4.880  10.305   7.134  2.4563 -0.4469  0.9774
  950MOL0     H25341   4.867  10.082   7.154  0.4123 -0.0757  0.0598
  950MOL0     H25342   4.889  10.049   6.981  3.2779  1.4084  0.9765
  950MOL0     H25343   4.651  10.182   7.127 -0.5001 -1.2217  0.1155
  950MOL0     H25344   4.671  10.178   6.958  1.6380  2.5620  1.0382
  950MOL0     H25345   4.604   9.949   7.160 -4.0793 -0.6432 -0.8691
  950MOL0     H25346   4.646   9.914   6.982 -1.3333 -0.5825 -0.3053
  950MOL0     H25347   4.437  10.069   6.942  3.2101  1.7530  1.5247
  950MOL0     H25348   4.429  10.068   7.120  1.5455  0.3422  1.1074
  950MOL0     H25349   4.441   9.828   6.937  0.8942  0.6376 -0.9187
  950MOL0     H25350   4.415   9.816   7.110  0.4978  0.3732 -0.7065
  950MOL0     H25351   4.222   9.777   6.984 -1.7809  0.5304  1.3767
  950MOL0     H25352   4.223   9.939   6.914 -0.9408 -1.4695 -1.3874
  950MOL0     H25353   4.147   9.754   7.245  1.8807 -0.1824  0.2417
  950MOL0     H25354   4.011  10.002   7.500 -0.6911  2.0698 -0.5836
  950MOL0     H25355   4.013   9.825   7.462 -7.3295 -0.9412  0.7267
  950MOL0     H25356   3.814   9.866   7.304 -0.9523  0.1523  0.5903
  950MOL0     H25357   3.818  10.038   7.361  0.1258  0.5829  0.3134
  950MOL0     H25358   3.784   9.791   7.543  0.5574  0.2098  1.1561
  950MOL0     H25359   3.799   9.968   7.580  3.1714 -2.2095 -0.1443
  950MOL0     H25360   3.563   9.897   7.577  1.1621 -2.0465  0.1564
  950MOL0     H25361   3.584   9.838   7.409  0.6666 -1.4554  0.2385
  950MOL0     H25362   3.358   9.893   7.485  4.9510  0.7526 -1.3967
  950MOL0     H25363   3.136   9.960   7.516  3.3784 -3.2626 -0.5487
  950MOL0     H25364   2.717  10.051   7.601  0.5715 -0.3724 -2.1656
  950MOL0     H25365   2.527  10.153   7.726  0.4022 -1.1752  0.7778
  950MOL0     H25366   2.372  10.309   7.814  0.3782 -0.1006 -3.3527
  950MOL0     H25367   2.458  10.432   7.711  1.4477  2.4591  1.2935
  950MOL0     H25368   2.457  10.585   7.926  0.7011  0.7008 -1.7174
  950MOL0     H25369   2.365  10.455   7.991 -0.9362  0.5229 -0.5325
  950MOL0     H25370   2.240  10.656   7.834  0.8996 -0.2298 -1.5254
  950MOL0     H25371   2.168  10.530   7.930  0.1866  0.2285 -0.2522
  950MOL0     H25372   2.249  10.513   7.638  2.0521  1.5057  1.8077
  950MOL0     H25373   2.180  10.377   7.735 -0.1439 -0.0299  3.0012
  950MOL0     H25374   2.045  10.642   7.681 -0.6006  0.8484 -0.2183
  950MOL0     H25375   1.989  10.525   7.808  0.5085  1.5254 -0.5866
  950MOL0     H25376   1.974  10.354   7.626  0.8675 -0.6661  0.3616
  950MOL0     H25377   2.038  10.475   7.505  0.9043 -2.5905  1.0350
  950MOL0     H25378   1.791  10.502   7.689  1.7894  0.8363  0.1278
  950MOL0     H25379   1.823  10.614   7.562  1.1145  0.2466 -3.1542
  950MOL0     H25380   1.638  10.441   7.503  0.4284 -0.2896  0.2132
  950MOL0     H25381   1.780  10.321   7.523  0.2021  0.0112  2.0161
  950MOL0     H25382   2.815  10.435   7.890  0.9862 -0.9688 -0.1262
  950MOL0     H25383   2.977  10.375   7.717 -0.9743  0.9923  0.6672
  950MOL0     H25384   3.271  10.369   7.416  0.2560 -0.2810 -3.5482
  950MOL0     H25385   3.503  10.277   7.384 -1.0634  0.7158 -1.7222
  950MOL0     H25386   5.180  10.607   7.112  0.2622 -0.1768  0.2404
  950MOL0     H25387   5.427  10.670   7.197  1.6941 -1.4931 -0.2631
  950MOL0     H25388   5.810  10.610   7.207  3.1490  0.3799 -2.7337
  950MOL0     H25389   6.002  10.711   7.273  1.8553 -0.6770 -1.0630
  950MOL0     H25390   6.263  10.508   7.554 -0.6014  0.0484  0.9760
  950MOL0     H25391   6.263  10.660   7.650 -1.5939 -1.9986  0.9364
  950MOL0     H25392   6.413  10.566   7.415 -1.5778 -0.4321 -0.2232
  950MOL0     H25393   6.388  10.746   7.432  1.5335  0.5342  1.1167
  950MOL0     H25394   6.503  10.582   7.650  2.3805  0.4945  0.3732
  950MOL0     H25395   6.494  10.755   7.603 -0.3443 -0.1855 -0.5734
  950MOL0     H25396   6.649  10.696   7.403 -1.5018 -0.4240 -0.7916
  950MOL0     H25397   6.732  10.670   7.562  0.1866  0.4317  0.2342
  950MOL0     H25398   6.693  10.285   7.401 -4.9916 -1.0236  1.1258
  950MOL0     H25399   6.034  10.462   7.619  2.8704  2.9704 -0.4609
  950MOL0     H25400   5.813  10.364   7.554  0.4400  0.2505  0.3733
  951MOL0     O25401   3.678   5.029   7.377  0.0018  0.1064 -0.2772
  951MOL0     C25402   3.746   5.097   7.461 -0.2392  0.5495  0.1895
  951MOL0     O25403   3.696   5.181   7.548  0.2680 -0.2671  0.5812
  951MOL0     C25404   3.558   5.179   7.564  0.9111  0.2871 -0.5349
  951MOL0     C25405   3.495   5.302   7.579 -1.2453 -0.3104 -0.1247
  951MOL0     C25406   3.360   5.301   7.607 -0.0111 -0.5174  0.0395
  951MOL0     C25407   3.280   5.183   7.620 -1.0542  0.7689 -0.4283
  951MOL0     O25408   3.142   5.197   7.646 -1.5151 -0.1515 -0.2310
  951MOL0     C25409   3.067   5.088   7.700 -0.1131 -0.3768 -0.1481
  951MOL0     C25410   2.936   5.150   7.745  0.0920 -0.4379  0.5913
  951MOL0     C25411   2.961   5.276   7.833 -0.5155 -0.5117  0.7643
  951MOL0     C25412   2.838   5.292   7.922  0.0051  0.4114 -0.0416
  951MOL0     C25413   2.865   5.407   8.029 -0.4524 -0.2351  0.0745
  951MOL0     C25414   2.886   5.344   8.172  0.5226 -0.3872  0.3495
  951MOL0     C25415   2.912   5.462   8.271 -1.0272  0.3870 -0.4324
  951MOL0     C25416   2.897   5.416   8.416 -0.5706 -0.0194  0.1833
  951MOL0     N25417   2.940   5.524   8.513  0.3797  0.3858 -0.2410
  951MOL0     C25418   3.008   5.500   8.631  0.4245  0.3033  1.0807
  951MOL0     C25419   2.963   5.589   8.727  0.2006 -0.5174  0.4952
  951MOL0     C25420   2.990   5.594   8.873  0.5068  0.7220  0.2425
  951MOL0     C25421   3.125   5.634   8.912  0.0327 -0.2155 -0.1318
  951MOL0     C25422   3.171   5.774   8.867 -0.3519 -0.2121  0.2908
  951MOL0     C25423   3.306   5.802   8.919 -0.9484  0.2038  0.4075
  951MOL0     O25424   3.342   5.937   8.900 -0.0853 -0.3557  0.0772
  951MOL0     C25425   3.475   5.978   8.869  0.2988  0.0159 -0.7772
  951MOL0     C25426   3.582   5.892   8.864  0.2031  0.6119 -0.3559
  951MOL0     C25427   3.710   5.934   8.868 -0.2468 -0.8128 -0.2346
  951MOL0     C25428   3.739   6.074   8.858  0.1644 -0.3286  0.1573
  951MOL0     C25429   3.870   6.135   8.856 -0.5442  0.3670 -0.3024
  951MOL0     O25430   3.887   6.264   8.869  0.1749 -0.3961 -0.4920
  951MOL0     C25431   4.013   6.321   8.871  0.3779  0.1891 -0.2850
  951MOL0     C25432   4.113   6.308   8.965 -0.3911 -0.0765  0.0279
  951MOL0     C25433   4.232   6.374   8.942 -0.2423  0.1259  0.0243
  951MOL0     C25434   4.260   6.440   8.822 -0.8195  0.5027  0.1752
  951MOL0     O25435   4.382   6.490   8.795  1.1262 -0.1960  0.6354
  951MOL0     C25436   4.491   6.396   8.788  1.0136  0.4171  0.0046
  951MOL0     C25437   4.592   6.453   8.893 -0.6260 -0.4363 -0.8236
  951MOL0     C25438   4.717   6.359   8.910  0.1851  0.4374  0.2276
  951MOL0     C25439   4.814   6.423   9.013 -0.3193 -0.5238  0.5088
  951MOL0     C25440   4.947   6.338   9.036  0.5811  0.3849  0.2920
  951MOL0     C25441   4.917   6.210   9.093 -0.1157  0.0101  0.2639
  951MOL0     C25442   5.054   6.136   9.142  0.3797 -0.0609 -0.3898
  951MOL0     C25443   5.032   5.988   9.173  0.1491 -1.0900  0.3691
  951MOL0    Cl25444   4.968   5.901   9.031  0.0275 -0.5369 -0.0573
  951MOL0     C25445   4.154   6.457   8.735  0.5871  0.7417  0.8271
  951MOL0     C25446   4.028   6.404   8.764 -1.1149 -0.2712  0.1225
  951MOL0     O25447   3.965   6.055   8.855 -0.7028 -0.4857  0.5623
  951MOL0     C25448   3.629   6.163   8.853 -0.8434  0.2200  0.7292
  951MOL0     C25449   3.502   6.117   8.864 -0.9337 -0.1402 -1.0403
  951MOL0     N25450   2.878   5.684   8.658 -0.2822 -0.1311  0.9451
  951MOL0     N25451   2.862   5.640   8.539 -0.4974  0.9017  0.5109
  951MOL0     C25452   3.351   5.063   7.618 -0.3053  0.4025 -0.0123
  951MOL0     C25453   3.493   5.056   7.589  1.0980  0.6717  0.2059
  951MOL0     C25454   3.893   5.075   7.456 -0.4666 -0.2583  0.2307
  951MOL0     C25455   3.974   5.072   7.573  0.0713 -0.2636  0.4923
  951MOL0     C25456   4.105   5.050   7.560  0.2717 -0.1103  0.5842
  951MOL0     C25457   4.165   5.041   7.437 -0.4615  0.5787  1.3035
  951MOL0     O25458   4.296   5.026   7.418 -0.1094 -0.0871 -0.7349
  951MOL0     C25459   4.384   5.001   7.528 -0.4529 -0.0238 -0.6321
  951MOL0     C25460   4.505   4.919   7.483 -0.4191 -0.2838 -0.4983
  951MOL0     C25461   4.594   4.994   7.382 -0.9351 -0.4613  0.4108
  951MOL0     C25462   4.626   5.137   7.408  0.1672  0.6178 -0.5863
  951MOL0     C25463   4.761   5.166   7.358  0.5338 -0.0023 -0.0159
  951MOL0     C25464   4.874   5.166   7.306  1.1035 -0.0567  0.4077
  951MOL0     C25465   4.092   5.058   7.317 -0.3447  0.4206 -0.0507
  951MOL0     C25466   3.956   5.074   7.329 -0.4647 -0.6731  0.3689
  951MOL0     H25467   3.553   5.393   7.568  0.2137 -1.5137 -4.3030
  951MOL0     H25468   3.308   5.396   7.611  0.5579 -0.1496 -1.0107
  951MOL0     H25469   3.114   5.028   7.779 -0.6744 -4.6273 -2.7588
  951MOL0     H25470   3.041   5.009   7.629 -1.7566  0.1666 -0.1906
  951MOL0     H25471   2.884   5.070   7.799 -0.7307  0.0106  0.4768
  951MOL0     H25472   2.873   5.175   7.659 -2.2467 -1.7553  1.8239
  951MOL0     H25473   2.978   5.371   7.780 -2.2922 -0.7029 -0.2218
  951MOL0     H25474   3.036   5.259   7.911  0.8403  1.2675 -0.0626
  951MOL0     H25475   2.746   5.320   7.869 -0.1830 -1.2671 -0.6327
  951MOL0     H25476   2.805   5.202   7.974 -2.4642  0.6736 -1.0006
  951MOL0     H25477   2.775   5.469   8.028 -0.0199  0.4155  0.7974
  951MOL0     H25478   2.953   5.463   7.997 -1.4175 -0.7721 -4.1366
  951MOL0     H25479   2.967   5.271   8.167 -2.1804 -3.5971 -0.6724
  951MOL0     H25480   2.790   5.298   8.198 -0.1824  1.7363  1.7977
  951MOL0     H25481   3.013   5.498   8.251 -0.4925 -1.3822 -1.1415
  951MOL0     H25482   2.835   5.536   8.249 -2.8226 -1.0512  0.6695
  951MOL0     H25483   2.964   5.333   8.438  1.3344  1.8218  1.7623
  951MOL0     H25484   2.796   5.382   8.439 -1.2804  1.4462 -0.5995
  951MOL0     H25485   3.070   5.413   8.649  0.0957 -0.0087  0.7090
  951MOL0     H25486   2.977   5.495   8.915  0.8305  0.3330 -0.5448
  951MOL0     H25487   2.922   5.660   8.927  0.0267  2.3338 -2.1745
  951MOL0     H25488   3.185   5.546   8.887 -0.9590 -0.8041 -0.5067
  951MOL0     H25489   3.117   5.634   9.021 -1.0504  0.5405 -0.1915
  951MOL0     H25490   3.167   5.774   8.758  1.2603 -2.3027  0.1895
  951MOL0     H25491   3.104   5.852   8.907 -1.0331 -0.2683 -0.7154
  951MOL0     H25492   3.378   5.729   8.881 -2.1547 -0.8891  0.1286
  951MOL0     H25493   3.311   5.790   9.028  0.2183  0.9176  0.4366
  951MOL0     H25494   3.560   5.785   8.865  0.8263  0.3844  3.0837
  951MOL0     H25495   3.800   5.873   8.873  1.9413  2.1456 -0.8760
  951MOL0     H25496   4.104   6.249   9.056  2.3799 -1.2795 -0.3600
  951MOL0     H25497   4.297   6.345   9.024 -1.2719 -0.0441  0.7871
  951MOL0     H25498   4.521   6.387   8.683 -2.2075  0.9580 -1.0803
  951MOL0     H25499   4.457   6.302   8.833  0.2698  1.2126  1.1600
  951MOL0     H25500   4.549   6.466   8.992 -2.2406 -1.8613 -1.2947
  951MOL0     H25501   4.623   6.550   8.850 -2.7868  0.8476  0.3718
  951MOL0     H25502   4.783   6.348   8.824  2.4077 -4.3778  2.1919
  951MOL0     H25503   4.688   6.256   8.930  2.8017 -0.4596 -0.3029
  951MOL0     H25504   4.859   6.511   8.968 -0.0379 -0.5283  0.7790
  951MOL0     H25505   4.773   6.450   9.111 -0.5517  0.1179  0.2386
  951MOL0     H25506   5.011   6.403   9.096  2.8201 -1.7907  0.3924
  951MOL0     H25507   4.998   6.323   8.940 -1.8871 -0.2926 -0.9892
  951MOL0     H25508   4.872   6.152   9.012 -1.3793 -1.5320  1.9784
  951MOL0     H25509   4.846   6.222   9.175  0.6460  2.2042  0.6801
  951MOL0     H25510   5.119   6.145   9.055 -1.3702  0.2478 -1.7232
  951MOL0     H25511   5.089   6.198   9.225  0.2258  3.0028 -2.4387
  951MOL0     H25512   4.952   5.989   9.248  0.2761  1.8864  0.5634
  951MOL0     H25513   5.121   5.934   9.209 -0.1671 -1.2494  0.9268
  951MOL0     H25514   4.179   6.496   8.637 -0.7402  3.4769  1.4549
  951MOL0     H25515   3.948   6.422   8.693 -0.0018  3.4323 -0.4309
  951MOL0     H25516   3.639   6.271   8.841 -1.5804  0.1138 -1.2261
  951MOL0     H25517   3.425   6.192   8.877 -0.8438  0.3970 -3.2563
  951MOL0     H25518   3.305   4.967   7.639  2.3385 -0.6833  1.1846
  951MOL0     H25519   3.561   4.972   7.595 -0.2312 -0.5227 -0.6884
  951MOL0     H25520   3.934   5.089   7.672 -0.6615 -0.3349  0.2156
  951MOL0     H25521   4.157   5.038   7.655  0.0696  0.6316  0.7906
  951MOL0     H25522   4.334   4.941   7.605  1.0591 -1.7767 -0.9241
  951MOL0     H25523   4.408   5.093   7.582  0.0692 -0.3658 -0.2733
  951MOL0     H25524   4.565   4.905   7.573  2.3071  5.3978 -0.9257
  951MOL0     H25525   4.456   4.830   7.442 -0.8341 -0.6418  0.7505
  951MOL0     H25526   4.545   4.996   7.284 -1.8341 -2.6766  0.7572
  951MOL0     H25527   4.686   4.935   7.382  0.4625  1.5848  0.3203
  951MOL0     H25528   4.548   5.198   7.362 -1.8415 -1.2063  0.2457
  951MOL0     H25529   4.631   5.158   7.515 -2.1495 -0.6589 -0.1630
  951MOL0     H25530   4.974   5.184   7.271  1.8534  0.5162  2.6453
  951MOL0     H25531   4.138   5.043   7.220 -1.4146 -1.7198 -0.2838
  951MOL0     H25532   3.904   5.070   7.233  0.4327 -0.6361 -0.1286
  952MOL0     O25533   3.605   6.433   5.262  0.1045 -0.5946 -0.4432
  952MOL0     C25534   3.592   6.539   5.196  0.7306  0.4327 -0.1683
  952MOL0     O25535   3.472   6.591   5.156  0.2903 -0.2363 -0.1627
  952MOL0     C25536   3.353   6.539   5.208 -0.1780 -0.2485 -0.2343
  952MOL0     C25537   3.330   6.459   5.325  0.3236  0.6866 -0.7856
  952MOL0     C25538   3.197   6.424   5.356  0.5702  0.4811  0.0215
  952MOL0     C25539   3.088   6.462   5.272 -0.5834  0.1224 -0.6578
  952MOL0     O25540   2.967   6.407   5.308  0.2022  0.3765 -0.3017
  952MOL0     C25541   2.899   6.341   5.199 -0.3864  0.0167  0.2883
  952MOL0     C25542   2.857   6.195   5.246 -0.0880  0.3315 -0.3623
  952MOL0     C25543   2.754   6.205   5.366  0.3580 -0.7499 -0.8953
  952MOL0     C25544   2.739   6.059   5.403 -0.4688 -0.4572 -0.3325
  952MOL0     C25545   2.623   6.034   5.498  0.4138  0.3692 -0.4064
  952MOL0     C25546   2.482   6.049   5.432  0.3982  0.1519 -0.2220
  952MOL0     C25547   2.462   5.997   5.280 -0.7832 -0.9152 -0.5163
  952MOL0     C25548   2.333   6.043   5.214 -0.9510 -0.4729  0.0332
  952MOL0     N25549   2.217   5.945   5.226 -0.0310 -0.2798  0.4384
  952MOL0     C25550   2.091   5.987   5.269  0.6823 -0.3771  0.3290
  952MOL0     C25551   2.012   5.883   5.284 -0.3396  1.2948  0.3743
  952MOL0     C25552   1.880   5.856   5.355 -0.8747  0.2008  0.5145
  952MOL0     C25553   1.758   5.887   5.265  0.0421 -0.0166 -0.5145
  952MOL0     C25554   1.726   5.771   5.173  0.3161  0.6205  0.4667
  952MOL0     C25555   1.588   5.778   5.111  0.2655 -0.4924  0.1652
  952MOL0     O25556   1.485   5.785   5.208 -0.5488 -0.2499  0.6773
  952MOL0     C25557   1.351   5.761   5.178 -0.1337  0.3533  0.2328
  952MOL0     C25558   1.272   5.752   5.288  0.1199 -0.2967 -0.1286
  952MOL0     C25559   1.139   5.715   5.274  1.1814  0.6321  0.0624
  952MOL0     C25560   1.088   5.712   5.137 -0.0740 -0.3468 -0.7996
  952MOL0     C25561   0.943   5.696   5.108  0.3946  0.7851 -0.0479
  952MOL0     O25562   0.865   5.678   5.218  0.8327  0.2514  0.3010
  952MOL0     C25563   0.725   5.664   5.224  0.1433  0.1124  0.5546
  952MOL0     C25564   0.669   5.602   5.339 -0.1259 -0.7858 -0.0563
  952MOL0     C25565   0.533   5.585   5.354 -0.4251 -0.7803  0.4482
  952MOL0     C25566   0.456   5.639   5.260  0.5564 -0.5082  0.3727
  952MOL0     O25567   0.325   5.617   5.279  0.4447  0.8342  0.4110
  952MOL0     C25568   0.234   5.651   5.176  1.0548 -0.3256  0.1664
  952MOL0     C25569   0.093   5.620   5.215  0.8228  0.1972 -0.5940
  952MOL0     C25570   0.039   5.542   5.099  0.3929 -0.5772 -0.4635
  952MOL0     C25571  -0.106   5.491   5.116 -0.1222 -0.0393  0.2051
  952MOL0     C25572  -0.208   5.609   5.118  0.0910  0.9556  0.1205
  952MOL0     C25573  -0.350   5.556   5.108  0.9739 -0.6046  0.1616
  952MOL0     C25574  -0.454   5.671   5.151  0.7779  0.8900  0.2628
  952MOL0     C25575  -0.596   5.640   5.148  0.7648 -0.2606 -0.5167
  952MOL0    Cl25576  -0.668   5.582   4.997  0.6197 -0.5766  0.0330
  952MOL0     C25577   0.500   5.688   5.141  0.1305 -0.5247  0.2971
  952MOL0     C25578   0.636   5.703   5.128  0.2448 -0.0717 -0.6001
  952MOL0     O25579   0.906   5.666   4.990 -0.0546  0.2242 -0.5142
  952MOL0     C25580   1.173   5.729   5.025 -0.2588  0.2771  0.4448
  952MOL0     C25581   1.305   5.754   5.045 -0.8660  0.2981  0.6749
  952MOL0     N25582   2.096   5.775   5.242 -0.0919 -0.3442 -0.1135
  952MOL0     N25583   2.213   5.812   5.210  0.4271  0.1519 -0.7014
  952MOL0     C25584   3.111   6.545   5.159  1.1037 -0.1398 -0.3760
  952MOL0     C25585   3.241   6.584   5.129 -1.2421 -0.1931 -0.0401
  952MOL0     C25586   3.703   6.622   5.165 -0.8506 -1.0734 -0.1847
  952MOL0     C25587   3.695   6.729   5.081 -0.6755 -0.2045  1.1023
  952MOL0     C25588   3.806   6.810   5.046  0.6166  0.3396 -0.2322
  952MOL0     C25589   3.931   6.783   5.113 -0.6813 -0.0684 -0.0830
  952MOL0     O25590   4.046   6.863   5.098 -0.1006 -0.6433 -0.3822
  952MOL0     C25591   4.042   6.979   5.015 -0.0523 -0.5557 -0.0083
  952MOL0     C25592   4.118   6.939   4.889 -0.0487 -0.1356 -0.2093
  952MOL0     C25593   4.265   6.910   4.927 -0.0506  0.3859 -0.5810
  952MOL0     C25594   4.366   6.911   4.814 -0.6791 -0.3271  0.7921
  952MOL0     C25595   4.393   7.046   4.760  0.2525  0.4882  0.3992
  952MOL0     C25596   4.421   7.158   4.725  0.5992 -0.2859 -0.1878
  952MOL0     C25597   3.941   6.671   5.195  0.1471  0.1346 -1.0441
  952MOL0     C25598   3.832   6.590   5.223  0.1778  0.2144 -0.1880
  952MOL0     H25599   3.413   6.429   5.389 -1.4006 -0.9710  0.7750
  952MOL0     H25600   3.169   6.362   5.441  0.3344  2.7134  1.6698
  952MOL0     H25601   2.959   6.337   5.108  2.5645  2.0080  1.9787
  952MOL0     H25602   2.811   6.399   5.169 -1.3132 -1.5768 -0.2007
  952MOL0     H25603   2.948   6.143   5.278 -1.0009 -0.0793  1.7428
  952MOL0     H25604   2.815   6.145   5.159 -2.1011  0.9120  0.2200
  952MOL0     H25605   2.658   6.249   5.337  1.2633 -0.1956 -3.2353
  952MOL0     H25606   2.804   6.263   5.444  2.2186 -1.7390 -1.2833
  952MOL0     H25607   2.720   5.999   5.313 -0.2869  0.6064 -1.1035
  952MOL0     H25608   2.825   6.017   5.455 -0.8302  1.0682  1.6473
  952MOL0     H25609   2.633   6.106   5.580 -0.4742 -0.8379  0.8050
  952MOL0     H25610   2.633   5.938   5.548 -0.8886  1.6590  2.5834
  952MOL0     H25611   2.457   6.155   5.433  1.9017  0.6653 -3.1988
  952MOL0     H25612   2.412   6.003   5.502  0.2238  0.8235  0.0456
  952MOL0     H25613   2.538   6.036   5.213 -1.1571 -1.1458 -1.0823
  952MOL0     H25614   2.465   5.888   5.289 -0.8373 -0.8348  0.6603
  952MOL0     H25615   2.351   6.076   5.111 -2.5042  3.6950  0.9024
  952MOL0     H25616   2.295   6.133   5.262 -1.9577  0.3486 -2.1539
  952MOL0     H25617   2.051   6.083   5.301  1.4183 -0.8939  3.0037
  952MOL0     H25618   1.887   5.929   5.436  3.3266  0.3431  0.2260
  952MOL0     H25619   1.875   5.758   5.404 -0.4854 -1.4571 -2.5113
  952MOL0     H25620   1.793   5.971   5.203 -1.5014  1.4759  0.5468
  952MOL0     H25621   1.684   5.921   5.337 -1.3422 -1.4023 -1.2302
  952MOL0     H25622   1.804   5.771   5.097 -0.0488 -2.5360 -0.0388
  952MOL0     H25623   1.732   5.678   5.231 -0.9749 -1.2237 -2.1523
  952MOL0     H25624   1.588   5.688   5.049 -1.0278 -0.1995 -0.3030
  952MOL0     H25625   1.572   5.857   5.037 -0.6960 -2.1982 -1.5254
  952MOL0     H25626   1.314   5.771   5.386  2.2116  0.8885 -1.1845
  952MOL0     H25627   1.072   5.727   5.358  0.7368 -2.1405  0.1940
  952MOL0     H25628   0.738   5.561   5.412 -0.8522 -2.8253 -0.4618
  952MOL0     H25629   0.499   5.531   5.442  0.8791 -1.2207  0.7119
  952MOL0     H25630   0.267   5.620   5.076  0.8769 -2.1163  0.6312
  952MOL0     H25631   0.248   5.760   5.180 -2.2071  0.3854 -2.5808
  952MOL0     H25632   0.034   5.711   5.230  2.8927  1.3417  1.1190
  952MOL0     H25633   0.082   5.564   5.308 -0.5303 -0.8755 -1.3547
  952MOL0     H25634   0.107   5.457   5.088 -0.0375 -1.2349  1.4545
  952MOL0     H25635   0.042   5.607   5.011 -0.9918  1.5714  0.9701
  952MOL0     H25636  -0.122   5.423   5.032  0.8149  0.1389 -0.1237
  952MOL0     H25637  -0.128   5.427   5.202  0.0643  1.4985  1.4453
  952MOL0     H25638  -0.177   5.674   5.036  2.6137 -1.1534 -0.7344
  952MOL0     H25639  -0.196   5.656   5.216  0.2604  1.3051 -0.0678
  952MOL0     H25640  -0.370   5.467   5.169 -0.8447 -0.8066 -0.6605
  952MOL0     H25641  -0.384   5.525   5.009  1.1175  0.1225 -0.1215
  952MOL0     H25642  -0.444   5.688   5.259 -0.0460  4.0481 -0.0534
  952MOL0     H25643  -0.425   5.766   5.103  1.1624  0.0974 -1.1184
  952MOL0     H25644  -0.642   5.737   5.169  0.2556 -0.5003 -0.5003
  952MOL0     H25645  -0.622   5.567   5.226  1.7166  0.6688  0.7250
  952MOL0     H25646   0.438   5.730   5.062  0.6607 -1.4554 -0.6427
  952MOL0     H25647   0.677   5.761   5.046  0.2243 -1.3477 -1.5483
  952MOL0     H25648   1.139   5.725   4.922 -0.3052 -0.8391  0.4919
  952MOL0     H25649   1.366   5.774   4.958 -1.4138  1.5089  0.5440
  952MOL0     H25650   3.029   6.586   5.101  0.8119  3.2699  2.1330
  952MOL0     H25651   3.263   6.653   5.048 -3.0060  1.2162  0.6100
  952MOL0     H25652   3.602   6.761   5.037  1.2036  2.3719 -1.4039
  952MOL0     H25653   3.793   6.887   4.970  0.5939 -1.8524 -2.5951
  952MOL0     H25654   4.088   7.068   5.059 -0.4583  0.4432 -1.5522
  952MOL0     H25655   3.944   7.022   4.994  0.2989  0.5851  0.6026
  952MOL0     H25656   4.071   6.854   4.840 -1.3742 -1.2850  2.7785
  952MOL0     H25657   4.127   7.026   4.824  1.6303 -0.6225 -0.6884
  952MOL0     H25658   4.266   6.823   4.994 -3.6929 -2.7769 -4.0501
  952MOL0     H25659   4.303   6.993   4.988 -1.0719  0.7041 -0.3584
  952MOL0     H25660   4.465   6.892   4.858  1.1531  4.4228 -0.6258
  952MOL0     H25661   4.344   6.852   4.726  1.1878  1.0010 -0.6514
  952MOL0     H25662   4.431   7.263   4.710  0.2875  0.4179  3.5157
  952MOL0     H25663   4.036   6.641   5.239 -0.6084 -1.5875 -0.5124
  952MOL0     H25664   3.831   6.508   5.293  1.5550 -1.0368 -1.5364
  953MOL0     O25665   6.459   7.557   5.345  0.3439  0.4423  0.1256
  953MOL0     C25666   6.533   7.509   5.262  0.2228  0.9684 -0.0225
  953MOL0     O25667   6.534   7.386   5.207 -0.5088  1.3321 -0.0155
  953MOL0     C25668   6.453   7.290   5.270 -0.7977 -0.1178  0.6511
  953MOL0     C25669   6.527   7.199   5.339  0.9539  0.8230  0.0512
  953MOL0     C25670   6.454   7.118   5.427 -0.3517 -0.3458 -0.9762
  953MOL0     C25671   6.319   7.113   5.435  0.2705 -0.1869 -0.5323
  953MOL0     O25672   6.267   7.038   5.539  0.4430  0.0424 -0.4159
  953MOL0     C25673   6.124   7.032   5.563  0.5899  0.2603 -0.0192
  953MOL0     C25674   6.092   6.968   5.698 -0.1670  0.3352 -0.1399
  953MOL0     C25675   5.947   6.912   5.707  0.3603 -0.8396  1.2895
  953MOL0     C25676   5.920   6.844   5.847 -0.2910 -0.9031 -0.2748
  953MOL0     C25677   5.782   6.786   5.849 -0.2794 -0.1594 -0.5539
  953MOL0     C25678   5.673   6.889   5.837 -0.0290 -0.3788 -0.0718
  953MOL0     C25679   5.542   6.828   5.875 -0.4672 -0.1041  0.4202
  953MOL0     C25680   5.516   6.839   6.033 -0.0150  0.8247  0.4249
  953MOL0     N25681   5.417   6.744   6.078 -1.0442  0.3366 -0.6219
  953MOL0     C25682   5.435   6.620   6.129  0.5008 -0.1581 -0.2703
  953MOL0     C25683   5.310   6.573   6.127  0.1979 -0.0025 -0.0541
  953MOL0     C25684   5.275   6.432   6.158 -0.5548 -0.7172  0.0571
  953MOL0     C25685   5.298   6.391   6.307 -0.0428 -0.9105  0.2154
  953MOL0     C25686   5.219   6.493   6.405  0.2365  0.6021  0.3463
  953MOL0     C25687   5.082   6.430   6.445 -1.1786 -0.5426  0.8934
  953MOL0     O25688   5.107   6.302   6.504  0.2320  0.1635 -0.5678
  953MOL0     C25689   5.047   6.251   6.619  0.8601  0.2665 -0.2788
  953MOL0     C25690   5.089   6.132   6.677 -0.2053  0.7363 -0.0728
  953MOL0     C25691   5.032   6.076   6.795  0.4133  0.1950  1.2579
  953MOL0     C25692   4.928   6.142   6.857  0.1298 -0.0672  0.5058
  953MOL0     C25693   4.863   6.090   6.981 -0.6780 -0.3348  0.2838
  953MOL0     O25694   4.796   6.168   7.071 -0.3759 -0.2608  0.2605
  953MOL0     C25695   4.752   6.113   7.183 -0.2198 -0.0056  0.1117
  953MOL0     C25696   4.837   6.105   7.299  0.5062  0.1131  0.3093
  953MOL0     C25697   4.782   6.049   7.413  0.3957 -0.2809  0.3613
  953MOL0     C25698   4.647   6.014   7.419 -0.7115 -0.1488  0.0077
  953MOL0     O25699   4.610   5.966   7.544 -0.6356  0.3558  0.5015
  953MOL0     C25700   4.478   5.899   7.538 -0.4140 -0.2634 -0.0388
  953MOL0     C25701   4.430   5.889   7.685  0.0297 -0.3915  0.0543
  953MOL0     C25702   4.282   5.838   7.706 -0.5742 -1.3247 -0.1564
  953MOL0     C25703   4.244   5.862   7.849 -0.2966  0.5731 -0.0809
  953MOL0     C25704   4.113   5.776   7.891 -0.1682 -0.3278 -0.6898
  953MOL0     C25705   4.071   5.807   8.038  0.4353 -0.0168  0.1431
  953MOL0     C25706   4.016   5.683   8.106 -0.1620  0.3006  0.7056
  953MOL0     C25707   3.955   5.695   8.244  0.5609  0.8172 -1.2001
  953MOL0    Cl25708   4.076   5.739   8.350 -0.3172  0.1460 -0.2095
  953MOL0     C25709   4.568   6.030   7.309 -0.3019  0.5504 -0.3644
  953MOL0     C25710   4.626   6.058   7.195  0.3912 -0.4799 -0.3678
  953MOL0     O25711   4.884   5.972   6.996 -0.2325 -0.5236  0.2699
  953MOL0     C25712   4.887   6.273   6.804 -0.6348 -0.1468 -0.0384
  953MOL0     C25713   4.941   6.324   6.690 -0.5945  0.1735 -0.4357
  953MOL0     N25714   5.221   6.662   6.074 -0.3934 -0.2713  0.2780
  953MOL0     N25715   5.291   6.754   6.034  0.0591 -0.6088  0.6570
  953MOL0     C25716   6.246   7.200   5.356 -0.1642  0.4322  0.4362
  953MOL0     C25717   6.310   7.289   5.271  0.2051 -0.2574 -0.2306
  953MOL0     C25718   6.642   7.597   5.216  0.9234 -0.0331 -0.4275
  953MOL0     C25719   6.754   7.549   5.149 -0.9664  0.2114  0.1470
  953MOL0     C25720   6.859   7.632   5.103 -0.1436  0.3988  1.1299
  953MOL0     C25721   6.837   7.769   5.101 -0.6584  0.2073 -0.4785
  953MOL0     O25722   6.946   7.839   5.050 -0.1884 -0.0235  0.2601
  953MOL0     C25723   6.951   7.980   5.047 -0.1416 -0.3018 -0.4224
  953MOL0     C25724   6.869   8.029   4.925  0.9103  0.3966 -0.6595
  953MOL0     C25725   6.849   8.184   4.945 -0.4049  1.3229  0.8278
  953MOL0     C25726   6.720   8.237   4.878  0.2102  1.3079 -0.7062
  953MOL0     C25727   6.592   8.202   4.940 -0.2175 -0.1143 -0.1341
  953MOL0     C25728   6.488   8.173   5.005 -0.2209  0.7982  0.3320
  953MOL0     C25729   6.722   7.822   5.167  0.2151  0.8967  0.1641
  953MOL0     C25730   6.628   7.737   5.219 -0.0932 -0.4073  1.2169
  953MOL0     H25731   6.636   7.207   5.337  0.8813  2.8696  1.6025
  953MOL0     H25732   6.511   7.057   5.497  0.1347  0.9975 -0.1557
  953MOL0     H25733   6.082   6.978   5.478 -1.1427  2.6727 -0.7874
  953MOL0     H25734   6.066   7.124   5.559  1.7494  1.1151  1.6865
  953MOL0     H25735   6.100   7.042   5.778  3.2473  0.7868 -0.7693
  953MOL0     H25736   6.153   6.883   5.729 -0.5621 -0.0289 -0.3505
  953MOL0     H25737   5.925   6.847   5.622  2.7976  2.0154 -1.8145
  953MOL0     H25738   5.876   6.993   5.685  0.6064 -0.2159  2.6819
  953MOL0     H25739   5.997   6.767   5.854  0.7691  0.2089  0.5129
  953MOL0     H25740   5.937   6.923   5.921 -0.6593  0.3834 -1.5124
  953MOL0     H25741   5.771   6.731   5.943  0.1492  2.6364  1.2678
  953MOL0     H25742   5.792   6.706   5.776  0.5306 -1.3554  0.8075
  953MOL0     H25743   5.666   6.941   5.741 -2.8938  0.3420  0.4287
  953MOL0     H25744   5.688   6.966   5.913  2.0560 -0.2387 -0.5667
  953MOL0     H25745   5.459   6.886   5.834 -0.2716 -0.3564 -0.3497
  953MOL0     H25746   5.547   6.724   5.842  1.2424 -0.3540  1.3432
  953MOL0     H25747   5.498   6.945   6.053  2.0295  1.4493 -0.7057
  953MOL0     H25748   5.613   6.829   6.081 -0.7441  0.5483  1.8717
  953MOL0     H25749   5.523   6.569   6.168 -2.4479 -3.2411  3.0728
  953MOL0     H25750   5.345   6.369   6.103 -0.9102  0.0044 -1.2773
  953MOL0     H25751   5.176   6.395   6.130  0.4512 -4.1962  0.6798
  953MOL0     H25752   5.407   6.388   6.317  0.4647 -1.6345 -3.9172
  953MOL0     H25753   5.265   6.287   6.319  0.9918 -1.1615  1.0333
  953MOL0     H25754   5.276   6.487   6.499 -2.3407  2.0919  2.1368
  953MOL0     H25755   5.216   6.596   6.371  1.5711  0.0681 -1.5844
  953MOL0     H25756   5.023   6.414   6.354  1.7664  0.2898 -1.3259
  953MOL0     H25757   5.027   6.497   6.511  0.7529  1.9144  0.1912
  953MOL0     H25758   5.166   6.076   6.625  0.0407 -1.0609  2.0903
  953MOL0     H25759   5.072   5.981   6.828 -3.9167 -1.7299  1.6829
  953MOL0     H25760   4.941   6.136   7.293  0.2018  0.8828 -2.0088
  953MOL0     H25761   4.854   6.018   7.488 -1.0348 -1.7566  1.2125
  953MOL0     H25762   4.494   5.798   7.500  0.2332  0.2036 -1.0598
  953MOL0     H25763   4.406   5.957   7.479  1.7715 -0.4518 -3.1055
  953MOL0     H25764   4.438   5.986   7.733 -2.2103 -0.9263  1.6677
  953MOL0     H25765   4.505   5.829   7.738  1.3157  0.7320 -0.4410
  953MOL0     H25766   4.273   5.733   7.678  2.1377 -1.1764 -2.0923
  953MOL0     H25767   4.209   5.892   7.645 -0.7416 -1.9469 -0.5199
  953MOL0     H25768   4.319   5.819   7.916 -1.0224 -2.2939 -0.9835
  953MOL0     H25769   4.220   5.967   7.868 -4.7331 -0.1563 -0.5757
  953MOL0     H25770   4.140   5.671   7.879 -1.3934 -0.5048 -2.1327
  953MOL0     H25771   4.030   5.785   7.820  2.4235 -1.5978 -4.2061
  953MOL0     H25772   4.001   5.890   8.046  0.4642  0.0581 -0.3962
  953MOL0     H25773   4.155   5.837   8.102  1.6395  0.2053 -1.4761
  953MOL0     H25774   3.945   5.637   8.037 -2.3570 -0.8812  3.5479
  953MOL0     H25775   4.108   5.623   8.105 -0.7392 -0.6253  1.5212
  953MOL0     H25776   3.925   5.601   8.291  1.7998  0.3996 -1.2070
  953MOL0     H25777   3.876   5.770   8.234  2.7366  3.0940 -2.9893
  953MOL0     H25778   4.461   6.015   7.304 -0.4609  0.4112  2.2418
  953MOL0     H25779   4.563   6.051   7.106  0.2795 -0.9283 -0.2568
  953MOL0     H25780   4.802   6.319   6.854  0.5363 -1.0212  3.0025
  953MOL0     H25781   4.905   6.415   6.644  1.9933  0.5108 -2.0019
  953MOL0     H25782   6.139   7.205   5.375  0.0299  0.1739  1.6654
  953MOL0     H25783   6.255   7.374   5.232  0.8203  1.2569  1.9597
  953MOL0     H25784   6.759   7.441   5.156 -3.5981  0.0858  1.5831
  953MOL0     H25785   6.946   7.590   5.055 -1.8918 -2.4373  0.2060
  953MOL0     H25786   7.050   8.025   5.055  0.1918 -1.1250  0.2167
  953MOL0     H25787   6.907   8.025   5.136  2.1073 -1.1543  1.2097
  953MOL0     H25788   6.934   8.006   4.841  1.4513 -3.6757  0.6639
  953MOL0     H25789   6.770   7.981   4.923  1.6597 -1.3128  0.6182
  953MOL0     H25790   6.932   8.233   4.892 -0.4192 -0.7381 -1.2418
  953MOL0     H25791   6.840   8.218   5.048 -1.0791  0.1187  1.1753
  953MOL0     H25792   6.725   8.346   4.873  1.8082  1.3515  0.9879
  953MOL0     H25793   6.717   8.210   4.772  0.3362  1.2094 -0.6849
  953MOL0     H25794   6.398   8.151   5.058 -0.1637  1.8118  0.8809
  953MOL0     H25795   6.702   7.928   5.176 -2.2233  0.3621  2.0354
  953MOL0     H25796   6.543   7.787   5.265 -0.6630 -2.4647  2.5301
  954MOL0     O25797   7.474   4.216   5.883  0.5585  0.3911  0.2570
  954MOL0     C25798   7.545   4.251   5.973 -0.1322  0.0057  0.9607
  954MOL0     O25799   7.504   4.285   6.104  0.2740 -0.1664  0.0975
  954MOL0     C25800   7.377   4.275   6.153  0.5442 -0.1037  0.4657
  954MOL0     C25801   7.297   4.159   6.121 -0.1009 -0.7926  0.0853
  954MOL0     C25802   7.180   4.136   6.190 -0.4931 -0.0482  0.1532
  954MOL0     C25803   7.134   4.211   6.295  0.2677 -0.7975  0.5490
  954MOL0     O25804   7.017   4.175   6.360 -0.2509  0.3050  0.1647
  954MOL0     C25805   6.961   4.274   6.448  0.0631 -0.7930  0.1437
  954MOL0     C25806   6.820   4.227   6.505  0.3165  0.1416 -0.0977
  954MOL0     C25807   6.752   4.343   6.578 -0.2471  0.3310  0.1358
  954MOL0     C25808   6.621   4.295   6.647  0.2506  0.0066  0.0211
  954MOL0     C25809   6.494   4.319   6.565  0.2618 -0.5595  0.2057
  954MOL0     C25810   6.452   4.464   6.560  0.3621 -0.8397 -0.2188
  954MOL0     C25811   6.370   4.505   6.689  0.4562  0.0925  0.3849
  954MOL0     C25812   6.291   4.635   6.678 -0.2723 -0.7934  0.5114
  954MOL0     N25813   6.350   4.743   6.602  0.5828 -1.1830  1.3049
  954MOL0     C25814   6.401   4.850   6.661 -0.7141 -0.2987  0.2309
  954MOL0     C25815   6.427   4.934   6.560 -0.6607 -0.8179  0.1254
  954MOL0     C25816   6.483   5.073   6.580 -0.3918  0.1299 -0.3452
  954MOL0     C25817   6.628   5.073   6.550 -0.3925 -0.5264  0.5028
  954MOL0     C25818   6.718   4.974   6.629  0.5457  0.1236  0.1734
  954MOL0     C25819   6.868   4.997   6.614 -0.2955  0.4698  0.0924
  954MOL0     O25820   6.906   5.126   6.667 -0.2113  0.8996 -0.4612
  954MOL0     C25821   7.041   5.156   6.666  0.3878 -0.2803 -1.2900
  954MOL0     C25822   7.149   5.075   6.635  0.4601  0.4056  0.5075
  954MOL0     C25823   7.277   5.129   6.619  0.6255 -0.6433  0.6349
  954MOL0     C25824   7.301   5.266   6.611 -1.0052 -0.7209 -0.0496
  954MOL0     C25825   7.434   5.322   6.564  0.2505  0.3109 -0.2288
  954MOL0     O25826   7.533   5.230   6.563 -0.1374 -0.8272 -0.1371
  954MOL0     C25827   7.659   5.277   6.524  0.4829 -0.5290 -0.2623
  954MOL0     C25828   7.760   5.263   6.610 -0.4562  0.2490  1.8745
  954MOL0     C25829   7.893   5.300   6.580 -0.0077  0.2658  0.7012
  954MOL0     C25830   7.911   5.364   6.454 -0.0006  0.1404  0.3540
  954MOL0     O25831   8.031   5.417   6.417  0.1232 -0.2446  0.8988
  954MOL0     C25832   8.141   5.418   6.520  0.4201  1.0221 -0.9868
  954MOL0     C25833   8.259   5.503   6.472  1.1582 -1.0030  0.3162
  954MOL0     C25834   8.226   5.652   6.442 -0.3461  0.2719  0.2322
  954MOL0     C25835   8.126   5.685   6.329  0.9392 -0.5732  0.3866
  954MOL0     C25836   8.153   5.829   6.274 -0.0761  0.4904  1.1353
  954MOL0     C25837   8.117   5.931   6.383 -0.2723 -0.5432  0.0344
  954MOL0     C25838   8.241   6.020   6.415 -0.3372 -0.2317 -0.4936
  954MOL0     C25839   8.215   6.156   6.475 -0.4188 -0.4550  0.0549
  954MOL0    Cl25840   8.104   6.246   6.376 -0.6395 -0.6163 -0.1113
  954MOL0     C25841   7.805   5.385   6.361  0.1191  0.5125 -0.0905
  954MOL0     C25842   7.677   5.339   6.395 -0.6665 -0.0687 -0.2906
  954MOL0     O25843   7.447   5.439   6.531 -0.7326 -0.5117  1.0069
  954MOL0     C25844   7.193   5.346   6.656  0.3482 -0.6148 -0.8419
  954MOL0     C25845   7.067   5.291   6.675  0.1495  0.2516  0.7406
  954MOL0     N25846   6.410   4.869   6.438 -0.1050 -0.6489  0.3209
  954MOL0     N25847   6.371   4.750   6.470  0.0888 -0.0932 -0.2579
  954MOL0     C25848   7.214   4.335   6.317  1.9196  0.5682 -0.5519
  954MOL0     C25849   7.327   4.365   6.249 -0.0131  0.0388  0.2571
  954MOL0     C25850   7.694   4.249   5.942  0.3797 -0.0921 -1.1562
  954MOL0     C25851   7.742   4.224   5.811  0.5480  0.5653  0.6617
  954MOL0     C25852   7.882   4.238   5.776  1.1540 -0.7322  1.0542
  954MOL0     C25853   7.974   4.280   5.872  0.9348  0.3578 -0.4201
  954MOL0     O25854   8.113   4.291   5.861  0.3498 -0.1474  0.2382
  954MOL0     C25855   8.176   4.177   5.807 -0.0850  0.2646  0.6329
  954MOL0     C25856   8.333   4.184   5.825 -0.1566  0.0567  0.1925
  954MOL0     C25857   8.376   4.214   5.966 -0.6639 -0.6805 -0.3400
  954MOL0     C25858   8.529   4.221   5.984  0.2953 -0.0251  0.7343
  954MOL0     C25859   8.588   4.313   5.882 -0.0349  0.0413 -0.0001
  954MOL0     C25860   8.638   4.401   5.817  0.2891 -0.6803  0.1345
  954MOL0     C25861   7.921   4.306   6.006 -0.1322  0.6773 -1.5026
  954MOL0     C25862   7.783   4.299   6.039 -0.3541 -0.0833 -0.1204
  954MOL0     H25863   7.324   4.083   6.047  1.2078 -2.1598  1.8697
  954MOL0     H25864   7.118   4.051   6.162 -0.0441 -0.4222  0.2689
  954MOL0     H25865   6.937   4.368   6.398 -2.5484 -2.3680 -1.8438
  954MOL0     H25866   7.033   4.309   6.523 -0.5319  0.9877 -0.0660
  954MOL0     H25867   6.824   4.133   6.560 -1.5230  1.5008  2.6131
  954MOL0     H25868   6.744   4.207   6.429  0.4758 -1.7530  0.1994
  954MOL0     H25869   6.741   4.430   6.512 -2.7889  2.1292  2.6991
  954MOL0     H25870   6.814   4.397   6.649 -0.5657 -1.5254  1.9161
  954MOL0     H25871   6.617   4.191   6.681 -2.8089  1.4993  5.4607
  954MOL0     H25872   6.614   4.351   6.741  3.0065  1.8974 -0.7768
  954MOL0     H25873   6.410   4.265   6.611 -1.1206 -1.7640 -3.3369
  954MOL0     H25874   6.496   4.282   6.462  0.1918  0.8888 -0.3308
  954MOL0     H25875   6.391   4.483   6.472 -1.4498  0.7117  1.2660
  954MOL0     H25876   6.542   4.526   6.568 -0.3526  0.1992  0.0105
  954MOL0     H25877   6.310   4.423   6.730  3.3436 -1.8033  1.1072
  954MOL0     H25878   6.436   4.527   6.774  0.7905  0.1629  0.1084
  954MOL0     H25879   6.261   4.682   6.772 -0.6838 -0.9125  0.4427
  954MOL0     H25880   6.205   4.602   6.618 -0.8859  3.8374 -1.5736
  954MOL0     H25881   6.401   4.878   6.766  1.2143 -2.3941  0.8631
  954MOL0     H25882   6.457   5.123   6.673  0.9968 -1.3065  0.8671
  954MOL0     H25883   6.436   5.146   6.514 -0.1571 -0.6984 -1.4653
  954MOL0     H25884   6.658   5.175   6.574 -2.1197  0.2970 -0.6505
  954MOL0     H25885   6.657   5.071   6.444  2.2865  0.8601  1.1261
  954MOL0     H25886   6.697   4.971   6.736 -0.9701  0.8817 -0.0667
  954MOL0     H25887   6.700   4.876   6.585 -2.5498  0.9594 -0.6550
  954MOL0     H25888   6.879   5.000   6.506 -0.7132 -1.6767 -0.0535
  954MOL0     H25889   6.936   4.928   6.665  1.0775  1.1881 -0.6932
  954MOL0     H25890   7.131   4.970   6.613 -0.2280  0.5604  0.2996
  954MOL0     H25891   7.363   5.065   6.604 -0.0562 -1.8000  1.5386
  954MOL0     H25892   7.733   5.209   6.700  0.3851  1.1258  2.6808
  954MOL0     H25893   7.976   5.274   6.645 -0.0145  1.7891  1.3419
  954MOL0     H25894   8.170   5.314   6.540 -3.1762 -0.1140 -0.9103
  954MOL0     H25895   8.098   5.462   6.611 -1.1970 -2.3844  0.0759
  954MOL0     H25896   8.286   5.452   6.379 -0.7066  0.3389 -1.0415
  954MOL0     H25897   8.330   5.495   6.555  0.5536 -2.5866  0.7310
  954MOL0     H25898   8.316   5.708   6.414 -1.6933  1.3127 -2.3136
  954MOL0     H25899   8.187   5.682   6.540  1.5816 -3.7917  2.5348
  954MOL0     H25900   8.148   5.620   6.244 -0.0998  2.0983 -2.1019
  954MOL0     H25901   8.022   5.674   6.361  0.6450  0.0565 -0.3283
  954MOL0     H25902   8.088   5.852   6.189  1.2039  1.7321  0.4508
  954MOL0     H25903   8.259   5.841   6.248  0.4187  2.0576  3.5098
  954MOL0     H25904   8.077   5.878   6.471  1.0972  2.1670  2.4635
  954MOL0     H25905   8.033   5.991   6.347  0.2207  0.2333  0.1537
  954MOL0     H25906   8.304   5.969   6.488 -0.0407  2.4090  1.2719
  954MOL0     H25907   8.305   6.043   6.329  0.9242  3.0656  1.1334
  954MOL0     H25908   8.312   6.206   6.487 -0.3473 -1.1208  3.5217
  954MOL0     H25909   8.167   6.136   6.571  0.0957  0.9476  0.6248
  954MOL0     H25910   7.814   5.425   6.260  3.8826  0.7518  0.2091
  954MOL0     H25911   7.595   5.358   6.327  1.5915  0.6365 -3.0563
  954MOL0     H25912   7.202   5.454   6.657  3.4061 -0.7973  0.1250
  954MOL0     H25913   6.988   5.363   6.694 -0.6580 -0.0341 -1.2633
  954MOL0     H25914   7.191   4.402   6.400  0.9425  1.2200 -1.3300
  954MOL0     H25915   7.376   4.460   6.268  0.6529 -0.4534  1.0519
  954MOL0     H25916   7.679   4.185   5.732 -0.9816  3.8113  0.1293
  954MOL0     H25917   7.916   4.221   5.674  0.9108  2.3023  0.3744
  954MOL0     H25918   8.154   4.168   5.700 -2.4753 -3.5128  1.2487
  954MOL0     H25919   8.140   4.085   5.853 -1.5355  0.2173 -0.5357
  954MOL0     H25920   8.377   4.087   5.800  3.0024  0.9176  1.8661
  954MOL0     H25921   8.374   4.253   5.751 -0.7101 -2.1497 -2.3329
  954MOL0     H25922   8.345   4.144   6.044  0.6468 -0.5888  0.2797
  954MOL0     H25923   8.346   4.316   5.995  2.0853  0.2979 -0.6483
  954MOL0     H25924   8.544   4.256   6.086 -0.1723  0.4388  0.6502
  954MOL0     H25925   8.587   4.129   5.988  0.4757  0.1372  2.0750
  954MOL0     H25926   8.693   4.471   5.757 -3.2304  1.1690 -1.3032
  954MOL0     H25927   7.983   4.347   6.086 -1.5920  0.6394 -0.3082
  954MOL0     H25928   7.753   4.340   6.135  1.2575  3.3515 -0.9199
  955MOL0     O25929   6.593   6.204   7.536  0.1214  0.1107 -0.0120
  955MOL0     C25930   6.578   6.086   7.499 -0.0947 -0.2393  1.0479
  955MOL0     O25931   6.475   6.041   7.431 -0.0611  0.9884 -0.6406
  955MOL0     C25932   6.370   6.132   7.432  1.3597  1.2033 -0.2679
  955MOL0     C25933   6.274   6.132   7.537 -0.2050 -0.5821 -0.2770
  955MOL0     C25934   6.177   6.230   7.536 -0.2499 -0.0570 -0.2045
  955MOL0     C25935   6.148   6.305   7.421 -0.6631  0.6015  0.1851
  955MOL0     O25936   6.046   6.402   7.427 -0.8075  0.2795 -0.7531
  955MOL0     C25937   5.951   6.410   7.316 -0.7431 -0.7316  0.2360
  955MOL0     C25938   5.844   6.524   7.353  0.0601  0.8684  0.5661
  955MOL0     C25939   5.718   6.522   7.259 -0.2516  0.9993  0.4180
  955MOL0     C25940   5.626   6.616   7.319  0.4011  0.1112  0.7040
  955MOL0     C25941   5.508   6.652   7.229 -0.2108  0.1552  0.3780
  955MOL0     C25942   5.432   6.772   7.269  0.4746 -0.7330  1.0361
  955MOL0     C25943   5.284   6.766   7.248  0.5700 -0.0188 -0.3075
  955MOL0     C25944   5.203   6.894   7.284  0.4497  0.4595 -0.0304
  955MOL0     N25945   5.226   6.995   7.175  0.1507  0.7236 -0.0245
  955MOL0     C25946   5.321   7.082   7.182 -0.7415  0.2037  0.3843
  955MOL0     C25947   5.301   7.166   7.083 -0.1266 -0.3520 -0.1023
  955MOL0     C25948   5.388   7.275   7.021  0.9322  0.2018 -0.9834
  955MOL0     C25949   5.539   7.242   7.041 -0.4425  0.1021  0.7673
  955MOL0     C25950   5.594   7.196   6.901 -0.1976 -0.9455 -0.2360
  955MOL0     C25951   5.528   7.076   6.845  0.5487 -0.6891 -0.3654
  955MOL0     O25952   5.577   6.959   6.925 -0.2563 -0.4059  0.2139
  955MOL0     C25953   5.709   6.915   6.906  0.6627 -0.5159 -0.7437
  955MOL0     C25954   5.770   6.871   7.021  0.2807  0.5365  0.3269
  955MOL0     C25955   5.894   6.818   7.022 -0.1012  0.4500 -0.6237
  955MOL0     C25956   5.972   6.816   6.912 -0.4524  0.6621 -0.0684
  955MOL0     C25957   6.119   6.782   6.934 -0.0070 -0.0161  0.1688
  955MOL0     O25958   6.157   6.733   7.058  0.0319 -0.6585 -0.4282
  955MOL0     C25959   6.287   6.706   7.080  0.5294  0.5702 -0.7153
  955MOL0     C25960   6.408   6.737   7.016  0.5971  0.7775  0.1476
  955MOL0     C25961   6.530   6.679   7.054 -0.3823  0.3828 -0.8361
  955MOL0     C25962   6.541   6.605   7.175  0.0119  0.0544 -0.7888
  955MOL0     O25963   6.659   6.547   7.202 -0.2080 -0.5792 -0.0158
  955MOL0     C25964   6.678   6.523   7.341  0.0540  0.0930 -0.2291
  955MOL0     C25965   6.820   6.490   7.376  0.5639 -0.7479  0.0328
  955MOL0     C25966   6.871   6.349   7.328  1.0353  0.7681 -0.3353
  955MOL0     C25967   7.020   6.324   7.326  0.0042  0.1845  0.1514
  955MOL0     C25968   7.037   6.174   7.301  0.0163 -0.1622  0.3055
  955MOL0     C25969   7.186   6.154   7.253 -0.6494  0.4417  0.4337
  955MOL0     C25970   7.231   6.003   7.265  0.3279  0.5087  0.6319
  955MOL0     C25971   7.364   5.975   7.202 -1.2033 -0.2938 -0.5220
  955MOL0    Cl25972   7.395   5.802   7.163 -0.2629  0.2633  0.3124
  955MOL0     C25973   6.426   6.597   7.256 -0.4373 -0.5861  0.2498
  955MOL0     C25974   6.298   6.649   7.213 -0.0645  0.1815  0.5142
  955MOL0     O25975   6.184   6.784   6.835 -0.7687 -0.5831  0.4223
  955MOL0     C25976   5.916   6.863   6.790 -0.2897 -0.4557 -0.4817
  955MOL0     C25977   5.786   6.918   6.790  0.5042  0.1032 -0.0881
  955MOL0     N25978   5.178   7.154   7.040  0.1890  0.1518  1.0059
  955MOL0     N25979   5.130   7.038   7.082  0.6489 -0.3438 -0.2126
  955MOL0     C25980   6.233   6.285   7.305 -0.2901 -0.6213 -0.1119
  955MOL0     C25981   6.351   6.200   7.314 -0.1614 -0.4918 -0.0411
  955MOL0     C25982   6.694   6.001   7.511  0.5553 -0.3024 -0.2259
  955MOL0     C25983   6.775   6.011   7.629  0.3194 -0.0024 -0.0397
  955MOL0     C25984   6.886   5.932   7.638 -0.3627  0.1519 -0.1211
  955MOL0     C25985   6.925   5.833   7.547 -0.0205  0.2934 -0.0014
  955MOL0     O25986   7.043   5.754   7.550  0.7886 -0.9930  0.3070
  955MOL0     C25987   7.139   5.785   7.654 -0.5171  0.5570 -0.5601
  955MOL0     C25988   7.259   5.693   7.653 -0.0529  0.4040  0.7942
  955MOL0     C25989   7.212   5.551   7.704 -0.3897  0.2576  0.4260
  955MOL0     C25990   7.333   5.453   7.728 -0.1761  0.5067 -0.4695
  955MOL0     C25991   7.410   5.442   7.608 -0.6005  0.4304 -0.0709
  955MOL0     C25992   7.471   5.429   7.505 -1.3365 -0.7273 -0.7269
  955MOL0     C25993   6.840   5.820   7.440 -0.3849 -0.2688 -0.0972
  955MOL0     C25994   6.726   5.904   7.416  0.7901 -0.1317 -0.1983
  955MOL0     H25995   6.291   6.075   7.628 -1.7436 -1.5578 -0.5675
  955MOL0     H25996   6.107   6.257   7.615 -2.9224  0.5645 -2.5902
  955MOL0     H25997   5.894   6.317   7.309 -1.1444 -0.7966  3.2407
  955MOL0     H25998   5.989   6.434   7.216 -1.3518  0.3520  0.2465
  955MOL0     H25999   5.899   6.618   7.339 -1.2965  1.4948 -0.7922
  955MOL0     H26000   5.806   6.505   7.454  2.2770  2.9929  1.9177
  955MOL0     H26001   5.680   6.419   7.261 -1.5069  1.3342 -2.2869
  955MOL0     H26002   5.758   6.546   7.160  2.7008 -0.8597  1.0312
  955MOL0     H26003   5.592   6.590   7.420 -3.3100 -0.2564 -0.4805
  955MOL0     H26004   5.683   6.708   7.333 -0.5140  0.4645  2.5142
  955MOL0     H26005   5.446   6.562   7.232  0.9352 -0.6466  0.6002
  955MOL0     H26006   5.545   6.664   7.127  0.1852 -1.0108  0.3696
  955MOL0     H26007   5.472   6.861   7.218 -0.9608 -0.5701  0.1515
  955MOL0     H26008   5.452   6.794   7.374  2.4119 -1.9182  0.9787
  955MOL0     H26009   5.260   6.738   7.145 -0.4233  0.3057 -0.1778
  955MOL0     H26010   5.238   6.688   7.308 -1.6640  0.5930 -1.0916
  955MOL0     H26011   5.239   6.932   7.380 -0.0970  2.2014 -0.4845
  955MOL0     H26012   5.100   6.864   7.304  0.8945  0.0641  1.7996
  955MOL0     H26013   5.414   7.082   7.238 -0.0181 -1.3471 -0.7293
  955MOL0     H26014   5.368   7.368   7.074  2.8286  0.7105 -1.0625
  955MOL0     H26015   5.362   7.289   6.915 -3.1029 -0.8185 -0.2801
  955MOL0     H26016   5.567   7.174   7.122 -1.5293  0.4166  1.4284
  955MOL0     H26017   5.588   7.335   7.069 -2.5839  2.4592 -2.5227
  955MOL0     H26018   5.562   7.273   6.830  0.7776  1.0163  1.3475
  955MOL0     H26019   5.703   7.196   6.912 -0.2079 -0.4173 -0.1081
  955MOL0     H26020   5.557   7.061   6.740  2.5559 -1.8336  0.3178
  955MOL0     H26021   5.421   7.094   6.856  0.9996  2.4051 -0.1492
  955MOL0     H26022   5.712   6.870   7.113  1.9199  1.5080  1.4246
  955MOL0     H26023   5.931   6.775   7.114  0.6009 -0.1925 -1.1855
  955MOL0     H26024   6.404   6.791   6.922 -2.3783 -2.6659 -1.9924
  955MOL0     H26025   6.616   6.673   6.989  1.5282 -1.2911  1.6659
  955MOL0     H26026   6.615   6.446   7.385 -0.0860  0.0738 -0.4607
  955MOL0     H26027   6.658   6.619   7.391 -1.5297 -1.9501  3.4700
  955MOL0     H26028   6.845   6.500   7.482 -0.7531 -2.8476  0.5964
  955MOL0     H26029   6.874   6.565   7.318 -2.5675  0.2469 -1.8020
  955MOL0     H26030   6.828   6.353   7.228  2.0865  3.2832 -0.7698
  955MOL0     H26031   6.838   6.271   7.397  3.5441  0.4477  0.5888
  955MOL0     H26032   7.059   6.377   7.239  1.8269  1.1133  1.4943
  955MOL0     H26033   7.079   6.352   7.413 -0.8125 -1.1593  1.1843
  955MOL0     H26034   6.969   6.154   7.217  0.5509  3.1791 -1.0987
  955MOL0     H26035   7.012   6.109   7.385 -1.1557  0.3015  0.3345
  955MOL0     H26036   7.247   6.216   7.318 -1.6954  0.3254  1.5534
  955MOL0     H26037   7.204   6.189   7.151 -3.1056  2.0282  0.4664
  955MOL0     H26038   7.243   5.971   7.369  2.7547  0.3767  0.3526
  955MOL0     H26039   7.149   5.946   7.220  0.0610  2.8130 -2.0651
  955MOL0     H26040   7.444   6.019   7.262  0.5598 -1.0796 -2.2023
  955MOL0     H26041   7.369   6.031   7.109 -1.8861 -0.1346 -0.4681
  955MOL0     H26042   6.411   6.546   7.350  1.4088  2.3831  2.3459
  955MOL0     H26043   6.208   6.638   7.273 -0.9285  0.8623 -0.6245
  955MOL0     H26044   5.974   6.863   6.698 -1.3863  5.3190 -1.5995
  955MOL0     H26045   5.752   6.940   6.689 -0.2782 -1.2727 -0.1511
  955MOL0     H26046   6.223   6.350   7.219 -1.1296 -2.1564 -1.2169
  955MOL0     H26047   6.410   6.193   7.224 -3.2922 -0.4077 -2.2633
  955MOL0     H26048   6.756   6.086   7.705 -0.6867  1.4570 -1.6348
  955MOL0     H26049   6.945   5.951   7.727 -2.2417  0.8832  1.0352
  955MOL0     H26050   7.102   5.792   7.757  0.5859  4.2358 -0.2464
  955MOL0     H26051   7.163   5.892   7.646 -0.2329  0.5457  0.0401
  955MOL0     H26052   7.306   5.678   7.555 -1.4099 -3.9336  0.5966
  955MOL0     H26053   7.333   5.726   7.726 -0.5237 -1.2281  2.0763
  955MOL0     H26054   7.141   5.502   7.637  0.6597  0.9471 -1.2376
  955MOL0     H26055   7.160   5.562   7.799  0.2086  1.8356  0.6138
  955MOL0     H26056   7.387   5.479   7.820 -2.1497 -2.3931  1.7128
  955MOL0     H26057   7.288   5.356   7.751 -1.0566  1.7163  3.7070
  955MOL0     H26058   7.529   5.404   7.418 -1.6642  0.7302 -1.3882
  955MOL0     H26059   6.857   5.746   7.362 -0.0146 -1.4230  1.0399
  955MOL0     H26060   6.659   5.887   7.332 -0.1501  0.9437  0.2907
  956MOL0     O26061   5.723   9.231   2.530  0.4108  0.8109 -0.7998
  956MOL0     C26062   5.722   9.355   2.536 -0.1716 -0.1449 -0.9485
  956MOL0     O26063   5.626   9.438   2.488  0.7504 -0.3121  0.6466
  956MOL0     C26064   5.506   9.393   2.432 -0.5020 -0.1305  0.0455
  956MOL0     C26065   5.474   9.445   2.301  0.9098 -0.5691 -0.4089
  956MOL0     C26066   5.352   9.424   2.248 -0.2429  0.1418 -0.1894
  956MOL0     C26067   5.257   9.342   2.316 -0.3661 -0.8002  0.4437
  956MOL0     O26068   5.137   9.289   2.260 -0.4403 -0.9984 -0.3475
  956MOL0     C26069   5.043   9.392   2.220  0.7269  0.2089 -0.0016
  956MOL0     C26070   4.905   9.321   2.235 -0.7422 -0.2294 -0.0062
  956MOL0     C26071   4.821   9.376   2.346 -0.2921 -0.3212 -1.0242
  956MOL0     C26072   4.776   9.529   2.322 -0.8140 -0.5942  0.2494
  956MOL0     C26073   4.630   9.529   2.298  0.0871  0.0032 -0.0089
  956MOL0     C26074   4.595   9.472   2.157  0.6099 -0.9588 -0.1041
  956MOL0     C26075   4.437   9.465   2.143 -1.1775 -0.0469 -0.0923
  956MOL0     C26076   4.373   9.367   2.235 -0.2357  0.3437  0.6627
  956MOL0     N26077   4.245   9.316   2.178 -0.4668 -0.0146 -0.5293
  956MOL0     C26078   4.243   9.218   2.089  0.4045  0.4947  0.0945
  956MOL0     C26079   4.108   9.209   2.054  0.8183  0.5132 -1.1698
  956MOL0     C26080   4.053   9.100   1.985  0.6102 -0.1319  0.4805
  956MOL0     C26081   3.987   9.133   1.848 -0.5382 -0.1392 -0.7571
  956MOL0     C26082   3.950   9.019   1.754 -0.6647 -0.1113  0.2455
  956MOL0     C26083   3.811   8.961   1.768  0.7536 -0.0204 -0.1511
  956MOL0     O26084   3.797   8.867   1.665 -0.0910 -0.1186 -0.2400
  956MOL0     C26085   3.670   8.809   1.636  0.4788  0.4686 -0.7263
  956MOL0     C26086   3.655   8.680   1.583  0.0351  0.3970  0.5699
  956MOL0     C26087   3.534   8.616   1.552 -1.2760  0.2763 -0.2427
  956MOL0     C26088   3.419   8.694   1.590  1.1168  0.3850 -0.3579
  956MOL0     C26089   3.281   8.642   1.578  0.2618  0.6109  0.1873
  956MOL0     O26090   3.167   8.711   1.622 -0.2307 -0.1064  0.7689
  956MOL0     C26091   3.049   8.645   1.630  0.0870 -0.8217 -0.2557
  956MOL0     C26092   2.975   8.610   1.514  0.6695 -0.7022 -0.1583
  956MOL0     C26093   2.845   8.542   1.526 -1.1251  0.0919  0.9397
  956MOL0     C26094   2.796   8.514   1.654  0.3602 -0.5163 -0.1462
  956MOL0     O26095   2.683   8.439   1.671 -0.3188  0.2522 -0.1511
  956MOL0     C26096   2.581   8.490   1.761  0.7668  0.0174  0.8593
  956MOL0     C26097   2.444   8.423   1.730  0.0653  0.6521 -0.3248
  956MOL0     C26098   2.338   8.481   1.831 -0.7325  0.3357  0.1600
  956MOL0     C26099   2.205   8.407   1.811  0.0862  0.6405 -0.6611
  956MOL0     C26100   2.125   8.448   1.683  0.3332  0.0509  0.6591
  956MOL0     C26101   2.034   8.342   1.631  1.1262 -0.5993 -0.0926
  956MOL0     C26102   1.938   8.400   1.522  0.2662  1.4001  0.2361
  956MOL0     C26103   1.840   8.303   1.474 -0.4652  0.9756  0.2463
  956MOL0    Cl26104   1.735   8.243   1.602  0.0833 -0.0096  0.3286
  956MOL0     C26105   2.879   8.551   1.769 -0.3156  0.2422  0.3869
  956MOL0     C26106   2.998   8.614   1.755 -0.9923 -0.2910  0.6707
  956MOL0     O26107   3.275   8.524   1.535 -0.6152 -0.4616 -0.1468
  956MOL0     C26108   3.435   8.828   1.626 -0.1925  0.3937 -0.0120
  956MOL0     C26109   3.555   8.881   1.666 -0.2442  0.5246  0.5089
  956MOL0     N26110   4.039   9.298   2.135 -0.0218 -0.0493  0.5618
  956MOL0     N26111   4.126   9.370   2.197  0.9505 -0.4723  0.2941
  956MOL0     C26112   5.289   9.291   2.443  0.1589  0.2009 -0.7272
  956MOL0     C26113   5.419   9.310   2.496  0.2136 -0.5715 -0.2158
  956MOL0     C26114   5.843   9.416   2.608 -0.7173 -0.5251 -0.2527
  956MOL0     C26115   5.944   9.328   2.652  0.2406 -0.3952  0.2452
  956MOL0     C26116   6.057   9.383   2.710 -0.8475  0.2644  0.1388
  956MOL0     C26117   6.070   9.520   2.748  0.0250  1.0634  0.4265
  956MOL0     O26118   6.177   9.565   2.819 -0.0951 -0.2191  0.1740
  956MOL0     C26119   6.182   9.706   2.857 -0.6807  0.0051  0.0000
  956MOL0     C26120   6.313   9.743   2.924  0.8198 -0.1464 -0.4246
  956MOL0     C26121   6.418   9.759   2.825  0.1329 -0.1230  0.2917
  956MOL0     C26122   6.548   9.767   2.913  0.1925  0.0226 -0.2701
  956MOL0     C26123   6.582   9.637   2.979 -1.0430 -0.2728  0.3075
  956MOL0     C26124   6.605   9.538   3.043 -0.2669 -0.1671 -0.4773
  956MOL0     C26125   5.976   9.609   2.683 -0.0529 -0.3617  0.2521
  956MOL0     C26126   5.862   9.553   2.613 -0.1361  0.0853  0.2275
  956MOL0     H26127   5.552   9.503   2.252  3.6592 -1.7727  2.2333
  956MOL0     H26128   5.325   9.459   2.149  2.9233  2.7176 -0.3097
  956MOL0     H26129   5.065   9.422   2.117  0.5902  2.7469  0.6546
  956MOL0     H26130   5.058   9.477   2.286 -1.9481  0.2504  0.6732
  956MOL0     H26131   4.922   9.216   2.261  0.7282 -0.0253 -0.0236
  956MOL0     H26132   4.854   9.332   2.139 -0.5713 -0.7643 -0.1634
  956MOL0     H26133   4.868   9.355   2.443  2.1481 -0.8921 -2.2404
  956MOL0     H26134   4.738   9.305   2.349 -1.4443  0.9512  2.5005
  956MOL0     H26135   4.797   9.602   2.400  1.2417 -1.2429  0.3550
  956MOL0     H26136   4.846   9.567   2.247  0.8447  4.1698  3.7206
  956MOL0     H26137   4.588   9.630   2.297 -1.6894 -0.6988 -0.6678
  956MOL0     H26138   4.593   9.457   2.371  0.0620  1.4364  1.4538
  956MOL0     H26139   4.638   9.374   2.132  0.6072 -1.2098  0.8367
  956MOL0     H26140   4.629   9.542   2.080  0.3354  0.4901  1.0555
  956MOL0     H26141   4.401   9.567   2.158 -1.3650 -0.5411  3.6478
  956MOL0     H26142   4.426   9.426   2.041  0.3437  0.8679 -0.6439
  956MOL0     H26143   4.356   9.411   2.333 -0.9004  0.0241  0.6957
  956MOL0     H26144   4.443   9.286   2.257 -2.4161 -1.1596  2.5438
  956MOL0     H26145   4.324   9.155   2.053  2.3269  2.6366  0.4752
  956MOL0     H26146   3.975   9.058   2.049 -1.3926  0.7336 -1.2677
  956MOL0     H26147   4.133   9.026   1.973  2.8203  2.2290 -0.1233
  956MOL0     H26148   4.054   9.200   1.793 -1.3515 -0.0597 -1.6602
  956MOL0     H26149   3.891   9.181   1.869 -1.3519 -0.8880 -2.5653
  956MOL0     H26150   3.963   9.059   1.653 -0.9594 -2.5005 -0.8262
  956MOL0     H26151   4.020   8.936   1.768  0.3067  0.1272 -2.5426
  956MOL0     H26152   3.752   9.051   1.750  1.3288  0.1393 -1.3476
  956MOL0     H26153   3.792   8.921   1.868  4.5566 -0.1137  0.7008
  956MOL0     H26154   3.751   8.636   1.556 -0.2175 -0.1402  0.5324
  956MOL0     H26155   3.535   8.512   1.522  2.5321  0.5713 -1.6333
  956MOL0     H26156   3.016   8.653   1.423  1.4652  1.4741  1.1468
  956MOL0     H26157   2.785   8.529   1.437  1.2191  0.8561 -0.8316
  956MOL0     H26158   2.577   8.599   1.770  2.7318  0.0714  1.5165
  956MOL0     H26159   2.623   8.460   1.857  0.5450 -0.3678  0.8376
  956MOL0     H26160   2.449   8.314   1.739  0.4372  0.7273  0.4951
  956MOL0     H26161   2.417   8.437   1.625 -2.4503  0.9515  0.2999
  956MOL0     H26162   2.330   8.590   1.826  0.5821  0.4359 -0.1824
  956MOL0     H26163   2.365   8.458   1.935  2.5086  0.1599 -0.6117
  956MOL0     H26164   2.233   8.301   1.807  2.3940  1.1399  0.4314
  956MOL0     H26165   2.141   8.419   1.899  0.9398  0.4428  0.0064
  956MOL0     H26166   2.191   8.483   1.603 -0.8868  0.1981 -0.3156
  956MOL0     H26167   2.060   8.532   1.711 -1.1696 -0.1459 -1.9739
  956MOL0     H26168   1.969   8.305   1.711 -1.1302  0.9644 -1.0741
  956MOL0     H26169   2.095   8.261   1.591 -0.2816 -2.0637  0.5987
  956MOL0     H26170   1.880   8.484   1.560  0.9235  2.6058 -1.3067
  956MOL0     H26171   2.005   8.439   1.444  1.6772 -1.7076 -0.2992
  956MOL0     H26172   1.895   8.230   1.415 -0.0657  0.6828  0.9774
  956MOL0     H26173   1.776   8.345   1.395  2.2580  3.0699 -1.0194
  956MOL0     H26174   2.844   8.524   1.868  1.9790 -2.1514  0.6527
  956MOL0     H26175   3.055   8.651   1.840  0.0876  0.9035 -0.5301
  956MOL0     H26176   3.348   8.891   1.639 -0.9560  0.2945 -3.4426
  956MOL0     H26177   3.558   8.983   1.704 -0.1344  1.6556 -2.3027
  956MOL0     H26178   5.215   9.234   2.498  0.0766 -1.3001 -2.3327
  956MOL0     H26179   5.460   9.263   2.585  0.8141 -1.2597 -0.8587
  956MOL0     H26180   5.924   9.223   2.635  0.0219 -0.6042  1.6534
  956MOL0     H26181   6.135   9.311   2.731 -2.1182 -1.3017 -0.2842
  956MOL0     H26182   6.107   9.725   2.935 -2.3004  0.4516 -1.5885
  956MOL0     H26183   6.165   9.776   2.775 -3.5571  0.4129  0.8125
  956MOL0     H26184   6.304   9.836   2.982  0.6950 -1.6898  2.1649
  956MOL0     H26185   6.327   9.663   2.997 -0.8558  0.2260  0.3540
  956MOL0     H26186   6.409   9.849   2.764 -2.7003 -0.3567  0.1848
  956MOL0     H26187   6.430   9.668   2.765 -2.0611 -2.1557  2.6872
  956MOL0     H26188   6.631   9.797   2.849  0.4685  0.2077  0.1624
  956MOL0     H26189   6.535   9.843   2.990 -1.7427 -2.1778  1.7608
  956MOL0     H26190   6.634   9.456   3.106  2.5562  1.5695  0.6749
  956MOL0     H26191   5.988   9.717   2.683 -1.8253 -0.0396 -2.9056
  956MOL0     H26192   5.791   9.608   2.554 -0.3001 -2.1443 -1.7968
  957MOL0     O26193   1.946   1.736   5.446  0.0377 -0.3287  0.3230
  957MOL0     C26194   1.977   1.850   5.475 -0.2418 -0.4514  0.8926
  957MOL0     O26195   1.901   1.932   5.554  0.1605  0.0282  0.0436
  957MOL0     C26196   1.773   1.901   5.615 -0.4319 -0.3851  0.3147
  957MOL0     C26197   1.683   2.003   5.619  0.0260  0.0542 -0.5800
  957MOL0     C26198   1.554   1.976   5.671  0.0075 -0.3471 -0.1602
  957MOL0     C26199   1.519   1.856   5.738 -0.0940  0.5524  0.6497
  957MOL0     O26200   1.402   1.824   5.793  0.0541  0.6796 -0.1143
  957MOL0     C26201   1.295   1.883   5.725  0.1241 -0.1707 -0.5868
  957MOL0     C26202   1.165   1.842   5.800 -0.7962  0.0274 -0.0807
  957MOL0     C26203   1.041   1.884   5.715  0.5077  0.1884  0.2093
  957MOL0     C26204   0.904   1.862   5.787  0.3582 -0.9177  0.4040
  957MOL0     C26205   0.766   1.885   5.696 -0.4114  0.1177  0.3047
  957MOL0     C26206   0.692   1.754   5.679  0.8051  0.0620 -0.0226
  957MOL0     C26207   0.545   1.775   5.651  0.3046 -0.1648  0.1640
  957MOL0     C26208   0.504   1.835   5.521 -0.0249  0.3273 -0.0821
  957MOL0     N26209   0.356   1.857   5.520 -1.0325 -0.4348 -0.3538
  957MOL0     C26210   0.278   1.918   5.425  0.4419 -0.2729  1.3679
  957MOL0     C26211   0.143   1.871   5.441 -0.3169 -0.1429 -0.0556
  957MOL0     C26212   0.024   1.895   5.351  1.1984 -0.1968  0.5422
  957MOL0     C26213  -0.076   1.778   5.353 -0.2346  1.0539  0.2389
  957MOL0     C26214  -0.209   1.793   5.288 -0.1233 -0.1207  0.7109
  957MOL0     C26215  -0.206   1.846   5.141  0.3862  0.1265  0.1970
  957MOL0     O26216  -0.330   1.806   5.070 -0.6155  0.5698  0.2793
  957MOL0     C26217  -0.443   1.875   5.103 -0.6048 -0.6836  0.5160
  957MOL0     C26218  -0.455   2.014   5.091  0.0810 -0.3615 -0.4141
  957MOL0     C26219  -0.576   2.080   5.112 -0.8050  0.1538  0.1498
  957MOL0     C26220  -0.693   2.012   5.152  0.0042 -0.2601  0.0768
  957MOL0     C26221  -0.828   2.072   5.184 -0.3947 -0.3390 -0.4072
  957MOL0     O26222  -0.921   1.994   5.242  0.0680  0.0484  0.2983
  957MOL0     C26223  -1.041   2.042   5.293  0.8842  0.3869  0.0574
  957MOL0     C26224  -1.071   2.008   5.419  0.1930  0.0402 -0.2193
  957MOL0     C26225  -1.180   2.059   5.480  1.0235 -0.3521 -1.1677
  957MOL0     C26226  -1.264   2.154   5.412 -0.9229  0.8086 -0.2431
  957MOL0     O26227  -1.367   2.217   5.474  0.3648 -0.1217  0.2811
  957MOL0     C26228  -1.475   2.120   5.483 -0.0444 -0.4562  0.4117
  957MOL0     C26229  -1.559   2.105   5.356 -0.1481  0.3295  0.5643
  957MOL0     C26230  -1.668   2.006   5.371  0.4340  0.1447 -0.0144
  957MOL0     C26231  -1.761   2.036   5.494  0.1033 -0.1277 -0.3386
  957MOL0     C26232  -1.876   1.932   5.523 -0.0786 -0.5774 -0.6894
  957MOL0     C26233  -1.987   1.912   5.419  0.7834 -1.1940  0.5227
  957MOL0     C26234  -2.068   2.039   5.387 -0.2146 -0.4178 -0.5895
  957MOL0     C26235  -2.163   2.022   5.269 -0.4407 -0.6329  0.8107
  957MOL0    Cl26236  -2.279   1.902   5.308  0.1027 -0.1435 -0.0045
  957MOL0     C26237  -1.240   2.174   5.277 -1.1232  0.1641  0.0825
  957MOL0     C26238  -1.126   2.127   5.220 -0.7786  0.6185  0.1817
  957MOL0     O26239  -0.837   2.197   5.178  0.5728  0.3594  0.8358
  957MOL0     C26240  -0.683   1.869   5.138  1.0215  0.2501 -0.5871
  957MOL0     C26241  -0.563   1.802   5.123 -0.6926  0.2669 -0.3474
  957MOL0     N26242   0.135   1.791   5.556 -0.3181 -0.3652  0.4516
  957MOL0     N26243   0.261   1.789   5.596  0.2090  0.2688  0.2055
  957MOL0     C26244   1.610   1.754   5.724 -0.0466 -0.3941 -0.0014
  957MOL0     C26245   1.731   1.781   5.670 -0.0140  0.2560 -0.0510
  957MOL0     C26246   2.097   1.917   5.413  1.3819 -0.6243 -1.4270
  957MOL0     C26247   2.165   1.856   5.304 -0.4914  0.9468  0.4291
  957MOL0     C26248   2.288   1.911   5.261  0.1310 -0.2798  0.2103
  957MOL0     C26249   2.317   2.044   5.299  0.0161  0.3258  0.4048
  957MOL0     O26250   2.425   2.107   5.232  0.8758  1.0830  0.3249
  957MOL0     C26251   2.470   2.241   5.256  0.0691  0.0975  0.5184
  957MOL0     C26252   2.500   2.324   5.126  0.2321  0.6880 -0.0810
  957MOL0     C26253   2.400   2.308   5.006  0.0139 -0.4755  0.1377
  957MOL0     C26254   2.282   2.407   5.017  0.5127  0.3956  0.2900
  957MOL0     C26255   2.181   2.385   4.904 -0.0885  0.6003 -0.2820
  957MOL0     C26256   2.099   2.375   4.815  0.4747 -0.4550 -0.2882
  957MOL0     C26257   2.253   2.097   5.413 -0.8930  0.9226 -0.6333
  957MOL0     C26258   2.149   2.032   5.476 -0.7814 -0.2793  0.4825
  957MOL0     H26259   1.697   2.095   5.563 -0.8324  1.7143  1.7387
  957MOL0     H26260   1.497   2.068   5.678  0.1408 -0.1763 -1.1148
  957MOL0     H26261   1.300   1.844   5.623  0.3936  0.7680 -0.9376
  957MOL0     H26262   1.297   1.992   5.729 -2.4070 -0.0790 -0.0476
  957MOL0     H26263   1.155   1.893   5.897 -0.0649  1.6380 -0.8296
  957MOL0     H26264   1.172   1.734   5.818 -0.9983  0.3240  2.0827
  957MOL0     H26265   1.032   1.832   5.619 -4.2791  1.0208 -0.0420
  957MOL0     H26266   1.041   1.991   5.692 -2.5684 -0.3390 -2.9944
  957MOL0     H26267   0.903   1.757   5.817  1.3333 -1.7800 -2.2648
  957MOL0     H26268   0.892   1.925   5.876  0.7236  1.0261 -0.8612
  957MOL0     H26269   0.784   1.926   5.596  0.6198 -2.8644 -0.8458
  957MOL0     H26270   0.695   1.948   5.751 -1.3468 -0.2956 -0.3938
  957MOL0     H26271   0.691   1.700   5.774  1.1527  0.2490  0.0913
  957MOL0     H26272   0.734   1.692   5.599 -0.2941  0.9498 -1.3477
  957MOL0     H26273   0.485   1.684   5.659 -3.0574  1.7545 -1.2522
  957MOL0     H26274   0.498   1.845   5.721 -2.1089  0.4923 -1.9632
  957MOL0     H26275   0.534   1.772   5.436  1.2713 -0.0543  0.6311
  957MOL0     H26276   0.547   1.935   5.516  0.8784 -0.0296  0.3705
  957MOL0     H26277   0.315   1.985   5.348 -1.7438 -0.6107 -0.0801
  957MOL0     H26278   0.047   1.917   5.246 -4.7895 -1.1096 -1.3783
  957MOL0     H26279  -0.030   1.982   5.388 -2.0813 -2.2705  1.1136
  957MOL0     H26280  -0.084   1.751   5.459  1.0593 -0.2314  0.0414
  957MOL0     H26281  -0.027   1.691   5.307 -0.0705 -0.1782  2.5651
  957MOL0     H26282  -0.253   1.693   5.292 -2.4863  0.8874  2.2564
  957MOL0     H26283  -0.281   1.848   5.350 -0.8907 -1.0975  0.7119
  957MOL0     H26284  -0.127   1.794   5.086 -0.4161  2.1073 -3.1264
  957MOL0     H26285  -0.194   1.954   5.131  0.6273  0.1792  0.9600
  957MOL0     H26286  -0.371   2.065   5.046  0.9938 -1.1388  0.3510
  957MOL0     H26287  -0.569   2.189   5.111 -1.3356  0.1905  0.2499
  957MOL0     H26288  -1.011   1.938   5.477 -0.3525  0.7836  1.3067
  957MOL0     H26289  -1.202   2.026   5.581  1.9020  0.1296 -0.8050
  957MOL0     H26290  -1.531   2.165   5.565  2.6602  2.1319  0.9980
  957MOL0     H26291  -1.438   2.022   5.518  2.3591 -0.3190 -1.4383
  957MOL0     H26292  -1.485   2.065   5.286 -0.6552  2.8726 -1.6209
  957MOL0     H26293  -1.581   2.205   5.316 -0.9485 -0.0168  0.1211
  957MOL0     H26294  -1.644   1.900   5.383 -1.9707 -0.6971 -1.8182
  957MOL0     H26295  -1.738   2.009   5.287  1.5403 -1.1236 -1.0133
  957MOL0     H26296  -1.708   2.046   5.589 -0.7902  2.0225 -0.0058
  957MOL0     H26297  -1.810   2.132   5.473  1.1355  0.3171 -0.7632
  957MOL0     H26298  -1.929   1.957   5.615 -1.2898  0.6502 -1.6800
  957MOL0     H26299  -1.824   1.836   5.536 -0.1130 -0.6111 -0.8001
  957MOL0     H26300  -2.047   1.827   5.452  0.2578 -0.9935  0.1028
  957MOL0     H26301  -1.943   1.887   5.322 -0.9772  0.0255 -0.6841
  957MOL0     H26302  -2.120   2.054   5.483  1.7251 -0.9010  0.5973
  957MOL0     H26303  -2.005   2.126   5.371 -0.9168  0.3317  0.5835
  957MOL0     H26304  -2.118   2.001   5.172 -1.5756 -1.0327  0.3481
  957MOL0     H26305  -2.204   2.122   5.255  2.9068  0.4710 -2.8813
  957MOL0     H26306  -1.312   2.221   5.211  0.0255  0.5919 -0.8977
  957MOL0     H26307  -1.096   2.129   5.116 -1.7185 -2.6755 -0.2641
  957MOL0     H26308  -0.774   1.810   5.131  1.5367 -0.4631 -1.4370
  957MOL0     H26309  -0.561   1.694   5.126  2.3888  0.2648  0.7560
  957MOL0     H26310   1.595   1.656   5.767 -0.2987 -0.5268 -0.3815
  957MOL0     H26311   1.815   1.713   5.671 -2.4060 -2.9205 -0.3395
  957MOL0     H26312   2.134   1.760   5.263 -0.5646  0.3993  1.7264
  957MOL0     H26313   2.343   1.851   5.189 -0.6846 -0.2366 -0.4588
  957MOL0     H26314   2.562   2.242   5.314  1.6779  1.3024 -1.8809
  957MOL0     H26315   2.395   2.302   5.307 -2.4412 -3.5944  1.5921
  957MOL0     H26316   2.493   2.426   5.166 -1.5895  0.3935  0.4756
  957MOL0     H26317   2.601   2.314   5.087 -0.7026  0.8004 -2.7488
  957MOL0     H26318   2.343   2.214   5.010 -1.5322  0.4663  0.9207
  957MOL0     H26319   2.450   2.322   4.910 -0.9163  0.1725 -0.2664
  957MOL0     H26320   2.227   2.401   5.111  0.2304  2.0495  0.2647
  957MOL0     H26321   2.330   2.505   5.015 -1.2545  1.6687  5.3908
  957MOL0     H26322   2.037   2.373   4.728 -0.1439 -1.4689  0.1569
  957MOL0     H26323   2.273   2.199   5.446  0.8575 -0.3592  2.7712
  957MOL0     H26324   2.112   2.073   5.569 -1.6524 -1.3774  0.6460
  958MOL0     O26325   7.554   5.775   3.118  0.0155 -0.2041 -0.5715
  958MOL0     C26326   7.488   5.670   3.135  0.2164 -1.4771 -0.2435
  958MOL0     O26327   7.534   5.538   3.110 -0.0710 -0.7063 -0.1054
  958MOL0     C26328   7.666   5.525   3.073 -0.0368  1.3304 -0.0132
  958MOL0     C26329   7.757   5.446   3.143  1.3068 -0.0417 -0.9709
  958MOL0     C26330   7.888   5.430   3.094 -0.1335  0.5998  0.1357
  958MOL0     C26331   7.921   5.489   2.972 -0.1497 -0.1726 -0.1155
  958MOL0     O26332   8.053   5.473   2.929 -0.3074 -0.5950  0.0224
  958MOL0     C26333   8.123   5.608   2.924  0.0991  0.0339 -0.1940
  958MOL0     C26334   8.270   5.575   2.941 -0.3376 -0.9207  0.3438
  958MOL0     C26335   8.353   5.694   2.881 -0.4330 -0.6751 -0.6425
  958MOL0     C26336   8.502   5.648   2.904  0.1620 -0.2081 -0.4763
  958MOL0     C26337   8.604   5.744   2.841  0.0903  0.6021 -0.0662
  958MOL0     C26338   8.747   5.688   2.863  0.9731 -0.7441  0.1111
  958MOL0     C26339   8.849   5.809   2.851  0.0233 -0.0626  0.3384
  958MOL0     C26340   8.877   5.867   2.707 -0.0190 -0.0481 -0.6092
  958MOL0     N26341   8.935   5.762   2.617  0.8398  0.7661 -0.5230
  958MOL0     C26342   9.014   5.655   2.665 -0.0128 -0.1531 -0.4407
  958MOL0     C26343   8.993   5.555   2.576 -0.0155  0.1603 -0.7627
  958MOL0     C26344   9.047   5.418   2.606  0.2765  0.3813  0.0128
  958MOL0     C26345   9.186   5.392   2.547 -0.4864 -0.5896 -0.5462
  958MOL0     C26346   9.188   5.360   2.401  0.0742  0.4386  0.1933
  958MOL0     C26347   9.193   5.475   2.300 -1.1249  1.0744  0.9452
  958MOL0     O26348   9.332   5.513   2.283 -0.1395  0.0499 -0.3732
  958MOL0     C26349   9.417   5.467   2.185 -0.9917  0.0210  0.5154
  958MOL0     C26350   9.380   5.361   2.106  0.0013 -0.1425  0.3580
  958MOL0     C26351   9.455   5.324   1.993 -0.1895 -0.5923  0.7366
  958MOL0     C26352   9.567   5.392   1.960 -0.2499 -0.2048 -0.0813
  958MOL0     C26353   9.662   5.347   1.849  0.5113 -0.3798 -0.1063
  958MOL0     O26354   9.765   5.432   1.804 -0.0646  0.2988 -1.0280
  958MOL0     C26355   9.859   5.397   1.706  0.4785  0.9130 -0.1167
  958MOL0     C26356   9.885   5.262   1.679 -1.6743 -0.0208  0.4136
  958MOL0     C26357   9.980   5.242   1.579 -0.2092 -0.9679  0.6851
  958MOL0     C26358  10.057   5.340   1.510 -0.3120  0.6442 -0.7012
  958MOL0     O26359  10.151   5.295   1.428 -0.1613  1.1043  0.1684
  958MOL0     C26360  10.178   5.380   1.314  0.0762  0.7700 -0.0719
  958MOL0     C26361  10.229   5.292   1.194  0.2986 -0.7184  0.1195
  958MOL0     C26362  10.294   5.379   1.086 -0.1340  0.1759  0.2406
  958MOL0     C26363  10.367   5.293   0.982  1.1016 -0.3599  0.4559
  958MOL0     C26364  10.493   5.223   1.025  0.2046 -0.2624 -0.0058
  958MOL0     C26365  10.605   5.204   0.921  0.1977 -0.2332  0.0269
  958MOL0     C26366  10.723   5.115   0.974  0.2477 -0.0746 -0.6794
  958MOL0     C26367  10.819   5.087   0.856  0.0708 -0.2147  0.2519
  958MOL0    Cl26368  10.965   5.017   0.934  0.1542 -0.0124 -0.3282
  958MOL0     C26369  10.033   5.472   1.545 -0.5159  0.0484 -0.1657
  958MOL0     C26370   9.928   5.503   1.638  0.3605 -0.7297 -0.5550
  958MOL0     O26371   9.635   5.236   1.800  0.7040  0.3485  0.2468
  958MOL0     C26372   9.602   5.503   2.036  0.7919  0.0279  0.7112
  958MOL0     C26373   9.531   5.536   2.153 -0.3374 -0.4200  0.1968
  958MOL0     N26374   8.895   5.600   2.485  0.8708  0.1837 -0.2342
  958MOL0     N26375   8.872   5.720   2.509  0.7900 -0.0444 -0.1593
  958MOL0     C26376   7.832   5.561   2.900  0.2547  0.0416  0.8429
  958MOL0     C26377   7.703   5.575   2.956 -0.0725  0.2656  0.6523
  958MOL0     C26378   7.346   5.691   3.189 -0.5333 -0.1907 -0.7499
  958MOL0     C26379   7.273   5.583   3.233 -0.5797  0.3197  0.5875
  958MOL0     C26380   7.147   5.594   3.276  0.4839 -0.7106  0.1921
  958MOL0     C26381   7.100   5.717   3.304  0.1756 -0.2398 -0.3124
  958MOL0     O26382   6.974   5.749   3.352  0.1681  0.5110  0.2267
  958MOL0     C26383   6.867   5.654   3.387 -0.2720  0.4276  0.4779
  958MOL0     C26384   6.773   5.621   3.279 -0.3875 -0.4799  1.6493
  958MOL0     C26385   6.638   5.564   3.321  0.7354  0.2470 -0.5791
  958MOL0     C26386   6.547   5.513   3.210 -0.0704 -0.5711 -0.4013
  958MOL0     C26387   6.575   5.381   3.152 -0.3820 -0.5863 -0.4618
  958MOL0     C26388   6.607   5.269   3.115 -0.5062  0.1304  0.5070
  958MOL0     C26389   7.177   5.825   3.281  0.0562 -0.0351 -0.1561
  958MOL0     C26390   7.297   5.815   3.210  0.4899 -0.6725 -0.3367
  958MOL0     H26391   7.718   5.393   3.230  3.2209  0.9064  0.5592
  958MOL0     H26392   7.977   5.390   3.142  0.2771  2.1213  0.6850
  958MOL0     H26393   8.094   5.678   3.003 -0.7617  1.2466 -1.5372
  958MOL0     H26394   8.119   5.658   2.827 -3.9181 -1.1185 -0.8021
  958MOL0     H26395   8.292   5.487   2.879  0.1855  0.2197 -1.1238
  958MOL0     H26396   8.297   5.552   3.045  1.1214 -2.0907 -0.2570
  958MOL0     H26397   8.330   5.785   2.936 -2.6725 -1.4547 -0.1828
  958MOL0     H26398   8.336   5.720   2.776 -0.7176  0.0270 -0.4273
  958MOL0     H26399   8.518   5.627   3.010 -0.2672  1.7537  0.0172
  958MOL0     H26400   8.512   5.546   2.865 -2.0448 -0.7118  0.1132
  958MOL0     H26401   8.588   5.847   2.876  1.8163  0.3957  1.4689
  958MOL0     H26402   8.585   5.745   2.733  4.0317 -0.2133 -0.9175
  958MOL0     H26403   8.775   5.622   2.780  0.2416  0.7997 -1.4421
  958MOL0     H26404   8.743   5.631   2.956 -3.0714 -0.7988  0.0927
  958MOL0     H26405   8.800   5.891   2.904 -1.1465  0.3926 -1.3635
  958MOL0     H26406   8.939   5.793   2.911  1.7748 -0.7340 -2.2880
  958MOL0     H26407   8.945   5.952   2.713  0.2293 -0.2470 -0.6088
  958MOL0     H26408   8.788   5.917   2.667 -0.0819 -0.3690 -0.8799
  958MOL0     H26409   9.070   5.658   2.758  3.2978 -0.7375 -2.2615
  958MOL0     H26410   8.981   5.349   2.553  0.9377  1.4026 -2.2821
  958MOL0     H26411   9.032   5.394   2.712 -0.3720  1.3059  0.1465
  958MOL0     H26412   9.231   5.305   2.596  1.4028  0.2584 -0.6913
  958MOL0     H26413   9.252   5.477   2.566  0.4928 -1.3264 -0.5993
  958MOL0     H26414   9.282   5.304   2.395  2.5830  4.4205 -1.2954
  958MOL0     H26415   9.095   5.305   2.383 -0.3876  1.5120 -0.7817
  958MOL0     H26416   9.138   5.558   2.346  1.0797  2.4335  1.3025
  958MOL0     H26417   9.137   5.445   2.211  1.9145  0.3045 -0.8489
  958MOL0     H26418   9.280   5.319   2.116 -0.1401 -0.1247 -0.8686
  958MOL0     H26419   9.434   5.240   1.928  1.1102  1.5604 -2.7805
  958MOL0     H26420   9.853   5.172   1.731  0.8890 -3.0631 -2.7319
  958MOL0     H26421   9.996   5.139   1.548 -1.0725 -0.8297 -0.2633
  958MOL0     H26422  10.265   5.445   1.331  2.2992 -1.7493 -1.1426
  958MOL0     H26423  10.097   5.444   1.278  0.6869  0.7107 -1.6529
  958MOL0     H26424  10.156   5.221   1.154 -1.1213 -0.5241  2.2123
  958MOL0     H26425  10.312   5.239   1.241  1.9329  1.9164  0.3939
  958MOL0     H26426  10.370   5.445   1.129  1.4670 -1.5512  0.1774
  958MOL0     H26427  10.221   5.442   1.034 -1.4088 -1.4133  0.0334
  958MOL0     H26428  10.300   5.227   0.927  0.5110  0.4575  0.1641
  958MOL0     H26429  10.398   5.370   0.910  0.4766 -0.7395 -0.2347
  958MOL0     H26430  10.479   5.122   1.066  2.0208  0.2701  2.1777
  958MOL0     H26431  10.528   5.286   1.107  1.8989 -1.4772  0.2618
  958MOL0     H26432  10.652   5.298   0.889  0.7996 -1.0709 -1.6676
  958MOL0     H26433  10.563   5.166   0.828  0.1831  2.5531 -1.2121
  958MOL0     H26434  10.781   5.161   1.055 -2.7427  1.2116  0.9035
  958MOL0     H26435  10.694   5.018   1.016 -0.1308 -0.5042 -1.9143
  958MOL0     H26436  10.849   5.180   0.806  1.6440  0.7436  2.7585
  958MOL0     H26437  10.776   5.016   0.785  0.3379  1.5596 -1.8028
  958MOL0     H26438  10.086   5.554   1.497  2.8975 -2.0573 -0.3246
  958MOL0     H26439   9.902   5.603   1.671  0.9337 -1.0982  1.0764
  958MOL0     H26440   9.693   5.556   2.011  0.2864 -1.3422 -5.7525
  958MOL0     H26441   9.573   5.622   2.203 -1.2672 -1.0984  2.2417
  958MOL0     H26442   7.852   5.599   2.800 -0.8042 -2.4301 -0.3895
  958MOL0     H26443   7.633   5.637   2.901 -1.8726 -1.9066  0.3161
  958MOL0     H26444   7.323   5.487   3.222  0.4919  1.1343 -2.7085
  958MOL0     H26445   7.097   5.500   3.299 -1.0589  0.0179 -0.0216
  958MOL0     H26446   6.812   5.693   3.474  1.1808  1.0794  1.1361
  958MOL0     H26447   6.910   5.557   3.413  3.1778  1.7729  0.2622
  958MOL0     H26448   6.760   5.702   3.207 -2.5865 -3.0113 -1.0717
  958MOL0     H26449   6.810   5.536   3.221 -1.1888 -0.0387  0.4532
  958MOL0     H26450   6.580   5.634   3.381  0.8199 -1.8316  2.1550
  958MOL0     H26451   6.657   5.486   3.396 -1.6506  0.6889  0.5738
  958MOL0     H26452   6.447   5.514   3.253  1.4964  1.9966  3.8369
  958MOL0     H26453   6.542   5.592   3.134  0.3063  0.1008  0.2552
  958MOL0     H26454   6.624   5.171   3.076 -1.8285  1.0343 -2.6498
  958MOL0     H26455   7.135   5.922   3.307 -0.5214 -0.1138 -0.7628
  958MOL0     H26456   7.358   5.905   3.201 -2.0308  1.3379  1.3187
  959MOL0     O26457   6.177   9.101   6.585 -0.6263 -0.6670 -0.4322
  959MOL0     C26458   6.154   9.023   6.682 -0.5138 -0.5866  0.9496
  959MOL0     O26459   6.042   8.948   6.698 -0.4387 -0.4462 -0.4034
  959MOL0     C26460   5.933   8.994   6.642  0.8904 -0.0415  0.0326
  959MOL0     C26461   5.881   8.943   6.526  0.4081  0.6499  0.7890
  959MOL0     C26462   5.753   8.982   6.476  0.2742  0.3289 -0.4319
  959MOL0     C26463   5.684   9.084   6.539  0.4793  0.5361 -0.0582
  959MOL0     O26464   5.559   9.128   6.502 -0.3216  0.2589 -0.1634
  959MOL0     C26465   5.492   9.070   6.393  1.4354  1.0648 -0.7209
  959MOL0     C26466   5.348   9.127   6.377  0.1013  0.1858  0.1832
  959MOL0     C26467   5.265   9.042   6.282  1.4068  0.1809 -0.1884
  959MOL0     C26468   5.130   9.105   6.252 -0.5676 -0.3032 -0.0675
  959MOL0     C26469   5.043   9.016   6.165 -0.2048  1.1415 -0.3742
  959MOL0     C26470   4.894   9.043   6.163 -0.5355 -0.1422  0.2899
  959MOL0     C26471   4.870   9.187   6.113 -0.5894  0.3385 -0.1415
  959MOL0     C26472   4.914   9.219   5.973  0.1803 -0.1723  0.3527
  959MOL0     N26473   4.909   9.364   5.948 -0.0272 -0.5499  0.5831
  959MOL0     C26474   5.019   9.444   5.911 -0.5800  0.1635  0.5949
  959MOL0     C26475   4.969   9.547   5.838 -0.4839 -0.1615  0.2323
  959MOL0     C26476   5.057   9.658   5.788  0.6659 -0.6199 -0.4545
  959MOL0     C26477   5.001   9.787   5.730  0.0294 -0.3295 -0.3409
  959MOL0     C26478   4.897   9.783   5.611 -0.0944  0.0667 -1.1133
  959MOL0     C26479   4.952   9.708   5.491 -0.8521 -0.4454  0.5250
  959MOL0     O26480   5.084   9.735   5.436 -0.2560 -0.0438 -0.3384
  959MOL0     C26481   5.126   9.857   5.382 -0.1838 -0.3597 -0.4707
  959MOL0     C26482   5.023   9.932   5.312  0.2921 -0.5381  0.5449
  959MOL0     C26483   5.060  10.060   5.247 -0.1794  0.5106  0.5726
  959MOL0     C26484   5.186  10.111   5.271  0.0185  1.0304  1.2272
  959MOL0     C26485   5.227  10.246   5.221 -0.1928  0.6097 -0.5654
  959MOL0     O26486   5.352  10.282   5.275 -0.1158 -0.2065  0.3872
  959MOL0     C26487   5.410  10.406   5.264  0.2011  0.3507  0.2823
  959MOL0     C26488   5.544  10.417   5.257 -0.1571  0.5617  0.3829
  959MOL0     C26489   5.605  10.527   5.222 -0.8597 -0.6008 -0.4859
  959MOL0     C26490   5.526  10.642   5.187  0.0483  0.0703 -0.6505
  959MOL0     O26491   5.582  10.754   5.131  0.0737 -0.4951 -1.0301
  959MOL0     C26492   5.724  10.783   5.137 -0.2371 -0.5075  0.3278
  959MOL0     C26493   5.783  10.785   4.998  0.2132 -0.4321  0.4868
  959MOL0     C26494   5.916  10.866   5.010  0.0987  0.0850  1.0860
  959MOL0     C26495   5.970  10.933   4.876 -0.1244 -0.3006 -0.1931
  959MOL0     C26496   6.097  11.020   4.901  0.2618  0.2390  0.2299
  959MOL0     C26497   6.074  11.155   4.980 -1.6245 -0.0674  0.3890
  959MOL0     C26498   6.198  11.245   4.983  0.6907 -0.4645 -0.4944
  959MOL0     C26499   6.164  11.392   4.964 -0.4469 -0.7638  0.0206
  959MOL0    Cl26500   6.148  11.436   4.799  0.1375 -0.1424 -0.0505
  959MOL0     C26501   5.388  10.638   5.198 -0.3176  0.7519  0.3776
  959MOL0     C26502   5.330  10.516   5.230 -0.2234 -0.4620 -0.4919
  959MOL0     O26503   5.150  10.312   5.149 -0.3600  0.5738 -0.3920
  959MOL0     C26504   5.281  10.031   5.336  0.7258  0.9775  0.0090
  959MOL0     C26505   5.254   9.901   5.386  0.0323  0.0437 -0.2870
  959MOL0     N26506   4.828   9.536   5.839  0.2749  0.5260  0.1202
  959MOL0     N26507   4.795   9.428   5.898 -0.9049  0.1744 -0.7432
  959MOL0     C26508   5.730   9.134   6.658  0.4226 -0.1079  0.7525
  959MOL0     C26509   5.848   9.092   6.711  0.5333  0.2101 -0.4410
  959MOL0     C26510   6.269   9.002   6.782 -0.2346  0.9346 -0.7228
  959MOL0     C26511   6.368   9.092   6.812 -0.3982 -0.6483 -0.4302
  959MOL0     C26512   6.447   9.081   6.929 -0.6709  0.6225 -0.8750
  959MOL0     C26513   6.426   8.976   7.023 -0.3987 -0.8534 -1.3000
  959MOL0     O26514   6.497   8.952   7.137 -0.6518 -0.3949  0.4861
  959MOL0     C26515   6.573   9.065   7.201  1.1985  0.4505  0.4665
  959MOL0     C26516   6.714   9.048   7.181  0.2649  0.8925  0.3793
  959MOL0     C26517   6.771   9.188   7.193  0.3421  0.0965  0.2253
  959MOL0     C26518   6.781   9.227   7.338 -0.5540 -0.1369  0.3578
  959MOL0     C26519   6.869   9.342   7.361  0.7024 -0.7412  0.3498
  959MOL0     C26520   6.959   9.421   7.361 -0.4531 -0.2115 -0.0301
  959MOL0     C26521   6.325   8.886   6.991  0.2334 -0.4954  0.0199
  959MOL0     C26522   6.256   8.894   6.872 -0.4791 -0.4887 -0.8784
  959MOL0     H26523   5.932   8.862   6.475 -1.1148 -0.4426  0.9344
  959MOL0     H26524   5.715   8.927   6.391  2.1038 -3.4424  0.9568
  959MOL0     H26525   5.499   8.961   6.402 -1.4768  0.6794 -2.0980
  959MOL0     H26526   5.540   9.100   6.299  1.5152 -0.8501 -1.3270
  959MOL0     H26527   5.362   9.230   6.344  2.4211 -0.5695 -1.3927
  959MOL0     H26528   5.295   9.130   6.473 -0.4163  1.2175 -0.1251
  959MOL0     H26529   5.254   8.944   6.329  2.6078 -0.6899 -1.6555
  959MOL0     H26530   5.313   9.025   6.185 -1.4137 -5.4227 -1.0359
  959MOL0     H26531   5.085   9.143   6.345 -1.9322  0.6144 -1.0701
  959MOL0     H26532   5.152   9.191   6.188  0.4163 -1.3187 -1.1395
  959MOL0     H26533   5.054   8.913   6.199 -0.1369  0.9872 -0.8663
  959MOL0     H26534   5.086   9.019   6.065 -0.0085 -0.6469 -0.3688
  959MOL0     H26535   4.853   9.035   6.264  0.4455 -0.5400  0.6737
  959MOL0     H26536   4.839   8.970   6.104  2.0190 -0.3917 -1.9663
  959MOL0     H26537   4.763   9.204   6.097 -0.2701  2.5266 -0.1700
  959MOL0     H26538   4.921   9.256   6.180  1.6564  0.5745 -1.9972
  959MOL0     H26539   4.851   9.157   5.909  0.3073 -0.8632  0.8942
  959MOL0     H26540   5.020   9.194   5.969  0.3234  0.4301  0.1484
  959MOL0     H26541   5.120   9.417   5.936 -0.5004  0.5643  0.7218
  959MOL0     H26542   5.118   9.611   5.710 -1.4261 -1.0436 -1.9183
  959MOL0     H26543   5.119   9.681   5.875 -3.6163 -0.0146  2.7984
  959MOL0     H26544   5.093   9.839   5.702 -0.1960  0.7077  0.7866
  959MOL0     H26545   4.945   9.841   5.807 -0.7867  2.6163 -2.7746
  959MOL0     H26546   4.803   9.734   5.637  0.6032 -0.2320  1.1152
  959MOL0     H26547   4.876   9.885   5.579 -0.6665 -0.1742 -1.5084
  959MOL0     H26548   4.883   9.727   5.408  0.5042 -1.5380 -0.9192
  959MOL0     H26549   4.959   9.600   5.504 -2.4221 -0.8595 -1.5565
  959MOL0     H26550   4.917   9.911   5.295  0.6822 -1.8502 -0.4516
  959MOL0     H26551   4.992  10.109   5.178 -0.4989 -0.3614  0.2547
  959MOL0     H26552   5.593  10.321   5.258  2.0864  1.5000 -2.9472
  959MOL0     H26553   5.712  10.526   5.206 -1.1530 -1.1105 -2.6403
  959MOL0     H26554   5.798  10.724   5.193  3.7329  0.3029 -3.5050
  959MOL0     H26555   5.722  10.888   5.166 -2.0799 -0.3170 -0.3850
  959MOL0     H26556   5.712  10.825   4.926  2.5024 -1.3061 -2.4438
  959MOL0     H26557   5.803  10.683   4.965 -2.0032 -1.0017  0.7775
  959MOL0     H26558   5.999  10.807   5.050  0.5698  0.8605  1.2706
  959MOL0     H26559   5.906  10.953   5.075  0.0970  1.0285 -0.1337
  959MOL0     H26560   5.988  10.854   4.803  0.6513 -1.0911  0.8252
  959MOL0     H26561   5.888  10.995   4.838  0.7511  1.7672  1.0875
  959MOL0     H26562   6.132  11.054   4.803  1.6592 -5.5474 -1.6610
  959MOL0     H26563   6.170  10.952   4.947 -0.7110 -0.2531  1.0709
  959MOL0     H26564   6.024  11.134   5.075 -2.1283 -0.6798 -0.0050
  959MOL0     H26565   6.000  11.211   4.922 -2.2645  3.2018  3.9420
  959MOL0     H26566   6.251  11.244   5.078  2.0607  2.5719 -1.1134
  959MOL0     H26567   6.268  11.218   4.903 -0.3798 -2.3908 -0.8632
  959MOL0     H26568   6.255  11.446   4.991 -1.3408  2.4244 -2.6138
  959MOL0     H26569   6.074  11.436   5.008 -1.0245  1.3552 -2.9096
  959MOL0     H26570   5.326  10.725   5.179 -2.8245 -1.3874 -2.1666
  959MOL0     H26571   5.222  10.511   5.242 -0.0400 -1.4032  0.9973
  959MOL0     H26572   5.382  10.068   5.347  1.2401  0.0164 -1.2017
  959MOL0     H26573   5.328   9.849   5.446 -0.0412  1.2405  0.8735
  959MOL0     H26574   5.673   9.209   6.711  0.2178  0.5468 -0.3619
  959MOL0     H26575   5.877   9.137   6.805  0.8920 -2.0471  0.6100
  959MOL0     H26576   6.378   9.179   6.747 -2.0175 -0.7717 -0.8901
  959MOL0     H26577   6.526   9.153   6.951 -0.4215  0.3134 -0.7364
  959MOL0     H26578   6.553   9.048   7.307  1.9233 -1.0344  0.3893
  959MOL0     H26579   6.526   9.161   7.178 -4.5268 -2.0895 -0.4208
  959MOL0     H26580   6.755   8.975   7.252 -0.0114  0.4335  0.0740
  959MOL0     H26581   6.725   9.013   7.078  0.2700 -0.4195  0.8085
  959MOL0     H26582   6.721   9.265   7.135  2.3121  2.6059  1.6722
  959MOL0     H26583   6.873   9.183   7.153  1.0572  2.6266  1.5643
  959MOL0     H26584   6.679   9.245   7.375 -1.7565 -3.2072 -1.1279
  959MOL0     H26585   6.823   9.144   7.395 -0.2776 -0.6285 -0.5539
  959MOL0     H26586   7.027   9.503   7.370 -1.7675  0.8340  0.7580
  959MOL0     H26587   6.304   8.815   7.069 -1.6199  0.7201  0.7033
  959MOL0     H26588   6.190   8.814   6.839  2.0943 -1.9001 -2.9714
  960MOL0     O26589   6.192   7.117   3.664  0.4926 -0.1705  0.1897
  960MOL0     C26590   6.191   7.215   3.730 -0.1929 -0.5533  1.5400
  960MOL0     O26591   6.098   7.250   3.832 -0.5059 -0.2122  0.1050
  960MOL0     C26592   6.033   7.152   3.900 -0.3209 -0.4554  0.6137
  960MOL0     C26593   5.904   7.123   3.864 -0.0830 -0.7497 -0.4416
  960MOL0     C26594   5.826   7.032   3.946 -0.4523  0.0469  0.3453
  960MOL0     C26595   5.882   6.965   4.052  0.4210 -0.8619 -0.4332
  960MOL0     O26596   5.819   6.874   4.141  0.0964 -0.1928  0.5288
  960MOL0     C26597   5.704   6.817   4.086 -0.6771 -0.1842 -0.1603
  960MOL0     C26598   5.644   6.709   4.176  0.4873  1.0083  0.7109
  960MOL0     C26599   5.703   6.578   4.129 -0.7818 -0.0636  0.6997
  960MOL0     C26600   5.690   6.460   4.230  0.9125  0.0051 -0.9750
  960MOL0     C26601   5.730   6.333   4.152 -0.0235 -0.5681 -0.0759
  960MOL0     C26602   5.724   6.209   4.252  0.6012 -1.2730 -0.0062
  960MOL0     C26603   5.853   6.175   4.327  0.0176  0.1985 -0.6242
  960MOL0     C26604   5.975   6.138   4.234  0.6484 -0.4920 -0.4930
  960MOL0     N26605   5.946   6.009   4.171 -1.2033 -0.3114  0.2428
  960MOL0     C26606   5.973   5.884   4.215 -0.0076 -0.1393  0.3164
  960MOL0     C26607   5.946   5.799   4.117  0.6178 -0.1881  0.8035
  960MOL0     C26608   5.950   5.644   4.124 -0.0903 -0.3976  0.4053
  960MOL0     C26609   5.816   5.584   4.095  0.9380  0.3005  0.3125
  960MOL0     C26610   5.709   5.623   4.194  0.1729 -0.8054  0.1222
  960MOL0     C26611   5.589   5.522   4.187 -0.1590  0.0079  0.1121
  960MOL0     O26612   5.501   5.560   4.299  0.1718  0.7050  0.1072
  960MOL0     C26613   5.380   5.505   4.316  0.3051 -0.5525  0.0363
  960MOL0     C26614   5.322   5.395   4.256  0.4919 -0.6657 -1.1967
  960MOL0     C26615   5.195   5.346   4.293 -1.4608  0.5125  0.5306
  960MOL0     C26616   5.111   5.422   4.387 -0.2788 -0.5855 -0.1965
  960MOL0     C26617   4.972   5.385   4.418  0.4408  0.3803  0.0852
  960MOL0     O26618   4.900   5.480   4.486 -0.4142 -0.2067 -1.0437
  960MOL0     C26619   4.770   5.462   4.488  0.5276 -0.9522  0.7901
  960MOL0     C26620   4.684   5.454   4.375  0.1555  0.3119 -0.3193
  960MOL0     C26621   4.546   5.419   4.396 -0.8200 -0.5297  1.0330
  960MOL0     C26622   4.493   5.385   4.528 -0.1115 -1.0578  0.7495
  960MOL0     O26623   4.371   5.341   4.566 -0.2303  0.4247 -0.0261
  960MOL0     C26624   4.280   5.310   4.458  0.1971 -0.8122 -1.0355
  960MOL0     C26625   4.151   5.268   4.521 -0.0453  0.4417  0.5435
  960MOL0     C26626   4.157   5.118   4.549  0.4915 -1.0776  0.1557
  960MOL0     C26627   4.019   5.061   4.587  0.1717 -1.6388 -0.2120
  960MOL0     C26628   3.990   4.920   4.517 -0.2222 -0.3851  0.5207
  960MOL0     C26629   4.110   4.825   4.503  1.0656 -0.9437  0.4765
  960MOL0     C26630   4.184   4.790   4.631 -0.4718  0.0756  0.4002
  960MOL0     C26631   4.306   4.695   4.605  0.2182 -0.7076 -0.1266
  960MOL0    Cl26632   4.260   4.540   4.538  0.2837 -0.1157  0.0094
  960MOL0     C26633   4.579   5.405   4.634 -0.0361 -0.5046 -0.6000
  960MOL0     C26634   4.715   5.439   4.614 -0.1024 -0.9033 -0.7824
  960MOL0     O26635   4.935   5.277   4.390 -0.8715 -0.8316 -0.4313
  960MOL0     C26636   5.179   5.527   4.455  0.0949  0.0488 -0.5130
  960MOL0     C26637   5.309   5.571   4.423  0.3456 -0.5421 -0.7873
  960MOL0     N26638   5.904   5.873   4.007  0.0994 -0.2448  0.2132
  960MOL0     N26639   5.910   6.000   4.045 -0.6007 -0.4323 -0.4487
  960MOL0     C26640   6.016   7.005   4.082 -0.0063 -0.9444  0.4660
  960MOL0     C26641   6.089   7.090   4.004 -0.5852  0.8794 -1.0507
  960MOL0     C26642   6.280   7.323   3.690 -0.5849 -0.0006 -0.4539
  960MOL0     C26643   6.399   7.301   3.610 -0.2197  0.2870 -0.1543
  960MOL0     C26644   6.478   7.408   3.567 -0.4668  0.3135 -0.0070
  960MOL0     C26645   6.454   7.539   3.610  0.1521  0.0142 -0.5803
  960MOL0     O26646   6.538   7.642   3.579 -0.0359 -0.5775  0.6970
  960MOL0     C26647   6.679   7.622   3.559  0.0352  0.6331  0.1212
  960MOL0     C26648   6.752   7.573   3.678 -0.3040 -0.4586 -0.1969
  960MOL0     C26649   6.771   7.686   3.775  0.1721 -0.1165 -1.0153
  960MOL0     C26650   6.855   7.656   3.906 -1.2277  0.5151 -0.1687
  960MOL0     C26651   6.998   7.611   3.875  0.3969  0.1724  0.3543
  960MOL0     C26652   7.113   7.580   3.866  0.4622 -0.6196  0.1776
  960MOL0     C26653   6.332   7.568   3.679 -0.3279  0.4501 -0.0035
  960MOL0     C26654   6.247   7.458   3.712  0.0294  0.3623 -0.8536
  960MOL0     H26655   5.863   7.171   3.776 -3.3024 -1.6798  0.4305
  960MOL0     H26656   5.721   7.016   3.924 -0.3486 -1.2024  0.6839
  960MOL0     H26657   5.730   6.778   3.987 -0.4022 -1.0686  0.2496
  960MOL0     H26658   5.631   6.898   4.071  0.7360  1.3328  0.7927
  960MOL0     H26659   5.536   6.723   4.168  0.6173  2.1074  0.6705
  960MOL0     H26660   5.666   6.721   4.282  1.9171 -4.4722  1.3493
  960MOL0     H26661   5.807   6.590   4.099  0.6051 -0.2094  4.8679
  960MOL0     H26662   5.648   6.542   4.041 -0.3836 -1.8839  1.1673
  960MOL0     H26663   5.756   6.483   4.314 -0.0208  2.3087 -0.7865
  960MOL0     H26664   5.590   6.447   4.272  0.5421 -2.8382 -2.4969
  960MOL0     H26665   5.830   6.341   4.109 -0.7494  2.2502 -1.5191
  960MOL0     H26666   5.667   6.315   4.064  1.1238 -0.1074 -1.0244
  960MOL0     H26667   5.697   6.124   4.189  5.0227 -0.3125 -3.7337
  960MOL0     H26668   5.640   6.225   4.320  0.6204  0.3305 -0.3326
  960MOL0     H26669   5.871   6.253   4.402 -1.4198 -0.1647  0.1355
  960MOL0     H26670   5.839   6.088   4.393 -2.9489  1.0789  0.0223
  960MOL0     H26671   6.066   6.136   4.294 -0.0028  0.8752  0.6242
  960MOL0     H26672   5.987   6.210   4.153  1.0439  2.3206  1.8780
  960MOL0     H26673   5.996   5.859   4.318 -2.9335  1.2222  1.4243
  960MOL0     H26674   5.984   5.613   4.223 -3.4836  2.5097  2.7387
  960MOL0     H26675   6.024   5.618   4.048 -1.3438 -0.4233 -0.8234
  960MOL0     H26676   5.813   5.475   4.091 -0.1452  0.3168  0.4377
  960MOL0     H26677   5.786   5.609   3.993  1.1733 -2.6256 -0.5635
  960MOL0     H26678   5.753   5.630   4.294 -1.5057 -1.9690  0.9717
  960MOL0     H26679   5.686   5.726   4.165  1.6460 -0.5284 -0.1754
  960MOL0     H26680   5.630   5.421   4.198 -0.3618 -0.1833 -0.8107
  960MOL0     H26681   5.535   5.518   4.092  0.0817  1.1143 -0.0832
  960MOL0     H26682   5.374   5.334   4.182  0.8404 -0.3445 -1.2238
  960MOL0     H26683   5.170   5.249   4.251 -2.6346 -0.0290  2.3284
  960MOL0     H26684   4.725   5.466   4.276  1.8791  2.8561  0.6055
  960MOL0     H26685   4.476   5.406   4.314  0.7933  0.8768 -0.6688
  960MOL0     H26686   4.319   5.236   4.388  2.1042 -2.5636  1.6572
  960MOL0     H26687   4.263   5.405   4.407 -2.2960  1.6893  3.7248
  960MOL0     H26688   4.069   5.302   4.457 -0.0678  2.9780  1.8040
  960MOL0     H26689   4.145   5.308   4.622  2.6595  0.3082  0.8256
  960MOL0     H26690   4.226   5.100   4.631 -1.0376 -3.9689  0.9359
  960MOL0     H26691   4.199   5.067   4.462 -2.6688 -1.5568 -1.2193
  960MOL0     H26692   4.016   5.053   4.696  0.1960  1.8848  0.1799
  960MOL0     H26693   3.943   5.138   4.569  1.1658 -0.1648  1.4341
  960MOL0     H26694   3.956   4.938   4.414  2.2761  0.8488 -0.1790
  960MOL0     H26695   3.910   4.869   4.571  0.2247 -1.6410  0.0598
  960MOL0     H26696   4.178   4.862   4.425  1.3103 -1.8399  0.2566
  960MOL0     H26697   4.064   4.733   4.467  1.3115 -1.5421  1.6661
  960MOL0     H26698   4.209   4.885   4.680 -0.9329  1.5493 -2.0642
  960MOL0     H26699   4.110   4.729   4.684  1.2512 -1.3011  1.2945
  960MOL0     H26700   4.376   4.689   4.690  0.4155  0.2498 -0.2200
  960MOL0     H26701   4.368   4.741   4.528  2.0678 -1.3541  0.9087
  960MOL0     H26702   4.543   5.386   4.735  0.6584  1.6288  0.1096
  960MOL0     H26703   4.774   5.462   4.702  0.6856  2.3579 -2.0172
  960MOL0     H26704   5.117   5.576   4.529 -1.8968 -1.4620 -1.1033
  960MOL0     H26705   5.354   5.661   4.465  0.5460 -0.4450 -1.2053
  960MOL0     H26706   6.060   6.956   4.168  3.0011 -1.9159 -1.4964
  960MOL0     H26707   6.192   7.105   4.034  0.0522  2.1997 -3.5521
  960MOL0     H26708   6.431   7.199   3.588  0.6586  0.7229 -0.9839
  960MOL0     H26709   6.568   7.383   3.512  1.0656 -0.6408  2.8038
  960MOL0     H26710   6.727   7.718   3.539  1.3375 -0.2052 -1.0241
  960MOL0     H26711   6.701   7.560   3.472 -4.4251  0.8339 -1.3832
  960MOL0     H26712   6.704   7.487   3.726  1.2269 -1.0985  0.2482
  960MOL0     H26713   6.850   7.535   3.649 -0.5213 -1.2189  0.0309
  960MOL0     H26714   6.672   7.721   3.805 -0.6109 -0.6249 -2.8488
  960MOL0     H26715   6.823   7.772   3.732  0.7772  0.6985  1.2062
  960MOL0     H26716   6.855   7.739   3.977 -3.2332 -1.1756  1.9434
  960MOL0     H26717   6.808   7.568   3.952  3.7675 -1.7633  1.3287
  960MOL0     H26718   7.220   7.572   3.857  0.6148  0.4617  0.8387
  960MOL0     H26719   6.308   7.671   3.704 -3.9776 -0.1146 -0.6183
  960MOL0     H26720   6.159   7.486   3.769  0.2851 -1.8045  0.7580
  961MOL0     O26721   2.233  11.210   0.392 -0.3597 -0.9714 -0.4000
  961MOL0     C26722   2.241  11.331   0.381  0.0677 -0.5918 -0.5537
  961MOL0     O26723   2.142  11.405   0.315 -0.1784 -0.2242  0.3734
  961MOL0     C26724   2.038  11.346   0.261 -0.2340 -0.3436 -0.4644
  961MOL0     C26725   2.054  11.282   0.139 -0.0302  0.0524  0.2896
  961MOL0     C26726   1.941  11.211   0.085  0.0171  0.4766  0.2618
  961MOL0     C26727   1.812  11.212   0.138  0.7119 -0.2545  0.1487
  961MOL0     O26728   1.711  11.145   0.072  0.7838  0.5111  0.0756
  961MOL0     C26729   1.585  11.189   0.090  0.1890 -1.2395 -0.4458
  961MOL0     C26730   1.500  11.134  -0.019 -0.0408 -0.6983  0.2862
  961MOL0     C26731   1.379  11.057   0.025  1.1151 -0.6740  0.1595
  961MOL0     C26732   1.301  11.003  -0.096 -0.1522 -0.2640  0.2465
  961MOL0     C26733   1.160  10.980  -0.052 -0.3222  0.1251  0.8368
  961MOL0     C26734   1.069  11.106  -0.056  0.8841 -0.5250  0.4980
  961MOL0     C26735   0.922  11.059  -0.079  0.0757 -0.1231  0.1348
  961MOL0     C26736   0.843  10.986   0.025 -0.0166  0.9574  0.0724
  961MOL0     N26737   0.708  10.957  -0.014  0.0420 -0.6488 -0.0816
  961MOL0     C26738   0.670  10.860  -0.098 -0.4651  0.3371  0.0010
  961MOL0     C26739   0.540  10.842  -0.074  0.8136 -0.2808 -0.9827
  961MOL0     C26740   0.453  10.754  -0.158  0.6805 -0.1102 -0.2037
  961MOL0     C26741   0.308  10.754  -0.104  0.1318  0.4733  0.4766
  961MOL0     C26742   0.226  10.833  -0.209 -0.5974  0.1813  0.2345
  961MOL0     C26743   0.074  10.837  -0.178 -0.0674 -0.1740  0.4046
  961MOL0     O26744   0.001  10.722  -0.219  0.3952 -0.0753 -0.0675
  961MOL0     C26745  -0.134  10.748  -0.223 -1.2865 -0.2000  0.2164
  961MOL0     C26746  -0.205  10.822  -0.123  0.3035 -0.8450 -0.0294
  961MOL0     C26747  -0.345  10.842  -0.141 -1.3145 -0.2252 -0.2745
  961MOL0     C26748  -0.412  10.784  -0.253 -0.9089 -0.2234 -0.1152
  961MOL0     C26749  -0.554  10.810  -0.272 -0.2567  0.0313 -0.2577
  961MOL0     O26750  -0.617  10.914  -0.198  0.3209 -0.2248  0.6517
  961MOL0     C26751  -0.745  10.959  -0.225  0.3516 -0.9638  0.0878
  961MOL0     C26752  -0.804  10.974  -0.348 -1.2081 -0.7239 -0.4733
  961MOL0     C26753  -0.918  11.055  -0.362 -0.1179  0.6656  0.9512
  961MOL0     C26754  -0.984  11.115  -0.257 -0.4250 -0.5146 -0.2479
  961MOL0     O26755  -1.103  11.194  -0.266  0.0960 -0.0542 -0.0507
  961MOL0     C26756  -1.154  11.237  -0.393 -0.1370  0.0249  1.5317
  961MOL0     C26757  -1.243  11.130  -0.453 -0.4141 -0.1989 -0.4631
  961MOL0     C26758  -1.380  11.130  -0.388 -0.0385  0.0077  0.5007
  961MOL0     C26759  -1.475  11.019  -0.431 -0.2687  1.4705  0.4400
  961MOL0     C26760  -1.512  11.041  -0.585  0.4226 -0.2523 -1.3407
  961MOL0     C26761  -1.626  10.960  -0.614 -0.4756 -0.9063  0.3493
  961MOL0     C26762  -1.685  10.982  -0.753  0.7739  0.1603  0.1243
  961MOL0     C26763  -1.803  10.894  -0.765  0.6749 -0.6745 -1.2149
  961MOL0    Cl26764  -1.856  10.885  -0.938  0.2425 -0.1369 -0.2702
  961MOL0     C26765  -0.935  11.087  -0.126  0.1723  0.1664  0.7980
  961MOL0     C26766  -0.815  11.013  -0.117 -0.6967 -0.2366 -0.6566
  961MOL0     O26767  -0.612  10.735  -0.349 -0.2253  0.1335  0.2242
  961MOL0     C26768  -0.338  10.721  -0.352  0.0775 -0.3886  0.0004
  961MOL0     C26769  -0.201  10.705  -0.334  0.0159 -0.0585  0.1946
  961MOL0     N26770   0.493  10.942   0.010  0.3774  1.0036  0.2852
  961MOL0     N26771   0.599  11.013   0.048  0.1304 -0.1230 -0.2160
  961MOL0     C26772   1.805  11.282   0.255  0.0577 -0.2426  0.4451
  961MOL0     C26773   1.918  11.331   0.325  0.0995 -0.9810 -0.6274
  961MOL0     C26774   2.361  11.400   0.439 -0.1519 -0.5267 -0.9962
  961MOL0     C26775   2.456  11.324   0.519 -0.0071  0.3673  0.1393
  961MOL0     C26776   2.572  11.383   0.560  0.0595  0.2447  0.6203
  961MOL0     C26777   2.599  11.520   0.529 -0.0733 -0.5847 -0.4166
  961MOL0     O26778   2.720  11.585   0.562 -0.5041  0.1199 -0.2623
  961MOL0     C26779   2.828  11.503   0.615 -0.1144  0.0371 -1.1914
  961MOL0     C26780   2.895  11.431   0.493  0.1434  0.3521  0.5121
  961MOL0     C26781   3.037  11.407   0.532 -0.2016 -0.3218  0.5063
  961MOL0     C26782   3.135  11.524   0.483 -0.2309 -0.2096 -0.1105
  961MOL0     C26783   3.274  11.482   0.518 -0.6836 -0.0133  1.0660
  961MOL0     C26784   3.385  11.438   0.533  0.0969 -0.0434 -0.4203
  961MOL0     C26785   2.511  11.598   0.451 -0.7249 -0.3063 -0.6918
  961MOL0     C26786   2.393  11.538   0.406 -0.4175  0.2666  0.5204
  961MOL0     H26787   2.153  11.281   0.094  0.6635  2.1665  1.6071
  961MOL0     H26788   1.959  11.147  -0.001 -3.2552 -3.2718  2.0638
  961MOL0     H26789   1.577  11.299   0.087  0.4335 -1.0594  2.6767
  961MOL0     H26790   1.543  11.160   0.187 -2.2045 -0.4469 -1.1597
  961MOL0     H26791   1.560  11.075  -0.088 -1.0692  0.2526 -1.4938
  961MOL0     H26792   1.464  11.215  -0.083  0.6304  1.9165  2.9905
  961MOL0     H26793   1.315  11.126   0.080  2.9007  2.6939 -1.6389
  961MOL0     H26794   1.407  10.972   0.089  0.2869 -0.9951  0.1070
  961MOL0     H26795   1.308  11.078  -0.176  0.6045 -0.4838  0.0974
  961MOL0     H26796   1.344  10.912  -0.139  1.3759  0.8993 -0.8276
  961MOL0     H26797   1.152  10.935   0.048  0.0791 -2.3039 -0.1773
  961MOL0     H26798   1.123  10.911  -0.128  0.0200  0.1139  0.6809
  961MOL0     H26799   1.095  11.154  -0.151 -1.3893  0.0264  0.0860
  961MOL0     H26800   1.094  11.185   0.015  0.9267  1.4551 -1.6027
  961MOL0     H26801   0.874  11.151  -0.113  0.6624 -0.4607 -1.6648
  961MOL0     H26802   0.926  10.998  -0.169 -0.4321 -2.0499  1.3606
  961MOL0     H26803   0.851  11.035   0.122 -2.3297  2.1477 -0.2790
  961MOL0     H26804   0.898  10.891   0.028  2.4305  2.2781  0.2407
  961MOL0     H26805   0.719  10.808  -0.180 -3.6744 -1.1817 -1.1097
  961MOL0     H26806   0.491  10.652  -0.155  1.8562  0.3351  1.1593
  961MOL0     H26807   0.451  10.794  -0.259  0.8276  0.1551 -0.1022
  961MOL0     H26808   0.298  10.790  -0.001  0.0381 -1.3914  1.1575
  961MOL0     H26809   0.269  10.652  -0.106 -0.3644  0.5995  2.1848
  961MOL0     H26810   0.265  10.935  -0.214  2.1076 -0.7955 -0.2020
  961MOL0     H26811   0.236  10.791  -0.309  2.1886 -2.3975  1.4724
  961MOL0     H26812   0.040  10.926  -0.233  0.5846  0.6499  1.2972
  961MOL0     H26813   0.071  10.855  -0.070 -0.2231  1.7755  0.1238
  961MOL0     H26814  -0.150  10.868  -0.041  1.6429 -2.9510  0.3396
  961MOL0     H26815  -0.414  10.888  -0.071 -3.3793 -1.1591 -1.5924
  961MOL0     H26816  -0.756  10.934  -0.437  0.2140  0.0975 -0.1123
  961MOL0     H26817  -0.978  11.078  -0.450 -0.5953  1.2871  1.4322
  961MOL0     H26818  -1.079  11.259  -0.470 -0.9003  1.7247  1.2328
  961MOL0     H26819  -1.204  11.333  -0.380  0.9312  0.7346  0.5901
  961MOL0     H26820  -1.202  11.030  -0.437 -0.4670  0.1369  2.2538
  961MOL0     H26821  -1.266  11.160  -0.556 -0.1995 -0.4708 -0.5898
  961MOL0     H26822  -1.423  11.231  -0.398  0.5863  0.3155  0.8505
  961MOL0     H26823  -1.369  11.129  -0.279  0.5498  4.9148  0.7120
  961MOL0     H26824  -1.429  10.921  -0.419 -2.7899 -0.1408 -1.8727
  961MOL0     H26825  -1.569  11.029  -0.376 -2.3527  0.2265 -2.6036
  961MOL0     H26826  -1.415  11.014  -0.630  1.5186  4.4229 -2.3748
  961MOL0     H26827  -1.514  11.148  -0.608  1.5302  0.2679  0.7943
  961MOL0     H26828  -1.702  10.989  -0.541 -0.2048  0.8215 -0.0199
  961MOL0     H26829  -1.592  10.857  -0.599  1.7174 -0.6286 -2.0393
  961MOL0     H26830  -1.700  11.090  -0.761 -1.9669  0.1216  3.0511
  961MOL0     H26831  -1.616  10.954  -0.834  1.5698 -0.1514  0.8995
  961MOL0     H26832  -1.876  10.938  -0.697  2.5726 -0.8282  1.0433
  961MOL0     H26833  -1.778  10.795  -0.726  0.4665 -0.3769 -0.3013
  961MOL0     H26834  -0.994  11.127  -0.045  0.6861 -2.7867  2.8238
  961MOL0     H26835  -0.763  10.999  -0.022 -1.5037  0.3808 -0.1131
  961MOL0     H26836  -0.383  10.682  -0.443  0.4357 -0.6077 -0.0841
  961MOL0     H26837  -0.154  10.652  -0.417  0.9870 -0.1330  0.7726
  961MOL0     H26838   1.712  11.281   0.310 -0.2875 -1.6108 -0.1133
  961MOL0     H26839   1.905  11.381   0.421  1.4963 -3.0280  0.7056
  961MOL0     H26840   2.445  11.216   0.525 -3.1493  0.4949 -1.1910
  961MOL0     H26841   2.645  11.329   0.620  2.4611 -0.0793 -2.3571
  961MOL0     H26842   2.796  11.436   0.695  0.6501 -1.8351 -2.3933
  961MOL0     H26843   2.905  11.571   0.655 -1.3763 -1.0538  3.7758
  961MOL0     H26844   2.839  11.342   0.462 -0.5589  0.0140  2.6167
  961MOL0     H26845   2.892  11.498   0.406 -1.0591 -1.1617 -0.6778
  961MOL0     H26846   3.065  11.320   0.472 -0.4034 -0.5487  0.7403
  961MOL0     H26847   3.042  11.392   0.640  0.3573 -2.9164  0.1959
  961MOL0     H26848   3.128  11.544   0.375  1.1100  2.4387  0.2222
  961MOL0     H26849   3.093  11.609   0.538 -0.8212 -0.6498  0.1328
  961MOL0     H26850   3.474  11.380   0.547 -1.0697 -1.1814  3.6022
  961MOL0     H26851   2.521  11.704   0.430 -2.7775  0.2582  0.8182
  961MOL0     H26852   2.337  11.597   0.335  2.8826  0.2777 -2.3785
  962MOL0     O26853   5.810   0.404  10.258 -0.1863 -0.1258  0.7311
  962MOL0     C26854   5.711   0.379  10.322 -0.6547 -0.0013 -1.2106
  962MOL0     O26855   5.609   0.465  10.345  0.0602 -0.3688  0.0619
  962MOL0     C26856   5.632   0.597  10.309  0.0267 -0.7391  1.0651
  962MOL0     C26857   5.724   0.675  10.376 -0.1332 -0.2351 -0.6255
  962MOL0     C26858   5.726   0.817  10.352  1.0311  0.2801  0.1303
  962MOL0     C26859   5.656   0.869  10.244 -0.1795 -0.2425  0.9746
  962MOL0     O26860   5.672   1.003  10.204  0.0452 -0.2069  0.4698
  962MOL0     C26861   5.651   1.084  10.321  0.0621  0.5830  0.9735
  962MOL0     C26862   5.551   1.200  10.285  0.1249  0.3615 -0.2411
  962MOL0     C26863   5.404   1.152  10.287  0.5183  1.2995  0.1135
  962MOL0     C26864   5.310   1.251  10.234  1.5985 -0.5543 -0.3296
  962MOL0     C26865   5.167   1.198  10.258  0.4290 -1.0109 -0.5874
  962MOL0     C26866   5.072   1.258  10.156  0.5725  0.6148  0.0166
  962MOL0     C26867   4.944   1.190  10.158  0.2360 -0.3934  0.3884
  962MOL0     C26868   4.874   1.183  10.291  0.1958 -0.2364 -0.3552
  962MOL0     N26869   4.736   1.153  10.276  0.8393  0.0812  0.0739
  962MOL0     C26870   4.677   1.027  10.295 -0.1422 -1.5988 -0.0379
  962MOL0     C26871   4.549   1.051  10.268 -0.1847 -0.7416  0.3079
  962MOL0     C26872   4.442   0.944  10.274  0.2815  0.0155 -0.0151
  962MOL0     C26873   4.415   0.913  10.417  0.5688 -0.3129 -0.6481
  962MOL0     C26874   4.328   0.789  10.450  0.2535  0.9010 -0.2388
  962MOL0     C26875   4.188   0.795  10.398  0.1902 -0.3235  0.2603
  962MOL0     O26876   4.098   0.895  10.468 -0.8307 -0.4760 -0.2302
  962MOL0     C26877   3.978   0.835  10.491  0.8951 -1.2532  0.7169
  962MOL0     C26878   3.876   0.852  10.406 -0.1230 -0.9504 -1.0996
  962MOL0     C26879   3.756   0.785  10.430 -0.0894  0.0317 -0.1159
  962MOL0     C26880   3.739   0.726  10.558 -0.5217 -0.0857 -0.7686
  962MOL0     C26881   3.603   0.699  10.621  0.4592 -0.0863  0.9773
  962MOL0     O26882   3.589   0.616  10.730 -0.0669 -0.4468 -0.4229
  962MOL0     C26883   3.463   0.599  10.782  0.5089 -0.4148 -0.2943
  962MOL0     C26884   3.401   0.478  10.779 -0.3952 -0.7358 -1.1387
  962MOL0     C26885   3.267   0.475  10.825 -0.3802 -0.6337 -0.4683
  962MOL0     C26886   3.210   0.591  10.869  0.2483  0.1501  0.4450
  962MOL0     O26887   3.087   0.575  10.929  0.7674  0.1520  0.2089
  962MOL0     C26888   2.991   0.654  10.859 -0.3612 -0.6413 -0.0877
  962MOL0     C26889   2.858   0.600  10.877  0.0178  0.3308  0.2804
  962MOL0     C26890   2.796   0.602  11.017  0.1630 -0.5413  1.0870
  962MOL0     C26891   2.641   0.582  10.996  0.5095  0.2751 -0.1660
  962MOL0     C26892   2.570   0.724  10.996  0.3931 -0.9856  0.1398
  962MOL0     C26893   2.425   0.717  11.008  0.2077 -0.1910 -0.2894
  962MOL0     C26894   2.355   0.852  10.989  0.1542  0.7107  0.0016
  962MOL0     C26895   2.206   0.832  11.023 -0.2748 -1.4097 -0.6385
  962MOL0    Cl26896   2.168   0.746  11.185 -0.3678  0.3714 -0.1414
  962MOL0     C26897   3.273   0.711  10.879 -0.2217  0.7320 -0.5018
  962MOL0     C26898   3.403   0.713  10.838  0.5756 -0.4589 -0.3810
  962MOL0     O26899   3.504   0.747  10.563 -0.5259  0.1436  0.0744
  962MOL0     C26900   3.846   0.707  10.651  0.2513  0.4941 -0.1035
  962MOL0     C26901   3.967   0.762  10.610 -0.0263  0.0999 -0.4499
  962MOL0     N26902   4.526   1.176  10.236 -0.6629  0.0200  0.1297
  962MOL0     N26903   4.642   1.251  10.243  0.1528 -0.0244 -0.1188
  962MOL0     C26904   5.590   0.781  10.158 -0.0753  0.0715 -0.5391
  962MOL0     C26905   5.575   0.644  10.195  1.2944 -0.4230 -0.4749
  962MOL0     C26906   5.699   0.244  10.381  0.6144  0.1783 -0.3539
  962MOL0     C26907   5.575   0.203  10.450  0.0561  0.2949  0.3240
  962MOL0     C26908   5.563   0.069  10.486  0.4878  0.6110 -0.6721
  962MOL0     C26909   5.658  -0.030  10.448 -0.1395 -0.0888 -1.1499
  962MOL0     O26910   5.630  -0.164  10.469  0.3979 -0.0920  0.3108
  962MOL0     C26911   5.710  -0.242  10.558 -0.3641 -0.4308  0.3389
  962MOL0     C26912   5.729  -0.189  10.701 -0.4279 -0.1484 -0.4274
  962MOL0     C26913   5.847  -0.277  10.759  0.3866  0.2309  0.6497
  962MOL0     C26914   5.868  -0.245  10.899  0.4783 -0.1078  0.2445
  962MOL0     C26915   5.993  -0.304  10.950  0.3133  0.4411  0.2858
  962MOL0     C26916   6.096  -0.363  10.974 -0.3971 -1.3470 -0.5135
  962MOL0     C26917   5.777   0.015  10.386  0.7079 -0.3069  0.7562
  962MOL0     C26918   5.791   0.150  10.355 -0.5966  0.5505  0.5723
  962MOL0     H26919   5.781   0.652  10.465 -2.3971 -0.4934  0.8216
  962MOL0     H26920   5.777   0.891  10.412  1.2714  1.7285 -1.7729
  962MOL0     H26921   5.745   1.132  10.348 -0.1044  0.4192  1.8767
  962MOL0     H26922   5.603   1.037  10.407 -1.9750  2.2776  0.8662
  962MOL0     H26923   5.580   1.239  10.187  0.0850 -2.3357 -1.4341
  962MOL0     H26924   5.566   1.273  10.365 -0.2011  0.1747 -0.0076
  962MOL0     H26925   5.375   1.116  10.386 -0.2108 -1.6188 -1.0473
  962MOL0     H26926   5.381   1.063  10.228 -2.3558  0.3311  2.4774
  962MOL0     H26927   5.335   1.342  10.290  2.4165 -0.7250 -0.4023
  962MOL0     H26928   5.331   1.270  10.128 -0.9043  0.2561 -0.7438
  962MOL0     H26929   5.136   1.217  10.361  2.1736  0.1499 -0.2324
  962MOL0     H26930   5.161   1.091  10.239 -0.6472 -1.1890  0.6138
  962MOL0     H26931   5.105   1.255  10.051  0.6010  0.1883  0.0366
  962MOL0     H26932   5.062   1.364  10.183 -1.6547  0.3493  0.3521
  962MOL0     H26933   4.881   1.253  10.094  1.0568  1.0778  0.9701
  962MOL0     H26934   4.943   1.090  10.114 -1.7560 -1.3344  2.3864
  962MOL0     H26935   4.876   1.282  10.336 -0.6130  0.2830 -1.4150
  962MOL0     H26936   4.921   1.110  10.357  1.2185 -0.0580 -0.8539
  962MOL0     H26937   4.727   0.937  10.329 -0.6261 -3.4979 -3.8281
  962MOL0     H26938   4.480   0.854  10.226 -2.2942 -0.6625 -0.9818
  962MOL0     H26939   4.348   0.964  10.220 -0.5384 -1.1103  0.9460
  962MOL0     H26940   4.366   1.002  10.458  1.4536  0.6867 -1.6915
  962MOL0     H26941   4.512   0.906  10.468  1.5277 -1.7492 -2.5267
  962MOL0     H26942   4.385   0.704  10.413  2.6576  3.2904 -2.4594
  962MOL0     H26943   4.328   0.781  10.559 -0.2948 -2.9269 -0.3790
  962MOL0     H26944   4.149   0.695  10.413  1.2175 -0.6079  1.2140
  962MOL0     H26945   4.183   0.823  10.292  1.5041  1.7709  0.6833
  962MOL0     H26946   3.895   0.925  10.327 -0.0874  0.8516  0.5099
  962MOL0     H26947   3.682   0.796  10.352 -1.3960  3.2237  1.3886
  962MOL0     H26948   3.450   0.390  10.739  1.0636 -0.1911 -0.6018
  962MOL0     H26949   3.205   0.386  10.829  0.0529 -0.8964  0.4323
  962MOL0     H26950   3.016   0.670  10.754  0.5795 -1.9942 -0.0896
  962MOL0     H26951   3.002   0.756  10.897  1.3050 -0.7233 -0.2652
  962MOL0     H26952   2.847   0.500  10.836 -1.5537  0.1821  0.9665
  962MOL0     H26953   2.800   0.670  10.815 -3.6740 -1.0089  1.9359
  962MOL0     H26954   2.813   0.699  11.065  2.8870  0.7533 -2.1048
  962MOL0     H26955   2.844   0.520  11.070  2.4708  0.0000 -0.0131
  962MOL0     H26956   2.620   0.525  10.905  2.0493  0.8889 -0.9510
  962MOL0     H26957   2.599   0.531  11.082  0.9886 -1.4450 -0.9077
  962MOL0     H26958   2.592   0.781  10.905  1.7966  0.6062  1.4079
  962MOL0     H26959   2.603   0.778  11.085 -1.8292 -0.4538  0.6981
  962MOL0     H26960   2.407   0.668  11.104  3.2440 -0.3629  0.3117
  962MOL0     H26961   2.391   0.663  10.919 -0.2851 -0.1161 -0.1446
  962MOL0     H26962   2.407   0.926  11.051  0.5648 -0.7997  1.5383
  962MOL0     H26963   2.367   0.881  10.884 -1.2986  2.7315  0.3325
  962MOL0     H26964   2.153   0.786  10.938 -2.8932 -2.4924  1.4438
  962MOL0     H26965   2.162   0.931  11.025 -0.0138 -1.3073  0.9774
  962MOL0     H26966   3.229   0.801  10.922  1.9997  0.9124  1.5452
  962MOL0     H26967   3.446   0.812  10.831  0.8958 -0.6427 -1.0609
  962MOL0     H26968   3.836   0.651  10.744  3.8360 -1.9883 -0.9887
  962MOL0     H26969   4.045   0.759  10.686  1.0211 -1.9370 -1.5235
  962MOL0     H26970   5.554   0.815  10.061  0.7239 -0.3113 -0.9783
  962MOL0     H26971   5.523   0.572  10.133 -0.9592 -1.0953  1.9782
  962MOL0     H26972   5.494   0.273  10.465 -0.0029  0.6344 -1.4449
  962MOL0     H26973   5.476   0.027  10.535  1.7159 -0.4499  0.6994
  962MOL0     H26974   5.809  -0.238  10.512  0.0059 -0.1974  1.1516
  962MOL0     H26975   5.688  -0.349  10.557  0.3042 -0.6024 -1.6426
  962MOL0     H26976   5.763  -0.086  10.689  2.6777 -1.2629 -2.5331
  962MOL0     H26977   5.633  -0.192  10.753  0.6640 -0.7954  1.6889
  962MOL0     H26978   5.938  -0.245  10.707  0.3494 -2.2369 -1.1192
  962MOL0     H26979   5.819  -0.383  10.759 -0.5831  0.4053 -1.9743
  962MOL0     H26980   5.897  -0.142  10.921  2.9361 -0.5261 -0.7672
  962MOL0     H26981   5.784  -0.275  10.963 -0.1404 -1.4077 -1.1038
  962MOL0     H26982   6.194  -0.402  10.988 -0.0888  0.0839  2.0590
  962MOL0     H26983   5.842  -0.053  10.332  0.2816  0.1369 -0.3582
  962MOL0     H26984   5.888   0.173  10.311  0.5822  0.0167  2.7513
  963MOL0     O26985   7.598   4.340   4.538 -0.1324  0.6923  0.2431
  963MOL0     C26986   7.500   4.334   4.607 -0.5861  0.4005 -0.9407
  963MOL0     O26987   7.446   4.440   4.680  0.2721  0.3079 -0.3578
  963MOL0     C26988   7.506   4.560   4.677 -0.1452 -0.0594 -1.7528
  963MOL0     C26989   7.533   4.627   4.798 -0.0715  0.6569 -0.3659
  963MOL0     C26990   7.587   4.754   4.802  0.6518 -0.0415  0.6946
  963MOL0     C26991   7.616   4.815   4.679  0.2087 -0.2854  0.0889
  963MOL0     O26992   7.657   4.945   4.655 -0.4134 -0.7211 -0.5790
  963MOL0     C26993   7.610   5.043   4.762 -0.2862  0.2996 -0.0027
  963MOL0     C26994   7.639   5.185   4.728  0.2389 -0.2940  0.4229
  963MOL0     C26995   7.525   5.238   4.639  0.4572 -0.8277 -0.0267
  963MOL0     C26996   7.546   5.386   4.598  0.0296  0.3673  1.0321
  963MOL0     C26997   7.447   5.418   4.470  0.5788 -0.7305  0.3876
  963MOL0     C26998   7.438   5.318   4.354  0.3791  0.0122 -0.2164
  963MOL0     C26999   7.362   5.373   4.227  0.3296 -0.2964 -0.1804
  963MOL0     C27000   7.215   5.426   4.249 -0.4645  0.5455 -0.6788
  963MOL0     N27001   7.126   5.317   4.298 -0.3734  0.2392 -0.2073
  963MOL0     C27002   7.078   5.215   4.217 -0.0237  0.0167  0.3842
  963MOL0     C27003   7.004   5.139   4.300  0.2812  0.2996  0.4790
  963MOL0     C27004   6.913   5.026   4.259  0.3897 -0.6350 -0.2765
  963MOL0     C27005   6.768   5.025   4.321 -0.5441 -0.0865 -0.3177
  963MOL0     C27006   6.753   4.963   4.461 -0.5530 -0.3278 -0.0032
  963MOL0     C27007   6.609   4.912   4.499 -0.0951 -0.0082  0.7577
  963MOL0     O27008   6.589   4.789   4.424  0.5936  0.3940  0.6826
  963MOL0     C27009   6.480   4.715   4.449 -0.2614  0.8450  0.4019
  963MOL0     C27010   6.373   4.752   4.529 -0.1888 -0.7283 -0.0537
  963MOL0     C27011   6.264   4.665   4.540 -0.1727 -0.3044 -0.7257
  963MOL0     C27012   6.269   4.534   4.487 -0.4233  0.1503 -0.1641
  963MOL0     C27013   6.148   4.443   4.501  0.6683  0.4268 -0.4947
  963MOL0     O27014   6.048   4.485   4.587 -0.2651  0.5266  0.4546
  963MOL0     C27015   5.919   4.440   4.583 -0.1517 -0.8725 -0.0129
  963MOL0     C27016   5.839   4.451   4.702 -0.2523 -0.1214 -0.1030
  963MOL0     C27017   5.704   4.427   4.705  0.1851 -0.3847  0.0868
  963MOL0     C27018   5.641   4.368   4.594 -0.1748 -1.0195 -0.1920
  963MOL0     O27019   5.508   4.338   4.583  0.3978  0.0789  0.6962
  963MOL0     C27020   5.428   4.349   4.699  0.8049 -0.2864 -0.0173
  963MOL0     C27021   5.272   4.340   4.671 -0.7354  0.5874 -0.4594
  963MOL0     C27022   5.231   4.206   4.596  0.2619  0.4323 -0.1706
  963MOL0     C27023   5.081   4.179   4.599 -0.1568 -0.4312 -0.3125
  963MOL0     C27024   5.011   4.284   4.511  0.2841  0.2584  0.3581
  963MOL0     C27025   4.862   4.236   4.475 -0.1764  0.1063 -0.1925
  963MOL0     C27026   4.772   4.243   4.599 -0.8026  1.4075  0.8200
  963MOL0     C27027   4.628   4.213   4.551 -1.0999 -0.0240  0.0746
  963MOL0    Cl27028   4.558   4.368   4.502  0.2218 -0.3402 -0.1336
  963MOL0     C27029   5.719   4.347   4.478  0.1530  0.6397  0.7175
  963MOL0     C27030   5.864   4.372   4.474  1.4954  0.6080  0.3831
  963MOL0     O27031   6.149   4.339   4.439 -0.2065 -0.3315 -0.0413
  963MOL0     C27032   6.379   4.501   4.400 -0.3000  0.2510  0.0890
  963MOL0     C27033   6.477   4.596   4.377  0.2507  0.3836  0.1090
  963MOL0     N27034   6.992   5.191   4.424  0.0953 -0.0365  0.0324
  963MOL0     N27035   7.067   5.298   4.421  0.6158 -0.1030  0.3441
  963MOL0     C27036   7.593   4.755   4.561 -0.0524  0.3794 -0.3625
  963MOL0     C27037   7.537   4.627   4.556 -0.0019  0.4194 -0.4819
  963MOL0     C27038   7.440   4.199   4.634 -0.1733 -0.4146 -0.0887
  963MOL0     C27039   7.308   4.185   4.687  0.3021  0.0725 -0.0194
  963MOL0     C27040   7.250   4.054   4.702  0.4019 -1.4293 -0.1779
  963MOL0     C27041   7.317   3.940   4.667 -0.3740  0.1464  1.1488
  963MOL0     O27042   7.261   3.825   4.695  0.4411  0.0115  0.0783
  963MOL0     C27043   7.203   3.750   4.582  0.2899 -0.3791  0.5559
  963MOL0     C27044   7.288   3.717   4.453 -0.6759  0.2128  0.1572
  963MOL0     C27045   7.349   3.573   4.474 -0.2658 -0.7030 -0.4507
  963MOL0     C27046   7.442   3.527   4.358  0.0671  0.3678 -0.0662
  963MOL0     C27047   7.549   3.624   4.329 -0.6561  0.2874 -0.5736
  963MOL0     C27048   7.646   3.702   4.320 -0.0176 -1.1470  0.1231
  963MOL0     C27049   7.444   3.957   4.610  0.6599  0.4531 -0.0236
  963MOL0     C27050   7.499   4.085   4.594 -0.0508  0.2219  0.2269
  963MOL0     H27051   7.500   4.569   4.884 -0.1251 -0.6341 -1.2213
  963MOL0     H27052   7.591   4.812   4.894  0.3731  0.3023  0.4956
  963MOL0     H27053   7.672   5.032   4.852 -0.9649 -0.4633  0.3877
  963MOL0     H27054   7.504   5.029   4.783 -1.3584  1.5463 -3.8974
  963MOL0     H27055   7.738   5.201   4.683 -0.2449 -1.8848 -1.3046
  963MOL0     H27056   7.634   5.250   4.817 -0.6260 -0.4658  0.5100
  963MOL0     H27057   7.423   5.229   4.677  0.2257 -2.3673 -0.9241
  963MOL0     H27058   7.536   5.173   4.551 -1.5397  1.5507 -2.1867
  963MOL0     H27059   7.513   5.459   4.673 -1.0017  0.4361  0.5254
  963MOL0     H27060   7.654   5.397   4.580  0.0711  0.4554  1.3284
  963MOL0     H27061   7.478   5.513   4.424  2.0601  0.4795  3.5730
  963MOL0     H27062   7.344   5.432   4.502  0.5171  2.3853 -0.7985
  963MOL0     H27063   7.393   5.223   4.386 -0.7870  1.1448  1.6348
  963MOL0     H27064   7.536   5.309   4.307  0.9291  2.3538  0.3902
  963MOL0     H27065   7.416   5.454   4.177 -1.6048  1.9311  1.1351
  963MOL0     H27066   7.354   5.290   4.156  2.6620 -0.4394 -0.3622
  963MOL0     H27067   7.180   5.456   4.150 -1.6734 -0.2134 -0.5041
  963MOL0     H27068   7.213   5.506   4.323 -2.4026  0.6811 -0.8457
  963MOL0     H27069   7.102   5.183   4.116  6.5071 -3.7678  2.5209
  963MOL0     H27070   6.954   4.929   4.289 -2.4361 -1.8406 -0.0364
  963MOL0     H27071   6.891   5.041   4.153  1.3110  1.1404 -0.2642
  963MOL0     H27072   6.712   4.970   4.244  0.8540 -2.0465  0.0046
  963MOL0     H27073   6.715   5.120   4.328 -1.1033 -0.5303  3.3156
  963MOL0     H27074   6.822   4.881   4.482 -0.8898 -0.2484  1.5074
  963MOL0     H27075   6.775   5.034   4.541 -0.2567  0.6475 -0.9268
  963MOL0     H27076   6.540   4.990   4.465  2.5483  2.3217  0.4230
  963MOL0     H27077   6.600   4.895   4.607 -0.4986 -3.6949  0.2728
  963MOL0     H27078   6.383   4.851   4.572 -0.2926 -1.4432  1.6852
  963MOL0     H27079   6.173   4.692   4.592 -2.4176 -3.2781 -2.8083
  963MOL0     H27080   5.889   4.482   4.793  1.6235 -1.7787 -0.5022
  963MOL0     H27081   5.651   4.453   4.796 -2.1720  0.0328 -1.3318
  963MOL0     H27082   5.457   4.436   4.759  1.6577 -2.0760  2.3355
  963MOL0     H27083   5.445   4.264   4.766  0.0502  0.4092  1.0992
  963MOL0     H27084   5.234   4.429   4.619  1.8706  1.2438 -1.3890
  963MOL0     H27085   5.220   4.349   4.766  0.2211  0.7145  0.0678
  963MOL0     H27086   5.283   4.117   4.633 -0.7319  1.0537  3.0796
  963MOL0     H27087   5.244   4.217   4.488  1.4656 -2.4426 -0.4106
  963MOL0     H27088   5.079   4.081   4.550 -1.8515  0.2005 -1.6078
  963MOL0     H27089   5.037   4.164   4.698 -1.9229  0.2327 -0.9492
  963MOL0     H27090   5.068   4.304   4.421  1.7876  0.2425  1.2766
  963MOL0     H27091   5.010   4.379   4.564 -0.2589  0.5245 -0.1243
  963MOL0     H27092   4.869   4.132   4.443  0.1871  0.1456 -0.2370
  963MOL0     H27093   4.817   4.301   4.399  2.2874  1.3126 -0.7292
  963MOL0     H27094   4.785   4.168   4.677 -2.8025 -0.3504 -0.4317
  963MOL0     H27095   4.770   4.337   4.655  1.0858 -0.6844  4.8530
  963MOL0     H27096   4.581   4.170   4.640 -0.7379  0.5767  0.5578
  963MOL0     H27097   4.641   4.146   4.466  4.9794 -0.0555  0.6420
  963MOL0     H27098   5.665   4.304   4.394  2.1815 -2.1991  0.7545
  963MOL0     H27099   5.921   4.349   4.384 -0.1686 -2.9628  0.0736
  963MOL0     H27100   6.391   4.405   4.351  1.7364  0.1371  0.7214
  963MOL0     H27101   6.558   4.577   4.307  1.9527 -0.6979  2.2526
  963MOL0     H27102   7.611   4.811   4.470 -0.5056 -0.9922 -1.3212
  963MOL0     H27103   7.513   4.582   4.460  2.2631 -0.5584 -0.6653
  963MOL0     H27104   7.247   4.264   4.729 -1.0068 -1.8352  1.9222
  963MOL0     H27105   7.161   4.050   4.766  0.2129 -1.4344 -0.4405
  963MOL0     H27106   7.136   3.826   4.541  0.3511  0.9476  2.7483
  963MOL0     H27107   7.138   3.662   4.596  0.7130 -0.8920 -0.5551
  963MOL0     H27108   7.216   3.705   4.372 -1.0463  0.3541  0.4643
  963MOL0     H27109   7.362   3.795   4.431 -1.9837  0.7095 -2.8131
  963MOL0     H27110   7.266   3.502   4.480  1.0995 -2.4146 -0.8991
  963MOL0     H27111   7.412   3.581   4.563  0.3114 -0.7321 -0.8512
  963MOL0     H27112   7.484   3.437   4.404  2.9702  2.4409  1.6668
  963MOL0     H27113   7.380   3.502   4.271  1.6232  2.1335 -1.7763
  963MOL0     H27114   7.720   3.778   4.303 -0.9471 -0.0382  0.8083
  963MOL0     H27115   7.495   3.868   4.575 -2.0197 -1.3369  0.3056
  963MOL0     H27116   7.595   4.092   4.543  1.5351  0.1520  2.9957
  964MOL0     O27117   3.284  10.142  10.145 -0.2920  0.0351  0.4339
  964MOL0     C27118   3.324  10.027  10.117 -0.4613 -0.7442 -0.2848
  964MOL0     O27119   3.277   9.916  10.168  0.3026  0.3311  0.3732
  964MOL0     C27120   3.165   9.936  10.243  0.8029  0.5366  0.4963
  964MOL0     C27121   3.030   9.917  10.179  0.7841  0.9184  0.0772
  964MOL0     C27122   2.913   9.925  10.259  0.2171 -1.0341  0.4865
  964MOL0     C27123   2.918   9.935  10.398  0.3709 -0.6567 -0.0553
  964MOL0     O27124   2.813   9.934  10.483  0.1430 -0.5232 -0.7699
  964MOL0     C27125   2.694   9.863  10.440 -0.0237 -0.2551  0.4373
  964MOL0     C27126   2.598   9.843  10.556  0.7127 -0.3927  0.5251
  964MOL0     C27127   2.490   9.737  10.524  0.2705 -0.1596 -0.7125
  964MOL0     C27128   2.393   9.690  10.633 -0.7922 -1.5740  0.1393
  964MOL0     C27129   2.318   9.556  10.584 -0.6743  0.3450  0.1365
  964MOL0     C27130   2.241   9.478  10.697 -0.6543 -0.6200  1.3045
  964MOL0     C27131   2.155   9.361  10.640  0.1144  0.8511 -0.7163
  964MOL0     C27132   2.230   9.242  10.571 -0.9109 -0.6543  0.8289
  964MOL0     N27133   2.143   9.140  10.529  0.7456 -0.0462 -1.0920
  964MOL0     C27134   2.064   9.064  10.619 -0.6205 -0.7202  0.8619
  964MOL0     C27135   1.988   8.989  10.534 -0.7083  0.3464 -0.4524
  964MOL0     C27136   1.889   8.891  10.578 -0.1668  1.1396 -0.0181
  964MOL0     C27137   1.756   8.911  10.511 -1.1816 -0.5188  0.2655
  964MOL0     C27138   1.644   8.870  10.606  0.6166 -0.3093  0.7312
  964MOL0     C27139   1.507   8.863  10.530 -0.0389  0.2255  0.4386
  964MOL0     O27140   1.397   8.800  10.599 -0.0892  0.0766  0.8233
  964MOL0     C27141   1.278   8.789  10.534  0.1009 -0.8367  0.3106
  964MOL0     C27142   1.256   8.824  10.395 -0.5821 -0.0831  0.2421
  964MOL0     C27143   1.140   8.777  10.341 -0.1024  0.6532  1.3924
  964MOL0     C27144   1.040   8.711  10.413  0.6128 -0.0934 -0.6967
  964MOL0     C27145   0.910   8.666  10.349  0.4843 -0.4743  0.1715
  964MOL0     O27146   0.901   8.672  10.213  0.4984 -0.0706 -0.6711
  964MOL0     C27147   0.772   8.637  10.167 -0.2251  0.6013  0.1371
  964MOL0     C27148   0.769   8.534  10.066 -0.9139 -0.5908 -0.8339
  964MOL0     C27149   0.650   8.483  10.013 -0.9858 -0.2059  0.0322
  964MOL0     C27150   0.524   8.537  10.057 -0.5386 -0.4519  0.4591
  964MOL0     O27151   0.403   8.482   9.999 -1.2850  0.3034 -0.7176
  964MOL0     C27152   0.312   8.406  10.087 -0.4552  0.1046  0.6287
  964MOL0     C27153   0.159   8.450  10.061  0.0022  0.8146  0.5345
  964MOL0     C27154   0.073   8.360  10.156 -0.6197 -0.1667  0.3295
  964MOL0     C27155  -0.072   8.396  10.153  0.1315  0.1284  1.3945
  964MOL0     C27156  -0.159   8.316  10.248  0.4063 -1.0583  0.5282
  964MOL0     C27157  -0.301   8.367  10.236  0.6383 -0.1270 -0.1339
  964MOL0     C27158  -0.390   8.290  10.338  0.0484 -0.0904 -0.5714
  964MOL0     C27159  -0.538   8.329  10.350 -0.6472 -0.4803 -0.4112
  964MOL0    Cl27160  -0.635   8.264  10.208  0.4001 -0.0049 -0.3403
  964MOL0     C27161   0.527   8.641  10.150 -0.1672 -1.0168 -0.0996
  964MOL0     C27162   0.646   8.691  10.204 -0.4975 -0.3802 -0.1988
  964MOL0     O27163   0.825   8.627  10.425  0.3656  0.5157  0.6505
  964MOL0     C27164   1.060   8.696  10.549 -0.1278 -0.1238  0.8993
  964MOL0     C27165   1.178   8.721  10.609  0.2780  0.0971 -0.2997
  964MOL0     N27166   2.006   9.040  10.407  0.2667  0.2598  0.3107
  964MOL0     N27167   2.097   9.129  10.400  0.1652  0.9379 -0.3748
  964MOL0     C27168   3.042   9.943  10.457 -0.3267  0.3234  0.7802
  964MOL0     C27169   3.167   9.932  10.380  0.6046 -0.8142  0.2452
  964MOL0     C27170   3.457  10.024  10.052  0.2801  1.1351 -0.8255
  964MOL0     C27171   3.489  10.086   9.935  0.3291 -0.2362 -0.2814
  964MOL0     C27172   3.611  10.060   9.870  0.2104  0.4537 -0.4096
  964MOL0     C27173   3.706   9.970   9.934  0.6094 -0.3691  0.2059
  964MOL0     O27174   3.813   9.927   9.865  0.1376  0.8316  0.1565
  964MOL0     C27175   3.871   9.992   9.749  0.5796  0.9728  0.2851
  964MOL0     C27176   3.959  10.103   9.796 -0.5162  0.6898 -0.0741
  964MOL0     C27177   4.029  10.187   9.691 -0.2733 -0.8344 -0.4180
  964MOL0     C27178   4.135  10.122   9.607  0.4396 -1.0181  0.1176
  964MOL0     C27179   4.248  10.084   9.687 -0.3713  0.2516  0.4136
  964MOL0     C27180   4.352  10.060   9.736  0.3678 -1.0083  0.0011
  964MOL0     C27181   3.669   9.907  10.054 -0.8969  0.3377  0.4094
  964MOL0     C27182   3.544   9.930  10.114 -1.1265  0.2698  0.2276
  964MOL0     H27183   3.025   9.889  10.075 -0.6706  0.1864  0.3156
  964MOL0     H27184   2.813   9.914  10.220  0.5221  0.4115 -0.7866
  964MOL0     H27185   2.727   9.767  10.400 -1.1353 -0.8101  0.8105
  964MOL0     H27186   2.634   9.906  10.359 -0.6039 -0.5058  0.7259
  964MOL0     H27187   2.547   9.934  10.587 -1.8323 -2.3298  2.5161
  964MOL0     H27188   2.647   9.812  10.648  0.2189  1.2154  1.3540
  964MOL0     H27189   2.539   9.647  10.485  1.2159  0.2379 -0.4736
  964MOL0     H27190   2.431   9.775  10.440  0.3346  2.4318  0.3197
  964MOL0     H27191   2.461   9.684  10.719  0.3855  1.3863 -0.4481
  964MOL0     H27192   2.324   9.772  10.656 -1.3933 -2.1801  0.5514
  964MOL0     H27193   2.395   9.492  10.540 -0.8538  0.8093 -0.8799
  964MOL0     H27194   2.255   9.595  10.503  3.5184  3.2257 -2.1136
  964MOL0     H27195   2.185   9.556  10.749 -1.7465  1.0387 -2.0841
  964MOL0     H27196   2.311   9.448  10.776 -0.5606 -0.1275  1.4109
  964MOL0     H27197   2.100   9.332  10.729  1.0541  2.7657  0.5672
  964MOL0     H27198   2.070   9.386  10.575 -1.1618 -0.2698  0.4752
  964MOL0     H27199   2.308   9.206  10.638  1.1675 -2.1427 -2.1902
  964MOL0     H27200   2.275   9.278  10.478  0.9960  0.1112  1.9948
  964MOL0     H27201   2.084   9.058  10.725  2.0482 -1.2468  0.4100
  964MOL0     H27202   1.878   8.921  10.682  2.4468  1.5947  0.2106
  964MOL0     H27203   1.925   8.790  10.557 -3.4744 -0.2680  0.4859
  964MOL0     H27204   1.762   8.868  10.410  0.3773  1.6699 -0.6579
  964MOL0     H27205   1.735   9.018  10.497 -0.0497 -0.2680  0.4015
  964MOL0     H27206   1.653   8.770  10.650 -1.8844  0.5462  3.5041
  964MOL0     H27207   1.633   8.932  10.696 -1.2593 -0.8724  0.9407
  964MOL0     H27208   1.522   8.812  10.435 -1.0338 -3.4441  2.0536
  964MOL0     H27209   1.485   8.969  10.515  0.0326  0.0612 -0.8821
  964MOL0     H27210   1.338   8.871  10.340 -1.1811  0.4117 -0.2475
  964MOL0     H27211   1.136   8.763  10.233  1.0719 -0.4083  1.4673
  964MOL0     H27212   0.863   8.506  10.019 -0.7468 -0.4204 -0.6019
  964MOL0     H27213   0.655   8.402   9.941  1.2646 -2.1206  2.1399
  964MOL0     H27214   0.341   8.420  10.191 -0.9313  0.3797  0.7280
  964MOL0     H27215   0.328   8.299  10.070  2.2335  0.0204  2.9725
  964MOL0     H27216   0.124   8.416   9.963  0.5578 -0.0842  0.6323
  964MOL0     H27217   0.147   8.558  10.069 -0.1125  0.8757 -0.3947
  964MOL0     H27218   0.115   8.379  10.255 -0.3859  0.9514  0.0214
  964MOL0     H27219   0.092   8.255  10.132  1.0525  0.1939 -0.0149
  964MOL0     H27220  -0.073   8.502  10.181  2.1785  0.9084 -1.0061
  964MOL0     H27221  -0.114   8.397  10.052 -2.4953  4.3123  2.2911
  964MOL0     H27222  -0.123   8.327  10.351 -1.5911 -0.0651  1.1799
  964MOL0     H27223  -0.161   8.213  10.212 -2.2119 -0.9670  0.2174
  964MOL0     H27224  -0.343   8.347  10.137  3.6756 -0.3306 -1.5073
  964MOL0     H27225  -0.308   8.476  10.241 -1.5972 -0.1832 -0.9641
  964MOL0     H27226  -0.393   8.182  10.317 -0.7013 -0.6084  1.8524
  964MOL0     H27227  -0.346   8.312  10.436 -0.1548  2.6438 -1.0193
  964MOL0     H27228  -0.549   8.438  10.349  0.7936 -0.2633  1.4138
  964MOL0     H27229  -0.570   8.282  10.443 -3.3544  0.4431 -0.8068
  964MOL0     H27230   0.431   8.688  10.169 -0.6239 -1.8068 -0.4264
  964MOL0     H27231   0.665   8.759  10.286  1.8714 -2.0956  0.8185
  964MOL0     H27232   0.987   8.649  10.614  0.1604  0.3049  1.5399
  964MOL0     H27233   1.184   8.702  10.715 -4.2520  2.3613  0.5788
  964MOL0     H27234   3.045   9.951  10.565 -2.0601  0.3954  0.8471
  964MOL0     H27235   3.261   9.931  10.435  0.0561 -0.8563  1.2008
  964MOL0     H27236   3.420  10.151   9.883  2.8814  0.9643 -2.4160
  964MOL0     H27237   3.620  10.096   9.767 -1.8718  0.8365 -0.4920
  964MOL0     H27238   3.798  10.028   9.676  0.6790  1.8943  0.6220
  964MOL0     H27239   3.937   9.922   9.697 -1.6804 -0.2815 -1.0263
  964MOL0     H27240   3.917  10.177   9.865  0.2044  0.9072  0.1472
  964MOL0     H27241   4.039  10.056   9.855  1.8937  2.5059 -1.7442
  964MOL0     H27242   4.069  10.276   9.740 -2.8625  0.4634 -0.4834
  964MOL0     H27243   3.947  10.224   9.628 -1.3804 -0.6463  1.0808
  964MOL0     H27244   4.093  10.032   9.561 -0.7253 -1.4839  1.9801
  964MOL0     H27245   4.163  10.194   9.529 -1.3882  0.8231  1.0564
  964MOL0     H27246   4.439  10.047   9.797  1.2642  1.8155 -0.5208
  964MOL0     H27247   3.740   9.839  10.100  0.5862  0.7687 -1.1046
  964MOL0     H27248   3.517   9.869  10.200 -0.6292 -3.0396 -1.7867
  965MOL0     O27249  10.308   8.939  10.321 -0.6525  1.1745  0.1101
  965MOL0     C27250  10.336   9.026  10.404  1.5041  0.6508 -0.7009
  965MOL0     O27251  10.305   9.022  10.532  0.5019  0.0652 -0.0198
  965MOL0     C27252  10.214   8.930  10.565  0.6195  0.0126 -1.0569
  965MOL0     C27253  10.251   8.839  10.663 -0.5212  0.5178 -0.3229
  965MOL0     C27254  10.172   8.732  10.702  0.3579 -0.1625  0.6480
  965MOL0     C27255  10.052   8.703  10.635  0.0147 -0.2242  0.0397
  965MOL0     O27256   9.972   8.590  10.665  0.0791 -0.3888 -0.3308
  965MOL0     C27257   9.970   8.545  10.797  0.1236  0.2033 -0.5397
  965MOL0     C27258   9.845   8.457  10.829  0.4322 -0.5717 -0.0860
  965MOL0     C27259   9.718   8.542  10.810 -0.9689 -0.0102  0.2153
  965MOL0     C27260   9.585   8.482  10.855  0.3559 -0.1192  0.3446
  965MOL0     C27261   9.534   8.360  10.786  0.5064 -0.4106 -0.3052
  965MOL0     C27262   9.497   8.389  10.637 -0.7287  0.5197  0.2341
  965MOL0     C27263   9.389   8.293  10.579 -0.6379 -0.3819 -0.4180
  965MOL0     C27264   9.247   8.303  10.633  1.0195  0.0871 -0.3750
  965MOL0     N27265   9.195   8.432  10.674 -0.9315  0.4933 -0.6326
  965MOL0     C27266   9.202   8.541  10.595 -0.3692 -0.2879 -0.5479
  965MOL0     C27267   9.184   8.647  10.677 -1.0430 -1.0899 -1.1207
  965MOL0     C27268   9.179   8.786  10.626  0.3817 -0.4861  0.5844
  965MOL0     C27269   9.281   8.870  10.690 -0.4507 -0.3308 -0.0593
  965MOL0     C27270   9.423   8.822  10.652 -0.3583 -0.0484  0.1852
  965MOL0     C27271   9.539   8.885  10.741 -0.3922  0.0627  0.2494
  965MOL0     O27272   9.556   9.017  10.697  0.1246  0.2457 -0.3482
  965MOL0     C27273   9.678   9.080  10.721  0.4886  1.1283  0.1136
  965MOL0     C27274   9.696   9.197  10.647  0.0125 -0.0719 -0.6915
  965MOL0     C27275   9.825   9.253  10.651  1.4338 -0.2092 -0.2951
  965MOL0     C27276   9.938   9.199  10.715  0.3675 -0.1107  0.2957
  965MOL0     C27277  10.067   9.275  10.722 -0.4151  0.7237  0.6450
  965MOL0     O27278  10.164   9.214  10.796  0.9143  0.3862  0.5191
  965MOL0     C27279  10.293   9.272  10.811 -0.1862 -0.3427 -0.1060
  965MOL0     C27280  10.396   9.178  10.846 -0.0068  1.5518 -0.1093
  965MOL0     C27281  10.525   9.232  10.869 -0.5738  0.3594 -0.0595
  965MOL0     C27282  10.561   9.366  10.854 -0.1364 -0.1539 -0.4757
  965MOL0     O27283  10.696   9.399  10.876 -0.0814  0.0736  0.4772
  965MOL0     C27284  10.763   9.495  10.788  0.5080 -0.1871 -0.0224
  965MOL0     C27285  10.914   9.510  10.804 -0.2788 -0.2799 -0.5879
  965MOL0     C27286  10.928   9.593  10.939  0.1461  0.0107  0.2706
  965MOL0     C27287  11.073   9.598  10.985  0.2848 -1.2330  0.1652
  965MOL0     C27288  11.119   9.456  11.039  0.6799 -0.0405  0.6321
  965MOL0     C27289  11.211   9.460  11.157  0.1116 -0.9751 -0.6419
  965MOL0     C27290  11.234   9.323  11.230  0.1349  0.4157  0.2159
  965MOL0     C27291  11.302   9.218  11.144  0.4843  0.7298 -0.7865
  965MOL0    Cl27292  11.459   9.271  11.121  0.0586  0.3078  0.3693
  965MOL0     C27293  10.461   9.455  10.820 -0.0401  0.0060  0.4486
  965MOL0     C27294  10.328   9.409  10.803 -0.1325 -0.1173 -0.2336
  965MOL0     O27295  10.082   9.378  10.655  0.8132  0.4907 -0.3346
  965MOL0     C27296   9.916   9.086  10.797 -0.1163 -0.2815 -0.1633
  965MOL0     C27297   9.786   9.025  10.796  0.1974 -0.4611 -0.1027
  965MOL0     N27298   9.193   8.606  10.805  0.2350 -0.4106 -0.1362
  965MOL0     N27299   9.186   8.478  10.802  0.3393  0.6118  0.6590
  965MOL0     C27300  10.007   8.798  10.545 -0.0885 -0.9054  0.2623
  965MOL0     C27301  10.084   8.915  10.510  0.0016  0.6541 -0.6589
  965MOL0     C27302  10.431   9.131  10.365 -0.9563  0.0666 -0.1264
  965MOL0     C27303  10.507   9.114  10.242 -0.3892  0.3251  0.3443
  965MOL0     C27304  10.594   9.216  10.205  0.4472 -0.5045 -0.2761
  965MOL0     C27305  10.605   9.341  10.266 -0.5364 -0.5458  0.5664
  965MOL0     O27306  10.697   9.444  10.240  0.5872  0.4272  0.1695
  965MOL0     C27307  10.708   9.556  10.331 -0.8711  0.6042 -0.7006
  965MOL0     C27308  10.810   9.639  10.258 -0.2125 -0.4144  0.4718
  965MOL0     C27309  10.865   9.764  10.348 -0.3492  0.0062 -0.0060
  965MOL0     C27310  11.018   9.757  10.367 -0.1587  0.0625 -0.1373
  965MOL0     C27311  11.091   9.772  10.240 -0.0603 -0.2795  0.5818
  965MOL0     C27312  11.144   9.782  10.125 -0.0504  0.2600 -0.6668
  965MOL0     C27313  10.532   9.350  10.384  0.4522  0.6203  0.2893
  965MOL0     C27314  10.453   9.245  10.438  0.7168  0.5577 -0.4845
  965MOL0     H27315  10.343   8.846  10.719  2.0331 -3.7563 -3.3775
  965MOL0     H27316  10.209   8.669  10.782 -2.3734 -2.0571  0.5376
  965MOL0     H27317   9.969   8.628  10.869 -0.9796 -0.9180  0.7964
  965MOL0     H27318  10.059   8.485  10.818  0.5285  1.8042  2.9329
  965MOL0     H27319   9.855   8.421  10.932  0.4287 -2.7305 -0.7890
  965MOL0     H27320   9.846   8.369  10.765  1.6019  0.0035 -0.8974
  965MOL0     H27321   9.711   8.560  10.703  4.2436 -3.0124 -0.9609
  965MOL0     H27322   9.731   8.632  10.872 -1.2334 -0.5485  1.0690
  965MOL0     H27323   9.597   8.458  10.961 -1.2030 -0.7512  0.4004
  965MOL0     H27324   9.507   8.555  10.835 -2.3539 -2.9365 -0.1923
  965MOL0     H27325   9.452   8.322  10.847 -0.8997  0.9535 -1.2477
  965MOL0     H27326   9.616   8.289  10.798 -0.1644 -1.4378 -1.5308
  965MOL0     H27327   9.590   8.370  10.581 -1.0051 -0.6306  0.1326
  965MOL0     H27328   9.483   8.494  10.612 -1.7258  0.4059  0.2916
  965MOL0     H27329   9.374   8.320  10.475 -0.7568  0.0323 -0.2955
  965MOL0     H27330   9.416   8.187  10.586 -0.8954 -0.4735 -0.8209
  965MOL0     H27331   9.258   8.247  10.726  1.9650  1.1980  0.2037
  965MOL0     H27332   9.174   8.257  10.565 -1.0656  0.6289  1.3742
  965MOL0     H27333   9.207   8.541  10.487 -2.3772  0.1891 -0.6718
  965MOL0     H27334   9.075   8.811  10.648 -0.8194 -3.9273 -0.4751
  965MOL0     H27335   9.193   8.784  10.517  1.2026  0.2626  0.6679
  965MOL0     H27336   9.272   8.861  10.799  0.4232 -2.1350 -0.1067
  965MOL0     H27337   9.264   8.976  10.667  1.6427  0.4277  1.5902
  965MOL0     H27338   9.421   8.713  10.662 -1.5064  0.1315  2.5633
  965MOL0     H27339   9.447   8.848  10.548  2.8254 -0.7666  0.6273
  965MOL0     H27340   9.624   8.819  10.723 -0.7630 -0.2199 -0.5212
  965MOL0     H27341   9.508   8.877  10.846 -0.3104  0.9544  0.3464
  965MOL0     H27342   9.613   9.245  10.596 -0.2661 -0.7492 -0.8902
  965MOL0     H27343   9.848   9.341  10.591 -0.5764  0.0567 -0.7288
  965MOL0     H27344  10.379   9.070  10.849  1.5261  1.1835 -2.4248
  965MOL0     H27345  10.609   9.174  10.907  0.5498  2.2950  0.5942
  965MOL0     H27346  10.719   9.593  10.812  0.2731 -0.9710  3.2560
  965MOL0     H27347  10.734   9.467  10.687 -3.6315  0.4259  0.8070
  965MOL0     H27348  10.956   9.543  10.709  1.8955 -1.2457 -0.0400
  965MOL0     H27349  10.955   9.410  10.820  0.6597  0.1949  0.0725
  965MOL0     H27350  10.862   9.556  11.018  0.6150 -0.5530  0.4056
  965MOL0     H27351  10.907   9.699  10.922  0.0624  0.1088  0.9335
  965MOL0     H27352  11.139   9.615  10.899 -1.5968  1.8861 -0.8527
  965MOL0     H27353  11.083   9.675  11.062 -1.0973  0.0371 -0.8527
  965MOL0     H27354  11.160   9.396  10.957 -0.3131  1.3689 -0.9672
  965MOL0     H27355  11.026   9.408  11.068  0.9412  0.6345  2.7200
  965MOL0     H27356  11.178   9.532  11.232 -3.3392 -0.3402 -2.5349
  965MOL0     H27357  11.312   9.489  11.126  1.6754 -3.4712  1.6587
  965MOL0     H27358  11.297   9.348  11.316  3.4603  2.0885 -2.4946
  965MOL0     H27359  11.139   9.279  11.264  0.8738 -1.2699  0.1802
  965MOL0     H27360  11.251   9.206  11.049 -0.2519 -3.5858 -0.0806
  965MOL0     H27361  11.302   9.125  11.202  1.2712 -0.0162 -1.9420
  965MOL0     H27362  10.481   9.561  10.823  0.4089 -0.0660  0.2405
  965MOL0     H27363  10.244   9.477  10.788 -0.5451 -0.7896 -1.0373
  965MOL0     H27364   9.997   9.048  10.859 -1.2891 -0.6085  1.2251
  965MOL0     H27365   9.781   8.929  10.847  0.7063 -0.0959  0.6643
  965MOL0     H27366   9.913   8.784  10.493  0.8438 -1.8172 -1.2418
  965MOL0     H27367  10.054   8.989  10.436  1.7171  1.1721 -0.8957
  965MOL0     H27368  10.502   9.028  10.176  0.9072 -1.1927  2.1225
  965MOL0     H27369  10.647   9.195  10.113 -2.2242  1.9128 -2.5631
  965MOL0     H27370  10.748   9.533  10.430  1.0587 -0.3522 -1.6441
  965MOL0     H27371  10.608   9.598  10.339 -1.1061  0.2840 -1.7517
  965MOL0     H27372  10.894   9.585  10.214  1.1621  0.2145  2.1704
  965MOL0     H27373  10.759   9.677  10.170  3.0744  0.7672 -1.1100
  965MOL0     H27374  10.826   9.760  10.450 -0.2520  1.5472  0.1282
  965MOL0     H27375  10.844   9.865  10.310  3.8363  2.5513  3.5143
  965MOL0     H27376  11.055   9.827  10.442  1.2433 -2.0375  1.2315
  965MOL0     H27377  11.038   9.658  10.409  3.7713  0.1532 -1.3853
  965MOL0     H27378  11.181   9.790  10.025  0.5468  1.0157 -0.3939
  965MOL0     H27379  10.530   9.436  10.450 -0.8171  1.2060 -0.4812
  965MOL0     H27380  10.409   9.258  10.536  2.3494  0.2052  0.3302
  966MOL0     O27381   6.764  10.394   6.805  0.2479  0.1479  0.1664
  966MOL0     C27382   6.778  10.388   6.683 -0.4975  0.1663 -0.0280
  966MOL0     O27383   6.674  10.378   6.594  0.3832  0.5075  0.8166
  966MOL0     C27384   6.544  10.410   6.629  0.6061 -1.2211  0.8205
  966MOL0     C27385   6.516  10.509   6.726  0.3474 -0.3779  0.4133
  966MOL0     C27386   6.391  10.541   6.756 -0.0195 -0.4284 -0.2988
  966MOL0     C27387   6.288  10.491   6.675 -0.5121  0.5740  0.7433
  966MOL0     O27388   6.168  10.533   6.730  0.0774 -0.0949 -0.5124
  966MOL0     C27389   6.060  10.447   6.700  0.1890 -0.3207  0.1497
  966MOL0     C27390   5.931  10.512   6.773 -0.0690  0.1465 -1.1672
  966MOL0     C27391   5.801  10.485   6.690 -0.4572  0.3181  0.3144
  966MOL0     C27392   5.693  10.548   6.773 -0.3266  0.6097 -0.6032
  966MOL0     C27393   5.550  10.531   6.721  0.9892  0.4189  0.0129
  966MOL0     C27394   5.474  10.419   6.802 -0.2468  0.0639  0.6788
  966MOL0     C27395   5.349  10.365   6.725  0.0852 -0.6394 -0.7829
  966MOL0     C27396   5.242  10.487   6.714 -0.5107  1.2392  0.1931
  966MOL0     N27397   5.117  10.454   6.645 -0.4864 -0.3108 -0.0368
  966MOL0     C27398   5.054  10.335   6.647  0.6058 -0.4442 -0.8791
  966MOL0     C27399   4.941  10.356   6.584  0.7028  0.5934  0.1711
  966MOL0     C27400   4.832  10.265   6.543 -0.2578  0.6524  0.3392
  966MOL0     C27401   4.725  10.247   6.646 -0.0669  0.1432 -0.1070
  966MOL0     C27402   4.630  10.359   6.637 -0.0041  1.2195 -0.5140
  966MOL0     C27403   4.496  10.322   6.698 -0.4286  0.9764 -0.3910
  966MOL0     O27404   4.424  10.226   6.626  0.6894  1.1420 -0.3741
  966MOL0     C27405   4.288  10.207   6.658  0.2406  1.1635 -0.0448
  966MOL0     C27406   4.232  10.075   6.625 -0.1464 -0.1702  0.1151
  966MOL0     C27407   4.105  10.043   6.658 -0.2438 -0.2609  0.7625
  966MOL0     C27408   4.021  10.131   6.732  0.1190 -0.1434  0.7881
  966MOL0     C27409   3.895  10.077   6.773  0.2003  0.2211  0.1497
  966MOL0     O27410   3.846   9.964   6.713  0.0260  0.1269  0.2753
  966MOL0     C27411   3.729   9.913   6.768  0.2381  0.5620 -0.7955
  966MOL0     C27412   3.624   9.876   6.688  0.2645 -0.3580  0.3902
  966MOL0     C27413   3.507   9.829   6.745  0.2513 -0.8200 -0.0073
  966MOL0     C27414   3.500   9.811   6.891 -0.3865  0.6985  0.0642
  966MOL0     O27415   3.395   9.753   6.961 -0.5694  0.8391  0.5760
  966MOL0     C27416   3.269   9.726   6.902  0.5681 -0.8511  0.8380
  966MOL0     C27417   3.244   9.586   6.848 -0.6081  0.2381  0.4846
  966MOL0     C27418   3.096   9.561   6.808  0.2295  0.7978 -1.0541
  966MOL0     C27419   3.067   9.423   6.745  0.9996  0.0046  0.0417
  966MOL0     C27420   2.929   9.408   6.669  0.6292  0.0873 -0.3911
  966MOL0     C27421   2.817   9.436   6.757 -0.1936 -0.4343 -0.2282
  966MOL0     C27422   2.813   9.369   6.893  0.3881 -0.7061  0.1826
  966MOL0     C27423   2.804   9.208   6.892 -0.0161 -0.2718  0.2131
  966MOL0    Cl27424   2.963   9.125   6.881  0.0475 -0.0771 -0.1321
  966MOL0     C27425   3.611   9.846   6.969  0.5218  0.1697 -0.5362
  966MOL0     C27426   3.722   9.893   6.909 -0.2604  0.6421  1.1009
  966MOL0     O27427   3.828  10.154   6.842 -0.1333 -0.2692  0.0407
  966MOL0     C27428   4.072  10.247   6.774 -0.0911 -1.1222 -0.5123
  966MOL0     C27429   4.209  10.277   6.746  0.9729 -0.2453 -0.4343
  966MOL0     N27430   4.925  10.488   6.555 -0.0727 -0.4646 -0.9694
  966MOL0     N27431   5.042  10.551   6.583  0.2178  0.6450  0.7187
  966MOL0     C27432   6.305  10.403   6.563 -0.3624 -0.5055 -0.2452
  966MOL0     C27433   6.438  10.364   6.554 -0.5818  1.1794  1.1434
  966MOL0     C27434   6.922  10.375   6.643  0.6282  0.0374 -0.0032
  966MOL0     C27435   6.959  10.316   6.523 -0.4564  0.6917  0.3617
  966MOL0     C27436   7.091  10.309   6.481 -0.8863 -0.5411 -0.3318
  966MOL0     C27437   7.192  10.351   6.563  0.0971  0.4094  0.3965
  966MOL0     O27438   7.326  10.342   6.522  0.6194 -0.5960  0.4904
  966MOL0     C27439   7.380  10.213   6.471  1.2149 -0.3239  0.4269
  966MOL0     C27440   7.419  10.213   6.330 -0.6502  0.3133  0.0529
  966MOL0     C27441   7.531  10.315   6.301 -0.1343  0.4076 -0.7611
  966MOL0     C27442   7.590  10.312   6.158 -0.0222 -0.0737  0.2929
  966MOL0     C27443   7.731  10.347   6.168  0.2188 -0.0985  0.2982
  966MOL0     C27444   7.840  10.390   6.181 -0.6946  0.3535  0.2187
  966MOL0     C27445   7.163  10.417   6.679 -0.4111 -1.2406 -0.4333
  966MOL0     C27446   7.031  10.430   6.716  0.5005  1.5343 -0.3935
  966MOL0     H27447   6.601  10.555   6.776 -0.9384 -1.1140  3.5311
  966MOL0     H27448   6.360  10.611   6.833  1.8216  1.4605 -1.1527
  966MOL0     H27449   6.087  10.351   6.744 -0.9577 -0.8014 -0.1620
  966MOL0     H27450   6.041  10.443   6.592 -2.0124 -1.5133  0.5306
  966MOL0     H27451   5.929  10.619   6.795  1.3116 -0.1214  0.4631
  966MOL0     H27452   5.925  10.471   6.874  3.5649 -1.2997 -1.3632
  966MOL0     H27453   5.787  10.378   6.672 -2.0434  0.7520 -1.2793
  966MOL0     H27454   5.808  10.528   6.590  0.4960 -2.3595 -0.8501
  966MOL0     H27455   5.694  10.524   6.880  1.0328 -1.0976 -0.9535
  966MOL0     H27456   5.706  10.656   6.762  1.0706  0.5113 -0.1494
  966MOL0     H27457   5.548  10.502   6.616  0.6872 -2.7120  0.7940
  966MOL0     H27458   5.493  10.623   6.734  4.2439  2.3004  2.7612
  966MOL0     H27459   5.455  10.445   6.906 -2.1860 -2.3189  1.0207
  966MOL0     H27460   5.547  10.338   6.814  0.7302  0.5665 -1.3890
  966MOL0     H27461   5.390  10.330   6.630  1.9990 -2.5608  0.6579
  966MOL0     H27462   5.305  10.277   6.773 -1.0971  0.5254  0.3591
  966MOL0     H27463   5.281  10.572   6.658 -0.3610 -0.3255 -2.2335
  966MOL0     H27464   5.208  10.514   6.814 -0.1639  1.0890  0.3487
  966MOL0     H27465   5.097  10.245   6.690  0.4588 -0.4350 -0.7137
  966MOL0     H27466   4.885  10.174   6.514 -1.1937 -0.9561  3.2192
  966MOL0     H27467   4.783  10.307   6.454  0.0715  0.0265 -0.1402
  966MOL0     H27468   4.771  10.242   6.745  1.1826  1.1137 -0.6153
  966MOL0     H27469   4.667  10.160   6.615 -2.1895  0.8198  1.6975
  966MOL0     H27470   4.672  10.438   6.699 -1.3070  0.9452  0.7850
  966MOL0     H27471   4.611  10.386   6.533  0.6942  0.1002 -0.9440
  966MOL0     H27472   4.431  10.410   6.697 -0.7119  0.7783 -1.8980
  966MOL0     H27473   4.510  10.291   6.802 -1.6555 -1.2638 -0.8338
  966MOL0     H27474   4.280  10.006   6.556 -1.6492 -1.9422  0.7351
  966MOL0     H27475   4.073   9.948   6.616 -1.8474  1.2996 -1.8155
  966MOL0     H27476   3.634   9.878   6.580 -1.5912  1.3788  0.1946
  966MOL0     H27477   3.420   9.809   6.682 -0.4220  1.2353  0.1981
  966MOL0     H27478   3.250   9.783   6.810  1.7149 -1.4289  0.2101
  966MOL0     H27479   3.192   9.749   6.975 -0.4963 -0.7577 -0.2782
  966MOL0     H27480   3.279   9.516   6.925  1.1026  0.7271  0.1690
  966MOL0     H27481   3.302   9.568   6.757 -2.2242  3.2412 -1.2858
  966MOL0     H27482   3.055   9.642   6.747 -0.9303  0.1415 -1.1852
  966MOL0     H27483   3.042   9.558   6.903  0.9663  0.8286 -0.6297
  966MOL0     H27484   3.151   9.410   6.676  2.2836  0.2059  1.5244
  966MOL0     H27485   3.080   9.356   6.830  0.4573 -2.9146 -2.0210
  966MOL0     H27486   2.925   9.303   6.640  4.3100 -0.4481  0.6043
  966MOL0     H27487   2.944   9.472   6.582 -2.0005  2.3060  0.6178
  966MOL0     H27488   2.721   9.413   6.709  0.4944  0.1838 -1.9853
  966MOL0     H27489   2.820   9.545   6.772  2.2889  0.0844 -3.4404
  966MOL0     H27490   2.897   9.402   6.955  0.7340 -0.3103 -0.4903
  966MOL0     H27491   2.720   9.413   6.929 -1.2952 -0.5405 -3.8561
  966MOL0     H27492   2.735   9.172   6.815  1.2063 -1.0713 -0.5551
  966MOL0     H27493   2.768   9.177   6.991  3.1454 -2.9346  0.7164
  966MOL0     H27494   3.619   9.827   7.076  3.1343  0.4154 -0.6230
  966MOL0     H27495   3.791   9.930   6.985 -0.7814  0.2645  1.7748
  966MOL0     H27496   4.020  10.313   6.843  0.9342  0.2293 -0.9963
  966MOL0     H27497   4.257  10.355   6.803  1.0837 -2.3901  2.6965
  966MOL0     H27498   6.217  10.381   6.504 -1.6200 -0.4470  1.5497
  966MOL0     H27499   6.473  10.299   6.475  0.5094  1.1221  1.6539
  966MOL0     H27500   6.884  10.274   6.457 -0.2124  1.6557 -0.5513
  966MOL0     H27501   7.128  10.253   6.396  1.4571  0.4555 -0.0255
  966MOL0     H27502   7.293  10.147   6.471  0.3456  0.6134 -2.6933
  966MOL0     H27503   7.465  10.182   6.533  3.6160  1.2417 -1.8251
  966MOL0     H27504   7.451  10.115   6.294 -0.1891  0.7268 -0.6638
  966MOL0     H27505   7.335  10.229   6.262 -1.1982  0.9992  0.8614
  966MOL0     H27506   7.614  10.293   6.369 -1.7042  0.5359  1.2833
  966MOL0     H27507   7.506  10.416   6.336  1.3699  1.3124 -2.1060
  966MOL0     H27508   7.577  10.209   6.124 -1.0719  0.3738 -0.7366
  966MOL0     H27509   7.549  10.384   6.087  0.1648  0.2593  0.5199
  966MOL0     H27510   7.941  10.415   6.209 -0.4256  0.1782 -0.5820
  966MOL0     H27511   7.235  10.471   6.739 -0.2178 -1.2350 -0.6695
  966MOL0     H27512   7.014  10.492   6.804  0.8171  2.2308 -0.8131
  967MOL0     O27513   5.353   4.531   9.718 -0.5918 -0.5705 -0.3060
  967MOL0     C27514   5.366   4.427   9.781  0.2969  0.4045 -0.2140
  967MOL0     O27515   5.282   4.364   9.865  0.0968 -0.0530 -0.0788
  967MOL0     C27516   5.161   4.423   9.878  0.5581 -0.0108 -0.8938
  967MOL0     C27517   5.061   4.432   9.778 -0.7726  0.1585 -0.1148
  967MOL0     C27518   4.955   4.518   9.788 -0.2504 -1.3777  0.6695
  967MOL0     C27519   4.916   4.566   9.913 -0.7149  0.0398  0.3066
  967MOL0     O27520   4.798   4.618   9.950 -0.2282 -0.3412 -0.1517
  967MOL0     C27521   4.722   4.669   9.839  0.9195 -0.1882 -0.2988
  967MOL0     C27522   4.589   4.722   9.885  0.0840  0.5472  0.1548
  967MOL0     C27523   4.524   4.784   9.772  0.1748  0.4064 -0.0959
  967MOL0     C27524   4.521   4.935   9.768  0.7999 -0.4527  0.2843
  967MOL0     C27525   4.417   4.990   9.666  0.4990  0.0531 -0.6819
  967MOL0     C27526   4.486   5.039   9.540 -0.7378 -0.7401 -0.1476
  967MOL0     C27527   4.566   5.171   9.554  0.7163 -0.2855  0.4299
  967MOL0     C27528   4.476   5.299   9.573 -0.7732 -0.5588 -0.1370
  967MOL0     N27529   4.381   5.317   9.459 -0.2178  0.0371  0.1756
  967MOL0     C27530   4.415   5.357   9.335 -0.5523 -0.4482 -0.5291
  967MOL0     C27531   4.319   5.317   9.264 -0.2652  0.7026  0.2534
  967MOL0     C27532   4.321   5.324   9.110  0.8751  0.0008 -0.2563
  967MOL0     C27533   4.224   5.421   9.050 -0.5558  0.2048  0.1245
  967MOL0     C27534   4.226   5.564   9.104  0.0935 -0.2962  0.3849
  967MOL0     C27535   4.088   5.640   9.069  0.2166  0.0773 -0.4478
  967MOL0     O27536   4.102   5.681   8.934  0.0131  0.1390  0.1856
  967MOL0     C27537   3.991   5.671   8.846  1.1965  0.3181 -0.1461
  967MOL0     C27538   3.902   5.561   8.845 -0.2698 -0.2978 -0.2708
  967MOL0     C27539   3.815   5.541   8.738 -0.3243  0.3469  0.0325
  967MOL0     C27540   3.806   5.643   8.635  0.5103  1.2341  0.7637
  967MOL0     C27541   3.696   5.625   8.534 -0.0461 -0.1998  0.0528
  967MOL0     O27542   3.643   5.744   8.483 -0.5020 -0.3058  0.1512
  967MOL0     C27543   3.528   5.738   8.411  0.3921 -0.3231 -0.2072
  967MOL0     C27544   3.521   5.678   8.284 -0.2187  0.3303 -0.8493
  967MOL0     C27545   3.394   5.672   8.224 -0.3061  1.0789 -0.2885
  967MOL0     C27546   3.274   5.713   8.281 -0.6428  0.1132  0.4620
  967MOL0     O27547   3.160   5.687   8.213  0.0838  0.0557  0.4524
  967MOL0     C27548   3.055   5.777   8.230  0.0184 -0.5786  0.2979
  967MOL0     C27549   2.969   5.787   8.114  0.2588  0.7984  0.3558
  967MOL0     C27550   3.013   5.903   8.019  0.2299 -0.0783 -0.5316
  967MOL0     C27551   3.141   5.889   7.941  0.6544 -0.1418  0.5914
  967MOL0     C27552   3.143   5.776   7.835 -0.0282 -0.1196  0.8937
  967MOL0     C27553   3.267   5.794   7.750 -0.7292  0.2149 -0.1931
  967MOL0     C27554   3.308   5.671   7.676  0.0041 -0.3411 -0.8468
  967MOL0     C27555   3.292   5.689   7.533  0.4036  0.1115  0.5938
  967MOL0    Cl27556   3.404   5.821   7.473 -0.4079  0.1118  0.5032
  967MOL0     C27557   3.285   5.764   8.410  0.0177  0.0183 -0.1123
  967MOL0     C27558   3.415   5.783   8.479  1.3445 -0.0390  0.9715
  967MOL0     O27559   3.651   5.509   8.516  0.9742 -0.3326 -0.2590
  967MOL0     C27560   3.899   5.748   8.633  0.1597  0.1046  0.3068
  967MOL0     C27561   4.001   5.751   8.733  0.2697  0.3028 -0.5564
  967MOL0     N27562   4.217   5.277   9.338  0.4102 -0.3321 -0.5057
  967MOL0     N27563   4.256   5.270   9.454 -0.4820  0.0265  0.0411
  967MOL0     C27564   5.004   4.557  10.016 -0.3988 -0.7219  0.2755
  967MOL0     C27565   5.124   4.490   9.999  0.0656  0.8790 -0.0289
  967MOL0     C27566   5.499   4.356   9.763  0.3106  0.1819  1.4408
  967MOL0     C27567   5.520   4.223   9.805 -0.2333  0.2747 -0.9539
  967MOL0     C27568   5.650   4.167   9.788  0.3359  0.7258 -0.2994
  967MOL0     C27569   5.752   4.221   9.709 -0.2881  0.8257 -0.0757
  967MOL0     O27570   5.879   4.170   9.700 -0.2517  0.2233 -0.2294
  967MOL0     C27571   5.986   4.250   9.744 -0.3419 -0.9393  0.0982
  967MOL0     C27572   6.049   4.147   9.840 -0.5875  0.2927 -0.7525
  967MOL0     C27573   6.159   4.067   9.775  1.1733  0.2857  0.1678
  967MOL0     C27574   6.242   3.989   9.872 -0.0216  0.3684 -0.1902
  967MOL0     C27575   6.386   4.015   9.874 -0.7125 -1.1968  0.4808
  967MOL0     C27576   6.509   4.021   9.842 -0.3722 -0.4029 -0.8845
  967MOL0     C27577   5.725   4.343   9.654  0.3494 -0.0770 -0.0672
  967MOL0     C27578   5.602   4.407   9.677  0.0272 -0.7694 -0.4823
  967MOL0     H27579   5.078   4.383   9.682  2.2929  0.5330  0.1287
  967MOL0     H27580   4.895   4.534   9.699  2.9906  1.4024 -1.2850
  967MOL0     H27581   4.694   4.595   9.764 -0.7033  1.3931 -1.3321
  967MOL0     H27582   4.772   4.747   9.780 -0.4193 -0.1258 -1.3861
  967MOL0     H27583   4.609   4.793   9.965 -0.6537  0.2092  0.6544
  967MOL0     H27584   4.523   4.645   9.927 -0.1023  0.0448 -1.0137
  967MOL0     H27585   4.422   4.750   9.794 -0.1704  2.0057  0.8788
  967MOL0     H27586   4.548   4.743   9.673  1.7973  0.6832  0.1551
  967MOL0     H27587   4.508   4.980   9.867 -1.2898  1.7880 -0.8706
  967MOL0     H27588   4.619   4.974   9.742 -0.0274 -1.2193 -5.1850
  967MOL0     H27589   4.367   5.078   9.710  1.0471 -1.4434  3.3684
  967MOL0     H27590   4.340   4.918   9.638 -0.0121  1.1140 -2.1399
  967MOL0     H27591   4.411   5.066   9.466 -0.2408  0.5865 -0.2010
  967MOL0     H27592   4.558   4.966   9.503 -1.9047 -1.4106 -1.1636
  967MOL0     H27593   4.651   5.167   9.621  2.7721  1.2664 -1.9145
  967MOL0     H27594   4.616   5.185   9.458  1.5673  3.9646  1.3141
  967MOL0     H27595   4.541   5.387   9.585  0.2666 -1.5083  1.6134
  967MOL0     H27596   4.419   5.275   9.664 -0.5921  2.2268  0.8145
  967MOL0     H27597   4.505   5.408   9.303 -0.6718 -1.0991 -1.9507
  967MOL0     H27598   4.291   5.232   9.060 -0.3357  0.4703 -0.4591
  967MOL0     H27599   4.423   5.343   9.075  1.1434  1.3961  1.1463
  967MOL0     H27600   4.124   5.378   9.053 -1.3319  2.0089  1.2823
  967MOL0     H27601   4.249   5.416   8.943  0.3660 -0.9030  0.3725
  967MOL0     H27602   4.231   5.560   9.213  3.1350 -1.7712  0.2852
  967MOL0     H27603   4.313   5.618   9.066 -0.3024  1.0458  1.2777
  967MOL0     H27604   4.070   5.731   9.128  2.2534  1.4742 -1.8288
  967MOL0     H27605   4.009   5.569   9.091  0.2534  0.5233  1.2176
  967MOL0     H27606   3.904   5.492   8.930  1.0995  1.1086  0.8888
  967MOL0     H27607   3.750   5.454   8.731 -1.2190  1.1115 -2.2877
  967MOL0     H27608   3.611   5.640   8.236  1.3290  2.0415  0.5063
  967MOL0     H27609   3.387   5.633   8.123  1.4796  0.6422 -0.2889
  967MOL0     H27610   3.089   5.876   8.261  0.4219 -0.6972  0.2422
  967MOL0     H27611   3.003   5.731   8.315 -1.8077 -0.5527 -0.7593
  967MOL0     H27612   2.869   5.800   8.155 -0.8783 -1.9100 -1.3699
  967MOL0     H27613   2.976   5.693   8.060  1.3041  1.4615 -0.7149
  967MOL0     H27614   3.019   5.988   8.088  0.6331 -1.9931  1.9307
  967MOL0     H27615   2.929   5.913   7.949 -0.2730  1.3626  0.2282
  967MOL0     H27616   3.155   5.986   7.891  1.1656 -2.1131 -3.5547
  967MOL0     H27617   3.226   5.868   8.006  0.7672 -2.7917 -0.2842
  967MOL0     H27618   3.050   5.778   7.778 -0.8696 -0.0144  2.2358
  967MOL0     H27619   3.136   5.674   7.872 -3.0765 -0.7582 -1.0568
  967MOL0     H27620   3.351   5.806   7.819 -0.6416 -1.1823 -0.0465
  967MOL0     H27621   3.245   5.883   7.690  0.1602 -0.1625 -1.1211
  967MOL0     H27622   3.411   5.660   7.711 -1.3103  0.5263  4.1250
  967MOL0     H27623   3.263   5.579   7.717  4.1929 -1.1321  2.7975
  967MOL0     H27624   3.187   5.699   7.503 -0.7231 -2.6470  3.0846
  967MOL0     H27625   3.331   5.593   7.496 -0.3278  0.0909 -0.1654
  967MOL0     H27626   3.190   5.779   8.461 -1.0312 -2.9808 -1.0151
  967MOL0     H27627   3.419   5.819   8.581  0.3880  1.0755  0.6329
  967MOL0     H27628   3.892   5.821   8.553  4.6565 -0.6537 -1.0595
  967MOL0     H27629   4.082   5.822   8.727  0.1171  0.3821 -2.1869
  967MOL0     H27630   4.976   4.598  10.113 -6.1119 -2.8669 -0.0912
  967MOL0     H27631   5.187   4.486  10.088  0.1892 -0.6429 -0.1511
  967MOL0     H27632   5.448   4.174   9.870  0.3763  1.1157  0.4152
  967MOL0     H27633   5.671   4.081   9.850 -1.8204  0.2044 -0.2138
  967MOL0     H27634   5.949   4.341   9.794 -0.0559 -0.6352 -0.2330
  967MOL0     H27635   6.055   4.285   9.666 -0.9285 -2.1683 -1.0018
  967MOL0     H27636   6.094   4.209   9.917 -1.0948  1.3229 -1.2583
  967MOL0     H27637   5.972   4.084   9.887 -0.9500 -0.9486 -2.8718
  967MOL0     H27638   6.224   4.137   9.722  0.8208  1.0853  0.7660
  967MOL0     H27639   6.108   3.992   9.713 -1.2860  1.0622  1.1038
  967MOL0     H27640   6.207   3.986   9.975 -0.3742 -2.6630 -0.3192
  967MOL0     H27641   6.239   3.884   9.840 -0.3066  0.2333  0.2687
  967MOL0     H27642   6.614   4.039   9.841 -0.4289 -0.0701 -1.1300
  967MOL0     H27643   5.794   4.391   9.586  0.4839  1.3612  1.0408
  967MOL0     H27644   5.577   4.494   9.618  0.3618 -1.3967 -1.5678
  968MOL0     O27645   9.909   4.602   1.346 -0.7281 -0.5233 -0.0462
  968MOL0     C27646   9.957   4.498   1.382 -0.0708 -0.0022  0.0938
  968MOL0     O27647   9.890   4.417   1.476 -0.4727  0.2963  0.4791
  968MOL0     C27648   9.771   4.465   1.526  0.2243 -1.0277 -0.0184
  968MOL0     C27649   9.652   4.460   1.459 -0.1905  0.3933  0.5036
  968MOL0     C27650   9.532   4.482   1.521 -0.0651 -0.3354 -0.4286
  968MOL0     C27651   9.528   4.510   1.659 -0.3546 -0.7270 -0.4909
  968MOL0     O27652   9.415   4.549   1.724 -0.4408  0.7589 -0.3699
  968MOL0     C27653   9.286   4.558   1.654 -0.0735  0.6011  0.5980
  968MOL0     C27654   9.208   4.633   1.765  0.3723 -0.5720  0.2150
  968MOL0     C27655   9.080   4.704   1.712  0.5724  0.9966 -0.4492
  968MOL0     C27656   8.985   4.742   1.820  0.1804 -0.0329 -0.3800
  968MOL0     C27657   8.866   4.808   1.745  0.4474 -0.1593 -0.9871
  968MOL0     C27658   8.786   4.896   1.847 -0.1303  0.1760 -0.7579
  968MOL0     C27659   8.714   5.008   1.772 -1.2635 -0.0063 -0.0934
  968MOL0     C27660   8.608   5.082   1.849 -0.0194 -0.1253  0.6993
  968MOL0     N27661   8.565   5.213   1.794 -0.9262 -0.0936  0.8812
  968MOL0     C27662   8.635   5.326   1.811 -0.0693 -0.6596  0.1455
  968MOL0     C27663   8.546   5.423   1.765 -0.9814  1.1904  0.5769
  968MOL0     C27664   8.597   5.570   1.765 -0.5877  0.2820  0.0915
  968MOL0     C27665   8.717   5.586   1.668 -0.7664 -0.8739 -1.0816
  968MOL0     C27666   8.790   5.720   1.675  1.0569  0.9363 -0.4831
  968MOL0     C27667   8.929   5.704   1.621 -0.0777 -0.5954  0.3046
  968MOL0     O27668   9.027   5.670   1.726  0.3867 -0.1453  0.2717
  968MOL0     C27669   9.154   5.684   1.690 -0.3724 -0.6548  0.4688
  968MOL0     C27670   9.250   5.687   1.791 -0.7856 -0.4492  0.0205
  968MOL0     C27671   9.390   5.687   1.766  0.1695 -0.5348 -0.0327
  968MOL0     C27672   9.435   5.711   1.632  0.4144 -0.0386 -0.4310
  968MOL0     C27673   9.573   5.739   1.602 -0.6763  0.2564  0.1299
  968MOL0     O27674   9.595   5.791   1.478 -0.5258  0.2421  0.3530
  968MOL0     C27675   9.723   5.808   1.436 -0.2318 -0.3760  0.1558
  968MOL0     C27676   9.812   5.880   1.515 -0.9090  0.5118 -0.3016
  968MOL0     C27677   9.937   5.918   1.463  0.3394 -0.0842 -0.7098
  968MOL0     C27678   9.977   5.871   1.339  0.7879 -0.3512 -0.6502
  968MOL0     O27679  10.096   5.912   1.290 -1.1246 -0.2887  0.7215
  968MOL0     C27680  10.191   5.802   1.271  0.3188  1.1259 -0.4042
  968MOL0     C27681  10.205   5.767   1.134  0.7449  0.3268  0.1407
  968MOL0     C27682  10.237   5.892   1.046  0.5195  0.4953  0.3452
  968MOL0     C27683  10.258   5.848   0.895  0.4991  1.0324 -0.1209
  968MOL0     C27684  10.290   5.961   0.794 -0.6224 -0.1250  0.0716
  968MOL0     C27685  10.283   5.911   0.651 -1.1767  0.3638 -0.6777
  968MOL0     C27686  10.358   6.017   0.572  0.0846  0.0854 -0.4200
  968MOL0     C27687  10.514   6.010   0.586  0.6896  0.6505  0.8785
  968MOL0    Cl27688  10.578   6.098   0.444 -0.1018 -0.0065  0.0709
  968MOL0     C27689   9.892   5.803   1.254  0.7336  0.4457  0.5478
  968MOL0     C27690   9.766   5.772   1.306 -0.5246  0.6004  0.7847
  968MOL0     O27691   9.656   5.722   1.689 -0.5273  0.5546  0.0843
  968MOL0     C27692   9.340   5.707   1.529  0.0990  0.0422 -0.0197
  968MOL0     C27693   9.204   5.684   1.556 -0.0295 -0.4395 -0.1692
  968MOL0     N27694   8.434   5.355   1.709 -0.7939 -0.3000  0.1141
  968MOL0     N27695   8.451   5.227   1.711 -0.0585 -0.3601  0.2994
  968MOL0     C27696   9.648   4.513   1.731 -0.5284 -0.2617 -0.2657
  968MOL0     C27697   9.769   4.498   1.664 -0.3631  0.7786  0.4246
  968MOL0     C27698  10.099   4.480   1.354  0.3379 -1.0207  0.1825
  968MOL0     C27699  10.187   4.474   1.458  0.0700 -0.2877 -0.5978
  968MOL0     C27700  10.323   4.468   1.433 -0.0173  0.1645  0.4907
  968MOL0     C27701  10.369   4.478   1.298 -0.0235  0.8785 -0.5661
  968MOL0     O27702  10.502   4.490   1.269  0.1326 -0.0736  0.4216
  968MOL0     C27703  10.595   4.509   1.381 -0.1189 -0.1501 -0.4354
  968MOL0     C27704  10.730   4.548   1.338  0.5345  0.1608  0.6347
  968MOL0     C27705  10.813   4.576   1.463  1.0396  0.8081  0.0190
  968MOL0     C27706  10.956   4.630   1.429 -0.6572 -0.0842 -0.4385
  968MOL0     C27707  11.017   4.644   1.559  0.2216  0.6633  0.5006
  968MOL0     C27708  11.099   4.627   1.650  0.4149  0.1982  1.4075
  968MOL0     C27709  10.276   4.471   1.192  0.0458  0.3181 -0.2203
  968MOL0     C27710  10.148   4.472   1.220 -0.0554 -0.6731  0.1601
  968MOL0     H27711   9.635   4.435   1.355  1.5238  4.4698 -0.9501
  968MOL0     H27712   9.443   4.478   1.459  0.4065  0.0013 -1.1530
  968MOL0     H27713   9.244   4.459   1.637  0.3852  0.2160  1.6366
  968MOL0     H27714   9.293   4.612   1.559  0.1877  1.0778  0.8853
  968MOL0     H27715   9.267   4.715   1.808  0.0915  0.0306 -0.5340
  968MOL0     H27716   9.183   4.573   1.854 -2.5933  0.6141  0.3002
  968MOL0     H27717   9.017   4.636   1.655 -1.3240  2.3215 -0.0293
  968MOL0     H27718   9.098   4.791   1.648  0.7133  1.8745  0.7486
  968MOL0     H27719   8.944   4.649   1.862 -2.5685 -0.1416 -2.9594
  968MOL0     H27720   9.030   4.800   1.900  1.5609 -3.6993  1.7480
  968MOL0     H27721   8.798   4.743   1.690  0.8840 -0.6543 -0.9579
  968MOL0     H27722   8.903   4.887   1.679  1.2751 -0.2213 -0.6109
  968MOL0     H27723   8.855   4.941   1.919  0.7703 -1.8859 -0.2866
  968MOL0     H27724   8.715   4.840   1.910 -0.3556 -1.9105 -2.7385
  968MOL0     H27725   8.796   5.067   1.729  0.9676 -3.7374 -1.4409
  968MOL0     H27726   8.670   4.974   1.677 -2.1767 -0.7597  0.5817
  968MOL0     H27727   8.647   5.101   1.950 -1.1729  3.2399  0.6511
  968MOL0     H27728   8.514   5.026   1.850 -1.7652  2.5981 -0.4381
  968MOL0     H27729   8.730   5.344   1.860  0.4946 -2.5159 -0.1985
  968MOL0     H27730   8.637   5.605   1.861  2.2874  2.3055 -1.6828
  968MOL0     H27731   8.523   5.640   1.727 -2.2258 -0.9375  0.9278
  968MOL0     H27732   8.677   5.587   1.566 -1.5341 -2.3915 -0.8177
  968MOL0     H27733   8.798   5.517   1.691  0.4116  1.4683  2.6019
  968MOL0     H27734   8.738   5.787   1.606 -0.9648  0.4681  0.4909
  968MOL0     H27735   8.792   5.763   1.775 -1.4661  1.7803 -0.7119
  968MOL0     H27736   8.964   5.798   1.577  3.4127 -1.4759  0.8548
  968MOL0     H27737   8.923   5.626   1.544  0.1953  1.0687 -1.4630
  968MOL0     H27738   9.213   5.690   1.893 -1.2359  1.0845 -0.1549
  968MOL0     H27739   9.455   5.686   1.853 -0.1998 -3.3812  0.2923
  968MOL0     H27740   9.780   5.913   1.613 -0.7954 -2.4838  0.8188
  968MOL0     H27741  10.001   5.976   1.528 -1.1558  1.5537 -0.6288
  968MOL0     H27742  10.162   5.707   1.317  1.7718  0.2397 -1.2422
  968MOL0     H27743  10.286   5.832   1.317  1.7252 -3.1108 -0.1325
  968MOL0     H27744  10.121   5.712   1.091  1.6932  0.1972 -1.6712
  968MOL0     H27745  10.290   5.701   1.112  0.8677 -0.0165  1.5919
  968MOL0     H27746  10.320   5.953   1.084 -1.6636  2.1502  2.7946
  968MOL0     H27747  10.144   5.950   1.045  0.6275  0.7646  2.2313
  968MOL0     H27748  10.343   5.780   0.888  1.2411  1.9724 -0.5080
  968MOL0     H27749  10.165   5.802   0.861 -1.3336  2.0470  3.1101
  968MOL0     H27750  10.388   5.997   0.828 -1.7356  1.8082  1.3599
  968MOL0     H27751  10.216   6.040   0.811 -1.4531 -0.7237 -0.6729
  968MOL0     H27752  10.178   5.898   0.625 -1.8464  3.2607  0.2214
  968MOL0     H27753  10.333   5.814   0.641 -0.7808  0.4138  0.5905
  968MOL0     H27754  10.349   5.997   0.465  3.0691 -3.1368 -0.2612
  968MOL0     H27755  10.314   6.116   0.589 -3.1391 -1.4120  0.7739
  968MOL0     H27756  10.541   5.905   0.597  1.2414  0.9095  2.2935
  968MOL0     H27757  10.556   6.064   0.672  2.0019 -0.4285  0.9354
  968MOL0     H27758   9.916   5.769   1.154 -0.2046  0.6148  0.2596
  968MOL0     H27759   9.700   5.721   1.236  0.2290  1.2614 -0.4494
  968MOL0     H27760   9.375   5.703   1.427  3.5329  1.6908  0.9674
  968MOL0     H27761   9.134   5.683   1.473  0.2848 -0.1019 -0.4436
  968MOL0     H27762   9.660   4.550   1.832  2.2047  0.4819 -0.7768
  968MOL0     H27763   9.864   4.492   1.716 -0.0716 -0.9373 -0.2628
  968MOL0     H27764  10.160   4.472   1.564  0.5741 -0.2480 -0.4645
  968MOL0     H27765  10.392   4.464   1.517  0.0606 -3.1486  0.3952
  968MOL0     H27766  10.603   4.420   1.444  0.1490  1.1621  1.4610
  968MOL0     H27767  10.555   4.595   1.435 -1.3785  0.6269 -2.4572
  968MOL0     H27768  10.778   4.465   1.285  1.3104  1.6786 -1.1821
  968MOL0     H27769  10.720   4.636   1.273 -2.6648 -0.8666 -0.4581
  968MOL0     H27770  10.821   4.485   1.523  0.1322  2.2052  2.3848
  968MOL0     H27771  10.761   4.642   1.533 -0.6402  0.2974 -0.7151
  968MOL0     H27772  11.024   4.561   1.379 -0.0428 -0.0591  0.3340
  968MOL0     H27773  10.953   4.726   1.377 -0.0481  0.1612 -0.0300
  968MOL0     H27774  11.164   4.614   1.733  0.1482 -1.0239  1.4405
  968MOL0     H27775  10.309   4.485   1.089  1.9489 -1.6087  0.0526
  968MOL0     H27776  10.072   4.467   1.143  2.5192 -1.6255 -2.5066
  969MOL0     O27777   4.327  10.770   0.490 -0.6710  0.1235 -0.9413
  969MOL0     C27778   4.350  10.649   0.496 -0.4256 -1.1676 -0.3014
  969MOL0     O27779   4.255  10.555   0.515  0.2755 -0.0224 -0.4366
  969MOL0     C27780   4.126  10.598   0.540  0.0416 -0.0311  0.1440
  969MOL0     C27781   4.072  10.591   0.666  0.0606  1.0837  0.1451
  969MOL0     C27782   3.935  10.598   0.681  0.7321  0.2395  0.4985
  969MOL0     C27783   3.855  10.641   0.570  0.2031  0.4555 -0.5002
  969MOL0     O27784   3.721  10.655   0.579  0.5314 -0.1309 -0.0069
  969MOL0     C27785   3.649  10.538   0.625 -0.4999  0.1335  0.6562
  969MOL0     C27786   3.537  10.498   0.525  1.2394 -0.5215 -0.3729
  969MOL0     C27787   3.402  10.553   0.582  0.7479  0.2982 -0.5683
  969MOL0     C27788   3.309  10.564   0.461 -0.7202  0.9306  0.1636
  969MOL0     C27789   3.168  10.600   0.508 -0.4121 -0.0363 -0.2023
  969MOL0     C27790   3.147  10.742   0.573 -0.5253  0.0608 -0.5808
  969MOL0     C27791   3.001  10.766   0.578  0.4667  0.0085  0.7612
  969MOL0     C27792   2.981  10.912   0.616  0.4038  0.1763 -0.1928
  969MOL0     N27793   2.839  10.958   0.617 -0.0528 -0.5060  0.1132
  969MOL0     C27794   2.743  10.886   0.681 -1.3359 -0.4376  0.0810
  969MOL0     C27795   2.631  10.959   0.665 -0.6753 -0.1397  0.9201
  969MOL0     C27796   2.496  10.938   0.724  0.4460  0.4800  0.1015
  969MOL0     C27797   2.377  10.924   0.619  0.4770 -0.1670 -0.6516
  969MOL0     C27798   2.241  10.910   0.684  0.1443  0.0165 -0.6058
  969MOL0     C27799   2.169  11.049   0.701  0.3039 -0.5338 -0.2780
  969MOL0     O27800   2.105  11.063   0.833  0.6962  0.0817  0.2406
  969MOL0     C27801   2.002  10.982   0.871 -0.4568  0.2349 -0.3047
  969MOL0     C27802   1.938  10.894   0.789 -1.0267  0.3802  0.0032
  969MOL0     C27803   1.828  10.834   0.843 -0.2194  0.7874 -0.2685
  969MOL0     C27804   1.774  10.872   0.964  0.1491  0.1039  0.1435
  969MOL0     C27805   1.640  10.817   1.003 -0.7945  0.5145  0.4368
  969MOL0     O27806   1.560  10.900   1.075 -0.4378  0.0039  0.5187
  969MOL0     C27807   1.443  10.840   1.122 -0.0390  0.3881 -0.4639
  969MOL0     C27808   1.342  10.796   1.033  0.2783 -1.0143 -0.4647
  969MOL0     C27809   1.225  10.737   1.075  0.4263  0.1232 -0.5426
  969MOL0     C27810   1.201  10.734   1.217 -0.5408  1.3396  0.7975
  969MOL0     O27811   1.085  10.684   1.270 -0.3288 -0.0148 -0.5187
  969MOL0     C27812   0.969  10.709   1.199  0.5234 -0.7576  0.0532
  969MOL0     C27813   0.843  10.694   1.290  0.7524 -0.7811  0.6973
  969MOL0     C27814   0.800  10.554   1.329 -0.4417  0.8992  0.7689
  969MOL0     C27815   0.661  10.528   1.386  1.6065  0.0226 -0.3665
  969MOL0     C27816   0.687  10.427   1.495 -1.5518 -0.1308  0.1630
  969MOL0     C27817   0.560  10.368   1.560 -0.2924 -0.1325  0.7736
  969MOL0     C27818   0.476  10.289   1.459  0.1475 -0.6408  0.8101
  969MOL0     C27819   0.400  10.181   1.537 -0.9541 -0.2974  0.2283
  969MOL0    Cl27820   0.309  10.229   1.688  0.0229  0.1876  0.0614
  969MOL0     C27821   1.300  10.773   1.300 -0.6856 -0.3679 -0.1008
  969MOL0     C27822   1.424  10.824   1.262  1.0645 -0.1605 -0.2807
  969MOL0     O27823   1.603  10.706   0.962  0.1893  0.1361 -0.2914
  969MOL0     C27824   1.843  10.954   1.048 -0.0735  0.0993 -0.2079
  969MOL0     C27825   1.960  11.014   1.001 -0.3301 -0.3211  1.1031
  969MOL0     N27826   2.665  11.075   0.605  0.0646  0.8139 -0.3160
  969MOL0     N27827   2.789  11.078   0.575 -0.1639  0.8490 -1.0028
  969MOL0     C27828   3.917  10.665   0.444  0.2973  0.0106 -0.8165
  969MOL0     C27829   4.050  10.643   0.426 -0.2113 -0.2657 -0.3911
  969MOL0     C27830   4.488  10.599   0.475  0.1245  0.3870 -0.8449
  969MOL0     C27831   4.509  10.466   0.473 -0.2450  1.5999 -0.6790
  969MOL0     C27832   4.632  10.404   0.488  0.1019 -0.8348 -0.4703
  969MOL0     C27833   4.746  10.477   0.468 -0.7241  0.7441 -0.4326
  969MOL0     O27834   4.866  10.410   0.486 -0.5071  0.6536  0.1893
  969MOL0     C27835   4.991  10.485   0.487 -0.0797  0.7847  0.2075
  969MOL0     C27836   5.129  10.404   0.498 -0.3394  0.2455 -0.4407
  969MOL0     C27837   5.112  10.271   0.571  0.2621 -0.1860  0.7392
  969MOL0     C27838   5.133  10.299   0.723  0.8037 -0.3587 -0.8868
  969MOL0     C27839   5.278  10.292   0.731  0.4815 -0.0541  0.2005
  969MOL0     C27840   5.396  10.288   0.728 -0.0355 -0.8563 -0.4215
  969MOL0     C27841   4.733  10.610   0.448  0.5824 -0.9767 -0.2306
  969MOL0     C27842   4.607  10.676   0.459 -0.4017 -0.5755  0.5534
  969MOL0     H27843   4.145  10.569   0.743  0.5724  0.4074 -0.5200
  969MOL0     H27844   3.894  10.579   0.780  0.5787 -1.9581  0.0699
  969MOL0     H27845   3.610  10.562   0.724 -0.1907  2.6119  0.2397
  969MOL0     H27846   3.718  10.454   0.633  0.0083  0.6760  2.2519
  969MOL0     H27847   3.529  10.394   0.494 -0.6318  0.6846 -4.7633
  969MOL0     H27848   3.559  10.560   0.438 -1.3058  1.4695  0.2733
  969MOL0     H27849   3.416  10.648   0.633 -0.1686 -0.6221  1.5125
  969MOL0     H27850   3.368  10.473   0.649  1.4210 -1.0732 -1.7922
  969MOL0     H27851   3.352  10.630   0.385  0.3308 -0.2336 -0.2830
  969MOL0     H27852   3.307  10.470   0.406  1.9434  1.9898 -1.9661
  969MOL0     H27853   3.125  10.523   0.573  3.5631 -0.8988  1.6677
  969MOL0     H27854   3.112  10.588   0.414 -0.8023 -1.0042  0.1426
  969MOL0     H27855   3.193  10.805   0.496  2.0075 -2.0066 -0.9047
  969MOL0     H27856   3.195  10.757   0.670 -2.0291  2.3166 -0.1239
  969MOL0     H27857   2.960  10.745   0.479  1.9288  1.1365 -0.1192
  969MOL0     H27858   2.950  10.701   0.650  1.3061 -3.0760 -1.2137
  969MOL0     H27859   3.041  10.973   0.549  4.1230 -0.8514  1.9267
  969MOL0     H27860   3.023  10.927   0.716 -2.8783 -0.7751  1.4774
  969MOL0     H27861   2.752  10.794   0.738 -3.7674 -0.2485  0.8613
  969MOL0     H27862   2.474  11.030   0.780 -0.7432  0.1682  0.1745
  969MOL0     H27863   2.511  10.861   0.800  1.8248 -1.2690 -1.8489
  969MOL0     H27864   2.386  10.828   0.567  0.5433 -0.3273 -0.3479
  969MOL0     H27865   2.373  11.007   0.548  0.4385  0.4115  0.0091
  969MOL0     H27866   2.182  10.845   0.619  0.2308  0.0889 -0.7572
  969MOL0     H27867   2.262  10.860   0.779 -1.1833  0.8210  0.1537
  969MOL0     H27868   2.094  11.060   0.622 -2.5916 -1.0850  2.2052
  969MOL0     H27869   2.238  11.134   0.691 -1.8815  1.3036 -0.6313
  969MOL0     H27870   1.979  10.881   0.690 -2.5136  5.6409 -1.6117
  969MOL0     H27871   1.769  10.767   0.782  1.3242 -1.0460  0.1864
  969MOL0     H27872   1.358  10.800   0.925 -0.9300 -0.4138 -0.6467
  969MOL0     H27873   1.145  10.704   1.009 -0.0380 -1.1388  0.6107
  969MOL0     H27874   0.966  10.644   1.112  0.0230  2.0150 -2.1263
  969MOL0     H27875   0.975  10.811   1.159 -1.0337  0.2501  2.1699
  969MOL0     H27876   0.753  10.729   1.238  0.2756 -2.3082  0.4374
  969MOL0     H27877   0.852  10.751   1.383 -1.1919  2.7784 -1.0871
  969MOL0     H27878   0.875  10.517   1.399 -1.4386 -1.5712  0.6504
  969MOL0     H27879   0.813  10.495   1.237  0.2540 -0.8853  1.9506
  969MOL0     H27880   0.609  10.614   1.429  2.3817 -0.3690  1.4687
  969MOL0     H27881   0.593  10.482   1.314  0.3146 -1.6813  1.8292
  969MOL0     H27882   0.747  10.468   1.577 -2.9815 -0.3531  1.3816
  969MOL0     H27883   0.742  10.339   1.460  0.4691  1.2305 -0.2450
  969MOL0     H27884   0.508  10.448   1.612 -0.1660  0.2538  0.3218
  969MOL0     H27885   0.609  10.303   1.633  0.3785  0.3611  0.7676
  969MOL0     H27886   0.408  10.356   1.407  0.6527 -1.5066 -1.0596
  969MOL0     H27887   0.539  10.241   1.383  0.3226 -1.0970  1.2419
  969MOL0     H27888   0.480  10.110   1.558  1.7979  2.0331 -1.6474
  969MOL0     H27889   0.346  10.129   1.457 -0.0628  1.5315 -1.6619
  969MOL0     H27890   1.271  10.770   1.405 -4.1626  1.1982 -0.8614
  969MOL0     H27891   1.505  10.843   1.332 -0.5082  2.1245  1.0652
  969MOL0     H27892   1.805  10.998   1.140 -0.4996 -0.6218 -0.0335
  969MOL0     H27893   2.023  11.079   1.061  0.7835 -0.8342  0.5193
  969MOL0     H27894   3.861  10.718   0.368 -0.5665  2.1876  1.2331
  969MOL0     H27895   4.088  10.651   0.325 -1.3089  4.5513 -0.6701
  969MOL0     H27896   4.437  10.385   0.470  1.7134 -0.2839  0.2299
  969MOL0     H27897   4.625  10.297   0.508 -1.7220 -0.7825 -0.7126
  969MOL0     H27898   4.997  10.543   0.580  2.1620  0.6606  0.2068
  969MOL0     H27899   4.990  10.561   0.409 -0.6742  2.2780  1.6162
  969MOL0     H27900   5.160  10.381   0.396 -1.8141 -0.2421 -0.8082
  969MOL0     H27901   5.201  10.467   0.551 -1.6744  0.6156  1.0120
  969MOL0     H27902   5.180  10.190   0.545  2.3178  0.5138  3.4637
  969MOL0     H27903   5.011  10.237   0.546 -0.1119  0.7231  0.9830
  969MOL0     H27904   5.093  10.396   0.756 -0.6336 -1.6750  1.5043
  969MOL0     H27905   5.077  10.224   0.779 -0.3391  1.6293  0.7766
  969MOL0     H27906   5.502  10.300   0.722 -0.2435  1.1116 -0.8241
  969MOL0     H27907   4.818  10.671   0.421 -0.6439  0.6731 -0.5721
  969MOL0     H27908   4.616  10.783   0.445  0.5133 -0.8303 -1.1554
  970MOL0     O27909   5.745  10.417   9.783 -0.0873  0.1972  0.7331
  970MOL0     C27910   5.791  10.438   9.673 -0.2229  0.1411  0.7746
  970MOL0     O27911   5.720  10.425   9.560 -0.3459  0.1637 -0.4534
  970MOL0     C27912   5.583  10.397   9.569  0.1269  0.5654  0.6886
  970MOL0     C27913   5.534  10.313   9.465 -0.4332 -1.2763  0.1739
  970MOL0     C27914   5.392  10.290   9.457 -0.3082 -0.1720  0.1530
  970MOL0     C27915   5.301  10.354   9.550 -1.0339  0.2954  0.7679
  970MOL0     O27916   5.162  10.350   9.543 -0.0110 -0.0718  0.1292
  970MOL0     C27917   5.114  10.312   9.414  0.4080 -0.4836  0.0080
  970MOL0     C27918   4.960  10.339   9.405  0.2500  0.0322 -0.3751
  970MOL0     C27919   4.882  10.261   9.513  0.4794 -0.9044  0.3333
  970MOL0     C27920   4.734  10.257   9.477 -0.0967  1.2095  0.4803
  970MOL0     C27921   4.663  10.176   9.582 -0.2330  0.5712 -0.6200
  970MOL0     C27922   4.707  10.028   9.597  0.4747  0.0109  0.1302
  970MOL0     C27923   4.659   9.924   9.492 -0.3732  0.0952  1.1342
  970MOL0     C27924   4.509   9.897   9.473 -0.3045  0.3915 -0.4877
  970MOL0     N27925   4.446   9.802   9.562 -0.3827  0.0722 -0.2975
  970MOL0     C27926   4.312   9.790   9.587  0.0154 -0.1492  0.6224
  970MOL0     C27927   4.302   9.698   9.682  0.6568  0.0713  0.1471
  970MOL0     C27928   4.184   9.658   9.763 -0.0805  0.8213 -0.1816
  970MOL0     C27929   4.205   9.713   9.909 -0.5073  0.3850  0.1209
  970MOL0     C27930   4.120   9.648  10.021  0.0474 -0.2048 -0.8223
  970MOL0     C27931   3.984   9.694  10.041  0.9811 -0.1650 -1.2381
  970MOL0     O27932   3.909   9.607  10.136  0.2617  0.0232  0.1239
  970MOL0     C27933   3.777   9.570  10.131  1.1332 -1.1777  0.3094
  970MOL0     C27934   3.691   9.576  10.243  0.8265 -0.0425 -0.1981
  970MOL0     C27935   3.555   9.533  10.242 -0.0896 -0.3468  0.1558
  970MOL0     C27936   3.497   9.503  10.116 -0.0023  0.3316 -0.3830
  970MOL0     C27937   3.360   9.450  10.105  0.0650  0.0946 -0.5681
  970MOL0     O27938   3.277   9.472   9.998  0.1780 -0.5860  0.3132
  970MOL0     C27939   3.142   9.456  10.027 -0.1736  0.2732 -0.3690
  970MOL0     C27940   3.076   9.333  10.011 -0.0752 -0.7229 -0.6145
  970MOL0     C27941   2.942   9.315  10.025  1.1563  0.5887 -0.1072
  970MOL0     C27942   2.859   9.422  10.068 -0.3575  0.6698 -0.7234
  970MOL0     O27943   2.723   9.398  10.091  0.1300  0.0357 -0.5937
  970MOL0     C27944   2.660   9.478  10.193 -0.0659  0.2351  0.3763
  970MOL0     C27945   2.508   9.460  10.199  0.8535  0.4350 -1.4629
  970MOL0     C27946   2.478   9.309  10.224  0.8941 -0.1245 -0.5100
  970MOL0     C27947   2.519   9.260  10.367 -1.3570  0.0646  1.0598
  970MOL0     C27948   2.485   9.107  10.376  0.7669  0.4503 -0.4307
  970MOL0     C27949   2.609   9.037  10.342  0.1405  0.3104  0.0691
  970MOL0     C27950   2.600   8.889  10.324  0.1183  0.0774 -0.9910
  970MOL0     C27951   2.531   8.829  10.203  0.8632 -0.1271  0.6881
  970MOL0    Cl27952   2.599   8.911  10.049 -0.2775  0.3933  0.3143
  970MOL0     C27953   2.928   9.542  10.093  0.4936 -0.1957  0.5161
  970MOL0     C27954   3.061   9.566  10.072  0.0764 -0.5051 -1.0374
  970MOL0     O27955   3.330   9.376  10.196 -0.0736  0.2860  0.3655
  970MOL0     C27956   3.579   9.509  10.000 -0.1669  0.6739 -0.2026
  970MOL0     C27957   3.709   9.545  10.012 -1.1187  0.8636 -0.8168
  970MOL0     N27958   4.428   9.648   9.706  0.3472 -0.6158 -0.8461
  970MOL0     N27959   4.516   9.705   9.626  0.0605  1.3100  0.3674
  970MOL0     C27960   5.359  10.428   9.649  0.0443 -1.0614  0.7320
  970MOL0     C27961   5.499  10.458   9.652 -0.0588 -0.2434 -0.3912
  970MOL0     C27962   5.932  10.477   9.667 -0.2602 -1.2890  0.2672
  970MOL0     C27963   6.003  10.509   9.786 -0.2002  0.2461  0.2493
  970MOL0     C27964   6.133  10.559   9.787 -0.5313 -0.7220  0.1465
  970MOL0     C27965   6.212  10.546   9.668 -0.0284  0.3952  0.6867
  970MOL0     O27966   6.348  10.577   9.664  0.1580 -0.6523  0.5652
  970MOL0     C27967   6.420  10.632   9.774  0.3148 -0.3853  0.3567
  970MOL0     C27968   6.546  10.685   9.733  0.2964 -0.6866 -0.5735
  970MOL0     C27969   6.641  10.708   9.850 -1.3317 -0.4023  0.0259
  970MOL0     C27970   6.777  10.761   9.789  0.8924  0.5865 -0.8780
  970MOL0     C27971   6.879  10.791   9.886  0.7413 -0.9360 -0.1853
  970MOL0     C27972   6.976  10.804   9.963 -0.1398  0.6662 -0.3412
  970MOL0     C27973   6.154  10.496   9.553 -0.2476  0.0175 -0.3165
  970MOL0     C27974   6.013  10.468   9.551 -1.0712 -0.6053 -0.3872
  970MOL0     H27975   5.598  10.274   9.387  2.4053 -1.2487  2.3260
  970MOL0     H27976   5.350  10.232   9.376  0.8046 -3.4362  1.7226
  970MOL0     H27977   5.132  10.207   9.386 -1.7020 -0.6616 -0.9200
  970MOL0     H27978   5.169  10.368   9.338 -0.3924 -0.1518 -0.3334
  970MOL0     H27979   4.931  10.308   9.304  1.1809 -2.8053  0.1486
  970MOL0     H27980   4.942  10.447   9.416 -0.3080 -0.1011  0.0613
  970MOL0     H27981   4.904  10.316   9.605  2.1301  0.9857 -1.0887
  970MOL0     H27982   4.923  10.160   9.513  3.1195  0.0036 -2.5998
  970MOL0     H27983   4.696  10.359   9.478 -4.3880 -0.0566 -3.0562
  970MOL0     H27984   4.711  10.215   9.378 -1.6017 -1.3052  1.7742
  970MOL0     H27985   4.559  10.174   9.547 -0.6604 -3.4958  0.3166
  970MOL0     H27986   4.675  10.215   9.684  2.8672 -1.3846 -0.0753
  970MOL0     H27987   4.663   9.998   9.693 -1.2991  1.4003 -0.1755
  970MOL0     H27988   4.813  10.021   9.621  0.8024 -1.2661 -1.5282
  970MOL0     H27989   4.710   9.941   9.397 -1.0353 -0.9150  0.5855
  970MOL0     H27990   4.704   9.830   9.525 -1.7099  0.2812  3.7482
  970MOL0     H27991   4.496   9.854   9.373 -1.1099 -1.3456  0.3119
  970MOL0     H27992   4.460   9.993   9.490  1.8543  1.9868 -2.7045
  970MOL0     H27993   4.236   9.860   9.554 -0.3480 -0.9914 -0.4040
  970MOL0     H27994   4.179   9.549   9.769 -2.6019  0.9020  0.4903
  970MOL0     H27995   4.087   9.680   9.717 -1.5722 -4.4534 -0.1077
  970MOL0     H27996   4.191   9.820   9.894  0.8332  0.4123 -1.2464
  970MOL0     H27997   4.312   9.705   9.930 -0.6656  1.0578  1.2529
  970MOL0     H27998   4.120   9.540  10.005  0.1884 -0.1526 -1.1802
  970MOL0     H27999   4.175   9.673  10.112  2.7130  3.9390 -3.2903
  970MOL0     H28000   3.936   9.685   9.943  1.9380  0.9559 -1.8448
  970MOL0     H28001   3.985   9.794  10.084 -2.9995 -0.1149 -0.8875
  970MOL0     H28002   3.723   9.610  10.341 -0.9840  0.6354  0.1853
  970MOL0     H28003   3.500   9.537  10.335 -2.5675  0.4715 -1.2333
  970MOL0     H28004   3.144   9.251   9.992  1.1901 -0.3861  1.9234
  970MOL0     H28005   2.905   9.215  10.005  3.8494 -0.5865  0.4024
  970MOL0     H28006   2.679   9.585  10.177 -0.6303  0.2637 -0.1506
  970MOL0     H28007   2.710   9.447  10.285 -0.0087 -1.8715 -0.3127
  970MOL0     H28008   2.471   9.493  10.102  2.0243 -1.2671 -2.5370
  970MOL0     H28009   2.458   9.518  10.278 -2.0163 -1.8107 -1.4911
  970MOL0     H28010   2.520   9.258  10.137  1.1752  2.7847 -2.2269
  970MOL0     H28011   2.371   9.310  10.207  0.9489  1.4311 -0.9302
  970MOL0     H28012   2.626   9.279  10.383 -1.3745 -0.1622  1.4459
  970MOL0     H28013   2.469   9.327  10.437  0.3859 -0.6755  3.1060
  970MOL0     H28014   2.395   9.081  10.319 -0.8582  1.2235  1.6616
  970MOL0     H28015   2.453   9.092  10.479  1.3354  1.1011 -0.1514
  970MOL0     H28016   2.681   9.038  10.423  2.0968 -1.8360 -1.5254
  970MOL0     H28017   2.651   9.077  10.249 -0.9118 -0.5332 -0.8048
  970MOL0     H28018   2.702   8.850  10.324  0.2283  0.0913  2.4183
  970MOL0     H28019   2.555   8.846  10.414  1.4643  0.3493 -0.1688
  970MOL0     H28020   2.423   8.843  10.203  0.5401 -2.2280  0.1378
  970MOL0     H28021   2.567   8.725  10.194  1.3781  0.1483 -0.6536
  970MOL0     H28022   2.875   9.634  10.116  0.0285  0.5796 -3.1001
  970MOL0     H28023   3.110   9.657  10.104  0.6430 -0.4527 -1.9929
  970MOL0     H28024   3.534   9.473   9.908  2.7219 -1.6335 -0.8624
  970MOL0     H28025   3.777   9.534   9.928  2.0836 -5.1249  1.9429
  970MOL0     H28026   5.296  10.476   9.723 -0.0991 -4.2525  2.8839
  970MOL0     H28027   5.530  10.530   9.727  0.5420  0.5732 -1.3777
  970MOL0     H28028   5.953  10.485   9.879  1.2720 -0.1253  0.9624
  970MOL0     H28029   6.166  10.578   9.888 -2.1849  1.0989  0.3955
  970MOL0     H28030   6.430  10.553   9.849 -0.4914  0.8552  1.8117
  970MOL0     H28031   6.359  10.705   9.827  0.9304  1.6339 -1.5812
  970MOL0     H28032   6.588  10.612   9.664 -0.0034  0.2179 -1.7408
  970MOL0     H28033   6.534  10.774   9.672  3.7817 -0.1946 -0.7147
  970MOL0     H28034   6.647  10.618   9.912 -2.4576 -0.4516  0.0720
  970MOL0     H28035   6.605  10.787   9.917  0.5562 -0.6167  1.3794
  970MOL0     H28036   6.822  10.690   9.718 -0.9097 -3.0666  1.3587
  970MOL0     H28037   6.746  10.851   9.733 -3.4987  0.3567  0.7875
  970MOL0     H28038   7.056  10.828  10.029  1.5246 -2.4531 -1.0262
  970MOL0     H28039   6.217  10.488   9.465  1.2417 -0.9083  0.7895
  970MOL0     H28040   5.961  10.438   9.461 -2.5874 -1.4113  0.7142
  971MOL0     O28041   8.209   8.272   9.803 -0.5069 -0.2258 -0.0195
  971MOL0     C28042   8.247   8.342   9.702  1.1881  0.2064 -0.2899
  971MOL0     O28043   8.169   8.371   9.586  0.2454  0.1161 -0.4669
  971MOL0     C28044   8.040   8.322   9.568  0.0027  0.0464  0.0768
  971MOL0     C28045   7.938   8.318   9.666  0.4815 -0.5201  0.1594
  971MOL0     C28046   7.806   8.282   9.640 -0.3338 -0.3575 -0.0969
  971MOL0     C28047   7.767   8.233   9.516  0.1857 -0.1080 -0.5981
  971MOL0     O28048   7.643   8.184   9.486  0.1105 -0.2052 -0.3511
  971MOL0     C28049   7.555   8.172   9.595 -0.0258 -0.7241 -0.7877
  971MOL0     C28050   7.425   8.106   9.553 -0.3281 -1.2659 -0.1027
  971MOL0     C28051   7.331   8.108   9.675 -0.4391  0.0917  0.5940
  971MOL0     C28052   7.198   8.036   9.642 -0.4732  0.0004  1.3586
  971MOL0     C28053   7.085   8.128   9.580  0.1691  0.1483 -0.8125
  971MOL0     C28054   6.944   8.047   9.581 -0.2447  0.3857  0.6872
  971MOL0     C28055   6.843   8.089   9.474  0.4700 -1.0806 -0.4241
  971MOL0     C28056   6.781   8.227   9.510 -0.9022  0.1486 -0.0934
  971MOL0     N28057   6.647   8.251   9.469  0.4032 -0.4937 -0.3314
  971MOL0     C28058   6.593   8.353   9.386  0.3187 -0.2363  0.4514
  971MOL0     C28059   6.461   8.311   9.372  0.3765 -0.3061  0.3101
  971MOL0     C28060   6.357   8.367   9.267 -0.3648 -0.1779  0.0014
  971MOL0     C28061   6.374   8.522   9.251 -0.0810 -0.2843 -0.2343
  971MOL0     C28062   6.351   8.609   9.373  0.0234  0.4259 -0.7446
  971MOL0     C28063   6.406   8.751   9.361 -0.0346 -0.0358  0.0228
  971MOL0     O28064   6.386   8.821   9.481  0.4097 -0.4077 -0.0716
  971MOL0     C28065   6.264   8.873   9.512 -0.5356 -0.8085 -0.3283
  971MOL0     C28066   6.229   8.887   9.640  0.1340  0.2146  0.5878
  971MOL0     C28067   6.105   8.943   9.681  0.3589  0.4304  0.3398
  971MOL0     C28068   6.008   8.989   9.586 -0.5672 -0.1882 -0.7215
  971MOL0     C28069   5.876   9.052   9.623 -0.0021 -0.2532  0.0534
  971MOL0     O28070   5.790   9.112   9.532  0.2146 -0.6735 -0.1889
  971MOL0     C28071   5.657   9.119   9.552 -0.3842 -0.3591  0.2720
  971MOL0     C28072   5.589   9.043   9.645 -0.6122 -0.0036 -0.7294
  971MOL0     C28073   5.454   9.072   9.672 -0.3626  0.2939  0.2901
  971MOL0     C28074   5.385   9.181   9.610  0.4804  0.2910 -0.4450
  971MOL0     O28075   5.257   9.219   9.627  0.4496 -0.4071  0.2420
  971MOL0     C28076   5.192   9.166   9.738 -0.1301  0.9347  0.3657
  971MOL0     C28077   5.072   9.261   9.771 -0.3629  0.5604  0.4371
  971MOL0     C28078   4.983   9.201   9.877  1.2444 -0.2660  0.0253
  971MOL0     C28079   4.897   9.075   9.822 -0.5360 -0.9244 -0.1737
  971MOL0     C28080   4.800   9.021   9.935  0.4403 -0.7728 -0.4250
  971MOL0     C28081   4.716   8.913   9.873 -0.8834  0.5177  1.2495
  971MOL0     C28082   4.621   8.856   9.971 -0.1764  0.0644 -0.7343
  971MOL0     C28083   4.487   8.931   9.967  0.1304 -0.2059 -0.1608
  971MOL0    Cl28084   4.386   8.853  10.092 -0.0589 -0.0501 -0.0990
  971MOL0     C28085   5.459   9.261   9.524 -0.5455  0.0777  0.3457
  971MOL0     C28086   5.587   9.221   9.488 -0.5470 -0.1697  0.7810
  971MOL0     O28087   5.852   9.041   9.739  0.8984  0.5188  0.0411
  971MOL0     C28088   6.036   8.976   9.447  0.2231  0.3565  0.0339
  971MOL0     C28089   6.160   8.909   9.414 -0.1898  0.1900 -0.4855
  971MOL0     N28090   6.443   8.196   9.447  0.4286  0.1080  0.4032
  971MOL0     N28091   6.560   8.152   9.489 -0.5730  0.1105  0.6465
  971MOL0     C28092   7.862   8.229   9.414 -0.6602  0.3355  0.1987
  971MOL0     C28093   7.998   8.278   9.439 -0.7953  0.2144  0.5159
  971MOL0     C28094   8.380   8.410   9.724  0.8074  0.0199  0.4908
  971MOL0     C28095   8.427   8.469   9.610  0.4939 -0.1213  0.0593
  971MOL0     C28096   8.550   8.540   9.618 -0.1376  0.2660 -1.0683
  971MOL0     C28097   8.625   8.538   9.726 -0.3892 -1.4324 -0.5969
  971MOL0     O28098   8.748   8.597   9.753 -0.5352 -1.2923  0.3580
  971MOL0     C28099   8.822   8.678   9.646 -0.5044  0.1100 -0.1988
  971MOL0     C28100   8.972   8.686   9.663 -0.4621 -0.2000  0.0419
  971MOL0     C28101   9.055   8.556   9.635  0.4673  0.0852  0.5394
  971MOL0     C28102   9.198   8.597   9.623  0.3828  0.0844  0.2827
  971MOL0     C28103   9.278   8.473   9.623 -0.1326  0.4936  0.2408
  971MOL0     C28104   9.364   8.382   9.625  0.6517  0.1415 -0.4158
  971MOL0     C28105   8.580   8.479   9.843  0.5491 -1.0393 -0.8256
  971MOL0     C28106   8.450   8.422   9.842 -0.2865 -0.0671 -0.4798
  971MOL0     H28107   7.963   8.333   9.770 -5.2610 -1.9791  2.1043
  971MOL0     H28108   7.740   8.299   9.724  0.5072  1.1419  0.3052
  971MOL0     H28109   7.531   8.267   9.645 -0.1939 -1.6386  0.9461
  971MOL0     H28110   7.595   8.105   9.672 -0.5034  0.9940  1.0634
  971MOL0     H28111   7.439   8.007   9.507  0.5193 -1.2045  0.0093
  971MOL0     H28112   7.371   8.167   9.479  0.8766 -0.5867 -0.4524
  971MOL0     H28113   7.307   8.197   9.734 -2.2614 -1.0242  1.6544
  971MOL0     H28114   7.389   8.056   9.752  1.3253  0.8846 -0.1632
  971MOL0     H28115   7.213   7.952   9.574  2.2132 -1.0245  3.0685
  971MOL0     H28116   7.152   7.987   9.729 -2.2903 -0.9613 -0.0765
  971MOL0     H28117   7.111   8.156   9.477 -0.4200 -0.5032 -1.1573
  971MOL0     H28118   7.062   8.219   9.634  2.5660  0.4582 -0.2168
  971MOL0     H28119   6.904   8.040   9.682 -1.1873 -0.0335  0.2965
  971MOL0     H28120   6.971   7.949   9.540  0.9329  1.3165 -0.8524
  971MOL0     H28121   6.894   8.107   9.379 -3.2550  0.3645 -2.3634
  971MOL0     H28122   6.764   8.014   9.458  0.5286 -0.9892 -1.1303
  971MOL0     H28123   6.852   8.304   9.478  2.0617 -1.5319  2.0370
  971MOL0     H28124   6.781   8.232   9.619  1.6529  0.0759 -0.0358
  971MOL0     H28125   6.637   8.444   9.347  3.3442 -0.2105  3.5024
  971MOL0     H28126   6.253   8.350   9.294 -1.3631  1.9631 -2.1514
  971MOL0     H28127   6.371   8.315   9.171 -0.4260  1.9268 -1.2005
  971MOL0     H28128   6.313   8.555   9.166  1.3293 -1.4426 -1.7591
  971MOL0     H28129   6.477   8.537   9.217 -0.1224  2.5266  0.5756
  971MOL0     H28130   6.242   8.615   9.384  0.1303 -1.0969  1.8734
  971MOL0     H28131   6.395   8.564   9.463 -1.3057 -2.8633 -1.5875
  971MOL0     H28132   6.361   8.795   9.272  0.9999  1.4569  0.2002
  971MOL0     H28133   6.514   8.747   9.339 -0.8369 -0.3325 -5.1228
  971MOL0     H28134   6.302   8.845   9.709  0.5973 -2.3972 -1.3482
  971MOL0     H28135   6.078   8.950   9.786 -1.1992 -2.6297  0.2563
  971MOL0     H28136   5.631   8.964   9.707  1.1711  1.6030  0.2207
  971MOL0     H28137   5.399   9.020   9.749  1.0997  0.8550  1.7778
  971MOL0     H28138   5.257   9.156   9.825 -0.8944 -2.8082  0.6814
  971MOL0     H28139   5.150   9.067   9.717  2.1439  0.4305 -2.3685
  971MOL0     H28140   5.004   9.275   9.686  1.9498  2.7176 -1.2033
  971MOL0     H28141   5.105   9.356   9.813 -0.5074  0.2042  1.3641
  971MOL0     H28142   4.922   9.283   9.914  0.5935 -0.9780  0.5633
  971MOL0     H28143   5.046   9.174   9.962  1.0204  2.5959  1.1869
  971MOL0     H28144   4.839   9.113   9.738 -0.3766 -1.5715 -0.5836
  971MOL0     H28145   4.970   8.999   9.792  0.6682 -0.2351  0.9172
  971MOL0     H28146   4.732   9.095   9.979  2.7531  0.3657  1.4652
  971MOL0     H28147   4.854   8.975  10.018  2.0216  0.3751 -0.7899
  971MOL0     H28148   4.782   8.832   9.839 -0.3492  0.9849  1.1646
  971MOL0     H28149   4.662   8.947   9.785  0.8020 -2.0676 -0.9758
  971MOL0     H28150   4.595   8.752   9.945  1.5253 -0.6911  0.4149
  971MOL0     H28151   4.672   8.845  10.067  0.5222  1.1869 -0.9576
  971MOL0     H28152   4.446   8.918   9.867  2.7085 -0.6429 -1.2494
  971MOL0     H28153   4.495   9.038   9.990  1.0826 -0.4674  0.8175
  971MOL0     H28154   5.420   9.349   9.474  1.3183 -0.6488 -2.6460
  971MOL0     H28155   5.631   9.281   9.409 -0.4531 -1.0799  0.1157
  971MOL0     H28156   5.967   9.004   9.368  1.3440  0.0478 -1.0890
  971MOL0     H28157   6.184   8.915   9.308  1.2122  1.2280 -0.1366
  971MOL0     H28158   7.838   8.195   9.314  2.7996  0.4325 -0.7737
  971MOL0     H28159   8.068   8.278   9.357 -1.1899  0.4014  0.1743
  971MOL0     H28160   8.370   8.464   9.519 -0.8460  3.3049  0.5604
  971MOL0     H28161   8.583   8.590   9.527 -2.9615 -0.6150 -2.7097
  971MOL0     H28162   8.781   8.779   9.657 -2.2917 -0.7410  1.2710
  971MOL0     H28163   8.792   8.650   9.544 -0.1462 -0.5409 -0.1294
  971MOL0     H28164   9.002   8.765   9.593 -5.4794  2.9673  0.8795
  971MOL0     H28165   8.991   8.717   9.766 -0.5390 -2.2135  0.6937
  971MOL0     H28166   9.030   8.513   9.537  3.9094  1.0857 -0.9416
  971MOL0     H28167   9.033   8.488   9.717 -1.2996  1.1376  0.9924
  971MOL0     H28168   9.218   8.653   9.531  0.9384 -0.1473  0.2659
  971MOL0     H28169   9.225   8.649   9.715 -0.7477  1.0594  0.0952
  971MOL0     H28170   9.445   8.315   9.640 -0.6726 -1.6690 -1.0245
  971MOL0     H28171   8.639   8.486   9.934  0.5448 -1.2569 -0.8044
  971MOL0     H28172   8.409   8.386   9.936  2.2083  2.1613  1.6414
  972MOL0     O28173   0.779   0.215   0.072 -0.1303  0.3216  0.6539
  972MOL0     C28174   0.829   0.191  -0.033  1.2814  0.4390  0.5364
  972MOL0     O28175   0.766   0.186  -0.157 -0.0197  0.7066  0.1791
  972MOL0     C28176   0.632   0.180  -0.150 -0.1241 -0.6792 -0.7630
  972MOL0     C28177   0.563   0.064  -0.139 -0.3228 -0.3050 -0.0016
  972MOL0     C28178   0.422   0.072  -0.143 -0.6994 -0.0853 -0.6234
  972MOL0     C28179   0.346   0.193  -0.145 -0.7870  0.1689  0.3872
  972MOL0     O28180   0.211   0.183  -0.136 -0.6871  0.4886 -0.2716
  972MOL0     C28181   0.142   0.312  -0.105 -0.0173  0.7748  0.1044
  972MOL0     C28182   0.103   0.382  -0.229  0.0473 -0.3660 -0.0837
  972MOL0     C28183   0.018   0.292  -0.326 -0.7309  0.1528  0.3077
  972MOL0     C28184  -0.003   0.360  -0.455  0.0811 -0.2453  0.2168
  972MOL0     C28185  -0.064   0.273  -0.563 -0.3157  0.3159 -0.0812
  972MOL0     C28186  -0.067   0.350  -0.691  0.4644 -0.1997 -0.1084
  972MOL0     C28187  -0.104   0.258  -0.804 -0.7947 -0.2733 -0.8074
  972MOL0     C28188  -0.212   0.164  -0.788 -0.5286  0.6697 -0.8014
  972MOL0     N28189  -0.339   0.234  -0.760  0.4814  0.6043 -0.0619
  972MOL0     C28190  -0.422   0.275  -0.861  0.6204 -0.1376  0.4808
  972MOL0     C28191  -0.528   0.334  -0.798 -0.4892 -0.2220 -0.3511
  972MOL0     C28192  -0.621   0.426  -0.863  0.3099 -0.1458  0.5802
  972MOL0     C28193  -0.756   0.369  -0.873  0.0246 -0.3688  0.2039
  972MOL0     C28194  -0.867   0.461  -0.911  0.0880  0.2302  0.1596
  972MOL0     C28195  -1.012   0.403  -0.880 -0.8742  0.4678  0.9717
  972MOL0     O28196  -1.099   0.519  -0.901 -0.5668 -0.3457  0.4549
  972MOL0     C28197  -1.230   0.509  -0.856 -0.4441 -0.2397  0.4138
  972MOL0     C28198  -1.296   0.405  -0.800  0.8249  0.0089  0.7861
  972MOL0     C28199  -1.428   0.421  -0.775  1.0891 -0.3994 -0.1409
  972MOL0     C28200  -1.501   0.537  -0.801 -0.7469 -0.4621 -0.0401
  972MOL0     C28201  -1.644   0.551  -0.760  0.0924 -0.3976 -0.0093
  972MOL0     O28202  -1.724   0.436  -0.752  0.2687  0.2667  0.5013
  972MOL0     C28203  -1.859   0.429  -0.717  0.2175 -0.0924  0.3855
  972MOL0     C28204  -1.896   0.315  -0.653 -0.5916  0.4328  1.3504
  972MOL0     C28205  -2.033   0.290  -0.613  0.2765  0.4695 -0.0501
  972MOL0     C28206  -2.126   0.401  -0.635 -0.2903  0.0796 -0.4185
  972MOL0     O28207  -2.259   0.395  -0.606  0.1750  0.5633  0.1956
  972MOL0     C28208  -2.318   0.273  -0.578 -0.1505  0.2402 -0.2409
  972MOL0     C28209  -2.465   0.268  -0.603  0.2792  0.3686 -0.1136
  972MOL0     C28210  -2.528   0.141  -0.543  0.0329  0.7132  0.4955
  972MOL0     C28211  -2.681   0.135  -0.535  1.0578  0.1777  0.1180
  972MOL0     C28212  -2.750   0.174  -0.675 -0.0610  0.0111 -0.4025
  972MOL0     C28213  -2.891   0.214  -0.649  1.2408 -0.4170  0.5100
  972MOL0     C28214  -2.910   0.371  -0.642 -0.5668 -0.8276 -0.2323
  972MOL0     C28215  -2.829   0.438  -0.526  0.0999  0.4065  0.0104
  972MOL0    Cl28216  -2.893   0.405  -0.357  0.5032 -0.1753  0.4147
  972MOL0     C28217  -2.088   0.519  -0.705 -0.1750 -0.5921  0.9381
  972MOL0     C28218  -1.953   0.531  -0.741  0.8271  0.5460  0.2225
  972MOL0     O28219  -1.689   0.672  -0.754 -0.5855  0.6322 -0.3659
  972MOL0     C28220  -1.432   0.643  -0.859  0.7896  0.0755 -0.2716
  972MOL0     C28221  -1.299   0.622  -0.887  0.7024  0.2319  0.5985
  972MOL0     N28222  -0.506   0.313  -0.659  0.3590 -0.3136 -0.4189
  972MOL0     N28223  -0.395   0.250  -0.643  1.1071 -0.5860  0.2277
  972MOL0     C28224   0.418   0.309  -0.155 -0.4568  0.0269 -0.3284
  972MOL0     C28225   0.556   0.298  -0.158 -0.0298 -0.3033  0.2564
  972MOL0     C28226   0.980   0.182  -0.035  0.1236  0.0743 -1.1389
  972MOL0     C28227   1.053   0.184  -0.161 -0.0198  0.1632 -0.3494
  972MOL0     C28228   1.187   0.182  -0.154  0.3595 -0.0194  0.0967
  972MOL0     C28229   1.262   0.203  -0.035 -0.4068  0.1340  0.0937
  972MOL0     O28230   1.393   0.211  -0.042  0.9188 -0.1444  0.2330
  972MOL0     C28231   1.441   0.326   0.036  0.2473  0.6879 -0.3739
  972MOL0     C28232   1.550   0.277   0.132  0.7858 -0.2944  0.7555
  972MOL0     C28233   1.584   0.366   0.253 -0.4658 -0.4719  1.1320
  972MOL0     C28234   1.463   0.367   0.348  0.0427  0.7868 -0.5201
  972MOL0     C28235   1.473   0.471   0.444 -0.9347 -0.3980 -0.1762
  972MOL0     C28236   1.482   0.558   0.526 -0.5218 -0.5416 -0.1374
  972MOL0     C28237   1.189   0.198   0.090 -0.0050 -0.5779 -0.3932
  972MOL0     C28238   1.054   0.188   0.087  0.1358 -1.1485  0.5938
  972MOL0     H28239   0.635  -0.016  -0.124 -0.2927 -0.1570  0.6365
  972MOL0     H28240   0.368  -0.021  -0.132 -2.8935  0.9630 -1.7253
  972MOL0     H28241   0.204   0.380  -0.045  1.1451  1.2221 -1.5430
  972MOL0     H28242   0.050   0.294  -0.048 -0.5739  3.1342  0.0530
  972MOL0     H28243   0.192   0.415  -0.283 -0.8419  0.4575 -1.0733
  972MOL0     H28244   0.040   0.470  -0.213 -0.5567 -0.8880  0.5230
  972MOL0     H28245  -0.077   0.263  -0.281  1.3518 -1.8691  3.7827
  972MOL0     H28246   0.078   0.202  -0.341 -0.6993  0.1301  0.5657
  972MOL0     H28247  -0.067   0.442  -0.422  2.7804  1.3880  1.8549
  972MOL0     H28248   0.092   0.408  -0.482  1.1141 -1.2357  1.8738
  972MOL0     H28249  -0.158   0.225  -0.535  0.0998 -2.2764 -2.7126
  972MOL0     H28250   0.007   0.191  -0.568 -0.5597 -0.0817  2.1800
  972MOL0     H28251   0.035   0.384  -0.713  1.8271 -3.1436  1.0199
  972MOL0     H28252  -0.143   0.428  -0.683 -0.1610 -0.7616 -0.4478
  972MOL0     H28253  -0.136   0.322  -0.887 -0.7950 -3.6673 -3.6536
  972MOL0     H28254  -0.013   0.201  -0.823 -0.0184  0.4916  0.4437
  972MOL0     H28255  -0.193   0.093  -0.707 -0.0215  1.4344 -0.2314
  972MOL0     H28256  -0.229   0.108  -0.880 -0.9804  1.9543 -1.5174
  972MOL0     H28257  -0.401   0.288  -0.966 -0.4731 -0.5695  0.2037
  972MOL0     H28258  -0.592   0.459  -0.963  0.9600 -0.7332  0.5639
  972MOL0     H28259  -0.640   0.509  -0.795  1.0122 -1.3270  2.3034
  972MOL0     H28260  -0.783   0.339  -0.771  2.6322  0.9075  1.3859
  972MOL0     H28261  -0.760   0.279  -0.935  0.7411  0.2029 -0.6908
  972MOL0     H28262  -0.858   0.551  -0.850  1.0874 -0.2811  0.8183
  972MOL0     H28263  -0.861   0.484  -1.018  1.4160 -0.6947  0.0010
  972MOL0     H28264  -1.009   0.362  -0.779  0.5044 -1.7860  0.0914
  972MOL0     H28265  -1.045   0.338  -0.961 -2.1106  2.4887 -0.2490
  972MOL0     H28266  -1.248   0.309  -0.785  0.6927 -0.2478 -0.3273
  972MOL0     H28267  -1.475   0.333  -0.733 -0.6468 -0.5842 -2.2556
  972MOL0     H28268  -1.815   0.245  -0.634 -0.8369  0.2802  1.8644
  972MOL0     H28269  -2.059   0.199  -0.561  0.6779  0.7378  0.6389
  972MOL0     H28270  -2.293   0.237  -0.478 -0.2978  1.4909  0.2604
  972MOL0     H28271  -2.281   0.195  -0.646  1.8071  1.5906 -0.8055
  972MOL0     H28272  -2.485   0.266  -0.711  0.4317  0.1011 -0.1370
  972MOL0     H28273  -2.511   0.358  -0.562  1.3809 -0.2675  2.6875
  972MOL0     H28274  -2.483   0.128  -0.445  2.5613 -0.9275 -0.7790
  972MOL0     H28275  -2.514   0.063  -0.618  2.7090  2.4771 -1.0281
  972MOL0     H28276  -2.707   0.034  -0.503 -0.3782  0.1895 -0.9297
  972MOL0     H28277  -2.714   0.209  -0.461  1.1730  0.0970  0.2512
  972MOL0     H28278  -2.746   0.084  -0.738 -0.2479  0.2317 -0.7294
  972MOL0     H28279  -2.697   0.258  -0.718 -1.4137  0.5231 -1.1267
  972MOL0     H28280  -2.927   0.168  -0.557  1.7562 -1.9787 -0.0524
  972MOL0     H28281  -2.952   0.188  -0.736 -0.9007  3.1148  0.7194
  972MOL0     H28282  -2.864   0.412  -0.732 -0.0029  1.0609  0.8422
  972MOL0     H28283  -3.013   0.409  -0.635  0.0085  0.7990  0.0175
  972MOL0     H28284  -2.838   0.545  -0.548 -0.4221  0.1071 -1.3776
  972MOL0     H28285  -2.722   0.417  -0.527  0.2226  0.7952  1.8785
  972MOL0     H28286  -2.157   0.602  -0.719 -1.8980 -1.7391  2.1562
  972MOL0     H28287  -1.922   0.617  -0.799  1.3860  0.0055 -0.2991
  972MOL0     H28288  -1.479   0.740  -0.866  0.9039  0.1275 -0.3258
  972MOL0     H28289  -1.239   0.702  -0.929 -1.1097  1.1101 -0.4243
  972MOL0     H28290   0.381   0.411  -0.161 -2.8929 -0.8388 -1.6800
  972MOL0     H28291   0.617   0.386  -0.176  0.9872 -1.1457 -0.5006
  972MOL0     H28292   0.997   0.180  -0.254  0.0666  0.4536 -0.4167
  972MOL0     H28293   1.242   0.172  -0.247 -3.1078 -0.0443 -2.1499
  972MOL0     H28294   1.373   0.389   0.095 -0.2483 -0.3838  0.2256
  972MOL0     H28295   1.481   0.403  -0.030  1.7718  1.0588  0.9137
  972MOL0     H28296   1.517   0.176   0.158  1.1628 -1.4909 -2.8024
  972MOL0     H28297   1.643   0.267   0.075  0.6191  0.3154  0.3628
  972MOL0     H28298   1.597   0.467   0.214  0.1847 -1.6904 -2.1511
  972MOL0     H28299   1.676   0.333   0.302  1.5238  0.5780 -1.6261
  972MOL0     H28300   1.366   0.361   0.297  0.0476 -2.1282 -0.3539
  972MOL0     H28301   1.469   0.274   0.405  0.6099  1.6434  0.8680
  972MOL0     H28302   1.506   0.630   0.602  1.6022 -1.4264  0.1034
  972MOL0     H28303   1.231   0.209   0.190 -2.0738 -1.9411  0.6994
  972MOL0     H28304   1.003   0.194   0.183 -0.7747 -0.3439  0.0826
  973MOL0     O28305   4.210  10.143   0.013 -0.2216  0.1784 -0.0302
  973MOL0     C28306   4.270  10.243   0.045 -0.4393 -1.3403 -0.0460
  973MOL0     O28307   4.220  10.369   0.071 -0.3142  0.0607 -0.0924
  973MOL0     C28308   4.086  10.397   0.087  0.1803 -0.1029  0.6867
  973MOL0     C28309   3.990  10.307   0.131 -0.2678 -0.2610 -0.0947
  973MOL0     C28310   3.863  10.352   0.146 -0.4355 -0.4649 -0.1796
  973MOL0     C28311   3.831  10.488   0.136  0.5613  0.8164  0.1671
  973MOL0     O28312   3.708  10.529   0.174  0.0465  0.1017  0.2548
  973MOL0     C28313   3.587  10.466   0.134  0.4544  0.1871 -0.4409
  973MOL0     C28314   3.483  10.584   0.099  0.2370 -0.1750 -0.1372
  973MOL0     C28315   3.342  10.515   0.086 -0.1449  0.7823 -0.4315
  973MOL0     C28316   3.234  10.600   0.010 -0.4656  0.2817  0.1627
  973MOL0     C28317   3.094  10.535   0.018  0.2997  0.4236 -0.1478
  973MOL0     C28318   3.091  10.383  -0.030 -0.4441 -0.0333 -0.7507
  973MOL0     C28319   2.940  10.325  -0.049  0.0341  0.0941  0.3506
  973MOL0     C28320   2.863  10.300   0.079 -0.3512 -0.2970  0.4218
  973MOL0     N28321   2.730  10.260   0.046 -0.1346  0.9475 -0.7061
  973MOL0     C28322   2.632  10.346   0.008  0.4704 -0.5782  0.0280
  973MOL0     C28323   2.523  10.265  -0.021  0.0140  0.0827 -0.0392
  973MOL0     C28324   2.390  10.297  -0.093 -0.1501 -0.5774 -0.6483
  973MOL0     C28325   2.387  10.440  -0.160 -0.1300 -0.0908 -0.3404
  973MOL0     C28326   2.312  10.542  -0.069 -0.1959 -0.4380  0.4391
  973MOL0     C28327   2.261  10.661  -0.140  0.5998 -0.6133  0.0270
  973MOL0     O28328   2.145  10.646  -0.226 -0.4783  0.2348  0.4267
  973MOL0     C28329   2.013  10.633  -0.179  0.0249 -0.1081 -0.8851
  973MOL0     C28330   1.912  10.621  -0.273 -0.0556 -0.1154 -0.3728
  973MOL0     C28331   1.783  10.594  -0.237 -0.5007  0.6561 -0.8739
  973MOL0     C28332   1.742  10.596  -0.096 -0.0903 -0.0007 -0.0401
  973MOL0     C28333   1.610  10.557  -0.054  0.2276 -0.0171 -0.2894
  973MOL0     O28334   1.507  10.570  -0.145 -0.1757 -0.2990 -0.0418
  973MOL0     C28335   1.380  10.580  -0.096  1.0328  0.0176  0.7901
  973MOL0     C28336   1.261  10.528  -0.157 -0.3214  0.4336  0.4973
  973MOL0     C28337   1.130  10.558  -0.115  0.2398 -0.1953  0.3228
  973MOL0     C28338   1.113  10.626   0.000  0.3907 -0.2928 -0.7345
  973MOL0     O28339   0.985  10.640   0.054 -1.1483 -0.2503 -0.0558
  973MOL0     C28340   0.976  10.647   0.200  0.4912  0.9307 -0.0312
  973MOL0     C28341   0.831  10.681   0.247 -0.0785  1.1446  0.3124
  973MOL0     C28342   0.730  10.582   0.204  0.5005  0.2351 -0.0640
  973MOL0     C28343   0.595  10.645   0.256  0.7881  0.3681 -0.0469
  973MOL0     C28344   0.476  10.551   0.236  0.1808 -0.3387  0.2635
  973MOL0     C28345   0.343  10.614   0.268 -1.3448 -0.4615  0.0540
  973MOL0     C28346   0.221  10.520   0.242 -0.1088  0.2076  0.2890
  973MOL0     C28347   0.090  10.601   0.264  0.5665 -1.3479 -0.0913
  973MOL0    Cl28348   0.065  10.652   0.436  0.2183  0.2486 -0.1395
  973MOL0     C28349   1.228  10.677   0.062  0.7534  0.6786 -0.1660
  973MOL0     C28350   1.354  10.662   0.004  0.1538  0.5061 -0.2138
  973MOL0     O28351   1.596  10.527   0.064 -0.7928  0.3138  0.4252
  973MOL0     C28352   1.839  10.616  -0.000 -0.0565 -0.6208  0.4698
  973MOL0     C28353   1.979  10.628  -0.037  0.5754  0.3791 -0.0999
  973MOL0     N28354   2.561  10.140   0.007  0.3859 -0.1312 -0.4127
  973MOL0     N28355   2.685  10.130   0.060 -0.0234 -0.2208  0.8784
  973MOL0     C28356   3.933  10.582   0.103  0.6001  0.3169  0.9198
  973MOL0     C28357   4.055  10.532   0.065 -0.5696  0.2386 -0.8411
  973MOL0     C28358   4.421  10.239   0.051 -0.2546 -0.3353 -0.1731
  973MOL0     C28359   4.489  10.118   0.017  0.1548 -1.4680 -0.2682
  973MOL0     C28360   4.633  10.120   0.010 -0.0633 -0.6652 -0.3184
  973MOL0     C28361   4.704  10.239   0.049  0.2852  0.0404 -0.6803
  973MOL0     O28362   4.846  10.227   0.044  0.6547 -0.6137  0.0985
  973MOL0     C28363   4.925  10.338   0.090 -0.0022 -0.4890 -0.8411
  973MOL0     C28364   5.064  10.275   0.081 -0.7344  0.0122  0.0670
  973MOL0     C28365   5.074  10.145   0.164 -0.2301 -0.0519  0.7610
  973MOL0     C28366   5.216  10.083   0.150 -0.2855 -0.2220 -0.6492
  973MOL0     C28367   5.298  10.156   0.252  0.2890  1.0338  0.0127
  973MOL0     C28368   5.369  10.198   0.337  0.1959 -0.4820 -0.4987
  973MOL0     C28369   4.634  10.347   0.089  0.2116 -0.6801  0.5045
  973MOL0     C28370   4.492  10.353   0.088  0.2792  0.2948 -0.6136
  973MOL0     H28371   4.007  10.203   0.158  1.9258 -0.2783 -1.2999
  973MOL0     H28372   3.785  10.286   0.181 -0.4535  0.4058  1.5731
  973MOL0     H28373   3.542  10.402   0.210 -1.4685  0.9424 -0.8617
  973MOL0     H28374   3.598  10.404   0.044  3.0551 -1.7704  1.0960
  973MOL0     H28375   3.523  10.612   0.001  1.8346 -2.1434 -0.1119
  973MOL0     H28376   3.476  10.669   0.167 -0.6001  0.7780 -1.3747
  973MOL0     H28377   3.301  10.483   0.182 -1.3733  3.9354  0.1999
  973MOL0     H28378   3.365  10.433   0.017 -1.6048  0.8565 -1.0480
  973MOL0     H28379   3.230  10.699   0.055 -1.4051  0.4707 -0.3081
  973MOL0     H28380   3.253  10.611  -0.097 -4.5560  2.3697 -0.5491
  973MOL0     H28381   3.025  10.592  -0.044  1.1122  1.6036 -0.0102
  973MOL0     H28382   3.065  10.531   0.124  1.6837 -1.0280  0.2197
  973MOL0     H28383   3.144  10.325   0.046 -0.3854  2.2724  1.0988
  973MOL0     H28384   3.146  10.372  -0.123  0.2065 -1.3966 -0.2252
  973MOL0     H28385   2.877  10.382  -0.117 -3.1623 -0.1444  2.8673
  973MOL0     H28386   2.953  10.226  -0.094  0.5513  0.6210 -0.6872
  973MOL0     H28387   2.853  10.390   0.141 -1.0973 -0.4920  0.5934
  973MOL0     H28388   2.909  10.219   0.137  1.1605  0.8602  0.9169
  973MOL0     H28389   2.647  10.453   0.004  1.1289 -0.6718 -0.0324
  973MOL0     H28390   2.309  10.290  -0.020 -0.4227 -0.0920 -0.8970
  973MOL0     H28391   2.381  10.221  -0.172 -0.1579 -1.5921  0.3012
  973MOL0     H28392   2.332  10.438  -0.254  0.7951  2.8092 -1.0672
  973MOL0     H28393   2.483  10.482  -0.193 -0.3769 -0.4970 -1.5974
  973MOL0     H28394   2.220  10.489  -0.041  1.2605 -2.3494  1.9188
  973MOL0     H28395   2.370  10.578   0.017 -0.1539  4.0456 -1.2062
  973MOL0     H28396   2.338  10.700  -0.207 -0.2829  0.2548 -0.5185
  973MOL0     H28397   2.234  10.741  -0.070  0.9264  0.3466 -0.9181
  973MOL0     H28398   1.938  10.618  -0.378 -0.2036  1.2258 -0.4555
  973MOL0     H28399   1.721  10.558  -0.318 -4.5626 -3.1264  3.2720
  973MOL0     H28400   1.257  10.454  -0.237 -1.6645  1.2639 -0.2401
  973MOL0     H28401   1.049  10.514  -0.172  1.9299  0.2274 -2.6327
  973MOL0     H28402   1.047  10.723   0.233  1.7414  1.2650 -3.1016
  973MOL0     H28403   1.001  10.543   0.220  1.9524  1.4458  0.9860
  973MOL0     H28404   0.808  10.777   0.199 -1.5430  0.2534 -0.8514
  973MOL0     H28405   0.827  10.692   0.355  1.5594 -1.7195  0.7932
  973MOL0     H28406   0.750  10.479   0.235 -2.7994 -0.1527  1.1811
  973MOL0     H28407   0.713  10.574   0.097 -0.3956 -1.4024  0.1651
  973MOL0     H28408   0.599  10.657   0.365 -0.1083  1.8200 -0.1606
  973MOL0     H28409   0.572  10.743   0.215 -3.1381 -0.8375 -1.1487
  973MOL0     H28410   0.499  10.455   0.283  0.4920  0.0440  0.8971
  973MOL0     H28411   0.465  10.520   0.131 -0.8080  0.3097  0.1610
  973MOL0     H28412   0.321  10.705   0.213  1.4408 -0.6270 -1.5089
  973MOL0     H28413   0.344  10.631   0.376 -0.3486  1.4357 -0.2203
  973MOL0     H28414   0.228  10.483   0.139 -0.1377 -0.2855  0.4620
  973MOL0     H28415   0.223  10.440   0.316  5.0711  2.9982  3.7463
  973MOL0     H28416  -0.001  10.554   0.226 -0.8752  3.3471 -3.3472
  973MOL0     H28417   0.102  10.691   0.202  0.2449 -0.4601  1.1052
  973MOL0     H28418   1.229  10.742   0.149 -2.6498 -0.4223  0.8217
  973MOL0     H28419   1.438  10.717   0.043 -0.3757  0.0023  1.7362
  973MOL0     H28420   1.827  10.620   0.108 -2.5145 -1.2905  0.2744
  973MOL0     H28421   2.042  10.648   0.050 -2.2366 -1.5865  2.6187
  973MOL0     H28422   3.904  10.686   0.096  0.6556  0.4540  2.5088
  973MOL0     H28423   4.130  10.594   0.017 -0.4709 -0.6325 -1.8480
  973MOL0     H28424   4.434  10.029  -0.010 -0.3054 -1.9756  2.1077
  973MOL0     H28425   4.700  10.038  -0.015  0.7937 -0.2856  0.6293
  973MOL0     H28426   4.892  10.369   0.189 -4.2439  0.6079 -2.3591
  973MOL0     H28427   4.910  10.427   0.029 -4.0210  2.7029  4.0602
  973MOL0     H28428   5.091  10.243  -0.020 -0.2897  1.4679 -0.2970
  973MOL0     H28429   5.138  10.338   0.132 -0.8810  0.9769 -0.8739
  973MOL0     H28430   5.000  10.071   0.134 -0.7506 -0.1541  2.2378
  973MOL0     H28431   5.052  10.165   0.269  0.5309 -2.6423  1.4819
  973MOL0     H28432   5.213   9.976   0.172 -0.4867 -0.5344 -2.0757
  973MOL0     H28433   5.268  10.101   0.055  0.2581  1.4575 -0.0707
  973MOL0     H28434   5.433  10.238   0.413 -1.5675  0.4444  0.5716
  973MOL0     H28435   4.696  10.432   0.115 -1.6339  1.1160 -0.6456
  973MOL0     H28436   4.434  10.434   0.133  0.1034 -0.6124  0.8688
  974MOL0     O28437   6.130   3.127   4.980  1.1871  0.4840  0.2097
  974MOL0     C28438   6.185   3.169   5.079 -0.1998 -0.2369  0.0715
  974MOL0     O28439   6.155   3.282   5.154  0.9836  0.4115  0.0627
  974MOL0     C28440   6.028   3.332   5.128 -0.9132  0.3062 -0.6433
  974MOL0     C28441   5.932   3.330   5.232  0.6352 -0.7810 -0.2604
  974MOL0     C28442   5.809   3.402   5.197 -0.0318  0.2798  0.1266
  974MOL0     C28443   5.787   3.470   5.079  0.7048  0.8010  0.4237
  974MOL0     O28444   5.672   3.536   5.067 -0.1157  0.0800 -0.6004
  974MOL0     C28445   5.620   3.580   4.943  1.5551 -0.4418  0.2723
  974MOL0     C28446   5.506   3.673   4.941  0.6087 -0.9297 -0.2836
  974MOL0     C28447   5.480   3.753   4.807 -0.1475 -0.3687 -0.3966
  974MOL0     C28448   5.339   3.832   4.816  0.7817  0.1561  0.7343
  974MOL0     C28449   5.214   3.744   4.807  0.2423  1.4432 -0.5124
  974MOL0     C28450   5.090   3.822   4.838 -0.4396  0.1464  0.1006
  974MOL0     C28451   4.966   3.733   4.839 -0.4648  0.3387  0.4844
  974MOL0     C28452   4.849   3.807   4.911 -0.0590  0.5762  0.1161
  974MOL0     N28453   4.717   3.813   4.851  0.5629 -1.0233  0.0848
  974MOL0     C28454   4.624   3.710   4.840 -0.4126  0.3303 -0.3092
  974MOL0     C28455   4.506   3.771   4.817 -0.1326 -0.6414  0.0367
  974MOL0     C28456   4.376   3.704   4.809  0.2660 -0.3533 -0.3843
  974MOL0     C28457   4.281   3.733   4.931  0.0975 -0.0237  0.0307
  974MOL0     C28458   4.148   3.767   4.871  0.0694 -0.4494 -0.2200
  974MOL0     C28459   4.047   3.848   4.962  0.4516  0.1645  0.8715
  974MOL0     O28460   3.923   3.859   4.894 -0.5313 -0.4556  0.5930
  974MOL0     C28461   3.817   3.827   4.963 -0.9267 -0.5359 -1.0462
  974MOL0     C28462   3.795   3.878   5.092  0.1436 -0.2966  0.0208
  974MOL0     C28463   3.673   3.871   5.157 -0.2001 -0.1765 -0.0881
  974MOL0     C28464   3.583   3.781   5.106 -0.2840 -1.6903 -0.1417
  974MOL0     C28465   3.453   3.756   5.168 -0.6698 -0.5864 -0.3336
  974MOL0     O28466   3.411   3.862   5.240 -0.6673 -0.6821  0.2600
  974MOL0     C28467   3.271   3.871   5.281  0.6920 -0.3364  0.5797
  974MOL0     C28468   3.162   3.815   5.201  0.6130 -0.6216 -0.1370
  974MOL0     C28469   3.036   3.804   5.255 -1.1890  0.0691  0.4322
  974MOL0     C28470   3.005   3.847   5.376  0.1314 -0.1623 -0.1349
  974MOL0     O28471   2.882   3.837   5.432  0.3220  0.0434 -0.9518
  974MOL0     C28472   2.762   3.818   5.345 -0.0148 -0.3906  0.2645
  974MOL0     C28473   2.654   3.907   5.392  0.1351 -0.8417  0.6786
  974MOL0     C28474   2.621   3.876   5.526  0.4492 -0.4163  0.3631
  974MOL0     C28475   2.475   3.925   5.558 -0.5926 -0.2322  0.4395
  974MOL0     C28476   2.421   3.882   5.694 -0.3575  0.8341  0.3052
  974MOL0     C28477   2.313   3.968   5.756 -0.8914 -0.2870  0.1470
  974MOL0     C28478   2.192   3.957   5.666  0.0364  0.2313  0.1126
  974MOL0     C28479   2.067   4.017   5.737  0.9386  0.6766 -0.1809
  974MOL0    Cl28480   1.918   4.046   5.621 -0.3004  0.0960  0.2350
  974MOL0     C28481   3.104   3.919   5.450  0.3121 -0.0368 -0.4271
  974MOL0     C28482   3.236   3.921   5.406 -0.3547 -0.8105  0.2840
  974MOL0     O28483   3.391   3.658   5.148  0.2704 -0.1832 -0.1791
  974MOL0     C28484   3.603   3.730   4.974 -0.4018 -0.7512 -0.5575
  974MOL0     C28485   3.720   3.755   4.900 -0.0628  0.1263  0.3215
  974MOL0     N28486   4.521   3.909   4.830 -0.0560  0.5931  0.7576
  974MOL0     N28487   4.647   3.937   4.857  0.5144  0.9249 -0.4579
  974MOL0     C28488   5.883   3.466   4.979 -0.1356  0.4639 -0.0692
  974MOL0     C28489   6.005   3.396   5.012  1.0247 -0.5631  0.2760
  974MOL0     C28490   6.300   3.080   5.130  0.4184  1.5651 -0.5344
  974MOL0     C28491   6.374   2.996   5.045  1.0569 -0.8696 -0.0387
  974MOL0     C28492   6.466   2.911   5.086 -0.4678  0.0575 -0.2639
  974MOL0     C28493   6.494   2.899   5.219  0.1801 -0.0337  0.3286
  974MOL0     O28494   6.559   2.784   5.260  0.1811 -0.3605  0.0574
  974MOL0     C28495   6.692   2.802   5.301 -0.5363  1.2649 -0.2550
  974MOL0     C28496   6.785   2.807   5.171  0.6194 -0.3764 -0.8527
  974MOL0     C28497   6.806   2.661   5.134  0.4672 -0.3725 -0.1879
  974MOL0     C28498   6.931   2.657   5.039 -0.6366 -0.4045  0.3768
  974MOL0     C28499   7.059   2.660   5.119  1.5928  0.0722 -0.0376
  974MOL0     C28500   7.169   2.638   5.164 -0.0756 -0.0282 -0.9014
  974MOL0     C28501   6.438   3.000   5.302  1.0847  0.0248  0.6308
  974MOL0     C28502   6.345   3.091   5.264  0.7882  0.4379 -0.2461
  974MOL0     H28503   5.959   3.280   5.324  1.0270  0.7484  0.4715
  974MOL0     H28504   5.738   3.409   5.278 -1.9559  1.6906 -1.5768
  974MOL0     H28505   5.581   3.490   4.895  0.3261  0.3510 -0.2683
  974MOL0     H28506   5.702   3.629   4.889  0.7429  1.0491  0.3497
  974MOL0     H28507   5.532   3.752   5.012  0.0275 -0.9070 -0.0922
  974MOL0     H28508   5.413   3.618   4.954  1.3300 -2.2228 -0.5056
  974MOL0     H28509   5.485   3.676   4.730  3.1502 -2.4202  1.6200
  974MOL0     H28510   5.561   3.825   4.795  1.3478 -2.3360 -3.3135
  974MOL0     H28511   5.342   3.887   4.911  4.2409  0.8657  0.3767
  974MOL0     H28512   5.318   3.904   4.737  0.4963 -1.8378 -1.1010
  974MOL0     H28513   5.224   3.654   4.868 -0.1847 -0.4436 -3.0932
  974MOL0     H28514   5.194   3.702   4.708  0.4552 -3.4787  1.2694
  974MOL0     H28515   5.067   3.910   4.778 -0.3448 -0.3301 -0.6507
  974MOL0     H28516   5.111   3.864   4.937 -2.2402  0.4757  0.3805
  974MOL0     H28517   4.935   3.710   4.736  1.7450  0.3116 -0.2285
  974MOL0     H28518   4.987   3.636   4.884 -1.1748 -0.8909 -1.6609
  974MOL0     H28519   4.882   3.906   4.945  2.7851  0.0211 -0.7928
  974MOL0     H28520   4.834   3.746   5.001 -1.5136 -0.3289 -0.7024
  974MOL0     H28521   4.634   3.602   4.848 -2.2436  0.1628  0.2547
  974MOL0     H28522   4.397   3.596   4.806  1.0867 -0.1775 -1.3637
  974MOL0     H28523   4.335   3.724   4.710 -0.0605 -0.3746 -0.2549
  974MOL0     H28524   4.314   3.823   4.984 -0.9775  0.1900  0.3578
  974MOL0     H28525   4.275   3.649   5.001  3.3926  0.6930  1.3820
  974MOL0     H28526   4.152   3.820   4.775 -0.5257 -1.1653 -0.6577
  974MOL0     H28527   4.090   3.676   4.854 -1.0567  0.7986 -4.6736
  974MOL0     H28528   4.068   3.953   4.985  2.5803 -0.3933  1.7984
  974MOL0     H28529   4.047   3.792   5.057  1.1887  1.1659  1.4758
  974MOL0     H28530   3.869   3.947   5.132 -0.1362 -0.5255  0.9517
  974MOL0     H28531   3.647   3.922   5.249 -2.4173 -3.0762  1.0099
  974MOL0     H28532   3.179   3.784   5.098  0.5317  0.2896 -0.4267
  974MOL0     H28533   2.964   3.756   5.190 -0.9594  0.1887  0.0897
  974MOL0     H28534   2.738   3.711   5.343  1.0277 -0.6201 -1.0706
  974MOL0     H28535   2.795   3.844   5.244  1.6388 -2.9340  0.0629
  974MOL0     H28536   2.566   3.887   5.330 -0.6441  1.2875  1.0034
  974MOL0     H28537   2.680   4.012   5.375 -3.4505 -0.0737 -0.9834
  974MOL0     H28538   2.694   3.917   5.596  1.5050 -2.0908  0.3035
  974MOL0     H28539   2.632   3.768   5.540  1.4747 -0.3832 -0.0586
  974MOL0     H28540   2.477   4.034   5.560  1.1271 -0.2552  2.7252
  974MOL0     H28541   2.401   3.895   5.483 -2.6168 -1.4412  2.7807
  974MOL0     H28542   2.505   3.882   5.764 -0.6599 -0.5965  0.6959
  974MOL0     H28543   2.381   3.781   5.679 -0.7814  1.1570 -0.8513
  974MOL0     H28544   2.352   4.070   5.762  0.3759 -0.7451  0.0049
  974MOL0     H28545   2.294   3.943   5.861 -0.9535  2.4223  0.8533
  974MOL0     H28546   2.210   4.007   5.570 -1.2593  1.3767  0.4335
  974MOL0     H28547   2.187   3.849   5.650 -0.0447 -0.2202  2.7036
  974MOL0     H28548   2.099   4.117   5.767 -2.0654  1.3651  1.0973
  974MOL0     H28549   2.041   3.956   5.823 -1.2188 -0.5538 -1.6052
  974MOL0     H28550   3.081   3.957   5.549 -1.0312 -2.3185  0.2095
  974MOL0     H28551   3.308   3.966   5.474 -2.5859  1.2351  1.4536
  974MOL0     H28552   3.531   3.653   4.949 -2.1723  0.3468  0.9652
  974MOL0     H28553   3.738   3.719   4.799  2.0500  0.8359  0.3908
  974MOL0     H28554   5.856   3.503   4.881 -1.6447  1.0839  0.5434
  974MOL0     H28555   6.083   3.404   4.938 -0.8450  1.6104 -1.6570
  974MOL0     H28556   6.340   2.986   4.942 -2.8752 -0.7484  1.0829
  974MOL0     H28557   6.504   2.841   5.012 -0.2102  0.4496 -0.5083
  974MOL0     H28558   6.725   2.715   5.359  1.1269  1.6889 -0.4989
  974MOL0     H28559   6.723   2.890   5.358 -3.1473  1.5204  0.8704
  974MOL0     H28560   6.722   2.853   5.093 -2.9665  0.5015  2.2421
  974MOL0     H28561   6.871   2.869   5.197 -2.6886  3.6213  1.8933
  974MOL0     H28562   6.720   2.623   5.079  0.4491 -2.5309  1.2371
  974MOL0     H28563   6.836   2.600   5.219 -0.4398  0.1744  0.5476
  974MOL0     H28564   6.935   2.560   4.988  0.6184 -0.8157  1.2096
  974MOL0     H28565   6.920   2.731   4.959 -2.4572  0.8797  1.7311
  974MOL0     H28566   7.260   2.606   5.211 -0.9098 -1.3467 -0.1045
  974MOL0     H28567   6.480   2.988   5.401  0.7070 -0.8153  0.7061
  974MOL0     H28568   6.297   3.150   5.341 -2.3922 -2.8520  0.6109
  975MOL0     O28569   0.078   2.597   7.126  0.2554 -0.9200  0.1211
  975MOL0     C28570   0.086   2.509   7.206 -0.2252  0.8229  0.3093
  975MOL0     O28571   0.036   2.508   7.330 -0.0147 -0.3681 -0.0944
  975MOL0     C28572  -0.036   2.626   7.367  0.1012  0.7683 -0.1087
  975MOL0     C28573   0.030   2.746   7.387  0.3436 -0.6433  0.0605
  975MOL0     C28574  -0.049   2.858   7.427  0.5520  0.8566 -0.5527
  975MOL0     C28575  -0.191   2.854   7.461  0.3514  0.6233  0.2976
  975MOL0     O28576  -0.244   2.967   7.524 -0.1934 -0.0214 -0.4869
  975MOL0     C28577  -0.385   2.977   7.506  0.6963 -0.1539 -0.4462
  975MOL0     C28578  -0.436   3.114   7.555 -0.4024  1.0209  0.0443
  975MOL0     C28579  -0.584   3.123   7.531  0.2081 -0.2202 -0.2078
  975MOL0     C28580  -0.641   3.250   7.601  0.9075  0.0019 -0.4637
  975MOL0     C28581  -0.798   3.259   7.594 -0.4860 -0.0763  0.5993
  975MOL0     C28582  -0.837   3.399   7.632  0.9332  0.1559 -0.2292
  975MOL0     C28583  -0.985   3.418   7.616 -0.8879 -0.1840  0.5656
  975MOL0     C28584  -1.073   3.334   7.698  0.1099  0.1774  0.1619
  975MOL0     N28585  -1.185   3.422   7.753 -0.6049 -0.1593 -0.0120
  975MOL0     C28586  -1.276   3.498   7.688 -0.6172 -0.0761  0.3218
  975MOL0     C28587  -1.351   3.558   7.786  0.3953  0.2972  0.6540
  975MOL0     C28588  -1.455   3.660   7.756  0.1279  0.8834 -0.6839
  975MOL0     C28589  -1.417   3.799   7.802  0.0446 -0.7562  0.1137
  975MOL0     C28590  -1.544   3.898   7.786 -0.1343  0.5023  0.7227
  975MOL0     C28591  -1.602   3.934   7.919 -0.0280  0.3998  0.6615
  975MOL0     O28592  -1.727   3.999   7.885 -0.0176  0.1355 -0.0599
  975MOL0     C28593  -1.810   4.028   7.990 -0.6495 -0.0693  0.1451
  975MOL0     C28594  -1.769   4.017   8.128  0.4284 -0.0823  0.4264
  975MOL0     C28595  -1.854   4.039   8.231  0.0775  0.4575  0.0843
  975MOL0     C28596  -1.983   4.083   8.209 -0.3166  0.6997  0.8513
  975MOL0     C28597  -2.081   4.107   8.319  0.1625  0.5896 -0.1953
  975MOL0     O28598  -2.029   4.137   8.442 -0.0393 -0.2168  0.7140
  975MOL0     C28599  -2.116   4.164   8.548 -0.1586 -0.6870  0.8574
  975MOL0     C28600  -2.088   4.096   8.666  0.0756  0.5502 -0.2661
  975MOL0     C28601  -2.162   4.125   8.782  0.3538 -0.1856  0.2747
  975MOL0     C28602  -2.255   4.236   8.784 -0.4382  0.3502  0.5994
  975MOL0     O28603  -2.340   4.252   8.888  0.1830  0.8260 -0.7718
  975MOL0     C28604  -2.400   4.132   8.937  1.3856  0.2580 -0.2882
  975MOL0     C28605  -2.530   4.174   9.005  0.3986 -0.5464  0.0702
  975MOL0     C28606  -2.653   4.222   8.931  0.0246 -0.5226  0.0103
  975MOL0     C28607  -2.760   4.293   9.017  0.4845 -0.2253 -0.4571
  975MOL0     C28608  -2.897   4.288   8.947 -0.5137 -0.2823 -0.9763
  975MOL0     C28609  -2.990   4.368   9.022  0.4970  0.8417  0.1084
  975MOL0     C28610  -3.136   4.381   8.961 -1.0601  0.1031  0.3966
  975MOL0     C28611  -3.231   4.287   9.036 -0.0707  0.2586  0.8690
  975MOL0    Cl28612  -3.404   4.312   8.956  0.2577 -0.1158  0.3887
  975MOL0     C28613  -2.263   4.320   8.668 -0.1663  0.4245  0.6888
  975MOL0     C28614  -2.189   4.283   8.551 -0.4408 -0.9273 -0.6461
  975MOL0     O28615  -2.200   4.092   8.294  0.4387 -0.4133  0.7266
  975MOL0     C28616  -2.025   4.099   8.072 -1.0664 -0.2531  0.1321
  975MOL0     C28617  -1.943   4.070   7.963 -1.2119  0.4633 -0.0740
  975MOL0     N28618  -1.303   3.517   7.906  0.0511 -0.3944  0.1651
  975MOL0     N28619  -1.207   3.439   7.888 -0.2905  0.0755 -0.0099
  975MOL0     C28620  -0.251   2.724   7.446 -0.6257  0.2879  0.2227
  975MOL0     C28621  -0.173   2.614   7.396  0.5773 -0.2283 -1.5009
  975MOL0     C28622   0.173   2.396   7.168 -0.0428 -0.2375  0.3956
  975MOL0     C28623   0.208   2.369   7.038  1.0130  0.7745  0.8341
  975MOL0     C28624   0.296   2.262   7.007  0.5722  0.4325  0.5288
  975MOL0     C28625   0.337   2.174   7.112 -0.1921 -0.0571  0.7484
  975MOL0     O28626   0.413   2.061   7.095  0.1134  0.4978 -0.3306
  975MOL0     C28627   0.422   1.991   6.977  1.0333 -0.8460 -0.7301
  975MOL0     C28628   0.295   1.919   6.939  0.6890  0.5704  0.9045
  975MOL0     C28629   0.219   1.869   7.064  0.0222 -0.4004  0.7462
  975MOL0     C28630   0.093   1.804   7.009  0.5480 -0.3889  0.5494
  975MOL0     C28631  -0.002   1.765   7.114 -0.5994  0.3204 -0.2652
  975MOL0     C28632  -0.080   1.761   7.209 -0.9813  0.7083 -0.5937
  975MOL0     C28633   0.300   2.204   7.243 -0.0045 -0.8724 -0.8182
  975MOL0     C28634   0.216   2.315   7.269 -0.5914 -0.1896  0.0405
  975MOL0     H28635   0.137   2.759   7.376  0.3699  1.1394  1.8627
  975MOL0     H28636  -0.001   2.955   7.439  1.1616  0.5341 -0.3754
  975MOL0     H28637  -0.438   2.892   7.551  0.3193  0.1452 -0.3239
  975MOL0     H28638  -0.403   2.978   7.398  1.3318 -1.6707 -0.5929
  975MOL0     H28639  -0.387   3.196   7.501 -1.3830  0.2195 -2.1699
  975MOL0     H28640  -0.424   3.127   7.663  0.9065 -1.7369  0.3058
  975MOL0     H28641  -0.630   3.036   7.579  0.3333  0.4589  1.1764
  975MOL0     H28642  -0.605   3.116   7.423  2.5274 -0.0140 -0.7313
  975MOL0     H28643  -0.609   3.250   7.706  1.0714  0.5712 -0.5078
  975MOL0     H28644  -0.608   3.334   7.539 -0.8101 -2.3423 -5.0792
  975MOL0     H28645  -0.840   3.190   7.668 -3.3865 -1.6714 -2.3232
  975MOL0     H28646  -0.834   3.235   7.494  0.1793  1.4774 -0.0440
  975MOL0     H28647  -0.794   3.463   7.555  2.6998  1.6017  1.8139
  975MOL0     H28648  -0.801   3.416   7.734  0.7104 -0.8047  0.0172
  975MOL0     H28649  -0.997   3.521   7.653 -1.0717 -0.1935  0.5378
  975MOL0     H28650  -1.006   3.427   7.509  2.2201 -0.6879 -0.1630
  975MOL0     H28651  -1.014   3.294   7.781  2.3715  0.7379 -1.1256
  975MOL0     H28652  -1.107   3.245   7.644  1.9477 -0.5462  0.1240
  975MOL0     H28653  -1.297   3.509   7.582  0.0625  0.7275  0.2595
  975MOL0     H28654  -1.548   3.628   7.803 -0.6971  0.7444 -2.3741
  975MOL0     H28655  -1.448   3.665   7.647  3.8707  1.3019 -0.5575
  975MOL0     H28656  -1.328   3.833   7.748  1.7656  1.7045  4.0384
  975MOL0     H28657  -1.384   3.783   7.905 -0.5188 -0.5482  0.3306
  975MOL0     H28658  -1.520   3.977   7.715  0.2071 -0.1921  0.0488
  975MOL0     H28659  -1.616   3.838   7.729  2.2140 -0.5755 -1.3123
  975MOL0     H28660  -1.545   4.012   7.971 -0.5583  1.9602 -1.0073
  975MOL0     H28661  -1.615   3.841   7.976  1.6690 -1.5906 -1.9811
  975MOL0     H28662  -1.672   3.976   8.155  0.2169  0.2284  1.7006
  975MOL0     H28663  -1.823   4.022   8.334  1.6521  0.5299 -0.3496
  975MOL0     H28664  -2.030   4.004   8.656 -1.2939 -0.2835 -0.8015
  975MOL0     H28665  -2.134   4.064   8.867 -0.6940  1.2901  1.7376
  975MOL0     H28666  -2.344   4.077   9.014 -1.8187 -1.0957  1.2482
  975MOL0     H28667  -2.417   4.060   8.857 -2.1964  2.6067 -1.8642
  975MOL0     H28668  -2.511   4.246   9.084 -0.3731  1.6617 -1.6516
  975MOL0     H28669  -2.564   4.083   9.055 -2.6214 -0.7821 -2.1182
  975MOL0     H28670  -2.712   4.138   8.892 -3.7764  2.1264 -0.5185
  975MOL0     H28671  -2.628   4.286   8.846  2.4018  0.6125  1.4537
  975MOL0     H28672  -2.781   4.236   9.108 -2.6924 -0.9378 -1.4820
  975MOL0     H28673  -2.737   4.397   9.038  0.1533 -0.0433 -0.9652
  975MOL0     H28674  -2.935   4.186   8.932 -1.8900 -0.3061  1.9586
  975MOL0     H28675  -2.894   4.336   8.848  0.8634  1.1492 -0.2818
  975MOL0     H28676  -2.958   4.472   9.014 -2.1392  1.7130 -0.2759
  975MOL0     H28677  -2.999   4.325   9.123  0.7442 -1.7964 -0.9135
  975MOL0     H28678  -3.163   4.485   8.982 -0.0598 -0.2424  4.0685
  975MOL0     H28679  -3.137   4.357   8.854  0.2923 -1.1482  0.6392
  975MOL0     H28680  -3.220   4.312   9.142  0.9591 -2.6710  1.5483
  975MOL0     H28681  -3.208   4.182   9.018  2.5593  0.8658  0.2891
  975MOL0     H28682  -2.338   4.400   8.666 -1.2934 -0.4543 -3.7371
  975MOL0     H28683  -2.201   4.327   8.453  0.4797  0.3932 -0.1989
  975MOL0     H28684  -2.126   4.139   8.063 -0.6717  0.7416 -0.0501
  975MOL0     H28685  -1.981   4.079   7.861 -1.5578  0.4612  0.0539
  975MOL0     H28686  -0.354   2.709   7.479 -1.7309  1.8541 -2.2265
  975MOL0     H28687  -0.217   2.514   7.395  1.2258 -0.5517 -0.3306
  975MOL0     H28688   0.168   2.432   6.959  0.0825 -2.3495 -1.4015
  975MOL0     H28689   0.330   2.234   6.908 -0.0235  0.0417  0.4268
  975MOL0     H28690   0.492   1.908   6.994  1.1759 -1.0410 -2.1937
  975MOL0     H28691   0.475   2.042   6.897  1.0142 -0.3569 -0.4339
  975MOL0     H28692   0.231   1.991   6.886 -2.0926 -0.7935  2.1725
  975MOL0     H28693   0.313   1.838   6.868  1.1827  1.1287  0.3770
  975MOL0     H28694   0.196   1.962   7.116 -0.7054  0.8908 -1.7485
  975MOL0     H28695   0.275   1.791   7.117  1.9735 -0.2569 -0.9951
  975MOL0     H28696   0.037   1.879   6.954  2.9805  0.9795 -0.2300
  975MOL0     H28697   0.113   1.718   6.944 -0.1227 -0.5776  0.5902
  975MOL0     H28698  -0.141   1.747   7.296 -1.2249  2.6939 -0.4032
  975MOL0     H28699   0.333   2.128   7.313 -0.6100 -1.2768 -0.9665
  975MOL0     H28700   0.186   2.323   7.373 -0.9470 -0.1157 -0.0657
  976MOL0     O28701   6.177  10.077   6.878  0.3053 -0.3112  0.6614
  976MOL0     C28702   6.131  10.153   6.962 -0.0884 -0.1883 -0.5218
  976MOL0     O28703   6.002  10.147   7.003 -0.3295 -0.1964 -0.1826
  976MOL0     C28704   5.919  10.062   6.945 -0.2278 -0.8126  0.1475
  976MOL0     C28705   5.940   9.926   6.931 -1.2713  0.9202  0.1234
  976MOL0     C28706   5.846   9.847   6.863 -0.2094 -0.6388 -0.7652
  976MOL0     C28707   5.732   9.899   6.796 -0.3203 -0.1007  0.2179
  976MOL0     O28708   5.639   9.829   6.729 -0.0083  0.1476  1.0796
  976MOL0     C28709   5.602   9.696   6.777  0.1105  0.4801  0.2528
  976MOL0     C28710   5.504   9.644   6.684  0.2725  0.3899  0.2274
  976MOL0     C28711   5.479   9.490   6.697  0.3797  0.6732  0.4173
  976MOL0     C28712   5.477   9.438   6.842  0.4401  0.0887 -0.5102
  976MOL0     C28713   5.357   9.487   6.929  0.1656  0.3225 -0.0093
  976MOL0     C28714   5.371   9.432   7.074 -0.1939 -0.5720 -0.1347
  976MOL0     C28715   5.255   9.476   7.168 -0.4754 -0.1372  0.9684
  976MOL0     C28716   5.273   9.416   7.309 -0.6109  0.1737 -0.6188
  976MOL0     N28717   5.154   9.417   7.389  0.4589 -0.4891 -1.0901
  976MOL0     C28718   5.085   9.306   7.434 -0.9476  0.1115 -0.2938
  976MOL0     C28719   4.961   9.355   7.471  0.3625  0.1144 -0.3172
  976MOL0     C28720   4.857   9.255   7.523  0.2490  0.2004 -0.0251
  976MOL0     C28721   4.830   9.136   7.430  0.1430  0.6306 -0.4309
  976MOL0     C28722   4.782   9.177   7.288  0.6680 -0.2047 -0.2868
  976MOL0     C28723   4.799   9.055   7.203 -0.4723  0.2746 -0.0354
  976MOL0     O28724   4.702   8.960   7.265 -0.5449 -0.3907  0.1580
  976MOL0     C28725   4.578   8.942   7.218 -0.2386  0.0369 -0.1199
  976MOL0     C28726   4.521   9.028   7.116 -0.5125  0.9138 -0.4834
  976MOL0     C28727   4.388   9.005   7.076  0.0945 -0.8224  0.1628
  976MOL0     C28728   4.301   8.905   7.141 -1.1779  0.8601  0.7798
  976MOL0     C28729   4.164   8.886   7.092 -1.2289  0.7902  0.8156
  976MOL0     O28730   4.108   8.994   7.030 -0.0371 -0.0291 -0.6157
  976MOL0     C28731   3.976   9.020   7.010 -0.1123  0.9541 -0.6472
  976MOL0     C28732   3.871   8.941   7.053 -0.7387 -0.9546 -0.8150
  976MOL0     C28733   3.733   8.977   7.034 -0.7696  0.2048 -0.1783
  976MOL0     C28734   3.706   9.104   6.970  1.0971 -0.1214  0.1249
  976MOL0     O28735   3.581   9.156   6.933 -0.2640 -0.4126  0.1375
  976MOL0     C28736   3.488   9.173   7.036  0.5829  0.7288  0.0120
  976MOL0     C28737   3.345   9.161   6.974  0.1042 -0.1070  0.3327
  976MOL0     C28738   3.314   9.032   6.903  0.2011 -0.2291  1.2916
  976MOL0     C28739   3.326   8.895   6.985 -0.2352 -0.0408 -0.1239
  976MOL0     C28740   3.373   8.773   6.894  1.2366 -0.7573 -0.6188
  976MOL0     C28741   3.352   8.634   6.955 -0.0538  0.0368  0.0360
  976MOL0     C28742   3.411   8.509   6.872  1.0142  0.3455 -0.4352
  976MOL0     C28743   3.355   8.510   6.730 -0.7915  0.4123 -0.0133
  976MOL0    Cl28744   3.408   8.375   6.621 -0.4795  0.5701 -0.6238
  976MOL0     C28745   3.815   9.175   6.917 -0.0247 -0.3085 -0.0748
  976MOL0     C28746   3.949   9.135   6.940 -0.7391  0.4979 -0.1772
  976MOL0     O28747   4.111   8.777   7.121  0.2691 -0.7420 -0.6128
  976MOL0     C28748   4.370   8.821   7.236  0.7807  0.7981 -0.6370
  976MOL0     C28749   4.500   8.849   7.280  0.0130  0.6506  0.8319
  976MOL0     N28750   4.951   9.487   7.441 -0.5185 -0.1215  0.3389
  976MOL0     N28751   5.066   9.520   7.401  0.2046 -0.5290 -0.0537
  976MOL0     C28752   5.726  10.038   6.799 -0.1241  0.3018 -0.0545
  976MOL0     C28753   5.811  10.122   6.873 -0.0841 -0.1045 -0.2948
  976MOL0     C28754   6.220  10.268   7.009  0.1184 -0.8734 -0.1682
  976MOL0     C28755   6.157  10.382   7.069  0.0122  1.0878 -0.2789
  976MOL0     C28756   6.234  10.496   7.109  1.1157  0.1166 -0.0789
  976MOL0     C28757   6.373  10.498   7.100 -0.4390  0.2714 -0.4280
  976MOL0     O28758   6.447  10.611   7.147  0.4832  0.4684  0.4994
  976MOL0     C28759   6.593  10.623   7.115  0.2472 -0.0282  0.3740
  976MOL0     C28760   6.617  10.765   7.064  0.2023  1.2326  0.2858
  976MOL0     C28761   6.596  10.865   7.174  0.4467 -0.5210 -0.8902
  976MOL0     C28762   6.626  11.009   7.123 -0.2049  0.3014 -0.2009
  976MOL0     C28763   6.769  11.037   7.095  0.6257 -1.0722  0.0713
  976MOL0     C28764   6.882  11.048   7.087  0.1448  0.6775  0.1592
  976MOL0     C28765   6.432  10.383   7.047 -0.8381  0.5271  0.6673
  976MOL0     C28766   6.363  10.273   6.992  0.2178  0.3292 -0.1200
  976MOL0     H28767   6.028   9.879   6.974 -0.9079  0.9419 -0.5738
  976MOL0     H28768   5.856   9.739   6.868  1.9187 -0.4352  2.4313
  976MOL0     H28769   5.570   9.701   6.881 -1.1030  1.4458 -0.1373
  976MOL0     H28770   5.691   9.632   6.778  1.1834  1.8563 -0.9814
  976MOL0     H28771   5.535   9.678   6.585  2.6888  0.8203  1.0808
  976MOL0     H28772   5.408   9.688   6.713 -0.4636 -1.8479  1.4501
  976MOL0     H28773   5.556   9.429   6.649 -0.7225  0.9799 -1.8641
  976MOL0     H28774   5.382   9.477   6.647  0.9833  2.4948 -1.3476
  976MOL0     H28775   5.454   9.332   6.840 -1.6421  0.4193  1.8246
  976MOL0     H28776   5.572   9.438   6.897  0.2706 -0.4437 -0.2088
  976MOL0     H28777   5.271   9.446   6.876  2.0153 -2.8208 -0.8739
  976MOL0     H28778   5.367   9.595   6.919 -2.4199  0.4602 -2.3272
  976MOL0     H28779   5.460   9.473   7.122 -1.2867  2.4131 -0.4219
  976MOL0     H28780   5.377   9.323   7.075 -1.5966 -0.7180 -1.9918
  976MOL0     H28781   5.266   9.584   7.182 -1.3129 -0.2873  3.1919
  976MOL0     H28782   5.150   9.460   7.140 -0.6476 -1.6570  2.3888
  976MOL0     H28783   5.357   9.462   7.362 -0.3657 -2.8986  1.9966
  976MOL0     H28784   5.303   9.312   7.290  2.1977  0.5353  1.2866
  976MOL0     H28785   5.120   9.203   7.436  0.7081  0.6294 -0.9786
  976MOL0     H28786   4.768   9.314   7.547  0.3221  0.3103 -0.0196
  976MOL0     H28787   4.897   9.218   7.618 -1.2546 -0.7882  0.2635
  976MOL0     H28788   4.761   9.066   7.477  0.2596  0.9142  0.1806
  976MOL0     H28789   4.925   9.083   7.426 -0.2199  0.0395 -1.8439
  976MOL0     H28790   4.677   9.206   7.289 -0.2347 -2.9567 -2.4219
  976MOL0     H28791   4.838   9.265   7.255 -1.5322  1.3471 -0.0774
  976MOL0     H28792   4.904   9.026   7.205  0.2785  2.7807  1.3419
  976MOL0     H28793   4.780   9.081   7.098  1.8074 -2.0122 -1.1210
  976MOL0     H28794   4.583   9.104   7.071 -1.1121  1.8260  0.1909
  976MOL0     H28795   4.339   9.066   7.001  0.3905  1.6677  1.8779
  976MOL0     H28796   3.889   8.841   7.091  2.2368 -0.9458 -1.8794
  976MOL0     H28797   3.648   8.919   7.071 -0.8860 -0.2973 -1.2103
  976MOL0     H28798   3.511   9.262   7.097 -3.9118  0.6767  2.2167
  976MOL0     H28799   3.497   9.084   7.099  1.5453  0.1542 -0.9086
  976MOL0     H28800   3.330   9.237   6.897 -1.6297 -0.7431  0.0183
  976MOL0     H28801   3.264   9.174   7.046  0.9522  0.9484  1.1491
  976MOL0     H28802   3.368   9.012   6.810 -3.3481 -1.1087 -0.7416
  976MOL0     H28803   3.214   9.042   6.859  0.4469 -0.1111  0.7528
  976MOL0     H28804   3.399   8.906   7.066  0.0049 -0.9934 -0.1936
  976MOL0     H28805   3.229   8.870   7.027 -0.9059 -0.9273 -2.0854
  976MOL0     H28806   3.478   8.788   6.866  2.2421 -2.4823  1.8760
  976MOL0     H28807   3.318   8.777   6.800  0.8098  2.0588 -0.3438
  976MOL0     H28808   3.242   8.634   6.955 -0.0786  0.4629 -1.4571
  976MOL0     H28809   3.402   8.631   7.052  2.8393 -0.9488 -1.3647
  976MOL0     H28810   3.519   8.508   6.892  0.8783  0.1430  0.3131
  976MOL0     H28811   3.377   8.411   6.906 -0.0319  1.3752  1.6131
  976MOL0     H28812   3.383   8.601   6.675  3.1175 -1.1704 -0.9843
  976MOL0     H28813   3.246   8.510   6.738 -0.7358  0.1746  0.8309
  976MOL0     H28814   3.780   9.260   6.859 -1.0263  0.7641  2.0017
  976MOL0     H28815   4.033   9.191   6.901 -2.1800  0.5249 -3.6605
  976MOL0     H28816   4.305   8.754   7.292  2.4130 -1.8169 -1.7091
  976MOL0     H28817   4.547   8.803   7.366 -1.3904 -2.2704  0.1406
  976MOL0     H28818   5.642  10.088   6.752  1.4744  0.9192 -2.4523
  976MOL0     H28819   5.787  10.227   6.875 -2.2808 -0.5657  0.1332
  976MOL0     H28820   6.050  10.398   7.082 -0.6364 -1.7519 -1.4346
  976MOL0     H28821   6.179  10.581   7.149  0.3945  0.4711 -1.7258
  976MOL0     H28822   6.609  10.559   7.028  0.8347  2.9069 -1.8399
  976MOL0     H28823   6.663  10.589   7.192  3.2881 -0.9784 -2.6040
  976MOL0     H28824   6.716  10.777   7.020 -0.5688  4.7440 -0.8145
  976MOL0     H28825   6.536  10.778   6.992 -0.9480 -2.4364  0.6889
  976MOL0     H28826   6.667  10.851   7.255  0.9591  2.9128 -0.5991
  976MOL0     H28827   6.491  10.864   7.206  0.2727  1.2234 -1.2925
  976MOL0     H28828   6.573  11.018   7.027  2.4500 -0.5797 -1.8450
  976MOL0     H28829   6.582  11.073   7.201 -3.1397 -2.1567  0.3503
  976MOL0     H28830   6.989  11.051   7.076  0.2060 -1.9538 -0.5973
  976MOL0     H28831   6.536  10.351   7.050 -1.5412 -2.2479 -0.9875
  976MOL0     H28832   6.407  10.192   6.935  0.4059 -0.8348  1.5974
  977MOL0     O28833   7.779   7.632   2.587  0.2987  0.5298  0.9484
  977MOL0     C28834   7.810   7.707   2.679 -0.2157  0.6696  0.7401
  977MOL0     O28835   7.929   7.723   2.734  0.1591  0.7120  0.0097
  977MOL0     C28836   8.045   7.676   2.676  0.5489  0.7284 -0.0773
  977MOL0     C28837   8.062   7.639   2.538  0.4958  0.1110  0.4452
  977MOL0     C28838   8.191   7.609   2.491  0.6037 -0.4920  0.3091
  977MOL0     C28839   8.300   7.603   2.582  0.9214  0.0817 -0.4105
  977MOL0     O28840   8.426   7.560   2.556 -0.7148  0.1790  0.1869
  977MOL0     C28841   8.421   7.439   2.476  0.8795  0.5323  0.2436
  977MOL0     C28842   8.550   7.366   2.485  0.5775  0.2423 -0.6375
  977MOL0     C28843   8.665   7.431   2.407  0.5837  0.2602  0.2112
  977MOL0     C28844   8.801   7.372   2.455  1.0216 -0.2484  0.2283
  977MOL0     C28845   8.918   7.427   2.383  0.8058 -0.2809  0.0404
  977MOL0     C28846   8.926   7.400   2.227  0.0411  0.4271  0.0561
  977MOL0     C28847   9.053   7.442   2.167 -0.5923  0.4828 -0.2695
  977MOL0     C28848   9.164   7.340   2.203  0.2752  0.0032 -0.9299
  977MOL0     N28849   9.258   7.332   2.093  1.1476 -0.5613  0.0077
  977MOL0     C28850   9.328   7.438   2.037 -0.4237  0.4276 -0.4218
  977MOL0     C28851   9.418   7.372   1.960 -1.1047 -0.8644  0.2188
  977MOL0     C28852   9.519   7.444   1.882 -0.9193 -0.0039  0.5521
  977MOL0     C28853   9.529   7.397   1.745 -0.3335 -0.2152  0.0964
  977MOL0     C28854   9.398   7.403   1.665  0.3124  0.2502  0.8345
  977MOL0     C28855   9.359   7.291   1.580  0.4237  0.8286  0.0302
  977MOL0     O28856   9.233   7.314   1.506 -0.6319  0.3054  0.6744
  977MOL0     C28857   9.114   7.320   1.575 -0.3407 -0.6538 -0.4858
  977MOL0     C28858   9.004   7.364   1.507  0.4184 -0.2227  0.7056
  977MOL0     C28859   8.877   7.380   1.564  0.8012  0.3508 -0.0448
  977MOL0     C28860   8.860   7.355   1.704  1.2891 -0.5364  0.6159
  977MOL0     C28861   8.734   7.379   1.779  0.0495 -0.4526  0.5034
  977MOL0     O28862   8.700   7.305   1.896 -0.2397  0.0395 -0.2505
  977MOL0     C28863   8.597   7.341   1.978 -0.8116  0.6646 -0.3131
  977MOL0     C28864   8.561   7.474   2.009  0.0133  0.1155  0.0514
  977MOL0     C28865   8.444   7.498   2.078  0.2279 -0.1013 -0.8333
  977MOL0     C28866   8.358   7.393   2.110  0.0112  0.4696  0.0603
  977MOL0     O28867   8.235   7.435   2.152  0.1448 -0.0478 -0.4394
  977MOL0     C28868   8.113   7.352   2.146  0.8176  0.6529 -0.7060
  977MOL0     C28869   8.080   7.290   2.286  1.2187  0.3482  0.2338
  977MOL0     C28870   7.929   7.285   2.302 -0.7696  0.1792 -0.3705
  977MOL0     C28871   7.843   7.205   2.182 -0.2437 -0.3148 -0.4063
  977MOL0     C28872   7.704   7.175   2.242  0.1170  0.0152  0.8370
  977MOL0     C28873   7.605   7.140   2.136 -0.8696 -0.1202  0.1152
  977MOL0     C28874   7.474   7.077   2.183 -1.3443  0.0937  0.5935
  977MOL0     C28875   7.380   7.197   2.218 -0.2583  0.1341  0.2862
  977MOL0    Cl28876   7.216   7.133   2.244 -0.0556 -0.2719 -0.4646
  977MOL0     C28877   8.399   7.259   2.084  1.0315 -0.8690  0.1125
  977MOL0     C28878   8.516   7.233   2.016  0.6773 -0.5183  0.5234
  977MOL0     O28879   8.667   7.475   1.730 -0.2260 -0.6126  0.3676
  977MOL0     C28880   8.969   7.306   1.764  0.4861 -0.0131  0.5475
  977MOL0     C28881   9.093   7.278   1.708  1.1561  0.2615 -0.1992
  977MOL0     N28882   9.385   7.238   1.958 -0.2840 -0.1737  1.2997
  977MOL0     N28883   9.289   7.214   2.040 -0.0824 -0.2874 -0.1094
  977MOL0     C28884   8.284   7.638   2.709 -0.8022 -0.2528  0.5442
  977MOL0     C28885   8.160   7.675   2.749 -0.5897 -0.0134 -1.1654
  977MOL0     C28886   7.703   7.788   2.742  0.5130 -0.2372 -0.7671
  977MOL0     C28887   7.575   7.736   2.745 -0.9058  0.4244 -1.4750
  977MOL0     C28888   7.471   7.819   2.768  0.3768 -0.7796 -0.1584
  977MOL0     C28889   7.479   7.957   2.795 -0.1780  0.9316 -0.3098
  977MOL0     O28890   7.358   8.020   2.820 -0.5758  0.3966  0.2673
  977MOL0     C28891   7.375   8.123   2.914  0.4328 -0.5209  0.6191
  977MOL0     C28892   7.238   8.150   2.969  0.8666  0.0879 -0.9040
  977MOL0     C28893   7.243   8.295   3.031 -0.0540  0.3585 -0.2321
  977MOL0     C28894   7.118   8.341   3.109  0.4108  0.9831 -0.7728
  977MOL0     C28895   7.004   8.372   3.025 -0.0958 -0.2562  0.0490
  977MOL0     C28896   6.908   8.397   2.956 -0.5550 -0.3318 -0.5208
  977MOL0     C28897   7.614   8.002   2.800 -0.2183 -0.3349 -0.9068
  977MOL0     C28898   7.722   7.919   2.767  0.6953  0.1054  0.0859
  977MOL0     H28899   7.985   7.667   2.467  2.1324  3.6837 -0.1396
  977MOL0     H28900   8.206   7.598   2.384  4.1843  2.8065  0.2688
  977MOL0     H28901   8.407   7.466   2.371  3.6958 -2.3629 -1.0305
  977MOL0     H28902   8.336   7.377   2.508  1.2554 -0.2562 -0.2649
  977MOL0     H28903   8.538   7.268   2.438  2.4043 -0.8144  0.8880
  977MOL0     H28904   8.584   7.346   2.588 -0.7368  0.5587 -0.1185
  977MOL0     H28905   8.677   7.535   2.440  0.7340 -0.1773  1.5905
  977MOL0     H28906   8.649   7.425   2.299  0.5449  1.3698  0.1409
  977MOL0     H28907   8.823   7.404   2.557 -2.6468  3.0777  0.2359
  977MOL0     H28908   8.788   7.263   2.448 -2.4193  0.0494  0.3268
  977MOL0     H28909   9.013   7.389   2.423 -0.8793 -2.0311  2.6738
  977MOL0     H28910   8.924   7.535   2.399  0.3874 -0.3317  0.5473
  977MOL0     H28911   8.839   7.446   2.180 -1.0433  1.4259  2.8192
  977MOL0     H28912   8.909   7.292   2.218  2.2138  0.2085 -2.3627
  977MOL0     H28913   9.043   7.435   2.058  0.6214  1.5226 -0.4676
  977MOL0     H28914   9.080   7.545   2.191 -1.5024  0.3877  1.3492
  977MOL0     H28915   9.124   7.250   2.250  1.0622  1.6408  3.3186
  977MOL0     H28916   9.220   7.373   2.291 -2.8712  0.2139  1.1718
  977MOL0     H28917   9.312   7.542   2.064 -2.3443 -0.2258  1.2935
  977MOL0     H28918   9.616   7.445   1.932 -1.6713 -0.8004  2.1010
  977MOL0     H28919   9.491   7.550   1.874 -0.5439  0.5070  4.0790
  977MOL0     H28920   9.566   7.295   1.739 -1.2000 -1.0443  4.8893
  977MOL0     H28921   9.601   7.454   1.686 -2.0285  0.7737 -1.1190
  977MOL0     H28922   9.320   7.424   1.738 -0.1148 -0.1123  0.4846
  977MOL0     H28923   9.398   7.491   1.600 -1.6108 -1.7978 -2.1683
  977MOL0     H28924   9.366   7.197   1.636 -1.6480 -0.8725 -2.3105
  977MOL0     H28925   9.442   7.277   1.509  1.1403  1.9021  0.6316
  977MOL0     H28926   9.018   7.375   1.399 -0.3929 -0.5775  0.5621
  977MOL0     H28927   8.798   7.431   1.510  0.7360  0.8211  0.4961
  977MOL0     H28928   8.637   7.545   1.978  2.6638 -2.0379  1.2281
  977MOL0     H28929   8.424   7.598   2.114  0.4010 -0.0765 -0.8064
  977MOL0     H28930   8.112   7.279   2.064 -4.9145 -1.8458  1.0659
  977MOL0     H28931   8.029   7.414   2.112 -0.0862 -0.7894 -1.2564
  977MOL0     H28932   8.134   7.347   2.362  1.5968  0.7270 -0.3079
  977MOL0     H28933   8.121   7.189   2.300  0.4227 -0.2209 -1.3350
  977MOL0     H28934   7.886   7.385   2.307  1.0264  0.9643  0.1066
  977MOL0     H28935   7.914   7.235   2.398 -1.6127  1.1329  0.0112
  977MOL0     H28936   7.842   7.274   2.098 -0.0979  1.2231  0.8179
  977MOL0     H28937   7.883   7.107   2.151 -1.8779 -0.6776 -1.4884
  977MOL0     H28938   7.678   7.270   2.290  2.9397  2.1052 -1.4057
  977MOL0     H28939   7.716   7.090   2.310 -3.1093 -1.2030  0.0287
  977MOL0     H28940   7.654   7.056   2.087  1.5345  0.6516  1.0825
  977MOL0     H28941   7.591   7.217   2.060 -0.2875  0.6821  0.8099
  977MOL0     H28942   7.428   7.026   2.097  0.0951 -0.6475  0.2237
  977MOL0     H28943   7.491   7.003   2.262 -0.6694 -0.9365 -0.4864
  977MOL0     H28944   7.389   7.274   2.140 -1.9890 -1.6194 -1.8009
  977MOL0     H28945   7.413   7.254   2.305  0.3958 -1.4758  1.1319
  977MOL0     H28946   8.337   7.176   2.120  1.1109 -0.5371  1.0448
  977MOL0     H28947   8.539   7.136   1.973  1.6379 -0.0260 -0.1120
  977MOL0     H28948   8.972   7.289   1.872  1.5757  1.6931  0.8147
  977MOL0     H28949   9.172   7.248   1.776 -0.8584 -3.4881  0.7682
  977MOL0     H28950   8.373   7.638   2.771 -0.7328  1.1549  0.4775
  977MOL0     H28951   8.155   7.721   2.847  1.1585  0.7268 -1.3898
  977MOL0     H28952   7.549   7.633   2.722  1.0802 -0.2531 -0.8933
  977MOL0     H28953   7.370   7.777   2.767 -0.2394  0.5371  1.5860
  977MOL0     H28954   7.412   8.212   2.863 -1.1731 -0.8982 -1.3328
  977MOL0     H28955   7.440   8.101   2.999 -1.8071 -1.9494  2.0721
  977MOL0     H28956   7.164   8.137   2.889  1.0363 -3.9588 -0.5913
  977MOL0     H28957   7.204   8.080   3.045 -0.2959  1.8044  0.2242
  977MOL0     H28958   7.264   8.363   2.948  2.7871  1.8472  1.5332
  977MOL0     H28959   7.315   8.288   3.113 -2.4641  0.1241  1.9944
  977MOL0     H28960   7.092   8.265   3.183 -0.3792  0.7032 -1.3241
  977MOL0     H28961   7.147   8.429   3.167  0.9195 -1.1287  2.4459
  977MOL0     H28962   6.826   8.428   2.894 -2.3518 -0.2970  1.7199
  977MOL0     H28963   7.636   8.108   2.813 -0.0349 -0.6864  2.6194
  977MOL0     H28964   7.820   7.965   2.754  0.3240  0.5125 -1.4198
  978MOL0     O28965   1.498  10.456   1.939 -0.1352 -0.2281  0.2674
  978MOL0     C28966   1.407  10.385   1.905  0.2259  0.1593  0.6145
  978MOL0     O28967   1.391  10.329   1.776 -0.9102  0.6039 -0.1778
  978MOL0     C28968   1.475  10.366   1.669  0.1051 -0.2332 -0.3391
  978MOL0     C28969   1.400  10.412   1.553  0.2285 -0.1942  0.0586
  978MOL0     C28970   1.470  10.461   1.444 -0.0726  0.8403  0.0819
  978MOL0     C28971   1.609  10.464   1.441 -0.0343  0.2902 -0.6913
  978MOL0     O28972   1.667  10.522   1.328 -0.0879  0.4114  0.2974
  978MOL0     C28973   1.807  10.516   1.311  0.6591  0.0493  0.4210
  978MOL0     C28974   1.845  10.593   1.180 -0.1903 -1.1826 -0.0290
  978MOL0     C28975   1.989  10.586   1.140 -0.3212  1.2152 -0.4635
  978MOL0     C28976   2.084  10.664   1.245 -0.8268 -0.1577 -0.3370
  978MOL0     C28977   2.219  10.690   1.170  0.3735  0.1269  0.2496
  978MOL0     C28978   2.290  10.557   1.144  0.4817  0.4388 -0.3600
  978MOL0     C28979   2.429  10.579   1.074  0.3160  0.4264  0.5082
  978MOL0     C28980   2.496  10.451   1.040 -0.2140  0.3880  0.8766
  978MOL0     N28981   2.629  10.483   0.979 -0.2588  0.6549 -0.8676
  978MOL0     C28982   2.753  10.431   1.022  0.3255  0.0131 -1.6990
  978MOL0     C28983   2.848  10.492   0.950  0.8101 -0.7018  0.6029
  978MOL0     C28984   2.984  10.440   0.934 -0.8601  0.2698  0.6748
  978MOL0     C28985   3.051  10.360   1.046 -0.5425 -0.3202  0.5672
  978MOL0     C28986   3.192  10.306   1.010 -0.7379  0.6455 -0.4303
  978MOL0     C28987   3.239  10.214   1.123 -0.0578  0.0163 -0.5821
  978MOL0     O28988   3.335  10.111   1.066  0.2120 -0.4012 -0.3297
  978MOL0     C28989   3.467  10.146   1.033 -0.2960 -0.4734 -0.0347
  978MOL0     C28990   3.559  10.059   0.978 -0.2973  0.2491 -0.2879
  978MOL0     C28991   3.691  10.093   0.946 -0.9271  1.4622 -0.3159
  978MOL0     C28992   3.731  10.223   0.972  0.0260 -0.2616  0.3754
  978MOL0     C28993   3.871  10.265   0.949 -0.9346 -0.2683 -0.4790
  978MOL0     O28994   3.962  10.157   0.951 -1.0540  0.1100  0.4341
  978MOL0     C28995   4.098  10.159   0.918 -0.2310 -0.1586 -0.1950
  978MOL0     C28996   4.178  10.274   0.896 -0.1571 -0.3913  0.6514
  978MOL0     C28997   4.321  10.273   0.866  0.4711  0.7889  0.1249
  978MOL0     C28998   4.373  10.143   0.852 -0.3345  0.6490 -0.1100
  978MOL0     O28999   4.504  10.148   0.820  0.4563 -0.2587 -0.8891
  978MOL0     C29000   4.591  10.040   0.851  0.4911 -1.1406  0.1838
  978MOL0     C29001   4.732  10.090   0.809 -1.2892  0.5500 -1.1424
  978MOL0     C29002   4.841  10.048   0.912 -0.0701 -0.8563  0.0436
  978MOL0     C29003   4.850  10.157   1.020  0.0812 -0.2789 -0.0813
  978MOL0     C29004   4.983  10.155   1.095  0.0347 -0.4088  0.5536
  978MOL0     C29005   5.032  10.018   1.161  0.5264 -0.9863  0.6245
  978MOL0     C29006   5.167  10.043   1.231 -0.1217  0.0131 -0.2613
  978MOL0     C29007   5.220   9.897   1.270  0.6739 -0.8848  0.7336
  978MOL0    Cl29008   5.395   9.910   1.237  0.0617 -0.3890  0.2803
  978MOL0     C29009   4.301  10.029   0.903 -0.3954  0.1266 -0.2706
  978MOL0     C29010   4.170  10.042   0.925  0.3868  1.2326 -0.4335
  978MOL0     O29011   3.902  10.382   0.923  0.0998 -0.1088  0.6127
  978MOL0     C29012   3.641  10.310   1.026 -0.0768  0.5011  0.4980
  978MOL0     C29013   3.512  10.277   1.056  0.5048 -0.1828 -0.0436
  978MOL0     N29014   2.779  10.597   0.874  0.4129  0.1356 -0.0395
  978MOL0     N29015   2.652  10.583   0.894 -0.2807 -0.3213  0.1428
  978MOL0     C29016   1.677  10.424   1.560 -0.6352  0.2261 -0.3179
  978MOL0     C29017   1.612  10.359   1.671  0.1451 -0.3910  0.2756
  978MOL0     C29018   1.303  10.354   2.001 -1.2686  0.1783  0.4652
  978MOL0     C29019   1.221  10.236   1.972 -0.3026 -2.1384 -0.6155
  978MOL0     C29020   1.138  10.190   2.073 -0.8741  0.2414  0.2673
  978MOL0     C29021   1.124  10.264   2.196  0.0239 -0.6084 -0.1327
  978MOL0     O29022   1.051  10.215   2.303 -0.7504 -0.3688 -0.2191
  978MOL0     C29023   1.002  10.305   2.397  0.4099  0.3968  0.3709
  978MOL0     C29024   0.878  10.380   2.337  1.3808 -0.5550 -1.1552
  978MOL0     C29025   0.753  10.371   2.428  0.8155  0.7746  0.5913
  978MOL0     C29026   0.639  10.469   2.389  0.0660  0.1383  0.3262
  978MOL0     C29027   0.528  10.427   2.471 -0.9702 -0.3926 -0.0666
  978MOL0     C29028   0.429  10.391   2.527 -1.2674 -0.9636 -0.3797
  978MOL0     C29029   1.198  10.382   2.213 -0.2694 -0.2131  0.5467
  978MOL0     C29030   1.289  10.427   2.122  0.0123  0.6054 -0.1834
  978MOL0     H29031   1.292  10.398   1.553  0.2714 -0.5962 -0.5564
  978MOL0     H29032   1.416  10.487   1.354  2.5459  0.8689 -1.5859
  978MOL0     H29033   1.844  10.415   1.296 -2.1906 -1.0453  0.1902
  978MOL0     H29034   1.862  10.559   1.396  1.4046  0.0796 -0.0608
  978MOL0     H29035   1.804  10.692   1.198  0.3191 -1.4864  3.4361
  978MOL0     H29036   1.795  10.546   1.094 -0.3139  1.6788 -1.6387
  978MOL0     H29037   2.015  10.612   1.037 -0.2043  1.0966 -0.4646
  978MOL0     H29038   2.008  10.479   1.153 -2.8873  0.5556 -1.4469
  978MOL0     H29039   2.046  10.765   1.262 -0.5010 -0.7089  5.5578
  978MOL0     H29040   2.095  10.611   1.339 -0.9595  0.1575 -0.1411
  978MOL0     H29041   2.279  10.760   1.229 -2.4987  2.9341  0.1231
  978MOL0     H29042   2.193  10.734   1.073 -2.4519 -1.0639  0.3613
  978MOL0     H29043   2.232  10.488   1.083  1.2318 -0.3165 -0.2383
  978MOL0     H29044   2.301  10.504   1.239  1.3668  1.5463  0.1864
  978MOL0     H29045   2.407  10.640   0.986  1.0752  0.4200  0.3101
  978MOL0     H29046   2.490  10.648   1.134  0.1389  0.3606  0.7655
  978MOL0     H29047   2.435  10.407   0.960 -1.0721  1.0222  1.1688
  978MOL0     H29048   2.510  10.384   1.126 -0.7180 -3.4643 -1.7712
  978MOL0     H29049   2.770  10.346   1.087 -3.1150  1.8306  2.0370
  978MOL0     H29050   3.048  10.522   0.899  1.5763 -2.1043 -0.8085
  978MOL0     H29051   2.981  10.377   0.845  2.9955  0.0642  0.5264
  978MOL0     H29052   2.990  10.277   1.083 -0.1326 -0.6275  0.5643
  978MOL0     H29053   3.060  10.431   1.129 -3.1505 -0.5662  1.1412
  978MOL0     H29054   3.182  10.251   0.915 -0.1181 -0.1595 -0.0497
  978MOL0     H29055   3.265  10.384   0.986 -2.2381  1.8500 -1.3048
  978MOL0     H29056   3.150  10.163   1.160 -0.9982  1.6894 -0.4366
  978MOL0     H29057   3.275  10.268   1.211 -0.1491  0.2169 -0.6659
  978MOL0     H29058   3.531   9.954   0.973 -0.1234  0.2297 -1.0319
  978MOL0     H29059   3.765  10.027   0.903 -2.6317  0.6512 -2.1600
  978MOL0     H29060   4.135  10.373   0.885  0.5315  0.3443  3.5862
  978MOL0     H29061   4.384  10.359   0.844  0.2177  0.8096 -0.5180
  978MOL0     H29062   4.559   9.942   0.813 -3.4388 -0.1413  0.5274
  978MOL0     H29063   4.581  10.029   0.959 -3.4158  0.2683  0.0903
  978MOL0     H29064   4.725  10.199   0.811  0.9743  0.7297  1.0618
  978MOL0     H29065   4.759  10.061   0.707  2.7921 -2.2748  0.4826
  978MOL0     H29066   4.938  10.037   0.862 -0.0109  0.6781 -0.2354
  978MOL0     H29067   4.832   9.959   0.976  0.9417 -0.6256  0.5341
  978MOL0     H29068   4.849  10.259   0.980 -1.5768  0.0008  0.6159
  978MOL0     H29069   4.769  10.148   1.093  1.1149 -0.5307  1.0589
  978MOL0     H29070   4.982  10.225   1.179  1.1257  0.7905 -0.3860
  978MOL0     H29071   5.062  10.195   1.031 -1.8344  0.9969 -1.0091
  978MOL0     H29072   5.035   9.939   1.086  1.6888  0.1548 -0.5778
  978MOL0     H29073   4.952   9.987   1.230 -4.3851  3.8347 -2.0564
  978MOL0     H29074   5.228  10.088   1.151 -1.8669 -0.7517 -2.1100
  978MOL0     H29075   5.166  10.099   1.324  0.3539 -2.0968  1.0824
  978MOL0     H29076   5.172   9.819   1.210 -1.8667  0.5145  0.7700
  978MOL0     H29077   5.187   9.865   1.369 -0.0172 -2.8439 -0.0798
  978MOL0     H29078   4.345   9.930   0.913  1.5975  1.0154  0.5089
  978MOL0     H29079   4.117   9.949   0.942  0.0850  1.4056 -0.4314
  978MOL0     H29080   3.666  10.414   1.040 -0.9006  1.1542 -2.2579
  978MOL0     H29081   3.452  10.353   1.105  3.5784  0.9419  2.2839
  978MOL0     H29082   1.785  10.427   1.570 -0.4919  3.4472 -1.3802
  978MOL0     H29083   1.664  10.328   1.760  2.6077 -0.1526 -1.0085
  978MOL0     H29084   1.229  10.176   1.882  1.4606 -2.7526 -0.1087
  978MOL0     H29085   1.087  10.094   2.078  2.3683 -1.6197  1.3997
  978MOL0     H29086   1.076  10.379   2.429  0.2951 -0.0172  1.6677
  978MOL0     H29087   0.967  10.250   2.485 -4.6317  0.1795 -1.4495
  978MOL0     H29088   0.896  10.488   2.336 -1.6406  0.0745 -0.1261
  978MOL0     H29089   0.860  10.353   2.232  0.0091  0.2216 -1.1524
  978MOL0     H29090   0.774  10.400   2.532 -3.4008  2.1784  1.2653
  978MOL0     H29091   0.728  10.265   2.422  5.6196 -0.5207 -3.8839
  978MOL0     H29092   0.662  10.573   2.411  0.4598  0.3326 -0.9045
  978MOL0     H29093   0.608  10.455   2.285 -0.6825 -0.3420  0.6005
  978MOL0     H29094   0.335  10.372   2.576 -1.9289  0.4766 -1.0006
  978MOL0     H29095   1.201  10.441   2.304  0.4110 -0.2051  0.5237
  978MOL0     H29096   1.349  10.516   2.141  0.8245  0.4071 -1.6457
  979MOL0     O29097   9.322   8.300   3.729 -0.1755 -0.8055  0.3958
  979MOL0     C29098   9.289   8.187   3.731  0.6131  1.4324  0.2698
  979MOL0     O29099   9.165   8.140   3.761 -0.1181  0.3537 -0.1446
  979MOL0     C29100   9.055   8.224   3.758  0.5107 -0.2613 -0.1840
  979MOL0     C29101   8.965   8.219   3.866 -0.3725  0.0168 -0.9418
  979MOL0     C29102   8.846   8.297   3.875  0.1480  0.8240 -0.0291
  979MOL0     C29103   8.808   8.377   3.765 -0.6911 -0.3015 -0.0467
  979MOL0     O29104   8.704   8.465   3.772 -0.3609  0.1856  0.2872
  979MOL0     C29105   8.635   8.476   3.646 -0.2072  0.3967 -0.3165
  979MOL0     C29106   8.530   8.582   3.666  0.2302 -0.6619  0.3354
  979MOL0     C29107   8.413   8.519   3.747  0.4120 -0.3188 -0.4097
  979MOL0     C29108   8.292   8.614   3.765  0.5504 -0.4197 -0.1811
  979MOL0     C29109   8.190   8.552   3.871 -0.8590  1.4774  0.2930
  979MOL0     C29110   8.071   8.646   3.904  0.1926 -0.3058  0.1333
  979MOL0     C29111   7.963   8.578   3.991  0.3133  0.4587 -0.0613
  979MOL0     C29112   7.879   8.483   3.907  0.0047  0.5804 -0.2389
  979MOL0     N29113   7.793   8.403   3.982  0.0949  0.2110 -0.2791
  979MOL0     C29114   7.682   8.450   4.044  0.6045 -0.2037 -0.2193
  979MOL0     C29115   7.640   8.342   4.109 -0.3172  0.0897  0.4755
  979MOL0     C29116   7.533   8.336   4.206  0.2185 -0.4935 -0.2164
  979MOL0     C29117   7.481   8.470   4.263  0.3655 -0.5855 -0.1647
  979MOL0     C29118   7.362   8.435   4.350  0.7802  0.0891  0.3211
  979MOL0     C29119   7.235   8.398   4.274 -0.8286 -0.7595 -0.5336
  979MOL0     O29120   7.164   8.518   4.252 -0.4594 -1.3709  0.9863
  979MOL0     C29121   7.034   8.513   4.222 -0.2818 -0.2827  0.3483
  979MOL0     C29122   6.975   8.403   4.168  0.0071  0.2419 -0.5029
  979MOL0     C29123   6.839   8.398   4.130  0.0325 -0.7924  0.0057
  979MOL0     C29124   6.753   8.510   4.160 -0.0576 -0.2828 -0.7474
  979MOL0     C29125   6.603   8.501   4.157 -0.1044 -0.1075  0.2544
  979MOL0     O29126   6.530   8.606   4.207  0.0746 -0.5539 -0.5763
  979MOL0     C29127   6.389   8.613   4.206 -0.6253  0.6990  0.3963
  979MOL0     C29128   6.337   8.734   4.232 -0.2183 -0.1960  0.9190
  979MOL0     C29129   6.202   8.767   4.223  0.0587 -0.0975  0.0493
  979MOL0     C29130   6.113   8.665   4.185  0.7277  0.7516 -0.0267
  979MOL0     O29131   5.982   8.709   4.155 -0.0002  0.3809  0.1879
  979MOL0     C29132   5.891   8.613   4.110 -0.6231 -0.4168  0.1143
  979MOL0     C29133   5.914   8.597   3.959  0.4051 -0.1491  0.1993
  979MOL0     C29134   5.822   8.481   3.905 -0.4604 -0.5919 -0.2754
  979MOL0     C29135   5.815   8.483   3.754  0.0351 -0.1223  1.6307
  979MOL0     C29136   5.723   8.379   3.690 -0.8692 -0.4661 -0.1140
  979MOL0     C29137   5.782   8.250   3.716 -1.0441  0.3147  0.1537
  979MOL0     C29138   5.689   8.134   3.689  0.1209  0.6533  0.9208
  979MOL0     C29139   5.755   7.997   3.726 -0.7167  0.1865  0.7205
  979MOL0    Cl29140   5.629   7.871   3.732 -0.3018 -0.1384 -0.5442
  979MOL0     C29141   6.159   8.528   4.160  0.4607 -0.3134 -0.9269
  979MOL0     C29142   6.299   8.511   4.170 -0.0861 -0.2792 -0.3839
  979MOL0     O29143   6.561   8.405   4.095  0.1583 -0.6135  0.4522
  979MOL0     C29144   6.823   8.628   4.202  0.3640  0.1238 -0.6024
  979MOL0     C29145   6.955   8.625   4.221 -0.2552  0.0937  0.1424
  979MOL0     N29146   7.722   8.231   4.072  0.0316  0.0890 -0.8719
  979MOL0     N29147   7.825   8.272   4.008  0.9236 -0.3754  0.1094
  979MOL0     C29148   8.893   8.372   3.647 -0.3627 -0.3526 -0.7572
  979MOL0     C29149   9.020   8.311   3.653 -0.2738 -0.1540  0.4614
  979MOL0     C29150   9.387   8.088   3.707 -0.5102 -0.3593 -0.4858
  979MOL0     C29151   9.355   7.957   3.679 -0.9903 -0.4717 -0.6702
  979MOL0     C29152   9.447   7.848   3.680  0.1696 -0.8098 -0.1191
  979MOL0     C29153   9.580   7.872   3.695 -0.3315  0.3168 -0.4089
  979MOL0     O29154   9.671   7.768   3.700  0.0720 -0.1265  0.1771
  979MOL0     C29155   9.782   7.776   3.786  0.9389 -0.4418 -0.4778
  979MOL0     C29156   9.810   7.624   3.817  0.1156  0.0265  0.6002
  979MOL0     C29157   9.908   7.559   3.720  0.3776  0.4241  0.5945
  979MOL0     C29158   9.851   7.476   3.602  0.3080 -0.1018 -0.5101
  979MOL0     C29159   9.929   7.358   3.576 -0.5891  0.1220 -0.6426
  979MOL0     C29160   9.968   7.242   3.550  0.3151  0.3191 -0.6371
  979MOL0     C29161   9.623   8.007   3.710 -1.1162 -0.0181 -0.0823
  979MOL0     C29162   9.529   8.109   3.717  1.1686 -0.1493 -0.1025
  979MOL0     H29163   8.995   8.164   3.954 -0.7870  1.7701  0.3673
  979MOL0     H29164   8.802   8.301   3.974 -2.9236  0.7997 -1.2893
  979MOL0     H29165   8.593   8.380   3.617 -0.1652  0.3493 -0.2204
  979MOL0     H29166   8.704   8.512   3.569  1.3096  1.2300  1.3584
  979MOL0     H29167   8.505   8.600   3.561  3.3051 -4.4414 -1.2944
  979MOL0     H29168   8.571   8.671   3.713  0.0696  0.8623 -2.2614
  979MOL0     H29169   8.456   8.493   3.844  1.3193 -1.3939 -1.0710
  979MOL0     H29170   8.377   8.428   3.698 -1.3760 -0.3947  0.9531
  979MOL0     H29171   8.333   8.709   3.802  1.7750 -0.2125 -1.9689
  979MOL0     H29172   8.234   8.631   3.674 -0.7853 -0.5661  0.6116
  979MOL0     H29173   8.243   8.510   3.957  0.0360 -3.3006 -2.2622
  979MOL0     H29174   8.148   8.457   3.837  3.3453 -1.1297  1.7365
  979MOL0     H29175   8.026   8.682   3.811 -2.1784  1.2922  1.8011
  979MOL0     H29176   8.118   8.728   3.958  0.9215 -0.8455  0.3476
  979MOL0     H29177   8.014   8.532   4.076 -0.4844 -1.1730 -0.4082
  979MOL0     H29178   7.898   8.657   4.028 -0.5611  0.9352 -2.4201
  979MOL0     H29179   7.937   8.416   3.843 -0.9174  0.4745 -0.9870
  979MOL0     H29180   7.820   8.544   3.838  3.1096  0.5011 -3.2148
  979MOL0     H29181   7.649   8.554   4.043 -1.0644 -0.6907  0.7843
  979MOL0     H29182   7.561   8.276   4.293  0.3419  1.0642  0.8546
  979MOL0     H29183   7.455   8.283   4.151  2.0051 -2.1709 -1.2474
  979MOL0     H29184   7.447   8.545   4.190 -1.0583  0.0929  1.1398
  979MOL0     H29185   7.568   8.509   4.317  0.6394 -0.3014 -0.8023
  979MOL0     H29186   7.394   8.360   4.423  0.6077 -1.8018 -1.4383
  979MOL0     H29187   7.331   8.520   4.411 -0.9255 -0.5120  0.3651
  979MOL0     H29188   7.170   8.334   4.334 -3.2524  0.2493 -1.9707
  979MOL0     H29189   7.255   8.350   4.178  3.3315  0.7650 -0.6227
  979MOL0     H29190   7.037   8.316   4.145  0.6481  0.8621 -1.1581
  979MOL0     H29191   6.804   8.313   4.073  3.9558 -2.9598  0.4497
  979MOL0     H29192   6.403   8.816   4.256  0.6390 -0.5106 -0.2672
  979MOL0     H29193   6.184   8.874   4.217  2.2202  0.2463 -2.2425
  979MOL0     H29194   5.789   8.653   4.117 -0.9748 -0.4070 -3.2030
  979MOL0     H29195   5.892   8.516   4.160 -2.3226 -0.3976  0.2532
  979MOL0     H29196   6.021   8.579   3.940  0.4731  0.4140  0.0276
  979MOL0     H29197   5.881   8.688   3.909 -1.7240 -2.4021 -2.8170
  979MOL0     H29198   5.727   8.497   3.957 -1.0626  3.3431 -2.1917
  979MOL0     H29199   5.873   8.390   3.936 -1.2782 -0.4023  1.7761
  979MOL0     H29200   5.802   8.589   3.727 -0.2813 -1.0863 -2.6333
  979MOL0     H29201   5.916   8.472   3.713  0.0433  2.7694  0.5993
  979MOL0     H29202   5.712   8.403   3.584 -0.0085  3.4531  0.5137
  979MOL0     H29203   5.623   8.388   3.735 -0.8038  0.7770 -0.1697
  979MOL0     H29204   5.807   8.227   3.820  0.6337  2.0656  0.1878
  979MOL0     H29205   5.872   8.244   3.655 -1.2752 -2.9683 -0.0541
  979MOL0     H29206   5.588   8.141   3.730 -2.0750 -0.8535 -3.5834
  979MOL0     H29207   5.662   8.143   3.583 -1.0586  1.5421  1.2792
  979MOL0     H29208   5.806   8.001   3.823  0.2573  1.6595  0.1918
  979MOL0     H29209   5.832   7.979   3.651 -0.8794 -1.0163  0.8253
  979MOL0     H29210   6.102   8.438   4.136 -0.5166 -0.5812  2.0039
  979MOL0     H29211   6.325   8.411   4.137 -0.4242 -0.5229  0.0915
  979MOL0     H29212   6.770   8.722   4.213 -2.1663 -1.3233  0.5934
  979MOL0     H29213   7.017   8.712   4.244  1.1375 -1.1499  1.3237
  979MOL0     H29214   8.867   8.415   3.551 -2.5780 -0.4790 -0.2845
  979MOL0     H29215   9.083   8.334   3.567 -2.1202  0.2629 -0.8311
  979MOL0     H29216   9.250   7.930   3.678 -2.2579  3.6428  0.0423
  979MOL0     H29217   9.419   7.751   3.642 -0.8331  0.0562 -1.7434
  979MOL0     H29218   9.754   7.824   3.880  1.0063 -3.0404  0.9597
  979MOL0     H29219   9.864   7.823   3.732  0.5586  0.0860 -0.6077
  979MOL0     H29220   9.857   7.623   3.916  0.2461  1.1717  0.5612
  979MOL0     H29221   9.721   7.562   3.813  1.2848 -1.6619 -0.4706
  979MOL0     H29222   9.962   7.486   3.782 -0.2891 -1.3599 -0.8308
  979MOL0     H29223   9.978   7.639   3.694 -0.1203  0.8427  0.5399
  979MOL0     H29224   9.749   7.445   3.627  0.8917 -1.6846  0.0151
  979MOL0     H29225   9.863   7.538   3.513  0.2429 -0.5807 -0.8537
  979MOL0     H29226  10.005   7.145   3.523  0.3190  0.3508 -0.7465
  979MOL0     H29227   9.727   8.034   3.725 -1.5641  2.0765 -0.4475
  979MOL0     H29228   9.564   8.209   3.740  3.3114 -0.6922 -0.8044
  980MOL0     O29229   9.590   5.181   3.498 -0.1442  0.6977 -0.4530
  980MOL0     C29230   9.627   5.137   3.391  0.2060 -0.1683  0.7306
  980MOL0     O29231   9.547   5.071   3.303 -1.0480  1.0337 -0.3169
  980MOL0     C29232   9.414   5.040   3.342  0.1314 -0.0135 -0.5858
  980MOL0     C29233   9.385   4.906   3.376  0.3229 -0.2146  0.1208
  980MOL0     C29234   9.248   4.881   3.407  0.3623  0.5382 -0.1667
  980MOL0     C29235   9.156   4.977   3.401  0.3525  0.3857 -0.2545
  980MOL0     O29236   9.030   4.927   3.424  0.1974  0.2759  0.2097
  980MOL0     C29237   8.908   4.985   3.377 -0.0437 -0.5226  0.2900
  980MOL0     C29238   8.870   4.954   3.225  0.2807 -0.3653 -0.1690
  980MOL0     C29239   8.723   4.977   3.205  0.5748 -0.9178  0.9020
  980MOL0     C29240   8.685   4.925   3.062  0.3596 -0.3658 -0.5794
  980MOL0     C29241   8.532   4.905   3.034 -0.2276  0.0453 -0.0385
  980MOL0     C29242   8.458   5.037   3.016  0.2601  0.1911 -0.3480
  980MOL0     C29243   8.315   5.017   2.978  0.7263  0.2986 -0.6908
  980MOL0     C29244   8.245   5.154   2.987 -0.6810 -0.3201  0.0281
  980MOL0     N29245   8.105   5.138   2.960 -0.1455  0.4335 -0.2204
  980MOL0     C29246   8.049   5.141   2.836 -0.4953  0.0565 -1.0427
  980MOL0     C29247   7.922   5.107   2.860 -0.2754 -0.6753  0.3215
  980MOL0     C29248   7.816   5.114   2.752  0.1568 -0.3422  0.2108
  980MOL0     C29249   7.688   5.204   2.789  0.6126  0.0883  0.2394
  980MOL0     C29250   7.565   5.193   2.703  0.6545  0.7552  0.3811
  980MOL0     C29251   7.465   5.300   2.728  0.1861  0.2884  1.3477
  980MOL0     O29252   7.345   5.263   2.653  0.5902  0.3676 -0.1404
  980MOL0     C29253   7.234   5.343   2.663 -0.5271 -0.3498 -0.0208
  980MOL0     C29254   7.128   5.312   2.580  0.1322 -0.8940  0.0090
  980MOL0     C29255   7.014   5.397   2.573 -0.9984 -0.5728 -0.1626
  980MOL0     C29256   7.010   5.524   2.652 -0.8575  0.4212  0.3962
  980MOL0     C29257   6.890   5.617   2.661  0.5554 -0.1945  0.0331
  980MOL0     O29258   6.777   5.567   2.606  0.7028 -0.3041  0.2183
  980MOL0     C29259   6.656   5.622   2.642  0.5309 -0.2069 -0.6128
  980MOL0     C29260   6.601   5.600   2.773  0.3783  0.2229  0.4788
  980MOL0     C29261   6.468   5.633   2.801 -0.1948  0.0734  0.8040
  980MOL0     C29262   6.393   5.686   2.695 -0.5095 -0.2113  1.3894
  980MOL0     O29263   6.274   5.749   2.725 -0.0475  0.2977  0.4296
  980MOL0     C29264   6.291   5.887   2.706 -0.0497 -0.1260 -0.2838
  980MOL0     C29265   6.175   5.977   2.773 -0.3695  0.7297 -0.1267
  980MOL0     C29266   6.026   5.954   2.735 -0.2355  0.2840 -0.0850
  980MOL0     C29267   5.936   6.059   2.777 -0.3713  0.3829  0.4086
  980MOL0     C29268   5.793   6.035   2.714 -1.5884 -0.2947 -0.4729
  980MOL0     C29269   5.687   6.134   2.744  0.4044  0.6396 -0.0542
  980MOL0     C29270   5.557   6.079   2.674  0.6919  0.0708  0.1845
  980MOL0     C29271   5.442   6.177   2.657 -0.0717  0.4804  0.1673
  980MOL0    Cl29272   5.361   6.186   2.817  0.2245  0.1093  0.2178
  980MOL0     C29273   6.437   5.690   2.564 -0.0295  0.1755  0.8807
  980MOL0     C29274   6.569   5.664   2.541  0.0096 -0.1057 -0.7596
  980MOL0     O29275   6.898   5.705   2.740 -0.2586 -1.5125  0.2725
  980MOL0     C29276   7.119   5.547   2.741  0.7087  0.2189 -0.7829
  980MOL0     C29277   7.228   5.463   2.746  0.1086  1.0506  0.3534
  980MOL0     N29278   7.915   5.058   2.988 -0.4987 -0.2075 -0.8280
  980MOL0     N29279   8.031   5.068   3.055 -0.5933 -0.2204 -0.0916
  980MOL0     C29280   9.190   5.109   3.376  0.1663  0.2232 -0.3013
  980MOL0     C29281   9.326   5.139   3.349 -0.1280  0.4805  0.1283
  980MOL0     C29282   9.765   5.164   3.337  1.0322  1.0285 -0.7218
  980MOL0     C29283   9.837   5.260   3.404  0.0309  0.1792 -0.3174
  980MOL0     C29284   9.966   5.302   3.355  0.0824 -0.4040 -0.1743
  980MOL0     C29285  10.018   5.247   3.227  0.9552 -1.1698 -1.3302
  980MOL0     O29286  10.122   5.286   3.155 -0.0827  0.0260 -0.2002
  980MOL0     C29287  10.253   5.284   3.222 -0.6788  0.2164 -0.5010
  980MOL0     C29288  10.357   5.310   3.107 -0.4405 -0.2072  0.6514
  980MOL0     C29289  10.498   5.288   3.160 -0.0365 -0.1535 -0.2283
  980MOL0     C29290  10.611   5.331   3.068 -0.4854  0.5256 -0.1906
  980MOL0     C29291  10.734   5.272   3.122  0.7270  0.7578 -0.6538
  980MOL0     C29292  10.813   5.202   3.174  0.4506 -0.4331 -0.7685
  980MOL0     C29293   9.933   5.159   3.161 -0.6822  0.0501  0.9777
  980MOL0     C29294   9.811   5.115   3.217  0.8008 -0.1967  0.1705
  980MOL0     H29295   9.461   4.829   3.389 -1.2157 -1.7748  0.3609
  980MOL0     H29296   9.213   4.785   3.443 -1.3946  1.2259  0.0564
  980MOL0     H29297   8.902   5.092   3.399  4.6208 -0.0942  0.3792
  980MOL0     H29298   8.828   4.944   3.439 -1.3108 -3.5287 -2.9614
  980MOL0     H29299   8.904   4.857   3.187  0.4573  0.1835 -1.4384
  980MOL0     H29300   8.917   5.025   3.157  0.0762  2.7636  2.6701
  980MOL0     H29301   8.691   5.081   3.211  1.0926 -0.7793  1.2982
  980MOL0     H29302   8.663   4.925   3.281 -0.4486 -1.3142 -0.1429
  980MOL0     H29303   8.741   4.989   2.993  1.8614  0.1766  1.0707
  980MOL0     H29304   8.720   4.821   3.061  1.4993 -0.0807  1.9591
  980MOL0     H29305   8.473   4.849   3.108 -0.7558 -1.6273 -1.6582
  980MOL0     H29306   8.531   4.845   2.943  0.3401  0.2285 -0.1672
  980MOL0     H29307   8.506   5.097   2.938  1.5259  0.3443  0.5242
  980MOL0     H29308   8.464   5.074   3.119 -0.4020  0.0617 -0.2619
  980MOL0     H29309   8.307   4.971   2.879 -0.4364  2.1648 -1.5270
  980MOL0     H29310   8.255   4.953   3.043  3.1880 -1.8493 -0.3958
  980MOL0     H29311   8.287   5.232   2.923 -0.1850  0.3925  1.1921
  980MOL0     H29312   8.253   5.190   3.089 -0.5849 -0.4483  0.0652
  980MOL0     H29313   8.100   5.177   2.748  0.4890  0.6322 -0.2645
  980MOL0     H29314   7.779   5.011   2.745 -1.2084  0.0409  1.2642
  980MOL0     H29315   7.861   5.134   2.654 -2.8172 -2.8480 -1.9002
  980MOL0     H29316   7.723   5.306   2.773  2.8075 -0.6827 -0.1990
  980MOL0     H29317   7.659   5.187   2.893 -0.3690 -0.2839 -0.0788
  980MOL0     H29318   7.591   5.203   2.597  1.5472 -0.4150  0.4646
  980MOL0     H29319   7.536   5.088   2.713  1.6050  0.4782  0.2836
  980MOL0     H29320   7.507   5.389   2.682  2.0475 -2.3512 -2.6186
  980MOL0     H29321   7.450   5.305   2.837  3.9342 -4.5565  2.4259
  980MOL0     H29322   7.134   5.223   2.518  3.1230 -1.0628  0.4172
  980MOL0     H29323   6.925   5.379   2.513 -1.4050 -0.8719  0.5131
  980MOL0     H29324   6.666   5.564   2.852  1.5556  0.2716 -0.4310
  980MOL0     H29325   6.426   5.634   2.901 -2.7600 -2.4861 -0.0894
  980MOL0     H29326   6.290   5.921   2.602 -1.7267 -1.0831 -0.6205
  980MOL0     H29327   6.382   5.928   2.751 -1.9380  0.9802  2.9064
  980MOL0     H29328   6.199   6.080   2.745 -3.5883  1.2986 -1.1593
  980MOL0     H29329   6.182   5.967   2.882 -0.1471 -1.1383 -0.2777
  980MOL0     H29330   5.997   5.859   2.782 -0.0380  0.0667 -0.4001
  980MOL0     H29331   6.017   5.939   2.627 -1.9872  2.5325 -0.3226
  980MOL0     H29332   5.932   6.066   2.886 -2.3467 -1.3413  0.5240
  980MOL0     H29333   5.973   6.156   2.743 -0.2206 -0.0356 -0.6690
  980MOL0     H29334   5.755   5.936   2.740 -3.0895  0.6920  1.3516
  980MOL0     H29335   5.819   6.039   2.608 -0.5260 -3.2367 -0.4107
  980MOL0     H29336   5.706   6.235   2.706 -0.4537  1.1899  0.9517
  980MOL0     H29337   5.670   6.160   2.848  0.8523 -0.3213  0.2705
  980MOL0     H29338   5.579   6.046   2.573 -5.0568  1.0655 -1.7872
  980MOL0     H29339   5.516   5.992   2.726 -1.6292  0.0843 -1.4616
  980MOL0     H29340   5.378   6.138   2.578  0.4424 -0.1379  0.0437
  980MOL0     H29341   5.490   6.272   2.630  1.6947 -0.2366  0.6717
  980MOL0     H29342   6.372   5.709   2.480  0.4734 -0.2983  0.3750
  980MOL0     H29343   6.601   5.669   2.437 -2.0474 -2.1004 -1.5658
  980MOL0     H29344   7.124   5.633   2.808 -2.7687 -0.6734  0.8163
  980MOL0     H29345   7.317   5.480   2.805  1.5518 -2.4385 -0.5607
  980MOL0     H29346   9.122   5.192   3.392  0.5863  0.2256  1.7126
  980MOL0     H29347   9.363   5.238   3.324 -0.4631  0.5063 -0.2793
  980MOL0     H29348   9.807   5.309   3.496  1.4624 -1.6222  1.1845
  980MOL0     H29349  10.026   5.375   3.408  0.3572 -1.5725  1.1984
  980MOL0     H29350  10.266   5.184   3.266 -2.0686 -0.1001 -0.7485
  980MOL0     H29351  10.263   5.364   3.295 -1.6265 -0.5090  0.4500
  980MOL0     H29352  10.335   5.246   3.020  0.8670 -0.7385  0.6962
  980MOL0     H29353  10.345   5.414   3.078 -1.9459 -0.2265  1.0969
  980MOL0     H29354  10.514   5.180   3.171  2.5606  0.2433  0.5500
  980MOL0     H29355  10.503   5.324   3.263  0.0785  1.7252 -0.8528
  980MOL0     H29356  10.596   5.287   2.969 -2.5732  0.1197  0.2587
  980MOL0     H29357  10.626   5.439   3.055  2.3766 -0.0790 -3.4865
  980MOL0     H29358  10.885   5.142   3.223 -0.0663 -2.7623 -2.6879
  980MOL0     H29359   9.983   5.118   3.074  0.5461 -1.6387  2.3973
  980MOL0     H29360   9.764   5.044   3.149 -0.9807  0.8222  0.2943
  981MOL0     O29361   3.132   5.170   5.491  0.4491  0.4300 -0.4868
  981MOL0     C29362   3.101   5.229   5.596 -0.2053 -1.0004  0.5335
  981MOL0     O29363   3.162   5.350   5.636 -0.0210  0.2543  0.2906
  981MOL0     C29364   3.293   5.378   5.591  0.4725  0.6692 -0.3228
  981MOL0     C29365   3.344   5.497   5.642 -0.0282  0.1902  0.2271
  981MOL0     C29366   3.469   5.551   5.612  0.6453 -0.3018  0.1929
  981MOL0     C29367   3.551   5.484   5.532 -0.4811 -0.0199  0.0861
  981MOL0     O29368   3.677   5.521   5.504 -0.0811 -0.0443 -0.2773
  981MOL0     C29369   3.699   5.584   5.380 -0.3451 -0.4676  0.9054
  981MOL0     C29370   3.848   5.624   5.356 -0.6070  0.1740 -0.2955
  981MOL0     C29371   3.906   5.710   5.470 -0.2036 -1.0699  0.5004
  981MOL0     C29372   3.868   5.855   5.451 -0.5128  0.0730 -0.7903
  981MOL0     C29373   3.990   5.941   5.479  0.1637 -0.3593  0.8545
  981MOL0     C29374   3.960   6.088   5.439 -0.3050  0.2740  0.7967
  981MOL0     C29375   3.872   6.146   5.552  0.0743 -0.8120 -0.5295
  981MOL0     C29376   3.830   6.289   5.529  0.7069 -0.3878 -0.2216
  981MOL0     N29377   3.933   6.393   5.554  0.7455 -0.1512 -0.0306
  981MOL0     C29378   3.933   6.476   5.665 -0.0526  0.3174 -0.6176
  981MOL0     C29379   4.029   6.570   5.637  0.3950 -0.1812  0.2929
  981MOL0     C29380   4.066   6.682   5.722  0.1749 -0.5507  0.1238
  981MOL0     C29381   3.934   6.745   5.778 -0.2693 -0.1254 -0.4309
  981MOL0     C29382   3.952   6.887   5.829 -0.6296  0.3402  1.0172
  981MOL0     C29383   3.820   6.938   5.902  0.2961  0.3702 -0.0944
  981MOL0     O29384   3.705   6.969   5.825 -0.2177  0.3257  0.2760
  981MOL0     C29385   3.583   6.994   5.893  0.3825  0.5431 -0.4168
  981MOL0     C29386   3.566   7.042   6.026 -0.4466 -0.2161 -0.4667
  981MOL0     C29387   3.434   7.053   6.093  0.1127  0.2854  0.2546
  981MOL0     C29388   3.325   7.016   6.011  0.2198  0.8517  0.0542
  981MOL0     C29389   3.182   7.029   6.054  0.2896  0.0355  0.5788
  981MOL0     O29390   3.085   6.989   5.960 -0.3836 -0.0640 -0.7039
  981MOL0     C29391   2.947   6.994   5.981 -1.0445  0.6231  0.5571
  981MOL0     C29392   2.894   6.989   6.114  0.1956  0.3500 -0.7083
  981MOL0     C29393   2.760   6.993   6.133 -0.2603 -0.1514  0.5717
  981MOL0     C29394   2.675   7.001   6.025 -0.1123 -0.2187 -0.0251
  981MOL0     O29395   2.543   7.010   6.054 -0.2620  0.0514  0.1551
  981MOL0     C29396   2.456   7.070   5.960 -0.4343 -1.3506 -0.1464
  981MOL0     C29397   2.316   7.108   6.015 -0.2757 -0.1644  0.1268
  981MOL0     C29398   2.213   7.107   5.897  0.3366  0.8925  0.6833
  981MOL0     C29399   2.074   7.158   5.948 -0.3463  0.6458  0.2328
  981MOL0     C29400   2.076   7.304   5.972 -0.3158  0.1926 -0.0682
  981MOL0     C29401   1.941   7.368   5.967  0.2804 -0.0136 -0.5237
  981MOL0     C29402   1.942   7.514   6.018  0.9074  0.4693 -0.2991
  981MOL0     C29403   2.011   7.617   5.926  0.5555  0.9437  0.0903
  981MOL0    Cl29404   1.927   7.654   5.760 -0.3705  0.4671  0.0535
  981MOL0     C29405   2.717   6.973   5.896 -0.3538 -0.4856  0.4091
  981MOL0     C29406   2.859   6.979   5.875  0.0800  0.3931  0.1204
  981MOL0     O29407   3.159   7.087   6.160 -0.7744 -0.0822  0.5650
  981MOL0     C29408   3.344   6.993   5.874  0.7398 -0.3693  0.4866
  981MOL0     C29409   3.471   6.969   5.814  1.0770  0.1014 -0.9153
  981MOL0     N29410   4.079   6.546   5.510 -0.0297  0.1071  0.2802
  981MOL0     N29411   4.029   6.439   5.471 -0.5831  0.7573 -0.0868
  981MOL0     C29412   3.509   5.364   5.467 -0.0108  0.0612 -0.3610
  981MOL0     C29413   3.382   5.308   5.501 -0.6447 -0.0352 -0.8250
  981MOL0     C29414   2.961   5.202   5.649 -0.8830 -0.5873 -0.9694
  981MOL0     C29415   2.927   5.071   5.650  0.2641  0.1608 -0.3947
  981MOL0     C29416   2.805   5.039   5.712 -0.5261  0.3102  0.6204
  981MOL0     C29417   2.710   5.126   5.759 -0.4491 -0.1759  1.0122
  981MOL0     O29418   2.587   5.089   5.789 -0.5919  0.6863  0.0791
  981MOL0     C29419   2.558   5.081   5.935 -0.3524  0.2878  0.2199
  981MOL0     C29420   2.436   5.169   5.968  0.2903 -0.8154  0.6358
  981MOL0     C29421   2.310   5.087   5.956  0.7084 -0.1578  0.6705
  981MOL0     C29422   2.177   5.168   5.964 -0.0274  0.0214  0.5845
  981MOL0     C29423   2.076   5.076   5.930  0.4415  0.6378  0.1713
  981MOL0     C29424   1.998   4.986   5.899  0.8788  0.4415 -0.7114
  981MOL0     C29425   2.752   5.260   5.759  0.3181 -0.4579  0.1141
  981MOL0     C29426   2.876   5.301   5.701 -1.1611  0.1806 -0.7002
  981MOL0     H29427   3.277   5.541   5.715 -2.0592 -4.2253  1.3573
  981MOL0     H29428   3.512   5.634   5.667  0.8467  1.7147 -2.8023
  981MOL0     H29429   3.648   5.681   5.370 -0.0654 -0.4090 -0.1186
  981MOL0     H29430   3.672   5.527   5.290  4.1445 -1.9320  0.2471
  981MOL0     H29431   3.858   5.661   5.253 -1.1337  0.0176 -0.4030
  981MOL0     H29432   3.896   5.526   5.346 -0.5526  0.2970 -1.4551
  981MOL0     H29433   4.015   5.697   5.467 -0.3965 -2.8173 -0.4109
  981MOL0     H29434   3.871   5.669   5.566  0.2783 -1.8957  0.3372
  981MOL0     H29435   3.821   5.873   5.353  1.7081  3.2505 -1.4323
  981MOL0     H29436   3.792   5.888   5.523  1.2129  2.8562 -0.0901
  981MOL0     H29437   4.072   5.915   5.410  0.1954  0.7557  0.4511
  981MOL0     H29438   4.030   5.924   5.579  0.4609  0.2326  0.8411
  981MOL0     H29439   3.911   6.096   5.342  1.1377  1.6544  0.1353
  981MOL0     H29440   4.056   6.140   5.447 -0.3247  0.1250  2.5213
  981MOL0     H29441   3.777   6.093   5.552  1.6040 -3.7738 -0.5067
  981MOL0     H29442   3.922   6.142   5.649 -2.0261  1.7554  0.7891
  981MOL0     H29443   3.746   6.305   5.597  2.0926  0.3312  1.4035
  981MOL0     H29444   3.778   6.303   5.433 -0.2727  0.6927  0.4428
  981MOL0     H29445   3.854   6.486   5.739 -1.0955 -1.9399 -1.3398
  981MOL0     H29446   4.122   6.755   5.663 -0.4696 -0.8231 -0.8418
  981MOL0     H29447   4.134   6.648   5.801 -0.0640 -0.7270  0.2560
  981MOL0     H29448   3.903   6.679   5.859  0.3333  0.2108  0.0835
  981MOL0     H29449   3.852   6.741   5.706 -2.1283  2.7662  1.3225
  981MOL0     H29450   4.039   6.894   5.895  1.7645 -1.2330 -1.7760
  981MOL0     H29451   3.966   6.951   5.742 -0.4916 -0.3754  0.5051
  981MOL0     H29452   3.845   7.032   5.952 -0.4038 -0.4766  1.9497
  981MOL0     H29453   3.800   6.867   5.983 -1.6435 -1.9763 -2.4516
  981MOL0     H29454   3.659   7.061   6.079  0.1504 -1.1542 -1.1287
  981MOL0     H29455   3.434   7.082   6.198 -0.0654  0.5152  0.1927
  981MOL0     H29456   2.958   6.988   6.202  0.3319  3.0483 -0.6769
  981MOL0     H29457   2.718   6.987   6.233 -0.4714  1.3579  0.5898
  981MOL0     H29458   2.446   7.009   5.870 -0.7734  1.2756 -2.0340
  981MOL0     H29459   2.507   7.164   5.936 -0.9693 -0.6001  1.4604
  981MOL0     H29460   2.334   7.208   6.057 -0.4413 -0.2378  0.3713
  981MOL0     H29461   2.280   7.039   6.091  3.8577 -4.5178 -1.3775
  981MOL0     H29462   2.191   7.007   5.860 -2.8987  0.6941  2.7282
  981MOL0     H29463   2.247   7.162   5.808  0.0991 -0.7755 -0.4796
  981MOL0     H29464   2.002   7.131   5.871  1.5984 -1.3752 -1.0108
  981MOL0     H29465   2.054   7.108   6.044  0.6766  2.2708  1.3347
  981MOL0     H29466   2.130   7.349   5.889  0.5103 -0.2987  0.1904
  981MOL0     H29467   2.128   7.321   6.067  2.5150 -2.6620 -0.9227
  981MOL0     H29468   1.873   7.313   6.033 -0.2510  0.4527 -0.6805
  981MOL0     H29469   1.904   7.363   5.864 -0.9945  1.3922 -0.1621
  981MOL0     H29470   1.843   7.555   6.037  2.0021  2.7019  1.0737
  981MOL0     H29471   2.002   7.515   6.109 -0.5718  1.6240  0.7070
  981MOL0     H29472   2.111   7.580   5.902  0.3713 -0.6858  1.5994
  981MOL0     H29473   2.015   7.711   5.983  0.5256  0.9589  0.0661
  981MOL0     H29474   2.648   6.974   5.812  0.5085  0.0288 -0.3161
  981MOL0     H29475   2.897   6.966   5.775  2.4325 -1.2295  1.1475
  981MOL0     H29476   3.266   6.973   5.801  0.9450 -1.0242  0.4390
  981MOL0     H29477   3.478   6.928   5.713  0.9936 -2.0104 -0.1199
  981MOL0     H29478   3.569   5.298   5.404 -0.4491 -0.5930 -0.1096
  981MOL0     H29479   3.357   5.212   5.457 -0.3608 -1.6095  2.1890
  981MOL0     H29480   2.999   4.994   5.624  0.0779 -0.0163 -0.3908
  981MOL0     H29481   2.781   4.934   5.722 -0.7031 -0.0087 -2.2186
  981MOL0     H29482   2.642   5.126   5.988 -0.3711  1.6610 -0.8431
  981MOL0     H29483   2.549   4.979   5.974 -3.3664  0.3405 -0.0780
  981MOL0     H29484   2.446   5.207   6.070  1.7387  0.8563 -0.0693
  981MOL0     H29485   2.429   5.259   5.906 -1.0832  0.6220  2.7392
  981MOL0     H29486   2.315   5.012   6.036  2.0052  1.2691  1.9972
  981MOL0     H29487   2.315   5.035   5.860  1.7306  0.4128  0.4007
  981MOL0     H29488   2.159   5.200   6.067 -2.3190  0.4872  0.0872
  981MOL0     H29489   2.189   5.255   5.899 -0.4661 -0.2979  0.0675
  981MOL0     H29490   1.922   4.919   5.866  1.9557  0.4812 -3.6216
  981MOL0     H29491   2.680   5.332   5.797 -0.1911 -1.1489  0.4799
  981MOL0     H29492   2.911   5.404   5.707 -2.5074  0.5944  1.0372
  982MOL0     O29493   6.272   7.338   4.200  0.0731  0.1986  0.0394
  982MOL0     C29494   6.356   7.261   4.238 -0.4204  0.9226  0.1779
  982MOL0     O29495   6.358   7.207   4.367 -0.7772 -1.0075  0.1677
  982MOL0     C29496   6.245   7.144   4.420 -0.7910  0.6563 -0.3509
  982MOL0     C29497   6.114   7.152   4.377 -0.2772  0.3355  0.9529
  982MOL0     C29498   5.998   7.090   4.441 -1.1208  0.1467  0.9181
  982MOL0     C29499   6.032   7.005   4.553  0.1142  0.0494  0.6788
  982MOL0     O29500   5.947   6.925   4.625  0.3094  0.4694  0.5234
  982MOL0     C29501   5.813   6.924   4.571  0.6012 -0.0700  0.0538
  982MOL0     C29502   5.740   6.830   4.667 -0.6263 -0.5861 -0.4410
  982MOL0     C29503   5.609   6.763   4.605 -0.3516 -0.0971 -0.6098
  982MOL0     C29504   5.543   6.675   4.713  0.9132 -0.6517 -0.1927
  982MOL0     C29505   5.604   6.533   4.729 -0.5358  0.2718  0.9407
  982MOL0     C29506   5.560   6.438   4.616  0.6728  1.0616 -0.1278
  982MOL0     C29507   5.647   6.307   4.616 -0.3322 -0.9277 -0.3994
  982MOL0     C29508   5.653   6.253   4.752 -0.4763 -0.1887 -0.4359
  982MOL0     N29509   5.518   6.200   4.794  0.0139 -0.3297  0.1224
  982MOL0     C29510   5.440   6.108   4.721 -0.4667  0.1403  0.2055
  982MOL0     C29511   5.335   6.088   4.797 -0.2867 -0.7459  0.6008
  982MOL0     C29512   5.229   5.974   4.769  0.3316 -0.3210 -0.1702
  982MOL0     C29513   5.194   5.887   4.897 -0.1348  0.3570 -0.7620
  982MOL0     C29514   5.135   5.752   4.870  0.0138  0.4059  0.0028
  982MOL0     C29515   5.058   5.696   4.998  0.1354  0.3564  0.3058
  982MOL0     O29516   4.951   5.611   4.950 -0.2747 -0.4645  0.5546
  982MOL0     C29517   4.854   5.571   5.044 -1.5839 -0.0675  0.3718
  982MOL0     C29518   4.761   5.470   5.006  0.4264 -0.7896 -0.0246
  982MOL0     C29519   4.651   5.436   5.083 -0.2331 -0.5362 -0.3188
  982MOL0     C29520   4.639   5.490   5.213 -1.1934 -0.4810  0.1194
  982MOL0     C29521   4.528   5.440   5.305  0.3274  0.2175  0.0915
  982MOL0     O29522   4.446   5.335   5.259 -0.1387 -0.3011 -0.3085
  982MOL0     C29523   4.340   5.292   5.337 -0.0065  0.0062  0.0720
  982MOL0     C29524   4.247   5.383   5.393  0.0560  0.5386  0.1247
  982MOL0     C29525   4.140   5.348   5.474  0.4350 -0.6025 -0.9741
  982MOL0     C29526   4.129   5.207   5.511  0.1570 -0.1973  1.1860
  982MOL0     O29527   4.040   5.162   5.607  0.1117 -0.7875  0.5634
  982MOL0     C29528   3.928   5.243   5.645 -0.2007 -0.1159 -0.7912
  982MOL0     C29529   3.845   5.164   5.742 -0.1085 -0.4019  0.1110
  982MOL0     C29530   3.714   5.238   5.776  0.3046  0.3156 -0.9568
  982MOL0     C29531   3.634   5.154   5.875  0.1865  0.5933  0.1794
  982MOL0     C29532   3.482   5.184   5.850  0.0182 -0.2388  0.0263
  982MOL0     C29533   3.386   5.126   5.965 -0.0536  0.3103  0.5797
  982MOL0     C29534   3.242   5.171   5.955  0.4075  0.1494  0.5235
  982MOL0     C29535   3.156   5.088   6.046  0.6847 -1.1430  0.4652
  982MOL0    Cl29536   2.988   5.119   5.992  0.0094  0.2419  0.1773
  982MOL0     C29537   4.228   5.121   5.457 -0.0829 -0.0137 -0.5625
  982MOL0     C29538   4.330   5.158   5.377 -0.3393 -0.2684 -0.5969
  982MOL0     O29539   4.518   5.494   5.417  0.0297  0.0764  0.1632
  982MOL0     C29540   4.731   5.588   5.256  0.1931  0.3352  0.1459
  982MOL0     C29541   4.839   5.629   5.175 -0.7592  0.1028  0.4869
  982MOL0     N29542   5.349   6.162   4.910  0.2877 -0.6194 -0.4061
  982MOL0     N29543   5.456   6.238   4.906  0.6680 -0.1630 -0.2728
  982MOL0     C29544   6.169   6.980   4.586 -0.4173 -0.4807 -0.0258
  982MOL0     C29545   6.274   7.056   4.529 -0.0366  0.0292 -0.0225
  982MOL0     C29546   6.462   7.233   4.136 -0.8642 -0.8804  0.2401
  982MOL0     C29547   6.550   7.132   4.145 -0.1411 -0.0758  0.5325
  982MOL0     C29548   6.661   7.121   4.058  0.8260  0.3064 -0.3431
  982MOL0     C29549   6.669   7.200   3.939 -0.6912  0.5284  0.0644
  982MOL0     O29550   6.771   7.178   3.840  0.2439  0.6389 -0.1202
  982MOL0     C29551   6.888   7.113   3.879  0.3699 -0.5088  0.4616
  982MOL0     C29552   6.994   7.126   3.770 -0.0450 -1.0927  0.8055
  982MOL0     C29553   6.998   7.274   3.714  0.2459 -0.0541 -0.4545
  982MOL0     C29554   7.117   7.280   3.619  0.8413  0.3817  0.0760
  982MOL0     C29555   7.116   7.401   3.534  0.0345 -0.0653  0.8076
  982MOL0     C29556   7.094   7.491   3.456 -0.2122 -0.6043  0.5903
  982MOL0     C29557   6.574   7.300   3.927 -0.5531 -0.8928 -0.6181
  982MOL0     C29558   6.479   7.323   4.029  0.5262 -0.4175  0.4926
  982MOL0     H29559   6.091   7.220   4.296 -0.0160 -1.3851 -0.6432
  982MOL0     H29560   5.896   7.112   4.410 -0.9790 -0.5159 -0.0677
  982MOL0     H29561   5.818   6.886   4.468 -0.2377  2.9808 -1.2105
  982MOL0     H29562   5.780   7.028   4.573 -2.3750 -0.8679 -1.3988
  982MOL0     H29563   5.711   6.887   4.755  1.0536 -1.0927  0.4799
  982MOL0     H29564   5.798   6.745   4.705  0.6515  0.0626 -0.8938
  982MOL0     H29565   5.642   6.708   4.517  2.3849 -0.5921  0.6164
  982MOL0     H29566   5.548   6.852   4.584  2.9330  2.9891  1.5779
  982MOL0     H29567   5.546   6.728   4.809  0.8998 -3.5497  1.5692
  982MOL0     H29568   5.437   6.665   4.686  0.5075 -0.7051  1.2785
  982MOL0     H29569   5.564   6.489   4.821  1.3190 -0.3679  1.4894
  982MOL0     H29570   5.712   6.524   4.738 -0.7755 -2.9647  1.6605
  982MOL0     H29571   5.566   6.475   4.513  2.8927  1.4506  0.0886
  982MOL0     H29572   5.458   6.409   4.643  0.2177  0.0635 -2.6899
  982MOL0     H29573   5.606   6.223   4.560 -0.0396 -1.9292  0.8402
  982MOL0     H29574   5.747   6.339   4.583 -1.1743  1.2115 -1.0745
  982MOL0     H29575   5.698   6.321   4.824 -2.4841  1.7673 -0.9130
  982MOL0     H29576   5.720   6.167   4.758  2.4599  1.8437 -1.6281
  982MOL0     H29577   5.458   6.055   4.628 -0.0995 -1.6936  1.2619
  982MOL0     H29578   5.267   5.904   4.694  0.7749  1.1197 -1.3338
  982MOL0     H29579   5.135   6.011   4.727 -0.1647 -0.8654  0.4348
  982MOL0     H29580   5.108   5.936   4.944 -1.1335  0.0820 -2.2393
  982MOL0     H29581   5.275   5.881   4.971  1.8255  2.2613 -2.6022
  982MOL0     H29582   5.066   5.757   4.785 -1.1099 -0.8321  0.8175
  982MOL0     H29583   5.216   5.680   4.855 -0.0029  0.6347 -1.3383
  982MOL0     H29584   5.016   5.788   5.039 -1.6790  0.1365 -0.9600
  982MOL0     H29585   5.137   5.651   5.059 -0.0599 -2.6992 -1.4702
  982MOL0     H29586   4.774   5.426   4.908 -2.4850 -0.9805 -0.4081
  982MOL0     H29587   4.599   5.343   5.064 -0.6948 -0.8095  2.0016
  982MOL0     H29588   4.275   5.487   5.378  1.4363  0.3128  0.8954
  982MOL0     H29589   4.086   5.436   5.506  0.0145 -1.3022  0.3008
  982MOL0     H29590   3.859   5.282   5.570 -1.1370  0.2558  0.2410
  982MOL0     H29591   3.980   5.327   5.692 -1.2268  0.5848 -0.8598
  982MOL0     H29592   3.897   5.149   5.837  1.4745  0.8544 -0.5043
  982MOL0     H29593   3.829   5.070   5.689  2.5585 -0.6195 -0.4434
  982MOL0     H29594   3.664   5.246   5.679  1.0891  0.9164 -1.3251
  982MOL0     H29595   3.740   5.337   5.814 -0.6322 -0.7074  2.7192
  982MOL0     H29596   3.652   5.048   5.856  1.6272  0.8896 -0.2685
  982MOL0     H29597   3.669   5.184   5.974  0.8778  0.5939 -0.0598
  982MOL0     H29598   3.451   5.157   5.749  2.7454 -1.8079 -0.4836
  982MOL0     H29599   3.480   5.293   5.857  3.3851 -0.1622  1.8093
  982MOL0     H29600   3.429   5.156   6.061 -0.7782 -1.4720  1.5067
  982MOL0     H29601   3.403   5.019   5.960  5.3323  0.9632 -1.3101
  982MOL0     H29602   3.234   5.278   5.976 -0.7163 -0.3591  3.0742
  982MOL0     H29603   3.202   5.163   5.853 -0.1288  1.5347  0.6051
  982MOL0     H29604   3.169   5.116   6.151  0.0938  4.1829 -0.6140
  982MOL0     H29605   3.187   4.983   6.036  2.1453 -0.8210  1.2113
  982MOL0     H29606   4.217   5.018   5.489 -4.3353  0.7725  1.1848
  982MOL0     H29607   4.394   5.081   5.336  0.1946  1.0631 -2.4047
  982MOL0     H29608   4.712   5.632   5.354  3.1415 -0.9778  1.4071
  982MOL0     H29609   4.906   5.708   5.208  1.6931 -0.9533 -1.6485
  982MOL0     H29610   6.187   6.899   4.655  0.4076 -2.4293 -2.3736
  982MOL0     H29611   6.377   7.049   4.565  1.1407 -0.5780 -3.2165
  982MOL0     H29612   6.548   7.060   4.226 -0.1005  0.3158  0.8844
  982MOL0     H29613   6.724   7.034   4.075  1.0365  0.5703  0.2649
  982MOL0     H29614   6.863   7.007   3.893 -2.6479 -0.3175 -2.3917
  982MOL0     H29615   6.935   7.158   3.968  3.2697  1.6204 -1.9393
  982MOL0     H29616   7.094   7.103   3.806  1.8855  1.9702 -2.0177
  982MOL0     H29617   6.957   7.070   3.683  0.1122  1.3598 -0.9430
  982MOL0     H29618   7.020   7.338   3.800 -0.7569  0.0020 -0.2336
  982MOL0     H29619   6.906   7.304   3.664  1.7215  1.8555 -2.1876
  982MOL0     H29620   7.207   7.271   3.681  0.4840  0.7213  0.6437
  982MOL0     H29621   7.113   7.190   3.556  1.1012 -0.0302  0.6398
  982MOL0     H29622   7.093   7.585   3.404 -1.0382 -1.2177 -0.5587
  982MOL0     H29623   6.570   7.361   3.837  2.7324 -0.6967 -0.7419
  982MOL0     H29624   6.420   7.412   4.011  1.8443  0.2987 -0.4811
  983MOL0     O29625   9.416   8.801   5.492  0.2285  0.0458 -0.5434
  983MOL0     C29626   9.491   8.709   5.522 -0.2275  0.4457  2.0776
  983MOL0     O29627   9.517   8.601   5.445  0.0053 -0.1294 -0.2477
  983MOL0     C29628   9.461   8.586   5.328  0.8982 -0.0489  0.8789
  983MOL0     C29629   9.527   8.577   5.200 -0.7842 -0.5099 -0.0493
  983MOL0     C29630   9.461   8.558   5.085 -0.3138 -0.1329  0.1420
  983MOL0     C29631   9.322   8.531   5.084 -0.3904  0.2507  0.2751
  983MOL0     O29632   9.268   8.509   4.957 -0.4640  0.7158  0.6983
  983MOL0     C29633   9.138   8.454   4.940  0.0201  0.3649  0.5223
  983MOL0     C29634   9.133   8.303   4.946 -0.8540 -0.0049 -0.5464
  983MOL0     C29635   9.241   8.231   4.877 -0.5899 -0.0432 -0.4298
  983MOL0     C29636   9.216   8.247   4.723  0.0295 -0.1099 -0.2544
  983MOL0     C29637   9.350   8.222   4.636 -0.0688 -0.7021  0.7997
  983MOL0     C29638   9.414   8.093   4.675 -0.8238  0.6943 -0.4884
  983MOL0     C29639   9.544   8.057   4.598  0.0802  0.0813  0.3426
  983MOL0     C29640   9.673   8.076   4.675  0.1097 -1.6791 -0.3558
  983MOL0     N29641   9.782   8.062   4.582 -0.6101  0.0611  0.0296
  983MOL0     C29642   9.896   8.134   4.606  0.1322  0.3691 -0.1395
  983MOL0     C29643   9.975   8.110   4.491 -0.7023  0.4450 -0.5361
  983MOL0     C29644  10.113   8.169   4.476  0.0768 -1.0815  1.0623
  983MOL0     C29645  10.225   8.082   4.539 -0.7330  0.8525  0.5567
  983MOL0     C29646  10.244   7.960   4.453  0.1461 -0.2665 -0.6433
  983MOL0     C29647  10.380   7.885   4.502 -0.4958 -0.1709 -0.1475
  983MOL0     O29648  10.395   7.757   4.446  0.8058  1.0059 -0.3257
  983MOL0     C29649  10.448   7.740   4.317  0.3536  0.0326  0.6624
  983MOL0     C29650  10.469   7.610   4.277  0.4408 -0.3948 -1.0455
  983MOL0     C29651  10.526   7.575   4.160  0.8481  0.2432  0.1845
  983MOL0     C29652  10.566   7.676   4.077 -0.5351 -0.2812  0.6990
  983MOL0     C29653  10.634   7.636   3.939 -0.0194  0.0213 -0.7448
  983MOL0     O29654  10.658   7.503   3.911  0.0360 -0.3563  1.0139
  983MOL0     C29655  10.758   7.480   3.825 -0.4456 -0.4767 -0.3114
  983MOL0     C29656  10.885   7.445   3.877  0.5725 -0.6222  0.5163
  983MOL0     C29657  10.993   7.427   3.795 -0.1240 -0.0767  0.2197
  983MOL0     C29658  10.975   7.424   3.657 -0.0600 -0.5566 -0.2793
  983MOL0     O29659  11.078   7.409   3.573 -0.1012 -0.9262 -0.2056
  983MOL0     C29660  11.188   7.320   3.610 -0.1066  0.2490  0.1199
  983MOL0     C29661  11.319   7.361   3.540  0.3911 -0.8136  0.4016
  983MOL0     C29662  11.447   7.302   3.603  0.4812  0.0087  0.5224
  983MOL0     C29663  11.477   7.154   3.580 -0.3466  1.0557 -0.2806
  983MOL0     C29664  11.627   7.129   3.601  0.1326  0.2444 -0.4182
  983MOL0     C29665  11.665   6.985   3.567 -0.6500  0.6544  0.2699
  983MOL0     C29666  11.804   6.955   3.633  1.0063 -0.8585  0.7562
  983MOL0     C29667  11.865   6.833   3.570 -0.4044  0.1566 -0.4361
  983MOL0    Cl29668  11.754   6.685   3.545  0.5837  0.0980 -0.2277
  983MOL0     C29669  10.844   7.451   3.604  0.0674  0.5615  0.1475
  983MOL0     C29670  10.738   7.471   3.688 -0.0147 -0.2167 -0.8409
  983MOL0     O29671  10.666   7.732   3.868  0.3921  0.8805  0.2472
  983MOL0     C29672  10.545   7.809   4.113  0.4258  0.5693 -0.4413
  983MOL0     C29673  10.489   7.840   4.230  0.8367  0.4917  0.1670
  983MOL0     N29674   9.911   8.017   4.407  0.3881 -1.0424  0.6553
  983MOL0     N29675   9.803   7.991   4.467  0.0071 -0.0219 -0.5927
  983MOL0     C29676   9.249   8.535   5.201  0.4120 -0.7914 -0.3906
  983MOL0     C29677   9.320   8.570   5.321  0.0717  0.5787  0.1960
  983MOL0     C29678   9.562   8.725   5.648 -0.2173  0.0068 -0.8709
  983MOL0     C29679   9.660   8.635   5.689 -0.0947  0.1419  0.1553
  983MOL0     C29680   9.723   8.653   5.814  0.4947  0.5647  0.1383
  983MOL0     C29681   9.683   8.755   5.899  0.2995 -0.1803  0.3298
  983MOL0     O29682   9.727   8.788   6.021 -0.8158  0.3352 -0.4204
  983MOL0     C29683   9.826   8.691   6.070  0.0857  0.0866 -0.5557
  983MOL0     C29684   9.866   8.713   6.216  0.0355  0.1531  0.5256
  983MOL0     C29685   9.757   8.753   6.317 -0.1249 -0.4884  0.0833
  983MOL0     C29686   9.738   8.907   6.327  0.2095 -0.0057  0.8345
  983MOL0     C29687   9.735   8.961   6.463  0.1366  0.5812 -0.5500
  983MOL0     C29688   9.731   8.988   6.579  0.4051 -0.6394 -0.6189
  983MOL0     C29689   9.583   8.848   5.863 -0.1321 -0.8761 -1.1692
  983MOL0     C29690   9.533   8.830   5.737 -0.3727 -0.4110 -0.7547
  983MOL0     H29691   9.630   8.610   5.194 -0.0350 -2.4439  1.1506
  983MOL0     H29692   9.515   8.560   4.991  1.1266 -0.2850  0.9485
  983MOL0     H29693   9.099   8.474   4.840  1.5086 -0.7577 -0.3188
  983MOL0     H29694   9.063   8.499   5.006  0.4530 -0.4836  1.6284
  983MOL0     H29695   9.033   8.270   4.915 -1.7310 -0.1738  2.2472
  983MOL0     H29696   9.145   8.274   5.050 -0.2099  1.5595 -0.1567
  983MOL0     H29697   9.241   8.123   4.893  2.2802  0.0060  0.4959
  983MOL0     H29698   9.339   8.268   4.911 -1.0284  1.0041 -0.2549
  983MOL0     H29699   9.146   8.171   4.686  0.6044 -0.9642  0.3727
  983MOL0     H29700   9.177   8.346   4.698 -1.3356 -0.6363 -0.3101
  983MOL0     H29701   9.413   8.312   4.630 -1.0345 -0.0546 -4.4496
  983MOL0     H29702   9.316   8.205   4.533  0.4073  1.0144  0.3315
  983MOL0     H29703   9.347   8.013   4.642  0.9130 -0.2771 -1.8217
  983MOL0     H29704   9.434   8.071   4.780 -0.0695 -2.3321 -1.1737
  983MOL0     H29705   9.547   7.952   4.565  2.0621  0.4660 -0.8304
  983MOL0     H29706   9.543   8.107   4.501 -2.1216  0.2816  0.4018
  983MOL0     H29707   9.687   8.019   4.767 -0.0027 -0.2213  0.5996
  983MOL0     H29708   9.667   8.177   4.716 -1.9978 -1.1321 -1.8065
  983MOL0     H29709   9.906   8.190   4.698 -3.4749  1.8937 -0.5333
  983MOL0     H29710  10.116   8.258   4.539  1.1515  0.6980 -1.3722
  983MOL0     H29711  10.129   8.200   4.373 -0.3545  2.3138  1.8996
  983MOL0     H29712  10.189   8.048   4.637  1.7227 -2.0055  0.6258
  983MOL0     H29713  10.322   8.128   4.560 -0.0779 -0.4113  0.3993
  983MOL0     H29714  10.166   7.883   4.451  2.7957 -3.1802 -3.3932
  983MOL0     H29715  10.255   8.001   4.352  0.6815  2.9134  0.6001
  983MOL0     H29716  10.371   7.863   4.608 -0.8181 -3.9806 -0.8276
  983MOL0     H29717  10.465   7.949   4.476 -1.5582  1.7219  0.8410
  983MOL0     H29718  10.449   7.526   4.343  1.9655 -1.5182 -1.9738
  983MOL0     H29719  10.540   7.472   4.128  5.1602  0.2039  1.4672
  983MOL0     H29720  10.898   7.431   3.984  0.5643 -1.4213  0.4248
  983MOL0     H29721  11.091   7.418   3.842 -0.1076 -1.4700 -0.0292
  983MOL0     H29722  11.162   7.217   3.584  0.4915  0.0400  0.3228
  983MOL0     H29723  11.189   7.326   3.719 -0.8354  4.8554  0.0774
  983MOL0     H29724  11.327   7.470   3.533 -1.8952 -0.5939  0.6278
  983MOL0     H29725  11.299   7.328   3.438 -0.8488 -0.7019  0.5942
  983MOL0     H29726  11.457   7.334   3.707  2.1780 -0.1773  0.4462
  983MOL0     H29727  11.527   7.364   3.562 -0.4523  3.3893  3.2822
  983MOL0     H29728  11.409   7.099   3.645  1.0332 -2.3927 -1.5126
  983MOL0     H29729  11.454   7.133   3.475  2.3048 -1.8441 -0.4490
  983MOL0     H29730  11.644   7.142   3.708 -1.9335  2.8674 -0.3177
  983MOL0     H29731  11.689   7.199   3.544 -2.2387 -0.4129 -4.1177
  983MOL0     H29732  11.666   6.979   3.457  1.0615 -0.8385  0.3226
  983MOL0     H29733  11.590   6.918   3.610  0.3562 -1.6214 -1.2900
  983MOL0     H29734  11.860   7.048   3.628 -2.3264  1.6346  4.0453
  983MOL0     H29735  11.775   6.935   3.737 -0.3116 -1.4474  0.3051
  983MOL0     H29736  11.954   6.808   3.628 -0.4717  0.9538  0.0175
  983MOL0     H29737  11.902   6.866   3.472 -0.8436  2.2085  0.0524
  983MOL0     H29738  10.842   7.456   3.495  1.5274 -0.3250  0.0564
  983MOL0     H29739  10.635   7.491   3.660  0.5138 -0.7376 -3.4442
  983MOL0     H29740  10.562   7.882   4.034  0.5757  3.2955  1.9513
  983MOL0     H29741  10.473   7.944   4.259 -1.1474 -0.1405  1.5645
  983MOL0     H29742   9.143   8.513   5.211  0.9071 -3.1779  0.1563
  983MOL0     H29743   9.261   8.576   5.412 -2.1119 -0.9612 -1.0258
  983MOL0     H29744   9.684   8.552   5.623 -2.0753  0.1644 -0.6738
  983MOL0     H29745   9.780   8.567   5.846 -1.7215 -1.7656 -1.7068
  983MOL0     H29746   9.920   8.697   6.014  0.3894  2.3608  0.0802
  983MOL0     H29747   9.776   8.594   6.072  2.7013 -1.3384  0.2197
  983MOL0     H29748   9.907   8.618   6.252 -1.1778 -1.0259 -1.0422
  983MOL0     H29749   9.956   8.775   6.220 -0.0492  0.3637 -0.5957
  983MOL0     H29750   9.781   8.708   6.413  0.6391  1.0070  0.6287
  983MOL0     H29751   9.656   8.719   6.293 -1.0457  2.8305 -1.3445
  983MOL0     H29752   9.817   8.961   6.274 -0.2944  1.4137  1.4738
  983MOL0     H29753   9.646   8.934   6.274  1.6019  4.1117  0.1855
  983MOL0     H29754   9.737   9.016   6.682  2.9347 -0.7334 -0.6880
  983MOL0     H29755   9.551   8.934   5.921  0.4252 -1.0478 -0.6003
  983MOL0     H29756   9.453   8.896   5.707 -0.8460 -1.1968 -1.2557
  984MOL0     O29757   9.515   2.645   6.173 -0.0961 -0.8968 -0.1826
  984MOL0     C29758   9.524   2.522   6.165  0.5495  0.5097 -0.0937
  984MOL0     O29759   9.635   2.444   6.158 -0.1569 -0.9680  1.0456
  984MOL0     C29760   9.761   2.493   6.124  0.1339 -0.2847  0.8557
  984MOL0     C29761   9.786   2.597   6.024  0.4936 -0.7545 -0.6060
  984MOL0     C29762   9.919   2.633   6.001  0.6385 -1.7809 -0.7314
  984MOL0     C29763  10.024   2.569   6.070  0.0319  0.1273 -0.1957
  984MOL0     O29764  10.152   2.608   6.044 -0.1341  0.1226  1.1832
  984MOL0     C29765  10.269   2.527   6.079  1.0092  0.2540 -0.1594
  984MOL0     C29766  10.391   2.580   5.996  0.2491  0.0017 -0.8085
  984MOL0     C29767  10.496   2.464   5.969 -0.1576  0.3701 -0.9491
  984MOL0     C29768  10.586   2.437   6.095  0.2785 -0.3814 -0.0809
  984MOL0     C29769  10.736   2.446   6.068 -0.9649  0.0843 -0.5999
  984MOL0     C29770  10.779   2.344   5.960 -0.2571 -0.1504 -0.7721
  984MOL0     C29771  10.920   2.364   5.926 -0.3734  0.4365  0.1842
  984MOL0     C29772  10.974   2.256   5.830 -0.3596 -0.1511  0.0042
  984MOL0     N29773  11.022   2.127   5.890  0.4404  0.4479 -0.7703
  984MOL0     C29774  11.141   2.115   5.967  0.3941  0.3894  0.1613
  984MOL0     C29775  11.173   1.980   5.962  0.0830 -0.2980  0.2985
  984MOL0     C29776  11.299   1.917   6.031  0.0968 -0.4568 -0.3451
  984MOL0     C29777  11.424   1.994   5.985  0.1238 -0.0078  0.5955
  984MOL0     C29778  11.461   1.990   5.836  0.0119 -0.1037 -0.2322
  984MOL0     C29779  11.571   2.082   5.780  0.5839  0.4220 -0.3213
  984MOL0     O29780  11.545   2.217   5.816  0.9633 -0.0417  0.5044
  984MOL0     C29781  11.443   2.288   5.760  0.4269 -0.5852 -0.1396
  984MOL0     C29782  11.422   2.415   5.827 -0.1534  0.0360  0.6545
  984MOL0     C29783  11.328   2.502   5.761  0.5836  1.4624 -0.3308
  984MOL0     C29784  11.244   2.469   5.657 -0.4921 -0.1167 -0.7837
  984MOL0     C29785  11.140   2.565   5.618 -0.5200  0.1417  0.4446
  984MOL0     O29786  11.106   2.676   5.702 -0.0828 -0.0905 -0.1622
  984MOL0     C29787  11.003   2.762   5.681  0.0002  0.4912 -0.9624
  984MOL0     C29788  11.015   2.879   5.754 -0.3379  0.1232  0.7189
  984MOL0     C29789  10.916   2.982   5.751  0.5266 -0.3863  0.6065
  984MOL0     C29790  10.803   2.965   5.663 -0.0425 -0.2206  0.3631
  984MOL0     O29791  10.699   3.054   5.652  0.0416 -0.1869  0.4687
  984MOL0     C29792  10.664   3.130   5.770  0.4698 -1.1393 -0.3254
  984MOL0     C29793  10.535   3.205   5.759 -0.2752 -0.4831 -0.2759
  984MOL0     C29794  10.452   3.224   5.892 -0.0830  0.5475 -0.3745
  984MOL0     C29795  10.401   3.091   5.956 -0.1991 -0.3164 -0.3123
  984MOL0     C29796  10.333   2.985   5.865  0.0558 -0.2382  0.7234
  984MOL0     C29797  10.242   2.891   5.941 -0.5666  0.5728  0.1478
  984MOL0     C29798  10.110   2.944   6.000 -0.1058 -0.9855 -0.7045
  984MOL0     C29799  10.026   3.023   5.901  0.3961  0.4901 -0.8186
  984MOL0    Cl29800  10.035   3.195   5.918  0.2363  0.3639 -0.0902
  984MOL0     C29801  10.796   2.849   5.584  0.6232  0.1337 -0.7886
  984MOL0     C29802  10.892   2.743   5.592  0.0951  0.0997 -0.6361
  984MOL0     O29803  11.067   2.535   5.521  0.0885 -0.6258 -0.3630
  984MOL0     C29804  11.265   2.343   5.597  0.4774  0.4843  0.5481
  984MOL0     C29805  11.363   2.248   5.647  0.6979  0.1426 -0.4195
  984MOL0     N29806  11.079   1.914   5.890 -0.4401 -0.7482 -0.2257
  984MOL0     N29807  10.994   2.000   5.844 -0.2153 -0.6502 -0.3769
  984MOL0     C29808   9.995   2.472   6.174 -0.5138 -0.6932 -0.2545
  984MOL0     C29809   9.866   2.435   6.200  0.0776 -0.8903  0.8856
  984MOL0     C29810   9.394   2.455   6.160  0.3114 -0.2768 -1.5023
  984MOL0     C29811   9.270   2.522   6.175 -0.4388  0.8653  0.8665
  984MOL0     C29812   9.153   2.447   6.179  0.0580  0.7282 -0.1190
  984MOL0     C29813   9.149   2.310   6.166 -0.3777 -0.0662 -0.6535
  984MOL0     O29814   9.025   2.247   6.162  0.4580  0.5999  0.9673
  984MOL0     C29815   9.031   2.102   6.157 -0.3088 -1.1454  1.0168
  984MOL0     C29816   8.894   2.047   6.170  0.4733  0.5996 -0.1479
  984MOL0     C29817   8.880   1.897   6.122 -0.1492  0.0178  0.7704
  984MOL0     C29818   8.751   1.832   6.162 -0.3290 -1.0938 -0.1273
  984MOL0     C29819   8.741   1.706   6.099 -0.7808  0.0170 -1.5217
  984MOL0     C29820   8.734   1.603   6.043  0.4301 -0.0329  1.0725
  984MOL0     C29821   9.274   2.242   6.164  0.5410  0.6293  0.0565
  984MOL0     C29822   9.396   2.315   6.169 -0.5465  0.1102  0.4948
  984MOL0     H29823   9.703   2.640   5.970 -1.5035 -0.5331  2.4113
  984MOL0     H29824   9.941   2.713   5.931  1.3995 -2.5512 -1.3823
  984MOL0     H29825  10.244   2.423   6.057 -2.6671  0.5494  1.8193
  984MOL0     H29826  10.293   2.533   6.185  0.7468  0.0581 -0.0896
  984MOL0     H29827  10.438   2.662   6.050  0.2285  0.6353 -1.7391
  984MOL0     H29828  10.352   2.618   5.901 -0.6871  1.8461  0.2627
  984MOL0     H29829  10.572   2.488   5.894  0.6798 -0.3360 -0.3448
  984MOL0     H29830  10.452   2.369   5.935 -0.5939 -0.5014  1.7936
  984MOL0     H29831  10.562   2.517   6.166  3.1356  3.2207 -2.7808
  984MOL0     H29832  10.559   2.339   6.135  0.9298 -2.1455 -3.6332
  984MOL0     H29833  10.785   2.434   6.165 -0.2561 -0.4282 -1.0201
  984MOL0     H29834  10.745   2.541   6.014  1.4633 -1.1796 -2.5975
  984MOL0     H29835  10.730   2.359   5.863  0.8543 -1.9300 -1.6606
  984MOL0     H29836  10.764   2.242   5.996  1.3536  0.8709  3.3725
  984MOL0     H29837  10.945   2.461   5.882  2.1633 -1.7131 -3.6756
  984MOL0     H29838  10.985   2.368   6.014  1.1778  0.1437 -0.8983
  984MOL0     H29839  11.053   2.311   5.779 -1.2269  5.6395  3.9858
  984MOL0     H29840  10.892   2.244   5.759  1.7677 -0.2608 -2.5800
  984MOL0     H29841  11.202   2.189   6.018 -0.2089 -0.2864  1.9366
  984MOL0     H29842  11.305   1.811   6.007 -2.8103 -2.0137  4.5095
  984MOL0     H29843  11.280   1.922   6.139  3.6027  3.9650  0.4117
  984MOL0     H29844  11.501   1.934   6.033  1.2808 -0.1315 -1.3326
  984MOL0     H29845  11.432   2.099   6.017  3.4250  0.0777 -0.1616
  984MOL0     H29846  11.485   1.886   5.811 -0.8565 -0.4276  0.2198
  984MOL0     H29847  11.373   2.023   5.780 -0.1641  1.3020  0.7930
  984MOL0     H29848  11.588   2.079   5.672 -2.9027  1.5444 -1.0283
  984MOL0     H29849  11.664   2.046   5.825  1.3769  1.1327 -1.3510
  984MOL0     H29850  11.480   2.443   5.914 -2.9289  0.0363  2.6136
  984MOL0     H29851  11.322   2.604   5.798  1.6636  0.9720  1.2971
  984MOL0     H29852  11.095   2.889   5.827 -0.1783  0.0986  0.5460
  984MOL0     H29853  10.944   3.073   5.802  2.6302  0.8408 -2.4506
  984MOL0     H29854  10.739   3.207   5.793 -1.6934  1.3791 -1.2460
  984MOL0     H29855  10.655   3.067   5.859 -0.9672  1.8900  1.8321
  984MOL0     H29856  10.475   3.148   5.688 -2.1037 -0.6684  1.3550
  984MOL0     H29857  10.557   3.304   5.719  4.0434 -0.8619  0.5717
  984MOL0     H29858  10.366   3.279   5.854  1.8622  1.7607 -3.4484
  984MOL0     H29859  10.505   3.289   5.962 -0.8809  1.7918 -0.8843
  984MOL0     H29860  10.477   3.029   6.005 -1.5765 -1.2901  0.6692
  984MOL0     H29861  10.337   3.118   6.040  1.3712  2.2593  0.1655
  984MOL0     H29862  10.409   2.922   5.818 -2.7431 -2.5801 -0.9778
  984MOL0     H29863  10.288   3.028   5.775  0.4873 -0.4775  0.3894
  984MOL0     H29864  10.302   2.851   6.023  0.0131  0.8083 -0.1539
  984MOL0     H29865  10.216   2.808   5.875 -0.0680 -1.7151  2.6565
  984MOL0     H29866  10.058   2.862   6.050 -0.2075 -0.9286 -0.7156
  984MOL0     H29867  10.132   3.008   6.086  2.8569 -1.7794 -0.7517
  984MOL0     H29868   9.921   3.003   5.924  0.7700  0.7322  1.2478
  984MOL0     H29869  10.061   2.992   5.801 -0.0745  2.9916 -1.8216
  984MOL0     H29870  10.719   2.831   5.510  0.9873  0.8630 -1.3576
  984MOL0     H29871  10.875   2.651   5.537  1.2783 -0.8100  0.4694
  984MOL0     H29872  11.200   2.321   5.513 -0.1104  1.2988  0.7707
  984MOL0     H29873  11.388   2.152   5.604  3.0614  1.2291 -1.7030
  984MOL0     H29874  10.079   2.424   6.224  1.0613  0.5055 -1.6262
  984MOL0     H29875   9.848   2.366   6.282 -0.8569 -3.2370 -1.1519
  984MOL0     H29876   9.257   2.629   6.189 -2.3579  0.4144  3.3416
  984MOL0     H29877   9.056   2.495   6.187 -0.2955  0.0733 -0.3814
  984MOL0     H29878   9.082   2.063   6.245  0.7189  0.8445  1.3441
  984MOL0     H29879   9.078   2.060   6.067 -2.6591 -0.3762 -0.6959
  984MOL0     H29880   8.856   2.057   6.272 -1.8881 -0.9458 -0.8077
  984MOL0     H29881   8.835   2.112   6.105 -0.2558 -0.6260 -0.7342
  984MOL0     H29882   8.963   1.840   6.165  0.2654 -2.1581 -2.5570
  984MOL0     H29883   8.901   1.901   6.014 -0.5061  1.1419  0.7294
  984MOL0     H29884   8.752   1.828   6.271  0.4652  3.1961  0.2051
  984MOL0     H29885   8.674   1.902   6.128  0.8019  0.9829  1.3521
  984MOL0     H29886   8.725   1.505   6.000 -1.9377 -0.1374  1.6735
  984MOL0     H29887   9.278   2.134   6.156 -1.1637  0.6125 -1.0378
  984MOL0     H29888   9.491   2.262   6.166 -0.8876 -0.4680 -1.1941
  985MOL0     O29889   6.379   1.235   9.864  0.0271  0.8509 -0.4150
  985MOL0     C29890   6.330   1.243   9.756  0.0212  0.4411 -0.7525
  985MOL0     O29891   6.234   1.332   9.715  0.8231  0.3422 -0.2100
  985MOL0     C29892   6.192   1.442   9.786  0.8623  0.1358 -0.3180
  985MOL0     C29893   6.060   1.498   9.765 -0.3283 -0.2370  0.5327
  985MOL0     C29894   6.012   1.611   9.832  0.3042 -0.3525 -0.6541
  985MOL0     C29895   6.090   1.677   9.924 -0.5127 -0.3286  0.1316
  985MOL0     O29896   6.037   1.789   9.982 -0.6039 -0.3145  0.7980
  985MOL0     C29897   6.085   1.815  10.114 -0.1523 -0.8166  0.2322
  985MOL0     C29898   6.040   1.953  10.173 -0.7202 -0.1396  0.2552
  985MOL0     C29899   6.077   1.980  10.318 -0.2234  0.5809 -0.4607
  985MOL0     C29900   5.979   1.915  10.417 -0.6490 -0.6096 -0.1624
  985MOL0     C29901   6.033   1.917  10.555  0.6027 -0.6577 -0.4323
  985MOL0     C29902   5.947   1.843  10.656  0.1303 -0.5636 -0.6471
  985MOL0     C29903   5.989   1.896  10.799  0.6513  0.0669 -0.0197
  985MOL0     C29904   5.922   1.821  10.925 -0.4789 -0.3811 -0.5953
  985MOL0     N29905   5.788   1.876  10.951  1.3595  0.4752  0.0414
  985MOL0     C29906   5.683   1.901  10.870 -0.8635 -0.5799 -0.4087
  985MOL0     C29907   5.582   1.942  10.955  0.3709  0.2923 -0.2299
  985MOL0     C29908   5.436   1.959  10.908  1.3082 -0.3550 -1.6357
  985MOL0     C29909   5.375   2.096  10.952  0.1992  0.5949  0.9051
  985MOL0     C29910   5.229   2.116  10.906  0.3255  0.1120 -0.0352
  985MOL0     C29911   5.198   2.269  10.945 -0.5056 -0.1857 -0.6078
  985MOL0     O29912   5.127   2.267  11.069 -0.2703  0.5812 -0.2320
  985MOL0     C29913   4.998   2.220  11.071  0.9338 -0.7685  0.6754
  985MOL0     C29914   4.895   2.271  10.996  0.2983  0.3272  0.6269
  985MOL0     C29915   4.756   2.236  11.007 -0.2059 -0.4928  0.6750
  985MOL0     C29916   4.722   2.138  11.095  0.2625  0.0102  0.1875
  985MOL0     C29917   4.576   2.101  11.110 -0.7139  0.9720 -0.6836
  985MOL0     O29918   4.485   2.171  11.042  0.4767  0.8597 -0.0814
  985MOL0     C29919   4.355   2.135  11.052 -0.9913 -0.3604 -0.2514
  985MOL0     C29920   4.261   2.242  11.072 -0.6003 -0.2238  0.5176
  985MOL0     C29921   4.123   2.218  11.052  0.3253 -0.6829 -0.2325
  985MOL0     C29922   4.076   2.097  11.029  0.1219  1.3692 -0.0673
  985MOL0     O29923   3.939   2.073  11.011  0.5887  0.2088  0.5837
  985MOL0     C29924   3.843   2.175  11.038  0.2371 -0.9387  0.6307
  985MOL0     C29925   3.699   2.128  10.996  0.1242 -0.2170  0.2286
  985MOL0     C29926   3.597   2.245  10.987 -0.4634 -0.0943  0.5161
  985MOL0     C29927   3.622   2.318  10.849  0.5356 -1.2996 -0.2453
  985MOL0     C29928   3.506   2.415  10.820  0.9118 -0.8829  0.5672
  985MOL0     C29929   3.558   2.540  10.745  0.3004  0.4046 -0.4369
  985MOL0     C29930   3.442   2.636  10.719  0.4051  0.2768 -0.2310
  985MOL0     C29931   3.475   2.779  10.680 -0.0702 -0.6700 -0.6264
  985MOL0    Cl29932   3.586   2.805  10.541  0.3250 -0.0033  0.1800
  985MOL0     C29933   4.168   1.988  11.032 -0.3067 -0.2776  0.0084
  985MOL0     C29934   4.305   2.006  11.040 -0.3399  0.1933 -0.1852
  985MOL0     O29935   4.553   2.009  11.198 -0.0662  0.0772  0.2214
  985MOL0     C29936   4.819   2.100  11.188 -0.0514  0.1332 -0.1185
  985MOL0     C29937   4.958   2.134  11.173  0.1998  0.1801  0.3487
  985MOL0     N29938   5.636   1.948  11.088  0.3617 -0.5171  0.0042
  985MOL0     N29939   5.758   1.913  11.077  0.0124 -0.4253 -1.0085
  985MOL0     C29940   6.228   1.632   9.936  0.5097  0.4701 -0.0024
  985MOL0     C29941   6.278   1.523   9.869  0.9836  0.2336  0.0457
  985MOL0     C29942   6.396   1.159   9.659 -0.3839 -0.9135 -0.3103
  985MOL0     C29943   6.532   1.130   9.663 -1.1625 -0.0843  0.5517
  985MOL0     C29944   6.586   1.044   9.567 -0.2758 -0.0207  0.0647
  985MOL0     C29945   6.513   0.968   9.473 -0.3293 -0.1692  0.3740
  985MOL0     O29946   6.556   0.864   9.384 -0.2944  0.7762 -0.7981
  985MOL0     C29947   6.680   0.795   9.413 -0.0993 -0.5274 -0.0112
  985MOL0     C29948   6.717   0.716   9.292 -0.6993 -0.6726 -0.5061
  985MOL0     C29949   6.852   0.649   9.308 -0.2165  0.0971 -0.0241
  985MOL0     C29950   6.868   0.557   9.181  0.5735 -0.0634  0.3708
  985MOL0     C29951   7.005   0.482   9.180  0.1160 -0.5916  0.0666
  985MOL0     C29952   7.088   0.398   9.169 -0.8149  0.8018  0.6271
  985MOL0     C29953   6.376   0.989   9.483 -0.5591 -0.1982  0.6915
  985MOL0     C29954   6.319   1.082   9.569  0.6939  0.2710  0.2174
  985MOL0     H29955   5.981   1.440   9.717  0.3600 -1.4171  0.7952
  985MOL0     H29956   5.916   1.650   9.799  1.8931  2.1825 -2.7182
  985MOL0     H29957   6.194   1.814  10.119 -0.1075  0.4212 -0.1629
  985MOL0     H29958   6.057   1.736  10.184 -0.5820 -0.8147  0.0620
  985MOL0     H29959   5.931   1.949  10.167 -0.9014 -1.7698  2.8306
  985MOL0     H29960   6.067   2.032  10.103 -1.0194  0.8807  1.2675
  985MOL0     H29961   6.078   2.088  10.334  0.8602  0.9037 -2.3595
  985MOL0     H29962   6.179   1.948  10.340 -0.3203 -0.5100 -1.5077
  985MOL0     H29963   5.878   1.956  10.410 -0.6990 -0.9963 -2.6796
  985MOL0     H29964   5.963   1.816  10.373 -0.3908 -0.2713 -1.0453
  985MOL0     H29965   6.027   2.023  10.582  0.7361 -1.3730  2.9250
  985MOL0     H29966   6.136   1.882  10.557  0.3348 -1.7649 -3.0794
  985MOL0     H29967   5.958   1.734  10.661 -1.3546 -0.7838  5.1525
  985MOL0     H29968   5.844   1.869  10.631 -0.7140 -0.5013  2.4876
  985MOL0     H29969   6.097   1.887  10.805  0.8959  2.9303  2.6380
  985MOL0     H29970   5.968   2.003  10.799  1.2526  0.2468 -2.6075
  985MOL0     H29971   5.994   1.830  11.007 -0.8433  0.2160 -0.3383
  985MOL0     H29972   5.920   1.713  10.905 -1.3788 -1.0561  2.6527
  985MOL0     H29973   5.677   1.871  10.766  1.6570 -2.5159 -0.1052
  985MOL0     H29974   5.375   1.879  10.951  1.2248  1.2812  1.5838
  985MOL0     H29975   5.427   1.951  10.799  2.5479 -0.0362 -1.7686
  985MOL0     H29976   5.440   2.173  10.909  0.7943 -1.1149 -1.5074
  985MOL0     H29977   5.382   2.100  11.061  0.8462  0.3053  0.8830
  985MOL0     H29978   5.216   2.106  10.798 -3.2038  1.3705  0.1547
  985MOL0     H29979   5.168   2.039  10.953 -1.2292  0.4791 -1.3682
  985MOL0     H29980   5.145   2.321  10.864 -1.6550 -1.3811 -0.6674
  985MOL0     H29981   5.287   2.332  10.954 -1.7929  1.7051 -0.5211
  985MOL0     H29982   4.920   2.346  10.921 -0.7710 -0.3458 -0.4469
  985MOL0     H29983   4.686   2.287  10.942 -1.0384 -1.3924  0.8458
  985MOL0     H29984   4.306   2.341  11.071 -0.6948 -0.1317 -2.2064
  985MOL0     H29985   4.059   2.305  11.062 -0.6854 -0.9499 -3.2432
  985MOL0     H29986   3.868   2.267  10.985 -1.4525 -1.2257 -0.7340
  985MOL0     H29987   3.839   2.196  11.146  0.6107 -0.9478  0.6462
  985MOL0     H29988   3.669   2.049  11.066 -2.0200 -1.5921 -2.1129
  985MOL0     H29989   3.720   2.082  10.899  0.4441  0.5499 -0.0698
  985MOL0     H29990   3.606   2.313  11.072 -1.4604  1.6460 -0.6965
  985MOL0     H29991   3.502   2.190  10.985 -0.0019 -0.8968 -1.0924
  985MOL0     H29992   3.719   2.370  10.845 -0.2505  0.2411 -0.1090
  985MOL0     H29993   3.619   2.240  10.772  0.9560 -2.0292  0.4540
  985MOL0     H29994   3.447   2.451  10.905 -3.7146  1.4114 -3.1033
  985MOL0     H29995   3.434   2.358  10.760 -0.0150 -1.7096  2.3895
  985MOL0     H29996   3.615   2.519  10.654  0.9830  2.5425 -0.5497
  985MOL0     H29997   3.626   2.591  10.814  1.4615 -1.4062 -0.1892
  985MOL0     H29998   3.388   2.593  10.634  0.3575 -1.3047  0.5584
  985MOL0     H29999   3.374   2.630  10.804  1.4804  0.2440  0.6525
  985MOL0     H30000   3.519   2.828  10.767  0.8751 -0.9001 -0.9575
  985MOL0     H30001   3.382   2.836  10.671  0.1338 -0.2469 -0.1002
  985MOL0     H30002   4.132   1.886  11.024 -0.6061 -0.0854 -1.2973
  985MOL0     H30003   4.361   1.914  11.035 -2.1207 -1.0493  1.3315
  985MOL0     H30004   4.792   2.044  11.277  0.7524  1.3182  0.9050
  985MOL0     H30005   5.031   2.100  11.246 -0.8838 -1.1601  0.8713
  985MOL0     H30006   6.304   1.692   9.986  1.2759 -1.7057  1.6058
  985MOL0     H30007   6.381   1.491   9.871  0.6496 -1.1185 -1.5852
  985MOL0     H30008   6.595   1.178   9.737 -2.1835 -0.7884  1.9365
  985MOL0     H30009   6.691   1.023   9.583 -0.8216 -3.1115  0.1891
  985MOL0     H30010   6.673   0.733   9.503  0.8635  2.1360  2.0524
  985MOL0     H30011   6.758   0.868   9.438  1.7070 -2.9089  1.7190
  985MOL0     H30012   6.646   0.638   9.264  0.3810 -1.1387 -2.1121
  985MOL0     H30013   6.706   0.785   9.207  0.0300  2.3704  1.6879
  985MOL0     H30014   6.864   0.592   9.401 -3.4513  0.2352  0.6004
  985MOL0     H30015   6.925   0.731   9.305 -0.4020  0.3077  0.8886
  985MOL0     H30016   6.779   0.494   9.188 -0.8834  1.3129 -3.1280
  985MOL0     H30017   6.861   0.618   9.090 -2.1380  1.7253  1.6669
  985MOL0     H30018   7.160   0.322   9.143 -0.8311  1.2869 -0.9628
  985MOL0     H30019   6.310   0.949   9.406 -0.9429  1.6810 -0.0113
  985MOL0     H30020   6.213   1.101   9.558  0.0092 -3.8966 -3.0256
  986MOL0     O30021   2.438   1.082   3.535  0.4390 -0.1578 -0.2919
  986MOL0     C30022   2.456   1.060   3.647 -0.6829  0.1457 -0.4397
  986MOL0     O30023   2.374   0.993   3.731 -0.4479  0.2666  0.0446
  986MOL0     C30024   2.265   0.929   3.677 -0.1393  0.8666 -0.0731
  986MOL0     C30025   2.282   0.801   3.614 -0.6558 -0.4320  1.0039
  986MOL0     C30026   2.173   0.730   3.573 -0.0300  0.1013 -1.1010
  986MOL0     C30027   2.041   0.777   3.581  0.5898  1.6827  0.0851
  986MOL0     O30028   1.949   0.690   3.526 -0.2960  0.6723  0.1554
  986MOL0     C30029   1.812   0.704   3.564  0.0709 -0.1113 -0.5312
  986MOL0     C30030   1.727   0.584   3.521 -0.2872  0.0387 -0.1522
  986MOL0     C30031   1.591   0.583   3.604 -0.3885 -0.4620  0.6445
  986MOL0     C30032   1.500   0.463   3.572  0.1546 -0.0368  0.6407
  986MOL0     C30033   1.461   0.444   3.423  0.3945  0.2297 -0.9085
  986MOL0     C30034   1.384   0.562   3.362  0.2176  0.5308 -0.1767
  986MOL0     C30035   1.243   0.571   3.416 -0.5733 -0.0303 -0.4746
  986MOL0     C30036   1.182   0.707   3.379  0.0356  0.1199  0.4779
  986MOL0     N30037   1.050   0.730   3.429 -1.0250  1.1143 -0.3510
  986MOL0     C30038   0.952   0.632   3.411 -0.0586 -0.2650  0.2161
  986MOL0     C30039   0.843   0.695   3.465  0.9449  0.0087  0.2828
  986MOL0     C30040   0.698   0.643   3.446  1.3318 -0.5849 -0.2957
  986MOL0     C30041   0.596   0.758   3.428  0.2263 -0.3286  0.8116
  986MOL0     C30042   0.460   0.690   3.443 -0.3118 -0.7791 -0.3820
  986MOL0     C30043   0.343   0.793   3.473 -0.1137  0.7534 -0.5096
  986MOL0     O30044   0.220   0.717   3.464  0.2686  0.3145  0.0518
  986MOL0     C30045   0.101   0.764   3.518 -0.3347  0.1953  0.5149
  986MOL0     C30046   0.096   0.879   3.592 -0.7929 -0.5052 -0.4318
  986MOL0     C30047  -0.029   0.919   3.636 -0.0847 -0.7623  0.7563
  986MOL0     C30048  -0.149   0.848   3.619  0.6996 -0.3736  0.4990
  986MOL0     C30049  -0.283   0.890   3.660  0.0778  0.4164 -1.8749
  986MOL0     O30050  -0.391   0.823   3.615 -0.0528  0.3846 -0.6723
  986MOL0     C30051  -0.516   0.849   3.672 -0.3790  0.2985  1.2098
  986MOL0     C30052  -0.615   0.864   3.579  0.6412  0.1721 -0.5798
  986MOL0     C30053  -0.747   0.887   3.610 -0.8619  0.4678 -0.3329
  986MOL0     C30054  -0.792   0.881   3.740  0.3774  0.1788 -0.4208
  986MOL0     O30055  -0.926   0.884   3.782  0.1519 -0.2337 -0.3715
  986MOL0     C30056  -1.026   0.914   3.682 -0.4033 -0.2643  0.4705
  986MOL0     C30057  -1.162   0.918   3.758  0.0917 -0.4432  0.4570
  986MOL0     C30058  -1.274   0.936   3.644 -0.7401 -0.6923 -0.6138
  986MOL0     C30059  -1.411   0.955   3.708  0.4057 -0.4987 -0.5016
  986MOL0     C30060  -1.520   0.942   3.592 -0.0508  0.3829 -0.2343
  986MOL0     C30061  -1.658   0.876   3.623 -0.8713  0.8973 -0.4749
  986MOL0     C30062  -1.717   0.810   3.502  0.1825 -0.1690 -0.1748
  986MOL0     C30063  -1.837   0.727   3.546  0.1315 -0.0819  0.2057
  986MOL0    Cl30064  -1.959   0.843   3.585  0.2406 -0.4835 -0.2045
  986MOL0     C30065  -0.687   0.867   3.837  0.7320 -0.0299 -0.0998
  986MOL0     C30066  -0.550   0.837   3.805  1.2816 -0.8232  0.1895
  986MOL0     O30067  -0.287   0.985   3.740  0.2689  0.0832 -0.2965
  986MOL0     C30068  -0.136   0.734   3.546 -0.3909  0.5474  0.6320
  986MOL0     C30069  -0.016   0.691   3.490  0.1363 -0.2711 -0.7119
  986MOL0     N30070   0.884   0.815   3.519  0.9228  0.2178  0.1947
  986MOL0     N30071   1.009   0.839   3.505  0.8993 -0.3333 -0.7354
  986MOL0     C30072   2.019   0.904   3.634  0.0561 -0.9450 -0.4827
  986MOL0     C30073   2.136   0.975   3.679 -0.1702  0.1534 -0.2073
  986MOL0     C30074   2.586   1.105   3.704  1.3015  1.0445 -0.2191
  986MOL0     C30075   2.689   1.146   3.618  1.0157  0.0452  0.0127
  986MOL0     C30076   2.817   1.181   3.669 -0.1422 -0.1054  0.3208
  986MOL0     C30077   2.854   1.178   3.802  1.2196  0.3203 -0.3033
  986MOL0     O30078   2.988   1.192   3.832  0.1297  0.0490 -0.3897
  986MOL0     C30079   3.014   1.212   3.965 -0.2649 -0.0993 -0.3867
  986MOL0     C30080   3.164   1.196   4.005  0.4509 -0.1692  0.0921
  986MOL0     C30081   3.181   1.206   4.159  0.1889  0.4459 -0.6191
  986MOL0     C30082   3.315   1.244   4.210  0.0070 -0.2831 -0.3686
  986MOL0     C30083   3.317   1.315   4.339  1.1780  0.6130  0.5093
  986MOL0     C30084   3.304   1.352   4.455  0.2006  0.7001 -0.3197
  986MOL0     C30085   2.747   1.138   3.887 -0.1314 -0.0129  0.1512
  986MOL0     C30086   2.618   1.102   3.845  1.0261  0.0772 -0.2366
  986MOL0     H30087   2.386   0.773   3.602 -0.3944  0.8083  0.1827
  986MOL0     H30088   2.185   0.631   3.529  3.1364 -1.5576  2.8481
  986MOL0     H30089   1.773   0.796   3.520 -1.0992  0.0339  0.7572
  986MOL0     H30090   1.800   0.731   3.669  2.2947  0.2560 -0.3255
  986MOL0     H30091   1.771   0.486   3.542  3.1836  1.5949  0.5645
  986MOL0     H30092   1.709   0.594   3.413  1.5105  1.4926 -0.3724
  986MOL0     H30093   1.539   0.676   3.580 -1.0170 -0.7075  1.0495
  986MOL0     H30094   1.613   0.596   3.710 -2.8216  1.6892  0.9830
  986MOL0     H30095   1.553   0.373   3.604 -1.6753 -1.7403 -0.9399
  986MOL0     H30096   1.407   0.462   3.629 -0.2898 -1.9033 -0.0517
  986MOL0     H30097   1.404   0.351   3.414  0.5155 -0.1846  1.7900
  986MOL0     H30098   1.556   0.437   3.369  0.6767 -1.7985 -0.2557
  986MOL0     H30099   1.392   0.555   3.253 -0.3388  1.4703 -0.2868
  986MOL0     H30100   1.434   0.656   3.386  0.5322  0.1218  0.8596
  986MOL0     H30101   1.187   0.480   3.391 -0.7657  0.3407 -1.4522
  986MOL0     H30102   1.264   0.578   3.523  0.8301  2.2427 -0.8508
  986MOL0     H30103   1.169   0.715   3.270  0.9692  0.3778  0.3811
  986MOL0     H30104   1.245   0.791   3.409 -0.3751  0.0644  1.5593
  986MOL0     H30105   0.955   0.547   3.343 -2.9116 -0.4860  0.2448
  986MOL0     H30106   0.668   0.588   3.536  1.1114  0.8899  0.5688
  986MOL0     H30107   0.697   0.570   3.364  0.6035 -0.8136 -0.0900
  986MOL0     H30108   0.598   0.811   3.332 -0.8372 -1.1232  0.3297
  986MOL0     H30109   0.613   0.833   3.506 -1.8537 -0.5667  1.5673
  986MOL0     H30110   0.429   0.648   3.346 -4.7083 -0.4127  0.6383
  986MOL0     H30111   0.458   0.610   3.518 -0.4932  1.4602  2.1466
  986MOL0     H30112   0.342   0.876   3.401 -0.4241  0.2137 -1.1403
  986MOL0     H30113   0.357   0.834   3.573 -0.7548  1.8522 -0.8493
  986MOL0     H30114   0.179   0.946   3.610 -1.3764  0.2879 -0.5973
  986MOL0     H30115  -0.027   1.010   3.696  2.7302  0.3706 -0.8576
  986MOL0     H30116  -0.582   0.867   3.476  0.9661 -0.6574 -0.5065
  986MOL0     H30117  -0.817   0.880   3.528 -1.3621 -2.1673  0.2391
  986MOL0     H30118  -1.044   0.833   3.611  0.4906 -0.7761  0.8235
  986MOL0     H30119  -1.004   1.009   3.632 -3.4635  0.3614  0.0943
  986MOL0     H30120  -1.171   0.993   3.837 -0.7969  0.8059 -0.7975
  986MOL0     H30121  -1.171   0.820   3.807  1.1542 -0.6164  0.3325
  986MOL0     H30122  -1.267   0.843   3.587  0.8116 -1.5555  0.8827
  986MOL0     H30123  -1.247   1.025   3.587  1.2033 -2.7134 -3.0745
  986MOL0     H30124  -1.426   0.875   3.780 -0.3943  1.0776  1.1672
  986MOL0     H30125  -1.420   1.053   3.755  1.7863 -0.8373  0.5334
  986MOL0     H30126  -1.481   0.884   3.508 -1.8559  0.4269 -1.1482
  986MOL0     H30127  -1.544   1.044   3.560 -1.3392 -0.0855 -0.8389
  986MOL0     H30128  -1.705   0.966   3.662 -0.9995  0.2335  0.9483
  986MOL0     H30129  -1.646   0.798   3.699  4.1248  2.3495  0.6382
  986MOL0     H30130  -1.752   0.878   3.424 -2.2498 -0.6589  0.4047
  986MOL0     H30131  -1.633   0.753   3.462 -0.0131 -0.6495  0.0971
  986MOL0     H30132  -1.836   0.656   3.630 -6.7864 -0.1536  0.8106
  986MOL0     H30133  -1.860   0.665   3.459 -1.3102  0.5657  0.0996
  986MOL0     H30134  -0.721   0.850   3.939  1.7573 -0.1382  0.2353
  986MOL0     H30135  -0.487   0.807   3.888  1.4994  1.0370  0.7536
  986MOL0     H30136  -0.210   0.659   3.522 -1.7597  0.8137  3.5935
  986MOL0     H30137  -0.001   0.602   3.430 -1.2709 -0.8510 -0.2348
  986MOL0     H30138   1.918   0.942   3.641 -0.1216 -1.5014  0.0532
  986MOL0     H30139   2.125   1.076   3.718 -0.1743  0.9977 -2.2228
  986MOL0     H30140   2.669   1.158   3.512 -0.6163  1.8415  0.4673
  986MOL0     H30141   2.901   1.209   3.605  0.2998 -0.4465  0.7396
  986MOL0     H30142   2.958   1.140   4.026 -2.2298  1.4079 -0.3197
  986MOL0     H30143   2.981   1.309   4.003 -0.7259 -1.3854  2.8793
  986MOL0     H30144   3.194   1.095   3.976  1.7960  0.2318  0.0481
  986MOL0     H30145   3.230   1.256   3.942  0.0660  0.1472 -0.0130
  986MOL0     H30146   3.157   1.107   4.198  2.0794 -0.0159 -0.5370
  986MOL0     H30147   3.120   1.289   4.196  0.0738  0.3115 -0.5120
  986MOL0     H30148   3.364   1.146   4.206  1.8231  0.5798  0.0614
  986MOL0     H30149   3.383   1.293   4.140  2.0535 -1.5157  0.6545
  986MOL0     H30150   3.285   1.388   4.554 -3.5067 -2.4398  0.3981
  986MOL0     H30151   2.764   1.132   3.994 -0.4318 -0.6635  0.1642
  986MOL0     H30152   2.543   1.076   3.919  0.6324  1.4482 -0.1244
  987MOL0     O30153   5.126   7.318   8.645 -0.1039  0.4616 -0.9879
  987MOL0     C30154   5.132   7.377   8.753  0.9203 -0.9104  0.6487
  987MOL0     O30155   5.246   7.419   8.819  1.1501 -0.0892  0.5154
  987MOL0     C30156   5.368   7.373   8.771 -0.1990  0.8332  0.1560
  987MOL0     C30157   5.446   7.425   8.669 -0.3304  0.4269 -0.7212
  987MOL0     C30158   5.569   7.371   8.649 -0.4896  0.3420 -0.3871
  987MOL0     C30159   5.613   7.261   8.723  0.3334  0.1571  0.6554
  987MOL0     O30160   5.739   7.214   8.697  0.4779  0.4456  0.5500
  987MOL0     C30161   5.845   7.270   8.775  0.3260 -1.2394  0.0979
  987MOL0     C30162   5.882   7.203   8.902  1.0994  0.3219 -0.8053
  987MOL0     C30163   5.930   7.060   8.880  0.5282 -0.5658 -1.5634
  987MOL0     C30164   6.063   7.048   8.806 -0.1572  0.6624 -0.0166
  987MOL0     C30165   6.134   6.910   8.818  0.5749 -1.5937 -0.7555
  987MOL0     C30166   6.256   6.921   8.730  0.3532 -0.0269  0.2311
  987MOL0     C30167   6.372   6.825   8.782  1.7395 -0.3454  0.0013
  987MOL0     C30168   6.466   6.799   8.673  0.5259 -0.6173 -0.9439
  987MOL0     N30169   6.552   6.682   8.691  0.1634 -0.3089  0.0727
  987MOL0     C30170   6.631   6.647   8.796  0.4029 -0.6724 -0.1249
  987MOL0     C30171   6.660   6.514   8.772 -0.3060  0.0959 -0.0242
  987MOL0     C30172   6.749   6.432   8.854 -0.0521 -0.0319  0.6761
  987MOL0     C30173   6.855   6.360   8.768  0.3537 -0.4840 -0.8333
  987MOL0     C30174   6.840   6.202   8.782  0.2225 -0.6236 -0.7453
  987MOL0     C30175   6.705   6.148   8.748  0.6457 -0.3534  0.4646
  987MOL0     O30176   6.719   6.003   8.736 -0.2188 -0.5141  0.4248
  987MOL0     C30177   6.600   5.946   8.721  0.8747  0.8605 -0.5472
  987MOL0     C30178   6.485   6.004   8.670  0.1071 -0.3002  0.9385
  987MOL0     C30179   6.361   5.940   8.673  0.6776  0.3322  0.6242
  987MOL0     C30180   6.351   5.810   8.738 -0.4062  0.0088  1.1767
  987MOL0     C30181   6.220   5.729   8.719 -0.5908 -0.7870  0.2428
  987MOL0     O30182   6.122   5.781   8.623 -0.3156 -0.3709  0.0218
  987MOL0     C30183   5.995   5.729   8.627 -0.4091 -0.1092  0.0393
  987MOL0     C30184   5.921   5.735   8.743 -0.7997 -0.9735 -0.6598
  987MOL0     C30185   5.788   5.698   8.740  0.6751 -0.2620  0.4017
  987MOL0     C30186   5.724   5.644   8.632 -0.7486 -0.1299 -0.0529
  987MOL0     O30187   5.593   5.598   8.640  0.6109 -0.1312 -0.4748
  987MOL0     C30188   5.570   5.463   8.693  0.1788  0.2533  0.5030
  987MOL0     C30189   5.476   5.376   8.595 -0.2227  0.2945 -0.2542
  987MOL0     C30190   5.423   5.254   8.682  0.8590  0.2088 -0.1395
  987MOL0     C30191   5.305   5.180   8.605  0.1611  0.3552 -0.0728
  987MOL0     C30192   5.246   5.057   8.672  0.0093  0.0880 -1.4238
  987MOL0     C30193   5.174   4.956   8.584  0.2120 -0.0794  0.2485
  987MOL0     C30194   5.084   4.859   8.659 -0.1750 -0.1804 -0.4349
  987MOL0     C30195   5.005   4.787   8.553 -0.3675 -0.4884  0.1620
  987MOL0    Cl30196   4.853   4.725   8.617  0.1732 -0.2461 -0.1554
  987MOL0     C30197   5.794   5.636   8.511 -1.0782 -0.4703  0.1882
  987MOL0     C30198   5.927   5.683   8.509  0.0987  0.5259  0.0697
  987MOL0     O30199   6.204   5.637   8.794  0.0397  0.5362 -0.4574
  987MOL0     C30200   6.473   5.751   8.775  1.0300  1.1233 -0.9847
  987MOL0     C30201   6.593   5.820   8.774  0.4117  0.2142 -1.2954
  987MOL0     N30202   6.596   6.465   8.660  0.2765  0.1178 -0.1830
  987MOL0     N30203   6.531   6.573   8.613 -0.2741 -0.0971 -0.0618
  987MOL0     C30204   5.532   7.204   8.820  0.5148  0.2447 -0.0770
  987MOL0     C30205   5.407   7.258   8.840 -0.2963 -0.1843 -0.3352
  987MOL0     C30206   5.009   7.403   8.831  0.5277  0.3227 -0.2647
  987MOL0     C30207   5.000   7.491   8.935 -0.4440 -0.8390  0.1726
  987MOL0     C30208   4.879   7.514   8.998  0.0106  0.4971  0.0656
  987MOL0     C30209   4.763   7.441   8.978 -0.7560  0.7502  0.7773
  987MOL0     O30210   4.643   7.468   9.048  0.6632  0.5328 -0.0201
  987MOL0     C30211   4.524   7.399   9.014 -0.8918 -0.7876  0.0409
  987MOL0     C30212   4.412   7.443   9.098 -0.2021  0.1420  0.1787
  987MOL0     C30213   4.280   7.368   9.053 -0.0186  0.0329  0.4388
  987MOL0     C30214   4.272   7.221   9.093  0.1766  0.4757 -0.1561
  987MOL0     C30215   4.287   7.201   9.237  0.3722  0.2030  0.8650
  987MOL0     C30216   4.302   7.193   9.353  0.9430 -0.7874  0.6655
  987MOL0     C30217   4.776   7.347   8.873 -0.0144  0.4168 -0.6677
  987MOL0     C30218   4.895   7.333   8.804  0.0871  0.3676 -0.3415
  987MOL0     H30219   5.409   7.514   8.619  0.2936  1.8791  1.2696
  987MOL0     H30220   5.645   7.416   8.587 -2.5005  1.9610 -1.8031
  987MOL0     H30221   5.809   7.370   8.801  2.1551  0.0328 -1.9751
  987MOL0     H30222   5.930   7.297   8.713 -0.4865 -1.5777 -1.2002
  987MOL0     H30223   5.787   7.196   8.956 -0.7016 -0.4316 -3.7969
  987MOL0     H30224   5.962   7.255   8.954 -2.1042  1.4847  3.5748
  987MOL0     H30225   5.853   6.998   8.833 -2.2624 -0.9892  2.8953
  987MOL0     H30226   5.945   7.014   8.978 -1.3984  4.1217  1.2671
  987MOL0     H30227   6.050   7.078   8.702 -3.0057 -2.2914 -0.7072
  987MOL0     H30228   6.141   7.111   8.849  0.6829  0.1809 -0.8097
  987MOL0     H30229   6.072   6.820   8.807  0.6651 -1.9562  1.2571
  987MOL0     H30230   6.166   6.902   8.923 -0.6039  0.5733 -0.1811
  987MOL0     H30231   6.299   7.021   8.723 -0.9234  0.4414 -2.9074
  987MOL0     H30232   6.233   6.898   8.625  3.3321  1.0784 -0.7726
  987MOL0     H30233   6.420   6.878   8.865 -0.9987  1.6203  0.4787
  987MOL0     H30234   6.331   6.732   8.820 -1.3144  1.0103  0.3054
  987MOL0     H30235   6.543   6.876   8.666  0.5918 -0.6786 -0.8930
  987MOL0     H30236   6.409   6.786   8.581 -1.3828 -0.3779  0.1520
  987MOL0     H30237   6.670   6.716   8.870 -0.1611  2.1637 -2.2968
  987MOL0     H30238   6.683   6.363   8.909  0.4807 -0.3882  0.8705
  987MOL0     H30239   6.795   6.487   8.936  0.9515 -0.8205  0.6543
  987MOL0     H30240   6.955   6.389   8.801 -1.3354  4.1964  1.0174
  987MOL0     H30241   6.860   6.396   8.665 -0.8061  0.9810 -0.4159
  987MOL0     H30242   6.911   6.154   8.714  0.7281 -1.9830  0.6585
  987MOL0     H30243   6.868   6.157   8.878  3.4977 -1.3817 -1.9322
  987MOL0     H30244   6.661   6.198   8.660  0.4915 -0.9853  0.1748
  987MOL0     H30245   6.645   6.174   8.836 -0.1157  0.3156 -0.2286
  987MOL0     H30246   6.481   6.104   8.629 -2.2621 -0.3589  0.9261
  987MOL0     H30247   6.278   5.975   8.613  3.4777  0.7444 -3.5046
  987MOL0     H30248   5.967   5.772   8.834 -1.1111 -3.6096  0.6597
  987MOL0     H30249   5.730   5.716   8.830  0.3539 -0.6130  0.2666
  987MOL0     H30250   5.523   5.468   8.792 -2.3667 -0.4650 -0.6004
  987MOL0     H30251   5.666   5.413   8.711 -0.9127 -1.6814  1.2174
  987MOL0     H30252   5.533   5.338   8.510 -1.0460 -0.0360 -0.6658
  987MOL0     H30253   5.385   5.424   8.557 -0.0246 -1.2387 -2.8647
  987MOL0     H30254   5.384   5.295   8.775  0.1281  1.2315 -0.8753
  987MOL0     H30255   5.506   5.184   8.698  1.8993  0.9085 -2.1575
  987MOL0     H30256   5.219   5.245   8.587  1.0217  2.4707  2.6593
  987MOL0     H30257   5.346   5.141   8.512 -0.9604  0.4561 -0.6230
  987MOL0     H30258   5.186   5.085   8.759  0.9102  0.6472 -0.9682
  987MOL0     H30259   5.334   5.004   8.709  2.0592  2.2737 -2.8401
  987MOL0     H30260   5.254   4.902   8.533  1.9775  1.7958  0.9031
  987MOL0     H30261   5.111   5.010   8.512  0.5963  1.2765  0.8907
  987MOL0     H30262   5.140   4.794   8.726 -0.6895  1.4620  1.7122
  987MOL0     H30263   5.008   4.913   8.717  1.0020  0.0202  0.9765
  987MOL0     H30264   5.066   4.718   8.494  1.4178  2.1616 -1.3355
  987MOL0     H30265   4.967   4.850   8.472 -1.5757  2.9593  3.1391
  987MOL0     H30266   5.745   5.601   8.421 -3.7493  2.4532  0.3324
  987MOL0     H30267   5.973   5.674   8.411 -4.0358 -3.2107 -1.8486
  987MOL0     H30268   6.482   5.651   8.818 -0.2762  2.0881  1.7391
  987MOL0     H30269   6.683   5.782   8.821  0.1537  0.8322 -0.2730
  987MOL0     H30270   5.564   7.118   8.878  2.9007  1.8524  1.1630
  987MOL0     H30271   5.346   7.210   8.916  0.8520 -2.0505 -0.5425
  987MOL0     H30272   5.082   7.562   8.939  0.6493 -1.9823 -0.7677
  987MOL0     H30273   4.867   7.588   9.077 -1.0498  1.2792 -0.8065
  987MOL0     H30274   4.542   7.293   9.037  1.4801 -0.3252  0.5482
  987MOL0     H30275   4.505   7.411   8.907  2.7172  0.0029 -0.6503
  987MOL0     H30276   4.433   7.416   9.201  1.4733  2.0193  0.3941
  987MOL0     H30277   4.406   7.552   9.088  0.0120  0.2296  0.9587
  987MOL0     H30278   4.277   7.373   8.944  1.8259 -1.3016  0.2635
  987MOL0     H30279   4.192   7.412   9.101 -0.3497 -0.8794  0.6840
  987MOL0     H30280   4.174   7.187   9.059 -0.3196  1.0974  0.6462
  987MOL0     H30281   4.355   7.156   9.063  1.4564  2.2974 -0.7573
  987MOL0     H30282   4.304   7.188   9.460 -0.6168 -1.6633  0.6754
  987MOL0     H30283   4.699   7.273   8.853 -2.2773  2.3553  0.4882
  987MOL0     H30284   4.894   7.260   8.724 -1.2364 -0.7690  0.6677
  988MOL0     O30285   1.428   0.348  10.855  0.1984  0.1465  0.4742
  988MOL0     C30286   1.432   0.454  10.796  0.4114 -0.4860 -1.0584
  988MOL0     O30287   1.338   0.551  10.799  0.0239  0.4896 -0.1837
  988MOL0     C30288   1.266   0.567  10.912  0.4503  0.0871  0.4312
  988MOL0     C30289   1.318   0.627  11.027 -0.5447 -0.0402  0.1275
  988MOL0     C30290   1.246   0.644  11.146 -0.2072 -0.0978  0.0814
  988MOL0     C30291   1.116   0.588  11.163  0.1113  0.2214  0.2613
  988MOL0     O30292   1.062   0.594  11.287  0.4481  0.4994 -0.1527
  988MOL0     C30293   0.927   0.644  11.295 -0.1637 -0.3231  0.1156
  988MOL0     C30294   0.886   0.639  11.444  0.3746  1.0258 -0.6318
  988MOL0     C30295   0.737   0.595  11.469 -0.4934  0.5987  0.0394
  988MOL0     C30296   0.677   0.570  11.606  0.4295  0.8218 -0.5472
  988MOL0     C30297   0.535   0.515  11.615  0.0631 -0.2343 -0.1255
  988MOL0     C30298   0.496   0.421  11.493 -0.8391 -0.0080 -0.0630
  988MOL0     C30299   0.355   0.363  11.518 -0.3053 -0.1644 -0.2989
  988MOL0     C30300   0.243   0.471  11.513  0.7953 -0.1327 -0.2833
  988MOL0     N30301   0.113   0.408  11.533  0.4251 -0.1308  0.2327
  988MOL0     C30302   0.089   0.295  11.614  0.1897 -0.6455  0.3925
  988MOL0     C30303  -0.041   0.262  11.588  0.5886 -0.3341 -0.2938
  988MOL0     C30304  -0.114   0.149  11.650  0.1852  0.2001  0.0785
  988MOL0     C30305  -0.151   0.194  11.799  0.1543  0.4756  0.2206
  988MOL0     C30306  -0.279   0.278  11.804 -0.0021  0.2361  0.1830
  988MOL0     C30307  -0.253   0.424  11.764 -1.1962  0.4261 -0.3235
  988MOL0     O30308  -0.323   0.518  11.852 -0.5522 -0.0796 -0.1306
  988MOL0     C30309  -0.457   0.511  11.872  0.2020 -0.0428  0.2473
  988MOL0     C30310  -0.552   0.474  11.774 -0.0013 -0.1265  0.6025
  988MOL0     C30311  -0.687   0.488  11.794  0.0812  0.7869  0.4178
  988MOL0     C30312  -0.728   0.522  11.924 -0.4397  0.1288 -0.0502
  988MOL0     C30313  -0.877   0.537  11.945  0.7832  0.1988 -1.6116
  988MOL0     O30314  -0.969   0.496  11.841 -0.6590  0.2123  0.6740
  988MOL0     C30315  -1.103   0.506  11.857  0.1945  0.1396  0.2553
  988MOL0     C30316  -1.160   0.631  11.879  0.1845 -0.4710 -0.0344
  988MOL0     C30317  -1.294   0.651  11.878  0.2311  0.4800  0.5594
  988MOL0     C30318  -1.381   0.542  11.875 -0.4232  0.3698  0.4450
  988MOL0     O30319  -1.513   0.541  11.868  0.6973  0.0098 -0.3408
  988MOL0     C30320  -1.589   0.650  11.820  0.3990 -0.3785  0.5089
  988MOL0     C30321  -1.658   0.742  11.920 -0.1343 -0.5084 -1.0095
  988MOL0     C30322  -1.779   0.676  11.994 -0.0586  0.5281  0.0915
  988MOL0     C30323  -1.900   0.655  11.897  0.8259  0.2721  0.2711
  988MOL0     C30324  -2.018   0.611  11.983 -0.0677 -0.8935 -0.5217
  988MOL0     C30325  -2.144   0.587  11.901  0.1644 -0.6511  0.8523
  988MOL0     C30326  -2.268   0.545  11.988  0.4933 -0.3675 -0.2581
  988MOL0     C30327  -2.392   0.492  11.912 -0.4162 -0.6385 -0.1583
  988MOL0    Cl30328  -2.346   0.379  11.787  0.0762  0.3137  0.5320
  988MOL0     C30329  -1.322   0.409  11.856 -0.1573 -0.0197  0.4540
  988MOL0     C30330  -1.177   0.394  11.849 -0.4471 -0.0185 -0.0168
  988MOL0     O30331  -0.910   0.587  12.054 -0.0647  0.0235  0.6000
  988MOL0     C30332  -0.639   0.550  12.031  0.1798 -0.1505  1.1578
  988MOL0     C30333  -0.503   0.544  12.003 -0.3721 -0.0458 -0.5236
  988MOL0     N30334  -0.092   0.361  11.508  0.3282 -0.3209  0.8191
  988MOL0     N30335   0.001   0.435  11.463 -0.2918 -0.6476 -0.1151
  988MOL0     C30336   1.054   0.522  11.052  0.1940  0.0590 -0.4195
  988MOL0     C30337   1.132   0.510  10.935  0.6207 -0.4003 -0.4837
  988MOL0     C30338   1.560   0.482  10.718 -0.1703  0.6072  0.2660
  988MOL0     C30339   1.685   0.419  10.758  0.8236 -0.3045  0.5649
  988MOL0     C30340   1.799   0.431  10.678  0.0530  1.2998 -0.2458
  988MOL0     C30341   1.804   0.515  10.572  0.3594 -0.6655 -0.5759
  988MOL0     O30342   1.922   0.530  10.507 -0.1178 -0.9566  0.5603
  988MOL0     C30343   1.925   0.587  10.376  0.2131  0.2090 -0.5030
  988MOL0     C30344   2.064   0.562  10.318 -0.0396  0.9151  0.9602
  988MOL0     C30345   2.091   0.660  10.197  0.6919  1.6008 -0.0372
  988MOL0     C30346   2.225   0.641  10.149 -0.5718  0.1899  0.6255
  988MOL0     C30347   2.246   0.737  10.046  0.7447 -0.7116  0.4256
  988MOL0     C30348   2.243   0.832   9.970 -0.6083 -0.0750 -0.3541
  988MOL0     C30349   1.685   0.581  10.548  0.4015  0.1989  0.1297
  988MOL0     C30350   1.559   0.560  10.609  0.8689  0.2140 -0.6800
  988MOL0     H30351   1.419   0.666  11.020 -0.0075 -1.2688  0.6684
  988MOL0     H30352   1.298   0.686  11.231 -0.2138 -1.1564  0.6230
  988MOL0     H30353   0.865   0.576  11.237  1.4328  1.0214 -3.4841
  988MOL0     H30354   0.917   0.744  11.253 -2.3776 -0.5215  0.0723
  988MOL0     H30355   0.897   0.740  11.486 -1.7438 -0.0861  3.0965
  988MOL0     H30356   0.947   0.558  11.486 -0.5069 -0.7858 -2.6499
  988MOL0     H30357   0.721   0.500  11.419  0.0965  0.4181  0.1826
  988MOL0     H30358   0.672   0.667  11.417 -2.5675 -1.6184 -0.6153
  988MOL0     H30359   0.733   0.495  11.661 -1.0439  2.0296  2.8994
  988MOL0     H30360   0.677   0.659  11.670 -1.0190  0.3324  0.1870
  988MOL0     H30361   0.465   0.598  11.625  1.7637  1.1117  0.9858
  988MOL0     H30362   0.518   0.458  11.707 -2.6607  1.2185  0.3779
  988MOL0     H30363   0.571   0.342  11.485  1.6518  2.1647  0.6571
  988MOL0     H30364   0.497   0.467  11.394 -0.3545  0.2495  0.0597
  988MOL0     H30365   0.338   0.277  11.452  0.3823 -2.1254  1.9299
  988MOL0     H30366   0.347   0.334  11.623 -2.1727  2.7327  0.4669
  988MOL0     H30367   0.241   0.515  11.413 -1.4135 -0.2902 -0.3670
  988MOL0     H30368   0.243   0.553  11.586 -0.1206  0.5750 -1.0509
  988MOL0     H30369   0.159   0.243  11.679 -0.6609 -0.2368  1.6881
  988MOL0     H30370  -0.060   0.054  11.644 -2.1823 -1.2003 -0.4527
  988MOL0     H30371  -0.214   0.139  11.607 -0.4213 -1.0871  1.6782
  988MOL0     H30372  -0.068   0.255  11.837 -0.8125  1.9895 -0.0278
  988MOL0     H30373  -0.152   0.103  11.860 -1.2397  1.7264  2.1634
  988MOL0     H30374  -0.355   0.241  11.735 -0.2290  2.1795 -0.6812
  988MOL0     H30375  -0.322   0.288  11.904 -1.4808  0.4457 -0.4461
  988MOL0     H30376  -0.281   0.445  11.660  0.8517  1.6962 -0.6887
  988MOL0     H30377  -0.145   0.443  11.770 -1.4869  1.7499  1.8246
  988MOL0     H30378  -0.519   0.444  11.674 -1.5704  0.6150 -0.1632
  988MOL0     H30379  -0.762   0.472  11.717 -0.3128 -0.5582  1.0655
  988MOL0     H30380  -1.082   0.704  11.899  0.1547 -1.0451  2.5521
  988MOL0     H30381  -1.343   0.748  11.887 -1.5883 -0.5655  3.0136
  988MOL0     H30382  -1.666   0.615  11.751  2.5549 -0.7087 -1.8946
  988MOL0     H30383  -1.533   0.710  11.747 -1.1396  2.5243  1.5843
  988MOL0     H30384  -1.703   0.825  11.865 -3.4738 -0.3883  1.5736
  988MOL0     H30385  -1.580   0.784  11.985 -0.3627  0.0042 -1.0596
  988MOL0     H30386  -1.806   0.747  12.073  2.5429  0.9204  0.7332
  988MOL0     H30387  -1.757   0.584  12.049 -1.5509 -0.5603 -1.0547
  988MOL0     H30388  -1.930   0.743  11.840 -0.4750 -0.1775  0.2391
  988MOL0     H30389  -1.877   0.575  11.826 -1.7949 -1.5511  1.3334
  988MOL0     H30390  -2.034   0.689  12.058 -0.8167 -0.7851 -0.7871
  988MOL0     H30391  -1.983   0.512  12.016  0.1465 -0.3135  1.0627
  988MOL0     H30392  -2.125   0.519  11.817 -0.5085  1.1160 -0.8034
  988MOL0     H30393  -2.166   0.679  11.847  1.7889  1.0485  2.9390
  988MOL0     H30394  -2.243   0.466  12.059  1.1668 -0.0322 -0.1190
  988MOL0     H30395  -2.289   0.636  12.045  0.1758  1.9951 -3.8134
  988MOL0     H30396  -2.434   0.576  11.857  1.2207  0.6973  0.5156
  988MOL0     H30397  -2.461   0.451  11.986 -0.4592  2.5275  1.7909
  988MOL0     H30398  -1.368   0.311  11.847  1.6282 -1.1699  2.6585
  988MOL0     H30399  -1.131   0.298  11.827 -3.4317 -1.1343 -1.9428
  988MOL0     H30400  -0.672   0.588  12.127 -2.8615 -0.5210  0.3623
  988MOL0     H30401  -0.433   0.570  12.082 -1.0738 -0.8221  0.3776
  988MOL0     H30402   0.954   0.482  11.044  0.4346 -0.2839 -2.3651
  988MOL0     H30403   1.085   0.465  10.848 -1.1381 -0.9106  0.6830
  988MOL0     H30404   1.692   0.356  10.846  2.1620 -1.2918 -0.2106
  988MOL0     H30405   1.888   0.382  10.718 -0.1644  2.0837  1.2815
  988MOL0     H30406   1.905   0.693  10.388  1.9710  0.5057  0.1836
  988MOL0     H30407   1.849   0.543  10.311  0.6335  0.6777 -1.3226
  988MOL0     H30408   2.130   0.577  10.405 -0.3950  1.0654  1.2060
  988MOL0     H30409   2.076   0.458  10.288  1.8455  2.4349 -4.8217
  988MOL0     H30410   2.073   0.761  10.236  1.9068  1.2040  1.6889
  988MOL0     H30411   2.008   0.637  10.130  0.5657 -3.4172  1.4787
  988MOL0     H30412   2.311   0.646  10.217  0.8281  0.4278 -1.0915
  988MOL0     H30413   2.237   0.543  10.102  0.9283  0.0619  1.2145
  988MOL0     H30414   2.241   0.922   9.911 -0.8622 -0.6375 -1.2209
  988MOL0     H30415   1.692   0.650  10.465  1.7230 -0.3670 -0.2623
  988MOL0     H30416   1.472   0.618  10.579  0.2242 -0.1867  0.3626
  989MOL0     O30417   1.309   7.532   1.933  0.3884 -0.0054  0.1321
  989MOL0     C30418   1.320   7.578   1.819  0.2104 -0.2833 -0.1457
  989MOL0     O30419   1.217   7.588   1.729 -0.0200 -0.5740 -0.2664
  989MOL0     C30420   1.096   7.533   1.757 -0.1261  0.0997  0.3768
  989MOL0     C30421   1.012   7.599   1.849  0.0785 -0.4629  0.4583
  989MOL0     C30422   0.887   7.549   1.873  0.2766 -0.1156  0.7037
  989MOL0     C30423   0.842   7.432   1.810 -0.9818  0.5517  0.4286
  989MOL0     O30424   0.721   7.382   1.835 -0.3966 -0.6617  0.3417
  989MOL0     C30425   0.633   7.344   1.726 -0.5980 -0.1256  0.1409
  989MOL0     C30426   0.587   7.204   1.725  0.1021  0.1585  0.1090
  989MOL0     C30427   0.436   7.190   1.703  0.6930 -0.2373 -0.3257
  989MOL0     C30428   0.392   7.230   1.564 -1.6461 -0.4540 -0.7204
  989MOL0     C30429   0.240   7.240   1.551  0.0674 -1.0973  0.7739
  989MOL0     C30430   0.191   7.169   1.425  0.8861 -0.1843 -0.6055
  989MOL0     C30431   0.046   7.181   1.396  0.3243  1.0324 -0.0368
  989MOL0     C30432  -0.000   7.123   1.257  0.5736  0.8828 -0.5804
  989MOL0     N30433  -0.144   7.139   1.259 -0.0736 -0.3352  0.3074
  989MOL0     C30434  -0.230   7.053   1.319 -0.6423  0.4501 -0.0440
  989MOL0     C30435  -0.355   7.107   1.310 -0.9041  0.4706 -0.2851
  989MOL0     C30436  -0.476   7.039   1.356 -0.3378 -0.4407 -0.7577
  989MOL0     C30437  -0.466   6.942   1.475 -0.1582  0.0551  0.2876
  989MOL0     C30438  -0.604   6.872   1.480 -0.6310  0.0119 -0.2716
  989MOL0     C30439  -0.585   6.769   1.586  0.0365 -0.3614 -0.5657
  989MOL0     O30440  -0.702   6.695   1.639 -0.4021  0.0117 -0.1540
  989MOL0     C30441  -0.795   6.760   1.717 -0.2529  0.6747 -0.1571
  989MOL0     C30442  -0.920   6.701   1.706  0.0522 -0.5699 -0.7282
  989MOL0     C30443  -1.031   6.770   1.757  0.3695  0.9158 -0.2617
  989MOL0     C30444  -1.016   6.896   1.815  0.2017  0.4511 -0.3786
  989MOL0     C30445  -1.132   6.970   1.860 -0.9742 -0.1732 -0.1628
  989MOL0     O30446  -1.124   7.102   1.912  0.6031 -0.4357  0.7377
  989MOL0     C30447  -1.236   7.148   1.967  0.0210 -0.5892 -0.5525
  989MOL0     C30448  -1.363   7.153   1.901 -0.4661 -0.5995 -0.0397
  989MOL0     C30449  -1.467   7.206   1.973 -0.0561  0.2266  0.8088
  989MOL0     C30450  -1.457   7.244   2.108 -0.4324  1.5067  0.7518
  989MOL0     O30451  -1.567   7.270   2.178 -0.4660  0.5738  0.6740
  989MOL0     C30452  -1.674   7.177   2.183  0.0108 -0.2996  0.0760
  989MOL0     C30453  -1.632   7.048   2.269  0.5407 -0.4455 -0.2891
  989MOL0     C30454  -1.762   6.962   2.302  0.5584  0.1636 -0.6238
  989MOL0     C30455  -1.853   7.026   2.420  0.3172 -0.5478  0.6526
  989MOL0     C30456  -1.989   6.966   2.445 -1.0425 -0.6365  0.6553
  989MOL0     C30457  -2.076   7.056   2.540  0.3812  1.0655  0.9009
  989MOL0     C30458  -2.220   6.998   2.550  0.3812 -0.5076  0.2222
  989MOL0     C30459  -2.289   7.065   2.673  0.3012  0.8898  0.1289
  989MOL0    Cl30460  -2.471   7.029   2.675 -0.1862 -0.5265  0.1344
  989MOL0     C30461  -1.335   7.237   2.174 -0.3821  0.9329 -0.6659
  989MOL0     C30462  -1.223   7.194   2.100  0.5409  0.5939 -0.4176
  989MOL0     O30463  -1.239   6.910   1.831  0.6077  0.2491 -0.7537
  989MOL0     C30464  -0.890   6.952   1.827 -0.8188  0.0406  0.1888
  989MOL0     C30465  -0.781   6.889   1.765 -0.2418  0.2341 -0.7989
  989MOL0     N30466  -0.345   7.224   1.238 -0.6959  0.5424 -0.2023
  989MOL0     N30467  -0.222   7.250   1.210 -0.1013 -0.3234  1.0711
  989MOL0     C30468   0.920   7.370   1.711  0.5681 -0.2832  0.0055
  989MOL0     C30469   1.052   7.411   1.692  0.2948 -0.4452  0.4620
  989MOL0     C30470   1.452   7.638   1.773  0.1737 -0.1389 -0.8758
  989MOL0     C30471   1.572   7.633   1.847 -0.3258 -0.5640 -0.1463
  989MOL0     C30472   1.686   7.689   1.807  0.0218 -0.9879 -0.0481
  989MOL0     C30473   1.698   7.752   1.685  0.2309  0.2680  0.1956
  989MOL0     O30474   1.815   7.810   1.638  0.0727 -0.6299  0.0288
  989MOL0     C30475   1.829   7.889   1.518  0.5588 -0.2130  0.0994
  989MOL0     C30476   1.967   7.935   1.528 -0.7494 -0.4840  0.8168
  989MOL0     C30477   2.051   7.818   1.483 -0.3665  1.1297  0.3339
  989MOL0     C30478   2.183   7.885   1.435  0.2205  0.2034  0.5328
  989MOL0     C30479   2.278   7.786   1.370  0.1489 -0.4087 -0.1545
  989MOL0     C30480   2.365   7.710   1.330  0.5978  0.0810 -0.4665
  989MOL0     C30481   1.588   7.764   1.613  0.0049  0.4754  0.9297
  989MOL0     C30482   1.466   7.706   1.655  0.1187  0.1165 -0.8274
  989MOL0     H30483   1.054   7.695   1.875 -0.5254 -0.3190  0.9329
  989MOL0     H30484   0.831   7.596   1.953  1.0943  3.6641 -0.7050
  989MOL0     H30485   0.673   7.377   1.629 -1.0777  2.7676  0.8355
  989MOL0     H30486   0.547   7.411   1.736 -0.4445  0.4464 -1.9159
  989MOL0     H30487   0.607   7.171   1.827  0.5121 -0.2553 -0.1043
  989MOL0     H30488   0.644   7.146   1.652  1.4583  1.3130  0.2168
  989MOL0     H30489   0.381   7.249   1.777 -0.9732 -0.0422 -1.6463
  989MOL0     H30490   0.396   7.089   1.721 -0.8449  0.4866  0.5025
  989MOL0     H30491   0.449   7.318   1.533  1.2806 -2.2873 -0.8659
  989MOL0     H30492   0.426   7.151   1.498  1.3772  1.1776 -1.2710
  989MOL0     H30493   0.208   7.344   1.549 -2.2104 -1.7279 -1.5618
  989MOL0     H30494   0.189   7.192   1.635  1.5602 -2.5061  0.9248
  989MOL0     H30495   0.218   7.063   1.427 -0.6588 -0.5927  1.5580
  989MOL0     H30496   0.240   7.222   1.343 -0.0807 -1.3544 -2.0039
  989MOL0     H30497  -0.000   7.128   1.480 -0.9665  0.9442 -0.7751
  989MOL0     H30498   0.009   7.283   1.407  1.2112  1.2852  0.7319
  989MOL0     H30499   0.031   7.018   1.250 -2.4043  0.0178 -3.5898
  989MOL0     H30500   0.044   7.173   1.170 -0.7255  1.1492 -1.1188
  989MOL0     H30501  -0.204   6.959   1.366  0.3087  0.9150  0.3759
  989MOL0     H30502  -0.535   7.001   1.272 -0.3811 -3.2778  0.4779
  989MOL0     H30503  -0.531   7.127   1.390  2.3088  0.3265  2.0814
  989MOL0     H30504  -0.451   7.004   1.564 -0.2612  3.3136 -1.7921
  989MOL0     H30505  -0.385   6.871   1.456 -1.2658 -1.4762  1.0666
  989MOL0     H30506  -0.685   6.941   1.506  0.9209  2.3453 -1.3264
  989MOL0     H30507  -0.616   6.822   1.383 -1.6059 -3.7300  1.6140
  989MOL0     H30508  -0.530   6.818   1.666  0.7386 -1.5921 -0.2619
  989MOL0     H30509  -0.524   6.685   1.550  1.0194  0.1387 -0.0917
  989MOL0     H30510  -0.932   6.613   1.643  0.3042 -0.3561 -1.0792
  989MOL0     H30511  -1.131   6.734   1.736  0.3637  0.3732  0.6597
  989MOL0     H30512  -1.373   7.137   1.794 -1.4992  0.0070 -0.0482
  989MOL0     H30513  -1.562   7.205   1.921  1.2218 -0.2380 -1.6504
  989MOL0     H30514  -1.704   7.152   2.081 -0.3738  0.7946 -0.0875
  989MOL0     H30515  -1.755   7.230   2.234 -0.8629 -0.3589 -1.2010
  989MOL0     H30516  -1.582   7.075   2.363 -1.7864 -0.9837  1.1735
  989MOL0     H30517  -1.562   6.987   2.211  0.0326 -0.7302 -0.6005
  989MOL0     H30518  -1.719   6.870   2.341  2.5389  1.4889  0.4636
  989MOL0     H30519  -1.819   6.943   2.210 -2.1093 -1.8315  1.3085
  989MOL0     H30520  -1.797   7.025   2.514 -0.5321  0.3697  1.1913
  989MOL0     H30521  -1.878   7.130   2.400  1.2462 -0.5487 -0.6384
  989MOL0     H30522  -1.989   6.865   2.486 -1.7301 -0.6346  0.6730
  989MOL0     H30523  -2.025   6.958   2.342  0.2772  0.9970  0.0190
  989MOL0     H30524  -2.079   7.162   2.512 -0.8316  1.1737  1.3918
  989MOL0     H30525  -2.034   7.059   2.641 -0.2121  3.8722  1.1446
  989MOL0     H30526  -2.274   7.025   2.459  0.6010  1.1639  0.5514
  989MOL0     H30527  -2.222   6.889   2.556  1.6457 -0.5693 -0.1252
  989MOL0     H30528  -2.273   7.173   2.664 -0.7506  1.2879  2.3772
  989MOL0     H30529  -2.247   7.028   2.767 -1.3039  0.0258  0.5558
  989MOL0     H30530  -1.319   7.264   2.278  0.8547  0.6892 -0.7874
  989MOL0     H30531  -1.130   7.194   2.156  1.0789  5.0473 -0.9796
  989MOL0     H30532  -0.870   7.046   1.878  0.9388  1.7128 -3.2670
  989MOL0     H30533  -0.682   6.934   1.771  0.4056 -1.3148  0.8837
  989MOL0     H30534   0.879   7.281   1.664  0.2432 -0.6733  1.0043
  989MOL0     H30535   1.124   7.354   1.633  3.1451  2.6415  0.6385
  989MOL0     H30536   1.567   7.581   1.942  0.0710 -1.8008 -0.7802
  989MOL0     H30537   1.776   7.699   1.867  0.2188 -0.0670 -0.4829
  989MOL0     H30538   1.759   7.973   1.517 -0.7440 -1.1545  2.8379
  989MOL0     H30539   1.810   7.823   1.432 -0.7461 -0.0423  0.2382
  989MOL0     H30540   1.957   8.024   1.464 -1.8927 -1.4471 -0.3974
  989MOL0     H30541   1.993   7.975   1.626  0.7120 -0.9667  0.6388
  989MOL0     H30542   2.004   7.769   1.397 -1.8739  2.7081  0.2097
  989MOL0     H30543   2.059   7.755   1.572  0.1132 -2.0216 -1.7521
  989MOL0     H30544   2.155   7.967   1.367 -0.3443  1.2013  1.9339
  989MOL0     H30545   2.229   7.931   1.523 -2.1382  2.3038  0.7762
  989MOL0     H30546   2.447   7.648   1.300  0.4840 -0.0751 -0.4600
  989MOL0     H30547   1.589   7.811   1.515 -1.3222 -0.9445  0.1997
  989MOL0     H30548   1.385   7.719   1.584 -2.7168 -2.4973  1.6181
  990MOL0     O30549   1.279   0.047   0.595 -0.3855 -0.3961  0.1007
  990MOL0     C30550   1.374  -0.026   0.622  1.3443 -0.5465 -0.2028
  990MOL0     O30551   1.372  -0.162   0.606 -0.2109 -0.4735  0.2479
  990MOL0     C30552   1.250  -0.207   0.559 -0.5525 -0.4823  0.1938
  990MOL0     C30553   1.203  -0.188   0.426  0.8695 -0.8652 -0.0022
  990MOL0     C30554   1.076  -0.220   0.389 -0.4022 -0.3444  0.1990
  990MOL0     C30555   0.985  -0.266   0.485  0.4361  0.3071  0.1915
  990MOL0     O30556   0.864  -0.302   0.430  0.4335  0.1230  0.4111
  990MOL0     C30557   0.747  -0.275   0.512 -0.4959 -0.7739  0.1101
  990MOL0     C30558   0.619  -0.356   0.488  0.5220  0.0676  0.5513
  990MOL0     C30559   0.509  -0.300   0.577  0.3661  0.6260 -0.4839
  990MOL0     C30560   0.373  -0.385   0.566 -0.3487 -0.7789  0.1680
  990MOL0     C30561   0.271  -0.343   0.670  0.0051 -0.2747  0.5915
  990MOL0     C30562   0.178  -0.215   0.640  0.6162 -0.1729  0.4921
  990MOL0     C30563   0.067  -0.196   0.745 -0.0712  0.8965 -0.0654
  990MOL0     C30564  -0.050  -0.293   0.713 -0.0543  0.1122  0.3098
  990MOL0     N30565  -0.161  -0.284   0.811 -0.1187  0.0073 -0.2661
  990MOL0     C30566  -0.137  -0.288   0.951  0.8763  1.0400  0.5568
  990MOL0     C30567  -0.260  -0.234   0.998 -0.4292  0.2529  0.6220
  990MOL0     C30568  -0.301  -0.223   1.142  0.5154  0.3607  0.6396
  990MOL0     C30569  -0.448  -0.261   1.147 -0.0263  0.2162 -0.0655
  990MOL0     C30570  -0.483  -0.404   1.101 -0.1866 -0.2972 -0.4615
  990MOL0     C30571  -0.632  -0.408   1.078 -0.7402  0.7768  0.0128
  990MOL0     O30572  -0.709  -0.342   1.185  0.6869 -0.8867  0.2930
  990MOL0     C30573  -0.839  -0.312   1.149 -0.6092  0.4698 -0.2004
  990MOL0     C30574  -0.942  -0.415   1.173  0.2313 -0.4539 -0.4345
  990MOL0     C30575  -1.071  -0.380   1.148  0.3055  0.2521 -0.4759
  990MOL0     C30576  -1.109  -0.256   1.083  0.7811  0.5710  0.6137
  990MOL0     C30577  -1.244  -0.227   1.047 -0.1297 -0.6913 -0.6875
  990MOL0     O30578  -1.328  -0.335   1.059 -0.0426 -0.0757 -0.6681
  990MOL0     C30579  -1.461  -0.326   1.039  0.2649  0.3142 -0.1306
  990MOL0     C30580  -1.548  -0.391   1.120 -0.5509  0.2989 -0.7142
  990MOL0     C30581  -1.689  -0.391   1.097 -0.6156  0.0117  0.0925
  990MOL0     C30582  -1.737  -0.326   0.983 -0.0941  0.4250 -0.2836
  990MOL0     O30583  -1.861  -0.301   0.957  0.5171  0.0353 -0.1822
  990MOL0     C30584  -1.963  -0.284   1.062 -0.0255 -0.5082  0.5636
  990MOL0     C30585  -2.081  -0.373   1.050 -0.6912  0.6638  0.5755
  990MOL0     C30586  -2.149  -0.372   0.912  1.1742  0.7933 -0.1603
  990MOL0     C30587  -2.170  -0.237   0.849 -0.3006 -0.2010  1.0286
  990MOL0     C30588  -2.257  -0.237   0.720  0.4775  0.0367  0.0804
  990MOL0     C30589  -2.405  -0.274   0.748 -0.4082 -0.3470  0.3338
  990MOL0     C30590  -2.494  -0.226   0.627 -0.7906  0.1649 -0.1990
  990MOL0     C30591  -2.629  -0.290   0.610  1.4783  0.0688 -0.5894
  990MOL0    Cl30592  -2.749  -0.217   0.719  0.5050 -0.0887  0.2317
  990MOL0     C30593  -1.644  -0.281   0.886 -0.0293  0.3752  1.1768
  990MOL0     C30594  -1.505  -0.287   0.912  0.7534 -0.7145 -0.2673
  990MOL0     O30595  -1.278  -0.109   1.033  0.7809 -0.5153 -0.0669
  990MOL0     C30596  -1.007  -0.170   1.060  0.3347 -0.0133 -0.7873
  990MOL0     C30597  -0.875  -0.199   1.085 -0.3345  0.5651  0.5132
  990MOL0     N30598  -0.345  -0.203   0.889  0.1605 -0.9278  0.5297
  990MOL0     N30599  -0.290  -0.234   0.777 -0.0799  0.6679 -0.1434
  990MOL0     C30600   1.031  -0.290   0.613 -0.6124  0.4670 -0.3992
  990MOL0     C30601   1.163  -0.256   0.651 -0.4610  0.4037  0.0203
  990MOL0     C30602   1.495   0.038   0.654 -0.7542  0.9549  0.2616
  990MOL0     C30603   1.611  -0.048   0.651  0.0393 -0.0231 -0.8399
  990MOL0     C30604   1.740  -0.003   0.670 -0.7238  0.4025 -0.0196
  990MOL0     C30605   1.760   0.141   0.687  0.2023 -0.1195 -0.0071
  990MOL0     O30606   1.888   0.188   0.686  0.2684  0.0751  0.3711
  990MOL0     C30607   1.928   0.270   0.790 -0.3679 -0.1143 -0.6537
  990MOL0     C30608   2.077   0.256   0.811 -0.7631  0.7496 -0.2747
  990MOL0     C30609   2.122   0.116   0.862  0.4528  0.0750 -1.2001
  990MOL0     C30610   2.272   0.097   0.871 -0.0242 -0.2692 -0.8506
  990MOL0     C30611   2.330   0.180   0.977 -0.5585  0.3405 -0.2201
  990MOL0     C30612   2.361   0.259   1.062 -0.2126  0.7331 -0.5209
  990MOL0     C30613   1.643   0.223   0.693 -0.9609 -0.3781 -0.3822
  990MOL0     C30614   1.511   0.176   0.681  0.2722  0.6570 -0.5151
  990MOL0     H30615   1.268  -0.154   0.345  0.6952 -2.2255 -0.7508
  990MOL0     H30616   1.040  -0.213   0.287  0.2326 -4.0463 -0.4131
  990MOL0     H30617   0.732  -0.167   0.502  1.9439 -0.5553 -2.1744
  990MOL0     H30618   0.775  -0.289   0.617  2.2499 -0.0285 -0.4397
  990MOL0     H30619   0.639  -0.461   0.513  0.8924  0.6146  2.8390
  990MOL0     H30620   0.576  -0.350   0.388  2.0264 -2.2018 -0.3183
  990MOL0     H30621   0.484  -0.196   0.553 -0.5621  0.2272 -1.3104
  990MOL0     H30622   0.543  -0.303   0.681  1.3006 -0.7322 -0.7977
  990MOL0     H30623   0.335  -0.366   0.465  0.8526 -0.4868 -0.2514
  990MOL0     H30624   0.394  -0.492   0.575  0.4147 -0.8587 -1.8343
  990MOL0     H30625   0.323  -0.325   0.764 -0.0294 -2.1990  1.0259
  990MOL0     H30626   0.202  -0.426   0.687  1.1586 -1.4362 -0.2040
  990MOL0     H30627   0.123  -0.222   0.546 -1.6550  2.6355  1.4774
  990MOL0     H30628   0.244  -0.128   0.645  2.0624 -1.2128  0.0596
  990MOL0     H30629   0.106  -0.208   0.846  0.9303  2.4725 -0.2304
  990MOL0     H30630   0.030  -0.094   0.728 -0.7091  0.2953 -2.7791
  990MOL0     H30631  -0.022  -0.398   0.704 -0.0827  0.1729 -0.6246
  990MOL0     H30632  -0.081  -0.257   0.614  2.5078  2.1117  0.1295
  990MOL0     H30633  -0.047  -0.314   1.007 -0.5497 -1.9141  1.6946
  990MOL0     H30634  -0.284  -0.118   1.164 -1.2333  0.8477 -0.1440
  990MOL0     H30635  -0.232  -0.284   1.200  2.8075  4.0996  2.1870
  990MOL0     H30636  -0.516  -0.191   1.098 -1.2180  1.7890  3.4972
  990MOL0     H30637  -0.473  -0.269   1.253 -0.8890 -2.5120 -0.3963
  990MOL0     H30638  -0.419  -0.428   1.016  1.1392  2.1715 -0.2461
  990MOL0     H30639  -0.465  -0.478   1.180 -1.6835  0.1071  0.2932
  990MOL0     H30640  -0.666  -0.512   1.064 -1.2758  1.2162 -2.5234
  990MOL0     H30641  -0.649  -0.352   0.985 -1.6983 -0.5308 -0.6468
  990MOL0     H30642  -0.928  -0.511   1.221  1.3780  0.9220  2.1492
  990MOL0     H30643  -1.147  -0.454   1.172 -2.4816  2.9648 -0.1659
  990MOL0     H30644  -1.509  -0.457   1.197  0.0666 -1.5735 -2.5576
  990MOL0     H30645  -1.756  -0.428   1.174 -2.0736  3.0791  0.4294
  990MOL0     H30646  -1.984  -0.178   1.049  4.5920  0.2831 -3.8797
  990MOL0     H30647  -1.906  -0.303   1.153  0.0813 -1.2273  0.3593
  990MOL0     H30648  -2.156  -0.345   1.124 -3.1823  2.2885 -2.3511
  990MOL0     H30649  -2.049  -0.473   1.081 -0.8067  0.2443 -0.6299
  990MOL0     H30650  -2.242  -0.429   0.916  0.9663  1.1373 -0.0751
  990MOL0     H30651  -2.077  -0.422   0.846 -1.3466  0.0887 -2.5707
  990MOL0     H30652  -2.224  -0.189   0.931  0.9851 -0.6213  2.1409
  990MOL0     H30653  -2.074  -0.192   0.826 -1.4265  2.0585  0.4643
  990MOL0     H30654  -2.202  -0.299   0.649  0.5444  0.0319  0.1364
  990MOL0     H30655  -2.252  -0.135   0.680 -1.6793  0.1043 -0.1603
  990MOL0     H30656  -2.443  -0.211   0.829 -3.4724  0.2749 -1.4301
  990MOL0     H30657  -2.403  -0.381   0.770 -3.6421 -0.5088  0.2371
  990MOL0     H30658  -2.497  -0.118   0.644  3.2151  0.1003  2.2381
  990MOL0     H30659  -2.440  -0.241   0.532 -2.2553 -0.3859 -0.9769
  990MOL0     H30660  -2.643  -0.398   0.621 -2.9854  0.6245  1.8034
  990MOL0     H30661  -2.664  -0.266   0.509  0.1219  0.7382  0.0093
  990MOL0     H30662  -1.679  -0.223   0.800  2.3469  2.1816  1.3387
  990MOL0     H30663  -1.446  -0.240   0.834  1.0199  2.1925  1.5388
  990MOL0     H30664  -1.030  -0.066   1.038  1.8852  0.1986 -1.5472
  990MOL0     H30665  -0.787  -0.143   1.053  2.2023 -3.9867 -1.3743
  990MOL0     H30666   0.959  -0.331   0.683  2.6325  0.0208  3.0118
  990MOL0     H30667   1.192  -0.280   0.753 -2.1570 -2.9069 -0.1073
  990MOL0     H30668   1.602  -0.153   0.625  0.6355 -0.4148  0.4636
  990MOL0     H30669   1.830  -0.061   0.683  0.3127  2.3235  2.1847
  990MOL0     H30670   1.874   0.250   0.883  2.1554 -0.2584  0.8713
  990MOL0     H30671   1.905   0.372   0.760 -3.0602 -0.0196  1.2650
  990MOL0     H30672   2.132   0.292   0.724  1.3891 -0.7040  0.4228
  990MOL0     H30673   2.091   0.327   0.894  1.8367  0.4488 -0.4015
  990MOL0     H30674   2.097   0.037   0.790  3.8044 -1.4582 -0.8486
  990MOL0     H30675   2.079   0.095   0.960  2.2228  1.5108 -0.0569
  990MOL0     H30676   2.298  -0.008   0.889  0.9057  0.3026  1.5463
  990MOL0     H30677   2.319   0.123   0.775  2.0681  0.9095  0.4015
  990MOL0     H30678   2.387   0.334   1.134  1.9752  0.0580 -0.5410
  990MOL0     H30679   1.662   0.327   0.719  1.2123 -0.3148 -1.9063
  990MOL0     H30680   1.433   0.252   0.685  1.8819  2.4225 -1.0523
  991MOL0     O30681   9.341   1.422   9.167  0.1298 -0.6559 -0.3188
  991MOL0     C30682   9.299   1.398   9.052  0.3298  0.4412  0.3269
  991MOL0     O30683   9.380   1.360   8.940  0.6072  0.2048 -0.1420
  991MOL0     C30684   9.514   1.338   8.967  0.4018  1.0447  0.0500
  991MOL0     C30685   9.559   1.221   9.039 -0.3873  0.1854 -0.1677
  991MOL0     C30686   9.696   1.205   9.064  0.6175  0.2146  0.2313
  991MOL0     C30687   9.793   1.276   9.009 -0.6604 -0.6474  0.5153
  991MOL0     O30688   9.928   1.247   9.029 -0.2803 -0.2330  0.2215
  991MOL0     C30689   9.965   1.122   9.087  0.4094  1.1115 -0.2097
  991MOL0     C30690  10.111   1.085   9.034  1.7269  0.2689  0.5058
  991MOL0     C30691  10.176   0.971   9.113  0.1367 -0.3097  0.4642
  991MOL0     C30692  10.231   1.019   9.249 -0.0345 -0.2812  0.0985
  991MOL0     C30693  10.300   0.920   9.338  0.1049 -0.4069 -0.2285
  991MOL0     C30694  10.429   0.857   9.273  0.3561 -0.0553 -0.5198
  991MOL0     C30695  10.480   0.745   9.370 -0.4337 -0.3193 -0.6339
  991MOL0     C30696  10.386   0.636   9.400  1.1664  0.6340 -0.3576
  991MOL0     N30697  10.439   0.534   9.491 -0.1145  0.3188  0.1065
  991MOL0     C30698  10.480   0.406   9.456  1.0167 -0.8443  0.3890
  991MOL0     C30699  10.480   0.337   9.572  0.3094 -0.4260  0.4878
  991MOL0     C30700  10.508   0.195   9.599  0.1823  0.4590 -0.3708
  991MOL0     C30701  10.388   0.111   9.548  0.2592 -1.0055 -0.0882
  991MOL0     C30702  10.392  -0.034   9.597 -0.3976  0.4993  0.8791
  991MOL0     C30703  10.372  -0.047   9.744 -0.1660 -0.5315 -0.5493
  991MOL0     O30704  10.231  -0.013   9.757  0.1501 -0.2237 -0.4069
  991MOL0     C30705  10.146  -0.107   9.803  0.3303 -0.9030  0.1385
  991MOL0     C30706  10.167  -0.242   9.834 -0.4974 -0.4407  0.2954
  991MOL0     C30707  10.065  -0.322   9.892  0.1633 -0.4973  0.0799
  991MOL0     C30708   9.935  -0.265   9.907  0.1295 -0.5083  0.3233
  991MOL0     C30709   9.819  -0.335   9.961 -0.0915  0.7167 -0.4532
  991MOL0     O30710   9.696  -0.307   9.908  0.5729 -0.0519 -1.0656
  991MOL0     C30711   9.577  -0.354   9.957 -0.1446  0.6146 -1.0513
  991MOL0     C30712   9.469  -0.278   9.932  0.3377 -0.0658  0.3045
  991MOL0     C30713   9.334  -0.317   9.967  0.3330  0.2996  0.5522
  991MOL0     C30714   9.301  -0.435  10.042  0.1850  0.2792 -0.5119
  991MOL0     O30715   9.171  -0.458  10.068 -0.0157  0.1598  0.6804
  991MOL0     C30716   9.135  -0.556  10.166 -0.2098 -0.2252 -0.2851
  991MOL0     C30717   8.998  -0.608  10.134 -0.2712  0.8528 -0.0898
  991MOL0     C30718   8.923  -0.649  10.270  0.7047  0.1353 -0.2013
  991MOL0     C30719   8.799  -0.745  10.256  0.3325  0.0999  0.6258
  991MOL0     C30720   8.824  -0.897  10.235  0.7571  0.7319 -0.2124
  991MOL0     C30721   8.848  -0.964  10.363 -0.6267 -0.7643  0.4383
  991MOL0     C30722   8.912  -1.099  10.340  0.0276  0.3555  0.0348
  991MOL0     C30723   8.933  -1.171  10.477  0.7666  0.3189 -0.3485
  991MOL0    Cl30724   8.789  -1.167  10.584  0.2203  0.1484 -0.3715
  991MOL0     C30725   9.417  -0.518  10.073  0.1488 -0.2143 -0.0717
  991MOL0     C30726   9.551  -0.470  10.038  0.3132 -0.3913  0.1773
  991MOL0     O30727   9.843  -0.404  10.061 -0.1807  0.2649 -0.2886
  991MOL0     C30728   9.915  -0.134   9.865 -0.2520 -0.0719  0.5227
  991MOL0     C30729  10.017  -0.050   9.820 -0.9471 -0.0887  0.4952
  991MOL0     N30730  10.480   0.424   9.674  0.2107  0.4161 -0.6296
  991MOL0     N30731  10.439   0.538   9.629 -0.4676  0.0768 -0.4628
  991MOL0     C30732   9.754   1.386   8.939  0.1230  0.1125  0.0335
  991MOL0     C30733   9.618   1.423   8.930  0.0014 -1.0076  0.4078
  991MOL0     C30734   9.161   1.434   9.013  0.8691 -0.4330  0.0525
  991MOL0     C30735   9.121   1.425   8.875 -0.5808  0.0032 -0.3447
  991MOL0     C30736   9.001   1.477   8.826  0.1901 -1.2082  0.6463
  991MOL0     C30737   8.910   1.521   8.917  0.5878 -0.2195  0.2172
  991MOL0     O30738   8.781   1.550   8.870 -1.3705  0.1795  0.7858
  991MOL0     C30739   8.707   1.633   8.952  0.8855 -0.1699 -0.6976
  991MOL0     C30740   8.590   1.690   8.876 -1.1600  0.3220 -0.0509
  991MOL0     C30741   8.477   1.587   8.853 -0.1957 -0.7036 -0.2048
  991MOL0     C30742   8.434   1.501   8.972 -0.1362 -0.3666  0.3074
  991MOL0     C30743   8.290   1.481   8.974 -0.5894 -0.6448 -0.2589
  991MOL0     C30744   8.172   1.450   8.964  0.5139  0.4454 -0.4729
  991MOL0     C30745   8.948   1.530   9.054  0.5295  0.0159  0.6797
  991MOL0     C30746   9.072   1.491   9.102 -0.0787 -0.6596  0.4695
  991MOL0     H30747   9.491   1.157   9.094 -1.8694  2.5333  0.9050
  991MOL0     H30748   9.706   1.112   9.118 -0.3506 -0.8407 -1.3490
  991MOL0     H30749   9.898   1.036   9.078  0.0326  1.3689  0.1431
  991MOL0     H30750   9.969   1.141   9.194 -0.4489  2.7866 -0.4379
  991MOL0     H30751  10.168   1.178   9.042  2.0707 -0.0016  1.2622
  991MOL0     H30752  10.094   1.071   8.927 -2.5291  2.0770  0.7668
  991MOL0     H30753  10.261   0.934   9.055 -0.1888 -1.4700  0.6880
  991MOL0     H30754  10.111   0.884   9.124 -1.4776  1.0209  2.1514
  991MOL0     H30755  10.313   1.086   9.223  0.3045 -0.2946  1.0836
  991MOL0     H30756  10.151   1.070   9.303  1.0480 -0.4188  1.9235
  991MOL0     H30757  10.220   0.847   9.350 -0.0394 -0.3116 -0.5958
  991MOL0     H30758  10.320   0.958   9.439  0.9421 -0.1725 -0.4773
  991MOL0     H30759  10.503   0.937   9.263 -0.8172  1.4704  1.9720
  991MOL0     H30760  10.408   0.821   9.172 -0.4663  4.3314 -2.1424
  991MOL0     H30761  10.567   0.697   9.326 -2.3410 -1.8584 -3.0332
  991MOL0     H30762  10.509   0.791   9.465  0.9239  2.1024 -2.1145
  991MOL0     H30763  10.352   0.589   9.308 -2.1240  0.1490  0.9885
  991MOL0     H30764  10.291   0.671   9.441  0.8763  1.5234 -1.6949
  991MOL0     H30765  10.497   0.370   9.355  2.3442  1.3424 -0.2316
  991MOL0     H30766  10.534   0.178   9.704 -0.2007  0.2211 -0.3114
  991MOL0     H30767  10.600   0.170   9.546  0.7700  2.1566 -0.1750
  991MOL0     H30768  10.377   0.112   9.440 -2.4936  1.3008  0.0930
  991MOL0     H30769  10.296   0.153   9.590  0.9017  0.9065 -0.4921
  991MOL0     H30770  10.326  -0.092   9.532  2.0604  1.8639 -3.1783
  991MOL0     H30771  10.486  -0.085   9.577 -1.0337 -1.0865  1.6922
  991MOL0     H30772  10.436   0.021   9.801  1.9294 -0.6747 -2.5864
  991MOL0     H30773  10.391  -0.154   9.755  1.8401 -0.0737  1.2937
  991MOL0     H30774  10.264  -0.286   9.811  0.0917  0.0142  1.7728
  991MOL0     H30775  10.084  -0.422   9.928 -0.3633 -0.0680  1.6544
  991MOL0     H30776   9.477  -0.184   9.878  0.6751  0.0816  0.6108
  991MOL0     H30777   9.250  -0.254   9.940 -0.2774 -2.1635 -4.3913
  991MOL0     H30778   9.147  -0.518  10.267 -0.5888  0.0301 -0.3366
  991MOL0     H30779   9.201  -0.644  10.157 -1.6903 -1.1626 -3.1131
  991MOL0     H30780   8.994  -0.693  10.065 -1.0031  1.8801 -1.3701
  991MOL0     H30781   8.934  -0.527  10.097 -2.0652 -0.3457  0.2807
  991MOL0     H30782   8.891  -0.556  10.317  1.4534  1.6345 -2.4982
  991MOL0     H30783   8.989  -0.702  10.339  0.1998  1.8121  1.6316
  991MOL0     H30784   8.738  -0.730  10.346 -1.7205 -2.8684 -0.1086
  991MOL0     H30785   8.743  -0.704  10.172 -0.2925 -4.0853 -1.2817
  991MOL0     H30786   8.909  -0.915  10.168  1.5090  1.9698  0.3692
  991MOL0     H30787   8.742  -0.934  10.173  1.8725 -0.8882 -0.8083
  991MOL0     H30788   8.750  -0.970  10.412 -0.1378  1.5464  1.8466
  991MOL0     H30789   8.915  -0.902  10.423 -1.8240 -2.0459  3.2870
  991MOL0     H30790   8.840  -1.161  10.286  1.6785 -0.9648 -0.7209
  991MOL0     H30791   9.012  -1.086  10.298  0.6186 -0.5611  1.0816
  991MOL0     H30792   9.018  -1.123  10.527  0.0341  1.8068 -0.4860
  991MOL0     H30793   8.957  -1.276  10.456  1.7752  0.4932 -0.1178
  991MOL0     H30794   9.403  -0.618  10.114 -5.1707  1.2428  2.5991
  991MOL0     H30795   9.632  -0.536  10.070 -1.1718 -1.7108  1.3622
  991MOL0     H30796   9.816  -0.089   9.871  0.7118  2.0986  1.1850
  991MOL0     H30797   9.994   0.048   9.779 -0.3935  0.7053  2.0066
  991MOL0     H30798   9.825   1.458   8.901  0.5356  0.5328  1.5532
  991MOL0     H30799   9.591   1.505   8.864  1.7036 -1.4195 -0.8660
  991MOL0     H30800   9.190   1.380   8.806 -0.1506  1.7357 -1.1114
  991MOL0     H30801   8.975   1.466   8.722  2.3148  0.0185 -0.0813
  991MOL0     H30802   8.775   1.707   8.993  0.2324  0.3910 -0.6112
  991MOL0     H30803   8.667   1.579   9.038 -0.1473 -1.0006 -1.6574
  991MOL0     H30804   8.547   1.767   8.941 -2.4948 -0.6575  0.2597
  991MOL0     H30805   8.627   1.741   8.787  0.2620  1.1504  0.9521
  991MOL0     H30806   8.513   1.511   8.783 -1.8986 -0.9105 -0.8970
  991MOL0     H30807   8.388   1.636   8.812  0.6468  2.1198  1.0734
  991MOL0     H30808   8.477   1.400   8.973 -2.0889 -1.2603 -0.7986
  991MOL0     H30809   8.450   1.561   9.062 -4.0549  0.5299  0.5817
  991MOL0     H30810   8.075   1.405   8.964  0.0301  1.3542  1.7422
  991MOL0     H30811   8.883   1.577   9.126  0.9062  3.2985 -0.9327
  991MOL0     H30812   9.115   1.514   9.199  2.0938  0.4871 -0.7068
  992MOL0     O30813   6.242   0.498   3.313 -0.0846  1.1938 -0.1686
  992MOL0     C30814   6.255   0.606   3.378 -0.6071 -0.8670  0.5437
  992MOL0     O30815   6.164   0.681   3.433  0.4717 -0.0542  0.2159
  992MOL0     C30816   6.035   0.635   3.453  0.0345  0.3224  0.0577
  992MOL0     C30817   6.000   0.512   3.510 -0.1931  0.0742 -0.4299
  992MOL0     C30818   5.867   0.470   3.517  0.0953  0.4819  0.3455
  992MOL0     C30819   5.761   0.549   3.466 -0.1386  0.2585  0.4494
  992MOL0     O30820   5.629   0.506   3.486 -0.9643  0.4449 -0.2178
  992MOL0     C30821   5.526   0.603   3.498  0.5811 -0.1324 -0.2157
  992MOL0     C30822   5.404   0.550   3.557 -0.2833  1.0730  0.1048
  992MOL0     C30823   5.433   0.527   3.708  0.2528 -0.6410  0.2056
  992MOL0     C30824   5.318   0.453   3.778 -0.5987  0.3449  0.0827
  992MOL0     C30825   5.320   0.304   3.754  0.4596 -0.1509  0.2384
  992MOL0     C30826   5.227   0.221   3.848  0.2032 -0.2387  0.7246
  992MOL0     C30827   5.230   0.072   3.799  1.0187  0.0325 -0.0624
  992MOL0     C30828   5.168  -0.027   3.901 -0.0930  0.5950  0.3807
  992MOL0     N30829   5.038  -0.077   3.853  0.0851  0.8010 -0.3214
  992MOL0     C30830   5.004  -0.215   3.861 -0.1849  1.6725 -0.2505
  992MOL0     C30831   4.872  -0.205   3.853  0.8069 -0.3809  0.1451
  992MOL0     C30832   4.774  -0.324   3.854 -0.2639 -0.1911 -0.7514
  992MOL0     C30833   4.679  -0.337   3.744 -0.4192  0.1785  0.7137
  992MOL0     C30834   4.549  -0.250   3.740  0.3471  0.6346  0.3314
  992MOL0     C30835   4.482  -0.235   3.875 -0.2399  0.7301  0.3213
  992MOL0     O30836   4.444  -0.364   3.928  0.1073 -0.3391  0.2527
  992MOL0     C30837   4.305  -0.393   3.925  0.3813  0.4313 -0.4688
  992MOL0     C30838   4.196  -0.299   3.921 -0.0325  0.0876 -0.2504
  992MOL0     C30839   4.066  -0.341   3.900 -0.2744  0.9166 -0.6055
  992MOL0     C30840   4.029  -0.478   3.881  0.2576 -0.7678 -0.1540
  992MOL0     C30841   3.886  -0.518   3.871 -0.2004  0.0840  0.5628
  992MOL0     O30842   3.863  -0.651   3.827 -0.0974 -0.1956  0.1747
  992MOL0     C30843   3.728  -0.695   3.819 -0.2362  0.0574 -0.9761
  992MOL0     C30844   3.624  -0.622   3.763  0.1741 -0.8350  0.2418
  992MOL0     C30845   3.495  -0.669   3.740 -0.5306 -0.3276  0.4747
  992MOL0     C30846   3.461  -0.797   3.782  0.8647 -0.4155  0.3684
  992MOL0     O30847   3.339  -0.863   3.770 -0.3230 -0.1347  0.1617
  992MOL0     C30848   3.243  -0.800   3.679  0.7787  0.3417  0.5237
  992MOL0     C30849   3.120  -0.890   3.641 -0.2904 -0.0764  1.0757
  992MOL0     C30850   3.057  -0.952   3.759 -0.2460  0.4511  0.4348
  992MOL0     C30851   2.970  -1.083   3.736 -0.0444  0.1430  0.5164
  992MOL0     C30852   2.843  -1.060   3.657 -0.5058 -0.6542  1.2680
  992MOL0     C30853   2.757  -1.183   3.643  0.5980 -0.2278 -0.1321
  992MOL0     C30854   2.797  -1.288   3.534  0.7492 -0.6113  0.2147
  992MOL0     C30855   2.682  -1.297   3.427  0.1275  0.4369 -0.4466
  992MOL0    Cl30856   2.678  -1.152   3.322 -0.4756  0.1384  0.4458
  992MOL0     C30857   3.560  -0.853   3.859  0.7701  0.7845 -0.5343
  992MOL0     C30858   3.690  -0.815   3.879 -0.2118 -0.4668 -0.4057
  992MOL0     O30859   3.797  -0.434   3.904  0.3709 -0.6232  0.3615
  992MOL0     C30860   4.140  -0.571   3.882 -0.3942  0.1013 -0.3900
  992MOL0     C30861   4.267  -0.526   3.912  0.2473  0.9436  0.0519
  992MOL0     N30862   4.825  -0.069   3.853 -0.9430  0.4330  0.7248
  992MOL0     N30863   4.930   0.001   3.857  0.2425 -1.1082  0.7287
  992MOL0     C30864   5.797   0.670   3.409  0.2443  0.0835  0.8445
  992MOL0     C30865   5.930   0.716   3.417 -0.8714  0.0246  0.7552
  992MOL0     C30866   6.390   0.668   3.378  0.2087  0.2985 -1.1162
  992MOL0     C30867   6.496   0.596   3.314  0.9613 -0.3200  0.0270
  992MOL0     C30868   6.629   0.649   3.309 -1.0507 -0.3029  1.0138
  992MOL0     C30869   6.645   0.782   3.358 -0.6849 -0.4408 -1.2544
  992MOL0     O30870   6.766   0.842   3.364 -0.1680 -1.2621  0.0274
  992MOL0     C30871   6.863   0.771   3.440 -0.6024  0.0900  0.1079
  992MOL0     C30872   7.009   0.805   3.398  0.0888 -0.3030  0.3825
  992MOL0     C30873   7.102   0.722   3.487  0.1396  0.0118  0.3215
  992MOL0     C30874   7.174   0.629   3.393 -0.5117  0.6476 -0.0225
  992MOL0     C30875   7.264   0.534   3.459 -0.1801  0.3681  0.1523
  992MOL0     C30876   7.346   0.458   3.505  0.0217  0.7537 -0.7960
  992MOL0     C30877   6.546   0.853   3.416  0.3912  0.5745 -0.3155
  992MOL0     C30878   6.425   0.795   3.441  0.2281  1.4261  0.7871
  992MOL0     H30879   6.082   0.462   3.560  0.0642 -0.6360 -1.5223
  992MOL0     H30880   5.839   0.382   3.573 -3.0583  0.8396 -0.4717
  992MOL0     H30881   5.492   0.628   3.397 -2.2795 -2.1425  0.1097
  992MOL0     H30882   5.557   0.695   3.549 -2.3731  0.2424  1.0723
  992MOL0     H30883   5.381   0.453   3.512  4.6003  0.0989 -0.7874
  992MOL0     H30884   5.318   0.616   3.542 -0.3538  0.5857 -1.9679
  992MOL0     H30885   5.447   0.621   3.761 -1.3279  1.5348 -2.8628
  992MOL0     H30886   5.521   0.463   3.713 -0.2360 -1.2730  1.0600
  992MOL0     H30887   5.322   0.462   3.887  1.2823  1.3983 -0.0329
  992MOL0     H30888   5.222   0.496   3.748 -1.5529 -1.4782  0.3523
  992MOL0     H30889   5.425   0.278   3.766  1.2650  2.8143  0.3657
  992MOL0     H30890   5.287   0.291   3.651 -3.6680  3.1335  0.8764
  992MOL0     H30891   5.126   0.264   3.849  1.0358  1.8750 -0.0836
  992MOL0     H30892   5.262   0.233   3.951  0.6318 -0.5660  0.6157
  992MOL0     H30893   5.192   0.064   3.697 -0.1885  2.7078  0.1000
  992MOL0     H30894   5.335   0.040   3.804  0.4836 -1.6956  1.2621
  992MOL0     H30895   5.157   0.013   4.002  2.5280  1.9836  0.2055
  992MOL0     H30896   5.239  -0.108   3.913  0.2019  1.0999  2.2824
  992MOL0     H30897   5.055  -0.310   3.869 -2.9579 -0.0126 -1.0881
  992MOL0     H30898   4.719  -0.321   3.948  0.5720 -1.7780 -0.1879
  992MOL0     H30899   4.842  -0.408   3.867 -0.1190  0.1018  0.5060
  992MOL0     H30900   4.646  -0.441   3.737 -1.7339  0.6790 -2.7172
  992MOL0     H30901   4.721  -0.333   3.643 -2.0364 -2.3506 -0.1651
  992MOL0     H30902   4.569  -0.153   3.693 -3.2361  0.0657 -2.9451
  992MOL0     H30903   4.480  -0.299   3.670 -0.4823  1.5666  0.4747
  992MOL0     H30904   4.393  -0.176   3.849 -0.2033  0.4606 -0.4279
  992MOL0     H30905   4.548  -0.182   3.944  2.5463  0.8608 -2.2705
  992MOL0     H30906   4.214  -0.192   3.923  0.0935  0.0666 -0.2784
  992MOL0     H30907   3.993  -0.261   3.905  0.3939  1.4995  0.1297
  992MOL0     H30908   3.662  -0.532   3.714 -0.4818 -1.7820 -2.1547
  992MOL0     H30909   3.423  -0.605   3.689  1.0042 -0.2040 -1.6259
  992MOL0     H30910   3.286  -0.773   3.582  3.3743 -0.3047  1.4017
  992MOL0     H30911   3.209  -0.705   3.722  1.7009  1.7868 -1.7124
  992MOL0     H30912   3.158  -0.965   3.570  1.4157  3.4932 -2.1226
  992MOL0     H30913   3.054  -0.826   3.581 -0.3169 -2.8803 -2.2346
  992MOL0     H30914   2.990  -0.881   3.808 -1.1719 -0.6903  0.8717
  992MOL0     H30915   3.140  -0.976   3.826 -0.9688  2.5659  2.2234
  992MOL0     H30916   3.031  -1.169   3.706 -2.0991 -1.3033  0.2378
  992MOL0     H30917   2.936  -1.107   3.837  3.5214 -1.9136  1.3712
  992MOL0     H30918   2.879  -1.022   3.561 -1.7088  0.0675  1.0904
  992MOL0     H30919   2.792  -0.976   3.704  1.7336  1.5945 -0.0964
  992MOL0     H30920   2.657  -1.149   3.615  1.9140  2.6489 -1.9332
  992MOL0     H30921   2.756  -1.227   3.743  1.7864 -0.0375 -0.0201
  992MOL0     H30922   2.896  -1.289   3.486  0.4138 -1.0543 -0.4992
  992MOL0     H30923   2.791  -1.383   3.588 -1.2032 -0.3450  0.5358
  992MOL0     H30924   2.585  -1.307   3.476  0.4206 -0.0200  0.0436
  992MOL0     H30925   2.695  -1.382   3.359  0.7854  0.8687 -0.8671
  992MOL0     H30926   3.530  -0.940   3.917  1.6060  0.7623 -0.1190
  992MOL0     H30927   3.753  -0.874   3.945 -0.0975 -1.1628 -1.1194
  992MOL0     H30928   4.115  -0.676   3.867  2.2856 -1.0509  2.1534
  992MOL0     H30929   4.347  -0.597   3.927 -0.6237  0.4545  2.9564
  992MOL0     H30930   5.725   0.736   3.363  1.3761 -0.1628 -1.4351
  992MOL0     H30931   5.960   0.812   3.377  0.2290  0.0079  1.4934
  992MOL0     H30932   6.479   0.502   3.261 -1.4993  0.5377 -0.8815
  992MOL0     H30933   6.712   0.596   3.264 -0.0455  0.3624  2.0356
  992MOL0     H30934   6.852   0.663   3.430  1.3742 -0.1969  0.6995
  992MOL0     H30935   6.848   0.811   3.541 -1.1801  0.7144 -0.2133
  992MOL0     H30936   7.012   0.785   3.291 -0.1215 -2.5790  0.7516
  992MOL0     H30937   7.035   0.909   3.421  3.1671 -0.9453  0.2142
  992MOL0     H30938   7.055   0.666   3.568  1.6065 -1.9172 -0.0996
  992MOL0     H30939   7.177   0.793   3.523  1.3073  0.5119 -2.7239
  992MOL0     H30940   7.099   0.570   3.340 -0.5125  0.3931  0.2601
  992MOL0     H30941   7.235   0.678   3.317 -0.1540 -0.0876 -0.2093
  992MOL0     H30942   7.429   0.404   3.547  0.9039  1.8636 -1.0489
  992MOL0     H30943   6.559   0.945   3.471 -0.4799 -0.0639  1.0345
  992MOL0     H30944   6.357   0.857   3.500 -2.0102 -1.6333  1.6906
  993MOL0     O30945   3.748   1.603   5.521  1.5012  0.2511  0.0484
  993MOL0     C30946   3.672   1.704   5.524 -0.7071  0.2673 -0.1202
  993MOL0     O30947   3.713   1.826   5.482 -0.1708  0.5272  0.4278
  993MOL0     C30948   3.837   1.859   5.459 -0.2360  0.3748  0.2542
  993MOL0     C30949   3.946   1.833   5.550  0.0655  0.3324  0.7789
  993MOL0     C30950   4.077   1.868   5.515 -0.4862 -0.4883 -0.3431
  993MOL0     C30951   4.099   1.951   5.411  0.2229 -0.1432 -0.1578
  993MOL0     O30952   4.216   1.997   5.361  0.7394  0.4974 -0.9630
  993MOL0     C30953   4.338   1.975   5.441  0.0941 -0.5141  0.1001
  993MOL0     C30954   4.456   2.028   5.364  0.1084 -0.7436 -0.1564
  993MOL0     C30955   4.585   2.006   5.433 -0.6730 -0.7045  0.3486
  993MOL0     C30956   4.688   2.114   5.386  0.4605  0.1802  0.6378
  993MOL0     C30957   4.802   2.155   5.484 -0.3959 -0.0257  0.4762
  993MOL0     C30958   4.885   2.043   5.530 -0.0229  0.2978 -0.1366
  993MOL0     C30959   4.995   2.102   5.620  0.1792 -1.4164  0.1301
  993MOL0     C30960   5.098   2.174   5.543  0.4749  0.0971  0.9630
  993MOL0     N30961   5.208   2.089   5.505 -0.7988 -0.3619  0.1410
  993MOL0     C30962   5.229   2.034   5.383 -0.7843 -1.1314  0.3948
  993MOL0     C30963   5.331   1.945   5.400  0.7958 -0.4396  0.0662
  993MOL0     C30964   5.393   1.873   5.281 -0.6877  0.4610  0.0522
  993MOL0     C30965   5.520   1.796   5.327  0.3017 -0.2183 -0.1486
  993MOL0     C30966   5.608   1.744   5.211 -0.2423  0.1648 -0.0028
  993MOL0     C30967   5.539   1.631   5.130  0.1528 -1.2588  0.5294
  993MOL0     O30968   5.451   1.701   5.033  0.3702  0.4705 -0.3204
  993MOL0     C30969   5.332   1.636   5.002  0.3777  0.5671  0.5557
  993MOL0     C30970   5.306   1.496   5.010 -0.1903 -0.4847  0.7516
  993MOL0     C30971   5.183   1.447   4.955  0.4317  0.9540 -0.2362
  993MOL0     C30972   5.086   1.539   4.897  0.2634  1.4006 -0.2574
  993MOL0     C30973   4.963   1.490   4.819 -0.0769 -0.2358 -0.0498
  993MOL0     O30974   4.974   1.364   4.772 -0.0004  0.1227 -0.5817
  993MOL0     C30975   4.872   1.304   4.696 -0.5311 -0.3586 -0.8589
  993MOL0     C30976   4.781   1.239   4.771  0.0952 -0.3672  0.5468
  993MOL0     C30977   4.673   1.175   4.708  0.2544  0.7218  0.5407
  993MOL0     C30978   4.673   1.173   4.565  0.4180 -0.0599  0.4344
  993MOL0     O30979   4.560   1.117   4.499 -0.0238  0.3177  0.9057
  993MOL0     C30980   4.542   1.167   4.366  0.4921 -0.2735  0.9677
  993MOL0     C30981   4.411   1.124   4.308  0.6072 -0.7809 -0.2566
  993MOL0     C30982   4.397   0.972   4.302  1.1128  0.3621  0.1863
  993MOL0     C30983   4.284   0.907   4.216  0.0933 -0.0321  0.0845
  993MOL0     C30984   4.262   0.761   4.249 -0.1669 -0.0490  0.0841
  993MOL0     C30985   4.178   0.691   4.135  0.2981 -0.3703  0.7565
  993MOL0     C30986   4.044   0.778   4.114  0.9356 -0.6889 -0.7184
  993MOL0     C30987   3.925   0.695   4.090  0.7724 -0.5142  0.4472
  993MOL0    Cl30988   3.927   0.668   3.915 -0.1465  0.2425  0.4244
  993MOL0     C30989   4.777   1.228   4.492  0.3964  0.7464 -0.3013
  993MOL0     C30990   4.879   1.286   4.561  0.2114 -0.1582  1.1060
  993MOL0     O30991   4.870   1.565   4.790 -0.6955  0.1624  0.4492
  993MOL0     C30992   5.114   1.676   4.901 -0.6411 -0.3803 -0.4823
  993MOL0     C30993   5.243   1.721   4.939  0.2013  0.7593 -0.3599
  993MOL0     N30994   5.377   1.960   5.530 -1.0749 -0.2992 -0.2416
  993MOL0     N30995   5.293   2.034   5.597  0.6246 -0.0051  0.2895
  993MOL0     C30996   3.994   1.979   5.319 -0.1231  0.2612  1.1256
  993MOL0     C30997   3.859   1.933   5.343 -0.3509  0.1801 -0.7132
  993MOL0     C30998   3.532   1.683   5.565 -0.2068  0.0486  0.1779
  993MOL0     C30999   3.486   1.561   5.623 -0.3352 -0.4857  0.5749
  993MOL0     C31000   3.359   1.531   5.657 -0.5223 -1.0890  0.3742
  993MOL0     C31001   3.262   1.629   5.648 -0.2627 -1.2147  0.4400
  993MOL0     O31002   3.135   1.586   5.687  0.7166  0.1013 -0.1339
  993MOL0     C31003   3.034   1.695   5.707 -0.9354 -0.9149  0.7137
  993MOL0     C31004   2.948   1.651   5.823  0.3595 -0.1553 -0.3868
  993MOL0     C31005   2.865   1.525   5.808 -0.0473  0.1273  0.6115
  993MOL0     C31006   2.786   1.503   5.934  0.6430 -0.2446 -0.3078
  993MOL0     C31007   2.675   1.401   5.908 -0.2452 -0.8269 -0.0882
  993MOL0     C31008   2.597   1.314   5.883 -0.0879  0.7161 -0.0333
  993MOL0     C31009   3.300   1.758   5.603  0.1665  0.8950 -0.5383
  993MOL0     C31010   3.435   1.792   5.563 -0.3270  0.6614  0.5646
  993MOL0     H31011   3.919   1.786   5.644  1.0593 -0.3947  0.7189
  993MOL0     H31012   4.159   1.837   5.579 -0.6200  2.2265  1.2949
  993MOL0     H31013   4.354   1.867   5.449 -1.4724 -0.6990  1.5390
  993MOL0     H31014   4.316   2.024   5.536 -2.4114  1.3457 -1.3051
  993MOL0     H31015   4.452   2.135   5.339  0.7362  0.2531  3.4890
  993MOL0     H31016   4.465   1.973   5.270  3.8116  1.1089 -1.0739
  993MOL0     H31017   4.630   1.907   5.423  1.1176  0.2006 -1.6764
  993MOL0     H31018   4.581   2.028   5.540 -4.0127  1.4297 -0.0805
  993MOL0     H31019   4.732   2.073   5.295 -2.3456 -1.1634 -0.2245
  993MOL0     H31020   4.627   2.197   5.348 -0.6992 -0.0828  1.8411
  993MOL0     H31021   4.760   2.190   5.579 -3.2079 -1.0674 -0.2816
  993MOL0     H31022   4.855   2.235   5.433 -1.8234  0.9679  0.4803
  993MOL0     H31023   4.917   1.979   5.448 -1.7477 -0.3761 -0.3306
  993MOL0     H31024   4.841   1.969   5.598  0.7524  1.4058  1.6666
  993MOL0     H31025   4.944   2.175   5.684 -0.5164 -0.9064 -0.9899
  993MOL0     H31026   5.052   2.025   5.673  0.2677 -1.9280 -0.6995
  993MOL0     H31027   5.140   2.256   5.603  0.9314  1.1788 -0.7440
  993MOL0     H31028   5.047   2.220   5.458 -1.2711 -1.8514  0.9016
  993MOL0     H31029   5.177   2.053   5.289  3.2919  1.0645 -1.6833
  993MOL0     H31030   5.425   1.950   5.211 -1.4122  0.1553 -0.6279
  993MOL0     H31031   5.334   1.800   5.225  0.2034  0.6653 -1.1965
  993MOL0     H31032   5.493   1.720   5.400 -1.3504 -3.1895 -3.5286
  993MOL0     H31033   5.573   1.883   5.368 -2.0462  0.9691  0.5424
  993MOL0     H31034   5.623   1.827   5.142  0.7720  1.8141  2.0679
  993MOL0     H31035   5.705   1.711   5.250 -0.1586 -3.7751 -2.9437
  993MOL0     H31036   5.481   1.559   5.189 -2.0430 -0.3325 -0.3663
  993MOL0     H31037   5.616   1.576   5.076 -0.6773  0.2259 -2.4032
  993MOL0     H31038   5.382   1.425   5.041  1.9574  1.1371 -0.4973
  993MOL0     H31039   5.152   1.347   4.983 -0.6626  1.6334  1.1404
  993MOL0     H31040   4.774   1.247   4.879  0.4634  1.0040  0.4916
  993MOL0     H31041   4.598   1.120   4.763 -0.0008 -0.0828 -0.5780
  993MOL0     H31042   4.624   1.142   4.298  0.7843  0.2744  1.1124
  993MOL0     H31043   4.536   1.276   4.377  0.7237 -0.0457 -0.8342
  993MOL0     H31044   4.406   1.159   4.205  1.2405  1.7233  0.5087
  993MOL0     H31045   4.324   1.168   4.358  0.3180 -0.6347 -0.8826
  993MOL0     H31046   4.376   0.948   4.406  2.2467 -0.6613  0.2013
  993MOL0     H31047   4.496   0.930   4.283  1.5226  0.4993  1.8800
  993MOL0     H31048   4.192   0.965   4.226 -0.2376 -0.5454  0.0649
  993MOL0     H31049   4.315   0.911   4.111 -0.6787  2.4409 -0.1098
  993MOL0     H31050   4.213   0.763   4.346 -0.5856 -1.3098 -0.0789
  993MOL0     H31051   4.355   0.711   4.277 -0.5852 -0.3538  0.9553
  993MOL0     H31052   4.157   0.592   4.176  4.7077 -1.7296  0.2006
  993MOL0     H31053   4.234   0.684   4.042  0.7261  0.5040  0.9354
  993MOL0     H31054   4.031   0.838   4.204  2.9770 -1.2025 -0.0174
  993MOL0     H31055   4.066   0.851   4.036  2.3731 -2.4055 -2.0000
  993MOL0     H31056   3.832   0.748   4.112  1.1908  0.5928 -0.3438
  993MOL0     H31057   3.931   0.606   4.153 -1.1801 -0.9966  0.0107
  993MOL0     H31058   4.782   1.220   4.383  0.7057  0.2465 -0.2551
  993MOL0     H31059   4.967   1.317   4.506  1.7536 -3.0598  1.7213
  993MOL0     H31060   5.042   1.752   4.875  0.0879  0.9945  1.2720
  993MOL0     H31061   5.262   1.826   4.918  0.8267  1.1061  1.7410
  993MOL0     H31062   4.015   2.044   5.234  2.3373 -2.4896 -0.5772
  993MOL0     H31063   3.771   1.951   5.282 -0.8978 -0.9289 -0.2904
  993MOL0     H31064   3.556   1.478   5.633 -2.0724 -2.1375 -0.2359
  993MOL0     H31065   3.335   1.439   5.708 -3.1482 -0.1126  1.0671
  993MOL0     H31066   2.982   1.719   5.614  0.1121  1.0761  0.5872
  993MOL0     H31067   3.093   1.780   5.742 -0.7874  0.1632 -1.9733
  993MOL0     H31068   3.019   1.626   5.903  0.4472 -0.0009 -0.4155
  993MOL0     H31069   2.889   1.736   5.858  1.6747  0.7246 -0.2177
  993MOL0     H31070   2.930   1.445   5.769  2.4835  2.4972 -0.4021
  993MOL0     H31071   2.790   1.553   5.734 -0.5687 -0.0320  1.0757
  993MOL0     H31072   2.852   1.462   6.012 -0.7742 -0.5175  0.7956
  993MOL0     H31073   2.740   1.597   5.966  1.3778 -0.0360  0.1634
  993MOL0     H31074   2.527   1.243   5.843 -0.5783  0.1784  1.7250
  993MOL0     H31075   3.225   1.834   5.585  0.2649  1.1281  0.0159
  993MOL0     H31076   3.465   1.888   5.524  2.3850 -0.3351 -0.0178
  994MOL0     O31077   7.323   0.070   6.295  0.2175  0.4173 -0.2286
  994MOL0     C31078   7.402  -0.013   6.334 -0.1041 -0.4451 -0.5499
  994MOL0     O31079   7.405  -0.063   6.467  0.7838 -0.7052  0.0364
  994MOL0     C31080   7.313  -0.027   6.555 -0.2738 -0.6919 -0.5407
  994MOL0     C31081   7.283  -0.128   6.655  0.4910 -0.4347 -0.3470
  994MOL0     C31082   7.181  -0.111   6.749  0.2004 -0.7240 -0.4603
  994MOL0     C31083   7.104   0.004   6.756 -0.3864  0.1957 -0.7538
  994MOL0     O31084   7.009  -0.001   6.851 -0.2366 -0.2571 -0.3117
  994MOL0     C31085   6.902   0.100   6.851  0.1767  0.7634  1.2958
  994MOL0     C31086   6.792   0.038   6.940 -0.5344 -0.2294  0.1109
  994MOL0     C31087   6.694   0.141   6.972  0.5645  0.3462 -0.6877
  994MOL0     C31088   6.590   0.084   7.076  0.3561  0.5847 -0.3587
  994MOL0     C31089   6.481   0.181   7.098  0.3172 -0.3779  0.5693
  994MOL0     C31090   6.348   0.131   7.158 -0.4915 -0.5654  0.6438
  994MOL0     C31091   6.364   0.054   7.291  0.8642  0.3040  0.6491
  994MOL0     C31092   6.401   0.132   7.415  0.6730  0.1606 -0.1820
  994MOL0     N31093   6.291   0.210   7.467 -0.1097 -0.1664 -0.5645
  994MOL0     C31094   6.184   0.147   7.533 -0.1301 -0.4872 -0.9335
  994MOL0     C31095   6.103   0.243   7.576 -0.1344  0.7682  0.4590
  994MOL0     C31096   5.977   0.241   7.645 -0.2722  0.7773 -0.1850
  994MOL0     C31097   5.855   0.319   7.578  0.0629  1.0677 -0.3917
  994MOL0     C31098   5.819   0.299   7.432 -0.6155 -0.2228  0.8020
  994MOL0     C31099   5.745   0.175   7.410 -0.0143  0.1098  0.9716
  994MOL0     O31100   5.727   0.164   7.269  0.4267 -0.0978 -0.0259
  994MOL0     C31101   5.802   0.106   7.177  0.4728  0.3346 -0.4613
  994MOL0     C31102   5.925   0.063   7.214  0.3821  0.2906 -0.2294
  994MOL0     C31103   6.006   0.008   7.123 -0.5600  0.0426 -0.6499
  994MOL0     C31104   5.965  -0.006   6.990  0.3511 -0.4983  0.4426
  994MOL0     C31105   6.059  -0.058   6.888 -0.2995  0.0951 -0.4812
  994MOL0     O31106   6.167  -0.106   6.945 -0.3289  0.2538  0.1243
  994MOL0     C31107   6.251  -0.185   6.857  0.1350 -0.0749 -1.0580
  994MOL0     C31108   6.211  -0.310   6.807  0.3105 -0.1826  1.0261
  994MOL0     C31109   6.304  -0.380   6.734  0.3686  0.2966  0.6239
  994MOL0     C31110   6.437  -0.342   6.723 -0.2952  0.1969  0.4236
  994MOL0     O31111   6.523  -0.444   6.677 -0.2408  0.1996  0.4058
  994MOL0     C31112   6.655  -0.417   6.625  0.7105  0.3169 -0.3464
  994MOL0     C31113   6.714  -0.532   6.556 -0.3638 -0.4532  0.9475
  994MOL0     C31114   6.830  -0.485   6.464 -0.4418 -0.2176 -0.2729
  994MOL0     C31115   6.878  -0.616   6.410 -1.5693  1.1027 -0.1495
  994MOL0     C31116   6.964  -0.595   6.283 -0.8707 -0.3020  0.7929
  994MOL0     C31117   7.040  -0.719   6.246 -1.0846 -0.1485 -0.0834
  994MOL0     C31118   7.106  -0.708   6.115 -0.6363 -0.0850  0.2929
  994MOL0     C31119   7.213  -0.813   6.101 -0.4956 -0.0734 -1.0525
  994MOL0    Cl31120   7.175  -0.939   5.972 -0.1731  0.2860 -0.1888
  994MOL0     C31121   6.482  -0.221   6.764 -0.6135  0.1621 -1.1082
  994MOL0     C31122   6.383  -0.144   6.831 -0.2385  0.0912  0.1383
  994MOL0     O31123   6.022  -0.068   6.775 -0.1475 -0.5458 -0.5155
  994MOL0     C31124   5.841   0.056   6.951 -0.2706  0.2521 -0.3719
  994MOL0     C31125   5.752   0.106   7.049 -0.5131 -0.7087  0.2469
  994MOL0     N31126   6.159   0.358   7.536 -0.5493 -0.0348 -0.4378
  994MOL0     N31127   6.268   0.343   7.471 -0.0682  0.8310  0.5809
  994MOL0     C31128   7.139   0.106   6.670  0.5882 -0.0798  0.2557
  994MOL0     C31129   7.236   0.092   6.573 -0.0374  0.4484 -0.3432
  994MOL0     C31130   7.519  -0.054   6.240  0.5857 -0.9911 -0.9709
  994MOL0     C31131   7.503  -0.018   6.113  0.1600 -0.5136  0.6672
  994MOL0     C31132   7.610  -0.037   6.018  0.5675 -0.8294  0.4130
  994MOL0     C31133   7.732  -0.094   6.066 -0.1451 -0.5697 -0.1315
  994MOL0     O31134   7.844  -0.127   6.002 -0.5013 -0.3405  0.9387
  994MOL0     C31135   7.839  -0.109   5.860  0.6195  0.6253  0.2535
  994MOL0     C31136   7.954  -0.161   5.776 -0.4837  0.0417  1.4140
  994MOL0     C31137   7.916  -0.195   5.630 -0.2101  0.3790  0.6365
  994MOL0     C31138   8.044  -0.190   5.537  0.6418 -0.0269  0.2864
  994MOL0     C31139   8.097  -0.053   5.538  0.1711  0.2548 -0.6648
  994MOL0     C31140   8.152   0.051   5.560  0.0116  0.5556  0.5586
  994MOL0     C31141   7.740  -0.135   6.202  0.2749 -0.2712  0.0333
  994MOL0     C31142   7.634  -0.105   6.290  0.9187  0.7702  0.1258
  994MOL0     H31143   7.350  -0.212   6.668  1.2246 -0.6214 -4.1324
  994MOL0     H31144   7.157  -0.188   6.821  1.1200  0.6948  1.4482
  994MOL0     H31145   6.875   0.108   6.745  4.5252 -0.8765 -0.1658
  994MOL0     H31146   6.937   0.200   6.877 -2.6612  2.4473 -0.7964
  994MOL0     H31147   6.846   0.006   7.029 -0.4499 -3.3267 -0.9110
  994MOL0     H31148   6.756  -0.049   6.883  2.2712 -1.5675  0.2367
  994MOL0     H31149   6.652   0.180   6.879 -0.0685  1.1071 -0.0981
  994MOL0     H31150   6.740   0.227   7.020  1.2950 -0.4764  0.1187
  994MOL0     H31151   6.548  -0.007   7.033 -0.8983  0.4413  1.0704
  994MOL0     H31152   6.633   0.049   7.171 -1.2476  1.1082  0.6019
  994MOL0     H31153   6.447   0.226   7.005  1.6752  0.8799  0.6456
  994MOL0     H31154   6.515   0.265   7.159 -1.4487  0.7273  0.0966
  994MOL0     H31155   6.317   0.047   7.095  2.1143 -2.7554  2.0885
  994MOL0     H31156   6.268   0.205   7.167 -1.4785 -1.5789  0.5246
  994MOL0     H31157   6.268   0.005   7.308 -0.5491  2.7145  0.0450
  994MOL0     H31158   6.434  -0.030   7.289  0.8489  0.2671  1.5219
  994MOL0     H31159   6.485   0.199   7.394  0.1653  0.4676 -1.3504
  994MOL0     H31160   6.427   0.073   7.503 -2.9941  0.7442  1.5156
  994MOL0     H31161   6.171   0.043   7.561 -1.6227  0.4064  2.1408
  994MOL0     H31162   5.992   0.289   7.743  2.5878 -0.2935 -0.0070
  994MOL0     H31163   5.953   0.138   7.672  3.4098 -0.2416 -0.2515
  994MOL0     H31164   5.858   0.426   7.600 -0.5820  1.3060 -1.4085
  994MOL0     H31165   5.771   0.283   7.639 -0.6911  0.3656 -1.8004
  994MOL0     H31166   5.755   0.383   7.404 -1.7840 -1.4684 -0.4086
  994MOL0     H31167   5.906   0.306   7.367 -0.9318 -2.0387  0.1148
  994MOL0     H31168   5.647   0.180   7.458 -0.5532 -0.7133 -0.0111
  994MOL0     H31169   5.805   0.090   7.445 -0.3637  0.0526  1.4362
  994MOL0     H31170   5.960   0.067   7.316  1.1773  2.4950 -0.5333
  994MOL0     H31171   6.099  -0.040   7.153 -1.1565 -0.8646 -0.2088
  994MOL0     H31172   6.111  -0.352   6.806  0.1618  0.1634 -0.3266
  994MOL0     H31173   6.281  -0.476   6.689  0.6014  0.0645  0.9933
  994MOL0     H31174   6.727  -0.382   6.699  2.0259 -0.6984 -1.0969
  994MOL0     H31175   6.628  -0.335   6.559 -1.1508  0.2111  0.2309
  994MOL0     H31176   6.641  -0.593   6.502  0.4987 -2.1193  1.5937
  994MOL0     H31177   6.756  -0.603   6.627 -0.5532  0.3587  1.8962
  994MOL0     H31178   6.909  -0.435   6.522 -0.8780 -0.6578  0.7284
  994MOL0     H31179   6.793  -0.419   6.386  0.8170 -0.2354 -0.9163
  994MOL0     H31180   6.928  -0.686   6.477  0.7985 -0.3924 -3.2674
  994MOL0     H31181   6.790  -0.677   6.389 -1.7550  0.8480  1.2605
  994MOL0     H31182   7.030  -0.509   6.302 -3.1743  1.7117  0.1488
  994MOL0     H31183   6.908  -0.562   6.195  0.3629  0.0402  0.1116
  994MOL0     H31184   6.960  -0.793   6.249  0.3452 -1.7462  3.5942
  994MOL0     H31185   7.109  -0.749   6.324 -0.2913  0.4767 -0.5282
  994MOL0     H31186   7.035  -0.725   6.034 -0.3525  1.4572 -0.3095
  994MOL0     H31187   7.157  -0.612   6.106 -0.6915  0.0306  1.1142
  994MOL0     H31188   7.236  -0.859   6.198 -2.9983  1.2385  0.2938
  994MOL0     H31189   7.303  -0.766   6.061 -0.7439  0.7839 -0.6269
  994MOL0     H31190   6.583  -0.183   6.751 -1.2390  2.0439 -0.6922
  994MOL0     H31191   6.414  -0.049   6.874  1.1494 -0.2782 -0.0036
  994MOL0     H31192   5.809   0.056   6.848 -0.1770  0.9161 -0.4038
  994MOL0     H31193   5.655   0.148   7.026  0.0313  0.0878 -0.6428
  994MOL0     H31194   7.076   0.194   6.674 -0.4078 -0.5677 -2.3015
  994MOL0     H31195   7.254   0.179   6.510  0.3415 -0.7566 -1.9454
  994MOL0     H31196   7.409   0.018   6.071 -1.2869 -0.3380  3.7835
  994MOL0     H31197   7.599   0.006   5.919  1.7345 -2.0949 -0.2953
  994MOL0     H31198   7.813  -0.008   5.827 -1.0333 -0.5672 -2.4663
  994MOL0     H31199   7.749  -0.157   5.821  1.1709  0.2949 -0.6559
  994MOL0     H31200   8.032  -0.085   5.782 -1.4137  1.2576 -0.8613
  994MOL0     H31201   7.994  -0.254   5.820 -3.8332 -2.0646  0.3566
  994MOL0     H31202   7.850  -0.120   5.584 -1.5784 -0.6623  0.8579
  994MOL0     H31203   7.868  -0.293   5.626 -1.7851  1.1505 -0.3078
  994MOL0     H31204   8.114  -0.263   5.579  0.1961 -0.9665 -0.5571
  994MOL0     H31205   8.035  -0.238   5.439  0.8186 -2.1040  1.2294
  994MOL0     H31206   8.202   0.146   5.563 -1.1085  1.1962 -0.5651
  994MOL0     H31207   7.829  -0.184   6.239  1.4069  1.2908 -0.4985
  994MOL0     H31208   7.643  -0.121   6.397 -1.3940  0.2151  0.2899
  995MOL0     O31209   3.801   5.201   9.887  1.2519 -0.0573 -0.1714
  995MOL0     C31210   3.683   5.213   9.928 -0.2611 -0.0549  0.3859
  995MOL0     O31211   3.648   5.219  10.059  0.8042  0.8085 -0.0918
  995MOL0     C31212   3.731   5.166  10.157  0.1920  0.8019  0.0921
  995MOL0     C31213   3.848   5.086  10.136 -0.3516  0.2015 -0.2176
  995MOL0     C31214   3.908   5.015  10.237 -0.3440  1.0348  0.5351
  995MOL0     C31215   3.871   5.048  10.370 -0.2736 -0.0034  0.4702
  995MOL0     O31216   3.950   5.002  10.475  0.5660 -0.0591 -0.5433
  995MOL0     C31217   4.075   5.069  10.496  0.4942 -0.0034  0.4300
  995MOL0     C31218   4.174   5.000  10.585 -0.8857 -0.5514 -0.1311
  995MOL0     C31219   4.196   5.070  10.720 -0.3214 -0.9935  0.3830
  995MOL0     C31220   4.271   4.968  10.813 -0.8771 -0.2059 -0.5991
  995MOL0     C31221   4.287   5.026  10.960 -0.3705  0.0179 -0.4249
  995MOL0     C31222   4.150   5.090  11.011 -0.4386 -0.2847  0.3717
  995MOL0     C31223   4.148   5.111  11.162  1.0758  0.7284 -0.8218
  995MOL0     C31224   4.024   5.188  11.211 -0.1082  0.9102 -0.5990
  995MOL0     N31225   3.897   5.116  11.179 -0.2149  0.1120 -0.1160
  995MOL0     C31226   3.818   5.141  11.075 -0.2724  0.0229 -0.4912
  995MOL0     C31227   3.720   5.045  11.086 -0.9019 -0.6552 -0.4098
  995MOL0     C31228   3.618   5.028  10.988  0.2067 -0.3387  1.0012
  995MOL0     C31229   3.550   5.158  10.955  0.4418 -0.4133 -0.2571
  995MOL0     C31230   3.425   5.140  10.861  0.1854 -0.6118  0.0547
  995MOL0     C31231   3.397   5.266  10.777  0.1103 -0.6444  0.6226
  995MOL0     O31232   3.489   5.275  10.673 -0.6052 -0.0126  0.6924
  995MOL0     C31233   3.427   5.300  10.550 -0.6630  0.9152 -0.8993
  995MOL0     C31234   3.391   5.428  10.522  1.0825 -0.1789  0.3331
  995MOL0     C31235   3.317   5.456  10.403  0.9364 -0.8694 -0.1212
  995MOL0     C31236   3.278   5.350  10.320  0.8216  0.5147 -0.7305
  995MOL0     C31237   3.191   5.364  10.194  0.3726 -0.1966 -0.0979
  995MOL0     O31238   3.148   5.494  10.180  0.8783  0.3823  0.1588
  995MOL0     C31239   3.085   5.531  10.064  1.0545  0.6137 -0.7110
  995MOL0     C31240   3.065   5.672  10.054 -0.3644 -0.3805  0.9096
  995MOL0     C31241   3.016   5.734   9.929  1.1224  0.1105 -0.3486
  995MOL0     C31242   2.962   5.647   9.835 -0.4306 -0.0127  0.2132
  995MOL0     O31243   2.941   5.689   9.709  0.0626  0.0696  0.9538
  995MOL0     C31244   3.020   5.784   9.640  0.1585 -0.7077 -0.4246
  995MOL0     C31245   3.164   5.731   9.613  0.5165 -0.7876  0.2642
  995MOL0     C31246   3.250   5.722   9.735  0.3071  0.1786 -0.1418
  995MOL0     C31247   3.402   5.689   9.698 -0.1446 -0.0898  0.9649
  995MOL0     C31248   3.515   5.695   9.808 -0.7648 -0.1637  0.4973
  995MOL0     C31249   3.464   5.691   9.953 -0.2668  0.4172  1.2517
  995MOL0     C31250   3.576   5.702  10.054 -0.1124  0.4899 -0.8575
  995MOL0     C31251   3.551   5.674  10.205  0.2629 -0.1087 -0.2525
  995MOL0    Cl31252   3.391   5.741  10.249  0.2901  0.3575 -0.0254
  995MOL0     C31253   2.962   5.504   9.845  0.2769 -0.7587  0.1212
  995MOL0     C31254   3.022   5.452   9.961  0.3954 -0.4003 -0.0706
  995MOL0     O31255   3.188   5.272  10.115  0.0662  0.7337  0.1041
  995MOL0     C31256   3.325   5.224  10.349  0.3324 -0.0548 -0.5189
  995MOL0     C31257   3.402   5.196  10.460  0.4127 -0.6437 -0.0299
  995MOL0     N31258   3.750   4.980  11.208  1.4118 -0.4909 -0.2491
  995MOL0     N31259   3.853   5.017  11.258  0.3407 -0.2831  0.5874
  995MOL0     C31260   3.749   5.123  10.396  0.0357 -0.2618  0.1199
  995MOL0     C31261   3.693   5.190  10.287  0.4944  0.0827 -0.0667
  995MOL0     C31262   3.570   5.230   9.832 -0.2368 -1.3547  0.5261
  995MOL0     C31263   3.447   5.294   9.873 -0.0109  0.2195 -0.9583
  995MOL0     C31264   3.347   5.328   9.779 -0.3962 -0.7391 -0.2618
  995MOL0     C31265   3.359   5.276   9.655 -0.7854  0.0446 -0.4862
  995MOL0     O31266   3.249   5.289   9.581  0.7679 -0.2540 -0.0820
  995MOL0     C31267   3.258   5.299   9.440 -0.9137 -0.3544 -0.1936
  995MOL0     C31268   3.136   5.376   9.400 -0.8933  0.8064 -0.2890
  995MOL0     C31269   3.136   5.384   9.249 -0.7356 -0.0268 -0.0743
  995MOL0     C31270   3.135   5.244   9.171  0.3809  1.0386 -0.4582
  995MOL0     C31271   3.026   5.154   9.198  0.6167 -0.0579  0.2499
  995MOL0     C31272   2.946   5.065   9.222  0.0899 -0.4329 -1.1946
  995MOL0     C31273   3.473   5.209   9.611  0.5091 -0.2610  0.1919
  995MOL0     C31274   3.583   5.188   9.702  1.2889  0.9459  1.1752
  995MOL0     H31275   3.891   5.056  10.041  2.2602 -2.8973  1.7328
  995MOL0     H31276   3.978   4.934  10.216 -1.1589  0.3948  0.2213
  995MOL0     H31277   4.068   5.167  10.546  0.5690 -0.0583  0.5491
  995MOL0     H31278   4.121   5.084  10.398 -1.2166  0.5624 -0.3279
  995MOL0     H31279   4.268   4.994  10.529 -1.3648  0.0513 -1.0221
  995MOL0     H31280   4.142   4.899  10.614 -0.4903 -0.1713  1.7449
  995MOL0     H31281   4.100   5.104  10.760 -0.1669 -2.2176  1.9129
  995MOL0     H31282   4.249   5.163  10.698 -0.8817 -0.7472  0.0443
  995MOL0     H31283   4.209   4.877  10.816 -0.0895 -0.7862  2.8071
  995MOL0     H31284   4.371   4.965  10.770  0.7098  2.6129  2.4631
  995MOL0     H31285   4.362   5.105  10.952  0.6859 -1.0489 -1.4913
  995MOL0     H31286   4.320   4.951  11.033  2.5636  1.7729  0.2253
  995MOL0     H31287   4.067   5.034  10.966 -1.4004 -0.2900  2.0784
  995MOL0     H31288   4.140   5.188  10.962 -0.8313  0.2662  1.5292
  995MOL0     H31289   4.154   5.013  11.211  1.6341  1.9300  1.6816
  995MOL0     H31290   4.233   5.175  11.186  0.1921  1.0359  1.8465
  995MOL0     H31291   4.028   5.285  11.161 -4.4341  0.6172 -1.9451
  995MOL0     H31292   4.031   5.193  11.320 -2.8399 -1.8763 -0.1572
  995MOL0     H31293   3.833   5.211  10.993 -0.7244  0.2620 -0.3777
  995MOL0     H31294   3.540   4.964  11.028  0.8441  0.3417  3.5118
  995MOL0     H31295   3.666   4.990  10.897 -0.3926  1.3390 -0.0710
  995MOL0     H31296   3.626   5.221  10.908  2.4506 -0.1685  2.9878
  995MOL0     H31297   3.504   5.214  11.037 -0.7227  3.7342 -3.4084
  995MOL0     H31298   3.445   5.051  10.800 -0.3372 -0.7285  0.0450
  995MOL0     H31299   3.336   5.124  10.922 -0.7229  0.8915 -0.8284
  995MOL0     H31300   3.406   5.359  10.835 -4.2046  1.8013 -2.0503
  995MOL0     H31301   3.294   5.275  10.741 -0.1817  2.0639  1.8385
  995MOL0     H31302   3.413   5.510  10.590 -1.2708  0.1025  0.8275
  995MOL0     H31303   3.285   5.556  10.377 -0.3566 -1.9760 -3.2642
  995MOL0     H31304   3.096   5.740  10.133 -2.3894 -0.2165  1.6078
  995MOL0     H31305   3.026   5.842   9.917 -0.4628  0.3583  0.3237
  995MOL0     H31306   3.012   5.876   9.699  0.5325 -2.2204  2.1484
  995MOL0     H31307   2.968   5.803   9.546 -2.4565  2.3410  1.4168
  995MOL0     H31308   3.207   5.817   9.560 -2.0135  0.2085 -0.2784
  995MOL0     H31309   3.176   5.637   9.558  6.3237 -0.8073  0.9086
  995MOL0     H31310   3.215   5.635   9.791  4.0436 -2.6484 -1.7564
  995MOL0     H31311   3.249   5.813   9.795  2.5730 -0.5277  1.0809
  995MOL0     H31312   3.398   5.586   9.662  0.7333  0.4548 -0.7924
  995MOL0     H31313   3.438   5.743   9.610  1.3759  0.2830  1.7874
  995MOL0     H31314   3.559   5.795   9.800 -1.6485  0.2557  0.7491
  995MOL0     H31315   3.602   5.632   9.786  1.7528  2.3656  2.4388
  995MOL0     H31316   3.399   5.607   9.977  0.6125 -0.2900  1.2087
  995MOL0     H31317   3.404   5.782   9.963 -2.7557 -0.7135 -1.8029
  995MOL0     H31318   3.662   5.638  10.033 -0.1728  0.2861 -0.4944
  995MOL0     H31319   3.606   5.807  10.054  0.1215  0.4248 -0.0198
  995MOL0     H31320   3.633   5.715  10.266  0.5325 -0.1906 -0.5553
  995MOL0     H31321   3.558   5.567  10.227  1.2513 -0.6320 -2.7681
  995MOL0     H31322   2.924   5.448   9.761 -2.6495 -0.6948  1.2955
  995MOL0     H31323   3.017   5.344   9.969 -0.3981 -0.4272 -0.7487
  995MOL0     H31324   3.301   5.144  10.280 -3.5819  0.3613  0.1006
  995MOL0     H31325   3.426   5.097  10.496 -3.2043 -0.7160  2.8019
  995MOL0     H31326   3.708   5.129  10.496 -3.0279 -0.0622 -1.0294
  995MOL0     H31327   3.610   5.257  10.309  1.1201  0.5918  0.8383
  995MOL0     H31328   3.434   5.320   9.977  0.3057 -1.4321 -0.4780
  995MOL0     H31329   3.259   5.388   9.803  0.2400 -0.5162  1.7377
  995MOL0     H31330   3.265   5.200   9.395  0.7209 -1.0005  1.3626
  995MOL0     H31331   3.345   5.358   9.410 -1.0092 -0.3691 -0.5059
  995MOL0     H31332   3.042   5.333   9.436 -1.3367  0.1473 -2.1072
  995MOL0     H31333   3.146   5.477   9.439  2.8318 -0.7174  3.4703
  995MOL0     H31334   3.215   5.451   9.215 -0.8767  0.1109 -0.1354
  995MOL0     H31335   3.047   5.445   9.229 -0.1068  1.3339  1.0713
  995MOL0     H31336   3.113   5.262   9.065  2.1725 -0.8331 -1.2265
  995MOL0     H31337   3.228   5.187   9.179  0.6362  1.5564  0.2957
  995MOL0     H31338   2.894   4.975   9.246  0.9946 -0.7599 -0.4116
  995MOL0     H31339   3.479   5.173   9.509  2.7717 -2.9534  1.1733
  995MOL0     H31340   3.670   5.130   9.674  1.7834  2.2882 -0.1969
  996MOL0     O31341   7.877   1.833   5.465 -0.8206 -1.1634 -1.1029
  996MOL0     C31342   7.844   1.722   5.427  0.4511  0.3914 -0.1127
  996MOL0     O31343   7.715   1.673   5.419  0.3183 -0.4987 -0.3051
  996MOL0     C31344   7.605   1.756   5.438 -0.8583  0.5150 -0.2708
  996MOL0     C31345   7.498   1.738   5.349 -0.2770  0.2290  0.3854
  996MOL0     C31346   7.381   1.816   5.354 -0.2473  0.1910  0.0082
  996MOL0     C31347   7.375   1.912   5.450 -0.1218 -0.5349  0.6789
  996MOL0     O31348   7.265   1.993   5.452  0.3210 -0.4547 -0.3874
  996MOL0     C31349   7.227   2.067   5.565 -0.6085 -1.1902 -0.7924
  996MOL0     C31350   7.088   2.130   5.542  0.2338  0.5333 -0.4665
  996MOL0     C31351   7.039   2.225   5.651  0.2150  0.0430  0.1446
  996MOL0     C31352   6.882   2.233   5.643 -0.2729 -0.7793  0.0843
  996MOL0     C31353   6.837   2.375   5.691  1.1714  0.3810  0.8291
  996MOL0     C31354   6.763   2.375   5.822 -0.5925 -0.0297  0.0477
  996MOL0     C31355   6.702   2.514   5.859 -0.1044 -0.2258 -0.5788
  996MOL0     C31356   6.561   2.537   5.794  0.2512 -0.8038  0.0184
  996MOL0     N31357   6.495   2.663   5.839 -0.4656  0.5388  0.5947
  996MOL0     C31358   6.524   2.790   5.800  0.0288  0.7250  0.4562
  996MOL0     C31359   6.438   2.865   5.876  0.0759  0.0696 -0.0372
  996MOL0     C31360   6.413   3.013   5.869 -0.2653 -0.5651 -0.0851
  996MOL0     C31361   6.282   3.046   5.795 -0.3564  0.0393 -0.0226
  996MOL0     C31362   6.236   3.186   5.821 -0.0141  0.3364  0.0254
  996MOL0     C31363   6.104   3.210   5.752 -0.3839 -0.0845  0.2540
  996MOL0     O31364   6.014   3.103   5.789  0.0515 -0.4635  0.3815
  996MOL0     C31365   5.891   3.135   5.833  0.6284  0.2230  0.3718
  996MOL0     C31366   5.873   3.150   5.973 -0.7166  0.2064  0.5246
  996MOL0     C31367   5.753   3.179   6.020 -0.1321 -0.5365 -0.2848
  996MOL0     C31368   5.639   3.190   5.941  0.4304 -0.1824 -0.6865
  996MOL0     C31369   5.507   3.233   5.990  0.6058 -0.6003 -0.3607
  996MOL0     O31370   5.430   3.313   5.907 -0.9711  0.7463 -0.3689
  996MOL0     C31371   5.301   3.336   5.954 -0.6829  0.4273 -0.5349
  996MOL0     C31372   5.272   3.417   6.064  0.0280  0.3153 -0.9413
  996MOL0     C31373   5.140   3.425   6.116 -0.7228  0.3609 -1.5094
  996MOL0     C31374   5.034   3.358   6.044  0.2669  0.8035 -0.6923
  996MOL0     O31375   4.899   3.357   6.081 -0.3852  0.5591  0.4794
  996MOL0     C31376   4.874   3.435   6.196 -0.0387 -0.0589 -0.3094
  996MOL0     C31377   4.717   3.438   6.234 -0.6043  0.8554  0.4958
  996MOL0     C31378   4.620   3.466   6.128  0.0798 -0.1473  0.8300
  996MOL0     C31379   4.475   3.476   6.179  0.3655 -0.3792 -0.4192
  996MOL0     C31380   4.373   3.490   6.068 -0.5707  0.7371  0.0523
  996MOL0     C31381   4.237   3.489   6.129  0.4190 -0.4098  0.0451
  996MOL0     C31382   4.131   3.543   6.025 -0.5996  0.0166  0.3788
  996MOL0     C31383   3.992   3.502   6.056  0.3266 -0.0075 -0.1489
  996MOL0    Cl31384   3.884   3.546   5.918 -0.4867 -0.1274  0.1187
  996MOL0     C31385   5.070   3.287   5.933 -0.4754  0.1617  0.2397
  996MOL0     C31386   5.199   3.267   5.893 -0.0603 -0.2035  1.2646
  996MOL0     O31387   5.469   3.190   6.097 -0.0711 -0.0099  0.0430
  996MOL0     C31388   5.649   3.163   5.806 -0.4678 -0.2463  0.6613
  996MOL0     C31389   5.772   3.131   5.749  0.0379 -0.8906  0.8275
  996MOL0     N31390   6.369   2.791   5.962  0.2716 -0.2226  0.2463
  996MOL0     N31391   6.404   2.670   5.937 -0.5376  0.5974  0.0121
  996MOL0     C31392   7.479   1.933   5.550  0.0314  0.1905  0.2642
  996MOL0     C31393   7.593   1.847   5.545 -0.1419  0.2957 -0.0463
  996MOL0     C31394   7.953   1.630   5.380 -0.1217  0.6477 -1.0964
  996MOL0     C31395   7.920   1.524   5.297  0.2162 -0.6330  0.5436
  996MOL0     C31396   8.024   1.441   5.252  0.0349  0.0493 -0.9021
  996MOL0     C31397   8.155   1.458   5.290  0.3547 -0.1611  0.1357
  996MOL0     O31398   8.259   1.377   5.252  0.7506  0.5736  0.1096
  996MOL0     C31399   8.374   1.438   5.184  0.1903  0.1099 -0.0253
  996MOL0     C31400   8.470   1.332   5.119  0.1753  0.7984  0.0246
  996MOL0     C31401   8.567   1.296   5.230  0.3860 -0.6882  0.2381
  996MOL0     C31402   8.688   1.206   5.198  0.1662  1.0385  0.0236
  996MOL0     C31403   8.771   1.270   5.096  0.1504 -0.9666  0.5957
  996MOL0     C31404   8.836   1.305   5.003 -0.6321 -0.4494 -0.0313
  996MOL0     C31405   8.183   1.573   5.371  0.1065 -0.0466 -0.1181
  996MOL0     C31406   8.087   1.657   5.420  0.2876 -0.2262  0.5229
  996MOL0     H31407   7.510   1.659   5.276 -0.1060 -0.3332  1.0112
  996MOL0     H31408   7.301   1.787   5.287  0.5409 -2.0578 -0.0215
  996MOL0     H31409   7.295   2.151   5.583 -1.2912 -1.1238  1.8329
  996MOL0     H31410   7.221   2.008   5.657 -0.4692  0.7520  0.5276
  996MOL0     H31411   7.029   2.038   5.548  0.4331  0.4838  2.0504
  996MOL0     H31412   7.079   2.179   5.445 -1.8334 -0.9085 -1.0715
  996MOL0     H31413   7.078   2.325   5.627  3.0635 -0.9889  0.0338
  996MOL0     H31414   7.070   2.202   5.753 -0.6342 -1.3005  0.1123
  996MOL0     H31415   6.858   2.214   5.538  2.2288  1.9751 -1.1060
  996MOL0     H31416   6.833   2.150   5.696 -0.2120 -1.9556 -1.6132
  996MOL0     H31417   6.763   2.414   5.621 -0.9809 -0.8703  2.2732
  996MOL0     H31418   6.916   2.450   5.681  0.5342  0.7657 -2.3707
  996MOL0     H31419   6.831   2.337   5.899 -2.2080  1.2523  2.2144
  996MOL0     H31420   6.672   2.315   5.809 -1.1917  0.9939 -0.5494
  996MOL0     H31421   6.692   2.521   5.968  1.0955 -1.9477 -0.3277
  996MOL0     H31422   6.771   2.594   5.828 -0.6080 -0.2155 -1.7298
  996MOL0     H31423   6.494   2.458   5.828 -3.8113  2.2887 -0.1554
  996MOL0     H31424   6.573   2.541   5.685 -0.6072 -4.2916 -0.3421
  996MOL0     H31425   6.587   2.825   5.718  0.3712 -1.0076 -0.0634
  996MOL0     H31426   6.491   3.069   5.817 -0.8257 -1.3526 -1.8640
  996MOL0     H31427   6.411   3.050   5.972  2.7271  1.5469 -0.6702
  996MOL0     H31428   6.205   2.978   5.833 -2.7620  3.5020  1.8259
  996MOL0     H31429   6.304   3.042   5.688  0.8260  3.3191 -0.0269
  996MOL0     H31430   6.208   3.206   5.925 -4.8294  0.6765 -1.0756
  996MOL0     H31431   6.315   3.257   5.794  0.8693 -1.2452 -1.7544
  996MOL0     H31432   6.112   3.214   5.643 -6.1857 -0.0517 -0.4734
  996MOL0     H31433   6.064   3.310   5.771  0.5508  0.1798  0.9216
  996MOL0     H31434   5.964   3.128   6.029  0.5162 -2.6731 -2.3049
  996MOL0     H31435   5.755   3.171   6.128 -2.5344 -1.7372 -0.2452
  996MOL0     H31436   5.356   3.467   6.110 -1.8916  1.4412  1.5731
  996MOL0     H31437   5.115   3.494   6.196 -1.9467 -2.4235  0.6662
  996MOL0     H31438   4.903   3.540   6.186 -0.7401 -0.0114 -2.2735
  996MOL0     H31439   4.928   3.396   6.282  1.0849  2.2548  0.1023
  996MOL0     H31440   4.711   3.511   6.316 -0.0969  3.3951 -1.5715
  996MOL0     H31441   4.699   3.335   6.266 -1.9532 -0.4103 -3.6897
  996MOL0     H31442   4.636   3.380   6.062 -0.9309 -0.6952  1.2743
  996MOL0     H31443   4.647   3.556   6.071 -0.2090  0.4839  1.6810
  996MOL0     H31444   4.444   3.393   6.243 -0.4582 -0.0746 -0.4112
  996MOL0     H31445   4.469   3.564   6.243  1.3613 -1.0857  0.6809
  996MOL0     H31446   4.387   3.411   5.994  2.8045 -0.2233  1.5375
  996MOL0     H31447   4.396   3.588   6.025 -0.6759  1.5720  1.8149
  996MOL0     H31448   4.228   3.549   6.220 -2.0930  1.6215 -1.4074
  996MOL0     H31449   4.205   3.388   6.159 -1.5422 -0.7953 -2.9348
  996MOL0     H31450   4.127   3.651   6.040 -0.5672  0.0354  0.2506
  996MOL0     H31451   4.158   3.516   5.923  0.6540 -0.3661  0.7973
  996MOL0     H31452   3.957   3.554   6.146 -3.1653  1.4326 -2.1415
  996MOL0     H31453   3.985   3.394   6.069 -2.2591 -0.0411 -1.3186
  996MOL0     H31454   4.988   3.238   5.882 -2.0003 -1.6716  4.0539
  996MOL0     H31455   5.212   3.191   5.816 -0.5812 -0.3963  1.3642
  996MOL0     H31456   5.558   3.172   5.746 -1.0085 -1.4535  1.2523
  996MOL0     H31457   5.785   3.107   5.644  2.0623  0.8293  0.6072
  996MOL0     H31458   7.470   2.007   5.629 -0.3060  0.6045 -0.1594
  996MOL0     H31459   7.654   1.843   5.634 -0.5974 -3.9342  0.3072
  996MOL0     H31460   7.816   1.517   5.269 -0.1882  1.3730  1.4184
  996MOL0     H31461   7.993   1.355   5.194  0.6282 -2.5642  2.3640
  996MOL0     H31462   8.424   1.508   5.252  0.8684 -1.0179  0.6498
  996MOL0     H31463   8.332   1.505   5.108  0.8701  0.3599 -0.1913
  996MOL0     H31464   8.410   1.243   5.096  1.4717 -0.7154  2.1266
  996MOL0     H31465   8.530   1.373   5.038  3.9951 -0.0499  2.1596
  996MOL0     H31466   8.506   1.250   5.308  1.0606 -4.4754 -1.2482
  996MOL0     H31467   8.611   1.389   5.267  2.7590 -2.0750  1.1515
  996MOL0     H31468   8.741   1.185   5.291  0.7433  0.9379 -0.3248
  996MOL0     H31469   8.647   1.113   5.156 -1.1529  1.2150  0.8394
  996MOL0     H31470   8.888   1.355   4.924  1.3823 -0.5630  1.1353
  996MOL0     H31471   8.288   1.599   5.381 -0.5995  3.4790 -0.2687
  996MOL0     H31472   8.121   1.737   5.484 -0.1948  0.2316  0.2178
  997MOL0     O31473   7.714   4.222   1.892  0.6101  0.0975 -0.6094
  997MOL0     C31474   7.793   4.225   1.802  0.0981  0.4340 -0.5742
  997MOL0     O31475   7.770   4.281   1.679 -0.2840  0.0647  0.3783
  997MOL0     C31476   7.662   4.367   1.664 -0.8094  0.2125 -1.1165
  997MOL0     C31477   7.531   4.343   1.706 -1.1660  0.3486 -0.2339
  997MOL0     C31478   7.430   4.424   1.677 -0.1926 -0.4934  0.3697
  997MOL0     C31479   7.447   4.545   1.602  0.6303  0.6260 -0.1024
  997MOL0     O31480   7.339   4.634   1.567  0.1432 -0.3155 -0.2197
  997MOL0     C31481   7.209   4.598   1.600  0.5229  0.3097  0.4335
  997MOL0     C31482   7.107   4.651   1.492 -0.2816 -1.4812  0.2474
  997MOL0     C31483   6.960   4.649   1.541 -0.0811  0.4498  0.2383
  997MOL0     C31484   6.868   4.714   1.429 -0.2575  0.4853 -0.2877
  997MOL0     C31485   6.716   4.727   1.464 -0.1259  0.0138  0.7057
  997MOL0     C31486   6.672   4.591   1.504  0.9718 -0.1286 -0.5864
  997MOL0     C31487   6.519   4.593   1.538  0.1228  0.7337  0.2714
  997MOL0     C31488   6.426   4.637   1.431 -0.0102  0.1442  0.9488
  997MOL0     N31489   6.420   4.549   1.312 -0.3074 -0.0453  0.2431
  997MOL0     C31490   6.302   4.532   1.239 -0.9152 -0.5738  1.7399
  997MOL0     C31491   6.330   4.460   1.127 -0.8784 -0.4184  0.2389
  997MOL0     C31492   6.236   4.428   1.007 -0.5600 -0.2541  0.4788
  997MOL0     C31493   6.249   4.529   0.892  1.3227  0.7543 -0.4433
  997MOL0     C31494   6.168   4.473   0.775  0.1259  0.4116  1.1088
  997MOL0     C31495   6.021   4.503   0.800  0.4789  0.2752  0.0846
  997MOL0     O31496   5.941   4.483   0.679 -0.1853  0.0608 -0.2936
  997MOL0     C31497   5.805   4.500   0.685  0.5991  0.5456 -0.6969
  997MOL0     C31498   5.739   4.500   0.806  0.1166  0.4577 -0.3381
  997MOL0     C31499   5.605   4.512   0.810  0.0623  0.3491  0.1922
  997MOL0     C31500   5.528   4.519   0.693 -0.3378 -0.3033  0.8107
  997MOL0     C31501   5.384   4.524   0.697 -0.0952  0.6736  0.4449
  997MOL0     O31502   5.319   4.530   0.578  0.0953  0.2118  0.3511
  997MOL0     C31503   5.179   4.526   0.585  0.3681  0.1649  0.5852
  997MOL0     C31504   5.097   4.421   0.643 -0.1357 -0.0518  0.9762
  997MOL0     C31505   4.957   4.431   0.638 -0.0656  0.1712  0.3059
  997MOL0     C31506   4.903   4.555   0.589 -0.2152 -0.9434  0.2622
  997MOL0     O31507   4.768   4.575   0.574  0.3072  0.1465 -0.1049
  997MOL0     C31508   4.682   4.461   0.554 -0.2652 -0.4977  0.3795
  997MOL0     C31509   4.531   4.490   0.567  1.3462  0.1870  0.1300
  997MOL0     C31510   4.442   4.368   0.518  0.2279 -1.1485 -1.3288
  997MOL0     C31511   4.296   4.400   0.549  1.1492  0.9699  0.0645
  997MOL0     C31512   4.200   4.309   0.472  0.0138 -0.1073 -0.1642
  997MOL0     C31513   4.221   4.316   0.318  0.8022  0.5008  0.7026
  997MOL0     C31514   4.093   4.265   0.247  0.0689 -0.2843 -0.2202
  997MOL0     C31515   4.120   4.121   0.198 -0.6045  1.1798 -0.2415
  997MOL0    Cl31516   4.239   4.100   0.066 -0.1128 -0.0326  0.0993
  997MOL0     C31517   4.983   4.664   0.559  0.4293  0.7188 -0.1496
  997MOL0     C31518   5.114   4.649   0.541  0.7940 -0.5864 -0.9950
  997MOL0     O31519   5.329   4.527   0.807 -0.0356  0.0666  0.3346
  997MOL0     C31520   5.595   4.531   0.564 -1.0236  0.0417  0.4009
  997MOL0     C31521   5.730   4.514   0.566 -0.0458 -0.3886  0.1020
  997MOL0     N31522   6.469   4.461   1.122 -0.1969  0.1119 -0.5156
  997MOL0     N31523   6.523   4.502   1.238 -0.2542  0.1012  0.4382
  997MOL0     C31524   7.581   4.572   1.554  0.3314 -0.6426 -0.1568
  997MOL0     C31525   7.688   4.487   1.596  0.2339 -0.1535  0.3517
  997MOL0     C31526   7.933   4.173   1.817 -0.4194  0.3872  0.0276
  997MOL0     C31527   8.036   4.198   1.729 -0.1984  0.2142  0.1283
  997MOL0     C31528   8.170   4.150   1.757  0.2167  0.3170  0.6917
  997MOL0     C31529   8.202   4.080   1.882  0.1868 -1.1034  0.3384
  997MOL0     O31530   8.326   4.050   1.930  0.5474  0.3342 -0.2774
  997MOL0     C31531   8.443   4.071   1.846  0.5810  0.2412 -0.1917
  997MOL0     C31532   8.457   3.954   1.756 -0.5546  0.1618  0.3000
  997MOL0     C31533   8.597   3.967   1.684  0.3361 -0.0801  0.3932
  997MOL0     C31534   8.634   3.838   1.604 -0.4438 -0.0051  0.2594
  997MOL0     C31535   8.766   3.833   1.539 -0.0070 -0.2435  0.3355
  997MOL0     C31536   8.867   3.840   1.473  0.2633  0.5420  0.5432
  997MOL0     C31537   8.092   4.052   1.971 -0.0109  0.0933 -0.5572
  997MOL0     C31538   7.968   4.092   1.935 -0.6152  0.2563  0.0609
  997MOL0     H31539   7.509   4.262   1.775 -0.8241 -0.0462 -0.5826
  997MOL0     H31540   7.338   4.390   1.725  1.1112 -2.4088  1.6801
  997MOL0     H31541   7.181   4.634   1.700  1.1303  0.8407  0.4182
  997MOL0     H31542   7.190   4.492   1.587 -3.8472  1.0166 -0.5390
  997MOL0     H31543   7.108   4.585   1.405 -1.2276 -1.9169  0.5423
  997MOL0     H31544   7.133   4.753   1.464  0.8415 -2.0980 -1.0688
  997MOL0     H31545   6.938   4.703   1.634 -0.4804 -0.1985  0.5270
  997MOL0     H31546   6.938   4.545   1.564  1.8841 -0.0932 -0.1991
  997MOL0     H31547   6.904   4.813   1.401 -2.5385  0.3964 -4.3438
  997MOL0     H31548   6.871   4.649   1.342 -0.2926 -0.3963  0.3515
  997MOL0     H31549   6.666   4.755   1.370  2.4170  0.4241 -0.6129
  997MOL0     H31550   6.708   4.809   1.535  1.3343  2.2468 -1.5290
  997MOL0     H31551   6.723   4.560   1.595  1.2903 -0.9361 -1.0280
  997MOL0     H31552   6.700   4.524   1.423  2.8315  0.1940 -0.2571
  997MOL0     H31553   6.498   4.490   1.568 -0.9781  1.6242  2.8274
  997MOL0     H31554   6.498   4.650   1.629 -2.2926  0.9406 -0.3519
  997MOL0     H31555   6.458   4.739   1.410  0.7815 -0.3813 -0.5851
  997MOL0     H31556   6.320   4.648   1.457  0.1073  5.0592  0.2418
  997MOL0     H31557   6.200   4.558   1.265 -1.6147  0.6790 -1.6373
  997MOL0     H31558   6.133   4.427   1.044 -0.4532 -0.1384  0.7781
  997MOL0     H31559   6.269   4.332   0.964 -0.7285  0.1972 -0.6869
  997MOL0     H31560   6.352   4.536   0.857  1.1272  1.9485 -0.8393
  997MOL0     H31561   6.212   4.624   0.930 -0.9332 -0.1556 -0.1854
  997MOL0     H31562   6.207   4.518   0.683  0.1101 -0.0260  0.8887
  997MOL0     H31563   6.169   4.364   0.772 -3.4217  0.2738 -0.7122
  997MOL0     H31564   6.013   4.605   0.839  1.5968  0.5631 -0.4032
  997MOL0     H31565   5.987   4.438   0.880 -1.3121  0.2270 -0.6611
  997MOL0     H31566   5.787   4.472   0.899 -1.8184 -1.7357  0.1203
  997MOL0     H31567   5.561   4.492   0.907  0.7339  0.0642  0.4422
  997MOL0     H31568   5.151   4.333   0.675 -0.0356 -0.1082  0.6643
  997MOL0     H31569   4.897   4.351   0.681 -1.6387  2.5962  2.9283
  997MOL0     H31570   4.702   4.378   0.623 -0.6245  0.7675  2.0469
  997MOL0     H31571   4.698   4.421   0.453 -0.9658  3.6528 -1.5538
  997MOL0     H31572   4.491   4.577   0.515  0.1294  0.1618  0.9699
  997MOL0     H31573   4.515   4.507   0.674  2.8319  0.1477  0.3904
  997MOL0     H31574   4.467   4.278   0.574  0.6330  0.2359  0.8199
  997MOL0     H31575   4.445   4.351   0.409 -2.5708 -1.2254 -1.4660
  997MOL0     H31576   4.274   4.402   0.656 -1.4849  1.0658 -0.3944
  997MOL0     H31577   4.267   4.501   0.520 -0.2951  0.5012 -0.2127
  997MOL0     H31578   4.101   4.347   0.496 -0.5791 -1.8520  0.3384
  997MOL0     H31579   4.213   4.204   0.500  2.3098 -0.3204 -1.7864
  997MOL0     H31580   4.304   4.250   0.291 -0.4062 -0.2498 -1.3946
  997MOL0     H31581   4.243   4.416   0.280  0.1777  0.3269 -0.1549
  997MOL0     H31582   4.009   4.265   0.317  1.6253  0.6318  1.7548
  997MOL0     H31583   4.069   4.322   0.157 -0.9770 -1.4747 -0.7308
  997MOL0     H31584   4.027   4.066   0.182  0.6801 -1.8618  1.8011
  997MOL0     H31585   4.161   4.069   0.285  1.4081  2.1469 -0.5248
  997MOL0     H31586   4.926   4.751   0.527  0.9994  1.1210 -0.0911
  997MOL0     H31587   5.177   4.711   0.479 -0.1328  0.2864 -1.0842
  997MOL0     H31588   5.547   4.553   0.470 -0.7568  0.2980  0.3235
  997MOL0     H31589   5.788   4.506   0.475 -1.5738 -0.2197 -0.9404
  997MOL0     H31590   7.596   4.662   1.494 -1.2032 -0.1182  0.2069
  997MOL0     H31591   7.784   4.519   1.555 -0.7446 -1.3572 -3.2610
  997MOL0     H31592   8.025   4.255   1.637  2.6206  2.2975  0.9659
  997MOL0     H31593   8.247   4.173   1.685  0.4797 -1.0409  0.5081
  997MOL0     H31594   8.539   4.088   1.896  2.0209 -0.1295 -2.6572
  997MOL0     H31595   8.437   4.166   1.792  3.0882  0.9185  0.6021
  997MOL0     H31596   8.446   3.857   1.807 -0.2445 -0.2608 -0.4165
  997MOL0     H31597   8.398   3.958   1.664  0.8798  0.1756 -0.6582
  997MOL0     H31598   8.663   3.981   1.770 -1.9698 -0.2506  2.2784
  997MOL0     H31599   8.606   4.054   1.617  1.5092  1.0184  1.9182
  997MOL0     H31600   8.614   3.744   1.656 -1.6760 -1.4748 -2.6617
  997MOL0     H31601   8.569   3.834   1.517 -1.1557  0.8839  0.7329
  997MOL0     H31602   8.958   3.856   1.418  1.3433  0.8813  2.3728
  997MOL0     H31603   8.107   4.014   2.071 -0.9500  1.3754  0.1106
  997MOL0     H31604   7.891   4.054   2.001  0.2689 -0.1486  0.8718
  998MOL0     O31605   2.275   8.963   5.132 -0.1801  0.2124 -0.3413
  998MOL0     C31606   2.322   8.849   5.150  0.2191 -0.5916  0.1649
  998MOL0     O31607   2.254   8.734   5.139  0.0016  0.1019 -0.4422
  998MOL0     C31608   2.115   8.716   5.124  0.6281 -1.1319 -0.1101
  998MOL0     C31609   2.031   8.807   5.186  0.1000 -0.3456 -0.2785
  998MOL0     C31610   1.895   8.797   5.172 -0.0211 -0.7293 -0.1239
  998MOL0     C31611   1.841   8.704   5.081 -0.0889 -0.3615 -0.7135
  998MOL0     O31612   1.707   8.713   5.074 -1.0535 -0.1922 -0.2800
  998MOL0     C31613   1.641   8.666   4.960  0.4477 -0.6580  0.2211
  998MOL0     C31614   1.494   8.721   4.946  0.4342  0.9056 -0.5093
  998MOL0     C31615   1.405   8.679   5.061 -0.2846 -0.0063 -0.8267
  998MOL0     C31616   1.380   8.527   5.070  0.1711 -0.2823  0.0730
  998MOL0     C31617   1.289   8.488   5.184 -0.0113  0.2853 -0.3934
  998MOL0     C31618   1.152   8.516   5.143  0.2115  0.1807  0.0003
  998MOL0     C31619   1.028   8.466   5.226 -0.0672 -0.1289  0.0557
  998MOL0     C31620   1.026   8.531   5.368 -0.0946  1.0765  0.1975
  998MOL0     N31621   0.939   8.651   5.378 -1.2355 -0.3269  0.1326
  998MOL0     C31622   0.954   8.764   5.294  0.4810  0.5553  0.2492
  998MOL0     C31623   0.824   8.811   5.288 -0.3775  0.1011  0.4788
  998MOL0     C31624   0.802   8.930   5.203 -0.6211  0.2630  0.8731
  998MOL0     C31625   0.660   8.973   5.214  0.1165  0.2663  0.4138
  998MOL0     C31626   0.621   9.036   5.353 -0.1615 -0.4617 -0.9628
  998MOL0     C31627   0.485   9.100   5.347  0.3474 -0.9729 -1.0823
  998MOL0     O31628   0.489   9.214   5.256 -0.3906 -0.2255  0.7879
  998MOL0     C31629   0.375   9.258   5.194 -0.8224 -0.4695 -0.3504
  998MOL0     C31630   0.256   9.196   5.167  0.8339 -0.2646 -0.6306
  998MOL0     C31631   0.148   9.262   5.107  0.3901 -0.1272  0.6655
  998MOL0     C31632   0.156   9.394   5.084 -0.2485 -0.8926  0.2022
  998MOL0     C31633   0.045   9.471   5.004  0.0732  0.1835  0.0996
  998MOL0     O31634  -0.072   9.407   4.996 -0.4831 -0.3294 -1.1210
  998MOL0     C31635  -0.167   9.466   4.913  0.1962 -1.3713 -0.3065
  998MOL0     C31636  -0.244   9.376   4.836  0.0832 -0.3458 -0.3960
  998MOL0     C31637  -0.358   9.417   4.758  0.6158  0.6109  0.4205
  998MOL0     C31638  -0.394   9.554   4.765 -0.0063 -0.0863 -0.4802
  998MOL0     O31639  -0.515   9.582   4.707  0.8324 -0.8618  0.1387
  998MOL0     C31640  -0.519   9.704   4.627 -0.6003 -0.0511 -0.1367
  998MOL0     C31641  -0.643   9.790   4.677 -0.4439 -1.1456  0.3237
  998MOL0     C31642  -0.767   9.703   4.673  1.0157 -1.1537  0.8157
  998MOL0     C31643  -0.891   9.789   4.650 -0.2190  0.1663 -0.4253
  998MOL0     C31644  -0.943   9.792   4.512  0.1683  0.3062  0.7119
  998MOL0     C31645  -1.049   9.898   4.508 -0.7019 -0.5161  0.2122
  998MOL0     C31646  -1.103   9.923   4.364 -0.1619  0.3432  0.4002
  998MOL0     C31647  -1.220   9.829   4.336  0.5887 -0.4450  0.1373
  998MOL0    Cl31648  -1.378   9.896   4.381  0.0868 -0.3103 -0.1284
  998MOL0     C31649  -0.325   9.650   4.843  0.3879  0.6249 -0.3922
  998MOL0     C31650  -0.215   9.599   4.921 -0.6204  0.2137  1.0088
  998MOL0     O31651   0.080   9.577   4.947  0.1341 -0.0385  1.0555
  998MOL0     C31652   0.277   9.459   5.110  0.4763  0.2759 -0.4374
  998MOL0     C31653   0.379   9.395   5.168 -0.7373  0.0858 -0.4742
  998MOL0     N31654   0.737   8.728   5.362  0.5144  0.3137 -0.3774
  998MOL0     N31655   0.809   8.629   5.408 -0.4047  0.9942  0.3567
  998MOL0     C31656   1.928   8.620   5.004 -0.6487  0.9556  0.5364
  998MOL0     C31657   2.064   8.631   5.031  0.2153 -0.1961  0.4938
  998MOL0     C31658   2.463   8.854   5.156 -0.2497  0.0672 -0.3178
  998MOL0     C31659   2.538   8.946   5.227 -0.7679 -0.3416  0.3927
  998MOL0     C31660   2.681   8.945   5.208 -0.0842 -0.0890 -1.2530
  998MOL0     C31661   2.742   8.842   5.136 -0.3253 -0.0800  0.1801
  998MOL0     O31662   2.879   8.821   5.123  0.4608  0.6995  0.1971
  998MOL0     C31663   2.977   8.861   5.224 -0.2321  0.6345  0.5455
  998MOL0     C31664   3.034   9.003   5.214  0.2237 -0.2416  0.2360
  998MOL0     C31665   3.137   9.029   5.107  0.9880  0.5819 -1.0637
  998MOL0     C31666   3.262   8.939   5.112 -0.1193 -0.7265 -0.4746
  998MOL0     C31667   3.316   8.955   5.246  0.2177  0.2472  0.6609
  998MOL0     C31668   3.350   8.982   5.363 -0.5183 -0.7871  0.0578
  998MOL0     C31669   2.665   8.766   5.050  1.1988  0.2661  0.5516
  998MOL0     C31670   2.529   8.775   5.058  0.1240  0.3005  0.0981
  998MOL0     H31671   2.077   8.877   5.255  0.3638 -0.1077 -0.6905
  998MOL0     H31672   1.828   8.869   5.217  1.6059 -0.5446  2.1888
  998MOL0     H31673   1.643   8.557   4.949  0.1923 -0.5092 -1.5575
  998MOL0     H31674   1.696   8.702   4.873 -3.3599  3.3484 -0.8822
  998MOL0     H31675   1.450   8.685   4.852  1.1084 -0.1443 -0.4318
  998MOL0     H31676   1.506   8.830   4.937  0.9338  0.9337  0.4361
  998MOL0     H31677   1.307   8.726   5.045 -0.5075 -0.6024 -1.2362
  998MOL0     H31678   1.451   8.716   5.153  0.0308  1.6716 -1.6095
  998MOL0     H31679   1.341   8.490   4.975 -1.3388  1.1343  0.0900
  998MOL0     H31680   1.482   8.494   5.093  0.6762  1.4405  0.4477
  998MOL0     H31681   1.310   8.550   5.273  1.7423 -2.6608  1.4111
  998MOL0     H31682   1.305   8.384   5.213  0.5216  0.3664 -0.3855
  998MOL0     H31683   1.139   8.471   5.044  0.9948 -1.1900  0.4952
  998MOL0     H31684   1.140   8.625   5.137  0.9891  0.3605  1.4181
  998MOL0     H31685   0.938   8.500   5.175 -0.1094  2.2714  1.5679
  998MOL0     H31686   1.041   8.357   5.232  0.2760 -0.2545 -2.0652
  998MOL0     H31687   1.128   8.552   5.403  0.4483 -2.2034  0.8496
  998MOL0     H31688   0.979   8.467   5.444  0.0312 -2.3513 -2.3815
  998MOL0     H31689   1.046   8.799   5.250  1.6490 -0.3238  1.9004
  998MOL0     H31690   0.832   8.917   5.099  1.8114 -0.4896  1.6033
  998MOL0     H31691   0.870   9.012   5.231  0.7218 -0.4197 -0.2465
  998MOL0     H31692   0.597   8.890   5.182 -0.3653  1.4133 -1.8250
  998MOL0     H31693   0.637   9.048   5.138  0.6517  0.2003  0.1758
  998MOL0     H31694   0.616   8.956   5.428 -1.2560 -0.5007 -1.0568
  998MOL0     H31695   0.691   9.115   5.381  0.8984 -1.2240 -1.4298
  998MOL0     H31696   0.454   9.130   5.448  0.6786 -0.5269 -1.1075
  998MOL0     H31697   0.413   9.027   5.309 -0.1392 -0.9025 -0.3037
  998MOL0     H31698   0.242   9.090   5.186 -3.1835 -0.0823 -1.6688
  998MOL0     H31699   0.052   9.217   5.085  0.5776 -0.2557  0.1032
  998MOL0     H31700  -0.204   9.275   4.828 -2.7523 -1.4336 -2.4712
  998MOL0     H31701  -0.429   9.349   4.713 -0.7762  3.6207 -2.4119
  998MOL0     H31702  -0.530   9.667   4.524 -2.2642 -1.1050  0.3794
  998MOL0     H31703  -0.424   9.758   4.627 -0.2437 -0.6572  0.7544
  998MOL0     H31704  -0.648   9.866   4.598  0.9089 -2.2725 -0.9180
  998MOL0     H31705  -0.627   9.844   4.771  1.2727 -2.5161  0.8799
  998MOL0     H31706  -0.774   9.633   4.757 -1.6040 -2.1981 -0.1608
  998MOL0     H31707  -0.768   9.641   4.583 -4.0723 -1.0469  0.4788
  998MOL0     H31708  -0.975   9.751   4.708  1.4816 -0.0129  2.0548
  998MOL0     H31709  -0.871   9.888   4.692 -1.8918  0.2477  0.2594
  998MOL0     H31710  -0.976   9.694   4.478  0.4198  0.3072  0.4513
  998MOL0     H31711  -0.862   9.836   4.452  0.7884  0.4255  1.6122
  998MOL0     H31712  -1.013   9.990   4.554 -1.1474 -1.6825  3.0565
  998MOL0     H31713  -1.126   9.863   4.577 -1.8607  0.7781 -0.3539
  998MOL0     H31714  -1.137  10.023   4.334 -1.1978  0.7706  2.7787
  998MOL0     H31715  -1.026   9.887   4.295 -0.9711 -0.6546 -0.0039
  998MOL0     H31716  -1.199   9.729   4.374  0.0066  0.5392  3.2984
  998MOL0     H31717  -1.239   9.809   4.230  1.7162 -2.3188  0.2487
  998MOL0     H31718  -0.362   9.752   4.845 -3.8947 -0.5826 -3.2676
  998MOL0     H31719  -0.161   9.669   4.984  0.3069 -0.5663  1.0949
  998MOL0     H31720   0.284   9.563   5.082  0.0604 -0.5784 -4.2926
  998MOL0     H31721   0.470   9.451   5.188 -2.2716  3.3863 -1.9431
  998MOL0     H31722   1.906   8.547   4.926  0.1084  0.9412  0.3260
  998MOL0     H31723   2.126   8.582   4.957 -1.8963 -0.9314 -0.8895
  998MOL0     H31724   2.492   9.029   5.281 -0.4673  0.8070 -1.0377
  998MOL0     H31725   2.750   9.011   5.259  0.8693 -1.7345 -0.3391
  998MOL0     H31726   3.057   8.786   5.229 -0.1452  0.1832 -3.7599
  998MOL0     H31727   2.922   8.866   5.319 -2.1730 -0.5736 -0.4439
  998MOL0     H31728   2.946   9.067   5.207  0.0993 -0.4202  0.1496
  998MOL0     H31729   3.081   9.034   5.308  2.8431  0.0448 -1.0745
  998MOL0     H31730   3.174   9.132   5.113 -0.4671  1.2299 -2.4393
  998MOL0     H31731   3.084   9.027   5.011  2.4774 -2.2672 -1.9259
  998MOL0     H31732   3.235   8.837   5.083 -0.9398 -0.2590 -1.3996
  998MOL0     H31733   3.331   8.976   5.036 -2.7270 -0.0113 -2.6496
  998MOL0     H31734   3.400   8.994   5.458 -2.1799 -1.2682  1.0430
  998MOL0     H31735   2.707   8.678   5.002 -1.0970  0.5608 -2.3512
  998MOL0     H31736   2.467   8.709   4.998  1.4197 -0.5925 -0.3040
  999MOL0     O31737   9.735   2.016   9.118 -0.8749 -0.0859  0.4626
  999MOL0     C31738   9.802   2.083   9.046 -0.8192 -0.4172  0.5100
  999MOL0     O31739   9.767   2.186   8.969  0.3270 -0.6685  0.3890
  999MOL0     C31740   9.650   2.252   8.999  0.6860 -0.2876 -0.1831
  999MOL0     C31741   9.532   2.195   9.056  0.5673 -0.2306 -0.4358
  999MOL0     C31742   9.418   2.267   9.069 -0.2577 -0.0281 -1.1153
  999MOL0     C31743   9.409   2.409   9.038 -0.4849  0.1465 -0.9588
  999MOL0     O31744   9.295   2.469   9.069  0.4275 -0.1027 -0.6907
  999MOL0     C31745   9.283   2.610   9.045 -0.1345  0.0712  0.1398
  999MOL0     C31746   9.176   2.665   9.150 -0.6516 -0.4611  0.2386
  999MOL0     C31747   9.040   2.628   9.088  0.2078 -0.5213  0.8452
  999MOL0     C31748   8.926   2.674   9.178  0.2934 -0.9062 -0.1215
  999MOL0     C31749   8.787   2.623   9.132 -0.6623 -0.9124  0.1276
  999MOL0     C31750   8.684   2.636   9.249  0.1453 -0.0963  0.3326
  999MOL0     C31751   8.541   2.576   9.221  0.0924  0.5600  0.2003
  999MOL0     C31752   8.538   2.423   9.260 -0.0706  0.9938 -0.1289
  999MOL0     N31753   8.404   2.364   9.242  0.4513 -0.6061  1.0996
  999MOL0     C31754   8.302   2.405   9.323 -0.0602 -0.6733  0.7347
  999MOL0     C31755   8.190   2.351   9.272 -0.3591 -0.7101  0.1347
  999MOL0     C31756   8.053   2.361   9.335 -0.3162 -0.2426 -1.4631
  999MOL0     C31757   7.947   2.410   9.245  0.7285 -0.3255  0.3566
  999MOL0     C31758   7.811   2.442   9.311 -0.0238 -0.4587  0.3732
  999MOL0     C31759   7.703   2.487   9.217  0.0491 -0.1368  0.3669
  999MOL0     O31760   7.617   2.376   9.220 -0.3641  0.4727 -0.8313
  999MOL0     C31761   7.507   2.399   9.139  0.1774  0.9552 -0.2226
  999MOL0     C31762   7.480   2.518   9.076 -0.4358  0.2821 -0.1024
  999MOL0     C31763   7.361   2.533   9.012  0.3279 -0.4323 -0.3383
  999MOL0     C31764   7.261   2.439   9.005  0.5405  0.4865  0.0909
  999MOL0     C31765   7.133   2.454   8.927  0.6268 -0.3227 -0.5887
  999MOL0     O31766   7.123   2.573   8.852  0.5351 -0.0425 -0.0815
  999MOL0     C31767   7.005   2.606   8.788  0.0456  0.1007 -0.3014
  999MOL0     C31768   6.994   2.604   8.646 -0.1726 -0.0479 -0.2478
  999MOL0     C31769   6.866   2.617   8.583  0.5147 -0.5307 -0.5778
  999MOL0     C31770   6.752   2.640   8.660 -0.3035  0.1590 -0.1959
  999MOL0     O31771   6.628   2.658   8.602  0.8773  0.3759  0.2964
  999MOL0     C31772   6.613   2.698   8.460  0.4624  0.2133  0.0022
  999MOL0     C31773   6.461   2.709   8.428  0.2477  1.0289 -0.4278
  999MOL0     C31774   6.403   2.813   8.523 -0.0101  0.3459  0.0807
  999MOL0     C31775   6.279   2.874   8.465  0.9572 -1.3505  0.4732
  999MOL0     C31776   6.145   2.789   8.467 -0.3524  0.3238  0.8583
  999MOL0     C31777   6.042   2.840   8.364  0.2817 -0.1319  0.0627
  999MOL0     C31778   6.072   2.784   8.225  0.3897 -0.0266  0.5979
  999MOL0     C31779   5.994   2.868   8.128 -1.5189  0.6431  0.2025
  999MOL0    Cl31780   5.831   2.805   8.127  0.3686  0.4819  0.0641
  999MOL0     C31781   6.760   2.651   8.798 -0.6441 -0.4783 -0.2179
  999MOL0     C31782   6.890   2.632   8.861  0.5282 -0.2934  0.9362
  999MOL0     O31783   7.050   2.363   8.934 -0.0736  0.0764 -0.1969
  999MOL0     C31784   7.293   2.310   9.063 -0.5852 -0.1330 -0.7817
  999MOL0     C31785   7.419   2.292   9.124  0.5105 -0.4946 -0.5433
  999MOL0     N31786   8.230   2.283   9.153 -0.5249  0.1423  0.6193
  999MOL0     N31787   8.357   2.294   9.140 -0.0415 -0.1919  0.3103
  999MOL0     C31788   9.526   2.462   8.982  0.3710  0.1514  0.2549
  999MOL0     C31789   9.642   2.388   8.962  1.2723  0.4107  0.4213
  999MOL0     C31790   9.947   2.043   9.040  0.3382 -0.3197  0.1199
  999MOL0     C31791  10.024   2.061   8.924 -0.4717 -0.2201 -0.2708
  999MOL0     C31792  10.158   2.028   8.924  0.4129  0.7097 -0.7354
  999MOL0     C31793  10.217   1.982   9.046  0.1787 -0.6910  0.1669
  999MOL0     O31794  10.353   1.958   9.072  0.2276 -0.3070 -0.7154
  999MOL0     C31795  10.459   2.002   8.990  0.5501 -0.7350 -0.1445
  999MOL0     C31796  10.597   1.956   9.043 -0.1719  0.3070  0.5029
  999MOL0     C31797  10.617   1.810   8.996  0.5808 -0.2548 -1.1261
  999MOL0     C31798  10.725   1.736   9.089  0.5759  0.3730 -0.5389
  999MOL0     C31799  10.866   1.769   9.049 -1.0106 -0.7987 -0.7656
  999MOL0     C31800  10.977   1.821   9.026 -0.4843  0.3161  1.0367
  999MOL0     C31801  10.143   1.960   9.156 -0.2002  0.3287  0.5900
  999MOL0     C31802  10.008   1.990   9.158 -0.0775  0.7124 -0.4591
  999MOL0     H31803   9.530   2.095   9.098 -4.2927 -1.3438 -2.7007
  999MOL0     H31804   9.336   2.217   9.119 -1.1139  1.1374 -1.2999
  999MOL0     H31805   9.249   2.624   8.942 -0.6257 -0.2536  0.2528
  999MOL0     H31806   9.374   2.671   9.054 -2.5056  4.8722 -3.7753
  999MOL0     H31807   9.182   2.774   9.165  1.3500 -0.8039  2.5622
  999MOL0     H31808   9.191   2.598   9.235 -0.4576 -0.5667  0.1213
  999MOL0     H31809   9.038   2.521   9.070  0.5068 -0.2865 -0.7308
  999MOL0     H31810   9.029   2.677   8.990  0.2657 -2.0948  0.0237
  999MOL0     H31811   8.938   2.648   9.283 -2.0837  1.2660  0.7853
  999MOL0     H31812   8.920   2.783   9.169 -0.3695 -0.9679 -0.5399
  999MOL0     H31813   8.792   2.521   9.095  0.0350 -0.0109 -2.4309
  999MOL0     H31814   8.761   2.686   9.047  0.3999  0.6281  0.8889
  999MOL0     H31815   8.675   2.741   9.279  1.6513  0.1687 -0.0955
  999MOL0     H31816   8.721   2.579   9.335 -3.9130 -4.5259 -0.4200
  999MOL0     H31817   8.457   2.631   9.265  0.2945  0.8244  0.2519
  999MOL0     H31818   8.518   2.581   9.114  1.0949 -2.6787 -0.2954
  999MOL0     H31819   8.569   2.405   9.364  1.0984  1.3758 -0.3946
  999MOL0     H31820   8.614   2.372   9.200 -1.0686  0.6447 -1.1157
  999MOL0     H31821   8.320   2.469   9.410  0.7208  0.4937 -0.2559
  999MOL0     H31822   8.073   2.424   9.422 -1.1810 -1.3112 -0.4634
  999MOL0     H31823   8.019   2.267   9.380 -0.4200 -0.2417 -1.5391
  999MOL0     H31824   7.928   2.329   9.174  0.3508 -0.4316  0.5761
  999MOL0     H31825   7.974   2.504   9.197 -1.7802  1.2923  1.8942
  999MOL0     H31826   7.772   2.356   9.367 -1.6775  0.8238  1.2567
  999MOL0     H31827   7.824   2.520   9.387 -3.7350 -0.7041  1.4459
  999MOL0     H31828   7.746   2.513   9.120 -0.3598 -1.7684 -0.2837
  999MOL0     H31829   7.645   2.569   9.261 -0.8001 -1.3950  1.7046
  999MOL0     H31830   7.553   2.598   9.074 -1.0567  0.8496 -0.2753
  999MOL0     H31831   7.353   2.624   8.954  2.9738 -1.1057 -1.9549
  999MOL0     H31832   7.078   2.598   8.578 -0.0071  0.8972 -0.1399
  999MOL0     H31833   6.867   2.625   8.475  1.9043 -0.5347 -0.5774
  999MOL0     H31834   6.649   2.613   8.401  1.5340 -1.6902  3.1680
  999MOL0     H31835   6.667   2.791   8.441 -0.1416  0.6702  0.4686
  999MOL0     H31836   6.412   2.612   8.441  1.9951  0.2591  0.8167
  999MOL0     H31837   6.442   2.732   8.323  0.5806 -0.7610 -0.9162
  999MOL0     H31838   6.485   2.883   8.541  0.9543 -1.0945  1.5992
  999MOL0     H31839   6.382   2.778   8.624  2.1998  1.2887  0.9422
  999MOL0     H31840   6.256   2.964   8.523 -1.0905  0.2714 -2.5633
  999MOL0     H31841   6.298   2.908   8.363 -2.3090 -0.1079  0.1593
  999MOL0     H31842   6.093   2.798   8.563 -1.7809 -0.2847  0.1656
  999MOL0     H31843   6.165   2.682   8.457  2.1845  0.8702 -0.6477
  999MOL0     H31844   6.039   2.949   8.372  1.2882 -0.1121  0.3926
  999MOL0     H31845   5.946   2.809   8.405 -1.0229  2.0491 -1.1990
  999MOL0     H31846   6.181   2.786   8.210  0.3136 -0.3840 -0.0407
  999MOL0     H31847   6.046   2.679   8.213  0.3987 -0.0734  0.9590
  999MOL0     H31848   6.043   2.838   8.035 -1.5444  0.0716  0.3643
  999MOL0     H31849   5.996   2.975   8.147 -2.6810  0.6109  0.6085
  999MOL0     H31850   6.670   2.672   8.856 -0.7688 -1.1486 -0.1602
  999MOL0     H31851   6.901   2.633   8.969  1.3529  3.8728  0.9835
  999MOL0     H31852   7.223   2.227   9.061  0.7904 -1.3303 -0.7571
  999MOL0     H31853   7.433   2.197   9.174 -1.0074 -0.7534 -0.5645
  999MOL0     H31854   9.515   2.567   8.958 -4.0500 -0.5305 -1.6854
  999MOL0     H31855   9.717   2.434   8.898 -0.4998  0.4817 -1.7397
  999MOL0     H31856   9.981   2.104   8.835 -0.2403 -2.6770 -1.6679
  999MOL0     H31857  10.218   2.032   8.834  1.2516 -2.6280 -0.4409
  999MOL0     H31858  10.452   2.111   8.990  0.5683 -0.7180  1.0686
  999MOL0     H31859  10.447   1.957   8.891  0.1142  0.5740 -0.7059
  999MOL0     H31860  10.678   2.014   8.998 -0.3372 -0.6359 -1.0990
  999MOL0     H31861  10.598   1.978   9.150 -1.6617  1.6305  0.2757
  999MOL0     H31862  10.650   1.810   8.892  2.2682 -2.9466 -0.7109
  999MOL0     H31863  10.524   1.759   9.024 -0.3981  2.4210  0.8902
  999MOL0     H31864  10.715   1.758   9.196 -1.9712 -0.7976 -0.4539
  999MOL0     H31865  10.709   1.628   9.083 -2.6669  0.5819  1.6007
  999MOL0     H31866  11.069   1.851   8.980 -0.5963 -0.9146 -0.0631
  999MOL0     H31867  10.195   1.917   9.241  2.4255  2.0472 -0.0303
  999MOL0     H31868   9.942   1.968   9.241 -0.0220 -1.5315 -0.9593
 1000MOL0     O31869   2.565   5.814   3.886  0.6395 -0.4266 -0.3207
 1000MOL0     C31870   2.656   5.845   3.961  0.9649 -0.0853 -0.3696
 1000MOL0     O31871   2.646   5.874   4.091  0.3165  0.4727 -0.6814
 1000MOL0     C31872   2.525   5.883   4.158  0.3766  0.1536 -0.4651
 1000MOL0     C31873   2.415   5.794   4.151  0.6588  0.2025  0.0626
 1000MOL0     C31874   2.296   5.816   4.224  0.3381 -0.1579 -0.2854
 1000MOL0     C31875   2.282   5.930   4.304  0.1082  0.6600  1.2354
 1000MOL0     O31876   2.160   5.945   4.359 -0.5141  0.6457  0.1302
 1000MOL0     C31877   2.106   6.084   4.396 -0.4612  0.3058 -0.4474
 1000MOL0     C31878   1.968   6.047   4.457 -0.5096  0.3537 -0.0976
 1000MOL0     C31879   1.848   6.031   4.360  1.3360 -0.8676 -0.3284
 1000MOL0     C31880   1.733   6.005   4.459 -0.3535 -0.0580  0.3818
 1000MOL0     C31881   1.611   5.964   4.378  0.2304  0.6226 -0.0036
 1000MOL0     C31882   1.543   6.061   4.281  0.7105 -0.2753  0.2315
 1000MOL0     C31883   1.516   6.195   4.353 -0.5824 -0.1209  0.4104
 1000MOL0     C31884   1.396   6.279   4.293 -0.0781 -0.1679 -0.1347
 1000MOL0     N31885   1.266   6.205   4.304 -0.7317 -0.7736 -0.3402
 1000MOL0     C31886   1.224   6.106   4.231  1.0172  0.2380  0.0422
 1000MOL0     C31887   1.096   6.094   4.267  0.5104 -0.9212  0.1452
 1000MOL0     C31888   1.006   6.011   4.183  0.9746 -0.9751  0.3310
 1000MOL0     C31889   0.870   6.069   4.138 -0.3219  0.0625  0.0833
 1000MOL0     C31890   0.885   6.185   4.047 -0.0571 -0.4272  0.2873
 1000MOL0     C31891   0.757   6.261   4.063  0.2500 -0.0161  0.4017
 1000MOL0     O31892   0.738   6.356   3.956 -0.0147  1.0275  0.1778
 1000MOL0     C31893   0.623   6.421   3.963 -0.2064  0.2491  0.6489
 1000MOL0     C31894   0.633   6.558   3.963 -0.1987  0.3597  0.5421
 1000MOL0     C31895   0.517   6.639   3.954 -0.3966 -0.1376 -0.7216
 1000MOL0     C31896   0.393   6.577   3.934  0.1895  0.7693 -0.1003
 1000MOL0     C31897   0.269   6.647   3.925  0.8064 -1.0687  0.5022
 1000MOL0     O31898   0.148   6.570   3.937 -0.5619 -0.0295 -0.3771
 1000MOL0     C31899   0.037   6.644   3.971 -0.0408 -0.1885 -0.3956
 1000MOL0     C31900  -0.060   6.682   3.882  0.4128 -0.3706  0.0225
 1000MOL0     C31901  -0.174   6.752   3.932 -0.5531  0.1887  0.9646
 1000MOL0     C31902  -0.178   6.794   4.065 -0.3903 -0.1167 -0.3385
 1000MOL0     O31903  -0.279   6.867   4.119  0.2893 -0.1291 -0.5944
 1000MOL0     C31904  -0.381   6.929   4.027 -0.5101 -0.0838 -0.0852
 1000MOL0     C31905  -0.481   7.008   4.113 -0.6672 -1.2644  0.4783
 1000MOL0     C31906  -0.540   6.914   4.232 -0.3107 -0.2897 -0.4818
 1000MOL0     C31907  -0.442   6.871   4.350 -0.4266 -0.7817 -0.1209
 1000MOL0     C31908  -0.509   6.874   4.483 -0.2034 -0.1800  0.0738
 1000MOL0     C31909  -0.608   6.752   4.498 -0.6334 -0.2119 -0.5026
 1000MOL0     C31910  -0.659   6.734   4.640  0.5261 -1.3425 -0.2801
 1000MOL0     C31911  -0.737   6.839   4.716 -0.2085 -0.1438 -0.8643
 1000MOL0    Cl31912  -0.869   6.895   4.610  0.5287 -0.4114 -0.2895
 1000MOL0     C31913  -0.078   6.756   4.158 -0.0755 -0.3083  0.7367
 1000MOL0     C31914   0.029   6.680   4.110  0.5353  0.4656 -0.5382
 1000MOL0     O31915   0.267   6.769   3.906  0.1583 -0.7095  0.6693
 1000MOL0     C31916   0.389   6.436   3.932  0.1268  0.3229  0.9938
 1000MOL0     C31917   0.506   6.357   3.956  0.1635  0.3230  0.1922
 1000MOL0     N31918   1.070   6.164   4.376 -0.3301 -0.4405 -0.9341
 1000MOL0     N31919   1.180   6.233   4.402  1.1026  1.0031 -0.4028
 1000MOL0     C31920   2.390   6.014   4.317 -0.4920 -0.6454 -0.1937
 1000MOL0     C31921   2.513   5.995   4.244 -0.2783 -0.1326 -0.1452
 1000MOL0     C31922   2.792   5.856   3.903  0.4911 -0.1275  0.7085
 1000MOL0     C31923   2.812   5.807   3.771 -0.3711 -0.3022 -1.1077
 1000MOL0     C31924   2.933   5.805   3.713 -0.4507 -0.0253 -1.2501
 1000MOL0     C31925   3.045   5.854   3.785 -0.1668  0.5004  1.0503
 1000MOL0     O31926   3.172   5.865   3.725  0.4687 -0.0702 -0.2080
 1000MOL0     C31927   3.228   5.749   3.668 -0.2673  0.5459  0.5367
 1000MOL0     C31928   3.338   5.789   3.573 -0.9813  0.0514 -0.8244
 1000MOL0     C31929   3.454   5.863   3.637  0.0017  0.1131 -0.8854
 1000MOL0     C31930   3.587   5.848   3.559 -0.1054  0.1823  0.2031
 1000MOL0     C31931   3.589   5.933   3.442 -0.0241 -1.1304 -0.0234
 1000MOL0     C31932   3.595   6.011   3.352  0.7682 -0.5572  0.1645
 1000MOL0     C31933   3.024   5.905   3.912 -0.0106  0.0899 -0.8394
 1000MOL0     C31934   2.902   5.909   3.969 -0.5088  0.8825  0.0341
 1000MOL0     H31935   2.425   5.695   4.106  1.1762  0.9969 -1.6616
 1000MOL0     H31936   2.224   5.734   4.221 -1.8990  1.7354 -0.9919
 1000MOL0     H31937   2.081   6.152   4.314 -0.1193 -0.1236 -0.9182
 1000MOL0     H31938   2.168   6.139   4.467 -0.8123 -0.7555  0.7264
 1000MOL0     H31939   1.939   6.110   4.542  1.5602  0.9971  0.1703
 1000MOL0     H31940   1.989   5.951   4.506  0.7850  0.6016 -0.1405
 1000MOL0     H31941   1.849   5.956   4.280 -1.2774  0.1420 -1.3924
 1000MOL0     H31942   1.824   6.127   4.315 -1.2839 -0.2259  2.1626
 1000MOL0     H31943   1.743   5.920   4.527  0.0848  0.3333  0.8018
 1000MOL0     H31944   1.724   6.089   4.528 -0.0739  2.6167 -2.6158
 1000MOL0     H31945   1.531   5.926   4.442 -2.4217 -0.0866 -3.4514
 1000MOL0     H31946   1.640   5.880   4.315  1.3914 -0.4504  1.8609
 1000MOL0     H31947   1.458   6.008   4.237  2.0407 -1.1734 -1.3863
 1000MOL0     H31948   1.622   6.082   4.209  2.4491 -1.5018  1.6889
 1000MOL0     H31949   1.499   6.167   4.457 -1.1106  0.6541  0.5386
 1000MOL0     H31950   1.605   6.258   4.347 -1.9684  1.7719 -2.4710
 1000MOL0     H31951   1.401   6.285   4.184 -0.4778 -0.2627 -0.1623
 1000MOL0     H31952   1.388   6.375   4.346  1.2203  0.1955 -0.5862
 1000MOL0     H31953   1.284   6.066   4.149  0.2852 -3.1462  0.9972
 1000MOL0     H31954   0.970   5.929   4.246 -0.8909 -0.4550 -0.0005
 1000MOL0     H31955   1.071   5.969   4.106  3.5308  0.1570  1.7307
 1000MOL0     H31956   0.827   6.100   4.234  2.1810  1.9272  0.6951
 1000MOL0     H31957   0.828   5.978   4.094  1.9447 -0.0476 -2.0522
 1000MOL0     H31958   0.969   6.253   4.064  0.5794 -1.3515  0.8944
 1000MOL0     H31959   0.903   6.141   3.948 -0.1208 -1.3798  0.6917
 1000MOL0     H31960   0.757   6.307   4.162 -1.2875  1.4021 -0.2198
 1000MOL0     H31961   0.670   6.195   4.059  0.1323  0.2093 -1.6915
 1000MOL0     H31962   0.727   6.612   3.966  0.2555 -0.4578  1.5782
 1000MOL0     H31963   0.513   6.748   3.956 -0.5774 -0.0856 -2.3478
 1000MOL0     H31964  -0.069   6.648   3.779  1.2991 -0.4388 -0.0425
 1000MOL0     H31965  -0.259   6.770   3.867 -1.6313 -1.1473  1.9432
 1000MOL0     H31966  -0.430   6.846   3.976 -0.4388 -0.1336 -0.0734
 1000MOL0     H31967  -0.331   7.001   3.962 -2.9963  0.8861 -1.0594
 1000MOL0     H31968  -0.564   7.056   4.061  0.5868 -0.9042 -1.3096
 1000MOL0     H31969  -0.437   7.090   4.170 -2.6222 -0.5965  1.0966
 1000MOL0     H31970  -0.584   6.818   4.204 -3.1970 -0.0689  2.6390
 1000MOL0     H31971  -0.621   6.980   4.265  0.6954  1.1220 -0.7566
 1000MOL0     H31972  -0.379   6.784   4.332 -1.0968 -1.0142 -1.5021
 1000MOL0     H31973  -0.370   6.953   4.356 -1.1988 -0.0885 -0.0759
 1000MOL0     H31974  -0.556   6.971   4.503  3.1270  2.0139 -1.8431
 1000MOL0     H31975  -0.428   6.879   4.557  0.4582  0.6203 -0.6908
 1000MOL0     H31976  -0.567   6.660   4.455 -0.6182 -2.4701  3.8358
 1000MOL0     H31977  -0.694   6.777   4.435 -1.5840  1.8494  1.4776
 1000MOL0     H31978  -0.726   6.648   4.632 -0.4350 -0.5323 -1.1541
 1000MOL0     H31979  -0.574   6.692   4.695  0.0769 -4.4446 -1.7342
 1000MOL0     H31980  -0.669   6.922   4.739 -2.5020  2.7162 -3.5013
 1000MOL0     H31981  -0.779   6.789   4.803 -1.4160 -0.7077 -1.7435
 1000MOL0     H31982  -0.080   6.773   4.265  1.0530 -2.4270  1.1584
 1000MOL0     H31983   0.105   6.641   4.177  1.2787 -2.0803 -2.6678
 1000MOL0     H31984   0.297   6.379   3.924  0.4406 -0.1011  0.2817
 1000MOL0     H31985   0.494   6.250   3.952  0.5788  0.2760  0.1435
 1000MOL0     H31986   2.380   6.106   4.375  1.8675 -1.6329  1.9749
 1000MOL0     H31987   2.605   6.047   4.267  0.4895 -2.3914  2.3542
 1000MOL0     H31988   2.735   5.755   3.714 -0.6631  0.3591 -1.3205
 1000MOL0     H31989   2.940   5.756   3.616  0.3811  0.2859 -1.3567
 1000MOL0     H31990   3.147   5.704   3.611 -0.1088  1.9194 -0.8260
 1000MOL0     H31991   3.256   5.684   3.752  1.0904  0.2803 -0.0992
 1000MOL0     H31992   3.368   5.696   3.523  0.7224 -0.1580  0.5004
 1000MOL0     H31993   3.289   5.850   3.496 -2.1352  0.4368  0.1847
 1000MOL0     H31994   3.486   5.808   3.726  3.1991 -0.8331 -2.4512
 1000MOL0     H31995   3.426   5.968   3.648 -1.4320 -0.2652 -0.6869
 1000MOL0     H31996   3.668   5.885   3.623 -2.8615  1.6606  3.1206
 1000MOL0     H31997   3.601   5.743   3.532 -2.5834 -0.6849  1.9269
 1000MOL0     H31998   3.607   6.079   3.270  3.8445 -1.8610 -0.6091
 1000MOL0     H31999   3.113   5.945   3.961  1.1189  0.1695 -2.8390
 1000MOL0     H32000   2.890   5.960   4.065 -2.7162 -0.9249  0.7884
 1001MOL0     O32001   8.536   6.817   0.418 -0.7958  0.8142 -0.5157
 1001MOL0     C32002   8.648   6.846   0.473  0.4170  0.0669 -0.0073
 1001MOL0     O32003   8.661   6.906   0.595  0.9064 -0.3272 -0.2450
 1001MOL0     C32004   8.544   6.953   0.647 -0.0457  1.0445 -0.2033
 1001MOL0     C32005   8.513   7.086   0.660  0.6623  0.7938  0.3451
 1001MOL0     C32006   8.415   7.123   0.755  0.5047  0.3563 -0.4074
 1001MOL0     C32007   8.349   7.026   0.835 -0.6023  0.2490 -0.2109
 1001MOL0     O32008   8.260   7.079   0.918 -0.7721  0.2754 -0.4190
 1001MOL0     C32009   8.190   6.996   1.020  0.4070  0.0937 -0.5673
 1001MOL0     C32010   8.092   7.081   1.100 -0.8366 -0.3659 -0.0831
 1001MOL0     C32011   8.150   7.223   1.130  0.4105  0.4767  0.4666
 1001MOL0     C32012   8.041   7.326   1.164 -0.7911  0.1945  0.0905
 1001MOL0     C32013   8.100   7.468   1.146 -0.6892 -0.1618 -0.0976
 1001MOL0     C32014   8.000   7.568   1.207 -0.1921 -0.3548 -0.1803
 1001MOL0     C32015   8.037   7.712   1.194  0.1096  0.1694  0.1657
 1001MOL0     C32016   8.150   7.753   1.294 -0.0450 -0.2224 -0.0047
 1001MOL0     N32017   8.106   7.821   1.416  0.4059  0.4363  0.4754
 1001MOL0     C32018   8.061   7.756   1.534 -1.2210  0.0660  0.6815
 1001MOL0     C32019   8.000   7.851   1.603  0.3155 -0.3510 -0.5405
 1001MOL0     C32020   7.928   7.834   1.735  0.6084 -0.1990  0.4620
 1001MOL0     C32021   7.801   7.915   1.751  0.4708  0.0220 -0.2067
 1001MOL0     C32022   7.741   7.905   1.890  0.7652 -0.1971  0.3356
 1001MOL0     C32023   7.598   7.961   1.902 -0.1015 -0.0699 -0.2330
 1001MOL0     O32024   7.500   7.861   1.856 -0.0027 -0.4507 -0.2812
 1001MOL0     C32025   7.428   7.894   1.756 -0.2988 -0.6494  0.2691
 1001MOL0     C32026   7.410   7.790   1.657  0.5668 -0.2036  0.0245
 1001MOL0     C32027   7.346   7.821   1.537  0.0475  0.3177 -1.1551
 1001MOL0     C32028   7.280   7.946   1.524 -0.8187 -0.6056  0.8910
 1001MOL0     C32029   7.205   7.978   1.402  0.4059 -0.3845  0.3940
 1001MOL0     O32030   7.184   7.874   1.320  0.5633 -0.5412  0.1579
 1001MOL0     C32031   7.127   7.905   1.196  0.0379 -0.4227  0.1996
 1001MOL0     C32032   6.991   7.936   1.186 -0.2595  0.6521  0.2187
 1001MOL0     C32033   6.932   7.961   1.066 -0.0449  0.8305 -0.2541
 1001MOL0     C32034   7.002   7.972   0.949 -0.1291  0.5817 -0.9986
 1001MOL0     O32035   6.933   8.011   0.837 -0.0362 -0.0713  0.0670
 1001MOL0     C32036   6.991   7.994   0.707  0.6972  0.1268 -0.1030
 1001MOL0     C32037   7.071   8.116   0.669  0.0342 -0.3184  0.0449
 1001MOL0     C32038   7.181   8.079   0.553  0.2551  0.5481 -0.6414
 1001MOL0     C32039   7.310   8.159   0.586 -0.0456  0.0816 -0.6518
 1001MOL0     C32040   7.428   8.139   0.486 -0.1469  1.0892 -0.6937
 1001MOL0     C32041   7.453   7.988   0.453 -0.4611 -0.3642 -0.3318
 1001MOL0     C32042   7.564   7.974   0.340  0.0290 -0.1716 -0.1759
 1001MOL0     C32043   7.641   7.843   0.345 -0.0660  0.1908 -0.5402
 1001MOL0    Cl32044   7.528   7.708   0.349  0.0634  0.0697 -0.2357
 1001MOL0     C32045   7.136   7.943   0.955  0.1637 -0.3555  0.4446
 1001MOL0     C32046   7.198   7.907   1.081  0.6858 -0.8269 -0.2021
 1001MOL0     O32047   7.177   8.099   1.379  0.0515  0.0037 -0.4615
 1001MOL0     C32048   7.282   8.029   1.627 -0.1980 -0.5832 -1.0926
 1001MOL0     C32049   7.356   8.010   1.743  0.4120  0.5626  0.1409
 1001MOL0     N32050   8.001   7.978   1.532 -0.4568  0.3985 -0.2973
 1001MOL0     N32051   8.077   7.959   1.424 -0.0838  0.2822 -0.2181
 1001MOL0     C32052   8.373   6.892   0.811 -1.0385  0.2181  0.3839
 1001MOL0     C32053   8.466   6.851   0.718 -0.9106 -0.3799 -0.2413
 1001MOL0     C32054   8.772   6.814   0.405 -0.6091  0.4269 -0.5770
 1001MOL0     C32055   8.771   6.728   0.298 -0.6269 -0.4230  0.3544
 1001MOL0     C32056   8.889   6.710   0.228  0.9501 -0.2865  0.5012
 1001MOL0     C32057   9.012   6.762   0.267 -0.1485 -0.4950  0.7077
 1001MOL0     O32058   9.119   6.718   0.200  0.2181  0.2835 -0.3115
 1001MOL0     C32059   9.241   6.808   0.205 -0.2079 -1.1325 -0.3417
 1001MOL0     C32060   9.334   6.752   0.104  0.2176 -0.8867  0.4205
 1001MOL0     C32061   9.454   6.852   0.092 -0.2521  0.9880 -0.2242
 1001MOL0     C32062   9.568   6.799   0.013  1.0707 -0.7387 -0.2402
 1001MOL0     C32063   9.601   6.663   0.059 -0.3585  0.1939  0.0075
 1001MOL0     C32064   9.628   6.548   0.082 -0.1937  0.6006 -0.3125
 1001MOL0     C32065   9.015   6.845   0.377 -0.6995  0.6704  0.3534
 1001MOL0     C32066   8.895   6.870   0.448 -0.8996 -0.8714  0.0662
 1001MOL0     H32067   8.576   7.156   0.606 -0.0892  1.3421  0.1519
 1001MOL0     H32068   8.392   7.226   0.781  1.9127  0.9663 -1.4123
 1001MOL0     H32069   8.256   6.935   1.082  0.4265 -0.3055 -0.9745
 1001MOL0     H32070   8.125   6.924   0.969  4.1304 -1.9930 -2.7821
 1001MOL0     H32071   8.041   7.043   1.189 -0.7962  1.1606  0.6249
 1001MOL0     H32072   8.006   7.100   1.035  0.3697  3.3565 -0.8360
 1001MOL0     H32073   8.192   7.266   1.039 -0.3592 -0.1753 -0.2116
 1001MOL0     H32074   8.227   7.224   1.207  0.8960  1.7929 -0.0040
 1001MOL0     H32075   7.944   7.306   1.117  0.1782 -1.2457 -1.3904
 1001MOL0     H32076   8.038   7.317   1.273  2.4020 -0.0670  0.2383
 1001MOL0     H32077   8.110   7.487   1.039 -2.4121  2.1983  0.0852
 1001MOL0     H32078   8.193   7.485   1.201 -0.8049 -1.4102  0.5067
 1001MOL0     H32079   7.991   7.542   1.313  0.0853  0.3677  0.0244
 1001MOL0     H32080   7.909   7.554   1.148  1.6835 -0.4993 -3.2818
 1001MOL0     H32081   8.052   7.733   1.088 -4.3814 -1.9220 -1.0953
 1001MOL0     H32082   7.953   7.777   1.219  0.7867  1.1889 -0.1324
 1001MOL0     H32083   8.221   7.817   1.242 -0.5543  2.0680  1.9744
 1001MOL0     H32084   8.195   7.664   1.339 -1.7972 -1.2429 -0.1618
 1001MOL0     H32085   8.077   7.652   1.563  1.5104  0.1866 -0.1259
 1001MOL0     H32086   7.996   7.855   1.818  1.9350  0.4384 -0.7484
 1001MOL0     H32087   7.904   7.727   1.734 -2.2444  0.3424  0.2039
 1001MOL0     H32088   7.727   7.889   1.675  1.0215 -2.0651 -0.0948
 1001MOL0     H32089   7.824   8.020   1.735  2.3973  0.1736  2.8622
 1001MOL0     H32090   7.727   7.801   1.920 -0.4144 -0.9256 -2.4011
 1001MOL0     H32091   7.800   7.963   1.962 -1.0534 -0.0497  1.7868
 1001MOL0     H32092   7.595   8.056   1.847  0.1866 -0.3083 -0.6617
 1001MOL0     H32093   7.573   7.992   2.004  0.4875  1.8623 -0.6213
 1001MOL0     H32094   7.466   7.698   1.671  1.1349  0.0593 -0.4760
 1001MOL0     H32095   7.335   7.749   1.457 -1.6284 -1.4075  0.5299
 1001MOL0     H32096   6.936   7.944   1.280  0.1191 -1.8356  0.7445
 1001MOL0     H32097   6.824   7.973   1.066  0.0600  1.9519  0.6363
 1001MOL0     H32098   6.910   7.977   0.636  0.8593 -2.3485  0.2027
 1001MOL0     H32099   7.059   7.908   0.698  0.8810  0.0693  1.4666
 1001MOL0     H32100   7.131   8.142   0.757 -4.5620  1.9173  2.9566
 1001MOL0     H32101   7.001   8.200   0.654 -1.7590 -1.6940  0.3527
 1001MOL0     H32102   7.144   8.101   0.453 -3.5398 -0.1755  0.4231
 1001MOL0     H32103   7.205   7.972   0.558  1.6035  0.6818 -3.1983
 1001MOL0     H32104   7.289   8.266   0.574  2.7574  0.9124  0.8799
 1001MOL0     H32105   7.343   8.154   0.690 -0.3075 -0.8418 -0.6069
 1001MOL0     H32106   7.515   8.192   0.524  1.0402 -0.9402 -0.4108
 1001MOL0     H32107   7.390   8.183   0.394 -1.2344 -0.3383 -0.9715
 1001MOL0     H32108   7.363   7.945   0.408 -1.6179 -0.2668  1.7479
 1001MOL0     H32109   7.484   7.938   0.545 -1.4832  0.4847  0.4826
 1001MOL0     H32110   7.519   7.976   0.240  1.6718 -2.7809 -1.0516
 1001MOL0     H32111   7.641   8.052   0.349  1.6711 -0.8736 -5.0650
 1001MOL0     H32112   7.716   7.839   0.426  0.3819 -1.8287 -1.0098
 1001MOL0     H32113   7.702   7.837   0.254  1.3425 -0.7219  0.4168
 1001MOL0     H32114   7.194   7.957   0.864  1.1913  2.3118  1.4141
 1001MOL0     H32115   7.299   7.866   1.085  1.2799  0.5861  3.0728
 1001MOL0     H32116   7.228   8.123   1.623 -1.3364 -0.5858  4.6156
 1001MOL0     H32117   7.344   8.090   1.815 -0.6366 -0.3961  1.0901
 1001MOL0     H32118   8.315   6.810   0.853 -2.2648 -0.7506 -2.9092
 1001MOL0     H32119   8.476   6.744   0.703 -1.7103 -0.4289 -0.4825
 1001MOL0     H32120   8.683   6.675   0.265 -0.5963  0.1868 -0.7665
 1001MOL0     H32121   8.891   6.636   0.148  2.8562 -0.3674  0.5748
 1001MOL0     H32122   9.297   6.803   0.298 -0.0078 -0.5775 -0.4280
 1001MOL0     H32123   9.218   6.914   0.195  2.6388 -0.3936  0.3505
 1001MOL0     H32124   9.356   6.653   0.146 -0.2194  0.6689  4.9039
 1001MOL0     H32125   9.281   6.742   0.009  0.5186 -0.1267  0.1687
 1001MOL0     H32126   9.488   6.881   0.193 -0.0484 -1.5019  0.4913
 1001MOL0     H32127   9.413   6.937   0.036 -2.5864 -0.0906 -0.2681
 1001MOL0     H32128   9.536   6.797  -0.092 -1.7733 -2.3810  0.5400
 1001MOL0     H32129   9.643   6.877   0.028 -1.2425  1.4185  0.8090
 1001MOL0     H32130   9.651   6.444   0.085  2.5537  1.1662  1.1154
 1001MOL0     H32131   9.111   6.879   0.415 -0.8042  2.1664 -0.6060
 1001MOL0     H32132   8.901   6.928   0.539  1.5023 -1.5099  0.3737
 1002MOL0     O32133   5.377   9.654   6.344 -0.5444  0.5109  0.0887
 1002MOL0     C32134   5.310   9.663   6.242 -0.3418  0.1303 -0.1514
 1002MOL0     O32135   5.340   9.722   6.120 -0.3991  0.5953  0.2475
 1002MOL0     C32136   5.456   9.785   6.089 -0.8505  0.2797  0.0318
 1002MOL0     C32137   5.575   9.757   6.158 -0.4105  0.6515 -0.3141
 1002MOL0     C32138   5.699   9.820   6.117  0.0539  0.1874 -0.4052
 1002MOL0     C32139   5.699   9.906   6.002  0.1113 -0.5440 -0.4844
 1002MOL0     O32140   5.807   9.981   5.965  0.3049 -0.0082 -1.7991
 1002MOL0     C32141   5.874   9.937   5.844 -0.6350 -0.6862  0.1234
 1002MOL0     C32142   5.901  10.054   5.746  0.1804  0.0931 -0.2181
 1002MOL0     C32143   6.020  10.026   5.652 -0.5987 -0.1429  0.5283
 1002MOL0     C32144   6.046  10.152   5.565 -0.2469  0.8485  0.5735
 1002MOL0     C32145   6.192  10.152   5.518  0.0533  0.1221  0.6894
 1002MOL0     C32146   6.233  10.041   5.414  0.5857  0.0411 -0.3698
 1002MOL0     C32147   6.368  10.063   5.354 -0.0213  1.0601  0.2740
 1002MOL0     C32148   6.401   9.975   5.230  1.2165 -0.7463 -0.5285
 1002MOL0     N32149   6.394   9.842   5.257  0.4043  0.8135 -0.2083
 1002MOL0     C32150   6.346   9.751   5.158 -0.5216  0.7518 -0.0195
 1002MOL0     C32151   6.379   9.625   5.211  0.5191 -0.3601 -0.4161
 1002MOL0     C32152   6.346   9.496   5.148  0.2307  1.1412 -0.4816
 1002MOL0     C32153   6.465   9.421   5.085 -0.6146 -0.0018  0.7168
 1002MOL0     C32154   6.568   9.359   5.186  0.1625 -0.9936  0.8175
 1002MOL0     C32155   6.670   9.274   5.117  0.1327  0.6574 -0.2867
 1002MOL0     O32156   6.622   9.186   5.016 -0.1737 -0.4227 -0.1352
 1002MOL0     C32157   6.698   9.092   4.965 -0.2668  0.0745 -0.2011
 1002MOL0     C32158   6.820   9.042   5.021  0.2838 -0.8216  0.1758
 1002MOL0     C32159   6.896   8.940   4.959 -0.9180 -0.0447 -0.2163
 1002MOL0     C32160   6.854   8.878   4.839  0.0529 -0.7763  0.1024
 1002MOL0     C32161   6.932   8.763   4.776  0.0219  0.3455  0.1232
 1002MOL0     O32162   6.869   8.680   4.686 -0.3637  0.1902  0.0457
 1002MOL0     C32163   6.906   8.554   4.668 -0.3974  0.0199  0.0040
 1002MOL0     C32164   7.039   8.502   4.674  0.0016 -1.6034  0.0856
 1002MOL0     C32165   7.072   8.374   4.628  0.3231 -0.7366 -1.1994
 1002MOL0     C32166   6.980   8.293   4.571 -0.0993 -0.7300  0.2823
 1002MOL0     O32167   7.027   8.177   4.524 -0.4462  0.0055 -0.5170
 1002MOL0     C32168   6.940   8.073   4.487  0.0422 -0.4922  0.2378
 1002MOL0     C32169   7.017   7.959   4.417  0.8117 -0.3161 -0.0631
 1002MOL0     C32170   7.092   8.005   4.277  0.1256 -0.6324 -0.1677
 1002MOL0     C32171   7.151   7.877   4.198 -0.1566  0.7166 -0.3936
 1002MOL0     C32172   7.293   7.859   4.260 -0.5148 -0.1786 -0.1835
 1002MOL0     C32173   7.386   7.794   4.162  0.1397  0.3913  0.3045
 1002MOL0     C32174   7.529   7.840   4.177 -0.8953 -0.4521  0.2828
 1002MOL0     C32175   7.633   7.753   4.099 -0.2064 -0.4204  0.4070
 1002MOL0    Cl32176   7.581   7.751   3.922 -0.6981  0.3248  0.4637
 1002MOL0     C32177   6.853   8.342   4.557  0.4569 -0.1578 -0.5030
 1002MOL0     C32178   6.817   8.466   4.613  0.7375  0.0851  0.4053
 1002MOL0     O32179   7.045   8.753   4.821  0.1232  0.4420  0.7584
 1002MOL0     C32180   6.734   8.922   4.789  0.1921 -0.7703  0.4976
 1002MOL0     C32181   6.660   9.027   4.842  0.8527 -1.0133  0.1153
 1002MOL0     N32182   6.449   9.645   5.330 -1.3726  1.1041  0.2979
 1002MOL0     N32183   6.463   9.777   5.358  0.5119  0.3846  0.8775
 1002MOL0     C32184   5.575   9.932   5.936 -0.4408  0.3643 -0.0939
 1002MOL0     C32185   5.454   9.867   5.980 -0.0927 -0.3942 -0.5050
 1002MOL0     C32186   5.177   9.617   6.273  0.2652  0.3531  0.4925
 1002MOL0     C32187   5.068   9.662   6.196  0.0540  0.6068 -0.0188
 1002MOL0     C32188   4.933   9.608   6.203 -0.1838  0.1779 -0.1878
 1002MOL0     C32189   4.908   9.510   6.298  0.6273  0.3466  0.6767
 1002MOL0     O32190   4.781   9.464   6.295 -0.2519 -0.5864  0.1306
 1002MOL0     C32191   4.736   9.364   6.385  0.3381  0.0697  1.1508
 1002MOL0     C32192   4.593   9.342   6.323 -0.1833 -0.2061  0.3844
 1002MOL0     C32193   4.493   9.452   6.361 -0.2633 -0.4894  0.4173
 1002MOL0     C32194   4.369   9.477   6.279  0.7940 -0.0025 -0.2261
 1002MOL0     C32195   4.402   9.508   6.139  0.0589 -0.1874 -0.4438
 1002MOL0     C32196   4.449   9.541   6.031  0.5884 -1.1621  0.4280
 1002MOL0     C32197   5.008   9.459   6.379 -0.6355 -0.8486 -0.8461
 1002MOL0     C32198   5.144   9.515   6.362  0.2896  1.1237 -0.8769
 1002MOL0     H32199   5.581   9.676   6.230  1.5015  1.6316  0.7063
 1002MOL0     H32200   5.791   9.791   6.168 -0.5404 -2.0425 -0.4962
 1002MOL0     H32201   5.828   9.855   5.788  1.5948 -1.6063 -0.4523
 1002MOL0     H32202   5.972   9.903   5.875  1.9392  3.4915 -2.4071
 1002MOL0     H32203   5.915  10.147   5.803 -1.5417  0.3962 -0.2222
 1002MOL0     H32204   5.812  10.078   5.688 -1.1330 -1.5879  0.9999
 1002MOL0     H32205   5.998   9.943   5.583  2.2233  0.7568 -1.6381
 1002MOL0     H32206   6.101   9.998   5.719 -1.6884  1.6083  2.7015
 1002MOL0     H32207   5.977  10.159   5.480 -0.0568 -1.1049  0.1982
 1002MOL0     H32208   6.026  10.247   5.614 -0.7874 -0.1141  2.2815
 1002MOL0     H32209   6.256  10.146   5.606  0.4913 -0.5606  0.3271
 1002MOL0     H32210   6.210  10.254   5.481 -2.4356  1.2171  2.2234
 1002MOL0     H32211   6.152  10.039   5.341  0.4543  0.9136 -0.2595
 1002MOL0     H32212   6.235   9.942   5.462  0.2506 -0.6906 -1.8039
 1002MOL0     H32213   6.377  10.169   5.329 -3.0664  1.6499  1.3180
 1002MOL0     H32214   6.436  10.046   5.439 -0.8171  0.6419  0.8384
 1002MOL0     H32215   6.504  10.002   5.203  0.9922  3.8990  2.1702
 1002MOL0     H32216   6.325  10.009   5.159 -1.2822 -2.1502  1.3140
 1002MOL0     H32217   6.281   9.767   5.072 -0.0209  0.9036 -0.3720
 1002MOL0     H32218   6.281   9.514   5.061  0.0003 -0.5468 -0.6879
 1002MOL0     H32219   6.292   9.436   5.221  0.5799  3.0717  1.4476
 1002MOL0     H32220   6.523   9.475   5.009 -0.5940  1.7128  1.8837
 1002MOL0     H32221   6.419   9.338   5.031  2.9028 -1.7327  0.0935
 1002MOL0     H32222   6.617   9.439   5.241 -0.3437  0.4622 -0.7543
 1002MOL0     H32223   6.511   9.302   5.260  0.7850  1.3945  3.2907
 1002MOL0     H32224   6.713   9.221   5.201 -1.3535 -0.9343 -0.4795
 1002MOL0     H32225   6.743   9.333   5.061  2.3582 -0.2770  1.4786
 1002MOL0     H32226   6.863   9.091   5.108  1.5568 -0.3788 -0.6729
 1002MOL0     H32227   6.988   8.904   5.005 -0.3868 -1.1836 -2.0605
 1002MOL0     H32228   7.120   8.556   4.723 -1.9030  1.1219  0.4686
 1002MOL0     H32229   7.175   8.346   4.645  0.5301 -0.2468 -1.6511
 1002MOL0     H32230   6.869   8.109   4.412  0.6985 -1.6846 -1.0083
 1002MOL0     H32231   6.882   8.035   4.571 -0.5293  0.8372  0.4673
 1002MOL0     H32232   6.943   7.880   4.396 -0.3212  0.2720  1.4700
 1002MOL0     H32233   7.094   7.927   4.488 -0.5719 -0.6925  1.3252
 1002MOL0     H32234   7.167   8.075   4.315 -0.6477 -1.1487  2.5895
 1002MOL0     H32235   7.020   8.059   4.215 -2.6455  0.5499  3.6732
 1002MOL0     H32236   7.091   7.785   4.195  1.1034 -0.0933 -1.2446
 1002MOL0     H32237   7.166   7.909   4.094  0.9067  0.9101 -0.1865
 1002MOL0     H32238   7.278   7.795   4.347 -2.4421  1.7776  1.0311
 1002MOL0     H32239   7.334   7.954   4.295  1.1213 -1.3033  1.0941
 1002MOL0     H32240   7.352   7.838   4.067 -0.5355  4.7450  2.3099
 1002MOL0     H32241   7.376   7.686   4.165 -0.5601  0.4689  0.8805
 1002MOL0     H32242   7.533   7.942   4.138 -2.4217 -0.2382  0.6310
 1002MOL0     H32243   7.555   7.842   4.284  1.2676  0.1471 -0.2069
 1002MOL0     H32244   7.636   7.650   4.133 -3.0969 -1.1035 -1.0516
 1002MOL0     H32245   7.726   7.808   4.116 -0.6492  1.0405 -1.4954
 1002MOL0     H32246   6.774   8.283   4.511 -0.3061  0.9053 -0.5915
 1002MOL0     H32247   6.710   8.487   4.606  1.0567  1.5179 -0.8089
 1002MOL0     H32248   6.704   8.868   4.700 -0.5486 -1.3626  1.0894
 1002MOL0     H32249   6.564   9.056   4.802  2.2430  0.1491 -2.6472
 1002MOL0     H32250   5.565  10.008   5.860  2.5186  1.4637  0.4942
 1002MOL0     H32251   5.359   9.895   5.934 -0.9228 -0.4434  1.0927
 1002MOL0     H32252   5.081   9.741   6.122 -2.3175  1.6700  0.6023
 1002MOL0     H32253   4.865   9.639   6.124 -1.3021 -1.5940  0.0031
 1002MOL0     H32254   4.733   9.402   6.488 -1.5884 -1.8703  1.8818
 1002MOL0     H32255   4.797   9.274   6.375 -0.2856 -0.1523 -1.3941
 1002MOL0     H32256   4.603   9.345   6.214  1.3651  2.1544  0.5284
 1002MOL0     H32257   4.546   9.248   6.351 -2.0722  1.4824  3.5415
 1002MOL0     H32258   4.549   9.545   6.354  1.8148 -1.5779  1.5306
 1002MOL0     H32259   4.466   9.431   6.464 -1.6491  1.8350  0.5803
 1002MOL0     H32260   4.297   9.396   6.287  0.7204  0.2429  3.0709
 1002MOL0     H32261   4.317   9.560   6.327  2.2475  2.1004 -2.0588
 1002MOL0     H32262   4.491   9.578   5.940 -1.0413  4.2943  1.5565
 1002MOL0     H32263   4.995   9.372   6.441  0.1924 -1.6878 -1.8203
 1002MOL0     H32264   5.212   9.457   6.424 -2.3771 -1.8514 -0.4167
 1003MOL0     O32265   0.746   9.737   1.762  0.4874 -0.2178 -0.0033
 1003MOL0     C32266   0.777   9.693   1.873  0.2145  0.1957 -0.1122
 1003MOL0     O32267   0.898   9.676   1.918 -0.7498  0.2922 -0.2273
 1003MOL0     C32268   0.998   9.724   1.839  0.4634  0.6974  0.8853
 1003MOL0     C32269   1.051   9.652   1.725  1.0470  0.9514 -0.6964
 1003MOL0     C32270   1.152   9.724   1.653  0.0014 -0.4818 -0.6405
 1003MOL0     C32271   1.188   9.851   1.676 -0.0700 -0.1343  0.5211
 1003MOL0     O32272   1.285   9.911   1.595 -0.3670  0.5761 -0.0369
 1003MOL0     C32273   1.364  10.019   1.651  0.5444  0.3170  0.5822
 1003MOL0     C32274   1.512  10.022   1.619 -0.0852  0.3527 -0.3384
 1003MOL0     C32275   1.528  10.047   1.472 -0.0842  0.4924  0.4143
 1003MOL0     C32276   1.678  10.036   1.427  0.1856 -0.2826  0.0761
 1003MOL0     C32277   1.711  10.109   1.293 -0.4512  0.8236  0.4150
 1003MOL0     C32278   1.864  10.106   1.267  0.1473 -0.6927 -0.2038
 1003MOL0     C32279   1.925   9.978   1.223  0.3073  0.5365  0.5428
 1003MOL0     C32280   2.081  10.001   1.226  0.3558  0.3372 -0.4617
 1003MOL0     N32281   2.134  10.059   1.103 -0.6682  0.4766  0.7583
 1003MOL0     C32282   2.193   9.988   0.997  0.1876  0.1279 -0.5418
 1003MOL0     C32283   2.255  10.084   0.921 -0.2838 -0.3118  0.4477
 1003MOL0     C32284   2.354  10.057   0.811 -0.4158  0.3431 -0.1753
 1003MOL0     C32285   2.489  10.112   0.847  0.0679 -0.0877  0.5535
 1003MOL0     C32286   2.596  10.049   0.767 -0.8766  1.1466 -0.3240
 1003MOL0     C32287   2.732  10.127   0.780  0.0694 -0.5404 -0.5823
 1003MOL0     O32288   2.802  10.108   0.905 -0.4317  0.6502  0.2031
 1003MOL0     C32289   2.912  10.019   0.909 -1.1474 -0.3463 -1.0671
 1003MOL0     C32290   2.963   9.994   1.042  0.7126 -0.3016 -1.1262
 1003MOL0     C32291   3.079   9.922   1.059 -0.3264  0.6201  0.5257
 1003MOL0     C32292   3.155   9.878   0.951 -0.4671  0.8021 -0.7892
 1003MOL0     C32293   3.298   9.823   0.967 -0.5199  0.2468  0.0426
 1003MOL0     O32294   3.359   9.769   0.855 -0.0448 -0.0336 -0.3118
 1003MOL0     C32295   3.495   9.736   0.846  0.1165 -0.5163  0.7743
 1003MOL0     C32296   3.564   9.776   0.727 -0.8455  0.7478 -0.2203
 1003MOL0     C32297   3.705   9.768   0.725  0.2115 -0.1328 -0.3763
 1003MOL0     C32298   3.779   9.716   0.837  0.2767 -0.3848  1.1169
 1003MOL0     O32299   3.909   9.670   0.830 -0.2461  0.4841  1.0700
 1003MOL0     C32300   3.953   9.585   0.718  0.1120 -0.0142  0.2377
 1003MOL0     C32301   4.059   9.651   0.628  0.1499 -0.4999 -0.0092
 1003MOL0     C32302   4.196   9.663   0.692 -1.0599  1.2129  0.1201
 1003MOL0     C32303   4.308   9.692   0.596  0.3954  0.1711  0.1708
 1003MOL0     C32304   4.437   9.747   0.654 -0.4911  0.1464 -0.2499
 1003MOL0     C32305   4.499   9.669   0.776  0.2646 -0.0379  0.0829
 1003MOL0     C32306   4.562   9.528   0.755  0.4738 -0.0420  0.6413
 1003MOL0     C32307   4.632   9.477   0.873  0.0757  1.1113 -1.0357
 1003MOL0    Cl32308   4.748   9.351   0.847  0.1626  0.3029 -0.3692
 1003MOL0     C32309   3.703   9.676   0.945 -0.4077  0.9736 -0.7379
 1003MOL0     C32310   3.565   9.685   0.957 -0.8366  1.0025 -0.3370
 1003MOL0     O32311   3.339   9.816   1.084  0.0973  0.7077  0.0425
 1003MOL0     C32312   3.102   9.902   0.820  0.2400 -0.3858  0.4586
 1003MOL0     C32313   2.975   9.962   0.799 -0.2453  0.0185 -0.0679
 1003MOL0     N32314   2.219  10.209   0.970 -0.6375 -0.5773  0.1907
 1003MOL0     N32315   2.147  10.193   1.079  0.6226 -0.2582 -0.7358
 1003MOL0     C32316   1.124   9.917   1.778 -0.0638 -0.5870  0.8646
 1003MOL0     C32317   1.031   9.851   1.860 -0.4155 -1.0563  2.4502
 1003MOL0     C32318   0.666   9.647   1.957 -0.3456  1.0473 -0.1018
 1003MOL0     C32319   0.534   9.696   1.957 -0.7538 -0.4481  0.5592
 1003MOL0     C32320   0.437   9.650   2.043 -0.1138 -0.8865 -0.4052
 1003MOL0     C32321   0.460   9.547   2.127  0.5073 -0.3830 -0.6776
 1003MOL0     O32322   0.364   9.497   2.215  1.0274  0.5910  0.1372
 1003MOL0     C32323   0.224   9.524   2.204  0.6116  0.2026 -0.6197
 1003MOL0     C32324   0.159   9.448   2.311  0.6196  1.4696 -0.0416
 1003MOL0     C32325   0.011   9.473   2.311 -0.0187 -0.7328 -0.3659
 1003MOL0     C32326  -0.059   9.391   2.203  0.7063 -0.1301  0.2481
 1003MOL0     C32327  -0.071   9.250   2.234 -0.4471  0.5964 -1.0467
 1003MOL0     C32328  -0.087   9.138   2.282 -1.6051 -0.2184 -0.3949
 1003MOL0     C32329   0.583   9.496   2.132  0.2206 -0.2218 -0.0319
 1003MOL0     C32330   0.692   9.544   2.055 -0.9134 -0.5393 -0.6870
 1003MOL0     H32331   1.009   9.555   1.701 -2.2210  2.1729 -0.5367
 1003MOL0     H32332   1.188   9.664   1.570 -3.6872  0.4042 -3.0628
 1003MOL0     H32333   1.356  10.014   1.760 -1.9682  0.3905  0.4683
 1003MOL0     H32334   1.328  10.116   1.616 -0.8433 -1.0810 -2.1364
 1003MOL0     H32335   1.556   9.924   1.641 -0.0088  0.8772  2.1270
 1003MOL0     H32336   1.559  10.103   1.675 -1.8913  1.6488 -0.6364
 1003MOL0     H32337   1.488  10.143   1.438  1.4082  1.0034  0.0245
 1003MOL0     H32338   1.475   9.970   1.415  2.3819  0.2098 -1.6753
 1003MOL0     H32339   1.730  10.086   1.509  0.8595 -0.5574 -0.1675
 1003MOL0     H32340   1.706   9.930   1.418 -3.8490 -1.3909 -1.6925
 1003MOL0     H32341   1.673  10.210   1.278 -0.0839  0.8609 -0.3000
 1003MOL0     H32342   1.671  10.041   1.217  1.6325 -0.8388  0.7091
 1003MOL0     H32343   1.921  10.125   1.359 -1.1179 -1.8935  0.8830
 1003MOL0     H32344   1.884  10.179   1.188  0.2490  0.2048  0.6276
 1003MOL0     H32345   1.907   9.898   1.296  1.6919  1.1318  1.5909
 1003MOL0     H32346   1.892   9.944   1.125  5.0138 -2.0611 -0.4677
 1003MOL0     H32347   2.126   9.906   1.255  0.2049  0.4868  0.2901
 1003MOL0     H32348   2.098  10.070   1.309 -2.2040  2.2585 -1.3924
 1003MOL0     H32349   2.209   9.882   0.977  0.6356 -0.0468  0.6654
 1003MOL0     H32350   2.320  10.110   0.722 -2.7803  0.9887  1.0502
 1003MOL0     H32351   2.354   9.949   0.792  0.2620  0.2827  0.1151
 1003MOL0     H32352   2.510  10.114   0.955  1.3707  3.3890  0.3485
 1003MOL0     H32353   2.492  10.220   0.831  3.5117 -0.0135  1.0203
 1003MOL0     H32354   2.618   9.947   0.801 -0.3473  0.4659 -2.4923
 1003MOL0     H32355   2.584  10.041   0.658  2.7606  0.0958 -0.7881
 1003MOL0     H32356   2.712  10.233   0.761  1.2742 -0.9663 -5.5775
 1003MOL0     H32357   2.788  10.109   0.688  2.3181  2.1201  0.1335
 1003MOL0     H32358   2.895  10.024   1.121 -0.6967  0.4323 -2.5505
 1003MOL0     H32359   3.102   9.903   1.164 -0.2845  0.2048  0.4441
 1003MOL0     H32360   3.508   9.826   0.649 -0.6814  1.9039  0.3869
 1003MOL0     H32361   3.755   9.796   0.633 -0.2427 -1.9341 -1.2243
 1003MOL0     H32362   3.871   9.560   0.649  0.8682 -0.6028 -0.4731
 1003MOL0     H32363   4.001   9.494   0.753  1.8392 -0.2153 -2.3849
 1003MOL0     H32364   4.022   9.746   0.591  0.1381  0.5075  2.4033
 1003MOL0     H32365   4.068   9.590   0.538 -0.9834  1.1833 -1.3077
 1003MOL0     H32366   4.214   9.567   0.743 -0.2952  1.6749  0.7555
 1003MOL0     H32367   4.190   9.746   0.763 -1.3919  0.6051  0.8232
 1003MOL0     H32368   4.336   9.604   0.538 -0.0299 -0.7840  1.3855
 1003MOL0     H32369   4.258   9.768   0.535 -1.4180 -1.7232 -0.7778
 1003MOL0     H32370   4.420   9.846   0.697  0.1477  0.9713 -1.7879
 1003MOL0     H32371   4.508   9.762   0.572  2.9226  2.7095  2.8588
 1003MOL0     H32372   4.415   9.669   0.846 -4.1093  3.1082 -4.4329
 1003MOL0     H32373   4.578   9.733   0.817 -1.7669  1.6477  1.6116
 1003MOL0     H32374   4.485   9.456   0.726 -1.0989  2.2350 -1.2242
 1003MOL0     H32375   4.635   9.537   0.674 -0.6238  3.5120 -0.1340
 1003MOL0     H32376   4.556   9.447   0.945 -1.8245  0.5647 -3.1680
 1003MOL0     H32377   4.691   9.558   0.918 -0.2018  0.5153  0.4554
 1003MOL0     H32378   3.763   9.641   1.028 -1.3467 -0.8210 -0.7500
 1003MOL0     H32379   3.541   9.667   1.061 -1.8579  3.8130  0.0063
 1003MOL0     H32380   3.163   9.872   0.735 -1.7765 -1.0690 -0.8044
 1003MOL0     H32381   2.952   9.984   0.695  2.2555 -3.5710 -1.5979
 1003MOL0     H32382   1.144  10.021   1.798 -1.5271 -0.0713 -0.1813
 1003MOL0     H32383   0.968   9.897   1.935 -1.8045 -0.5577  1.0353
 1003MOL0     H32384   0.521   9.784   1.895 -1.1983 -1.7938 -1.3545
 1003MOL0     H32385   0.352   9.715   2.060  2.9610  3.3970  0.3027
 1003MOL0     H32386   0.177   9.502   2.107 -0.3003  0.5718 -0.2757
 1003MOL0     H32387   0.214   9.626   2.242 -1.6900 -0.8236  1.8801
 1003MOL0     H32388   0.187   9.343   2.309 -3.4662  0.1981  0.6008
 1003MOL0     H32389   0.201   9.479   2.407  1.1292  1.1845 -0.1664
 1003MOL0     H32390  -0.014   9.578   2.293 -4.6442 -1.3602  0.9652
 1003MOL0     H32391  -0.017   9.453   2.415  2.6770 -2.4229  0.1359
 1003MOL0     H32392  -0.164   9.417   2.185  0.8453  1.8206  1.9021
 1003MOL0     H32393  -0.004   9.403   2.109  0.7758 -2.3184 -0.0444
 1003MOL0     H32394  -0.088   9.038   2.320 -1.0771  0.2075  0.8004
 1003MOL0     H32395   0.615   9.411   2.191  3.0133 -0.0048 -1.0942
 1003MOL0     H32396   0.788   9.498   2.074 -0.2173  1.6083  1.4672
 1004MOL0     O32397  10.892   1.143   0.723  0.1120 -0.1083  0.3626
 1004MOL0     C32398  10.907   1.022   0.729 -0.8829 -0.7981 -0.1186
 1004MOL0     O32399  10.807   0.942   0.768  0.5324 -0.2170  0.1991
 1004MOL0     C32400  10.680   1.000   0.795  0.2906  0.5079  0.1839
 1004MOL0     C32401  10.650   1.111   0.882 -0.1336  0.0993  0.1891
 1004MOL0     C32402  10.527   1.151   0.917 -0.5060 -0.6545  0.2909
 1004MOL0     C32403  10.421   1.074   0.869 -0.5608  0.7220  0.5297
 1004MOL0     O32404  10.294   1.106   0.897  0.4394 -0.4769  0.3988
 1004MOL0     C32405  10.267   1.194   1.015  0.3402  1.0708 -0.2566
 1004MOL0     C32406  10.119   1.198   1.061  0.0460  0.3782 -0.2942
 1004MOL0     C32407  10.015   1.248   0.962 -0.1271 -0.0731 -0.3918
 1004MOL0     C32408   9.869   1.221   1.009  0.1949 -0.7535  0.7773
 1004MOL0     C32409   9.756   1.210   0.907 -0.5356 -0.4175 -0.5558
 1004MOL0     C32410   9.783   1.166   0.764 -0.3419 -0.2422 -0.2965
 1004MOL0     C32411   9.648   1.115   0.700  0.2383  0.1657 -0.3471
 1004MOL0     C32412   9.550   1.222   0.666  1.6352  0.2531 -0.1465
 1004MOL0     N32413   9.411   1.189   0.678  0.5143 -1.5683  0.0637
 1004MOL0     C32414   9.341   1.218   0.801  0.3996  0.5934  1.4997
 1004MOL0     C32415   9.239   1.130   0.797 -0.9182  0.4594 -0.7554
 1004MOL0     C32416   9.139   1.110   0.902  0.0514 -1.5796 -0.0110
 1004MOL0     C32417   9.076   0.976   0.893 -0.5801  0.6706  0.6306
 1004MOL0     C32418   8.973   0.959   1.012 -0.8139  0.6523  0.7647
 1004MOL0     C32419   8.936   0.801   1.010  0.0950 -0.7477 -0.8334
 1004MOL0     O32420   8.837   0.789   0.910  0.6547 -0.6087  0.0355
 1004MOL0     C32421   8.751   0.689   0.890  0.0219 -0.1199 -0.0369
 1004MOL0     C32422   8.661   0.704   0.781 -0.0430  0.3988 -0.3056
 1004MOL0     C32423   8.555   0.608   0.770 -0.3658 -0.0879  0.1241
 1004MOL0     C32424   8.548   0.490   0.853  0.3454  0.2485 -0.0798
 1004MOL0     C32425   8.435   0.406   0.839 -0.3147  0.5137  0.8982
 1004MOL0     O32426   8.416   0.307   0.920 -0.5731  0.6929  0.6678
 1004MOL0     C32427   8.295   0.261   0.930  0.1054  0.2743  0.1709
 1004MOL0     C32428   8.211   0.319   1.027 -0.0816 -0.3043 -0.8837
 1004MOL0     C32429   8.075   0.278   1.041 -0.6345 -0.2398 -0.3832
 1004MOL0     C32430   8.034   0.172   0.970  0.1877 -0.3094  0.2452
 1004MOL0     O32431   7.907   0.116   0.972  0.4449 -1.0253 -0.2963
 1004MOL0     C32432   7.802   0.197   1.028 -1.1321 -1.1150  0.9453
 1004MOL0     C32433   7.676   0.113   0.999  0.1586 -0.2734 -0.1396
 1004MOL0     C32434   7.546   0.188   1.028 -0.3196  0.0000  0.2458
 1004MOL0     C32435   7.551   0.257   1.163  0.2006  0.0299  0.6808
 1004MOL0     C32436   7.436   0.359   1.181  0.3986  0.2887  1.0671
 1004MOL0     C32437   7.467   0.506   1.142  0.2766  0.4932 -0.1650
 1004MOL0     C32438   7.350   0.597   1.109  0.1156 -0.0422  0.5679
 1004MOL0     C32439   7.249   0.627   1.210  0.3433  0.4433  0.4714
 1004MOL0    Cl32440   7.325   0.657   1.367 -0.0447  0.6343  0.3948
 1004MOL0     C32441   8.115   0.115   0.871 -0.2500 -0.1197 -0.5038
 1004MOL0     C32442   8.243   0.151   0.861 -0.4385  0.3573 -0.4609
 1004MOL0     O32443   8.346   0.449   0.757 -0.2011  0.1586  0.3775
 1004MOL0     C32444   8.642   0.478   0.956 -1.0960 -0.2542  0.6019
 1004MOL0     C32445   8.739   0.577   0.972 -0.4785  0.1454 -0.5396
 1004MOL0     N32446   9.241   1.067   0.673 -0.4127  0.0836  0.2048
 1004MOL0     N32447   9.335   1.108   0.603 -0.4404  0.0505 -0.4265
 1004MOL0     C32448  10.439   0.960   0.790 -0.8354  0.5305 -0.3276
 1004MOL0     C32449  10.566   0.928   0.746 -0.2155  0.3339 -0.4786
 1004MOL0     C32450  11.028   0.961   0.686 -0.3832 -0.5641 -0.7291
 1004MOL0     C32451  11.025   0.839   0.621 -1.1938  0.1215  0.7841
 1004MOL0     C32452  11.149   0.779   0.590  0.2731  0.4645  0.9708
 1004MOL0     C32453  11.270   0.838   0.624 -0.1630  0.2364 -0.6909
 1004MOL0     O32454  11.387   0.783   0.575 -0.1641 -0.8574 -0.5386
 1004MOL0     C32455  11.401   0.642   0.537  0.6800 -0.5936 -0.1194
 1004MOL0     C32456  11.545   0.597   0.554  0.0005 -0.2928  0.3678
 1004MOL0     C32457  11.613   0.611   0.691  0.9040 -0.0492  0.1898
 1004MOL0     C32458  11.756   0.557   0.712  0.5160 -0.8868  0.0389
 1004MOL0     C32459  11.860   0.658   0.685 -0.1538  0.1411 -0.5882
 1004MOL0     C32460  11.937   0.747   0.664  0.5085  0.2975  1.1120
 1004MOL0     C32461  11.274   0.963   0.686  0.2936 -0.1079  0.0899
 1004MOL0     C32462  11.142   1.026   0.720 -0.1818  0.5096  0.2395
 1004MOL0     H32463  10.732   1.166   0.925 -0.3886 -2.1986  4.0663
 1004MOL0     H32464  10.509   1.242   0.973 -2.2210 -0.5691 -0.3369
 1004MOL0     H32465  10.290   1.298   0.992  0.3390  0.5227 -3.0906
 1004MOL0     H32466  10.327   1.152   1.096 -1.5068 -1.1934  0.0637
 1004MOL0     H32467  10.112   1.269   1.144 -1.0016  2.4150 -2.0078
 1004MOL0     H32468  10.096   1.094   1.083  0.7887  0.4027  0.6477
 1004MOL0     H32469  10.029   1.195   0.867 -1.1411 -1.7595  0.3491
 1004MOL0     H32470  10.027   1.355   0.946  1.9399 -0.4515 -1.9174
 1004MOL0     H32471   9.878   1.135   1.076  0.8106 -0.4738  1.0640
 1004MOL0     H32472   9.846   1.312   1.066 -0.0535  0.5389 -1.2940
 1004MOL0     H32473   9.708   1.309   0.909  1.6285  0.7491  2.4286
 1004MOL0     H32474   9.679   1.151   0.956 -1.3370  1.1925  0.2057
 1004MOL0     H32475   9.857   1.086   0.772  1.4664  1.1276 -2.1172
 1004MOL0     H32476   9.838   1.248   0.715  0.5250 -0.6289  0.0082
 1004MOL0     H32477   9.673   1.061   0.609 -1.0238  0.5137 -0.9333
 1004MOL0     H32478   9.605   1.044   0.771  1.4777  0.6398  0.9286
 1004MOL0     H32479   9.571   1.252   0.563 -2.0964  0.7755 -0.8980
 1004MOL0     H32480   9.567   1.313   0.725 -3.0799  0.5048  1.2217
 1004MOL0     H32481   9.368   1.288   0.879 -2.8543  1.7220  1.7732
 1004MOL0     H32482   9.063   1.188   0.892  2.2056  0.6017 -0.3219
 1004MOL0     H32483   9.205   1.120   0.989  0.3735  1.9336 -0.5062
 1004MOL0     H32484   9.153   0.899   0.904 -1.5761 -0.2209  1.8048
 1004MOL0     H32485   9.016   0.970   0.802 -0.5510  3.8575  0.2904
 1004MOL0     H32486   9.033   0.977   1.102  1.3639  1.7371 -0.8000
 1004MOL0     H32487   8.894   1.034   1.007  0.9200  2.7502  2.5640
 1004MOL0     H32488   8.891   0.780   1.108 -1.5273  0.7816 -1.1931
 1004MOL0     H32489   9.026   0.742   0.991  1.3367  0.8763 -0.2064
 1004MOL0     H32490   8.667   0.797   0.727  0.9734  0.1367 -0.6681
 1004MOL0     H32491   8.488   0.615   0.685 -2.6846 -3.6675  1.4090
 1004MOL0     H32492   8.240   0.404   1.088 -1.9181 -0.6366  0.5087
 1004MOL0     H32493   8.008   0.330   1.109  0.1905 -1.7445  1.6645
 1004MOL0     H32494   7.799   0.300   0.990 -0.8389  0.2832  4.3454
 1004MOL0     H32495   7.813   0.206   1.136  0.3609  1.0618  0.6680
 1004MOL0     H32496   7.684   0.021   1.058 -1.4385 -0.9301 -0.8825
 1004MOL0     H32497   7.671   0.071   0.898  0.0791 -0.8123  0.0875
 1004MOL0     H32498   7.458   0.125   1.014 -1.2637  1.6285 -1.7962
 1004MOL0     H32499   7.523   0.268   0.958 -0.6924  0.7222  1.1796
 1004MOL0     H32500   7.547   0.180   1.240 -2.2220 -1.7058 -1.0399
 1004MOL0     H32501   7.640   0.320   1.167 -0.5690  1.0996  1.5259
 1004MOL0     H32502   7.409   0.361   1.287 -4.7654 -0.5797  0.0374
 1004MOL0     H32503   7.349   0.337   1.118  0.6929 -0.1966  0.8282
 1004MOL0     H32504   7.536   0.504   1.056 -0.4952  3.2978 -0.9738
 1004MOL0     H32505   7.526   0.545   1.226  2.7182 -2.0045 -0.5714
 1004MOL0     H32506   7.402   0.689   1.081  1.5396 -0.6992  0.9580
 1004MOL0     H32507   7.294   0.562   1.022 -3.6068 -1.9386  3.4183
 1004MOL0     H32508   7.199   0.531   1.224  4.8369 -2.1969  0.4443
 1004MOL0     H32509   7.184   0.710   1.182 -0.5796 -1.0501 -2.1821
 1004MOL0     H32510   8.075   0.031   0.815  0.0201  0.3685 -1.4639
 1004MOL0     H32511   8.300   0.080   0.801  1.1974  3.1637 -2.4762
 1004MOL0     H32512   8.639   0.392   1.022  3.6821 -0.7224  0.4894
 1004MOL0     H32513   8.810   0.564   1.053  1.0865  0.1082 -1.8702
 1004MOL0     H32514  10.344   0.911   0.770 -0.5104 -0.8651  1.2347
 1004MOL0     H32515  10.580   0.836   0.689  2.8845  0.2215  0.2532
 1004MOL0     H32516  10.929   0.797   0.593 -1.3250 -1.5974  3.4504
 1004MOL0     H32517  11.148   0.677   0.550  0.6364  0.0281  2.0433
 1004MOL0     H32518  11.370   0.626   0.433  2.3717  1.7602 -1.0887
 1004MOL0     H32519  11.333   0.583   0.600  0.7588  0.5848  1.1070
 1004MOL0     H32520  11.564   0.491   0.540  2.2233  0.3524 -2.4709
 1004MOL0     H32521  11.605   0.656   0.484 -0.9426  1.4477  0.9462
 1004MOL0     H32522  11.543   0.554   0.753  0.2004  1.9598  1.3420
 1004MOL0     H32523  11.605   0.714   0.728  1.3727 -0.6618  2.0827
 1004MOL0     H32524  11.753   0.525   0.817 -1.4573  1.5084  0.7983
 1004MOL0     H32525  11.766   0.470   0.646  0.5476 -1.8069  1.2248
 1004MOL0     H32526  12.006   0.826   0.640  2.2140 -1.6574 -0.8592
 1004MOL0     H32527  11.367   1.016   0.707 -0.7824  0.7349  3.4893
 1004MOL0     H32528  11.126   1.124   0.762 -4.7836  1.0436 -2.1048
 1005MOL0     O32529   9.539   2.029  10.592  0.5754  0.5661 -0.3364
 1005MOL0     C32530   9.602   1.954  10.517  0.1428 -0.3728 -0.1358
 1005MOL0     O32531   9.552   1.913  10.393  0.3685 -0.1963 -0.0668
 1005MOL0     C32532   9.413   1.930  10.360 -0.9667 -1.3221 -0.9119
 1005MOL0     C32533   9.384   2.027  10.260 -1.0914 -0.2645 -0.3718
 1005MOL0     C32534   9.254   2.048  10.220  0.5240  0.5751  0.1288
 1005MOL0     C32535   9.155   1.983  10.290 -0.0479 -0.7100  1.1211
 1005MOL0     O32536   9.030   2.003  10.241 -0.1587 -0.2698  0.0973
 1005MOL0     C32537   8.916   1.959  10.310  0.6729 -1.3012  0.2961
 1005MOL0     C32538   8.792   2.030  10.250 -0.3418  0.1815  0.2587
 1005MOL0     C32539   8.667   2.038  10.342 -0.6292  0.5598  0.6817
 1005MOL0     C32540   8.552   2.110  10.274  0.5985 -0.8944  0.1420
 1005MOL0     C32541   8.420   2.098  10.349  0.7291  0.6622  0.3151
 1005MOL0     C32542   8.318   2.211  10.297  0.4444  0.1352  0.4710
 1005MOL0     C32543   8.267   2.165  10.155 -0.2796 -0.4936  0.3369
 1005MOL0     C32544   8.160   2.060  10.160 -0.2048  0.2345  0.3776
 1005MOL0     N32545   8.047   2.099  10.236  0.0897 -0.6197 -0.4304
 1005MOL0     C32546   7.930   2.161  10.193 -0.4495  0.7001  0.0053
 1005MOL0     C32547   7.840   2.160  10.291  0.5996  0.0895  0.2079
 1005MOL0     C32548   7.699   2.212  10.274 -0.5477  0.1626  0.4978
 1005MOL0     C32549   7.578   2.126  10.327  0.6939  0.8817  0.4976
 1005MOL0     C32550   7.457   2.214  10.360 -0.5473  0.9033  0.1418
 1005MOL0     C32551   7.354   2.157  10.463 -0.6163 -0.2812  0.1974
 1005MOL0     O32552   7.283   2.269  10.526  0.0563  0.0384 -0.7440
 1005MOL0     C32553   7.152   2.257  10.566 -0.0701  0.3882 -0.2165
 1005MOL0     C32554   7.077   2.135  10.564  0.2770 -0.4176  0.4495
 1005MOL0     C32555   6.949   2.140  10.622 -0.1601  0.2767  0.5032
 1005MOL0     C32556   6.905   2.260  10.682 -0.0668  0.2872 -0.5267
 1005MOL0     C32557   6.768   2.263  10.743 -0.0493 -0.9004 -0.9412
 1005MOL0     O32558   6.705   2.147  10.767  0.4385 -0.3150  0.6332
 1005MOL0     C32559   6.576   2.159  10.800  0.3184 -0.0549  0.0254
 1005MOL0     C32560   6.469   2.102  10.721  0.6920 -0.1878 -0.8291
 1005MOL0     C32561   6.333   2.115  10.767 -0.7425 -0.4107 -0.1175
 1005MOL0     C32562   6.299   2.180  10.886 -0.7083 -0.1888  0.4012
 1005MOL0     O32563   6.165   2.184  10.905 -0.3400  0.2233  0.2619
 1005MOL0     C32564   6.109   2.254  11.021 -0.2584  0.5003  0.7741
 1005MOL0     C32565   5.954   2.235  11.005  0.2359 -0.2366  0.7939
 1005MOL0     C32566   5.880   2.268  11.138 -0.3797  0.6188  0.4265
 1005MOL0     C32567   5.739   2.305  11.101  1.1095 -0.2486  0.1400
 1005MOL0     C32568   5.663   2.373  11.213 -0.1028  0.1177 -0.1938
 1005MOL0     C32569   5.566   2.282  11.279  0.7062 -0.3251  0.4442
 1005MOL0     C32570   5.480   2.368  11.373  0.1250  0.3695 -0.6487
 1005MOL0     C32571   5.438   2.298  11.504  0.4765  0.0772 -0.1748
 1005MOL0    Cl32572   5.575   2.292  11.612  0.1128  0.1961 -0.2130
 1005MOL0     C32573   6.404   2.237  10.961  0.6122  0.1262  0.1273
 1005MOL0     C32574   6.538   2.232  10.922 -0.3723  0.4230 -0.5634
 1005MOL0     O32575   6.723   2.380  10.767  0.5591  0.0114 -0.1895
 1005MOL0     C32576   6.987   2.374  10.698  0.4027 -0.1372  0.2192
 1005MOL0     C32577   7.113   2.366  10.638  0.6287 -0.6425  0.1100
 1005MOL0     N32578   7.892   2.087  10.392  0.0010 -0.5743 -0.5784
 1005MOL0     N32579   8.020   2.066  10.368 -0.5933  0.0675 -0.1632
 1005MOL0     C32580   9.180   1.892  10.396 -0.6379  0.1654 -0.2318
 1005MOL0     C32581   9.309   1.864  10.421 -0.1500 -0.2665  0.2092
 1005MOL0     C32582   9.748   1.934  10.545  0.1236  0.3209  0.1004
 1005MOL0     C32583   9.799   1.984  10.668  0.1121  0.5156 -0.5133
 1005MOL0     C32584   9.932   1.966  10.702 -0.9105 -0.1617  1.1095
 1005MOL0     C32585  10.018   1.896  10.611 -0.3319  0.5527 -0.1934
 1005MOL0     O32586  10.146   1.873  10.636  0.0972  0.4635  0.2677
 1005MOL0     C32587  10.230   1.957  10.710 -0.1049 -1.1688  0.1487
 1005MOL0     C32588  10.248   1.897  10.855  0.2252  0.2714  0.4840
 1005MOL0     C32589  10.312   1.763  10.853  0.1621  0.3677  1.0091
 1005MOL0     C32590  10.312   1.695  10.991 -1.0529  0.6462 -0.1976
 1005MOL0     C32591  10.422   1.734  11.085 -0.3409 -0.6961  0.3698
 1005MOL0     C32592  10.523   1.760  11.142  0.8486  0.6701 -0.2621
 1005MOL0     C32593   9.958   1.841  10.491 -0.4022 -0.2346  0.6978
 1005MOL0     C32594   9.823   1.849  10.465  0.5319 -0.7529 -0.0767
 1005MOL0     H32595   9.456   2.091  10.210  1.0154 -1.2638  1.2515
 1005MOL0     H32596   9.228   2.115  10.139 -2.8097 -0.5561  0.1402
 1005MOL0     H32597   8.920   1.976  10.418  0.4714  0.2145  0.0847
 1005MOL0     H32598   8.902   1.852  10.290 -0.5974 -0.8650 -1.3911
 1005MOL0     H32599   8.754   1.960  10.175  0.5187  1.4103 -1.3835
 1005MOL0     H32600   8.812   2.128  10.208 -2.5489  1.1777  1.3741
 1005MOL0     H32601   8.696   2.090  10.434 -0.5606 -1.4461  1.8453
 1005MOL0     H32602   8.620   1.941  10.358 -0.9187  0.4329 -0.8131
 1005MOL0     H32603   8.573   2.217  10.263 -0.2561 -0.3262  3.0377
 1005MOL0     H32604   8.544   2.068  10.174  0.5622 -0.6620  0.0479
 1005MOL0     H32605   8.430   2.099  10.458  0.3628 -3.5125  0.5503
 1005MOL0     H32606   8.386   1.995  10.332 -1.2307  1.3062  0.0908
 1005MOL0     H32607   8.374   2.305  10.286  1.0918 -0.3805 -0.9634
 1005MOL0     H32608   8.228   2.237  10.353  0.3380  2.8313 -0.7901
 1005MOL0     H32609   8.216   2.251  10.110 -0.3964 -0.4218  0.6039
 1005MOL0     H32610   8.344   2.118  10.094  0.1138  1.7058 -0.9620
 1005MOL0     H32611   8.194   1.959  10.185 -1.3135 -0.1768  0.2978
 1005MOL0     H32612   8.134   2.048  10.054  3.3242  0.3774 -0.6141
 1005MOL0     H32613   7.926   2.189  10.088  0.0082 -0.1523 -0.2563
 1005MOL0     H32614   7.685   2.236  10.168  2.7388 -0.9414 -0.2895
 1005MOL0     H32615   7.690   2.307  10.328 -1.0157 -0.3544  1.3448
 1005MOL0     H32616   7.614   2.077  10.417  3.7900 -1.9306 -2.0174
 1005MOL0     H32617   7.557   2.041  10.261 -0.0594  2.3077 -1.1906
 1005MOL0     H32618   7.497   2.300  10.415 -0.7428  0.7231  0.5636
 1005MOL0     H32619   7.391   2.257  10.284 -0.8095  3.0016  1.4524
 1005MOL0     H32620   7.402   2.097  10.540 -2.6354 -0.9621  0.9895
 1005MOL0     H32621   7.286   2.088  10.412  0.6152 -2.5041  1.4252
 1005MOL0     H32622   7.111   2.049  10.508 -0.2945 -0.3438 -0.0105
 1005MOL0     H32623   6.894   2.046  10.629  1.6834 -0.8727  0.2863
 1005MOL0     H32624   6.489   2.025  10.647 -0.6462 -2.5641  1.1299
 1005MOL0     H32625   6.247   2.077  10.713 -1.0545 -1.5533  1.1332
 1005MOL0     H32626   6.137   2.360  11.015  1.8421  0.0163  1.2151
 1005MOL0     H32627   6.147   2.207  11.112 -0.1152 -0.0287  0.4424
 1005MOL0     H32628   5.922   2.138  10.964 -3.3847  1.1418 -0.0117
 1005MOL0     H32629   5.909   2.299  10.929 -0.6503 -1.8016 -0.0509
 1005MOL0     H32630   5.939   2.341  11.194  2.6570 -2.5233  1.7043
 1005MOL0     H32631   5.885   2.173  11.192 -0.7815  1.3367  1.7495
 1005MOL0     H32632   5.742   2.384  11.026 -0.2074  1.8496  2.1679
 1005MOL0     H32633   5.680   2.220  11.066 -0.3704 -0.4431  2.8072
 1005MOL0     H32634   5.620   2.469  11.185 -0.5555  0.5333  1.7587
 1005MOL0     H32635   5.738   2.399  11.289 -0.7406  2.8784 -0.3966
 1005MOL0     H32636   5.609   2.197  11.331 -0.2674  0.0178  1.8712
 1005MOL0     H32637   5.498   2.248  11.200 -0.4385  1.7196  0.4844
 1005MOL0     H32638   5.533   2.463  11.389  0.1789  0.1138  0.7885
 1005MOL0     H32639   5.390   2.389  11.316  0.5996  0.6957 -1.2937
 1005MOL0     H32640   5.396   2.197  11.497  0.6093 -0.2382  2.5324
 1005MOL0     H32641   5.368   2.368  11.550  1.5687  1.0039  0.1134
 1005MOL0     H32642   6.378   2.281  11.057 -1.7135 -0.4254 -0.1923
 1005MOL0     H32643   6.614   2.281  10.982 -3.2547  1.0736  2.9322
 1005MOL0     H32644   6.947   2.463  10.745 -1.1622  0.0990 -1.4385
 1005MOL0     H32645   7.187   2.445  10.647  1.5519 -1.6871  2.2930
 1005MOL0     H32646   9.098   1.849  10.451 -0.6472 -0.2436 -0.5678
 1005MOL0     H32647   9.332   1.788  10.495 -0.0441 -1.4818 -1.0389
 1005MOL0     H32648   9.734   2.047  10.728 -0.3364  0.6215 -1.0993
 1005MOL0     H32649   9.964   2.021  10.790 -0.2035 -0.1024  0.8135
 1005MOL0     H32650  10.189   2.058  10.703  0.0377 -1.1836 -1.3005
 1005MOL0     H32651  10.332   1.957  10.671 -0.7807  3.5708 -2.3668
 1005MOL0     H32652  10.298   1.973  10.916  2.3101  0.1951 -1.0112
 1005MOL0     H32653  10.147   1.889  10.897  0.6986 -1.3684  1.3994
 1005MOL0     H32654  10.414   1.782  10.818  0.0125  2.1091  1.4343
 1005MOL0     H32655  10.260   1.694  10.785 -3.3882  3.2539  0.4573
 1005MOL0     H32656  10.219   1.718  11.044 -0.3340  0.4344  1.2138
 1005MOL0     H32657  10.311   1.586  10.983  0.3122  0.6474 -0.5416
 1005MOL0     H32658  10.613   1.797  11.189  1.8759  2.8361 -3.6038
 1005MOL0     H32659  10.021   1.785  10.422 -2.6285 -0.2221 -1.5055
 1005MOL0     H32660   9.778   1.804  10.377 -4.7775  3.1622  0.1023
 1006MOL0     O32661  10.272   5.391   9.232 -0.4738 -0.5716  0.0753
 1006MOL0     C32662  10.263   5.344   9.123 -0.6292  0.2724  0.2607
 1006MOL0     O32663  10.161   5.371   9.035  0.5105  0.6175  0.0079
 1006MOL0     C32664  10.057   5.448   9.084 -1.1642  0.9497  0.0041
 1006MOL0     C32665  10.028   5.565   9.018  0.1061  0.0438  0.1354
 1006MOL0     C32666   9.916   5.642   9.049  1.2456 -0.2390 -0.3771
 1006MOL0     C32667   9.833   5.607   9.158  0.2604  0.0813 -0.8386
 1006MOL0     O32668   9.709   5.660   9.197 -0.5458  0.5308 -0.0954
 1006MOL0     C32669   9.678   5.783   9.132  0.5968 -0.3069 -1.0949
 1006MOL0     C32670   9.539   5.824   9.191 -0.9243  0.1322 -0.0917
 1006MOL0     C32671   9.434   5.736   9.143  0.0055  0.7427  0.5256
 1006MOL0     C32672   9.286   5.780   9.158 -0.8539  0.0893 -0.7168
 1006MOL0     C32673   9.203   5.671   9.201 -0.8352 -0.1743  0.2702
 1006MOL0     C32674   9.057   5.725   9.224 -0.5514 -0.7754 -0.0834
 1006MOL0     C32675   9.050   5.823   9.348 -0.1669  0.9521 -0.2009
 1006MOL0     C32676   8.909   5.821   9.407  0.6840 -0.2606 -0.7502
 1006MOL0     N32677   8.928   5.893   9.540 -0.0140 -0.2477  0.5681
 1006MOL0     C32678   8.876   6.024   9.569  0.4936 -0.4843  0.2135
 1006MOL0     C32679   8.905   6.032   9.702 -0.0969  0.5351 -0.3304
 1006MOL0     C32680   8.862   6.153   9.790 -0.1070  0.4420  0.2392
 1006MOL0     C32681   8.719   6.118   9.839 -1.0733 -0.3633  0.4777
 1006MOL0     C32682   8.622   6.135   9.727 -0.0213  0.1380  0.2830
 1006MOL0     C32683   8.477   6.128   9.768  0.2977 -0.4321 -0.9424
 1006MOL0     O32684   8.428   6.258   9.823 -0.5528 -0.2362  0.1017
 1006MOL0     C32685   8.300   6.263   9.865  0.1354 -0.5623 -1.0160
 1006MOL0     C32686   8.207   6.162   9.859  0.1139  0.3418  0.8009
 1006MOL0     C32687   8.079   6.175   9.912 -0.0918 -0.9068  0.0496
 1006MOL0     C32688   8.043   6.297   9.960 -1.0902  0.1654  0.8494
 1006MOL0     C32689   7.903   6.314  10.008  0.7836  0.9575  0.7058
 1006MOL0     O32690   7.807   6.228   9.963 -0.1794 -0.7543 -0.2198
 1006MOL0     C32691   7.683   6.258  10.003 -0.1875 -0.1651 -0.5112
 1006MOL0     C32692   7.639   6.273  10.134  0.2631  0.0702  0.6849
 1006MOL0     C32693   7.499   6.319  10.159  0.1289  0.7412 -0.1765
 1006MOL0     C32694   7.411   6.352  10.063  0.6784 -0.4635  0.5564
 1006MOL0     O32695   7.285   6.383  10.104  1.1499 -0.3142 -0.2148
 1006MOL0     C32696   7.181   6.374  10.005  0.0548  0.4497 -0.5336
 1006MOL0     C32697   7.048   6.399  10.057  0.4214 -1.0351  0.5079
 1006MOL0     C32698   6.943   6.326   9.977  0.7846  0.5781 -0.1195
 1006MOL0     C32699   6.791   6.362  10.021  0.0187  0.1383 -0.9839
 1006MOL0     C32700   6.753   6.511  10.049  0.3959  0.8850  0.4952
 1006MOL0     C32701   6.606   6.536  10.085  0.2567  0.7467  0.0617
 1006MOL0     C32702   6.521   6.515   9.959 -0.2228  0.4608  0.1201
 1006MOL0     C32703   6.384   6.569   9.979  0.0856 -0.3797 -0.3212
 1006MOL0    Cl32704   6.295   6.489  10.126  0.4688 -0.6371  0.5163
 1006MOL0     C32705   7.463   6.355   9.941  0.2633 -0.0117  0.0034
 1006MOL0     C32706   7.592   6.293   9.907  1.1536 -1.0567 -0.3291
 1006MOL0     O32707   7.883   6.414  10.072 -0.3989 -0.7171  0.1900
 1006MOL0     C32708   8.131   6.407   9.961  0.3469  0.2108  0.2816
 1006MOL0     C32709   8.264   6.385   9.925 -0.2279 -0.3318 -0.0961
 1006MOL0     N32710   8.953   5.905   9.753  0.4277 -0.2788 -0.0976
 1006MOL0     N32711   8.971   5.832   9.646 -0.4764 -0.3812  0.0260
 1006MOL0     C32712   9.865   5.496   9.233  0.4124  0.7294 -0.6657
 1006MOL0     C32713   9.976   5.417   9.194 -0.4736  0.5568  0.4510
 1006MOL0     C32714  10.385   5.258   9.073 -0.0100 -0.5061 -0.6224
 1006MOL0     C32715  10.503   5.264   9.138  1.2542  0.8768 -0.0937
 1006MOL0     C32716  10.615   5.188   9.095  0.1409  0.2524  0.5186
 1006MOL0     C32717  10.606   5.115   8.974 -0.6186 -0.0516  0.0811
 1006MOL0     O32718  10.721   5.069   8.906  0.3307 -0.1762  0.2420
 1006MOL0     C32719  10.850   5.111   8.960  0.6601  0.5593 -0.3121
 1006MOL0     C32720  10.961   5.089   8.866 -0.2263  0.2473 -0.3200
 1006MOL0     C32721  10.972   4.928   8.851 -0.1237  0.5834  0.0027
 1006MOL0     C32722  11.098   4.907   8.774 -0.3865 -0.1276  0.7996
 1006MOL0     C32723  11.109   4.763   8.733 -0.4818  0.2553  0.6618
 1006MOL0     C32724  11.094   4.644   8.715  0.0123  0.1102  0.0749
 1006MOL0     C32725  10.486   5.116   8.906  0.0914  0.3960  0.0732
 1006MOL0     C32726  10.376   5.185   8.956 -0.3707 -0.5179  0.0686
 1006MOL0     H32727  10.101   5.581   8.939 -0.1600 -3.4592 -1.0098
 1006MOL0     H32728   9.891   5.736   9.001 -4.0003 -0.4431  1.2634
 1006MOL0     H32729   9.663   5.765   9.025 -1.0321 -0.0273 -0.9282
 1006MOL0     H32730   9.757   5.859   9.143  0.2551  0.0866 -1.3546
 1006MOL0     H32731   9.533   5.927   9.155  3.5723 -0.1339 -2.2630
 1006MOL0     H32732   9.543   5.838   9.299  1.5966  0.3445 -0.1454
 1006MOL0     H32733   9.448   5.638   9.190 -1.2965  1.2546  2.0417
 1006MOL0     H32734   9.442   5.715   9.036  0.4914 -3.7584  1.2400
 1006MOL0     H32735   9.278   5.850   9.242  0.5315 -0.2207 -0.3027
 1006MOL0     H32736   9.244   5.837   9.075  0.4983  2.5182  0.1285
 1006MOL0     H32737   9.239   5.623   9.292 -1.2411 -2.5384 -0.7208
 1006MOL0     H32738   9.197   5.592   9.125 -1.0826  0.3722 -0.2830
 1006MOL0     H32739   8.991   5.638   9.234 -0.6061 -1.0091 -2.0836
 1006MOL0     H32740   9.029   5.773   9.130  0.9661 -0.6824 -0.5092
 1006MOL0     H32741   9.119   5.785   9.424  1.7339  0.9325 -1.8525
 1006MOL0     H32742   9.081   5.922   9.314 -2.0191  1.0420 -1.8537
 1006MOL0     H32743   8.858   5.726   9.423 -1.3596  0.6372 -1.6568
 1006MOL0     H32744   8.848   5.891   9.349  1.8771  2.9882  1.6032
 1006MOL0     H32745   8.823   6.100   9.512  0.0212 -1.6170 -0.9079
 1006MOL0     H32746   8.856   6.249   9.738 -0.0017 -0.2901 -1.1678
 1006MOL0     H32747   8.924   6.170   9.878  0.2004  1.1747 -0.1065
 1006MOL0     H32748   8.705   6.197   9.913  1.5323  0.1599  0.5041
 1006MOL0     H32749   8.707   6.017   9.880 -3.3845 -1.2475 -2.0719
 1006MOL0     H32750   8.638   6.229   9.674  5.5421 -0.1350  0.8924
 1006MOL0     H32751   8.634   6.058   9.650 -0.0408 -0.8286  1.2104
 1006MOL0     H32752   8.462   6.043   9.836 -0.4241 -2.1480 -3.1263
 1006MOL0     H32753   8.424   6.112   9.674  4.0256 -1.6151 -3.0617
 1006MOL0     H32754   8.232   6.058   9.844 -0.5767 -0.3811  4.0036
 1006MOL0     H32755   8.014   6.088   9.916  0.7361 -1.5457 -0.1195
 1006MOL0     H32756   7.696   6.262  10.226 -0.6342  0.5015  1.3049
 1006MOL0     H32757   7.468   6.319  10.263  2.8820 -0.2392  0.7222
 1006MOL0     H32758   7.201   6.274   9.967  1.7304  0.5181  0.0765
 1006MOL0     H32759   7.190   6.452   9.929  0.4207  3.0655  2.0146
 1006MOL0     H32760   7.026   6.507  10.056  0.7405 -0.9692  0.3855
 1006MOL0     H32761   7.044   6.363  10.160  2.0223  0.1715  1.0327
 1006MOL0     H32762   6.948   6.218   9.993  1.7437  0.7372  0.7924
 1006MOL0     H32763   6.963   6.345   9.871  3.1260  1.9101  0.4828
 1006MOL0     H32764   6.729   6.325   9.940 -1.1282 -0.0090 -0.0685
 1006MOL0     H32765   6.752   6.319  10.114  1.8593  0.3982 -0.0527
 1006MOL0     H32766   6.780   6.565   9.957 -0.3954 -1.5009 -1.2429
 1006MOL0     H32767   6.811   6.540  10.137 -1.0548  0.9988  1.4420
 1006MOL0     H32768   6.593   6.638  10.122  1.7598  0.9361  0.0973
 1006MOL0     H32769   6.575   6.462  10.160  1.9409 -0.4812 -0.3998
 1006MOL0     H32770   6.570   6.576   9.883 -1.4786  3.8213  1.8124
 1006MOL0     H32771   6.507   6.411   9.926 -1.7789  1.7079 -3.6916
 1006MOL0     H32772   6.323   6.564   9.888 -1.5032  0.7692  0.6320
 1006MOL0     H32773   6.404   6.675  10.000  2.3703 -0.5921 -1.1472
 1006MOL0     H32774   7.409   6.391   9.854 -1.8238 -1.8643  0.4305
 1006MOL0     H32775   7.604   6.272   9.801 -2.0422 -1.1776 -0.7603
 1006MOL0     H32776   8.097   6.502  10.002 -0.7546 -0.4522  0.9388
 1006MOL0     H32777   8.336   6.460   9.956 -0.5439 -1.1479  2.8909
 1006MOL0     H32778   9.795   5.471   9.312 -2.7690 -2.7887 -4.0870
 1006MOL0     H32779  10.004   5.327   9.247  0.1787  0.5125  0.0411
 1006MOL0     H32780  10.526   5.331   9.220  4.7797  1.7180 -1.5640
 1006MOL0     H32781  10.700   5.192   9.162  0.5570 -1.9705  0.2085
 1006MOL0     H32782  10.874   5.051   9.048  0.1506 -2.2483 -1.9910
 1006MOL0     H32783  10.831   5.216   8.986  0.3873  0.0261  1.8779
 1006MOL0     H32784  10.966   5.142   8.770 -1.8937  0.4916 -0.3071
 1006MOL0     H32785  11.044   5.127   8.927 -1.4907  1.9022  0.4442
 1006MOL0     H32786  10.890   4.901   8.783  2.1543  3.5609 -4.3879
 1006MOL0     H32787  10.976   4.871   8.945  3.9526 -2.8182 -1.9022
 1006MOL0     H32788  11.090   4.952   8.675 -1.1084 -0.4901  0.6798
 1006MOL0     H32789  11.182   4.937   8.837 -0.1684 -1.0918  0.9828
 1006MOL0     H32790  11.082   4.539   8.695  1.8980  0.2760 -2.4539
 1006MOL0     H32791  10.482   5.076   8.805  2.8432  0.0884  0.0032
 1006MOL0     H32792  10.287   5.189   8.895  0.6613  1.0431 -1.4189
 1007MOL0     O32793   2.378   9.211   0.460 -0.4127  0.4337  0.1498
 1007MOL0     C32794   2.485   9.277   0.479  0.9220  0.1886 -0.0567
 1007MOL0     O32795   2.494   9.386   0.554  0.2564  0.8816  0.5520
 1007MOL0     C32796   2.383   9.426   0.622 -0.4369  0.3146 -0.4312
 1007MOL0     C32797   2.382   9.409   0.764  0.5100  0.4794  0.5398
 1007MOL0     C32798   2.271   9.464   0.839  0.4414  0.4594  0.2420
 1007MOL0     C32799   2.165   9.521   0.778 -0.4115  0.1799 -0.1306
 1007MOL0     O32800   2.057   9.539   0.860  0.0828  0.5197 -0.0603
 1007MOL0     C32801   1.952   9.634   0.841  0.1291  0.1171  0.8668
 1007MOL0     C32802   1.815   9.600   0.903 -0.1061  0.4260 -0.5399
 1007MOL0     C32803   1.747   9.471   0.853 -0.4157 -0.4206 -0.4852
 1007MOL0     C32804   1.613   9.440   0.912  0.0991  0.2122  0.3043
 1007MOL0     C32805   1.500   9.536   0.869  0.2403  0.6151 -0.1853
 1007MOL0     C32806   1.367   9.469   0.881 -0.2706 -0.2164 -0.1914
 1007MOL0     C32807   1.261   9.585   0.861 -0.1498 -0.8471 -0.5051
 1007MOL0     C32808   1.116   9.534   0.853 -0.5294 -0.2778  0.3725
 1007MOL0     N32809   1.060   9.448   0.961 -0.8902 -0.4221  0.0398
 1007MOL0     C32810   1.113   9.423   1.093  0.4022 -0.2110 -0.3494
 1007MOL0     C32811   1.021   9.348   1.161 -0.4767  0.3690  0.1411
 1007MOL0     C32812   1.054   9.306   1.297 -0.6951  0.2614 -0.5205
 1007MOL0     C32813   0.924   9.295   1.377  0.5484  0.6554  0.0599
 1007MOL0     C32814   0.932   9.275   1.531  0.7116  0.8819 -0.4878
 1007MOL0     C32815   0.805   9.333   1.602  0.5510  0.3142  0.8752
 1007MOL0     O32816   0.704   9.240   1.587  0.3653  0.5989  0.0006
 1007MOL0     C32817   0.576   9.286   1.625  0.0187 -0.6755 -0.4277
 1007MOL0     C32818   0.464   9.213   1.583 -1.2216 -0.4453 -0.0006
 1007MOL0     C32819   0.336   9.244   1.624  0.0604  0.0947  0.1214
 1007MOL0     C32820   0.306   9.353   1.707 -0.4232 -0.8793  0.5872
 1007MOL0     C32821   0.171   9.394   1.747 -0.1596  0.6312 -0.9704
 1007MOL0     O32822   0.064   9.314   1.694 -0.6618  0.4361  0.4220
 1007MOL0     C32823  -0.057   9.351   1.742  0.5470  0.1071 -0.5953
 1007MOL0     C32824  -0.109   9.271   1.842  0.7671 -1.0579 -0.4654
 1007MOL0     C32825  -0.244   9.293   1.890 -0.1600  0.1626 -0.4010
 1007MOL0     C32826  -0.317   9.401   1.832 -0.1045  0.0613 -0.4349
 1007MOL0     O32827  -0.450   9.419   1.860 -0.1404 -0.1195  0.1598
 1007MOL0     C32828  -0.543   9.347   1.774 -0.3262 -0.2169 -0.5344
 1007MOL0     C32829  -0.500   9.206   1.734  0.3136  0.3080  0.3012
 1007MOL0     C32830  -0.601   9.136   1.645 -0.5746 -0.8257 -0.1468
 1007MOL0     C32831  -0.554   8.995   1.610  0.5529  0.0345 -0.6089
 1007MOL0     C32832  -0.653   8.952   1.499 -0.0798  0.1075  0.1357
 1007MOL0     C32833  -0.602   8.820   1.428 -0.4771 -0.7310 -0.9273
 1007MOL0     C32834  -0.677   8.797   1.304  1.4602 -0.0670  1.1454
 1007MOL0     C32835  -0.607   8.685   1.228 -0.0814  1.2964 -0.6837
 1007MOL0    Cl32836  -0.447   8.745   1.154  0.5319  0.2787 -0.1501
 1007MOL0     C32837  -0.265   9.474   1.725 -0.7338 -0.3994  0.1592
 1007MOL0     C32838  -0.132   9.450   1.684 -0.7652  0.7768 -0.5851
 1007MOL0     O32839   0.162   9.496   1.808 -0.4068  0.0889  0.3038
 1007MOL0     C32840   0.422   9.432   1.742 -0.1144 -0.3815  0.2822
 1007MOL0     C32841   0.554   9.405   1.706 -0.1189  0.3113  0.3191
 1007MOL0     N32842   0.923   9.318   1.068  0.0468  0.1090 -0.8288
 1007MOL0     N32843   0.937   9.390   0.965 -0.4315  0.1217  0.6154
 1007MOL0     C32844   2.174   9.555   0.648  0.2792 -0.7350  0.9538
 1007MOL0     C32845   2.280   9.502   0.571 -0.1135  0.0370 -0.1049
 1007MOL0     C32846   2.589   9.242   0.393  0.2865 -0.0596  0.8286
 1007MOL0     C32847   2.706   9.327   0.374  0.1913 -0.2021 -0.7652
 1007MOL0     C32848   2.816   9.299   0.294 -0.0752 -0.1567  0.4305
 1007MOL0     C32849   2.819   9.193   0.207 -0.4670 -0.1609 -0.1258
 1007MOL0     O32850   2.903   9.186   0.105  0.3724 -0.0481  0.7727
 1007MOL0     C32851   2.876   9.077   0.006  0.8925 -0.0333  0.2093
 1007MOL0     C32852   2.978   9.101  -0.104 -0.4963 -0.0671  0.1588
 1007MOL0     C32853   2.980   8.995  -0.218 -0.3595  0.3985  0.2534
 1007MOL0     C32854   2.850   8.994  -0.292  0.4145 -1.1030 -0.2242
 1007MOL0     C32855   2.779   8.871  -0.274  0.5179 -0.3161  0.1693
 1007MOL0     C32856   2.699   8.775  -0.248 -0.7248 -1.1628  0.3084
 1007MOL0     C32857   2.700   9.112   0.219 -0.4693  0.8127 -1.3215
 1007MOL0     C32858   2.596   9.132   0.309  0.3201  0.7862  0.3230
 1007MOL0     H32859   2.463   9.349   0.803 -0.6416  0.2242  2.7235
 1007MOL0     H32860   2.250   9.429   0.940  1.9558  1.4988  0.9568
 1007MOL0     H32861   1.927   9.660   0.738 -0.2725 -1.3656  0.5652
 1007MOL0     H32862   1.989   9.722   0.893  2.5243  0.4291 -1.1436
 1007MOL0     H32863   1.743   9.682   0.896 -2.4877 -1.2104  2.5096
 1007MOL0     H32864   1.830   9.582   1.010  1.6746  2.4566 -0.3785
 1007MOL0     H32865   1.824   9.400   0.884  0.6949  2.1185  3.2953
 1007MOL0     H32866   1.736   9.490   0.746 -1.7920  2.5134  0.0776
 1007MOL0     H32867   1.590   9.337   0.884 -3.2299  0.8054  0.3729
 1007MOL0     H32868   1.620   9.438   1.022  0.3843 -1.3770  0.2728
 1007MOL0     H32869   1.517   9.549   0.762  3.9502 -1.4452 -0.0097
 1007MOL0     H32870   1.502   9.633   0.920  0.0516  0.7453 -0.4222
 1007MOL0     H32871   1.354   9.419   0.977  1.3240 -1.3775 -0.5241
 1007MOL0     H32872   1.342   9.394   0.804  0.5763  0.4480 -1.1453
 1007MOL0     H32873   1.261   9.655   0.945  0.8255 -1.4327  0.0097
 1007MOL0     H32874   1.281   9.651   0.775  0.3581  1.2083  1.1059
 1007MOL0     H32875   1.090   9.467   0.771 -3.9223 -3.1646  3.4376
 1007MOL0     H32876   1.045   9.618   0.850 -1.5553 -0.8962  3.4700
 1007MOL0     H32877   1.196   9.477   1.136  1.9681 -1.7217 -1.3140
 1007MOL0     H32878   1.120   9.381   1.341 -1.2186 -0.3675  1.4120
 1007MOL0     H32879   1.109   9.211   1.301 -2.5331 -0.8135  1.6287
 1007MOL0     H32880   0.880   9.205   1.331  0.0912  0.4399  0.9019
 1007MOL0     H32881   0.867   9.388   1.375  3.2784  2.4558  1.0835
 1007MOL0     H32882   0.936   9.168   1.552  0.2987  1.2481  1.6023
 1007MOL0     H32883   1.021   9.324   1.572 -0.4552 -0.3314  4.0425
 1007MOL0     H32884   0.778   9.428   1.555 -2.8941 -0.8224  0.2197
 1007MOL0     H32885   0.822   9.363   1.706  1.3004  1.5612  0.4110
 1007MOL0     H32886   0.478   9.130   1.515  0.8975  1.0335 -1.4855
 1007MOL0     H32887   0.259   9.179   1.582  0.7091  0.9599 -2.6479
 1007MOL0     H32888  -0.047   9.197   1.892 -0.2067 -0.8515  1.1093
 1007MOL0     H32889  -0.296   9.227   1.958  1.0883  1.3337  1.8017
 1007MOL0     H32890  -0.571   9.397   1.681 -1.7783  0.2770  0.1254
 1007MOL0     H32891  -0.635   9.333   1.832 -1.0030 -0.2149 -1.5907
 1007MOL0     H32892  -0.482   9.153   1.828  0.6393  0.3547  0.2691
 1007MOL0     H32893  -0.402   9.213   1.685 -0.0940  4.4186 -0.2067
 1007MOL0     H32894  -0.617   9.192   1.552 -0.5257  2.2019  1.5336
 1007MOL0     H32895  -0.700   9.140   1.691  0.4316  0.6953  2.0726
 1007MOL0     H32896  -0.453   8.981   1.571  0.1701  0.4059 -1.7745
 1007MOL0     H32897  -0.561   8.927   1.695 -0.3341  0.8871  0.0207
 1007MOL0     H32898  -0.653   9.023   1.416  1.2865  0.6267  0.5624
 1007MOL0     H32899  -0.759   8.945   1.527 -0.5249 -2.3058 -1.7017
 1007MOL0     H32900  -0.607   8.737   1.499 -2.7003  0.4242  0.4205
 1007MOL0     H32901  -0.503   8.841   1.386 -2.1770  1.9172 -4.1346
 1007MOL0     H32902  -0.782   8.778   1.327  1.2620 -1.9293 -0.9466
 1007MOL0     H32903  -0.660   8.889   1.248  1.7297  0.0503  1.4157
 1007MOL0     H32904  -0.666   8.651   1.143  0.2465 -0.5991 -0.2042
 1007MOL0     H32905  -0.601   8.598   1.294 -2.1565  1.5355 -0.1331
 1007MOL0     H32906  -0.318   9.556   1.679  1.8518  0.7967 -0.9075
 1007MOL0     H32907  -0.093   9.501   1.597  0.7898 -0.6079 -0.7523
 1007MOL0     H32908   0.409   9.514   1.812 -5.3074 -2.6244  2.4607
 1007MOL0     H32909   0.627   9.469   1.754 -0.5389 -0.7322  2.4863
 1007MOL0     H32910   2.100   9.613   0.593  1.1559 -0.7322 -0.2629
 1007MOL0     H32911   2.305   9.538   0.472  3.1473  1.6275  1.1523
 1007MOL0     H32912   2.707   9.417   0.435  1.1355 -2.2129  2.4587
 1007MOL0     H32913   2.893   9.374   0.280 -0.7142  0.1106 -2.0686
 1007MOL0     H32914   2.773   9.086  -0.029 -0.2174  0.2571  3.2944
 1007MOL0     H32915   2.885   8.978   0.051  0.1445 -1.2589 -2.1708
 1007MOL0     H32916   2.948   9.191  -0.157 -1.7760 -2.0904 -2.8699
 1007MOL0     H32917   3.071   9.126  -0.053 -0.4646 -0.6315  0.3926
 1007MOL0     H32918   3.011   8.896  -0.184  2.1372  0.8302 -0.5098
 1007MOL0     H32919   3.059   9.030  -0.285  0.8161  2.0472  2.3328
 1007MOL0     H32920   2.792   9.082  -0.263 -1.5640 -2.7584  1.1589
 1007MOL0     H32921   2.856   9.004  -0.400 -0.5776  0.6115 -0.1544
 1007MOL0     H32922   2.630   8.693  -0.249 -0.8411 -1.0678  0.4200
 1007MOL0     H32923   2.678   9.022   0.163 -0.7670 -0.9614  1.4499
 1007MOL0     H32924   2.516   9.059   0.308  0.4553  0.6402  0.0729
 1008MOL0     O32925   6.060  10.743   8.580 -0.2044 -0.6427 -0.2335
 1008MOL0     C32926   6.098  10.660   8.493 -0.2308  0.0847 -0.5383
 1008MOL0     O32927   6.025  10.566   8.438  0.2691 -0.1508 -0.7592
 1008MOL0     C32928   5.897  10.583   8.452  0.0578  0.1953  0.7160
 1008MOL0     C32929   5.824  10.659   8.353 -0.1215  0.7442  0.0213
 1008MOL0     C32930   5.691  10.671   8.355 -0.5703 -0.3032  0.8115
 1008MOL0     C32931   5.614  10.618   8.457 -0.1846 -0.1003  0.0718
 1008MOL0     O32932   5.484  10.659   8.455  0.3715  0.0658 -0.3326
 1008MOL0     C32933   5.379  10.616   8.542 -0.0837 -0.1733 -0.5806
 1008MOL0     C32934   5.244  10.625   8.471  0.4193 -0.4603 -0.2216
 1008MOL0     C32935   5.183  10.753   8.463  0.9651  0.8097 -0.1343
 1008MOL0     C32936   5.264  10.858   8.381 -0.5206 -0.5689 -0.7710
 1008MOL0     C32937   5.200  10.995   8.364 -0.4546 -0.2146 -0.3627
 1008MOL0     C32938   5.073  10.980   8.265 -0.6418 -0.0537 -0.7974
 1008MOL0     C32939   4.973  11.092   8.293  0.3999 -0.2376  0.8830
 1008MOL0     C32940   4.855  11.079   8.196  0.0491  0.0995  0.4520
 1008MOL0     N32941   4.776  11.203   8.196 -0.5088 -0.7029  0.0994
 1008MOL0     C32942   4.675  11.220   8.115  0.5650 -0.2416  0.4188
 1008MOL0     C32943   4.630  11.344   8.139  0.5847 -0.5946 -0.2671
 1008MOL0     C32944   4.521  11.407   8.061 -0.2106 -0.7502  0.1892
 1008MOL0     C32945   4.385  11.367   8.083  0.8713  0.8080 -0.8922
 1008MOL0     C32946   4.329  11.411   8.221 -0.3447 -0.8250  0.4277
 1008MOL0     C32947   4.173  11.433   8.216 -0.1048  0.1200  0.1542
 1008MOL0     O32948   4.148  11.504   8.341 -0.5598  0.3249  0.0706
 1008MOL0     C32949   4.018  11.529   8.378 -0.0786 -0.7023  0.3349
 1008MOL0     C32950   3.987  11.535   8.509 -0.8248 -0.4512  0.2375
 1008MOL0     C32951   3.862  11.546   8.551 -0.0448 -0.0873 -0.1462
 1008MOL0     C32952   3.754  11.559   8.459  1.1430  0.1494 -0.1472
 1008MOL0     C32953   3.616  11.565   8.517  0.1126  0.2623  0.2064
 1008MOL0     O32954   3.514  11.582   8.420 -0.9945 -0.0396  0.2627
 1008MOL0     C32955   3.389  11.600   8.470 -0.6309  0.3808  1.0593
 1008MOL0     C32956   3.292  11.508   8.429  0.4581  0.2798  0.5476
 1008MOL0     C32957   3.156  11.519   8.464  0.0254  0.6191 -0.4025
 1008MOL0     C32958   3.118  11.613   8.556  0.7522  0.3244 -0.2521
 1008MOL0     O32959   2.980  11.640   8.590 -0.4325  0.2828  0.3922
 1008MOL0     C32960   2.924  11.708   8.481 -0.1947 -0.0391 -0.2940
 1008MOL0     C32961   2.786  11.771   8.515  0.2524  0.9118  0.6854
 1008MOL0     C32962   2.662  11.673   8.510 -0.0773 -0.5572 -0.6970
 1008MOL0     C32963   2.532  11.757   8.536 -0.1716  0.1990  0.0766
 1008MOL0     C32964   2.411  11.673   8.509  0.3782  0.2954  0.5581
 1008MOL0     C32965   2.282  11.762   8.534 -0.4894  0.1561 -0.0204
 1008MOL0     C32966   2.175  11.674   8.597 -0.1231 -0.2323  0.0537
 1008MOL0     C32967   2.088  11.752   8.698  0.6085  0.2620 -0.3878
 1008MOL0    Cl32968   2.002  11.631   8.800 -0.0953 -0.1837  0.1035
 1008MOL0     C32969   3.218  11.699   8.606 -0.1121 -0.1157  0.3395
 1008MOL0     C32970   3.352  11.688   8.567 -0.9796 -0.5961 -0.0639
 1008MOL0     O32971   3.602  11.552   8.633  0.2625 -0.2538 -0.1925
 1008MOL0     C32972   3.787  11.558   8.324  0.4852 -1.3487 -0.2050
 1008MOL0     C32973   3.912  11.543   8.282 -0.8055 -0.9725 -0.0529
 1008MOL0     N32974   4.707  11.406   8.235  0.1443  0.6601  1.1412
 1008MOL0     N32975   4.805  11.323   8.261  0.4348  0.8349  0.0209
 1008MOL0     C32976   5.680  10.541   8.555 -0.4935  0.4628 -0.6629
 1008MOL0     C32977   5.824  10.522   8.555 -0.0172  0.6830 -0.0253
 1008MOL0     C32978   6.242  10.680   8.462  0.7016  0.0920  0.7804
 1008MOL0     C32979   6.292  10.614   8.348 -0.0335  0.4674  0.9231
 1008MOL0     C32980   6.428  10.619   8.309  0.6419 -0.1626 -0.3701
 1008MOL0     C32981   6.512  10.711   8.378 -0.5109 -0.4089  0.6186
 1008MOL0     O32982   6.635  10.720   8.314  0.2597 -0.3859 -0.6787
 1008MOL0     C32983   6.744  10.774   8.385  0.5365 -0.1988  0.8130
 1008MOL0     C32984   6.863  10.794   8.299 -0.4487  0.0721  1.6501
 1008MOL0     C32985   6.948  10.917   8.342  0.5185 -0.0094 -0.0822
 1008MOL0     C32986   7.078  10.936   8.258  1.0533  0.6392  0.0151
 1008MOL0     C32987   7.052  11.019   8.143 -0.1412 -0.9707 -0.5078
 1008MOL0     C32988   7.021  11.093   8.050  0.9711  0.3970  0.0267
 1008MOL0     C32989   6.460  10.784   8.488  0.1153 -1.1248  0.1353
 1008MOL0     C32990   6.332  10.770   8.531 -0.0438  0.6296 -0.2430
 1008MOL0     H32991   5.888  10.705   8.278  2.0383  1.0308  1.9344
 1008MOL0     H32992   5.630  10.720   8.280 -2.6183 -1.3393  1.7193
 1008MOL0     H32993   5.392  10.667   8.637  1.7920 -1.4942 -0.0698
 1008MOL0     H32994   5.391  10.514   8.581  1.1069  0.7917  1.7469
 1008MOL0     H32995   5.169  10.572   8.530  0.0613  2.8945  2.6358
 1008MOL0     H32996   5.251  10.583   8.370  0.8288 -0.1218 -0.3370
 1008MOL0     H32997   5.177  10.778   8.570  1.0894 -4.0249  1.2127
 1008MOL0     H32998   5.082  10.739   8.426  0.8307 -0.7696  0.7453
 1008MOL0     H32999   5.357  10.869   8.436 -0.4559 -0.5308 -0.8879
 1008MOL0     H33000   5.276  10.814   8.281 -0.1547 -1.4007 -0.3720
 1008MOL0     H33001   5.264  11.072   8.321 -1.1739  0.9797  0.6383
 1008MOL0     H33002   5.156  11.037   8.455 -2.3236  2.9895 -2.5414
 1008MOL0     H33003   5.020  10.887   8.285  1.4443 -0.6811  2.5206
 1008MOL0     H33004   5.107  10.969   8.161 -2.7133  0.9251 -1.6472
 1008MOL0     H33005   4.936  11.088   8.396 -0.0642 -0.8100  0.7050
 1008MOL0     H33006   5.018  11.190   8.277 -3.7155  1.7928  0.3677
 1008MOL0     H33007   4.783  11.001   8.220 -0.0329 -0.1154 -0.4456
 1008MOL0     H33008   4.884  11.067   8.091  0.0174  1.8673  0.2054
 1008MOL0     H33009   4.643  11.142   8.046  0.2997  1.2566 -1.2381
 1008MOL0     H33010   4.538  11.382   7.955 -0.7022  4.2351 -1.3346
 1008MOL0     H33011   4.511  11.515   8.072 -2.0671 -0.9122  0.4060
 1008MOL0     H33012   4.373  11.261   8.059  1.1761  0.6458 -0.3463
 1008MOL0     H33013   4.335  11.417   7.999  2.4288 -0.0252 -2.3874
 1008MOL0     H33014   4.354  11.338   8.298  1.0616 -0.5623  0.2501
 1008MOL0     H33015   4.378  11.504   8.254  1.1995 -0.9234 -1.4534
 1008MOL0     H33016   4.115  11.341   8.216  0.4014 -0.2133  1.3581
 1008MOL0     H33017   4.136  11.498   8.136 -1.5058 -2.1672 -1.1692
 1008MOL0     H33018   4.065  11.518   8.582 -2.5087  1.2010  2.6044
 1008MOL0     H33019   3.849  11.529   8.657  0.7215  0.9725  0.1270
 1008MOL0     H33020   3.327  11.442   8.350  1.1662  2.0869 -0.7104
 1008MOL0     H33021   3.079  11.459   8.416  2.7216 -1.1368 -2.8881
 1008MOL0     H33022   2.904  11.642   8.396 -1.4876  0.7687 -0.6447
 1008MOL0     H33023   2.981  11.795   8.448 -1.1853  0.7197 -0.0560
 1008MOL0     H33024   2.766  11.842   8.434 -3.1614 -2.1867 -1.5088
 1008MOL0     H33025   2.792  11.825   8.610  2.0364  0.7242  0.7192
 1008MOL0     H33026   2.688  11.594   8.581 -2.0058 -2.2045 -1.7083
 1008MOL0     H33027   2.663  11.627   8.410  0.5207 -0.0101 -0.9487
 1008MOL0     H33028   2.521  11.779   8.643  4.2527  0.4462  0.6604
 1008MOL0     H33029   2.529  11.848   8.477  1.2426 -0.2187 -0.6741
 1008MOL0     H33030   2.417  11.581   8.567  0.9453  0.0544  0.1262
 1008MOL0     H33031   2.407  11.638   8.405  1.7945  1.8638 -0.0814
 1008MOL0     H33032   2.242  11.814   8.446  2.6290  0.5773 -1.3145
 1008MOL0     H33033   2.309  11.845   8.600  0.6030  1.6312 -2.2293
 1008MOL0     H33034   2.110  11.633   8.519 -0.1948 -2.1825  1.0927
 1008MOL0     H33035   2.225  11.595   8.652  4.7562  1.4758 -1.4130
 1008MOL0     H33036   2.021  11.820   8.644  0.9191  1.5066  0.7574
 1008MOL0     H33037   2.142  11.811   8.773  1.0556 -2.5763  1.6810
 1008MOL0     H33038   3.191  11.764   8.689 -1.5185 -2.2889  1.7089
 1008MOL0     H33039   3.430  11.741   8.620  1.3291 -1.4410 -2.3897
 1008MOL0     H33040   3.706  11.586   8.257 -0.3066 -4.2792 -0.6046
 1008MOL0     H33041   3.930  11.548   8.175 -0.8049  1.7847 -0.0168
 1008MOL0     H33042   5.618  10.512   8.640 -1.0100  3.1517 -0.0330
 1008MOL0     H33043   5.863  10.453   8.628 -4.9698 -0.9884  1.4688
 1008MOL0     H33044   6.242  10.535   8.293  0.6697  0.4467  0.3000
 1008MOL0     H33045   6.466  10.562   8.225 -1.7637  0.4641 -1.9823
 1008MOL0     H33046   6.771  10.709   8.469  0.9029 -1.4629 -0.2605
 1008MOL0     H33047   6.719  10.869   8.432 -1.1738 -0.2633  0.0756
 1008MOL0     H33048   6.917  10.699   8.307 -3.2040 -1.7237  0.3829
 1008MOL0     H33049   6.842  10.808   8.192  2.0546  0.7007  1.1753
 1008MOL0     H33050   6.970  10.898   8.447 -2.7475 -0.1199  0.6942
 1008MOL0     H33051   6.882  11.005   8.339 -0.3936 -0.5840  1.7835
 1008MOL0     H33052   7.149  10.975   8.331  1.6956 -0.0426 -0.2319
 1008MOL0     H33053   7.110  10.839   8.221 -0.4814 -0.0326  0.3635
 1008MOL0     H33054   6.976  11.161   7.980 -0.5393 -1.2017 -0.6302
 1008MOL0     H33055   6.519  10.856   8.543  2.0440 -2.4315 -0.1473
 1008MOL0     H33056   6.294  10.826   8.617 -0.1653 -1.9624  1.4983
 1009MOL0     O33057   6.371   3.414   2.876 -0.0514 -0.3087  0.3124
 1009MOL0     C33058   6.390   3.477   2.769 -0.5800  1.0362 -0.5957
 1009MOL0     O33059   6.298   3.521   2.683  0.5635 -0.5466 -0.1698
 1009MOL0     C33060   6.166   3.485   2.709  0.7159  1.0261 -0.1208
 1009MOL0     C33061   6.064   3.586   2.696 -0.9635 -0.1329  0.1661
 1009MOL0     C33062   5.929   3.547   2.719  0.2594 -0.2934 -0.0834
 1009MOL0     C33063   5.896   3.419   2.763 -0.9316 -0.1551 -0.2996
 1009MOL0     O33064   5.769   3.374   2.785 -0.1956 -0.3165 -0.3232
 1009MOL0     C33065   5.662   3.440   2.713  0.8606 -0.4261  0.4708
 1009MOL0     C33066   5.552   3.338   2.694 -0.3597 -0.3026 -0.8012
 1009MOL0     C33067   5.468   3.370   2.564  0.2536  0.3868 -0.3231
 1009MOL0     C33068   5.319   3.323   2.584  0.1070 -0.6884  0.2118
 1009MOL0     C33069   5.235   3.321   2.449 -0.6920 -0.0421 -0.6058
 1009MOL0     C33070   5.091   3.301   2.482 -0.6189 -0.7431 -0.0110
 1009MOL0     C33071   5.012   3.427   2.544 -1.4742 -0.2588 -0.1808
 1009MOL0     C33072   4.865   3.393   2.562  0.3878  0.0466 -0.3851
 1009MOL0     N33073   4.786   3.370   2.443  0.3752  0.4046 -0.1452
 1009MOL0     C33074   4.738   3.246   2.410  0.2178 -0.3484 -0.4461
 1009MOL0     C33075   4.695   3.260   2.287  0.4211  0.0293  0.1595
 1009MOL0     C33076   4.641   3.155   2.208 -0.4377 -0.0326  0.5855
 1009MOL0     C33077   4.498   3.186   2.184  0.8512 -0.0965  0.1718
 1009MOL0     C33078   4.420   3.082   2.097 -0.6094  0.0878  0.9782
 1009MOL0     C33079   4.263   3.110   2.084 -0.3455 -0.4611 -0.2568
 1009MOL0     O33080   4.229   3.054   1.961  0.2403  0.3156  0.2822
 1009MOL0     C33081   4.100   3.077   1.917  0.0921  1.0523 -0.4913
 1009MOL0     C33082   3.983   3.108   1.990 -0.5043 -0.2203 -0.1820
 1009MOL0     C33083   3.855   3.094   1.936 -0.6207 -0.5420 -0.4392
 1009MOL0     C33084   3.837   3.048   1.806  0.2039  0.4186 -1.1260
 1009MOL0     C33085   3.699   3.020   1.756  0.4867 -0.3054  0.1841
 1009MOL0     O33086   3.595   3.013   1.850 -0.6297  0.4402  0.0684
 1009MOL0     C33087   3.467   2.950   1.810  0.1202  0.8886 -1.2403
 1009MOL0     C33088   3.381   2.905   1.912  0.6407  0.4055  1.1667
 1009MOL0     C33089   3.253   2.859   1.889 -1.0815 -0.6997  0.4025
 1009MOL0     C33090   3.211   2.849   1.761  0.0932 -0.0597  0.1396
 1009MOL0     O33091   3.092   2.806   1.720  0.4069  0.6963 -0.3486
 1009MOL0     C33092   2.981   2.827   1.807  0.1379  0.1796 -0.3756
 1009MOL0     C33093   2.869   2.747   1.746  0.9895 -0.5423  0.3752
 1009MOL0     C33094   2.747   2.748   1.833  0.0989  0.2062  0.0569
 1009MOL0     C33095   2.637   2.634   1.818  0.1721  1.3013  0.3277
 1009MOL0     C33096   2.541   2.624   1.934 -0.6643 -0.0861  0.5802
 1009MOL0     C33097   2.425   2.719   1.911  0.1671  0.3259 -0.1252
 1009MOL0     C33098   2.302   2.673   1.988 -0.3426 -0.1725  0.2062
 1009MOL0     C33099   2.186   2.772   1.958  0.2014 -0.5802 -0.5561
 1009MOL0    Cl33100   2.118   2.788   1.788 -0.3857  0.1747  0.1002
 1009MOL0     C33101   3.282   2.905   1.663  0.2376  0.5832 -1.2546
 1009MOL0     C33102   3.410   2.953   1.686 -0.3361 -0.2242 -0.0380
 1009MOL0     O33103   3.693   2.992   1.639 -1.4198 -0.4365  0.1329
 1009MOL0     C33104   3.953   3.024   1.727 -0.0447 -0.5962  1.2165
 1009MOL0     C33105   4.080   3.047   1.784  0.1410 -0.5137 -0.5922
 1009MOL0     N33106   4.711   3.394   2.251 -0.2710  0.5314 -0.0343
 1009MOL0     N33107   4.768   3.457   2.348 -0.4200  0.5462  0.5781
 1009MOL0     C33108   5.992   3.323   2.778  0.5184  0.5831  0.0280
 1009MOL0     C33109   6.123   3.357   2.744 -0.5121 -0.1392 -0.6871
 1009MOL0     C33110   6.531   3.504   2.738 -0.6001  0.1480  0.1988
 1009MOL0     C33111   6.553   3.588   2.628  0.2906 -1.2885  0.3472
 1009MOL0     C33112   6.689   3.609   2.582  0.6717  0.8583  0.2858
 1009MOL0     C33113   6.802   3.555   2.646 -0.1277  0.5578 -1.3280
 1009MOL0     O33114   6.936   3.579   2.630 -0.1972  0.8893 -1.1385
 1009MOL0     C33115   6.971   3.639   2.510 -0.5646  0.0300  0.3494
 1009MOL0     C33116   7.119   3.668   2.518 -0.4539 -1.0364 -0.5319
 1009MOL0     C33117   7.196   3.542   2.514 -0.4081  0.3893 -0.5159
 1009MOL0     C33118   7.344   3.558   2.462 -0.0311 -0.0053  0.3316
 1009MOL0     C33119   7.416   3.425   2.470  0.6187 -0.3497  0.2203
 1009MOL0     C33120   7.470   3.319   2.473 -0.1680  0.1210  0.1210
 1009MOL0     C33121   6.772   3.482   2.763 -0.3673  0.3168  0.4409
 1009MOL0     C33122   6.637   3.450   2.808  0.1327 -0.1249  0.2515
 1009MOL0     H33123   6.091   3.688   2.671 -0.0745 -1.1755 -3.8228
 1009MOL0     H33124   5.848   3.617   2.700 -1.0231 -0.6115  3.4317
 1009MOL0     H33125   5.693   3.478   2.614 -3.9036  1.1249 -0.6964
 1009MOL0     H33126   5.621   3.529   2.762  1.3263  0.7939 -1.2453
 1009MOL0     H33127   5.491   3.324   2.783  1.5621 -1.0174  0.4538
 1009MOL0     H33128   5.596   3.241   2.670 -1.6545 -0.8005 -1.2224
 1009MOL0     H33129   5.521   3.311   2.490  3.1159 -0.1878  2.0228
 1009MOL0     H33130   5.466   3.478   2.548  0.9042  0.2404 -1.5258
 1009MOL0     H33131   5.317   3.219   2.619 -1.1667 -0.1712  1.8058
 1009MOL0     H33132   5.274   3.377   2.668  1.8018  0.1682  0.6196
 1009MOL0     H33133   5.266   3.238   2.385 -1.4598 -1.4836  0.8014
 1009MOL0     H33134   5.249   3.415   2.396  0.4198  0.0731 -0.1426
 1009MOL0     H33135   5.089   3.219   2.554  0.4470 -2.6873 -2.0700
 1009MOL0     H33136   5.036   3.278   2.390 -0.8792 -1.0450  0.2166
 1009MOL0     H33137   5.052   3.456   2.641  2.6319  0.8708 -1.9916
 1009MOL0     H33138   5.021   3.508   2.470  1.5037  0.0671  0.4044
 1009MOL0     H33139   4.823   3.477   2.618 -0.7142 -1.6617  1.5007
 1009MOL0     H33140   4.849   3.323   2.645 -0.6637  2.3973  1.5426
 1009MOL0     H33141   4.760   3.154   2.462  0.3691  0.1568  0.3993
 1009MOL0     H33142   4.631   3.058   2.259  1.8962 -1.0657 -0.7405
 1009MOL0     H33143   4.696   3.136   2.115  1.0996 -1.4200  1.7235
 1009MOL0     H33144   4.500   3.277   2.123 -1.5339  0.9741  1.5735
 1009MOL0     H33145   4.444   3.196   2.278 -1.0945 -1.0087 -0.8024
 1009MOL0     H33146   4.462   3.078   1.997 -0.1764 -1.0321  1.1871
 1009MOL0     H33147   4.418   2.986   2.150 -2.9531  0.3189  1.4401
 1009MOL0     H33148   4.242   3.217   2.077 -2.6943 -0.4641  3.7310
 1009MOL0     H33149   4.204   3.072   2.168 -1.5606  0.0381 -0.8688
 1009MOL0     H33150   3.973   3.133   2.095 -0.5891  2.8233 -0.8404
 1009MOL0     H33151   3.765   3.102   1.997  1.1477 -0.0866  2.2525
 1009MOL0     H33152   3.414   2.912   2.015  1.5647  1.0493  0.8401
 1009MOL0     H33153   3.213   2.814   1.980  0.4235 -1.3302  0.7788
 1009MOL0     H33154   2.960   2.934   1.798 -3.7848 -0.4132 -0.0690
 1009MOL0     H33155   2.994   2.803   1.913 -1.7240 -1.0339 -0.3759
 1009MOL0     H33156   2.898   2.647   1.711  2.3624  0.1783 -0.6181
 1009MOL0     H33157   2.854   2.801   1.651 -1.4111 -1.2519  0.2725
 1009MOL0     H33158   2.698   2.846   1.823 -0.7535 -0.1509  0.5271
 1009MOL0     H33159   2.773   2.739   1.939 -1.3781 -3.6068  0.2580
 1009MOL0     H33160   2.592   2.654   1.720  3.1165  0.5215 -1.3087
 1009MOL0     H33161   2.695   2.542   1.804 -0.2932  0.8098  1.5637
 1009MOL0     H33162   2.588   2.648   2.030  0.1682  0.4305  0.0639
 1009MOL0     H33163   2.492   2.526   1.936 -1.2263  0.0832 -1.9479
 1009MOL0     H33164   2.410   2.731   1.803 -0.7240  1.5932  0.1219
 1009MOL0     H33165   2.443   2.821   1.945 -1.2354  1.3329 -2.2040
 1009MOL0     H33166   2.265   2.574   1.962 -3.4743  0.6888  0.9945
 1009MOL0     H33167   2.332   2.668   2.093  1.7969 -2.0777 -0.4283
 1009MOL0     H33168   2.196   2.873   2.000  1.1106 -0.1937 -1.6711
 1009MOL0     H33169   2.096   2.732   2.006 -0.5494  2.1846  0.5745
 1009MOL0     H33170   3.231   2.903   1.568  0.3221 -2.7130 -1.3645
 1009MOL0     H33171   3.450   3.010   1.603  0.6612  1.4120  1.4923
 1009MOL0     H33172   3.945   3.004   1.621  4.6473  0.0598  0.5445
 1009MOL0     H33173   4.155   3.028   1.708 -3.6553 -2.4495 -4.2306
 1009MOL0     H33174   5.967   3.228   2.825  0.7155  2.2854  3.9660
 1009MOL0     H33175   6.197   3.277   2.753  3.8838  2.7163 -5.4780
 1009MOL0     H33176   6.470   3.629   2.572  0.3654 -1.1018  0.3732
 1009MOL0     H33177   6.694   3.663   2.488 -0.1980  0.5790  0.0725
 1009MOL0     H33178   6.910   3.728   2.491 -0.3134  0.4474  1.4087
 1009MOL0     H33179   6.963   3.577   2.420  2.1228  0.4187 -0.2430
 1009MOL0     H33180   7.141   3.741   2.439 -2.4454  2.7529  2.0709
 1009MOL0     H33181   7.133   3.730   2.607 -1.6186 -0.9237 -0.4091
 1009MOL0     H33182   7.147   3.467   2.452 -1.1280  0.8560 -0.5280
 1009MOL0     H33183   7.193   3.515   2.620 -1.6101 -0.5306 -0.7604
 1009MOL0     H33184   7.342   3.590   2.357 -2.1436  0.0097  0.3361
 1009MOL0     H33185   7.400   3.623   2.530  0.6568  2.2770 -2.2433
 1009MOL0     H33186   7.534   3.235   2.489  0.7119  0.6278 -0.6436
 1009MOL0     H33187   6.862   3.444   2.810 -0.1394 -0.5730 -0.6586
 1009MOL0     H33188   6.616   3.397   2.901 -0.6622 -0.0470  0.1253
 1010MOL0     O33189   2.106   3.560   4.375 -0.4556 -0.2978  0.2829
 1010MOL0     C33190   2.127   3.661   4.443  0.3688  0.2912 -0.6970
 1010MOL0     O33191   2.025   3.730   4.514  0.1870 -0.0833 -0.3106
 1010MOL0     C33192   1.894   3.692   4.526  0.6075  0.7166 -0.4131
 1010MOL0     C33193   1.824   3.746   4.632 -0.4518 -0.3564  0.0513
 1010MOL0     C33194   1.688   3.711   4.661 -0.2251 -0.5102  1.1498
 1010MOL0     C33195   1.613   3.629   4.578  0.0720  0.0380 -0.6474
 1010MOL0     O33196   1.491   3.606   4.620  1.3488  0.2103 -0.3674
 1010MOL0     C33197   1.406   3.533   4.527 -0.0940  1.2510 -0.2223
 1010MOL0     C33198   1.276   3.537   4.607  0.2020  0.0939  0.6025
 1010MOL0     C33199   1.178   3.439   4.543  0.3600 -0.7428 -0.1966
 1010MOL0     C33200   1.067   3.408   4.637 -0.0210 -0.1327 -0.1310
 1010MOL0     C33201   0.923   3.465   4.602 -0.0589  0.2649  1.0295
 1010MOL0     C33202   0.824   3.427   4.712  0.8314 -0.0233 -0.7808
 1010MOL0     C33203   0.784   3.278   4.720 -0.1450 -0.9326 -0.7561
 1010MOL0     C33204   0.665   3.243   4.814  0.8957 -0.5802 -0.2796
 1010MOL0     N33205   0.683   3.277   4.955 -0.2564  0.3362  1.0859
 1010MOL0     C33206   0.674   3.395   5.011 -0.6439  0.5726  0.1060
 1010MOL0     C33207   0.732   3.383   5.127  0.8711 -0.5541 -0.6923
 1010MOL0     C33208   0.772   3.491   5.227  0.4375 -0.4415 -0.8300
 1010MOL0     C33209   0.659   3.530   5.324 -0.3786 -0.3913 -0.1362
 1010MOL0     C33210   0.674   3.475   5.469  0.0362 -0.1682  0.1750
 1010MOL0     C33211   0.543   3.486   5.544  0.5909  0.2602  1.0152
 1010MOL0     O33212   0.501   3.626   5.537 -0.3551  0.7735 -0.5741
 1010MOL0     C33213   0.371   3.646   5.579 -1.0739 -0.3900 -0.1532
 1010MOL0     C33214   0.302   3.741   5.514  0.4580  0.7904 -0.6935
 1010MOL0     C33215   0.174   3.781   5.546  0.2342 -1.6026  1.0096
 1010MOL0     C33216   0.100   3.711   5.644 -0.3138  0.5128  0.0306
 1010MOL0     C33217  -0.027   3.755   5.693  0.5579 -0.1292  0.7848
 1010MOL0     O33218  -0.088   3.688   5.798 -1.0072 -0.3673 -0.0889
 1010MOL0     C33219  -0.225   3.704   5.827  0.1779 -0.3078 -0.2070
 1010MOL0     C33220  -0.322   3.717   5.729 -0.3055 -0.0713 -0.2887
 1010MOL0     C33221  -0.459   3.733   5.764  0.6352  0.3717 -0.1276
 1010MOL0     C33222  -0.500   3.708   5.895 -0.3022 -0.1507 -0.1014
 1010MOL0     O33223  -0.629   3.716   5.912  0.3612  0.4438 -0.4161
 1010MOL0     C33224  -0.688   3.644   6.020  0.4544 -0.8420  0.5046
 1010MOL0     C33225  -0.840   3.615   6.002  0.1176 -0.2509  0.6492
 1010MOL0     C33226  -0.887   3.512   6.114 -0.3297 -0.1689  0.1886
 1010MOL0     C33227  -0.916   3.586   6.240 -0.6497 -0.7218  0.3318
 1010MOL0     C33228  -0.907   3.487   6.353 -0.0487  0.5246 -0.1922
 1010MOL0     C33229  -0.965   3.350   6.344  0.9924 -0.1367  0.5052
 1010MOL0     C33230  -1.114   3.365   6.322  0.0559  0.8703  0.4908
 1010MOL0     C33231  -1.171   3.229   6.315 -0.4181  0.1709 -0.3938
 1010MOL0    Cl33232  -1.198   3.154   6.482  0.0594 -0.8495 -0.6329
 1010MOL0     C33233  -0.399   3.687   5.997 -0.0956 -0.6298 -0.4693
 1010MOL0     C33234  -0.261   3.684   5.962 -0.3820  0.1455  0.5637
 1010MOL0     O33235  -0.080   3.843   5.624  0.1469  0.2335 -0.2263
 1010MOL0     C33236   0.160   3.594   5.700  0.0891  0.3235  0.7872
 1010MOL0     C33237   0.294   3.562   5.671 -0.3081  0.0576  0.6270
 1010MOL0     N33238   0.775   3.252   5.147 -0.3109 -0.8658 -0.1996
 1010MOL0     N33239   0.744   3.194   5.037 -0.1952  0.5483 -0.2093
 1010MOL0     C33240   1.684   3.575   4.468 -0.8782  0.5364 -1.4155
 1010MOL0     C33241   1.818   3.611   4.444 -0.6628  0.6661  0.1604
 1010MOL0     C33242   2.260   3.716   4.440 -0.6949  0.6049 -0.5063
 1010MOL0     C33243   2.363   3.670   4.353 -0.2196 -1.1180  0.2886
 1010MOL0     C33244   2.486   3.735   4.357  0.4347 -0.2472 -0.5748
 1010MOL0     C33245   2.517   3.838   4.447 -0.3669 -0.1519  0.9006
 1010MOL0     O33246   2.635   3.907   4.438  0.1717 -0.5097  0.4299
 1010MOL0     C33247   2.676   3.992   4.540 -0.1136  0.5488 -0.1419
 1010MOL0     C33248   2.813   4.063   4.515 -0.5192 -0.3845 -0.6605
 1010MOL0     C33249   2.832   4.172   4.627 -0.7226  0.3603  0.1022
 1010MOL0     C33250   2.963   4.249   4.609 -0.4589 -0.6405  0.1161
 1010MOL0     C33251   3.080   4.163   4.634  0.5210  0.0705  0.4958
 1010MOL0     C33252   3.175   4.085   4.652  0.3289 -0.2277  0.2650
 1010MOL0     C33253   2.421   3.878   4.539 -0.6974 -0.3234 -0.2482
 1010MOL0     C33254   2.297   3.819   4.535 -0.5258 -0.8078 -0.4345
 1010MOL0     H33255   1.882   3.812   4.696  0.0383 -1.0672  0.3555
 1010MOL0     H33256   1.636   3.758   4.744 -1.9997 -1.7896  0.8253
 1010MOL0     H33257   1.434   3.431   4.501 -4.5717  0.3035 -2.4245
 1010MOL0     H33258   1.392   3.587   4.433 -0.0487  3.4836  0.9733
 1010MOL0     H33259   1.247   3.642   4.616  3.4230  1.2753 -1.0144
 1010MOL0     H33260   1.287   3.505   4.711 -2.4694 -0.2844  0.8314
 1010MOL0     H33261   1.233   3.346   4.522 -0.7126 -1.5561  0.4775
 1010MOL0     H33262   1.129   3.468   4.450  2.7342 -1.7541 -1.8767
 1010MOL0     H33263   1.051   3.300   4.636  0.1617 -0.1917  1.1108
 1010MOL0     H33264   1.090   3.435   4.741 -4.0022  0.5228  0.7292
 1010MOL0     H33265   0.892   3.421   4.507  0.1350 -4.1787  2.8097
 1010MOL0     H33266   0.929   3.573   4.583  0.0259 -0.1056 -1.3088
 1010MOL0     H33267   0.730   3.483   4.703 -0.0517 -0.8504  2.1041
 1010MOL0     H33268   0.862   3.456   4.810 -2.7102  0.6257  0.5528
 1010MOL0     H33269   0.757   3.250   4.618  0.2325  1.1300 -1.4680
 1010MOL0     H33270   0.870   3.214   4.744  2.0823  1.7428 -1.1318
 1010MOL0     H33271   0.653   3.135   4.801  2.9655 -0.9638  0.5838
 1010MOL0     H33272   0.574   3.299   4.793  1.2002 -0.2387 -0.7028
 1010MOL0     H33273   0.624   3.477   4.959  1.0127  1.2726 -0.4266
 1010MOL0     H33274   0.793   3.585   5.175 -1.0084  0.5264  0.2447
 1010MOL0     H33275   0.863   3.452   5.274  0.8265  2.0484  0.7264
 1010MOL0     H33276   0.564   3.492   5.286 -3.1354  1.7059  3.9115
 1010MOL0     H33277   0.640   3.638   5.326  0.3765 -0.2391 -0.7838
 1010MOL0     H33278   0.710   3.372   5.457  0.4549  0.0145 -0.1940
 1010MOL0     H33279   0.754   3.527   5.522  2.7824 -0.7454 -3.0302
 1010MOL0     H33280   0.555   3.450   5.647  1.1845 -2.7983 -0.0279
 1010MOL0     H33281   0.463   3.425   5.502 -0.9766 -0.0231  4.0880
 1010MOL0     H33282   0.340   3.796   5.429  0.4901 -1.3871 -2.1822
 1010MOL0     H33283   0.127   3.866   5.497 -1.4857 -2.6250  0.7667
 1010MOL0     H33284  -0.300   3.732   5.624 -0.7235 -0.0494 -0.3735
 1010MOL0     H33285  -0.540   3.734   5.692  2.0039  0.6920 -1.7328
 1010MOL0     H33286  -0.677   3.695   6.116 -2.1487  2.8466 -0.9142
 1010MOL0     H33287  -0.641   3.545   6.019  0.6706 -0.7356 -0.2514
 1010MOL0     H33288  -0.851   3.563   5.906  5.6818  0.5166 -0.7832
 1010MOL0     H33289  -0.900   3.707   6.002  1.6709  0.8108  0.0170
 1010MOL0     H33290  -0.810   3.436   6.129 -0.7626 -0.4620  1.0145
 1010MOL0     H33291  -0.976   3.469   6.067 -0.3547  0.5244 -0.4148
 1010MOL0     H33292  -0.849   3.672   6.256 -0.0084 -0.9147 -1.1502
 1010MOL0     H33293  -1.018   3.626   6.240  0.2447  1.8239  1.5327
 1010MOL0     H33294  -0.938   3.534   6.447 -2.4443 -0.2364 -0.5318
 1010MOL0     H33295  -0.800   3.465   6.363 -0.2796 -1.2253 -1.1832
 1010MOL0     H33296  -0.938   3.289   6.430  0.8530 -2.1307 -0.8079
 1010MOL0     H33297  -0.923   3.301   6.256  0.1301 -1.0789  0.6094
 1010MOL0     H33298  -1.170   3.417   6.401 -0.1681  3.2179 -1.1159
 1010MOL0     H33299  -1.136   3.415   6.227  1.7738  2.6591  0.9619
 1010MOL0     H33300  -1.116   3.160   6.251 -2.8000  0.4520 -2.9062
 1010MOL0     H33301  -1.267   3.231   6.263 -0.7835 -2.2157  0.0830
 1010MOL0     H33302  -0.418   3.685   6.103  0.2816  2.0855 -0.3001
 1010MOL0     H33303  -0.192   3.659   6.042 -1.8384  0.7624  2.0769
 1010MOL0     H33304   0.104   3.532   5.770  0.1348 -1.1459 -0.4404
 1010MOL0     H33305   0.329   3.480   5.733 -0.2183 -0.8974 -0.6543
 1010MOL0     H33306   1.640   3.492   4.413  0.0214 -0.0863 -1.2144
 1010MOL0     H33307   1.861   3.553   4.363  0.1008 -0.5288  1.3862
 1010MOL0     H33308   2.346   3.597   4.274 -2.0489  0.2783 -0.6734
 1010MOL0     H33309   2.562   3.696   4.290  1.1297  0.5183 -0.2484
 1010MOL0     H33310   2.689   3.933   4.631 -2.2507  3.0657  1.9897
 1010MOL0     H33311   2.592   4.062   4.549  1.0396  1.7930  1.5783
 1010MOL0     H33312   2.900   3.997   4.516  0.6194  1.0202  1.9734
 1010MOL0     H33313   2.817   4.116   4.419 -0.3187  0.0855 -0.3935
 1010MOL0     H33314   2.819   4.132   4.728  0.8223  0.3880  0.3326
 1010MOL0     H33315   2.744   4.236   4.613  0.2123  1.2200 -2.3103
 1010MOL0     H33316   2.963   4.295   4.510 -3.0688  2.8063  1.4664
 1010MOL0     H33317   2.976   4.328   4.685  2.7304 -0.8096 -0.1213
 1010MOL0     H33318   3.265   4.036   4.682  0.5726  0.5468  0.8251
 1010MOL0     H33319   2.439   3.952   4.616 -0.1800  0.5864 -1.2249
 1010MOL0     H33320   2.229   3.849   4.615  1.6681 -1.2532  1.7370
 1011MOL0     O33321   5.638  10.640   2.474 -0.0142  0.3200  0.2525
 1011MOL0     C33322   5.644  10.762   2.505  0.0621  0.6460 -0.6601
 1011MOL0     O33323   5.534  10.831   2.566 -0.6983  0.2579  0.2443
 1011MOL0     C33324   5.408  10.787   2.586  0.1028 -0.7059  0.1638
 1011MOL0     C33325   5.356  10.827   2.704  0.5888 -0.0692  0.6484
 1011MOL0     C33326   5.221  10.805   2.733 -0.5099 -0.1074 -0.1932
 1011MOL0     C33327   5.146  10.714   2.650  0.4381  0.2213 -0.0471
 1011MOL0     O33328   5.014  10.695   2.696  0.4560  0.5398  0.3421
 1011MOL0     C33329   4.927  10.597   2.619 -0.8228 -0.7127 -0.2837
 1011MOL0     C33330   4.788  10.589   2.676 -0.4365  0.4613  0.0043
 1011MOL0     C33331   4.707  10.714   2.673  1.0583 -0.0686 -0.0901
 1011MOL0     C33332   4.702  10.780   2.529 -0.4718  0.1667 -1.1331
 1011MOL0     C33333   4.562  10.823   2.500  0.1202  0.6661  0.0659
 1011MOL0     C33334   4.460  10.700   2.484  0.9184  0.0866  0.7095
 1011MOL0     C33335   4.313  10.737   2.479  0.2033 -0.4027 -0.1393
 1011MOL0     C33336   4.224  10.608   2.455 -0.3807 -0.6585  0.3491
 1011MOL0     N33337   4.091  10.644   2.494  0.0842  0.6861 -0.1532
 1011MOL0     C33338   4.004  10.717   2.411 -0.3915  0.1469  0.7553
 1011MOL0     C33339   3.907  10.752   2.502  0.6849 -0.6433 -0.1218
 1011MOL0     C33340   3.786  10.841   2.471 -0.4575  0.1492 -0.2467
 1011MOL0     C33341   3.786  10.979   2.539  0.4734  0.5551 -0.0336
 1011MOL0     C33342   3.839  11.083   2.441  0.7633  0.4556 -0.4304
 1011MOL0     C33343   3.981  11.081   2.410 -0.3678  0.1439 -0.7463
 1011MOL0     O33344   4.046  11.112   2.533  0.1929 -0.2908 -0.3404
 1011MOL0     C33345   4.176  11.136   2.526 -0.3108 -1.3048 -0.5360
 1011MOL0     C33346   4.237  11.174   2.653 -0.6236  0.1583  0.6658
 1011MOL0     C33347   4.375  11.214   2.662  0.3878 -0.3807 -0.2917
 1011MOL0     C33348   4.454  11.214   2.548  0.2462  0.6992  0.6324
 1011MOL0     C33349   4.596  11.253   2.546 -0.9577 -0.2777  0.5834
 1011MOL0     O33350   4.660  11.266   2.423 -0.1102 -0.1408  0.0587
 1011MOL0     C33351   4.799  11.232   2.419 -0.7488  0.0686 -0.1280
 1011MOL0     C33352   4.868  11.286   2.312 -0.3561 -0.2635 -0.3726
 1011MOL0     C33353   5.002  11.252   2.295  0.6648 -1.3608 -0.6722
 1011MOL0     C33354   5.069  11.162   2.376  0.0519  1.3309  0.4969
 1011MOL0     O33355   5.199  11.117   2.351  0.1341 -0.4948 -0.2555
 1011MOL0     C33356   5.290  11.219   2.333 -0.3426 -0.1050  0.3477
 1011MOL0     C33357   5.406  11.134   2.272 -0.6980  0.4356 -0.0377
 1011MOL0     C33358   5.523  11.220   2.227 -0.2758  0.3961  0.2479
 1011MOL0     C33359   5.618  11.270   2.333  0.0456 -0.2290 -0.4614
 1011MOL0     C33360   5.724  11.366   2.277  0.4897  0.3327 -0.0861
 1011MOL0     C33361   5.808  11.431   2.384  0.2520  0.8005  0.2511
 1011MOL0     C33362   5.923  11.514   2.336  0.9439 -0.0122  0.0638
 1011MOL0     C33363   6.037  11.443   2.268  0.4053  0.1824 -0.7838
 1011MOL0    Cl33364   6.147  11.571   2.221 -0.3629  0.5122  0.1941
 1011MOL0     C33365   5.005  11.112   2.493  0.0006 -0.1145  0.8728
 1011MOL0     C33366   4.869  11.145   2.505 -0.0795  0.5553  0.5605
 1011MOL0     O33367   4.646  11.267   2.658 -0.1539 -0.4549  0.0239
 1011MOL0     C33368   4.397  11.171   2.432  0.7105  0.9902  0.4259
 1011MOL0     C33369   4.261  11.135   2.415  0.1480 -0.1918 -0.2541
 1011MOL0     N33370   3.929  10.700   2.628  0.0357 -0.6683  0.1885
 1011MOL0     N33371   4.033  10.634   2.621 -0.9862  0.7216  0.7564
 1011MOL0     C33372   5.201  10.677   2.531 -0.5055  0.4862  0.5195
 1011MOL0     C33373   5.330  10.715   2.495  0.0989  0.1852  0.5590
 1011MOL0     C33374   5.774  10.828   2.492 -0.6393  0.8198 -0.3405
 1011MOL0     C33375   5.875  10.759   2.418 -0.5026  0.6249 -0.0672
 1011MOL0     C33376   5.997  10.828   2.395  0.0149 -0.4246  0.4353
 1011MOL0     C33377   6.013  10.961   2.443 -0.0627  0.5147  0.2827
 1011MOL0     O33378   6.136  11.032   2.446  0.0039  0.0661  0.0291
 1011MOL0     C33379   6.240  10.977   2.377  0.1370  0.2926  0.3305
 1011MOL0     C33380   6.354  11.082   2.364  0.1117  1.7026  0.1171
 1011MOL0     C33381   6.363  11.186   2.484 -1.2825 -0.6009 -1.3583
 1011MOL0     C33382   6.486  11.282   2.487 -0.1497  0.1361  0.6214
 1011MOL0     C33383   6.477  11.391   2.391 -1.1554 -0.1307  0.3136
 1011MOL0     C33384   6.459  11.478   2.308 -0.3076 -0.0274  0.1094
 1011MOL0     C33385   5.915  11.026   2.516 -0.2555 -0.0201 -0.4613
 1011MOL0     C33386   5.791  10.965   2.539  0.5777  0.2440 -0.0077
 1011MOL0     H33387   5.420  10.886   2.769  1.5103 -0.6382  0.2756
 1011MOL0     H33388   5.179  10.848   2.823  0.2821 -2.5386  1.4546
 1011MOL0     H33389   4.979  10.502   2.637  0.6976  0.4855  2.3636
 1011MOL0     H33390   4.925  10.634   2.516 -2.1170  2.7127  0.8317
 1011MOL0     H33391   4.810  10.557   2.778 -1.6027  0.7002  0.3465
 1011MOL0     H33392   4.739  10.500   2.635  0.5431  0.5622 -1.4415
 1011MOL0     H33393   4.756  10.773   2.751  1.7410 -0.3281 -0.3134
 1011MOL0     H33394   4.604  10.690   2.701  0.7234  2.1295  0.8024
 1011MOL0     H33395   4.770  10.865   2.541 -1.9309  1.4045 -1.3903
 1011MOL0     H33396   4.722  10.710   2.447 -0.2328 -0.8656 -0.2221
 1011MOL0     H33397   4.563  10.888   2.412 -2.3546  0.3536 -0.2464
 1011MOL0     H33398   4.537  10.896   2.578  1.0848  4.1981 -2.6535
 1011MOL0     H33399   4.472  10.622   2.560 -1.8613 -2.1067 -0.9137
 1011MOL0     H33400   4.491  10.648   2.394 -0.8928 -1.7472  1.0916
 1011MOL0     H33401   4.277  10.786   2.570  0.9090 -0.1349 -0.0019
 1011MOL0     H33402   4.299  10.802   2.393  0.3298  0.1510  0.2552
 1011MOL0     H33403   4.250  10.524   2.519 -1.0218 -0.2866  1.1090
 1011MOL0     H33404   4.233  10.571   2.352 -1.6997  1.1546 -0.4729
 1011MOL0     H33405   3.997  10.736   2.305  1.0226  0.9536  0.7878
 1011MOL0     H33406   3.696  10.783   2.495  0.1612 -0.0474  1.8471
 1011MOL0     H33407   3.781  10.854   2.363 -1.6808  0.3072 -0.1890
 1011MOL0     H33408   3.845  10.973   2.631  3.5354 -0.5771 -1.9335
 1011MOL0     H33409   3.681  11.001   2.560  0.7251  0.0666  1.9803
 1011MOL0     H33410   3.781  11.074   2.349 -0.5819 -0.4150  0.4614
 1011MOL0     H33411   3.811  11.173   2.496 -0.7657 -1.2141  1.7226
 1011MOL0     H33412   3.995  11.158   2.333 -0.1647  1.3417  0.4383
 1011MOL0     H33413   4.012  10.983   2.375  1.3114 -0.6659  2.5967
 1011MOL0     H33414   4.176  11.170   2.743  1.3729 -0.0326  2.0657
 1011MOL0     H33415   4.421  11.252   2.753  0.8513  3.1785 -1.8860
 1011MOL0     H33416   4.825  11.352   2.238 -1.2659  0.4859  0.7941
 1011MOL0     H33417   5.046  11.298   2.208 -0.7641  0.1021 -0.6618
 1011MOL0     H33418   5.306  11.278   2.424 -2.4423 -0.4091  0.9746
 1011MOL0     H33419   5.253  11.290   2.259 -0.2282 -0.8030 -0.3910
 1011MOL0     H33420   5.384  11.061   2.193  0.9280  0.7192 -0.7928
 1011MOL0     H33421   5.442  11.075   2.357  0.4012 -0.7684 -1.2885
 1011MOL0     H33422   5.488  11.312   2.178  1.3746  3.8508  4.8301
 1011MOL0     H33423   5.576  11.161   2.152  0.0640 -1.3286  1.7641
 1011MOL0     H33424   5.561  11.312   2.417  0.2374  2.2712 -1.5056
 1011MOL0     H33425   5.669  11.188   2.385 -0.9381  1.0221  2.6959
 1011MOL0     H33426   5.672  11.446   2.223 -2.0424 -1.9862 -1.3808
 1011MOL0     H33427   5.797  11.297   2.233 -1.1838 -2.7253  1.5475
 1011MOL0     H33428   5.860  11.359   2.448  2.6400  3.8563  2.0259
 1011MOL0     H33429   5.743  11.480   2.457 -4.1255 -2.3644 -1.1061
 1011MOL0     H33430   5.886  11.599   2.277  0.8237  0.3673  0.6806
 1011MOL0     H33431   5.972  11.551   2.427 -2.7104 -1.7936  3.0306
 1011MOL0     H33432   5.997  11.391   2.180 -1.0536  0.0250 -0.0602
 1011MOL0     H33433   6.085  11.364   2.325 -1.5478 -0.8041 -0.4318
 1011MOL0     H33434   5.071  11.048   2.551  0.6082 -0.3648 -0.0779
 1011MOL0     H33435   4.822  11.091   2.586 -0.0442 -0.5826 -0.1614
 1011MOL0     H33436   4.450  11.182   2.337 -1.1639  0.5929 -0.7209
 1011MOL0     H33437   4.224  11.104   2.318 -2.6757  3.1321 -0.4279
 1011MOL0     H33438   5.140  10.616   2.464  3.1546 -0.4155 -2.3549
 1011MOL0     H33439   5.375  10.703   2.397  4.1860  5.2235  1.3908
 1011MOL0     H33440   5.872  10.662   2.369  2.7376  0.6711 -0.6088
 1011MOL0     H33441   6.072  10.772   2.339 -0.8852 -3.2084  1.8042
 1011MOL0     H33442   6.208  10.944   2.278  2.3919  0.8993 -0.6631
 1011MOL0     H33443   6.272  10.895   2.441 -0.0639  0.8346  1.1371
 1011MOL0     H33444   6.445  11.022   2.374  0.0149  1.4337 -0.6060
 1011MOL0     H33445   6.341  11.137   2.271 -0.7319  0.5316 -0.4821
 1011MOL0     H33446   6.370  11.128   2.576 -0.9262 -0.1217 -1.0779
 1011MOL0     H33447   6.272  11.247   2.476 -1.2994 -0.4636 -0.2499
 1011MOL0     H33448   6.474  11.338   2.580 -3.0287  0.9798 -0.1293
 1011MOL0     H33449   6.582  11.230   2.478 -0.0745  0.0773  1.6501
 1011MOL0     H33450   6.431  11.565   2.253 -1.0678 -1.1771 -1.3779
 1011MOL0     H33451   5.933  11.128   2.548 -2.8963  0.6444 -0.8475
 1011MOL0     H33452   5.729  11.021   2.609  0.3928  0.9610 -0.7220
 1012MOL0     O33453   3.349   2.191   8.914 -0.1484  0.4049  0.3702
 1012MOL0     C33454   3.319   2.298   8.963 -0.0529  0.5413 -1.3825
 1012MOL0     O33455   3.204   2.323   9.023  1.4345 -0.1207 -0.9416
 1012MOL0     C33456   3.098   2.238   9.022  0.3407 -0.5062  0.3359
 1012MOL0     C33457   2.966   2.278   8.989  0.2666  0.2431  0.6123
 1012MOL0     C33458   2.854   2.196   9.005 -0.6241 -0.0356 -0.0713
 1012MOL0     C33459   2.870   2.065   9.062 -0.2026 -0.3271 -0.0365
 1012MOL0     O33460   2.755   1.999   9.083 -0.2004  0.1600 -0.1025
 1012MOL0     C33461   2.739   1.884   9.171  0.1928  0.9080  1.4179
 1012MOL0     C33462   2.581   1.870   9.201  0.1487 -0.0001 -1.7117
 1012MOL0     C33463   2.534   1.987   9.289 -0.6076 -0.7759  0.0814
 1012MOL0     C33464   2.383   1.995   9.319 -0.3857  0.3339 -0.3247
 1012MOL0     C33465   2.352   2.075   9.452  0.2147 -0.2410  1.0309
 1012MOL0     C33466   2.209   2.065   9.503 -0.6775 -0.0500 -0.5554
 1012MOL0     C33467   2.200   2.143   9.644  0.6594  0.0822 -0.0650
 1012MOL0     C33468   2.051   2.122   9.685  0.6630  0.1163  0.0623
 1012MOL0     N33469   2.029   2.204   9.805 -0.0892  0.1176  0.3305
 1012MOL0     C33470   2.091   2.179   9.927 -0.1238  0.6850  1.0533
 1012MOL0     C33471   2.046   2.275  10.001  0.6930  0.2692  0.0603
 1012MOL0     C33472   2.084   2.279  10.146  0.8034  0.3089 -0.4504
 1012MOL0     C33473   1.961   2.243  10.230 -0.4588  0.4444 -0.1917
 1012MOL0     C33474   2.001   2.219  10.377 -1.5152  0.0571  0.1958
 1012MOL0     C33475   1.895   2.127  10.443 -0.1758 -0.3767 -0.8705
 1012MOL0     O33476   1.771   2.196  10.452 -0.0609 -0.4051  0.5368
 1012MOL0     C33477   1.659   2.146  10.523 -0.7678 -0.0541  0.6457
 1012MOL0     C33478   1.649   2.013  10.559  0.2328  0.2100 -0.0142
 1012MOL0     C33479   1.526   1.960  10.577 -0.4834  0.3977 -1.0864
 1012MOL0     C33480   1.410   2.042  10.585  0.5950 -0.0165 -0.1465
 1012MOL0     C33481   1.269   1.984  10.611 -1.2412 -0.5236 -0.3430
 1012MOL0     O33482   1.163   2.061  10.577  0.3439  0.8019 -0.3037
 1012MOL0     C33483   1.036   2.030  10.618 -0.4524  0.3262  1.2653
 1012MOL0     C33484   0.986   2.076  10.731 -0.5368  0.0539 -0.5761
 1012MOL0     C33485   0.849   2.061  10.767 -0.0580 -0.5194  0.1125
 1012MOL0     C33486   0.764   1.988  10.676 -0.2833  0.5934 -0.3563
 1012MOL0     O33487   0.637   1.959  10.697 -0.2336 -0.2464 -0.7351
 1012MOL0     C33488   0.579   2.034  10.810  0.3045 -0.3650 -0.2142
 1012MOL0     C33489   0.423   2.030  10.796 -0.2480 -0.1821 -1.3026
 1012MOL0     C33490   0.350   2.047  10.934 -0.4279 -0.4339  0.3369
 1012MOL0     C33491   0.201   2.069  10.921  0.6024  0.3483  0.2575
 1012MOL0     C33492   0.126   2.092  11.059  0.5783  0.2472 -0.0302
 1012MOL0     C33493   0.016   2.196  11.038 -0.4953 -0.3652  0.1915
 1012MOL0     C33494  -0.057   2.227  11.165 -0.2213  0.4049  0.8667
 1012MOL0     C33495  -0.167   2.332  11.155 -0.0747  0.6130  0.0731
 1012MOL0    Cl33496  -0.228   2.359  11.331  0.1329  0.1013  0.4020
 1012MOL0     C33497   0.814   1.939  10.561  0.2051  0.2079 -0.2428
 1012MOL0     C33498   0.953   1.957  10.533 -0.4728 -0.2569  0.1936
 1012MOL0     O33499   1.262   1.868  10.653 -0.0770  0.6948  0.2266
 1012MOL0     C33500   1.423   2.181  10.556 -0.4915  0.1594 -0.7243
 1012MOL0     C33501   1.549   2.229  10.518 -0.1450  0.5658  0.2281
 1012MOL0     N33502   1.977   2.369   9.931 -1.0487 -0.1021  0.0409
 1012MOL0     N33503   1.965   2.326   9.809 -0.5039  0.5445 -0.4659
 1012MOL0     C33504   3.002   2.025   9.094  0.6858  0.1036 -0.2731
 1012MOL0     C33505   3.113   2.111   9.080 -0.2862  1.4855  0.1749
 1012MOL0     C33506   3.426   2.404   8.969  0.5113 -0.1543  0.5622
 1012MOL0     C33507   3.407   2.520   9.047  0.1210  0.4528  0.3912
 1012MOL0     C33508   3.507   2.622   9.042  0.8556  0.3758  0.6432
 1012MOL0     C33509   3.635   2.599   8.982 -0.4711  0.1860 -0.0762
 1012MOL0     O33510   3.730   2.698   8.976  0.6905  0.3893  0.1060
 1012MOL0     C33511   3.860   2.667   9.024 -0.5393 -0.8565 -0.8905
 1012MOL0     C33512   3.865   2.673   9.178  0.5422  0.9108  0.2604
 1012MOL0     C33513   3.849   2.817   9.230 -0.7157 -0.8467  0.2170
 1012MOL0     C33514   3.902   2.823   9.374 -0.0170  0.6743  0.2170
 1012MOL0     C33515   3.799   2.791   9.472 -0.3231  0.6483 -0.1603
 1012MOL0     C33516   3.721   2.761   9.555  0.1238  0.1961  0.1072
 1012MOL0     C33517   3.652   2.485   8.905 -0.3545  0.3670 -0.4134
 1012MOL0     C33518   3.547   2.393   8.905 -0.1927  0.4639 -0.5754
 1012MOL0     H33519   2.947   2.377   8.950 -1.6885 -0.5051 -0.4975
 1012MOL0     H33520   2.756   2.234   8.979  0.0755  0.8227 -1.5517
 1012MOL0     H33521   2.793   1.893   9.266 -1.6429 -1.3614  2.7648
 1012MOL0     H33522   2.768   1.791   9.121 -2.3571 -0.5245  2.3870
 1012MOL0     H33523   2.558   1.773   9.247 -0.0174  0.2047 -1.3663
 1012MOL0     H33524   2.516   1.878   9.113 -4.0865 -1.6349  0.9471
 1012MOL0     H33525   2.552   2.080   9.234 -0.3074 -0.2550  1.0470
 1012MOL0     H33526   2.587   1.982   9.384  1.1546 -0.3036 -0.8195
 1012MOL0     H33527   2.331   2.026   9.228 -0.4547 -0.3324 -0.5189
 1012MOL0     H33528   2.349   1.894   9.342  1.3916 -0.1139  0.4987
 1012MOL0     H33529   2.362   2.179   9.420 -3.5011 -0.2126 -0.5048
 1012MOL0     H33530   2.420   2.061   9.537 -0.8307 -1.0313  1.7793
 1012MOL0     H33531   2.182   1.960   9.518 -0.3213  0.0237  0.7043
 1012MOL0     H33532   2.140   2.113   9.434  0.2507 -1.0861 -2.2831
 1012MOL0     H33533   2.248   2.088   9.726 -2.6256 -1.1880  1.2018
 1012MOL0     H33534   2.221   2.249   9.633 -1.3058  0.3048 -2.7788
 1012MOL0     H33535   2.042   2.018   9.718  1.5608  1.1423  4.0429
 1012MOL0     H33536   1.978   2.144   9.607  1.0838  1.4722  0.0295
 1012MOL0     H33537   2.150   2.092   9.954 -1.5409 -1.8248 -2.9931
 1012MOL0     H33538   2.120   2.378  10.172 -1.2536  0.2365  3.3183
 1012MOL0     H33539   2.160   2.201  10.160  1.7071  1.2402 -0.1115
 1012MOL0     H33540   1.920   2.148  10.196 -0.6944  0.3526  0.3396
 1012MOL0     H33541   1.891   2.327  10.222 -2.5547 -0.9644  1.9772
 1012MOL0     H33542   2.093   2.162  10.390 -0.4585  2.1027  2.5200
 1012MOL0     H33543   2.009   2.314  10.431  0.3038 -0.2135  0.4526
 1012MOL0     H33544   1.927   2.107  10.546 -1.2264  1.1476 -0.2165
 1012MOL0     H33545   1.880   2.030  10.395  0.4528  0.4124 -2.7833
 1012MOL0     H33546   1.736   1.950  10.571 -0.2677 -0.7364 -1.1419
 1012MOL0     H33547   1.518   1.853  10.590 -1.1076  0.0638 -3.7091
 1012MOL0     H33548   1.053   2.140  10.788 -0.1594 -0.4504 -0.4478
 1012MOL0     H33549   0.823   2.104  10.863  0.3041  0.2935 -0.1524
 1012MOL0     H33550   0.612   2.138  10.805  0.0757 -0.2975 -0.3731
 1012MOL0     H33551   0.612   1.988  10.903  1.5192 -0.3125 -0.6092
 1012MOL0     H33552   0.383   1.938  10.753 -0.8844 -0.0050 -1.0950
 1012MOL0     H33553   0.390   2.112  10.731 -0.5495  1.0916  0.3887
 1012MOL0     H33554   0.404   2.126  10.987 -0.4359 -1.3735  1.8201
 1012MOL0     H33555   0.365   1.957  10.995  0.3393 -1.5681 -1.4408
 1012MOL0     H33556   0.188   2.151  10.850  2.6160 -1.1101 -1.9585
 1012MOL0     H33557   0.151   1.987  10.868 -3.3074  1.8128  1.3165
 1012MOL0     H33558   0.193   2.143  11.129 -1.6799  1.2751  1.4725
 1012MOL0     H33559   0.089   2.001  11.106  1.2720  0.3506  0.7401
 1012MOL0     H33560  -0.049   2.151  10.962 -0.4720 -1.5757  0.8636
 1012MOL0     H33561   0.067   2.285  11.000 -0.7583 -0.4195 -0.3075
 1012MOL0     H33562  -0.102   2.133  11.197 -2.2094  0.7231 -0.7880
 1012MOL0     H33563   0.021   2.265  11.232 -0.3114  1.1277  0.5723
 1012MOL0     H33564  -0.251   2.294  11.096  0.8406  0.4348 -1.1462
 1012MOL0     H33565  -0.135   2.428  11.113 -0.2842  1.4536  1.7302
 1012MOL0     H33566   0.740   1.877  10.512 -1.9653  2.1993  0.3266
 1012MOL0     H33567   0.989   1.910  10.442 -1.8110 -0.5231 -0.2383
 1012MOL0     H33568   1.339   2.250  10.546 -1.6269 -1.2324 -1.1839
 1012MOL0     H33569   1.550   2.328  10.473  1.1982  0.3869 -0.1987
 1012MOL0     H33570   3.020   1.926   9.136  1.4697  0.7569  1.0079
 1012MOL0     H33571   3.211   2.073   9.107  0.3656  2.1359 -1.1739
 1012MOL0     H33572   3.313   2.544   9.095 -0.6375  2.8986 -2.0145
 1012MOL0     H33573   3.491   2.716   9.092 -2.0240 -0.3946  1.3925
 1012MOL0     H33574   3.926   2.744   8.983  0.5233 -2.8551 -3.2532
 1012MOL0     H33575   3.912   2.576   8.990 -1.0096 -2.0236  1.3144
 1012MOL0     H33576   3.773   2.619   9.205 -0.4172  2.1479 -0.4211
 1012MOL0     H33577   3.950   2.619   9.220  0.4407  0.5258 -0.0161
 1012MOL0     H33578   3.746   2.849   9.214 -1.1391 -2.9501 -1.9006
 1012MOL0     H33579   3.905   2.883   9.163 -1.5332  0.0351  0.3936
 1012MOL0     H33580   3.993   2.768   9.396  0.0760  0.4506 -0.7120
 1012MOL0     H33581   3.926   2.928   9.393 -1.4184  1.0933 -0.1838
 1012MOL0     H33582   3.644   2.743   9.626 -0.4746  3.1189  0.3419
 1012MOL0     H33583   3.742   2.474   8.845  0.3404 -1.8347  0.9272
 1012MOL0     H33584   3.564   2.307   8.842  1.8057  2.1821 -2.5650
 1013MOL0     O33585   5.453  11.031   2.997  0.5389 -0.1493 -0.0864
 1013MOL0     C33586   5.455  11.138   2.931  0.8815  0.8156 -0.0674
 1013MOL0     O33587   5.344  11.222   2.903 -0.8954 -0.3769  0.0123
 1013MOL0     C33588   5.226  11.176   2.933  0.7703  0.0080 -0.2413
 1013MOL0     C33589   5.141  11.138   2.837 -0.1787  0.5957 -0.0079
 1013MOL0     C33590   5.022  11.073   2.863  0.3913  0.2839 -0.5654
 1013MOL0     C33591   4.964  11.065   2.993 -0.1155  0.2062  0.7550
 1013MOL0     O33592   4.843  11.016   3.027  0.1365  0.1412  0.5942
 1013MOL0     C33593   4.724  11.060   2.954  1.0526  0.2596 -0.0235
 1013MOL0     C33594   4.617  10.939   2.963 -0.2143 -0.3443 -0.4773
 1013MOL0     C33595   4.476  10.968   2.908 -1.0831  0.7592  0.2721
 1013MOL0     C33596   4.385  10.858   2.955 -0.6698  1.1864 -1.2468
 1013MOL0     C33597   4.248  10.898   2.903  0.4139  0.1146  0.6126
 1013MOL0     C33598   4.122  10.844   2.972  0.4637  0.2843  0.0088
 1013MOL0     C33599   4.006  10.945   2.951 -1.2008 -0.5389  0.7546
 1013MOL0     C33600   3.876  10.899   3.027 -0.0350 -0.4747  1.2703
 1013MOL0     N33601   3.781  11.010   3.017  0.1704 -0.3177 -0.1467
 1013MOL0     C33602   3.713  11.046   2.898  0.2089 -0.2720 -0.4839
 1013MOL0     C33603   3.652  11.156   2.942  1.0904  0.2695  0.0569
 1013MOL0     C33604   3.553  11.231   2.851 -0.7608 -0.2237 -0.1911
 1013MOL0     C33605   3.422  11.265   2.905  1.1550  1.0580 -0.2130
 1013MOL0     C33606   3.330  11.132   2.913  0.2198  0.2982  0.9554
 1013MOL0     C33607   3.197  11.155   2.988  0.3563  1.1510  0.2991
 1013MOL0     O33608   3.145  11.019   2.973 -0.7319 -0.7571 -0.0778
 1013MOL0     C33609   3.017  11.003   3.021  0.0528  0.5087 -0.0855
 1013MOL0     C33610   2.979  10.870   3.052 -0.0492  0.0887 -0.0457
 1013MOL0     C33611   2.845  10.840   3.097 -0.1572 -0.9199  0.3709
 1013MOL0     C33612   2.756  10.938   3.121  0.0815  0.0012  0.0184
 1013MOL0     C33613   2.612  10.915   3.157  0.4127  0.2533 -0.5108
 1013MOL0     O33614   2.600  10.821   3.254 -0.1896 -0.1851  0.8170
 1013MOL0     C33615   2.472  10.799   3.290 -0.1930  0.5600 -0.1544
 1013MOL0     C33616   2.376  10.721   3.229  0.5219 -0.5885  0.3528
 1013MOL0     C33617   2.249  10.678   3.288  1.0186 -0.5217 -0.7332
 1013MOL0     C33618   2.229  10.721   3.420 -0.5347  0.4969 -0.2779
 1013MOL0     O33619   2.125  10.682   3.502  0.6040  1.0610  0.2824
 1013MOL0     C33620   2.049  10.568   3.464 -0.6960  0.1160 -0.9335
 1013MOL0     C33621   1.945  10.530   3.569 -0.1340 -1.1213 -0.3209
 1013MOL0     C33622   1.886  10.390   3.529 -0.1130  0.3771  0.8009
 1013MOL0     C33623   1.773  10.344   3.620 -0.2322  0.6224  0.2999
 1013MOL0     C33624   1.638  10.407   3.580  0.0856 -1.5302  0.0850
 1013MOL0     C33625   1.528  10.337   3.660 -0.2545 -0.3885 -0.2679
 1013MOL0     C33626   1.389  10.359   3.597  0.1004  0.0816  0.1376
 1013MOL0     C33627   1.290  10.271   3.673  0.5928  0.0271 -0.2505
 1013MOL0    Cl33628   1.131  10.286   3.600 -0.3322 -0.3009 -0.0719
 1013MOL0     C33629   2.318  10.804   3.481  0.0933  0.7058 -0.1578
 1013MOL0     C33630   2.446  10.828   3.425  0.4991 -0.3057 -0.1166
 1013MOL0     O33631   2.518  10.980   3.109 -0.5681  0.2484 -0.2268
 1013MOL0     C33632   2.789  11.069   3.090 -0.1112  0.5874  0.1245
 1013MOL0     C33633   2.920  11.103   3.036 -0.2500  0.4881  0.4358
 1013MOL0     N33634   3.679  11.183   3.074  0.5474 -0.2258  0.2400
 1013MOL0     N33635   3.748  11.091   3.125  0.5280  0.1687 -0.2522
 1013MOL0     C33636   5.061  11.089   3.087  0.3630 -0.4010 -0.8914
 1013MOL0     C33637   5.190  11.144   3.068  0.1454  0.7632  0.8082
 1013MOL0     C33638   5.577  11.187   2.878 -0.2004  0.4443  0.0295
 1013MOL0     C33639   5.697  11.117   2.906 -1.0959 -0.3121 -0.0461
 1013MOL0     C33640   5.823  11.175   2.884  0.2025 -0.8779  0.7428
 1013MOL0     C33641   5.829  11.290   2.801 -1.1810 -0.1646 -0.3220
 1013MOL0     O33642   5.961  11.325   2.778  0.2422 -0.7889  1.2135
 1013MOL0     C33643   5.988  11.473   2.760  0.7880 -0.1693  0.4913
 1013MOL0     C33644   6.128  11.484   2.688  0.5264  0.1767 -0.5343
 1013MOL0     C33645   6.247  11.463   2.785  1.0546  0.0651  0.3118
 1013MOL0     C33646   6.299  11.600   2.829 -0.4467  0.0898  0.5457
 1013MOL0     C33647   6.405  11.575   2.919 -0.6126 -0.1792 -0.5302
 1013MOL0     C33648   6.498  11.552   2.986  0.0329  0.2214  0.1280
 1013MOL0     C33649   5.715  11.352   2.757  0.0223 -0.5965  0.0739
 1013MOL0     C33650   5.584  11.307   2.804 -0.2061 -0.4927  0.1543
 1013MOL0     H33651   5.181  11.138   2.736 -4.3969  2.4623 -1.9013
 1013MOL0     H33652   4.962  11.030   2.782 -1.4480 -0.8701  1.3114
 1013MOL0     H33653   4.754  11.070   2.850  2.9962 -2.0109  0.2197
 1013MOL0     H33654   4.679  11.154   2.987  1.9378  0.7713 -0.2318
 1013MOL0     H33655   4.608  10.924   3.071 -4.5029 -1.1210 -0.7783
 1013MOL0     H33656   4.657  10.846   2.922 -0.2601 -0.1878 -0.8776
 1013MOL0     H33657   4.487  10.957   2.799 -0.3857 -2.1686  0.5416
 1013MOL0     H33658   4.454  11.067   2.947  0.7484  0.5758  1.9451
 1013MOL0     H33659   4.417  10.761   2.916 -2.0201  1.1157 -2.2316
 1013MOL0     H33660   4.395  10.853   3.064  1.2753  1.2291 -1.3861
 1013MOL0     H33661   4.248  10.880   2.796  2.4592  0.6716  0.4801
 1013MOL0     H33662   4.244  11.007   2.913 -2.0270  0.1868 -0.5026
 1013MOL0     H33663   4.137  10.846   3.080 -2.8524  0.4613  0.5888
 1013MOL0     H33664   4.094  10.747   2.929 -0.4747 -0.4261  2.0939
 1013MOL0     H33665   4.035  11.046   2.982 -3.7617  0.3924  0.3380
 1013MOL0     H33666   3.989  10.956   2.844  1.1576  3.8840  0.5857
 1013MOL0     H33667   3.899  10.880   3.133 -2.1977  0.0759  1.8796
 1013MOL0     H33668   3.838  10.807   2.982  0.0211  0.9232 -1.8196
 1013MOL0     H33669   3.713  10.986   2.807 -0.0491 -2.7616  1.0640
 1013MOL0     H33670   3.531  11.173   2.760  0.5328  1.0367 -1.3577
 1013MOL0     H33671   3.607  11.321   2.820 -2.0029 -0.2669 -2.7437
 1013MOL0     H33672   3.381  11.350   2.849  2.6848  2.7909  1.1730
 1013MOL0     H33673   3.427  11.308   3.006 -0.9884  2.0883 -0.4726
 1013MOL0     H33674   3.303  11.108   2.809 -1.5245  1.7226  1.0178
 1013MOL0     H33675   3.387  11.061   2.972  1.9011  0.5085 -0.3447
 1013MOL0     H33676   3.131  11.230   2.943  0.9756  0.6985 -1.4698
 1013MOL0     H33677   3.214  11.179   3.093  1.4273  0.5762  0.2682
 1013MOL0     H33678   3.044  10.784   3.040 -2.3375 -1.7752  0.1275
 1013MOL0     H33679   2.815  10.738   3.121 -0.0221 -2.0919 -3.7044
 1013MOL0     H33680   2.393  10.685   3.128  3.2632 -1.5176  1.0746
 1013MOL0     H33681   2.184  10.608   3.236  1.7036 -0.5709 -1.5572
 1013MOL0     H33682   2.121  10.487   3.453 -1.5726 -1.0219  1.1664
 1013MOL0     H33683   2.004  10.588   3.366 -0.0078  0.4836 -1.1780
 1013MOL0     H33684   1.875  10.614   3.575  3.0807  1.6520  1.5385
 1013MOL0     H33685   1.992  10.531   3.668 -0.6444  0.7147 -0.0548
 1013MOL0     H33686   1.971  10.321   3.538  1.5502  2.4429  1.8232
 1013MOL0     H33687   1.853  10.398   3.425 -1.8627  0.4086  1.3205
 1013MOL0     H33688   1.763  10.235   3.616 -0.3204  0.5339  2.1003
 1013MOL0     H33689   1.796  10.363   3.725 -0.8294 -0.4703  0.6420
 1013MOL0     H33690   1.614  10.411   3.473  2.0853  1.4555 -0.3547
 1013MOL0     H33691   1.644  10.512   3.610 -0.0960 -0.7332 -2.4431
 1013MOL0     H33692   1.532  10.370   3.764 -0.3024  0.0769 -0.4114
 1013MOL0     H33693   1.538  10.228   3.659 -0.6323 -0.4213 -0.7564
 1013MOL0     H33694   1.376  10.466   3.615  0.6857  0.7838 -2.9954
 1013MOL0     H33695   1.383  10.338   3.489 -5.1967  1.8799 -0.2514
 1013MOL0     H33696   1.274  10.303   3.776  0.8064 -4.9489  1.5911
 1013MOL0     H33697   1.319  10.166   3.664 -0.9710 -0.5807  1.2462
 1013MOL0     H33698   2.288  10.844   3.577  0.4127  3.0276 -0.9794
 1013MOL0     H33699   2.523  10.882   3.478  1.3847 -1.9266  0.3089
 1013MOL0     H33700   2.717  11.148   3.077  0.5713  1.2104  0.0596
 1013MOL0     H33701   2.936  11.202   2.994  0.5638  0.3940  0.5131
 1013MOL0     H33702   5.038  11.065   3.190 -1.8305 -1.3777 -1.5525
 1013MOL0     H33703   5.250  11.181   3.150  3.3117  1.9035 -1.8150
 1013MOL0     H33704   5.707  11.026   2.964 -0.1098  0.6659  1.3862
 1013MOL0     H33705   5.916  11.122   2.905  0.5961 -1.1636 -1.4785
 1013MOL0     H33706   5.983  11.521   2.858  0.0336  1.1109 -0.1468
 1013MOL0     H33707   5.908  11.518   2.702  2.3498 -2.5713 -3.9866
 1013MOL0     H33708   6.130  11.410   2.608  0.6843 -1.4630  0.9378
 1013MOL0     H33709   6.130  11.579   2.633 -0.3511  1.5634  1.6872
 1013MOL0     H33710   6.328  11.406   2.739 -0.0721 -1.1862 -0.1799
 1013MOL0     H33711   6.220  11.401   2.872  4.6252  0.6075  2.0304
 1013MOL0     H33712   6.350  11.658   2.751 -2.1995  1.4593  0.3505
 1013MOL0     H33713   6.220  11.656   2.879 -1.4333  0.6832 -1.5421
 1013MOL0     H33714   6.590  11.557   3.041  0.5151  4.2265 -0.7225
 1013MOL0     H33715   5.728  11.440   2.695  0.5169  1.1160  2.4390
 1013MOL0     H33716   5.496  11.357   2.766  1.6002  1.1097 -2.1833
 1014MOL0     O33717   0.864  10.769   3.541  0.2584 -0.1925  0.1253
 1014MOL0     C33718   0.934  10.710   3.459 -0.2787  0.3554 -0.3029
 1014MOL0     O33719   0.896  10.597   3.385  0.5099 -0.8573  0.3921
 1014MOL0     C33720   0.764  10.551   3.378 -0.0394  0.7557 -0.3053
 1014MOL0     C33721   0.648  10.627   3.391  0.0626  1.0600 -0.3560
 1014MOL0     C33722   0.525  10.560   3.387  1.2987 -0.0757  0.0764
 1014MOL0     C33723   0.515  10.421   3.355 -0.4261  0.2616 -0.1785
 1014MOL0     O33724   0.407  10.344   3.345  0.5178 -0.2007  0.2932
 1014MOL0     C33725   0.277  10.412   3.344  0.1159  0.2967 -0.2882
 1014MOL0     C33726   0.180  10.339   3.250  0.2669  0.4218  0.5072
 1014MOL0     C33727   0.045  10.403   3.241 -0.4905  0.4022  0.0050
 1014MOL0     C33728  -0.026  10.342   3.121 -0.3029 -0.1766  0.0087
 1014MOL0     C33729  -0.170  10.359   3.131  0.6175  0.8439 -1.0365
 1014MOL0     C33730  -0.219  10.286   3.008 -0.5460 -0.4168 -0.1777
 1014MOL0     C33731  -0.363  10.313   2.975 -0.1320 -0.6205  0.4576
 1014MOL0     C33732  -0.414  10.213   2.869  0.6361  0.4730 -0.0765
 1014MOL0     N33733  -0.528  10.269   2.790  0.9616  0.0845  0.8905
 1014MOL0     C33734  -0.525  10.267   2.655  0.0770  0.9378 -0.3748
 1014MOL0     C33735  -0.658  10.265   2.624  0.1586  0.1499  0.2810
 1014MOL0     C33736  -0.714  10.270   2.487 -0.0899  0.3510  1.2608
 1014MOL0     C33737  -0.721  10.415   2.436  0.3903  0.6531  0.2990
 1014MOL0     C33738  -0.798  10.415   2.307  0.3636  0.6291  0.5172
 1014MOL0     C33739  -0.945  10.397   2.313 -0.3772 -0.0388  0.0534
 1014MOL0     O33740  -0.998  10.496   2.416 -0.0736 -0.1408  0.1917
 1014MOL0     C33741  -1.137  10.495   2.417 -0.5169  0.9751 -0.1956
 1014MOL0     C33742  -1.232  10.395   2.381 -0.2564 -0.8894  0.6784
 1014MOL0     C33743  -1.369  10.420   2.399 -0.6098 -0.6118  0.3568
 1014MOL0     C33744  -1.403  10.539   2.463 -0.6712 -0.4098  0.2486
 1014MOL0     C33745  -1.547  10.541   2.516 -0.8185  0.4101  0.2861
 1014MOL0     O33746  -1.627  10.460   2.454  0.8421 -0.5350  0.1428
 1014MOL0     C33747  -1.763  10.467   2.484 -0.6117 -0.1169 -0.5316
 1014MOL0     C33748  -1.821  10.394   2.588  1.1553  0.7296 -0.4176
 1014MOL0     C33749  -1.963  10.401   2.613  0.1790 -0.2712 -0.1242
 1014MOL0     C33750  -2.047  10.468   2.528  0.8048 -0.2894  0.6552
 1014MOL0     O33751  -2.185  10.470   2.526 -0.8833 -0.6595  0.2422
 1014MOL0     C33752  -2.253  10.397   2.622  0.4255 -0.3833  0.4055
 1014MOL0     C33753  -2.407  10.441   2.612 -0.0561  0.3547  0.3043
 1014MOL0     C33754  -2.460  10.419   2.750 -0.3152 -0.0630  0.6590
 1014MOL0     C33755  -2.608  10.420   2.744 -0.3657  0.0477 -0.4440
 1014MOL0     C33756  -2.671  10.361   2.868  0.1382 -0.0097 -0.9555
 1014MOL0     C33757  -2.821  10.384   2.861 -0.0752 -0.4642 -0.2364
 1014MOL0     C33758  -2.900  10.338   2.985 -0.3578  0.2028  0.0859
 1014MOL0     C33759  -3.027  10.418   3.008  0.5589 -0.0035 -0.0181
 1014MOL0    Cl33760  -3.139  10.312   3.103  0.5326  0.7876 -0.0751
 1014MOL0     C33761  -1.986  10.528   2.412  0.1711 -0.3179  0.0698
 1014MOL0     C33762  -1.849  10.540   2.391  0.4033 -0.2672  0.0249
 1014MOL0     O33763  -1.564  10.620   2.609  0.8878 -0.8443  0.6863
 1014MOL0     C33764  -1.314  10.646   2.481 -0.9071 -0.5711 -0.1319
 1014MOL0     C33765  -1.183  10.622   2.454  0.6599  0.9951 -0.7060
 1014MOL0     N33766  -0.733  10.275   2.737 -0.0343 -0.1304 -0.1267
 1014MOL0     N33767  -0.655  10.268   2.840 -1.2111 -1.0948  0.3709
 1014MOL0     C33768   0.633  10.347   3.341  0.7330 -1.3832  0.3914
 1014MOL0     C33769   0.756  10.411   3.358 -1.7092 -0.4313  0.0577
 1014MOL0     C33770   1.084  10.749   3.463 -0.7140  0.5085 -0.0903
 1014MOL0     C33771   1.139  10.873   3.502 -0.3541 -0.3614 -0.7811
 1014MOL0     C33772   1.275  10.892   3.514 -0.1122  0.2986 -0.1017
 1014MOL0     C33773   1.363  10.794   3.455  0.0665 -0.6749 -0.7381
 1014MOL0     O33774   1.500  10.802   3.438 -0.5493  0.1928 -0.0786
 1014MOL0     C33775   1.570  10.925   3.468 -0.3152 -0.0810 -0.4243
 1014MOL0     C33776   1.725  10.908   3.442 -0.4945  0.1435  0.0728
 1014MOL0     C33777   1.803  11.041   3.457  0.2580  0.0141 -0.0538
 1014MOL0     C33778   1.954  11.012   3.423 -0.1960 -0.2805 -1.0696
 1014MOL0     C33779   2.039  11.135   3.406  0.3654  0.5001  0.3189
 1014MOL0     C33780   2.109  11.231   3.398  0.5929 -0.3196 -0.3334
 1014MOL0     C33781   1.314  10.669   3.430  0.3157 -0.8775  0.8921
 1014MOL0     C33782   1.173  10.642   3.425 -0.5344 -0.5033 -0.1546
 1014MOL0     H33783   0.651  10.735   3.388 -0.9773  1.1092 -3.8019
 1014MOL0     H33784   0.437  10.623   3.393  1.7217  0.4313  1.1519
 1014MOL0     H33785   0.282  10.516   3.311 -1.0141 -0.2212 -2.2495
 1014MOL0     H33786   0.243  10.413   3.448  1.9941 -0.1982  0.3714
 1014MOL0     H33787   0.177  10.234   3.281  0.7337  0.7690  1.8276
 1014MOL0     H33788   0.230  10.351   3.154  2.4071 -1.2999  1.3283
 1014MOL0     H33789   0.058  10.512   3.235 -0.6722  0.4538  0.5122
 1014MOL0     H33790  -0.014  10.383   3.331 -1.5374 -1.6608 -1.0847
 1014MOL0     H33791   0.005  10.384   3.025 -1.4456 -3.2110 -1.8402
 1014MOL0     H33792  -0.006  10.237   3.097  1.5325  0.5777 -2.1023
 1014MOL0     H33793  -0.190  10.466   3.137  0.6634  0.7691  2.1993
 1014MOL0     H33794  -0.208  10.301   3.216  2.4812 -1.3243 -1.5678
 1014MOL0     H33795  -0.209  10.177   3.018  1.0607 -0.2282  0.6342
 1014MOL0     H33796  -0.161  10.316   2.920  0.8007 -0.8341  0.5304
 1014MOL0     H33797  -0.420  10.302   3.067 -0.5496 -1.6762  0.0836
 1014MOL0     H33798  -0.378  10.415   2.940 -2.7806 -0.7278  1.0784
 1014MOL0     H33799  -0.450  10.124   2.922  0.3649 -0.9464 -2.4995
 1014MOL0     H33800  -0.332  10.192   2.800  0.7608 -1.8610  0.7147
 1014MOL0     H33801  -0.442  10.272   2.585  0.9679 -0.9054  0.5102
 1014MOL0     H33802  -0.813  10.225   2.479  0.4726 -0.5547 -3.9147
 1014MOL0     H33803  -0.655  10.216   2.413 -1.3139 -0.3143  0.7434
 1014MOL0     H33804  -0.617  10.442   2.415  0.3483  0.9054  0.4130
 1014MOL0     H33805  -0.764  10.483   2.510  1.4277  1.5598  0.1024
 1014MOL0     H33806  -0.785  10.513   2.260  1.0485  0.4119  0.2372
 1014MOL0     H33807  -0.758  10.337   2.241 -0.3213  0.2181  0.5704
 1014MOL0     H33808  -0.984  10.298   2.341 -1.2334  0.3342  0.2014
 1014MOL0     H33809  -0.985  10.421   2.213  4.0102 -0.4650 -2.0288
 1014MOL0     H33810  -1.202  10.296   2.350  0.9310 -0.2167 -0.3900
 1014MOL0     H33811  -1.440  10.340   2.383  1.4589 -2.2833 -0.9377
 1014MOL0     H33812  -1.765  10.328   2.654 -0.1392 -1.1305 -1.0966
 1014MOL0     H33813  -2.010  10.343   2.692  0.4541 -2.5527 -1.5319
 1014MOL0     H33814  -2.220  10.416   2.724 -0.1343 -1.8003  0.8837
 1014MOL0     H33815  -2.236  10.289   2.613  2.0382 -0.1605  0.6190
 1014MOL0     H33816  -2.461  10.389   2.532  0.6430  1.7763 -1.1603
 1014MOL0     H33817  -2.404  10.548   2.590  0.8078  0.0868 -1.0032
 1014MOL0     H33818  -2.425  10.480   2.834  2.5875 -1.3245  0.5064
 1014MOL0     H33819  -2.435  10.312   2.755  5.0019  0.7574 -1.7214
 1014MOL0     H33820  -2.639  10.525   2.737  0.3819  0.5884  2.6779
 1014MOL0     H33821  -2.647  10.371   2.655 -0.3085  1.7774 -1.4610
 1014MOL0     H33822  -2.629  10.410   2.957 -2.2539  1.5735 -0.5840
 1014MOL0     H33823  -2.651  10.253   2.868  1.8832  0.2740 -0.2081
 1014MOL0     H33824  -2.868  10.332   2.778 -1.0354 -0.8941  0.5641
 1014MOL0     H33825  -2.843  10.490   2.846 -1.0757  0.0389  3.6815
 1014MOL0     H33826  -2.906  10.229   2.978  0.2451  0.0293  1.7075
 1014MOL0     H33827  -2.836  10.352   3.073  0.3184  0.7113 -0.4721
 1014MOL0     H33828  -3.080  10.440   2.915  2.6985  1.3948 -0.9843
 1014MOL0     H33829  -2.997  10.510   3.058  0.4086 -0.6941  1.4052
 1014MOL0     H33830  -2.060  10.570   2.345  0.1243 -1.0756 -0.3658
 1014MOL0     H33831  -1.804  10.596   2.310 -1.4203  2.4052  0.7152
 1014MOL0     H33832  -1.336  10.738   2.534  1.1649 -1.6403  2.8272
 1014MOL0     H33833  -1.116  10.703   2.483  0.5172  0.3140  1.8072
 1014MOL0     H33834   0.622  10.246   3.304  0.8839 -1.2502 -0.0311
 1014MOL0     H33835   0.845  10.353   3.336 -1.1674  0.5614 -0.4195
 1014MOL0     H33836   1.069  10.954   3.516  1.0841  0.5896  1.3875
 1014MOL0     H33837   1.319  10.988   3.537  5.3333 -1.9475  0.2355
 1014MOL0     H33838   1.559  10.955   3.573 -1.0903 -0.0502 -0.5097
 1014MOL0     H33839   1.532  11.005   3.405 -1.9047 -0.2176  0.3105
 1014MOL0     H33840   1.767  10.832   3.509  0.1308  1.7749  1.6316
 1014MOL0     H33841   1.739  10.872   3.340 -1.1437  2.7622 -1.0436
 1014MOL0     H33842   1.803  11.085   3.558  1.3277  1.6237 -0.7202
 1014MOL0     H33843   1.761  11.111   3.385 -1.7573  0.9921  1.9339
 1014MOL0     H33844   2.012  10.957   3.498  1.7373 -0.9327 -2.9460
 1014MOL0     H33845   1.966  10.951   3.333  2.5114  1.1409 -1.8010
 1014MOL0     H33846   2.163  11.322   3.412 -0.7169  0.0362  3.4645
 1014MOL0     H33847   1.384  10.590   3.406 -1.5384 -2.2020 -0.5363
 1014MOL0     H33848   1.143  10.541   3.397  1.6995 -0.9420 -1.1607
 1015MOL0     O33849   6.446   7.169   8.942 -0.6124 -0.2582  0.2027
 1015MOL0     C33850   6.513   7.193   9.037  0.3239 -0.1018 -0.3793
 1015MOL0     O33851   6.478   7.267   9.146  0.8064  0.7243  0.6011
 1015MOL0     C33852   6.351   7.318   9.163 -0.5267  0.3069  0.4342
 1015MOL0     C33853   6.243   7.227   9.165  0.5035 -0.0623  1.1368
 1015MOL0     C33854   6.114   7.283   9.188 -0.0046 -0.9228 -0.2711
 1015MOL0     C33855   6.097   7.423   9.210 -0.2239 -0.2834  0.1131
 1015MOL0     O33856   5.965   7.461   9.215 -0.2898 -0.3453  0.5628
 1015MOL0     C33857   5.940   7.593   9.256 -0.3222  0.1876 -1.0077
 1015MOL0     C33858   5.786   7.602   9.292 -0.3750  0.3616 -0.3537
 1015MOL0     C33859   5.683   7.611   9.181  0.6967 -0.0660 -0.0104
 1015MOL0     C33860   5.546   7.587   9.241 -0.5094 -0.4274 -0.0237
 1015MOL0     C33861   5.436   7.618   9.132 -0.3034  0.8526  0.5105
 1015MOL0     C33862   5.296   7.613   9.159  0.4085 -0.4069 -0.7875
 1015MOL0     C33863   5.260   7.649   9.305  0.5424 -0.1488  0.4436
 1015MOL0     C33864   5.101   7.634   9.324 -0.1224 -0.1912  1.1907
 1015MOL0     N33865   5.035   7.760   9.280  0.0955  0.1719 -0.3810
 1015MOL0     C33866   5.030   7.862   9.366 -0.1254  0.3456  0.4592
 1015MOL0     C33867   4.992   7.963   9.289 -0.5913 -0.2147  1.1166
 1015MOL0     C33868   4.972   8.095   9.348  0.3335 -0.3172 -0.0986
 1015MOL0     C33869   5.108   8.141   9.407  1.1687 -0.1602 -0.5945
 1015MOL0     C33870   5.095   8.278   9.479 -0.0095 -0.1366  0.0534
 1015MOL0     C33871   5.078   8.383   9.368  0.0384 -0.3859 -0.3652
 1015MOL0     O33872   5.049   8.509   9.424 -0.0801 -0.3120  0.4938
 1015MOL0     C33873   4.923   8.549   9.443 -0.0443 -0.7610  0.9272
 1015MOL0     C33874   4.904   8.675   9.503  0.1840  0.4855  0.7490
 1015MOL0     C33875   4.777   8.725   9.533 -0.9416 -0.5962 -0.2187
 1015MOL0     C33876   4.660   8.656   9.511  0.3068 -0.3236  0.1375
 1015MOL0     C33877   4.524   8.703   9.558 -0.5468 -0.5335  0.2923
 1015MOL0     O33878   4.426   8.630   9.511  0.4677  0.1859 -0.0039
 1015MOL0     C33879   4.293   8.644   9.556  0.3695  0.3131  0.5309
 1015MOL0     C33880   4.189   8.579   9.465  0.4256  0.0950  0.5522
 1015MOL0     C33881   4.054   8.581   9.503 -0.4353 -0.5490  0.5459
 1015MOL0     C33882   4.006   8.634   9.629  0.2397 -0.1776  0.3179
 1015MOL0     O33883   3.872   8.635   9.649  0.2705  0.4337 -0.0703
 1015MOL0     C33884   3.834   8.630   9.781  0.8448  0.4800  0.4111
 1015MOL0     C33885   3.679   8.615   9.803 -0.3781 -0.3467 -0.2611
 1015MOL0     C33886   3.583   8.681   9.698 -0.7778  0.2356 -0.6568
 1015MOL0     C33887   3.436   8.677   9.739 -0.5728 -0.7812 -0.0589
 1015MOL0     C33888   3.358   8.548   9.706  0.9946 -0.0275  1.6145
 1015MOL0     C33889   3.211   8.566   9.748 -0.2169  0.3229  0.2133
 1015MOL0     C33890   3.126   8.439   9.713 -0.4375  0.2396  0.1643
 1015MOL0     C33891   2.981   8.459   9.666  1.1556 -0.6009 -0.3302
 1015MOL0    Cl33892   2.972   8.531   9.502  0.5301 -0.5897 -0.0621
 1015MOL0     C33893   4.107   8.687   9.717 -0.1528 -0.1162 -0.4329
 1015MOL0     C33894   4.244   8.691   9.688  0.3026  0.9065  0.0347
 1015MOL0     O33895   4.519   8.801   9.636  0.4751  0.6903  0.5201
 1015MOL0     C33896   4.673   8.535   9.445  0.7276  0.9046  0.5804
 1015MOL0     C33897   4.800   8.487   9.407  0.8416 -0.0934 -0.3609
 1015MOL0     N33898   4.947   7.913   9.162  0.6186  0.8553 -0.3232
 1015MOL0     N33899   4.988   7.795   9.154 -0.2482  0.2073  0.4054
 1015MOL0     C33900   6.215   7.503   9.216 -0.2706  0.3326  0.5301
 1015MOL0     C33901   6.336   7.456   9.190  0.6850 -0.6622  0.6048
 1015MOL0     C33902   6.647   7.123   9.038 -0.4922 -0.4892  0.4843
 1015MOL0     C33903   6.733   7.120   9.153  0.1466  0.1755  0.4984
 1015MOL0     C33904   6.835   7.026   9.156 -0.2022 -0.0309  0.1524
 1015MOL0     C33905   6.880   6.950   9.040 -0.2225  0.3873  0.2269
 1015MOL0     O33906   7.008   6.886   9.057 -0.1742  0.0759 -0.1657
 1015MOL0     C33907   7.088   6.869   8.941  0.0932 -0.0748 -0.5278
 1015MOL0     C33908   7.201   6.772   8.959 -0.5759 -0.4634  0.6493
 1015MOL0     C33909   7.150   6.624   8.959 -0.6230 -0.7234  0.3359
 1015MOL0     C33910   7.061   6.585   9.072 -0.1108 -0.0862 -0.2657
 1015MOL0     C33911   7.065   6.445   9.100  0.7075  0.1203  0.1102
 1015MOL0     C33912   7.074   6.328   9.122 -0.5693 -0.3746 -0.4273
 1015MOL0     C33913   6.808   6.968   8.919 -0.9349 -0.7117 -0.8736
 1015MOL0     C33914   6.689   7.044   8.925 -1.3015 -0.1583  0.0353
 1015MOL0     H33915   6.259   7.123   9.140  0.8104 -0.5480  3.1766
 1015MOL0     H33916   6.024   7.226   9.170 -1.1258  0.5064  0.6160
 1015MOL0     H33917   5.965   7.666   9.178  1.7043 -0.1127 -0.6945
 1015MOL0     H33918   5.993   7.606   9.351 -0.7071 -0.8343 -0.6391
 1015MOL0     H33919   5.784   7.691   9.354  0.9602  0.3331 -0.2361
 1015MOL0     H33920   5.760   7.522   9.361  3.1300 -1.7203 -1.1959
 1015MOL0     H33921   5.694   7.529   9.110  0.2578  0.0433 -0.2077
 1015MOL0     H33922   5.691   7.706   9.127  2.1273 -0.0480  0.2169
 1015MOL0     H33923   5.541   7.493   9.297 -0.6039  0.4845  1.5762
 1015MOL0     H33924   5.530   7.662   9.319 -3.1625  0.7780 -1.5721
 1015MOL0     H33925   5.442   7.545   9.051 -0.3028 -1.5217  2.5347
 1015MOL0     H33926   5.462   7.718   9.096 -1.4833  1.5104  1.4370
 1015MOL0     H33927   5.259   7.512   9.138 -0.9696  0.0590 -0.7004
 1015MOL0     H33928   5.246   7.693   9.104 -0.4450  1.7203  2.7685
 1015MOL0     H33929   5.311   7.569   9.359  1.3117  0.3688  0.5059
 1015MOL0     H33930   5.295   7.744   9.346  1.8867 -0.9889  1.3128
 1015MOL0     H33931   5.073   7.595   9.422  1.3046 -3.3728  0.4618
 1015MOL0     H33932   5.069   7.553   9.257  2.6681  2.3342 -3.6914
 1015MOL0     H33933   5.067   7.868   9.467 -1.0264 -2.7686  1.0955
 1015MOL0     H33934   4.901   8.073   9.428  0.1234 -0.1676 -0.2413
 1015MOL0     H33935   4.924   8.159   9.273 -0.7498 -0.4025  0.4999
 1015MOL0     H33936   5.175   8.159   9.322  0.7652  2.2632 -0.4687
 1015MOL0     H33937   5.151   8.074   9.482 -1.5912  0.7015  1.9450
 1015MOL0     H33938   5.009   8.278   9.547  0.0491 -2.8171  0.2518
 1015MOL0     H33939   5.177   8.299   9.548 -0.5097  1.2582  0.2492
 1015MOL0     H33940   5.006   8.344   9.295 -0.4576  1.2887 -0.8139
 1015MOL0     H33941   5.172   8.386   9.312 -1.1947  1.5315 -2.4851
 1015MOL0     H33942   4.993   8.734   9.521  0.6861 -0.3086  0.9105
 1015MOL0     H33943   4.791   8.815   9.592  2.3462 -2.5583  2.3580
 1015MOL0     H33944   4.214   8.538   9.367 -4.7927  2.8661 -2.3649
 1015MOL0     H33945   3.977   8.555   9.431 -0.4102 -1.1452  0.7286
 1015MOL0     H33946   3.852   8.729   9.824 -1.4476  1.1318  0.0269
 1015MOL0     H33947   3.886   8.546   9.829 -1.4444 -0.3022  1.7365
 1015MOL0     H33948   3.654   8.652   9.903  0.1877  1.6102 -0.7984
 1015MOL0     H33949   3.656   8.509   9.812  0.9203 -0.4892  2.6286
 1015MOL0     H33950   3.589   8.639   9.597 -6.0037  0.4959 -1.3595
 1015MOL0     H33951   3.615   8.784   9.679 -3.3734  0.8451 -2.0663
 1015MOL0     H33952   3.433   8.681   9.848 -1.0631 -0.6927 -0.0725
 1015MOL0     H33953   3.377   8.762   9.701 -0.4683  0.0254  1.5023
 1015MOL0     H33954   3.409   8.459   9.743  1.8383 -0.5905 -0.7216
 1015MOL0     H33955   3.361   8.559   9.597 -1.1417  0.0124  1.5051
 1015MOL0     H33956   3.158   8.657   9.718 -3.1223 -0.0154  3.7140
 1015MOL0     H33957   3.191   8.583   9.854 -3.2643 -2.1350  0.1759
 1015MOL0     H33958   3.175   8.378   9.637  0.7748  1.5354 -0.1219
 1015MOL0     H33959   3.126   8.384   9.808 -1.2799 -1.5653 -0.8218
 1015MOL0     H33960   2.928   8.521   9.739 -0.1055 -2.2628  0.2255
 1015MOL0     H33961   2.924   8.365   9.665  0.2212 -0.1619  2.5890
 1015MOL0     H33962   4.079   8.722   9.816 -0.9555 -4.0778  0.9727
 1015MOL0     H33963   4.312   8.727   9.765  0.4017  0.7826  0.0050
 1015MOL0     H33964   4.583   8.485   9.411  1.5823  1.2408 -2.5428
 1015MOL0     H33965   4.801   8.397   9.346  0.0100  3.1956 -5.9470
 1015MOL0     H33966   6.216   7.610   9.235 -1.3011  0.9189 -2.2359
 1015MOL0     H33967   6.426   7.516   9.201  1.2673 -1.3819 -0.1239
 1015MOL0     H33968   6.696   7.173   9.240 -1.9757  0.8915 -0.7553
 1015MOL0     H33969   6.894   7.022   9.246  1.1601 -1.0296 -0.7412
 1015MOL0     H33970   7.128   6.958   8.890  1.4081 -1.5772 -2.2654
 1015MOL0     H33971   7.020   6.823   8.867 -0.4418  0.6231 -0.4843
 1015MOL0     H33972   7.290   6.799   8.901  1.5720 -1.4017  3.2691
 1015MOL0     H33973   7.235   6.790   9.062 -0.3388  1.0830  0.3174
 1015MOL0     H33974   7.241   6.564   8.971 -0.8552 -1.6226 -1.9388
 1015MOL0     H33975   7.110   6.603   8.860  0.3800 -0.2159 -0.1898
 1015MOL0     H33976   7.079   6.650   9.158 -1.4471 -1.6726  1.2824
 1015MOL0     H33977   6.965   6.611   9.027 -0.6986 -2.5467 -0.5575
 1015MOL0     H33978   7.080   6.223   9.141 -1.1004 -0.3087  0.1492
 1015MOL0     H33979   6.849   6.929   8.826  4.1884 -0.8062  1.0886
 1015MOL0     H33980   6.646   7.030   8.826 -2.6256  0.8321  0.4480
 1016MOL0     O33981   6.942   0.228   3.173  0.4000 -0.1127 -0.1680
 1016MOL0     C33982   7.020   0.171   3.090 -0.3879  0.5067  1.1928
 1016MOL0     O33983   6.986   0.074   2.991 -0.3006 -0.2914 -0.1342
 1016MOL0     C33984   6.859   0.039   2.961 -0.5987  0.1652  0.3179
 1016MOL0     C33985   6.824   0.042   2.832 -0.1388  0.7842  0.6054
 1016MOL0     C33986   6.702  -0.010   2.790  0.8602 -0.8482  0.5633
 1016MOL0     C33987   6.603  -0.058   2.880 -0.2352 -0.6019  0.0666
 1016MOL0     O33988   6.481  -0.110   2.842  0.2270  0.4244 -0.9012
 1016MOL0     C33989   6.394  -0.163   2.948  0.0679 -0.6448  0.2587
 1016MOL0     C33990   6.285  -0.231   2.866 -0.0341  0.7692  0.2869
 1016MOL0     C33991   6.182  -0.299   2.958 -0.1576 -1.0237 -0.4385
 1016MOL0     C33992   6.080  -0.389   2.894 -0.1946  0.1573  0.0302
 1016MOL0     C33993   5.981  -0.440   2.999  0.3668 -0.2207  0.2530
 1016MOL0     C33994   5.852  -0.511   2.942  0.4371  0.2528 -0.2109
 1016MOL0     C33995   5.758  -0.545   3.054 -0.1239  0.6836 -0.6694
 1016MOL0     C33996   5.635  -0.601   2.991 -0.3048  0.1155  0.3864
 1016MOL0     N33997   5.527  -0.625   3.081 -0.0045 -0.6902  0.0196
 1016MOL0     C33998   5.417  -0.550   3.109  0.6572  0.6757 -0.6387
 1016MOL0     C33999   5.334  -0.631   3.180  0.2670  0.5012 -0.3403
 1016MOL0     C34000   5.190  -0.608   3.236  0.3407 -0.2340 -0.4497
 1016MOL0     C34001   5.073  -0.584   3.136  0.4312 -0.4448 -0.0224
 1016MOL0     C34002   5.040  -0.708   3.051 -0.4899  0.3646  0.3605
 1016MOL0     C34003   4.999  -0.830   3.155 -0.0769  0.3809  0.7234
 1016MOL0     O34004   4.882  -0.786   3.218  0.0877 -0.0170  0.3226
 1016MOL0     C34005   4.767  -0.820   3.149  0.5205  0.4762 -0.5478
 1016MOL0     C34006   4.652  -0.801   3.227 -0.3872 -0.0277  0.6109
 1016MOL0     C34007   4.526  -0.843   3.181  0.1942 -0.6205 -0.0065
 1016MOL0     C34008   4.511  -0.906   3.056 -0.8502  0.4143  0.1895
 1016MOL0     C34009   4.379  -0.938   3.001  0.2853 -0.2238 -0.0547
 1016MOL0     O34010   4.374  -0.969   2.863  0.0612 -0.1094 -0.9979
 1016MOL0     C34011   4.256  -1.012   2.816  0.1986 -0.6818 -0.7412
 1016MOL0     C34012   4.155  -0.925   2.767  0.7495 -0.8466  0.2307
 1016MOL0     C34013   4.040  -0.968   2.709 -0.9611  0.0119  0.2004
 1016MOL0     C34014   4.014  -1.103   2.696 -0.0620 -0.8064 -0.8067
 1016MOL0     O34015   3.902  -1.148   2.633  0.4004  0.1338 -0.0508
 1016MOL0     C34016   3.872  -1.287   2.638 -0.6125  0.2327 -0.1710
 1016MOL0     C34017   3.754  -1.321   2.548  0.3973  0.6537 -0.5102
 1016MOL0     C34018   3.616  -1.320   2.619 -0.0229 -0.1034 -0.4325
 1016MOL0     C34019   3.501  -1.386   2.538 -0.0460  0.8732 -0.2113
 1016MOL0     C34020   3.508  -1.530   2.532 -0.2933  0.0965  0.1381
 1016MOL0     C34021   3.383  -1.585   2.454 -0.3182 -0.2206  0.9023
 1016MOL0     C34022   3.252  -1.590   2.532  0.1791  0.7872  0.3965
 1016MOL0     C34023   3.144  -1.645   2.442  0.8518  0.6608 -0.0193
 1016MOL0    Cl34024   3.001  -1.719   2.514 -0.1275 -0.5420 -0.1785
 1016MOL0     C34025   4.110  -1.194   2.756  0.5423  0.0424  0.3154
 1016MOL0     C34026   4.232  -1.148   2.809 -0.2729  0.7112  0.1628
 1016MOL0     O34027   4.287  -0.943   3.082  0.7216 -0.0573  0.0449
 1016MOL0     C34028   4.627  -0.924   2.978 -1.2676 -0.4515 -0.4791
 1016MOL0     C34029   4.753  -0.883   3.025  0.2551  0.1139 -0.7780
 1016MOL0     N34030   5.404  -0.742   3.214  0.3482  0.6890  0.1274
 1016MOL0     N34031   5.520  -0.736   3.153  0.4393 -0.0330  0.1202
 1016MOL0     C34032   6.638  -0.035   3.010 -0.6083  0.1989 -0.5992
 1016MOL0     C34033   6.765  -0.000   3.051 -1.3911 -0.1174  0.0407
 1016MOL0     C34034   7.168   0.201   3.094 -0.5928 -0.6725  0.4012
 1016MOL0     C34035   7.220   0.304   3.171  0.0301 -0.4534 -0.8097
 1016MOL0     C34036   7.353   0.339   3.161 -0.3676  0.3077  0.1189
 1016MOL0     C34037   7.441   0.269   3.074 -0.8104  0.0399 -0.9711
 1016MOL0     O34038   7.578   0.280   3.064  0.6293 -0.1407  0.0867
 1016MOL0     C34039   7.633   0.402   3.110 -0.3524 -0.3666  0.7941
 1016MOL0     C34040   7.776   0.417   3.052 -0.2810  0.7267  0.7348
 1016MOL0     C34041   7.840   0.537   3.124  0.2877  0.3063  0.3119
 1016MOL0     C34042   7.978   0.557   3.057 -0.5226 -0.1749  0.2471
 1016MOL0     C34043   8.007   0.698   3.056  0.1127 -0.4823  0.4176
 1016MOL0     C34044   8.023   0.816   3.057 -0.4891 -0.3882 -0.6611
 1016MOL0     C34045   7.389   0.165   3.000  0.1841 -0.5162  0.0299
 1016MOL0     C34046   7.256   0.130   3.008 -0.2335  0.4378 -0.1928
 1016MOL0     H34047   6.897   0.059   2.754  0.6349 -0.1311  1.1099
 1016MOL0     H34048   6.685  -0.021   2.684 -1.0228  2.3547  0.4123
 1016MOL0     H34049   6.348  -0.079   3.001  1.8987 -2.1299  4.6782
 1016MOL0     H34050   6.432  -0.229   3.026  0.9277  0.2630  0.6244
 1016MOL0     H34051   6.313  -0.307   2.793 -1.4700 -0.7324  1.2250
 1016MOL0     H34052   6.234  -0.154   2.808 -0.8040 -0.7002 -1.0594
 1016MOL0     H34053   6.128  -0.221   3.012  1.5881  1.6729 -2.3687
 1016MOL0     H34054   6.244  -0.356   3.028  0.2791 -1.5515 -1.2467
 1016MOL0     H34055   6.028  -0.336   2.813  4.6702  3.1008 -1.5757
 1016MOL0     H34056   6.124  -0.482   2.857 -2.5338 -1.2580  0.5702
 1016MOL0     H34057   5.940  -0.356   3.054 -1.2525 -0.1349 -0.9996
 1016MOL0     H34058   6.040  -0.492   3.075  2.8820  2.0689  0.0328
 1016MOL0     H34059   5.889  -0.597   2.886 -0.3302 -1.1241  1.3082
 1016MOL0     H34060   5.797  -0.447   2.872 -1.1146 -1.3366 -0.5033
 1016MOL0     H34061   5.808  -0.621   3.116 -1.0634  0.1098 -0.5950
 1016MOL0     H34062   5.739  -0.469   3.131 -0.0899 -2.0391  2.2484
 1016MOL0     H34063   5.658  -0.699   2.949 -0.0471  0.4628 -0.2984
 1016MOL0     H34064   5.598  -0.551   2.902 -0.5550 -0.2008  0.3098
 1016MOL0     H34065   5.390  -0.447   3.087  3.6626  1.5858 -0.4129
 1016MOL0     H34066   5.191  -0.515   3.293  3.3188 -0.5999  0.2486
 1016MOL0     H34067   5.158  -0.685   3.306 -0.9729 -0.0720 -0.8375
 1016MOL0     H34068   5.094  -0.509   3.060 -0.9669  0.3712  0.3664
 1016MOL0     H34069   4.978  -0.556   3.183  0.6215 -0.8639  0.6234
 1016MOL0     H34070   4.954  -0.674   2.994 -3.1938 -1.0951  3.2846
 1016MOL0     H34071   5.123  -0.731   2.984  0.9890 -1.7912  2.7429
 1016MOL0     H34072   5.069  -0.847   3.238 -1.5501  1.3822  2.2445
 1016MOL0     H34073   4.999  -0.922   3.096  2.5202  1.4004 -1.0158
 1016MOL0     H34074   4.651  -0.748   3.322  0.0731  1.3720 -0.1404
 1016MOL0     H34075   4.437  -0.815   3.236  0.4931  1.3734 -0.4548
 1016MOL0     H34076   4.175  -0.819   2.772  1.1315 -0.6585 -3.2292
 1016MOL0     H34077   3.970  -0.897   2.667 -0.8169  0.4131  0.6205
 1016MOL0     H34078   3.851  -1.314   2.742 -0.2481 -1.5173 -0.5135
 1016MOL0     H34079   3.956  -1.352   2.607  1.0482  1.9233  0.5851
 1016MOL0     H34080   3.762  -1.419   2.500  2.5070  0.9555 -0.8513
 1016MOL0     H34081   3.754  -1.246   2.469 -0.5330 -0.9067 -2.0648
 1016MOL0     H34082   3.590  -1.215   2.636 -1.8942 -0.1493 -2.5358
 1016MOL0     H34083   3.618  -1.363   2.720  0.3022  3.1852  1.0933
 1016MOL0     H34084   3.407  -1.366   2.590 -0.2884 -0.0966 -0.2545
 1016MOL0     H34085   3.495  -1.341   2.438 -0.4254  1.3737  0.0309
 1016MOL0     H34086   3.520  -1.577   2.630  1.6139  0.5757  0.1645
 1016MOL0     H34087   3.596  -1.554   2.471  0.6144 -0.0453  1.4614
 1016MOL0     H34088   3.407  -1.682   2.410 -1.7695  0.3329 -1.2753
 1016MOL0     H34089   3.370  -1.513   2.373  0.5958 -0.3013  0.6772
 1016MOL0     H34090   3.258  -1.660   2.616  3.4226  1.0334  0.4854
 1016MOL0     H34091   3.223  -1.494   2.575 -0.7677  0.8510 -0.3603
 1016MOL0     H34092   3.185  -1.727   2.382 -0.7734  1.0203 -1.7247
 1016MOL0     H34093   3.110  -1.578   2.363 -0.3479 -0.8429 -0.8436
 1016MOL0     H34094   4.084  -1.299   2.771 -1.9125  0.8265  2.1746
 1016MOL0     H34095   4.292  -1.222   2.862  0.3736 -0.0293 -1.5409
 1016MOL0     H34096   4.627  -0.965   2.878 -2.4570  0.4711 -0.8786
 1016MOL0     H34097   4.847  -0.903   2.974  0.8406  0.2636  0.2255
 1016MOL0     H34098   6.579  -0.075   3.091  0.3343 -0.9746 -0.4625
 1016MOL0     H34099   6.777  -0.008   3.159  3.2053 -1.6975 -0.3797
 1016MOL0     H34100   7.154   0.359   3.237  0.0613 -0.6185 -0.6379
 1016MOL0     H34101   7.401   0.404   3.233  0.7626 -1.8577  1.4071
 1016MOL0     H34102   7.639   0.389   3.218 -1.8848  1.3162  1.1103
 1016MOL0     H34103   7.572   0.491   3.098  3.5046  2.3410 -0.9865
 1016MOL0     H34104   7.834   0.330   3.083  1.2058  1.7885  1.0335
 1016MOL0     H34105   7.769   0.427   2.943 -0.9715  2.9113  0.9334
 1016MOL0     H34106   7.859   0.527   3.231  1.4820  1.8615  0.2849
 1016MOL0     H34107   7.786   0.632   3.120 -0.8909 -0.2987  1.2270
 1016MOL0     H34108   8.061   0.508   3.108 -0.0558 -1.0947 -1.3274
 1016MOL0     H34109   7.987   0.520   2.955 -2.4486 -1.5874  0.5272
 1016MOL0     H34110   8.047   0.920   3.073 -1.5998 -0.1258 -0.6240
 1016MOL0     H34111   7.456   0.113   2.932  2.1922  3.4638 -1.3395
 1016MOL0     H34112   7.225   0.052   2.939 -0.0627 -0.1502  0.3898
 1017MOL0     O34113   0.824   8.103   9.597  1.2627  0.0098  0.5948
 1017MOL0     C34114   0.913   8.173   9.557 -1.2184 -0.4733 -0.7893
 1017MOL0     O34115   0.907   8.278   9.474  0.3264 -0.1665  0.3910
 1017MOL0     C34116   0.784   8.339   9.446  0.7625 -0.2985 -0.3897
 1017MOL0     C34117   0.682   8.354   9.545  0.2010  0.1501 -0.2127
 1017MOL0     C34118   0.556   8.400   9.504 -0.5052  0.1181 -0.5747
 1017MOL0     C34119   0.541   8.456   9.378  0.3378 -0.2156 -0.5103
 1017MOL0     O34120   0.413   8.498   9.345  0.0936  0.6504  0.2504
 1017MOL0     C34121   0.405   8.586   9.228  0.3717  0.2442  0.5949
 1017MOL0     C34122   0.277   8.670   9.227  0.4903 -0.7060  0.5190
 1017MOL0     C34123   0.140   8.602   9.263  0.6593  0.1281 -0.0246
 1017MOL0     C34124   0.103   8.502   9.148  0.3086 -0.1531 -0.3299
 1017MOL0     C34125  -0.036   8.440   9.147  1.4092  0.0903 -0.1075
 1017MOL0     C34126  -0.134   8.553   9.133  0.1485 -0.6691  0.3773
 1017MOL0     C34127  -0.267   8.486   9.091  0.5434 -0.0129 -0.0113
 1017MOL0     C34128  -0.380   8.533   9.184 -0.1581 -0.2351  0.2178
 1017MOL0     N34129  -0.508   8.456   9.180 -0.8512  0.5286 -1.5900
 1017MOL0     C34130  -0.531   8.327   9.228  1.1697  0.7916 -0.1708
 1017MOL0     C34131  -0.656   8.289   9.176 -0.5214 -0.0406 -0.3760
 1017MOL0     C34132  -0.730   8.164   9.198  0.3495 -0.2744  1.2717
 1017MOL0     C34133  -0.701   8.083   9.069  0.2743 -0.6551  0.4251
 1017MOL0     C34134  -0.595   7.977   9.096  1.0228  0.1460  0.2690
 1017MOL0     C34135  -0.446   8.021   9.092 -0.4362  0.1865  1.2318
 1017MOL0     O34136  -0.380   8.043   9.216  0.8246 -0.5740  0.3722
 1017MOL0     C34137  -0.249   8.059   9.230  0.1384  0.2405 -0.2407
 1017MOL0     C34138  -0.162   8.067   9.116  0.1194 -0.3917 -0.7161
 1017MOL0     C34139  -0.028   8.035   9.140 -0.3479  0.6815 -0.4303
 1017MOL0     C34140   0.028   8.033   9.270 -0.1019  0.0777 -0.5590
 1017MOL0     C34141   0.170   8.002   9.292  0.3748 -0.4140 -0.0202
 1017MOL0     O34142   0.246   8.000   9.180  0.4173  0.3766 -0.4357
 1017MOL0     C34143   0.382   8.006   9.184 -1.1667 -0.1557  0.2842
 1017MOL0     C34144   0.463   8.058   9.289  0.0089  0.2665 -0.6217
 1017MOL0     C34145   0.604   8.068   9.275 -0.7768 -0.5564  0.3010
 1017MOL0     C34146   0.677   8.032   9.159  0.1135  0.0426 -0.9041
 1017MOL0     O34147   0.811   8.051   9.170 -0.2123 -0.0241  0.3649
 1017MOL0     C34148   0.878   8.080   9.047 -0.2195  0.2319  0.6815
 1017MOL0     C34149   1.036   8.071   9.093  0.7211 -0.5473 -0.2393
 1017MOL0     C34150   1.147   8.090   8.980 -0.4484 -0.6031  0.1101
 1017MOL0     C34151   1.279   8.045   9.033 -0.5065 -0.3866  0.6083
 1017MOL0     C34152   1.349   8.157   9.120 -0.2597 -0.0925 -0.1721
 1017MOL0     C34153   1.486   8.102   9.164 -0.6297 -0.7522 -0.2456
 1017MOL0     C34154   1.580   8.211   9.239 -0.6224 -0.8337  0.1847
 1017MOL0     C34155   1.522   8.299   9.349  0.4912 -0.0959  0.0838
 1017MOL0    Cl34156   1.627   8.442   9.370  0.1893 -0.1072  0.7265
 1017MOL0     C34157   0.597   7.976   9.060  0.3743 -0.4869  0.3605
 1017MOL0     C34158   0.452   7.968   9.067 -0.3402 -0.4383  0.0985
 1017MOL0     O34159   0.209   7.980   9.405  0.5127  0.0573 -0.3023
 1017MOL0     C34160  -0.060   8.051   9.373  0.0044  0.3336 -0.4438
 1017MOL0     C34161  -0.203   8.055   9.364  0.1250  0.3368  1.1573
 1017MOL0     N34162  -0.695   8.396   9.097  0.0233 -0.5095 -0.3595
 1017MOL0     N34163  -0.613   8.496   9.109  0.1135  0.0727  0.8573
 1017MOL0     C34164   0.643   8.441   9.277  0.0813 -0.6766 -0.4365
 1017MOL0     C34165   0.762   8.383   9.313 -0.1176 -0.2038 -0.2264
 1017MOL0     C34166   1.049   8.124   9.595  0.4205  1.0830 -0.2405
 1017MOL0     C34167   1.052   7.988   9.645  0.3242  0.1610  0.2218
 1017MOL0     C34168   1.177   7.930   9.677  0.0173 -0.7890 -0.0187
 1017MOL0     C34169   1.295   8.004   9.659  0.0343  0.2820  0.9506
 1017MOL0     O34170   1.413   7.943   9.699 -0.8900 -0.0269 -0.1878
 1017MOL0     C34171   1.531   7.987   9.640  0.6042  0.2067  0.0737
 1017MOL0     C34172   1.624   7.870   9.631 -0.2747 -0.3166  0.1721
 1017MOL0     C34173   1.767   7.934   9.598 -0.4256 -0.4061  0.4327
 1017MOL0     C34174   1.835   8.019   9.712 -0.0559  0.1584  0.1371
 1017MOL0     C34175   1.961   8.059   9.661  0.4068 -0.8178  0.2642
 1017MOL0     C34176   2.071   8.099   9.626  0.1611  0.0383  0.0365
 1017MOL0     C34177   1.287   8.125   9.599  1.2915 -1.0325  0.7157
 1017MOL0     C34178   1.164   8.191   9.568 -0.4916 -0.0130 -0.1010
 1017MOL0     H34179   0.696   8.319   9.646  3.3869  2.7081  0.3965
 1017MOL0     H34180   0.478   8.412   9.579 -0.1374  0.4293 -0.2392
 1017MOL0     H34181   0.409   8.530   9.134 -1.3111 -0.3234  0.8308
 1017MOL0     H34182   0.499   8.642   9.231  0.8872 -0.6106  1.1516
 1017MOL0     H34183   0.272   8.728   9.135  1.1634  0.3912  1.1542
 1017MOL0     H34184   0.296   8.751   9.298  3.4496  0.5004 -1.4621
 1017MOL0     H34185   0.057   8.673   9.268 -1.2938 -2.0955  2.2884
 1017MOL0     H34186   0.142   8.546   9.357  0.5083 -0.3519 -0.2977
 1017MOL0     H34187   0.124   8.541   9.048  1.1421 -0.5286 -0.3080
 1017MOL0     H34188   0.183   8.428   9.160  1.3873  0.8196 -1.2898
 1017MOL0     H34189  -0.052   8.376   9.234 -0.1990 -0.4481 -0.7718
 1017MOL0     H34190  -0.036   8.372   9.061  1.6816  0.0459 -0.0722
 1017MOL0     H34191  -0.102   8.618   9.050  1.6019 -1.0920  0.5820
 1017MOL0     H34192  -0.141   8.603   9.230  1.9191  0.3676  0.0246
 1017MOL0     H34193  -0.295   8.515   8.989  0.2563 -1.2432 -0.2953
 1017MOL0     H34194  -0.258   8.377   9.088 -0.1584 -0.1503  1.7125
 1017MOL0     H34195  -0.402   8.638   9.165 -0.8173 -0.4437 -0.2038
 1017MOL0     H34196  -0.341   8.517   9.285 -2.9006  0.4459  1.4838
 1017MOL0     H34197  -0.469   8.260   9.286  1.0964 -0.7599 -1.7998
 1017MOL0     H34198  -0.837   8.185   9.200  0.4757  0.5184  0.3444
 1017MOL0     H34199  -0.700   8.114   9.290  1.7572 -0.3414  0.8008
 1017MOL0     H34200  -0.661   8.151   8.994  0.5252  0.6701  1.7038
 1017MOL0     H34201  -0.798   8.041   9.040  0.3620 -3.4708  3.5681
 1017MOL0     H34202  -0.630   7.933   9.190  0.3327  1.7246  0.7842
 1017MOL0     H34203  -0.609   7.898   9.022  1.8938 -1.6330  1.9093
 1017MOL0     H34204  -0.437   8.118   9.042  3.2991 -0.8775 -0.4404
 1017MOL0     H34205  -0.386   7.963   9.021 -1.9684 -1.7633  1.4481
 1017MOL0     H34206  -0.199   8.089   9.016  0.1490  1.7068 -0.3181
 1017MOL0     H34207   0.041   8.010   9.061 -0.2105 -1.8524  0.3935
 1017MOL0     H34208   0.425   8.090   9.385 -0.8947 -3.6753  0.5186
 1017MOL0     H34209   0.663   8.102   9.359  1.9154 -1.1706 -1.2402
 1017MOL0     H34210   0.850   8.181   9.017 -1.9175 -0.9129 -1.9153
 1017MOL0     H34211   0.861   8.007   8.967 -2.1788  0.2248  1.0676
 1017MOL0     H34212   1.055   7.981   9.152 -0.2878  0.1870  1.2477
 1017MOL0     H34213   1.062   8.155   9.158  2.0376  1.6450 -3.3431
 1017MOL0     H34214   1.162   8.196   8.958  1.8485 -0.4972  1.8057
 1017MOL0     H34215   1.114   8.033   8.893 -0.7585 -1.8057  0.9843
 1017MOL0     H34216   1.259   7.961   9.102 -2.1228 -0.1765  0.4478
 1017MOL0     H34217   1.340   8.026   8.945 -0.1158 -0.1513  0.8249
 1017MOL0     H34218   1.288   8.179   9.208  0.7049 -0.5516  0.6155
 1017MOL0     H34219   1.369   8.250   9.065  0.2147 -0.8901 -1.4117
 1017MOL0     H34220   1.540   8.055   9.081  1.8312  0.5778  0.4970
 1017MOL0     H34221   1.467   8.019   9.233 -1.2725 -2.1651 -2.0542
 1017MOL0     H34222   1.674   8.170   9.275  0.1574  0.6368 -0.1034
 1017MOL0     H34223   1.610   8.278   9.158 -0.7059 -2.3239 -1.1305
 1017MOL0     H34224   1.544   8.250   9.444  0.8433  1.7285  1.0021
 1017MOL0     H34225   1.415   8.315   9.332  0.5473  0.1992 -0.0100
 1017MOL0     H34226   0.650   7.933   8.975 -1.8133 -2.4807 -0.1109
 1017MOL0     H34227   0.403   7.927   8.979 -0.2945  1.3042 -0.7910
 1017MOL0     H34228  -0.020   8.052   9.474  0.3834  2.2749 -0.5813
 1017MOL0     H34229  -0.278   8.059   9.443 -1.8743  1.9405 -0.7103
 1017MOL0     H34230   0.615   8.455   9.173 -1.7560  1.0903  0.2370
 1017MOL0     H34231   0.837   8.362   9.238 -0.8207 -1.9898 -0.4759
 1017MOL0     H34232   0.958   7.933   9.644 -0.2507  1.1006 -1.3943
 1017MOL0     H34233   1.177   7.832   9.726  2.0210 -0.9410 -0.2196
 1017MOL0     H34234   1.567   8.070   9.702 -0.1390  1.6570 -1.3438
 1017MOL0     H34235   1.511   8.014   9.536  0.2449 -3.1502 -0.8442
 1017MOL0     H34236   1.627   7.817   9.727 -1.9486 -1.0962 -0.1827
 1017MOL0     H34237   1.592   7.796   9.558 -0.8262 -1.0956  1.1830
 1017MOL0     H34238   1.768   7.996   9.508  1.8289 -2.1227 -0.8066
 1017MOL0     H34239   1.838   7.852   9.592  0.5661  0.3074  1.7084
 1017MOL0     H34240   1.780   8.105   9.751  0.6067 -0.0243  1.5344
 1017MOL0     H34241   1.842   7.956   9.802 -1.9645 -0.0707  0.1618
 1017MOL0     H34242   2.172   8.128   9.610  0.1144  1.3842  1.9206
 1017MOL0     H34243   1.376   8.187   9.589  0.2061  0.3011 -1.5551
 1017MOL0     H34244   1.151   8.294   9.535 -4.0457 -0.3576 -0.1458
 1018MOL0     O34245   7.078   0.988   2.495  0.4826  0.3039  0.1614
 1018MOL0     C34246   7.141   1.030   2.593 -0.2397 -0.7581  0.0669
 1018MOL0     O34247   7.088   1.023   2.727  0.3989  0.0265 -0.0608
 1018MOL0     C34248   6.982   0.940   2.768 -0.3725 -0.6180  0.1781
 1018MOL0     C34249   6.974   0.927   2.904  0.4375 -0.9355 -0.3435
 1018MOL0     C34250   6.870   0.850   2.962 -1.0482  0.1143  0.0190
 1018MOL0     C34251   6.789   0.771   2.884 -1.0115  0.7791 -0.0765
 1018MOL0     O34252   6.711   0.676   2.940  0.5206  0.8931  0.2831
 1018MOL0     C34253   6.583   0.701   2.995 -0.6922 -0.1279  0.1432
 1018MOL0     C34254   6.471   0.712   2.899  0.9322 -0.1040 -0.0532
 1018MOL0     C34255   6.340   0.681   2.968 -0.3177  0.6635 -0.3919
 1018MOL0     C34256   6.228   0.728   2.872 -0.5293  0.1560 -0.0794
 1018MOL0     C34257   6.098   0.695   2.943  0.0662  0.0868 -0.5977
 1018MOL0     C34258   5.975   0.707   2.847  0.0444 -0.0703  1.6841
 1018MOL0     C34259   5.844   0.749   2.911  0.2997  1.1090 -0.7629
 1018MOL0     C34260   5.809   0.648   3.024  0.3533  0.0325  0.2642
 1018MOL0     N34261   5.663   0.659   3.050 -1.1741 -0.2937 -0.2540
 1018MOL0     C34262   5.567   0.581   3.003 -0.1389 -1.1081  0.0944
 1018MOL0     C34263   5.457   0.641   3.051 -0.2234  0.5846 -0.3285
 1018MOL0     C34264   5.321   0.589   3.003  0.1875  0.4591 -0.4489
 1018MOL0     C34265   5.236   0.706   2.946 -0.4129  0.3647 -0.4497
 1018MOL0     C34266   5.105   0.668   2.875 -0.8587  0.0524  0.1587
 1018MOL0     C34267   5.009   0.591   2.959  0.1779  0.0743 -0.0242
 1018MOL0     O34268   4.947   0.701   3.022  0.1016  0.2297 -0.8599
 1018MOL0     C34269   4.839   0.667   3.095 -1.1325 -0.1538  1.7394
 1018MOL0     C34270   4.811   0.542   3.147  0.5931  0.3027 -0.5846
 1018MOL0     C34271   4.697   0.511   3.220 -0.4675  0.4680  0.1038
 1018MOL0     C34272   4.603   0.608   3.236  0.0617 -0.9436 -0.0407
 1018MOL0     C34273   4.480   0.572   3.308  0.1393  0.4517  0.0709
 1018MOL0     O34274   4.486   0.468   3.399 -0.3498  0.6760  0.0142
 1018MOL0     C34275   4.369   0.408   3.451  0.1073  0.1968 -0.1970
 1018MOL0     C34276   4.315   0.440   3.578  0.9497  0.3431  0.8614
 1018MOL0     C34277   4.201   0.384   3.625  0.2707  0.7031 -0.1005
 1018MOL0     C34278   4.128   0.290   3.544 -0.0789 -0.3414 -0.5229
 1018MOL0     O34279   4.020   0.221   3.593  0.2701 -0.0051  0.2070
 1018MOL0     C34280   3.914   0.289   3.666 -0.3138  0.2410 -0.2478
 1018MOL0     C34281   3.775   0.237   3.613 -0.8326 -0.7875 -0.1394
 1018MOL0     C34282   3.664   0.318   3.688 -0.0295 -0.1942 -0.3242
 1018MOL0     C34283   3.538   0.300   3.602 -0.1674  0.2493  0.2839
 1018MOL0     C34284   3.509   0.431   3.527 -0.4947 -0.3492 -0.0071
 1018MOL0     C34285   3.445   0.541   3.614  0.1003 -0.1195 -0.0984
 1018MOL0     C34286   3.388   0.655   3.534 -0.2919  0.1624  0.0547
 1018MOL0     C34287   3.498   0.741   3.470  0.7162 -0.8227 -0.6764
 1018MOL0    Cl34288   3.419   0.867   3.361 -0.3566 -0.0473  0.1097
 1018MOL0     C34289   4.180   0.265   3.415  0.7511  0.1199 -0.6920
 1018MOL0     C34290   4.298   0.328   3.368  0.6922  0.1932 -0.4892
 1018MOL0     O34291   4.374   0.634   3.287  0.3140  0.2078  0.3840
 1018MOL0     C34292   4.625   0.745   3.195  0.4784  0.1472 -0.3126
 1018MOL0     C34293   4.743   0.772   3.121 -0.6757 -0.1368 -0.3411
 1018MOL0     N34294   5.481   0.745   3.130 -0.1978 -0.3067 -0.6166
 1018MOL0     N34295   5.608   0.761   3.119 -0.8786  0.2616  0.6687
 1018MOL0     C34296   6.798   0.786   2.748  0.1631  0.0574  0.8684
 1018MOL0     C34297   6.894   0.868   2.691 -0.5783  0.5551  1.4601
 1018MOL0     C34298   7.272   1.094   2.561 -0.1488 -1.1160 -0.3408
 1018MOL0     C34299   7.360   1.103   2.672  0.3525  0.2609 -0.1039
 1018MOL0     C34300   7.493   1.147   2.646 -0.6569 -0.4751 -0.3647
 1018MOL0     C34301   7.536   1.184   2.516  0.1254  0.2291  0.5722
 1018MOL0     O34302   7.648   1.247   2.486  0.0577  0.2197  0.2222
 1018MOL0     C34303   7.735   1.276   2.596  0.5175  0.0130 -0.6597
 1018MOL0     C34304   7.850   1.377   2.562  0.4696 -0.4142  0.4202
 1018MOL0     C34305   7.941   1.309   2.460  0.0491  0.3857 -0.1031
 1018MOL0     C34306   8.053   1.411   2.420  0.3163 -0.3617 -1.0673
 1018MOL0     C34307   8.156   1.361   2.328 -0.6689  1.1567  0.5975
 1018MOL0     C34308   8.233   1.318   2.241 -0.4436 -0.3453  0.1902
 1018MOL0     C34309   7.451   1.161   2.404  0.4849 -0.4075 -0.3616
 1018MOL0     C34310   7.318   1.118   2.432 -0.8422 -0.0907 -0.6865
 1018MOL0     H34311   7.048   0.984   2.959 -2.5065  2.4981  0.5188
 1018MOL0     H34312   6.863   0.822   3.066 -1.1732 -1.6256 -0.4370
 1018MOL0     H34313   6.583   0.788   3.061  2.6163 -0.3625  0.5975
 1018MOL0     H34314   6.560   0.605   3.044  1.7100 -0.6520  0.3472
 1018MOL0     H34315   6.477   0.641   2.816  1.7647  0.6088 -0.6269
 1018MOL0     H34316   6.479   0.807   2.845  0.6503 -0.9572 -1.6503
 1018MOL0     H34317   6.351   0.743   3.058 -1.4653 -0.6100  0.6689
 1018MOL0     H34318   6.342   0.576   2.999  0.9332  0.3041 -1.5504
 1018MOL0     H34319   6.226   0.836   2.856  0.8337  0.1519 -0.4072
 1018MOL0     H34320   6.238   0.669   2.780 -3.2721 -1.9608  0.8300
 1018MOL0     H34321   6.086   0.769   3.023  1.5426 -1.0374  0.7248
 1018MOL0     H34322   6.105   0.594   2.985  1.0794 -0.5589 -2.2273
 1018MOL0     H34323   5.966   0.610   2.796  0.0630  0.3012  0.9577
 1018MOL0     H34324   5.999   0.781   2.770  0.9168  1.3861  3.2970
 1018MOL0     H34325   5.857   0.846   2.959  1.0485 -0.4144  2.3949
 1018MOL0     H34326   5.771   0.753   2.830 -1.2167 -0.7158  0.4482
 1018MOL0     H34327   5.870   0.673   3.112  0.7199 -3.8060  1.3097
 1018MOL0     H34328   5.829   0.547   2.987  1.0831 -1.2676  3.7664
 1018MOL0     H34329   5.582   0.509   2.924  0.6453  2.4757 -3.3241
 1018MOL0     H34330   5.268   0.543   3.087 -2.8782 -0.3239 -2.6779
 1018MOL0     H34331   5.335   0.510   2.930 -0.2707 -1.0922  1.0819
 1018MOL0     H34332   5.304   0.747   2.870  3.0892 -2.4704  0.8259
 1018MOL0     H34333   5.221   0.776   3.028  0.7482  0.4608 -0.3044
 1018MOL0     H34334   5.058   0.760   2.838 -0.3809  0.0943 -0.3823
 1018MOL0     H34335   5.140   0.605   2.792  1.3268 -1.1559  1.8927
 1018MOL0     H34336   5.054   0.514   3.023 -3.2324 -1.5863  0.5617
 1018MOL0     H34337   4.956   0.536   2.882  1.6869  1.2204 -1.9729
 1018MOL0     H34338   4.878   0.457   3.132  0.1289  0.0264 -1.1159
 1018MOL0     H34339   4.672   0.413   3.258 -0.0937 -0.0862 -1.0350
 1018MOL0     H34340   4.379   0.500   3.643  2.7006 -1.6843  1.1402
 1018MOL0     H34341   4.179   0.415   3.727  0.0063  1.6582 -0.4418
 1018MOL0     H34342   3.920   0.398   3.652 -0.3825  0.6314  2.3305
 1018MOL0     H34343   3.922   0.267   3.773 -0.3697 -0.6258 -0.4135
 1018MOL0     H34344   3.755   0.129   3.620  1.5499 -1.3067 -0.5610
 1018MOL0     H34345   3.775   0.260   3.506 -0.0276 -0.0158  0.0137
 1018MOL0     H34346   3.683   0.421   3.719 -2.2198 -0.8215  3.7160
 1018MOL0     H34347   3.641   0.264   3.780 -0.5263  1.5875  0.6398
 1018MOL0     H34348   3.535   0.216   3.532 -2.4871 -0.1551  0.7937
 1018MOL0     H34349   3.452   0.286   3.667 -0.8771  0.4758 -0.5825
 1018MOL0     H34350   3.461   0.405   3.432  3.0496 -1.6662 -1.6486
 1018MOL0     H34351   3.605   0.466   3.487 -0.2938 -2.9481 -2.0682
 1018MOL0     H34352   3.507   0.564   3.701 -0.6852  3.4678 -0.3347
 1018MOL0     H34353   3.362   0.482   3.655  1.2819 -2.5563 -0.9890
 1018MOL0     H34354   3.339   0.611   3.446  2.3204 -1.8545 -0.5048
 1018MOL0     H34355   3.304   0.700   3.587 -0.4785 -1.2097  0.9877
 1018MOL0     H34356   3.559   0.674   3.408  0.9903 -0.8944 -0.3327
 1018MOL0     H34357   3.559   0.789   3.547 -0.1013 -1.7809  0.5951
 1018MOL0     H34358   4.130   0.185   3.361  0.6917 -1.0849  1.0582
 1018MOL0     H34359   4.326   0.313   3.264 -0.1618  2.2121 -1.0617
 1018MOL0     H34360   4.548   0.820   3.212  0.9060 -0.1672  4.0900
 1018MOL0     H34361   4.765   0.866   3.072  1.0503 -0.4209 -0.1902
 1018MOL0     H34362   6.738   0.724   2.682 -0.7307  0.1247  1.6072
 1018MOL0     H34363   6.902   0.883   2.584 -2.2366  5.1017  1.7542
 1018MOL0     H34364   7.328   1.073   2.771  1.5140  1.9746  0.8416
 1018MOL0     H34365   7.568   1.149   2.724  1.8299 -1.2459 -2.5954
 1018MOL0     H34366   7.782   1.186   2.638 -1.3076 -0.2147  1.1118
 1018MOL0     H34367   7.683   1.330   2.676  1.5930  0.6399 -0.3712
 1018MOL0     H34368   7.811   1.470   2.521 -1.3290 -0.3702  2.0898
 1018MOL0     H34369   7.908   1.390   2.654  1.7481  1.0958 -0.5384
 1018MOL0     H34370   7.892   1.275   2.369 -1.7928  3.3640 -0.3575
 1018MOL0     H34371   7.971   1.218   2.513 -3.1126  0.7417  2.5945
 1018MOL0     H34372   8.005   1.501   2.380 -3.5920 -1.8152 -0.0974
 1018MOL0     H34373   8.112   1.446   2.505  0.6135  1.0534 -1.8192
 1018MOL0     H34374   8.313   1.295   2.172  1.7580  3.5552  1.1542
 1018MOL0     H34375   7.505   1.197   2.317  2.8682 -1.2824  0.6805
 1018MOL0     H34376   7.263   1.081   2.346 -2.9570 -0.1479  0.6158
 1019MOL0     O34377   0.907   9.018   0.068  0.2113 -0.0605 -0.2638
 1019MOL0     C34378   0.974   9.058   0.160  0.7255  0.0670 -0.2612
 1019MOL0     O34379   0.953   9.023   0.294  0.9902  0.4312 -0.4443
 1019MOL0     C34380   0.846   8.956   0.344 -0.1764  0.1272 -1.0448
 1019MOL0     C34381   0.790   8.845   0.281 -0.4694 -0.6670 -0.9274
 1019MOL0     C34382   0.696   8.770   0.347  0.4175  0.9507 -0.7838
 1019MOL0     C34383   0.657   8.797   0.477 -0.8102 -0.2957 -0.2743
 1019MOL0     O34384   0.553   8.729   0.551  0.1033 -0.3822  0.3303
 1019MOL0     C34385   0.469   8.642   0.471  0.5744  0.3294 -0.1937
 1019MOL0     C34386   0.335   8.619   0.536 -0.3712 -0.1345 -0.7504
 1019MOL0     C34387   0.257   8.749   0.545  0.2639  0.2291 -0.0003
 1019MOL0     C34388   0.120   8.736   0.599 -0.6709  0.0265 -0.1290
 1019MOL0     C34389   0.036   8.865   0.614  0.0231  0.1988 -0.2624
 1019MOL0     C34390   0.101   8.969   0.707 -0.2344  0.4709  1.4780
 1019MOL0     C34391   0.015   9.093   0.730 -0.1665 -0.0890 -0.1654
 1019MOL0     C34392   0.083   9.199   0.809 -0.0385 -0.3358  0.3592
 1019MOL0     N34393   0.006   9.329   0.799 -0.3534 -0.4104 -0.0660
 1019MOL0     C34394  -0.127   9.352   0.840 -0.8266 -0.3420 -0.8238
 1019MOL0     C34395  -0.156   9.482   0.807 -0.7316  0.5693  1.1179
 1019MOL0     C34396  -0.272   9.563   0.841  0.1452 -0.7175  0.3937
 1019MOL0     C34397  -0.415   9.494   0.819 -0.8045  0.3840 -0.2167
 1019MOL0     C34398  -0.447   9.401   0.696  0.6152 -0.1331  0.3105
 1019MOL0     C34399  -0.595   9.372   0.700 -0.0782  0.3602  1.2335
 1019MOL0     O34400  -0.624   9.296   0.815 -0.3638  0.0445  0.4686
 1019MOL0     C34401  -0.748   9.262   0.844 -0.8023  0.4930  0.0856
 1019MOL0     C34402  -0.767   9.198   0.966 -0.2266 -0.1091 -0.3061
 1019MOL0     C34403  -0.894   9.180   1.021  0.0751  0.5676 -1.0121
 1019MOL0     C34404  -1.009   9.227   0.947 -0.5166 -0.4971 -0.2087
 1019MOL0     C34405  -1.143   9.203   1.007  0.1029  0.3919 -0.0733
 1019MOL0     O34406  -1.243   9.185   0.918 -0.2294  0.4050  0.1917
 1019MOL0     C34407  -1.366   9.141   0.968 -0.1841 -0.5855  0.6060
 1019MOL0     C34408  -1.380   9.009   1.012 -0.5628 -0.8638 -0.0945
 1019MOL0     C34409  -1.510   8.964   1.057  0.8560  0.5544  0.0380
 1019MOL0     C34410  -1.631   9.048   1.055  0.2218  1.0645  0.4477
 1019MOL0     O34411  -1.757   9.012   1.102  0.0559 -0.0945  0.3621
 1019MOL0     C34412  -1.762   8.903   1.191  1.1889 -0.2858  0.3117
 1019MOL0     C34413  -1.847   8.787   1.127  0.3346  0.6664  0.3721
 1019MOL0     C34414  -1.980   8.829   1.079  0.3702 -0.6004 -0.1780
 1019MOL0     C34415  -2.061   8.719   1.017  0.5645 -0.5583  0.5875
 1019MOL0     C34416  -2.207   8.763   0.990 -0.2562  0.3528  0.0017
 1019MOL0     C34417  -2.286   8.651   0.934  0.3895  0.0559 -0.3203
 1019MOL0     C34418  -2.237   8.613   0.800  0.1094 -0.3557 -0.1333
 1019MOL0     C34419  -2.343   8.551   0.718 -0.1972  0.5257  0.7654
 1019MOL0    Cl34420  -2.443   8.671   0.633  0.4440  0.2087 -0.0651
 1019MOL0     C34421  -1.612   9.174   1.008  0.0762 -1.0596  0.0643
 1019MOL0     C34422  -1.491   9.221   0.954 -0.7961 -0.6432  0.6802
 1019MOL0     O34423  -1.159   9.216   1.130 -0.5033 -0.0256  0.4464
 1019MOL0     C34424  -0.990   9.295   0.824 -0.1355 -0.2610  0.3075
 1019MOL0     C34425  -0.860   9.310   0.770  0.7469 -0.0900 -0.4879
 1019MOL0     N34426  -0.041   9.537   0.745 -0.4371  0.3751 -0.1396
 1019MOL0     N34427   0.048   9.440   0.737  0.4364  0.2584 -0.3075
 1019MOL0     C34428   0.716   8.900   0.544  0.2534  0.0814  0.2444
 1019MOL0     C34429   0.816   8.973   0.479 -0.2324 -0.5062 -0.4232
 1019MOL0     C34430   1.101   9.125   0.130 -0.0133 -0.7326  0.5100
 1019MOL0     C34431   1.141   9.131  -0.007  0.2522  0.7696  0.6527
 1019MOL0     C34432   1.266   9.170  -0.044 -0.4264 -0.1606 -0.2777
 1019MOL0     C34433   1.354   9.239   0.051  0.0617  1.2184  0.5047
 1019MOL0     O34434   1.461   9.308   0.012 -0.0314 -0.3244 -0.5440
 1019MOL0     C34435   1.556   9.363   0.112 -0.0115  0.1065 -0.3235
 1019MOL0     C34436   1.658   9.448   0.037 -0.1152  0.7616 -0.1685
 1019MOL0     C34437   1.748   9.347  -0.042 -0.9534  0.2799  0.0936
 1019MOL0     C34438   1.846   9.427  -0.125  0.6712 -0.5385  1.0438
 1019MOL0     C34439   1.926   9.332  -0.203  0.7808  0.1104 -0.7841
 1019MOL0     C34440   1.986   9.268  -0.282  0.2471  0.0918  0.1491
 1019MOL0     C34441   1.315   9.226   0.185 -0.5330 -0.3183 -0.0823
 1019MOL0     C34442   1.191   9.172   0.222 -1.0174  0.3206 -0.3784
 1019MOL0     H34443   0.827   8.806   0.187 -0.6413  0.2357 -1.3845
 1019MOL0     H34444   0.657   8.682   0.297  2.4470 -2.0010  2.3090
 1019MOL0     H34445   0.522   8.546   0.463 -2.1434 -1.2235 -0.9433
 1019MOL0     H34446   0.451   8.677   0.369 -0.3577  3.9143  1.0508
 1019MOL0     H34447   0.346   8.575   0.636  0.6798 -0.4626 -1.0024
 1019MOL0     H34448   0.281   8.542   0.480 -1.0660  2.0463 -3.2941
 1019MOL0     H34449   0.268   8.788   0.444  3.3687  2.0303  0.8922
 1019MOL0     H34450   0.314   8.818   0.609  0.4666 -0.0595  0.1330
 1019MOL0     H34451   0.069   8.667   0.531 -0.0664 -0.3401 -0.2261
 1019MOL0     H34452   0.122   8.686   0.697  3.0208 -1.5227 -0.8248
 1019MOL0     H34453  -0.060   8.831   0.655  1.1474 -1.9738  0.7917
 1019MOL0     H34454   0.014   8.901   0.514 -0.4405 -0.2502 -0.3296
 1019MOL0     H34455   0.190   8.988   0.647  1.4067 -2.8068  2.6590
 1019MOL0     H34456   0.132   8.924   0.802 -0.7994 -3.3274  0.0269
 1019MOL0     H34457  -0.006   9.120   0.626  0.0481 -0.8538 -0.4091
 1019MOL0     H34458  -0.078   9.068   0.781  0.0731 -1.0225 -0.1759
 1019MOL0     H34459   0.184   9.212   0.770  0.3066 -1.1271  0.9502
 1019MOL0     H34460   0.092   9.165   0.913  3.2047  1.2145  0.7348
 1019MOL0     H34461  -0.185   9.296   0.912 -0.1773 -1.6394 -1.2876
 1019MOL0     H34462  -0.280   9.645   0.769  0.2772 -2.0747 -1.2072
 1019MOL0     H34463  -0.272   9.593   0.946  0.2757 -1.5207  0.6283
 1019MOL0     H34464  -0.484   9.580   0.823 -2.0071 -0.5860  1.3403
 1019MOL0     H34465  -0.437   9.433   0.907 -2.2420  0.8438 -0.2306
 1019MOL0     H34466  -0.431   9.456   0.603  1.3447  0.8012  0.9732
 1019MOL0     H34467  -0.389   9.310   0.713  0.7452 -0.3018 -0.9635
 1019MOL0     H34468  -0.625   9.319   0.609 -1.7515  2.9981  0.1011
 1019MOL0     H34469  -0.656   9.463   0.693 -2.9180 -1.1695  3.7086
 1019MOL0     H34470  -0.683   9.167   1.026 -1.0480  0.6921  1.3192
 1019MOL0     H34471  -0.907   9.135   1.119 -1.3113  0.9482 -1.0073
 1019MOL0     H34472  -1.292   8.945   1.009  1.8646  2.2345  0.5119
 1019MOL0     H34473  -1.517   8.857   1.077 -1.1411  0.5704 -0.3934
 1019MOL0     H34474  -1.819   8.935   1.279 -0.2490 -1.7068 -0.0539
 1019MOL0     H34475  -1.669   8.859   1.228 -0.1645 -0.7430  3.5518
 1019MOL0     H34476  -1.861   8.707   1.200  1.0244  0.4669  0.2939
 1019MOL0     H34477  -1.785   8.730   1.057 -0.0194 -2.4447  2.4081
 1019MOL0     H34478  -1.974   8.920   1.019 -0.6301  0.0515  0.6693
 1019MOL0     H34479  -2.040   8.860   1.165  1.9775  2.2240  0.0282
 1019MOL0     H34480  -2.010   8.685   0.926  0.0663  0.0437  0.0712
 1019MOL0     H34481  -2.057   8.633   1.083  3.0820  0.2276  1.5710
 1019MOL0     H34482  -2.209   8.848   0.920  2.3361  0.6523  0.1949
 1019MOL0     H34483  -2.247   8.794   1.087 -2.6881 -2.1622 -0.1009
 1019MOL0     H34484  -2.384   8.696   0.917  0.8367  0.9999 -0.4729
 1019MOL0     H34485  -2.293   8.572   1.009 -0.4702 -0.0409 -0.4941
 1019MOL0     H34486  -2.201   8.693   0.734 -0.4666  0.7773  0.8762
 1019MOL0     H34487  -2.154   8.544   0.817 -2.0016 -3.5087 -1.5949
 1019MOL0     H34488  -2.403   8.483   0.779  0.9332 -2.3332 -1.1135
 1019MOL0     H34489  -2.297   8.486   0.644 -1.1002  0.4988  0.2196
 1019MOL0     H34490  -1.698   9.241   1.015  0.8835  0.0549 -0.3887
 1019MOL0     H34491  -1.474   9.325   0.926  0.8430 -0.7997  1.0249
 1019MOL0     H34492  -1.084   9.321   0.777 -0.8614 -1.4301  1.0406
 1019MOL0     H34493  -0.857   9.372   0.681  2.0937 -0.2113 -0.5576
 1019MOL0     H34494   0.673   8.918   0.642 -0.3592  3.2200 -0.4957
 1019MOL0     H34495   0.852   9.057   0.539 -0.1323  1.1018 -2.6136
 1019MOL0     H34496   1.085   9.092  -0.092  0.1356  1.4564  0.4097
 1019MOL0     H34497   1.281   9.180  -0.151 -1.1596  0.4406 -0.3361
 1019MOL0     H34498   1.603   9.285   0.173  2.5592  1.6339 -0.2262
 1019MOL0     H34499   1.513   9.432   0.185  2.0922  2.0160 -0.7771
 1019MOL0     H34500   1.605   9.513  -0.033 -0.4234 -2.2092 -2.9116
 1019MOL0     H34501   1.720   9.506   0.106  0.2505 -0.9653  1.0161
 1019MOL0     H34502   1.685   9.287  -0.109 -0.0188  0.3286 -0.8692
 1019MOL0     H34503   1.799   9.267   0.013 -2.2691 -2.2309 -2.1116
 1019MOL0     H34504   1.786   9.481  -0.198 -2.8476 -1.6329  2.9296
 1019MOL0     H34505   1.906   9.493  -0.061 -2.3863  1.3747  2.1532
 1019MOL0     H34506   2.025   9.193  -0.348 -2.4287 -0.3701 -1.0002
 1019MOL0     H34507   1.378   9.267   0.263 -0.7271 -0.4642  0.1501
 1019MOL0     H34508   1.167   9.171   0.328 -2.3352  0.6537 -0.6485
 1020MOL0     O34509   6.044   1.940   6.125 -0.2211  0.7698 -0.3861
 1020MOL0     C34510   6.160   1.968   6.131 -0.8667  0.3642  0.9510
 1020MOL0     O34511   6.201   2.088   6.170  0.5006 -0.3827  0.3164
 1020MOL0     C34512   6.144   2.215   6.139  1.0670 -0.5265 -0.2960
 1020MOL0     C34513   6.223   2.316   6.084 -0.1970 -0.0843 -0.4644
 1020MOL0     C34514   6.166   2.431   6.038  0.2390 -0.1594 -0.3970
 1020MOL0     C34515   6.030   2.457   6.052  0.2104 -0.3521  0.5554
 1020MOL0     O34516   5.961   2.560   6.007 -0.3232 -0.5271  0.3389
 1020MOL0     C34517   5.978   2.592   5.864  0.5125  0.0706 -0.0854
 1020MOL0     C34518   5.901   2.727   5.835 -0.0279 -0.2895 -0.4068
 1020MOL0     C34519   5.746   2.709   5.838  0.5901  0.2439 -0.2462
 1020MOL0     C34520   5.684   2.626   5.719 -0.5698 -0.9694  0.0561
 1020MOL0     C34521   5.538   2.637   5.693  0.2427 -1.2295 -0.7948
 1020MOL0     C34522   5.500   2.542   5.584 -0.8553 -0.0530  0.4187
 1020MOL0     C34523   5.358   2.569   5.524 -0.3419 -1.5422  0.1273
 1020MOL0     C34524   5.252   2.546   5.641 -0.3685  0.9637 -0.0953
 1020MOL0     N34525   5.113   2.565   5.598  0.1632  0.2754 -0.9758
 1020MOL0     C34526   5.007   2.603   5.681 -0.4455 -0.5631 -0.5013
 1020MOL0     C34527   4.891   2.564   5.623 -0.1424  1.2724 -0.1778
 1020MOL0     C34528   4.746   2.583   5.675  0.1496  0.1895  0.7218
 1020MOL0     C34529   4.667   2.458   5.694  0.6478  0.1390  0.0281
 1020MOL0     C34530   4.548   2.472   5.779  0.4106  0.1551 -1.2655
 1020MOL0     C34531   4.430   2.515   5.699  0.5423  0.2633 -0.2259
 1020MOL0     O34532   4.374   2.405   5.633  0.4615  0.0518 -0.0669
 1020MOL0     C34533   4.243   2.427   5.599  0.7562 -0.1595 -1.0397
 1020MOL0     C34534   4.192   2.537   5.538 -0.0321  0.6112  0.2170
 1020MOL0     C34535   4.051   2.541   5.510 -0.2384 -0.4043  0.6659
 1020MOL0     C34536   3.970   2.436   5.532  0.6730 -0.4858  0.4615
 1020MOL0     C34537   3.825   2.437   5.500  0.6369 -0.1835  1.1652
 1020MOL0     O34538   3.755   2.340   5.565  0.1528 -0.9662 -0.5408
 1020MOL0     C34539   3.636   2.292   5.518  0.3244  0.2681 -0.4168
 1020MOL0     C34540   3.520   2.332   5.586 -0.2119  0.4889 -1.2892
 1020MOL0     C34541   3.397   2.278   5.557  1.0010 -0.0849  0.1958
 1020MOL0     C34542   3.383   2.175   5.452 -0.2813  0.7485 -0.2625
 1020MOL0     O34543   3.268   2.119   5.419  0.5056 -0.4098 -0.7715
 1020MOL0     C34544   3.150   2.135   5.506  0.7884 -0.1733  0.5408
 1020MOL0     C34545   3.032   2.067   5.452  1.0654  0.2454 -0.6084
 1020MOL0     C34546   2.932   2.055   5.576 -0.6895  0.0443 -0.2549
 1020MOL0     C34547   2.811   1.975   5.529 -0.5694 -0.3490  0.0621
 1020MOL0     C34548   2.715   1.975   5.654  0.6929  0.6372 -0.4007
 1020MOL0     C34549   2.624   2.098   5.646  0.7392 -0.0648 -0.4647
 1020MOL0     C34550   2.517   2.096   5.757 -0.1362 -0.9323 -0.6087
 1020MOL0     C34551   2.413   1.988   5.730 -0.4190 -0.2878 -1.3585
 1020MOL0    Cl34552   2.256   2.032   5.814  0.7499  0.1438 -0.0467
 1020MOL0     C34553   3.505   2.128   5.391  0.2840  0.4949  0.4607
 1020MOL0     C34554   3.630   2.189   5.422 -0.4396 -0.0733 -0.2507
 1020MOL0     O34555   3.772   2.526   5.431 -0.0815  0.9324  0.0691
 1020MOL0     C34556   4.022   2.327   5.595  0.2504  0.7284  0.3721
 1020MOL0     C34557   4.158   2.318   5.623 -0.4520  0.2216  0.7940
 1020MOL0     N34558   4.926   2.512   5.500 -0.7718  0.5215 -0.5913
 1020MOL0     N34559   5.055   2.509   5.490 -0.0870  0.0859  0.6480
 1020MOL0     C34560   5.947   2.365   6.120  0.1708  1.2454 -0.3512
 1020MOL0     C34561   6.008   2.242   6.164 -0.4761  0.6559 -0.1749
 1020MOL0     C34562   6.271   1.858   6.117 -0.6924  0.1706 -0.5880
 1020MOL0     C34563   6.401   1.887   6.155 -0.0248 -0.3731 -0.0996
 1020MOL0     C34564   6.502   1.785   6.151 -0.8215  0.4546  0.0364
 1020MOL0     C34565   6.467   1.655   6.099  0.3157 -0.4581 -0.4479
 1020MOL0     O34566   6.570   1.568   6.093 -0.4661  0.0674  0.6144
 1020MOL0     C34567   6.541   1.457   6.006 -0.2549 -0.6703  0.4632
 1020MOL0     C34568   6.668   1.395   5.978  0.4606 -1.2577  0.0424
 1020MOL0     C34569   6.742   1.331   6.098  0.2904 -0.2944 -0.1324
 1020MOL0     C34570   6.884   1.297   6.058  0.9061  0.1477 -0.8402
 1020MOL0     C34571   6.957   1.424   6.044  1.8577  1.2479  0.0135
 1020MOL0     C34572   7.018   1.524   6.032  0.0527  0.3527  0.8175
 1020MOL0     C34573   6.331   1.628   6.064  0.4933 -0.7062 -0.8100
 1020MOL0     C34574   6.235   1.732   6.067  0.2845 -0.1871 -0.3487
 1020MOL0     H34575   6.330   2.299   6.077 -0.2733 -0.4227 -0.8010
 1020MOL0     H34576   6.230   2.499   5.983 -0.4975 -0.0447 -1.1397
 1020MOL0     H34577   5.934   2.512   5.805  0.4962 -0.8027  1.0658
 1020MOL0     H34578   6.085   2.597   5.842  0.6440  0.3380  0.6011
 1020MOL0     H34579   5.930   2.763   5.736  0.0444  3.0438  0.7374
 1020MOL0     H34580   5.935   2.806   5.901 -0.3387  0.0952 -0.6959
 1020MOL0     H34581   5.696   2.806   5.832  1.2113  0.9115  3.2349
 1020MOL0     H34582   5.730   2.666   5.937 -0.0164 -1.0718 -0.8870
 1020MOL0     H34583   5.733   2.658   5.627 -1.3745  1.0920  0.2832
 1020MOL0     H34584   5.705   2.520   5.734  0.8499 -0.5224  1.3623
 1020MOL0     H34585   5.516   2.742   5.672  2.1860 -0.5050  0.5544
 1020MOL0     H34586   5.483   2.618   5.786 -0.7872  1.0469 -0.8888
 1020MOL0     H34587   5.496   2.440   5.625 -2.7188 -0.7864 -1.4421
 1020MOL0     H34588   5.585   2.542   5.515 -0.5337 -2.9856  0.6954
 1020MOL0     H34589   5.345   2.672   5.489 -1.1124 -1.0963  1.6430
 1020MOL0     H34590   5.334   2.500   5.443 -3.7955  0.5194 -0.8141
 1020MOL0     H34591   5.268   2.615   5.724 -0.0282 -0.1638  0.8119
 1020MOL0     H34592   5.266   2.446   5.683  0.9319  3.0962  5.4356
 1020MOL0     H34593   5.016   2.636   5.784  1.2317  2.0397 -1.3987
 1020MOL0     H34594   4.697   2.636   5.592  1.0250  0.6177  0.4640
 1020MOL0     H34595   4.742   2.658   5.755 -2.7381  1.5605 -0.5291
 1020MOL0     H34596   4.735   2.393   5.749  0.6302  2.1999  2.7064
 1020MOL0     H34597   4.629   2.414   5.602  0.0485  0.1265  0.2747
 1020MOL0     H34598   4.525   2.374   5.821 -0.8012  0.5724 -0.8865
 1020MOL0     H34599   4.564   2.544   5.860  1.0544 -1.2238 -0.1292
 1020MOL0     H34600   4.447   2.590   5.621  1.6167 -2.3727 -2.7402
 1020MOL0     H34601   4.363   2.557   5.775  0.0916 -2.7306  1.1886
 1020MOL0     H34602   4.269   2.608   5.506  3.2460 -2.1405  1.3981
 1020MOL0     H34603   4.012   2.621   5.449 -2.2579 -0.9666  1.1517
 1020MOL0     H34604   3.518   2.405   5.666 -1.6891  0.3360 -1.1502
 1020MOL0     H34605   3.315   2.321   5.614 -0.0603 -3.4327  1.4116
 1020MOL0     H34606   3.118   2.237   5.528  1.8975 -0.2594  2.8108
 1020MOL0     H34607   3.177   2.096   5.604  1.7106 -1.7309 -0.2982
 1020MOL0     H34608   3.069   1.970   5.419  0.7817 -0.8730  2.0837
 1020MOL0     H34609   2.986   2.129   5.374  1.4764  0.7755 -0.4292
 1020MOL0     H34610   2.902   2.155   5.610 -0.5217  0.3304 -0.9363
 1020MOL0     H34611   2.989   2.016   5.661  1.2195  1.6783 -0.6846
 1020MOL0     H34612   2.771   2.023   5.439  1.2779  2.2314  0.5295
 1020MOL0     H34613   2.837   1.869   5.513  0.7591  0.2151 -1.9139
 1020MOL0     H34614   2.760   1.960   5.753  0.4353  1.2067 -0.1943
 1020MOL0     H34615   2.643   1.895   5.635 -4.0988  4.7247 -1.6707
 1020MOL0     H34616   2.573   2.115   5.551  0.7385  1.4973 -0.2048
 1020MOL0     H34617   2.682   2.191   5.648  1.7036 -0.4377 -3.9123
 1020MOL0     H34618   2.568   2.084   5.852 -2.7936  0.6216  1.1467
 1020MOL0     H34619   2.471   2.196   5.758  0.4801 -0.6460  0.3092
 1020MOL0     H34620   2.444   1.891   5.769 -1.0675  0.1399  0.3110
 1020MOL0     H34621   2.402   1.991   5.621  1.1807 -0.5698 -1.5500
 1020MOL0     H34622   3.497   2.046   5.320 -0.8992  0.7662  0.2534
 1020MOL0     H34623   3.726   2.170   5.374 -0.0516  1.5527 -0.1606
 1020MOL0     H34624   3.964   2.241   5.628  2.3330 -0.4760  1.0849
 1020MOL0     H34625   4.212   2.240   5.676 -0.9231 -0.4673  0.2757
 1020MOL0     H34626   5.844   2.398   6.132  0.4094  1.6103  0.8497
 1020MOL0     H34627   5.945   2.164   6.205  2.0787 -0.6295  1.5709
 1020MOL0     H34628   6.423   1.988   6.190 -0.7292 -1.2525  3.2666
 1020MOL0     H34629   6.604   1.801   6.186  0.8271 -3.8770 -2.0360
 1020MOL0     H34630   6.504   1.502   5.913  1.4119  2.8030  1.2978
 1020MOL0     H34631   6.476   1.385   6.055 -0.8845 -1.3546 -1.2984
 1020MOL0     H34632   6.650   1.311   5.911  0.7523 -1.1767 -0.1399
 1020MOL0     H34633   6.738   1.469   5.938  1.3036 -0.3918  2.8876
 1020MOL0     H34634   6.682   1.242   6.115 -3.5478  1.9266 -0.7912
 1020MOL0     H34635   6.739   1.404   6.180 -2.5035  2.0501 -2.1008
 1020MOL0     H34636   6.940   1.229   6.122  0.7304 -0.7159 -1.5859
 1020MOL0     H34637   6.883   1.247   5.961  1.0657 -0.8894 -0.3193
 1020MOL0     H34638   7.084   1.605   6.012 -1.0844  1.1091  0.0249
 1020MOL0     H34639   6.299   1.526   6.046  1.9496 -1.2641 -0.3334
 1020MOL0     H34640   6.139   1.685   6.049  0.4156 -1.4107  1.7477
 1021MOL0     O34641   8.959   2.313   0.109 -0.6020  0.2631 -0.0404
 1021MOL0     C34642   8.975   2.402   0.025 -0.2903 -0.2948 -0.5855
 1021MOL0     O34643   8.870   2.472  -0.029  0.2688 -0.5753  0.1301
 1021MOL0     C34644   8.742   2.437   0.022 -0.3389 -0.6490  0.5320
 1021MOL0     C34645   8.690   2.506   0.128 -0.3170 -0.7181 -0.5638
 1021MOL0     C34646   8.555   2.483   0.167 -0.5347 -0.0736 -0.0303
 1021MOL0     C34647   8.477   2.393   0.095 -0.0138  0.4865  0.1970
 1021MOL0     O34648   8.348   2.379   0.137 -0.7168  0.3668  0.2707
 1021MOL0     C34649   8.284   2.504   0.152  0.0513  1.0757  0.3286
 1021MOL0     C34650   8.131   2.493   0.163 -0.3589  0.2116 -0.2341
 1021MOL0     C34651   8.076   2.635   0.164 -0.7775  0.5253 -0.4917
 1021MOL0     C34652   7.926   2.629   0.152 -1.1448  0.1392  0.1748
 1021MOL0     C34653   7.858   2.761   0.158 -0.4646 -0.3050  0.3385
 1021MOL0     C34654   7.715   2.742   0.117  0.0004  0.1341  0.2009
 1021MOL0     C34655   7.651   2.877   0.137  0.1534 -0.3497  0.3112
 1021MOL0     C34656   7.492   2.871   0.125 -0.1139  0.0426 -0.0673
 1021MOL0     N34657   7.423   3.003   0.164 -0.8288  0.7099  0.4303
 1021MOL0     C34658   7.320   3.046   0.092  0.5822 -0.0157 -0.2893
 1021MOL0     C34659   7.248   3.137   0.173 -0.2427  0.5425 -0.0155
 1021MOL0     C34660   7.108   3.174   0.124  0.2379  0.4929 -0.3466
 1021MOL0     C34661   7.084   3.324   0.097 -0.6068 -0.4455  0.5722
 1021MOL0     C34662   7.073   3.407   0.218  0.1064  0.4011 -0.8494
 1021MOL0     C34663   7.039   3.551   0.173 -0.3223 -0.3715  0.7689
 1021MOL0     O34664   6.910   3.568   0.108 -0.4280  0.6833 -0.2289
 1021MOL0     C34665   6.810   3.642   0.169  0.7366 -0.9152 -0.0519
 1021MOL0     C34666   6.712   3.706   0.091 -0.0377  0.2877 -0.4482
 1021MOL0     C34667   6.603   3.768   0.147  0.2770  1.0354  0.0262
 1021MOL0     C34668   6.568   3.751   0.284 -0.7478  0.1794 -1.3130
 1021MOL0     C34669   6.436   3.787   0.329 -0.0931 -0.9648  0.4038
 1021MOL0     O34670   6.350   3.845   0.241  0.3167 -0.6776 -0.8655
 1021MOL0     C34671   6.223   3.878   0.265 -0.3325  0.3988 -0.7450
 1021MOL0     C34672   6.151   3.888   0.144 -0.1315  0.0026  0.5595
 1021MOL0     C34673   6.011   3.928   0.145  0.9152 -0.3554  0.3535
 1021MOL0     C34674   5.951   3.956   0.264  0.7432  0.0498 -0.0036
 1021MOL0     O34675   5.826   4.016   0.262  0.4508 -0.1751 -0.3653
 1021MOL0     C34676   5.823   4.139   0.320  0.2913 -1.7474 -0.9670
 1021MOL0     C34677   5.703   4.220   0.259 -0.1738  0.6530 -0.6487
 1021MOL0     C34678   5.569   4.177   0.334 -0.3412  0.0339  0.4773
 1021MOL0     C34679   5.436   4.255   0.279 -0.7372  0.5361  0.0352
 1021MOL0     C34680   5.312   4.244   0.373  0.3178 -0.7372 -0.3400
 1021MOL0     C34681   5.270   4.099   0.407  0.0995 -0.2400 -0.1777
 1021MOL0     C34682   5.195   4.051   0.280 -0.7633  0.1528 -0.0375
 1021MOL0     C34683   5.150   3.905   0.298  0.4550  0.3984  0.5267
 1021MOL0    Cl34684   5.270   3.804   0.390 -0.0859  0.2932 -0.1659
 1021MOL0     C34685   6.026   3.959   0.386 -0.2554  0.2702  0.7338
 1021MOL0     C34686   6.159   3.906   0.392  0.2561 -0.4534  1.1342
 1021MOL0     O34687   6.403   3.762   0.442  0.0775  0.0615 -0.6331
 1021MOL0     C34688   6.659   3.680   0.365  0.0668  0.2861 -0.1686
 1021MOL0     C34689   6.779   3.631   0.312 -0.0149  0.3481  0.2020
 1021MOL0     N34690   7.317   3.146   0.292  0.8464 -0.7834  0.3732
 1021MOL0     N34691   7.424   3.065   0.287 -0.5194  0.3074  0.3317
 1021MOL0     C34692   8.534   2.320  -0.016 -0.4727 -0.2346  0.5583
 1021MOL0     C34693   8.665   2.347  -0.048 -0.3862  0.7359 -0.0511
 1021MOL0     C34694   9.111   2.440  -0.027  0.0805 -0.1094  0.2170
 1021MOL0     C34695   9.213   2.370   0.037  0.0561  0.1463 -1.2668
 1021MOL0     C34696   9.346   2.409   0.023  0.0876 -0.0413 -0.0815
 1021MOL0     C34697   9.378   2.506  -0.076  0.3302 -0.5663  0.0826
 1021MOL0     O34698   9.500   2.559  -0.112 -0.3315  0.5508  0.2785
 1021MOL0     C34699   9.619   2.482  -0.095  0.5513 -0.5528  0.7697
 1021MOL0     C34700   9.650   2.417  -0.226 -0.3158  0.3620  0.2418
 1021MOL0     C34701   9.652   2.505  -0.339  0.2054 -0.2557  1.0183
 1021MOL0     C34702   9.675   2.432  -0.473 -0.2744  0.2004  0.4926
 1021MOL0     C34703   9.556   2.368  -0.529  0.2040  0.0247  0.4325
 1021MOL0     C34704   9.447   2.320  -0.566  0.1462  0.6060  0.2470
 1021MOL0     C34705   9.276   2.571  -0.151 -0.0281  1.5396 -0.1146
 1021MOL0     C34706   9.138   2.542  -0.128  0.7877 -0.0052 -0.6592
 1021MOL0     H34707   8.758   2.574   0.179 -3.3957  0.9965  1.5751
 1021MOL0     H34708   8.505   2.534   0.249  0.7659  0.0522  0.7164
 1021MOL0     H34709   8.316   2.553   0.060  1.1140 -2.6468 -1.5065
 1021MOL0     H34710   8.310   2.564   0.240  0.7589  1.8565 -0.4006
 1021MOL0     H34711   8.093   2.434   0.247 -0.1500  0.8402  0.3178
 1021MOL0     H34712   8.098   2.442   0.073  0.8715 -0.0956 -0.5325
 1021MOL0     H34713   8.124   2.696   0.086  1.1020 -0.6614 -0.3256
 1021MOL0     H34714   8.105   2.687   0.255 -0.1744  1.9726 -1.4694
 1021MOL0     H34715   7.895   2.575   0.062 -0.9652 -0.0482  0.2231
 1021MOL0     H34716   7.878   2.574   0.234 -1.9928 -1.9684 -1.6277
 1021MOL0     H34717   7.921   2.835   0.108 -2.2163 -0.1236 -1.7207
 1021MOL0     H34718   7.869   2.797   0.261 -0.6322  1.7633 -0.3257
 1021MOL0     H34719   7.673   2.661   0.177 -1.2271 -0.0534 -0.8508
 1021MOL0     H34720   7.702   2.714   0.012 -1.2967 -0.9684  0.6150
 1021MOL0     H34721   7.685   2.913   0.234  0.0095 -0.7449  0.5101
 1021MOL0     H34722   7.687   2.955   0.069  1.1766  2.0618  3.4254
 1021MOL0     H34723   7.457   2.781   0.177  2.5677 -0.4354  1.0822
 1021MOL0     H34724   7.472   2.853   0.019  0.6945 -1.3203 -0.0201
 1021MOL0     H34725   7.284   3.002  -0.000  0.1500  0.6772 -0.4587
 1021MOL0     H34726   7.033   3.150   0.199  1.7087  1.1778  1.4279
 1021MOL0     H34727   7.095   3.116   0.033  1.9887 -0.4627 -0.0434
 1021MOL0     H34728   6.993   3.329   0.037 -1.5571 -0.1177  1.9794
 1021MOL0     H34729   7.162   3.356   0.028 -0.3693 -2.0492  0.0539
 1021MOL0     H34730   6.995   3.374   0.287  0.2744  0.4473 -0.6373
 1021MOL0     H34731   7.167   3.404   0.274 -0.3973  0.9422  0.0443
 1021MOL0     H34732   7.122   3.585   0.111 -3.5787  0.6030 -3.5590
 1021MOL0     H34733   7.043   3.608   0.266  3.3246  1.3737 -0.2860
 1021MOL0     H34734   6.724   3.720  -0.016  0.7787  3.3203 -0.0556
 1021MOL0     H34735   6.537   3.825   0.082 -1.1900 -0.2376  0.3537
 1021MOL0     H34736   6.198   3.881   0.046  1.4652  1.5726  1.1642
 1021MOL0     H34737   5.968   3.934   0.046  2.4521 -0.6404 -0.3578
 1021MOL0     H34738   5.910   4.200   0.292 -1.8222  0.7435 -2.5980
 1021MOL0     H34739   5.809   4.147   0.428  0.2498 -0.2486 -1.0555
 1021MOL0     H34740   5.702   4.211   0.150  1.3213  0.8313 -0.7076
 1021MOL0     H34741   5.728   4.323   0.286  0.6953 -0.3517  2.9481
 1021MOL0     H34742   5.582   4.185   0.443  0.1598 -2.2094  0.6332
 1021MOL0     H34743   5.541   4.074   0.311 -1.7679  0.2711  1.0396
 1021MOL0     H34744   5.461   4.360   0.262  0.9409  0.2804  0.8017
 1021MOL0     H34745   5.420   4.207   0.182 -0.7027  4.5333 -2.1598
 1021MOL0     H34746   5.230   4.305   0.335 -2.1327 -4.9721 -2.5282
 1021MOL0     H34747   5.349   4.277   0.471 -0.1553 -0.6782 -0.1744
 1021MOL0     H34748   5.197   4.090   0.488 -0.0416 -1.3732 -0.4099
 1021MOL0     H34749   5.354   4.035   0.435 -0.7712 -0.5395  1.8802
 1021MOL0     H34750   5.113   4.114   0.245  0.1654  0.5932 -1.4983
 1021MOL0     H34751   5.265   4.039   0.197 -0.5639  0.5246  0.0754
 1021MOL0     H34752   5.134   3.852   0.203 -0.5401 -1.8683  1.8666
 1021MOL0     H34753   5.055   3.902   0.354  1.5874  1.2499  2.5798
 1021MOL0     H34754   5.975   3.982   0.478 -4.9647 -1.5622 -1.1112
 1021MOL0     H34755   6.211   3.902   0.487  0.7003 -3.1444  0.8464
 1021MOL0     H34756   6.640   3.655   0.469 -1.5425 -0.1690 -0.5433
 1021MOL0     H34757   6.840   3.572   0.380  1.0999  1.5043  0.2486
 1021MOL0     H34758   8.470   2.252  -0.072  0.9848 -0.7236 -0.5600
 1021MOL0     H34759   8.708   2.290  -0.129 -0.2024  0.3933  0.2809
 1021MOL0     H34760   9.190   2.297   0.114  1.4819  2.0123  1.0683
 1021MOL0     H34761   9.428   2.361   0.076  1.7554  2.7422  0.0328
 1021MOL0     H34762   9.604   2.401  -0.023  0.2462 -0.3495  0.9365
 1021MOL0     H34763   9.695   2.553  -0.060  0.4748  0.7847 -1.5651
 1021MOL0     H34764   9.749   2.371  -0.238  0.4303  1.9595 -0.0267
 1021MOL0     H34765   9.575   2.340  -0.244  1.2795 -0.7081 -2.4143
 1021MOL0     H34766   9.729   2.582  -0.329  0.1512  0.0379 -0.5239
 1021MOL0     H34767   9.555   2.554  -0.350  1.4487  2.1919  0.1291
 1021MOL0     H34768   9.701   2.513  -0.542 -1.2457  0.5971  0.5854
 1021MOL0     H34769   9.762   2.365  -0.478 -0.8893 -0.9843  3.6882
 1021MOL0     H34770   9.352   2.287  -0.601  0.1075  2.0940 -1.1883
 1021MOL0     H34771   9.310   2.643  -0.225  2.5756  2.7569  2.1002
 1021MOL0     H34772   9.057   2.591  -0.181 -1.1510  1.8040  3.4354
 1022MOL0     O34773   0.600   0.174   1.289 -0.0465  0.0297  0.0395
 1022MOL0     C34774   0.609   0.277   1.228 -0.6381  0.5779  0.4417
 1022MOL0     O34775   0.509   0.366   1.209 -0.0937 -0.3135 -0.4674
 1022MOL0     C34776   0.373   0.336   1.243 -0.9060  0.2455 -0.6333
 1022MOL0     C34777   0.336   0.323   1.380 -0.3919 -0.2393  0.9003
 1022MOL0     C34778   0.204   0.319   1.409  0.1688 -0.1884  0.6859
 1022MOL0     C34779   0.101   0.315   1.310  0.1592  0.1905  0.1000
 1022MOL0     O34780  -0.026   0.300   1.359  0.4998  0.4427  0.1525
 1022MOL0     C34781  -0.134   0.370   1.282 -0.5056  0.0270  0.3399
 1022MOL0     C34782  -0.259   0.352   1.365  0.7613 -0.5009  0.3142
 1022MOL0     C34783  -0.350   0.240   1.302  0.5476  1.0713 -0.7438
 1022MOL0     C34784  -0.469   0.214   1.401  0.0801 -0.4335 -0.1940
 1022MOL0     C34785  -0.544   0.090   1.347 -0.4484  1.0889  0.7351
 1022MOL0     C34786  -0.681   0.068   1.417  0.6916  0.1945  0.3455
 1022MOL0     C34787  -0.744  -0.053   1.364  0.2185 -0.4203  0.3768
 1022MOL0     C34788  -0.848  -0.109   1.455  0.0268  0.7181 -0.5378
 1022MOL0     N34789  -0.961  -0.025   1.457  0.4719 -0.0007 -1.3724
 1022MOL0     C34790  -1.066  -0.018   1.368  0.0952 -0.2167  1.4387
 1022MOL0     C34791  -1.147   0.092   1.402 -0.4873 -0.7232 -0.1121
 1022MOL0     C34792  -1.252   0.161   1.328  0.2228  0.9368  0.8437
 1022MOL0     C34793  -1.383   0.081   1.321 -0.7265 -0.0772 -0.3293
 1022MOL0     C34794  -1.476   0.156   1.226  0.4664 -0.0508  0.2151
 1022MOL0     C34795  -1.609   0.087   1.205  0.3894 -0.2823 -0.4217
 1022MOL0     O34796  -1.667   0.045   1.330 -0.4063 -0.1805 -0.2268
 1022MOL0     C34797  -1.805   0.019   1.339  0.6445 -0.1841 -0.0551
 1022MOL0     C34798  -1.861  -0.008   1.466  0.2097 -0.8639  0.8055
 1022MOL0     C34799  -2.000  -0.029   1.483  0.0935 -0.4122 -0.3507
 1022MOL0     C34800  -2.083  -0.019   1.373 -0.2794 -0.5520 -0.1281
 1022MOL0     C34801  -2.227  -0.053   1.381  0.0637  0.2556  0.0812
 1022MOL0     O34802  -2.300  -0.023   1.497  0.0558  0.5733 -0.6103
 1022MOL0     C34803  -2.436  -0.029   1.490  0.8800 -0.1289  1.0451
 1022MOL0     C34804  -2.511   0.092   1.485 -0.2725 -0.1667 -0.6106
 1022MOL0     C34805  -2.650   0.092   1.488 -0.0010 -0.8344  0.8504
 1022MOL0     C34806  -2.717  -0.030   1.495 -0.5440 -0.0035 -0.2015
 1022MOL0     O34807  -2.850  -0.052   1.495 -0.6515  0.1776  0.6958
 1022MOL0     C34808  -2.941   0.061   1.498 -0.1058  0.6251  0.0878
 1022MOL0     C34809  -3.088   0.002   1.496  1.2760  0.0692 -0.2382
 1022MOL0     C34810  -3.187   0.113   1.534  0.8339 -0.2584  0.0656
 1022MOL0     C34811  -3.340   0.084   1.489 -0.2917  0.1989  0.6984
 1022MOL0     C34812  -3.441   0.040   1.604  0.5534 -0.1695 -0.0117
 1022MOL0     C34813  -3.577   0.000   1.531 -0.0817  0.2755 -0.0518
 1022MOL0     C34814  -3.672  -0.066   1.625 -0.4836  0.0001 -0.3454
 1022MOL0     C34815  -3.806  -0.084   1.555  0.0185 -0.3602 -0.4089
 1022MOL0    Cl34816  -3.940  -0.029   1.666 -0.0405  0.1442  0.2759
 1022MOL0     C34817  -2.645  -0.150   1.489 -0.0006 -0.1329  0.0644
 1022MOL0     C34818  -2.501  -0.148   1.492  0.3266 -0.0382  0.5151
 1022MOL0     O34819  -2.274  -0.092   1.278 -0.8341 -0.3138 -0.6706
 1022MOL0     C34820  -2.030   0.013   1.247  0.0049  0.2577 -0.4058
 1022MOL0     C34821  -1.895   0.018   1.228  0.3238 -0.1014  0.3088
 1022MOL0     N34822  -1.090   0.139   1.525  0.4511  0.1718 -0.1576
 1022MOL0     N34823  -0.988   0.075   1.548 -0.6178  0.7093 -0.2126
 1022MOL0     C34824   0.132   0.333   1.174 -0.2322 -0.7676 -0.0647
 1022MOL0     C34825   0.275   0.344   1.143  0.6486 -0.6716 -0.3810
 1022MOL0     C34826   0.747   0.305   1.181 -0.4706 -0.7046 -0.0075
 1022MOL0     C34827   0.859   0.227   1.218 -0.4505 -0.1181 -0.3811
 1022MOL0     C34828   0.990   0.265   1.166 -0.1283  0.5132  1.0413
 1022MOL0     C34829   1.009   0.368   1.075  0.3403  0.1579 -0.0948
 1022MOL0     O34830   1.132   0.394   1.022 -0.7676 -0.2668  0.4126
 1022MOL0     C34831   1.150   0.473   0.909 -0.2673 -0.6879 -0.2306
 1022MOL0     C34832   1.291   0.467   0.851  0.9545 -0.2137 -0.2702
 1022MOL0     C34833   1.406   0.482   0.945 -0.5455 -0.4819  0.3317
 1022MOL0     C34834   1.396   0.610   1.033 -0.3884  0.4263  0.2306
 1022MOL0     C34835   1.522   0.646   1.101  0.5999  0.1012  0.1818
 1022MOL0     C34836   1.624   0.685   1.161 -0.3341 -0.5223  0.7335
 1022MOL0     C34837   0.897   0.447   1.040  0.5982 -0.3186  1.1034
 1022MOL0     C34838   0.769   0.425   1.093 -0.4381 -0.7398  0.4174
 1022MOL0     H34839   0.405   0.312   1.464  0.1464 -1.3083  0.3325
 1022MOL0     H34840   0.173   0.312   1.513  0.1831  0.0241  0.7050
 1022MOL0     H34841  -0.157   0.314   1.191 -1.2850 -2.1384  1.8048
 1022MOL0     H34842  -0.092   0.469   1.260  0.8976 -0.8106 -0.9276
 1022MOL0     H34843  -0.305   0.450   1.377 -1.6032 -1.5880  0.6276
 1022MOL0     H34844  -0.237   0.317   1.466 -2.6289 -1.4794  0.8377
 1022MOL0     H34845  -0.292   0.150   1.282  1.1963  1.7904 -2.3200
 1022MOL0     H34846  -0.390   0.269   1.204  0.5453  1.2820 -0.6812
 1022MOL0     H34847  -0.432   0.216   1.504  0.3935  0.0491 -0.3133
 1022MOL0     H34848  -0.541   0.296   1.401  0.9356  0.3940 -2.3157
 1022MOL0     H34849  -0.472   0.011   1.369  0.4512  2.0368  1.3214
 1022MOL0     H34850  -0.546   0.100   1.238  0.5693  4.7998  0.9184
 1022MOL0     H34851  -0.748   0.150   1.391 -0.3153 -0.8073 -0.3052
 1022MOL0     H34852  -0.668   0.074   1.526 -0.1213  2.9554  0.3738
 1022MOL0     H34853  -0.791  -0.043   1.266 -1.6981 -1.9301  1.0819
 1022MOL0     H34854  -0.673  -0.136   1.357 -1.0218 -1.4328 -0.4762
 1022MOL0     H34855  -0.813  -0.126   1.557 -1.4323  0.3900 -0.0559
 1022MOL0     H34856  -0.868  -0.211   1.419  3.0141 -0.8552  1.7629
 1022MOL0     H34857  -1.079  -0.078   1.279 -0.6789  0.1222  1.3107
 1022MOL0     H34858  -1.209   0.176   1.229  2.4897  0.6619  1.7341
 1022MOL0     H34859  -1.265   0.252   1.387 -1.0537 -0.2249  2.4370
 1022MOL0     H34860  -1.429   0.088   1.419 -1.0046 -2.4089 -0.2360
 1022MOL0     H34861  -1.367  -0.019   1.279 -1.0279  0.8410 -2.7804
 1022MOL0     H34862  -1.488   0.252   1.277  0.1705  1.0844 -1.9008
 1022MOL0     H34863  -1.429   0.176   1.129  0.5637 -2.8829 -0.4032
 1022MOL0     H34864  -1.598   0.005   1.134  2.2077 -0.9887  0.6334
 1022MOL0     H34865  -1.673   0.166   1.164 -3.0493 -2.0949  1.0026
 1022MOL0     H34866  -1.802  -0.011   1.558  1.3057  0.0083  0.1495
 1022MOL0     H34867  -2.031  -0.041   1.586  0.9154 -2.0286 -0.2632
 1022MOL0     H34868  -2.457   0.185   1.478  0.3868 -0.5532 -0.7544
 1022MOL0     H34869  -2.710   0.183   1.485  0.2856 -0.5261 -4.3672
 1022MOL0     H34870  -2.935   0.110   1.401 -0.2614 -1.7717 -1.2140
 1022MOL0     H34871  -2.914   0.124   1.582  2.5365  1.2935 -1.1735
 1022MOL0     H34872  -3.101  -0.081   1.566  0.7800 -0.5271 -1.0142
 1022MOL0     H34873  -3.114  -0.037   1.397 -1.4157 -1.6429  1.0218
 1022MOL0     H34874  -3.156   0.202   1.478 -1.6913  0.8265  0.2682
 1022MOL0     H34875  -3.166   0.129   1.641  0.0416 -0.1107  0.2051
 1022MOL0     H34876  -3.391   0.163   1.432 -0.1576  0.2402  0.6360
 1022MOL0     H34877  -3.330  -0.006   1.427  1.3763  1.4243 -0.9062
 1022MOL0     H34878  -3.454   0.124   1.673 -0.9619 -2.0396  2.0979
 1022MOL0     H34879  -3.418  -0.055   1.652 -0.8259 -1.3349 -1.5115
 1022MOL0     H34880  -3.553  -0.062   1.444  1.0966  1.4247 -0.5948
 1022MOL0     H34881  -3.613   0.100   1.503  2.6675  2.0201  2.0646
 1022MOL0     H34882  -3.629  -0.154   1.673 -0.6320  0.4239  0.5947
 1022MOL0     H34883  -3.696   0.003   1.707 -0.8605 -0.9082  0.3221
 1022MOL0     H34884  -3.804  -0.187   1.518  5.0156  0.3115 -2.8936
 1022MOL0     H34885  -3.810  -0.023   1.464 -2.4769  0.9732  0.5258
 1022MOL0     H34886  -2.699  -0.244   1.494 -1.1876  0.4705 -0.9860
 1022MOL0     H34887  -2.436  -0.234   1.506  0.0731 -0.1871  0.7749
 1022MOL0     H34888  -2.091   0.025   1.159  0.2330 -3.8897 -1.3459
 1022MOL0     H34889  -1.856   0.042   1.129 -0.5628  1.2942  0.2747
 1022MOL0     H34890   0.046   0.338   1.108 -0.5332 -0.8585  0.3150
 1022MOL0     H34891   0.307   0.380   1.046 -2.7731  2.5868 -0.5056
 1022MOL0     H34892   0.837   0.128   1.259  1.1348 -0.4186 -0.2035
 1022MOL0     H34893   1.078   0.207   1.194 -0.5779 -0.8433 -0.2245
 1022MOL0     H34894   1.126   0.576   0.937 -3.8297 -1.4454 -0.0162
 1022MOL0     H34895   1.077   0.445   0.832 -0.3034  3.4791 -1.9617
 1022MOL0     H34896   1.301   0.371   0.799  0.5956 -0.7581  0.6577
 1022MOL0     H34897   1.297   0.549   0.778  0.4133 -1.4527 -1.7577
 1022MOL0     H34898   1.506   0.496   0.904 -0.1284  0.5227  1.6125
 1022MOL0     H34899   1.411   0.392   1.008 -5.7276  1.5778  4.5548
 1022MOL0     H34900   1.364   0.695   0.972  3.6059  1.5074 -0.6599
 1022MOL0     H34901   1.320   0.608   1.113 -1.2229 -0.4909 -0.5511
 1022MOL0     H34902   1.716   0.718   1.205  1.0366  0.0280 -2.2905
 1022MOL0     H34903   0.910   0.530   0.971 -2.3652 -1.1117 -0.6110
 1022MOL0     H34904   0.692   0.501   1.076  2.3992  2.4128  0.5602
 1023MOL0     O34905   4.761   8.371   4.438 -0.2236 -0.2576  0.5795
 1023MOL0     C34906   4.865   8.400   4.375  0.3112 -0.5282 -1.2304
 1023MOL0     O34907   4.932   8.322   4.280  0.5746  0.6182 -0.6715
 1023MOL0     C34908   4.862   8.213   4.222 -0.2192 -0.2554 -0.7875
 1023MOL0     C34909   4.828   8.100   4.290  0.3400  1.0178  0.1314
 1023MOL0     C34910   4.751   8.001   4.234 -0.4879  0.3971  0.4292
 1023MOL0     C34911   4.726   7.998   4.094  0.9960  0.2642  0.2045
 1023MOL0     O34912   4.644   7.903   4.036 -0.8491  0.7690  0.3387
 1023MOL0     C34913   4.567   7.824   4.118  0.4819 -0.2386 -0.4442
 1023MOL0     C34914   4.474   7.741   4.035  0.5435  0.7271  0.2649
 1023MOL0     C34915   4.385   7.832   3.954  0.6695 -0.1820 -0.5190
 1023MOL0     C34916   4.268   7.752   3.885  0.7171  0.0992  0.2895
 1023MOL0     C34917   4.177   7.837   3.795 -0.4440 -0.7382 -0.6862
 1023MOL0     C34918   4.079   7.747   3.710  0.5267  0.0604 -0.4314
 1023MOL0     C34919   3.976   7.842   3.644 -0.5586 -0.2197  0.6138
 1023MOL0     C34920   4.031   7.907   3.519 -0.0716 -0.7600 -0.1556
 1023MOL0     N34921   3.942   7.993   3.444 -0.5684  0.6912 -0.2861
 1023MOL0     C34922   3.809   7.973   3.426  0.5727  0.5832  0.6779
 1023MOL0     C34923   3.773   8.088   3.362  0.7580 -1.5513 -0.8647
 1023MOL0     C34924   3.633   8.118   3.324  0.6132 -0.2346 -0.5818
 1023MOL0     C34925   3.592   8.267   3.309  0.5408 -0.7705  0.5961
 1023MOL0     C34926   3.566   8.344   3.440 -0.2856  0.5237  0.0663
 1023MOL0     C34927   3.421   8.363   3.489  0.4823 -0.6462  0.1564
 1023MOL0     O34928   3.390   8.248   3.569  0.3665 -0.7417  1.1605
 1023MOL0     C34929   3.287   8.166   3.537 -0.1249  1.3571 -0.6222
 1023MOL0     C34930   3.219   8.108   3.647 -0.0012 -0.0376 -0.0898
 1023MOL0     C34931   3.126   8.007   3.630 -0.3204 -0.0888 -1.1403
 1023MOL0     C34932   3.077   7.980   3.507 -0.5028  0.3237 -0.0156
 1023MOL0     C34933   2.971   7.883   3.492 -0.3107  0.0325 -0.7059
 1023MOL0     O34934   2.894   7.859   3.601  0.0947 -0.5013  0.4634
 1023MOL0     C34935   2.780   7.774   3.585 -1.4420 -0.6486 -0.8101
 1023MOL0     C34936   2.746   7.685   3.684 -0.3760  0.2705  0.0788
 1023MOL0     C34937   2.633   7.603   3.679  0.8212 -0.3108  1.0514
 1023MOL0     C34938   2.549   7.612   3.572  0.3060 -0.0274 -0.3668
 1023MOL0     O34939   2.427   7.542   3.560 -0.7981  0.8240 -0.0279
 1023MOL0     C34940   2.377   7.453   3.662 -0.3913 -0.3699  0.0238
 1023MOL0     C34941   2.273   7.354   3.607  0.0596  0.4004 -0.6403
 1023MOL0     C34942   2.238   7.247   3.711 -0.4778  0.4777 -0.6745
 1023MOL0     C34943   2.152   7.143   3.640 -0.3872 -0.7038 -0.5972
 1023MOL0     C34944   2.138   7.017   3.724 -0.0155 -0.2290  0.0011
 1023MOL0     C34945   2.042   6.909   3.648  0.8994  0.2862 -0.9990
 1023MOL0     C34946   1.972   6.824   3.763  0.1625  0.3571 -0.0421
 1023MOL0     C34947   2.040   6.694   3.804 -0.3529 -0.2626  0.3066
 1023MOL0    Cl34948   2.213   6.720   3.851  0.0163 -0.2547 -0.6363
 1023MOL0     C34949   2.589   7.700   3.465 -0.7174 -0.0262  0.0945
 1023MOL0     C34950   2.699   7.782   3.478 -0.1591  0.4538  0.0332
 1023MOL0     O34951   2.963   7.828   3.378 -0.2532  0.1310  0.0450
 1023MOL0     C34952   3.136   8.050   3.394  0.2622  0.1615 -0.0767
 1023MOL0     C34953   3.238   8.149   3.409  0.2891  0.3188  0.3596
 1023MOL0     N34954   3.873   8.179   3.359  1.0038  0.6422  0.2575
 1023MOL0     N34955   3.969   8.116   3.399 -0.2314  0.0332 -0.3528
 1023MOL0     C34956   4.790   8.098   4.020  0.2081 -0.4839 -0.4133
 1023MOL0     C34957   4.857   8.207   4.083  0.5673  0.0647 -0.4936
 1023MOL0     C34958   4.949   8.518   4.414 -0.1941  0.4298  0.5472
 1023MOL0     C34959   5.084   8.520   4.377 -0.0276  0.3470  0.4309
 1023MOL0     C34960   5.172   8.622   4.416 -0.5495 -0.3299 -0.8043
 1023MOL0     C34961   5.132   8.724   4.503 -0.5308  0.0116  0.2196
 1023MOL0     O34962   5.226   8.815   4.532 -0.1237 -0.4567 -0.4619
 1023MOL0     C34963   5.201   8.939   4.602  0.1369 -0.6652 -0.1996
 1023MOL0     C34964   5.223   8.923   4.753  0.1210 -0.6297 -0.2685
 1023MOL0     C34965   5.348   8.833   4.789 -0.3012 -0.2118  0.7467
 1023MOL0     C34966   5.477   8.889   4.731  0.6531 -0.5289  0.5802
 1023MOL0     C34967   5.500   9.022   4.767 -0.7684 -0.5100 -0.1496
 1023MOL0     C34968   5.501   9.144   4.797 -0.9821 -0.8614 -0.2078
 1023MOL0     C34969   4.992   8.720   4.544  0.2334  0.2270  0.7944
 1023MOL0     C34970   4.907   8.618   4.499 -0.1920  0.4148  0.0893
 1023MOL0     H34971   4.842   8.106   4.398 -2.1412 -0.2434  0.6060
 1023MOL0     H34972   4.717   7.921   4.298  2.2440  0.6403  2.3606
 1023MOL0     H34973   4.527   7.899   4.188  3.6057  0.5724  0.6411
 1023MOL0     H34974   4.626   7.749   4.171 -0.3043 -0.1893  0.5351
 1023MOL0     H34975   4.411   7.675   4.095 -0.2941  0.2381 -1.1202
 1023MOL0     H34976   4.527   7.674   3.967 -1.0559 -1.7098  1.2764
 1023MOL0     H34977   4.444   7.890   3.882  0.8275 -0.6036 -0.7358
 1023MOL0     H34978   4.334   7.897   4.025  2.0044 -0.9652  1.2130
 1023MOL0     H34979   4.313   7.677   3.819  2.5708  0.5480  0.9618
 1023MOL0     H34980   4.212   7.700   3.964  0.4049  1.2566  0.8429
 1023MOL0     H34981   4.240   7.901   3.733  0.2008  0.4155  1.0867
 1023MOL0     H34982   4.123   7.903   3.864  1.3438 -0.7470  0.8147
 1023MOL0     H34983   4.030   7.672   3.774  1.3773 -0.3807 -0.2847
 1023MOL0     H34984   4.140   7.691   3.640 -1.5572 -1.6196 -1.0053
 1023MOL0     H34985   3.893   7.773   3.624 -2.4540  1.5276  1.9872
 1023MOL0     H34986   3.938   7.922   3.709  1.2754 -0.1189  1.6191
 1023MOL0     H34987   4.055   7.817   3.463 -0.0295 -1.7489  1.3727
 1023MOL0     H34988   4.122   7.964   3.539 -1.0247  1.0958 -0.8383
 1023MOL0     H34989   3.751   7.887   3.457  0.6128  1.4725  3.5511
 1023MOL0     H34990   3.559   8.072   3.391  1.8681 -1.9453 -0.3024
 1023MOL0     H34991   3.623   8.062   3.230  0.6594 -0.5960 -0.3747
 1023MOL0     H34992   3.501   8.279   3.251 -0.2467 -0.6507  1.8262
 1023MOL0     H34993   3.672   8.318   3.253  2.0240 -1.4010  2.0398
 1023MOL0     H34994   3.631   8.293   3.512  3.0948  0.1830 -2.9275
 1023MOL0     H34995   3.609   8.444   3.426  0.1330  0.4651  0.8924
 1023MOL0     H34996   3.353   8.388   3.407  1.0679  1.5087  0.2653
 1023MOL0     H34997   3.426   8.448   3.558  0.2552 -0.1642 -0.4181
 1023MOL0     H34998   3.258   8.129   3.746  1.0937  1.2314 -0.7523
 1023MOL0     H34999   3.082   7.969   3.722 -1.0723  2.4994 -0.3365
 1023MOL0     H35000   2.813   7.686   3.770  0.5816 -1.4546 -0.5952
 1023MOL0     H35001   2.608   7.539   3.763 -0.7547 -1.9448 -0.5873
 1023MOL0     H35002   2.339   7.506   3.750  1.0610 -2.4346  2.0242
 1023MOL0     H35003   2.463   7.394   3.695 -0.3318  0.4100  1.3444
 1023MOL0     H35004   2.328   7.305   3.526 -2.1958 -2.1391 -0.7748
 1023MOL0     H35005   2.182   7.406   3.575 -0.2690 -0.2599 -0.8079
 1023MOL0     H35006   2.191   7.298   3.797  1.1345 -0.8223  1.0650
 1023MOL0     H35007   2.333   7.201   3.742 -0.6787 -0.1321 -0.9529
 1023MOL0     H35008   2.049   7.175   3.623  0.2425  1.5529 -0.4965
 1023MOL0     H35009   2.186   7.110   3.541 -2.3834 -0.6879 -1.3380
 1023MOL0     H35010   2.101   7.051   3.821  0.6671  2.1851 -0.5121
 1023MOL0     H35011   2.235   6.971   3.744  0.6230  0.6338 -0.9952
 1023MOL0     H35012   2.081   6.849   3.566 -2.8538 -1.8667 -1.4358
 1023MOL0     H35013   1.965   6.971   3.601  2.1227  1.2201 -1.8069
 1023MOL0     H35014   1.950   6.890   3.848  1.1274 -2.2337  2.3450
 1023MOL0     H35015   1.873   6.803   3.723  0.0162  1.9668 -0.6279
 1023MOL0     H35016   2.039   6.625   3.719  0.2534 -1.2711  1.1062
 1023MOL0     H35017   1.988   6.639   3.883 -2.4927 -1.3947 -1.7425
 1023MOL0     H35018   2.529   7.709   3.375  3.0722 -1.8816 -2.9301
 1023MOL0     H35019   2.722   7.844   3.392  1.4645 -1.9545 -1.3976
 1023MOL0     H35020   3.103   8.042   3.291 -0.9750 -0.2711  0.3324
 1023MOL0     H35021   3.293   8.187   3.323  1.2363 -0.5247  0.5723
 1023MOL0     H35022   4.788   8.090   3.911 -1.1530  0.4032 -0.4809
 1023MOL0     H35023   4.898   8.282   4.015 -1.7558 -0.4771 -2.6315
 1023MOL0     H35024   5.133   8.447   4.313 -0.3908  1.7610 -1.5441
 1023MOL0     H35025   5.270   8.617   4.370 -0.0446 -1.7202  0.3287
 1023MOL0     H35026   5.106   8.990   4.583 -0.7201 -0.4079  3.8942
 1023MOL0     H35027   5.277   9.012   4.573 -1.0472  0.5656 -0.2923
 1023MOL0     H35028   5.232   9.021   4.800  0.8110 -0.6198 -0.4161
 1023MOL0     H35029   5.137   8.877   4.804  0.1286 -1.8108 -1.2790
 1023MOL0     H35030   5.329   8.728   4.766  3.7045 -0.9822  0.3434
 1023MOL0     H35031   5.352   8.836   4.898 -3.6090 -0.8163  0.9835
 1023MOL0     H35032   5.555   8.825   4.772  2.0941  0.7430 -0.1061
 1023MOL0     H35033   5.477   8.875   4.623 -1.3567  0.5497  0.3856
 1023MOL0     H35034   5.510   9.247   4.824  2.9030 -1.1979  0.3966
 1023MOL0     H35035   4.951   8.794   4.612  0.6435  0.1854  1.0918
 1023MOL0     H35036   4.804   8.612   4.532  0.7025  2.6873  3.8238
 1024MOL0     O35037  10.712   0.016   0.002 -0.7974  0.3688  0.7661
 1024MOL0     C35038  10.764  -0.020   0.108 -1.1189 -0.4888  0.5121
 1024MOL0     O35039  10.721   0.004   0.242 -0.1125 -0.9969  1.1351
 1024MOL0     C35040  10.583   0.037   0.253 -0.0762 -0.4299 -0.5780
 1024MOL0     C35041  10.483  -0.048   0.201 -0.8319  0.3550 -0.9500
 1024MOL0     C35042  10.349  -0.030   0.219 -1.1696 -0.4059  0.6277
 1024MOL0     C35043  10.312   0.083   0.296 -0.1069 -0.1690  0.0256
 1024MOL0     O35044  10.184   0.129   0.301  0.2124  0.5812  0.1387
 1024MOL0     C35045  10.069   0.065   0.240 -0.0689 -0.4169  0.0638
 1024MOL0     C35046  10.069   0.066   0.083  0.2140  1.0378  0.0502
 1024MOL0     C35047   9.947  -0.011   0.012 -0.4044 -0.1110 -0.0724
 1024MOL0     C35048   9.806   0.032   0.051  1.0509  0.3294 -1.3193
 1024MOL0     C35049   9.695  -0.024  -0.042  0.3448  0.8097 -1.2965
 1024MOL0     C35050   9.654  -0.165   0.004  0.1083  0.1500 -0.0883
 1024MOL0     C35051   9.562  -0.211  -0.118 -0.3681 -0.2592  0.1402
 1024MOL0     C35052   9.493  -0.343  -0.085  0.3574 -0.6673 -0.2288
 1024MOL0     N35053   9.427  -0.396  -0.206 -0.3878  0.0333  0.1110
 1024MOL0     C35054   9.299  -0.382  -0.250 -0.9936  0.1329 -0.6089
 1024MOL0     C35055   9.298  -0.449  -0.367 -1.2527 -0.1271  0.0377
 1024MOL0     C35056   9.176  -0.456  -0.446 -0.3704  0.1253  0.5370
 1024MOL0     C35057   9.178  -0.592  -0.520  0.4173 -0.3921  0.3292
 1024MOL0     C35058   9.079  -0.582  -0.640 -0.4130 -1.0019  0.6566
 1024MOL0     C35059   8.972  -0.687  -0.642  0.3941 -0.1882  0.3587
 1024MOL0     O35060   8.877  -0.655  -0.537 -0.5685  0.2246 -0.3608
 1024MOL0     C35061   8.753  -0.710  -0.561 -0.1123 -0.4454 -0.2630
 1024MOL0     C35062   8.729  -0.846  -0.577 -0.5035  0.2788  0.7382
 1024MOL0     C35063   8.598  -0.890  -0.614  0.0731  0.2317 -0.5236
 1024MOL0     C35064   8.488  -0.805  -0.588 -0.3311  0.1296 -0.4873
 1024MOL0     C35065   8.357  -0.849  -0.583 -0.1857  0.1209 -0.1670
 1024MOL0     O35066   8.271  -0.766  -0.515  0.7691  0.1643  1.2489
 1024MOL0     C35067   8.137  -0.785  -0.502 -0.4396 -0.5615 -0.6591
 1024MOL0     C35068   8.052  -0.844  -0.596 -0.1579  0.7092  0.9736
 1024MOL0     C35069   7.912  -0.849  -0.570  0.7099  0.3541  0.2323
 1024MOL0     C35070   7.865  -0.811  -0.451  0.6157 -0.0698 -0.2436
 1024MOL0     O35071   7.734  -0.825  -0.421  0.5154 -0.2066 -0.0549
 1024MOL0     C35072   7.660  -0.738  -0.329 -0.0142  0.8673 -0.3772
 1024MOL0     C35073   7.517  -0.798  -0.337  0.2544  0.0480  1.1351
 1024MOL0     C35074   7.428  -0.732  -0.235  0.0149  0.5031  0.4297
 1024MOL0     C35075   7.290  -0.788  -0.228 -0.0859  0.1323  0.1249
 1024MOL0     C35076   7.194  -0.696  -0.144  0.4040  0.3481 -0.1814
 1024MOL0     C35077   7.059  -0.757  -0.113 -0.0997 -0.0920  0.3993
 1024MOL0     C35078   6.965  -0.677  -0.014  0.1951 -0.1397 -0.3525
 1024MOL0     C35079   6.918  -0.533  -0.058 -0.3553 -0.6884 -0.2747
 1024MOL0    Cl35080   7.047  -0.421  -0.069 -0.1016  0.1007  0.1012
 1024MOL0     C35081   7.946  -0.759  -0.352  0.0880 -0.8630  0.4917
 1024MOL0     C35082   8.081  -0.739  -0.384 -0.7306 -1.1638  0.0739
 1024MOL0     O35083   8.326  -0.960  -0.625 -0.6088 -0.0493 -0.7066
 1024MOL0     C35084   8.515  -0.667  -0.560  0.2032 -0.2933  1.0173
 1024MOL0     C35085   8.646  -0.618  -0.546 -0.0219  0.5966  0.2294
 1024MOL0     N35086   9.413  -0.515  -0.388 -0.1438 -0.7364 -1.3300
 1024MOL0     N35087   9.481  -0.489  -0.284  0.1383 -0.1144 -0.0309
 1024MOL0     C35088  10.401   0.169   0.352  0.0982  0.5701 -0.6777
 1024MOL0     C35089  10.539   0.143   0.340 -0.1670 -0.3749  0.4744
 1024MOL0     C35090  10.909  -0.069   0.095  1.0672 -0.1431 -0.2142
 1024MOL0     C35091  10.975  -0.134   0.197 -0.2146  0.2830 -0.0291
 1024MOL0     C35092  11.109  -0.171   0.173  0.1850 -0.6075  0.3767
 1024MOL0     C35093  11.167  -0.153   0.047 -0.0427 -0.4482 -0.7548
 1024MOL0     O35094  11.297  -0.207   0.032 -0.0652 -0.4815  0.7675
 1024MOL0     C35095  11.387  -0.107  -0.019 -0.1292 -0.2937 -0.6499
 1024MOL0     C35096  11.446  -0.035   0.111 -0.1777 -1.0257  0.2200
 1024MOL0     C35097  11.512  -0.131   0.219  0.5789 -1.0221  0.3506
 1024MOL0     C35098  11.596  -0.042   0.309 -1.1442 -0.7347  0.0561
 1024MOL0     C35099  11.719   0.001   0.244 -0.4464  0.2381 -0.0894
 1024MOL0     C35100  11.816   0.031   0.186  0.1549  1.3430 -0.8692
 1024MOL0     C35101  11.095  -0.100  -0.054 -0.1450 -0.4423  0.4610
 1024MOL0     C35102  10.973  -0.052  -0.031  0.4870 -0.2818  0.0875
 1024MOL0     H35103  10.519  -0.122   0.130  0.4404 -1.4282  1.3946
 1024MOL0     H35104  10.276  -0.090   0.166 -0.6657 -0.7036  0.2533
 1024MOL0     H35105   9.981   0.118   0.277 -0.6053  0.7163 -2.6329
 1024MOL0     H35106  10.060  -0.040   0.272  2.0365 -1.3246 -1.9795
 1024MOL0     H35107  10.161   0.019   0.049  0.0733 -1.0029  2.1967
 1024MOL0     H35108  10.071   0.167   0.041  1.1325  0.0116 -2.5590
 1024MOL0     H35109   9.955  -0.120   0.015  2.1262 -0.1547 -3.0431
 1024MOL0     H35110   9.959   0.002  -0.096  0.3796 -0.5938 -0.0528
 1024MOL0     H35111   9.786  -0.002   0.153 -1.5525  1.7367 -1.2826
 1024MOL0     H35112   9.788   0.140   0.052  0.2660  0.2110  0.2702
 1024MOL0     H35113   9.723  -0.030  -0.148 -3.3297 -3.3516 -2.2836
 1024MOL0     H35114   9.610   0.044  -0.032  1.0436  1.5889 -0.4112
 1024MOL0     H35115   9.607  -0.174   0.102 -0.1059 -4.3099 -0.3943
 1024MOL0     H35116   9.734  -0.240   0.001 -0.3483 -0.7809  4.5315
 1024MOL0     H35117   9.484  -0.137  -0.140  1.0112  1.0163 -0.6342
 1024MOL0     H35118   9.623  -0.227  -0.207 -0.3303  2.1141 -0.3366
 1024MOL0     H35119   9.413  -0.325  -0.013  0.4178 -0.6041 -0.1770
 1024MOL0     H35120   9.567  -0.416  -0.053 -0.4986 -1.8513 -0.8664
 1024MOL0     H35121   9.215  -0.328  -0.207  0.3344  0.3769  1.8720
 1024MOL0     H35122   9.177  -0.366  -0.509  2.5954 -0.0050  0.2953
 1024MOL0     H35123   9.091  -0.454  -0.377  2.1480 -3.1419  4.1522
 1024MOL0     H35124   9.155  -0.675  -0.452 -1.0681  0.7789  1.3138
 1024MOL0     H35125   9.275  -0.624  -0.558 -0.4194  1.3261 -3.8945
 1024MOL0     H35126   9.042  -0.479  -0.650 -1.6302 -1.5741 -1.4105
 1024MOL0     H35127   9.137  -0.613  -0.728  2.6915  0.4540  2.0197
 1024MOL0     H35128   9.017  -0.787  -0.639  1.8109  0.1758 -3.5799
 1024MOL0     H35129   8.924  -0.686  -0.740 -1.1784 -0.3226  1.0934
 1024MOL0     H35130   8.812  -0.916  -0.572 -0.9114 -0.3067 -0.3705
 1024MOL0     H35131   8.576  -0.996  -0.624  0.4141 -0.0183  1.0695
 1024MOL0     H35132   8.102  -0.876  -0.686 -0.1528  0.1140  1.1813
 1024MOL0     H35133   7.846  -0.896  -0.644  1.2720 -1.0849  0.6070
 1024MOL0     H35134   7.664  -0.632  -0.354  2.4191  0.6201 -1.3324
 1024MOL0     H35135   7.688  -0.735  -0.223 -2.2940  6.4960  0.3973
 1024MOL0     H35136   7.532  -0.905  -0.321  0.8905  0.0917  0.8637
 1024MOL0     H35137   7.480  -0.786  -0.439 -0.3206 -1.2240  1.1718
 1024MOL0     H35138   7.428  -0.623  -0.242  2.5623  0.6812  1.8462
 1024MOL0     H35139   7.474  -0.751  -0.138  1.7097 -1.0641 -0.6126
 1024MOL0     H35140   7.246  -0.765  -0.326  1.2270 -2.5037 -1.2096
 1024MOL0     H35141   7.284  -0.895  -0.207  0.5900  0.2975  1.2272
 1024MOL0     H35142   7.185  -0.600  -0.196  2.7636  1.8092  1.8462
 1024MOL0     H35143   7.246  -0.676  -0.049  1.6864 -1.7940 -0.3718
 1024MOL0     H35144   7.076  -0.858  -0.074  0.7529 -0.3290 -0.5448
 1024MOL0     H35145   7.000  -0.765  -0.204  1.1730  2.7651 -0.7766
 1024MOL0     H35146   6.872  -0.733  -0.011  0.3202 -0.3430  2.3648
 1024MOL0     H35147   7.015  -0.675   0.084  3.1306 -3.5121 -1.5155
 1024MOL0     H35148   6.845  -0.501   0.017  0.4640  1.4990 -0.3159
 1024MOL0     H35149   6.869  -0.530  -0.155 -0.7155  2.4496 -0.1108
 1024MOL0     H35150   7.909  -0.735  -0.252 -0.2373 -0.1183  0.2030
 1024MOL0     H35151   8.145  -0.689  -0.311 -1.8355 -1.4142  1.2606
 1024MOL0     H35152   8.437  -0.594  -0.541  0.1553 -0.2863  0.7936
 1024MOL0     H35153   8.661  -0.522  -0.498 -0.1774 -0.1352  1.8004
 1024MOL0     H35154  10.362   0.260   0.397 -2.5269  0.4518 -2.4797
 1024MOL0     H35155  10.619   0.196   0.391  1.4558 -1.6882 -0.6177
 1024MOL0     H35156  10.941  -0.155   0.298 -0.4655 -0.5650 -0.2770
 1024MOL0     H35157  11.167  -0.205   0.258 -0.1368 -1.4274  0.2826
 1024MOL0     H35158  11.353  -0.026  -0.085  1.3596  2.4237  1.6759
 1024MOL0     H35159  11.469  -0.149  -0.078  0.6498 -0.9341  0.8419
 1024MOL0     H35160  11.523   0.033   0.073 -1.7354  0.6039 -0.1546
 1024MOL0     H35161  11.359   0.021   0.145 -0.0086 -1.0880  0.7644
 1024MOL0     H35162  11.574  -0.205   0.168 -0.6042 -1.8869  0.1088
 1024MOL0     H35163  11.433  -0.176   0.280  0.2170 -0.0054  0.6553
 1024MOL0     H35164  11.542   0.050   0.333 -2.3639 -0.3105 -3.6645
 1024MOL0     H35165  11.625  -0.084   0.406  1.8056 -1.9479 -1.2108
 1024MOL0     H35166  11.909   0.065   0.145  0.5253 -0.0058 -1.1981
 1024MOL0     H35167  11.147  -0.096  -0.149 -0.9367 -0.5104  0.0162
 1024MOL0     H35168  10.932   0.006  -0.113 -0.1164  0.6414  1.0126
  11.28774  11.28774  11.28774
